Protein in INSANE! Membrane UpperLeaflet>POPC=1.0 LowerLeaflet>POPC=1.0
243992
    1AU     AUC    1   8.965  29.289   7.505
    1AU     AUC    2   9.247  29.303   7.330
    1AU     AUC    3   9.225  29.278   7.679
    1AU     AUC    4   8.683  29.281   7.336
    1AU     AUC    5   8.694  29.320   7.686
    1AU     AUC    6   8.796  29.570   7.502
    1AU     AUC    7   9.161  29.567   7.500
    1AU     AUC    8   8.779  29.019   7.512
    1AU     AUC    9   9.132  29.000   7.502
    1AU     AUC   10   8.964  29.111   7.781
    1AU     AUC   11   8.959  29.460   7.776
    1AU     AUC   12   8.965  29.125   7.227
    1AU     AUC   13   8.985  29.446   7.229
    1AU     AUC   14   9.561  29.311   7.162
    1AU     AUC   15   9.569  29.266   7.523
    1AU     AUC   16   9.510  29.248   7.879
    1AU     AUC   17   8.382  29.269   7.166
    1AU     AUC   18   8.358  29.308   7.529
    1AU     AUC   19   8.401  29.350   7.866
    1AU     AUC   20   8.630  29.879   7.477
    1AU     AUC   21   8.991  29.888   7.472
    1AU     AUC   22   9.371  29.838   7.496
    1AU     AUC   23   8.586  28.741   7.515
    1AU     AUC   24   8.939  28.690   7.492
    1AU     AUC   25   9.304  28.701   7.485
    1AU     AUC   26   8.945  28.934   8.065
    1AU     AUC   27   8.970  29.308   8.116
    1AU     AUC   28   8.978  29.640   8.068
    1AU     AUC   29   8.995  28.952   6.949
    1AU     AUC   30   8.980  29.281   6.890
    1AU     AUC   31   8.964  29.606   6.933
    1AU     AUC   32   9.224  29.076   8.009
    1AU     AUC   33   9.272  29.430   8.011
    1AU     AUC   34   9.304  29.155   6.999
    1AU     AUC   35   9.291  29.476   7.035
    1AU     AUC   36   8.656  29.160   8.014
    1AU     AUC   37   8.678  29.534   7.984
    1AU     AUC   38   8.670  29.098   7.042
    1AU     AUC   39   8.645  29.417   6.997
    1AU     AUC   40   9.506  29.586   7.342
    1AU     AUC   41   9.467  29.567   7.691
    1AU     AUC   42   8.477  29.582   7.322
    1AU     AUC   43   8.493  29.636   7.677
    1AU     AUC   44   9.444  28.993   7.328
    1AU     AUC   45   9.411  28.943   7.686
    1AU     AUC   46   8.449  28.980   7.361
    1AU     AUC   47   8.494  29.030   7.719
    1AU     AUC   48   8.814  29.825   7.772
    1AU     AUC   49   9.169  29.754   7.768
    1AU     AUC   50   8.770  28.814   7.804
    1AU     AUC   51   9.095  28.762   7.779
    1AU     AUC   52   8.787  29.730   7.195
    1AU     AUC   53   9.168  29.771   7.206
    1AU     AUC   54   8.777  28.815   7.210
    1AU     AUC   55   9.171  28.836   7.204
    1AU    AUSL   56   9.483  29.147   8.263
    1AU    AUSL   57   9.238  28.759   8.175
    1AU     AUL   58   9.439  28.785   8.554
    1AU       S   59   9.568  28.563   8.184
    1AU     LIG   60   9.432  28.276   8.525
    1AU     LIG   61   9.686  28.012   8.797
    1AU     LIG   62   9.969  27.689   8.971
    1AU     LIG   63  10.229  27.545   9.337
    1AU       S   64   9.680  29.070   8.301
    1AU     LIG   65   9.792  29.080   8.766
    1AU     LIG   66   9.917  28.942   9.214
    1AU     LIG   67  10.157  28.823   9.613
    1AU     LIG   68  10.536  28.781   9.906
    1AU    AUSL   69   9.066  29.098   8.389
    1AU    AUSL   70   8.816  29.477   8.402
    1AU     AUL   71   9.018  29.419   8.749
    1AU       S   72   9.077  29.038   8.515
    1AU     LIG   73   9.124  28.951   8.940
    1AU     LIG   74   9.430  28.769   9.257
    1AU     LIG   75   9.677  28.610   9.647
    1AU     LIG   76   9.732  28.525  10.121
    1AU       S   77   8.617  29.238   8.625
    1AU     LIG   78   8.685  29.263   9.092
    1AU     LIG   79   8.448  29.280   9.484
    1AU     LIG   80   8.147  29.342   9.838
    1AU     LIG   81   7.984  29.681  10.133
    1AU    AUSL   82   9.231  29.507   8.358
    1AU    AUSL   83   9.605  29.536   8.121
    1AU     AUL   84   9.498  29.423   8.530
    1AU       S   85   9.125  29.829   8.494
    1AU     LIG   86   9.374  29.777   8.873
    1AU     LIG   87   9.547  29.861   9.311
    1AU     LIG   88   9.521  29.889   9.800
    1AU     LIG   89   9.578  29.906  10.280
    1AU       S   90   9.678  29.783   8.300
    1AU     LIG   91  10.089  29.696   8.381
    1AU     LIG   92  10.393  29.915   8.685
    1AU     LIG   93  10.636  30.199   8.990
    1AU     LIG   94  10.865  30.555   9.204
    1AU    AUSL   95   9.512  29.450   6.754
    1AU    AUSL   96   9.290  29.759   6.971
    1AU     AUL   97   9.339  29.839   6.612
    1AU       S   98   9.486  29.505   6.333
    1AU     LIG   99   9.845  29.315   6.123
    1AU     LIG  100   9.938  28.993   5.809
    1AU     LIG  101  10.045  28.902   5.360
    1AU     LIG  102  10.258  28.953   4.943
    1AU       S  103   9.707  29.999   6.848
    1AU     LIG  104   9.810  30.177   6.446
    1AU     LIG  105   9.983  30.365   6.051
    1AU     LIG  106  10.224  30.670   5.805
    1AU     LIG  107  10.275  30.843   5.370
    1AU    AUSL  108   9.291  29.107   6.611
    1AU    AUSL  109   9.638  29.073   6.926
    1AU     AUL  110   9.705  29.202   6.618
    1AU       S  111   9.792  28.751   6.688
    1AU     LIG  112   9.969  28.465   6.361
    1AU     LIG  113  10.256  28.120   6.217
    1AU     LIG  114  10.526  27.928   5.880
    1AU     LIG  115  10.756  27.882   5.463
    1AU       S  116   9.375  29.342   6.304
    1AU     LIG  117   9.477  28.945   6.139
    1AU     LIG  118   9.505  28.715   5.730
    1AU     LIG  119   9.563  28.751   5.265
    1AU     LIG  120   9.787  28.762   4.845
    1AU    AUSL  121   9.086  29.471   6.724
    1AU    AUSL  122   8.873  29.079   6.718
    1AU     AUL  123   9.032  29.078   6.448
    1AU       S  124   8.584  29.103   6.302
    1AU     LIG  125   8.689  28.901   5.949
    1AU     LIG  126   8.434  28.716   5.617
    1AU     LIG  127   8.203  28.726   5.215
    1AU     LIG  128   7.997  28.722   4.789
    1AU       S  129   9.137  29.520   6.339
    1AU     LIG  130   9.176  29.304   5.870
    1AU     LIG  131   9.534  29.204   5.556
    1AU     LIG  132   9.720  29.222   5.115
    1AU     LIG  133   9.859  29.263   4.678
    1AU    AUSL  134   8.417  29.425   8.238
    1AU    AUSL  135   8.719  29.775   8.121
    1AU     AUL  136   8.583  29.719   8.457
    1AU       S  137   8.410  29.319   8.658
    1AU     LIG  138   8.199  29.121   8.995
    1AU     LIG  139   7.987  29.055   9.415
    1AU     LIG  140   7.802  28.934   9.833
    1AU     LIG  141   7.411  28.868  10.088
    1AU       S  142   8.305  30.027   8.196
    1AU     LIG  143   8.387  30.169   8.599
    1AU     LIG  144   8.226  30.473   8.894
    1AU     LIG  145   8.021  30.531   9.303
    1AU     LIG  146   7.904  30.804   9.659
    1AU    AUSL  147   8.717  29.137   8.156
    1AU    AUSL  148   8.307  29.004   8.136
    1AU     AUL  149   8.197  29.238   8.257
    1AU       S  150   8.234  28.785   8.391
    1AU     LIG  151   7.801  28.704   8.228
    1AU     LIG  152   7.578  28.325   8.376
    1AU     LIG  153   7.408  28.027   8.695
    1AU     LIG  154   7.212  27.662   8.940
    1AU       S  155   8.586  29.090   8.545
    1AU     LIG  156   8.616  28.807   8.896
    1AU     LIG  157   8.445  28.791   9.316
    1AU     LIG  158   8.318  28.847   9.757
    1AU     LIG  159   8.149  28.717  10.168
    1AU    AUSL  160   8.458  29.168   6.777
    1AU    AUSL  161   8.653  28.805   6.953
    1AU     AUL  162   8.691  28.791   6.623
    1AU       S  163   8.366  29.043   6.406
    1AU     LIG  164   8.158  28.862   6.047
    1AU     LIG  165   7.958  28.948   5.623
    1AU     LIG  166   7.718  28.919   5.211
    1AU     LIG  167   7.283  28.823   5.039
    1AU       S  168   8.274  28.680   6.773
    1AU     LIG  169   8.235  28.302   6.521
    1AU     LIG  170   7.902  27.975   6.374
    1AU     LIG  171   7.565  27.649   6.208
    1AU     LIG  172   7.371  27.449   5.815
    1AU    AUSL  173   8.697  29.476   6.577
    1AU    AUSL  174   8.278  29.536   6.918
    1AU     AUL  175   8.332  29.460   6.596
    1AU       S  176   7.994  29.738   6.745
    1AU     LIG  177   7.734  30.012   6.547
    1AU     LIG  178   7.670  30.288   6.209
    1AU     LIG  179   7.368  30.204   5.876
    1AU     LIG  180   6.939  30.302   5.717
    1AU       S  181   8.660  29.338   6.286
    1AU     LIG  182   8.377  29.313   5.899
    1AU     LIG  183   8.365  29.199   5.447
    1AU     LIG  184   8.133  29.208   5.040
    1AU     LIG  185   8.058  29.461   4.646
    1AU    AUSL  186   9.798  29.772   7.509
    1AU    AUSL  187   9.667  29.574   7.125
    1AU     AUL  188  10.030  29.772   7.174
    1AU       S  189   9.742  29.843   6.845
    1AU     LIG  190   9.939  29.677   6.507
    1AU     LIG  191  10.217  29.919   6.216
    1AU     LIG  192  10.478  30.236   5.968
    1AU     LIG  193  10.662  30.482   5.602
    1AU       S  194  10.182  29.859   7.602
    1AU     LIG  195  10.666  29.881   7.467
    1AU     LIG  196  11.115  30.080   7.482
    1AU     LIG  197  11.363  30.479   7.625
    1AU     LIG  198  11.748  30.767   7.687
    1AU    AUSL  199   9.938  29.374   7.395
    1AU    AUSL  200   9.858  29.062   7.723
    1AU     AUL  201  10.093  29.248   7.829
    1AU       S  202  10.227  29.460   7.441
    1AU     LIG  203  10.602  29.433   7.222
    1AU     LIG  204  11.074  29.541   7.205
    1AU     LIG  205  11.461  29.787   7.212
    1AU     LIG  206  11.882  29.910   7.034
    1AU       S  207  10.150  28.852   7.560
    1AU     LIG  208  10.597  28.839   7.734
    1AU     LIG  209  10.952  28.532   7.825
    1AU     LIG  210  11.422  28.379   7.786
    1AU     LIG  211  11.862  28.370   7.961
    1AU    AUSL  212   9.652  29.427   7.722
    1AU    AUSL  213   9.572  29.891   7.846
    1AU     AUL  214   9.866  29.659   7.890
    1AU       S  215   9.772  30.049   8.136
    1AU     LIG  216  10.076  30.222   8.413
    1AU     LIG  217  10.438  30.454   8.593
    1AU     LIG  218  10.617  30.821   8.818
    1AU     LIG  219  10.698  31.297   8.777
    1AU       S  220  10.248  29.639   7.631
    1AU     LIG  221  10.622  29.443   7.762
    1AU     LIG  222  11.048  29.610   7.713
    1AU     LIG  223  11.474  29.790   7.736
    1AU     LIG  224  11.897  29.933   7.902
    1AU    AUSL  225   8.307  29.854   7.506
    1AU    AUSL  226   8.370  29.657   7.895
    1AU     AUL  227   8.062  29.953   7.739
    1AU       S  228   8.211  29.824   8.154
    1AU     LIG  229   8.093  29.730   8.578
    1AU     LIG  230   7.958  30.022   8.934
    1AU     LIG  231   7.616  30.220   9.211
    1AU     LIG  232   7.242  30.283   9.508
    1AU       S  233   8.274  30.235   7.428
    1AU     LIG  234   7.776  30.239   7.419
    1AU     LIG  235   7.396  30.510   7.609
    1AU     LIG  236   7.054  30.866   7.530
    1AU     LIG  237   6.702  31.207   7.443
    1AU    AUSL  238   8.259  29.461   7.324
    1AU    AUSL  239   8.387  29.917   7.096
    1AU     AUL  240   8.083  29.786   7.203
    1AU       S  241   7.904  29.277   6.972
    1AU     LIG  242   7.601  29.677   7.053
    1AU     LIG  243   7.218  29.979   7.086
    1AU     LIG  244   6.750  30.108   7.007
    1AU     LIG  245   6.288  30.110   6.856
    1AU       S  246   8.208  30.162   6.921
    1AU     LIG  247   7.967  30.454   6.639
    1AU     LIG  248   8.003  30.698   6.244
    1AU     LIG  249   7.805  31.087   6.113
    1AU     LIG  250   7.448  31.304   6.318
    1AU    AUSL  251   8.042  29.499   7.698
    1AU    AUSL  252   8.016  29.130   7.404
    1AU     AUL  253   7.860  29.446   7.416
    1AU       S  254   7.809  29.046   7.676
    1AU     LIG  255   7.502  29.089   7.333
    1AU     LIG  256   7.051  28.909   7.283
    1AU     LIG  257   6.612  28.670   7.261
    1AU     LIG  258   6.189  28.411   7.270
    1AU       S  259   7.892  29.526   7.914
    1AU     LIG  260   7.578  29.798   7.657
    1AU     LIG  261   7.147  30.037   7.661
    1AU     LIG  262   6.658  30.120   7.770
    1AU     LIG  263   6.190  30.035   7.895
    1AU    AUSL  264   9.664  28.714   7.537
    1AU    AUSL  265   9.483  28.969   7.884
    1AU     AUL  266   9.828  28.828   7.901
    1AU       S  267   9.989  28.607   7.508
    1AU     LIG  268  10.445  28.431   7.457
    1AU     LIG  269  10.856  28.157   7.487
    1AU     LIG  270  11.265  27.912   7.528
    1AU     LIG  271  11.366  27.426   7.579
    1AU       S  272   9.651  28.467   8.109
    1AU     LIG  273   9.936  28.280   8.405
    1AU     LIG  274  10.209  28.058   8.698
    1AU     LIG  275  10.485  27.816   8.975
    1AU     LIG  276  10.863  27.689   9.204
    1AU    AUSL  277   9.638  29.095   7.343
    1AU    AUSL  278   9.580  28.681   7.121
    1AU     AUL  279   9.847  28.882   7.155
    1AU       S  280  10.202  28.964   7.417
    1AU     LIG  281  10.566  28.885   7.212
    1AU     LIG  282  10.918  28.624   7.303
    1AU     LIG  283  11.357  28.436   7.263
    1AU     LIG  284  11.747  28.486   6.983
    1AU       S  285   9.779  28.539   6.837
    1AU     LIG  286   9.835  28.101   6.719
    1AU     LIG  287  10.044  27.742   6.496
    1AU     LIG  288  10.400  27.571   6.245
    1AU     LIG  289  10.752  27.252   6.192
    1AU    AUSL  290   8.221  28.771   7.558
    1AU    AUSL  291   8.321  29.008   7.142
    1AU     AUL  292   7.974  28.831   7.274
    1AU       S  293   8.151  28.826   6.847
    1AU     LIG  294   7.863  28.664   6.502
    1AU     LIG  295   7.541  28.344   6.419
    1AU     LIG  296   7.229  28.043   6.270
    1AU     LIG  297   6.991  27.753   6.001
    1AU       S  298   7.789  28.811   7.710
    1AU     LIG  299   7.461  28.599   7.475
    1AU     LIG  300   7.018  28.429   7.487
    1AU     LIG  301   6.588  28.241   7.554
    1AU     LIG  302   6.154  28.124   7.705
    1AU    AUSL  303   8.278  29.155   7.749
    1AU    AUSL  304   8.530  28.779   7.850
    1AU     AUL  305   8.201  28.738   7.902
    1AU       S  306   8.263  28.572   8.333
    1AU     LIG  307   8.046  28.230   8.144
    1AU     LIG  308   7.729  27.860   8.204
    1AU     LIG  309   7.513  27.557   8.507
    1AU     LIG  310   7.275  27.184   8.695
    1AU       S  311   7.862  29.055   7.856
    1AU     LIG  312   7.317  28.973   7.805
    1AU     LIG  313   6.810  28.838   7.733
    1AU     LIG  314   6.322  28.682   7.699
    1AU     LIG  315   5.842  28.534   7.677
    1AU    AUSL  316   8.983  30.075   7.986
    1AU    AUSL  317   8.566  30.025   7.803
    1AU     AUL  318   8.761  30.120   8.207
    1AU       S  319   8.429  30.218   7.896
    1AU     LIG  320   8.370  30.548   8.246
    1AU     LIG  321   8.190  30.900   8.566
    1AU     LIG  322   7.916  31.217   8.825
    1AU     LIG  323   7.562  31.549   8.821
    1AU       S  324   9.064  30.420   7.951
    1AU     LIG  325   9.149  30.487   8.346
    1AU     LIG  326   9.132  30.910   8.549
    1AU     LIG  327   8.972  31.288   8.780
    1AU     LIG  328   8.928  31.514   9.192
    1AU    AUSL  329   8.853  30.234   7.581
    1AU    AUSL  330   9.134  30.151   7.243
    1AU     AUL  331   9.090  30.508   7.377
    1AU       S  332   8.869  30.481   7.786
    1AU     LIG  333   8.943  30.886   8.057
    1AU     LIG  334   8.897  31.309   8.259
    1AU     LIG  335   8.601  31.687   8.261
    1AU     LIG  336   8.251  32.009   8.362
    1AU       S  337   8.831  30.394   7.025
    1AU     LIG  338   9.255  30.655   6.948
    1AU     LIG  339   9.247  31.094   6.899
    1AU     LIG  340   9.262  31.500   6.694
    1AU     LIG  341   9.533  31.884   6.698
    1AU    AUSL  342   9.231  30.019   7.640
    1AU    AUSL  343   9.216  29.729   8.015
    1AU     AUL  344   9.309  30.050   8.078
    1AU       S  345   9.588  29.915   8.412
    1AU     LIG  346   9.855  29.939   8.779
    1AU     LIG  347  10.117  30.271   8.954
    1AU     LIG  348  10.346  30.579   9.215
    1AU     LIG  349  10.417  30.729   9.663
    1AU       S  350   9.322  30.331   7.723
    1AU     LIG  351   9.455  30.718   7.973
    1AU     LIG  352   9.390  31.142   8.161
    1AU     LIG  353   9.359  31.606   8.228
    1AU     LIG  354   9.569  32.036   8.163
    1AU    AUSL  355   8.922  28.590   7.933
    1AU    AUSL  356   9.338  28.579   7.778
    1AU     AUL  357   9.124  28.436   8.148
    1AU       S  358   8.884  28.085   7.966
    1AU     LIG  359   8.772  27.923   8.337
    1AU     LIG  360   8.662  27.484   8.449
    1AU     LIG  361   8.654  27.020   8.491
    1AU     LIG  362   8.872  26.640   8.668
    1AU       S  363   9.506  28.403   7.868
    1AU     LIG  364   9.558  27.987   8.114
    1AU     LIG  365   9.888  27.760   8.396
    1AU     LIG  366  10.281  27.550   8.576
    1AU     LIG  367  10.699  27.390   8.752
    1AU    AUSL  368   8.604  28.419   7.658
    1AU    AUSL  369   8.707  28.739   8.259
    1AU     AUL  370   8.589  28.451   8.023
    1AU       S  371   8.694  28.038   7.819
    1AU     LIG  372   8.504  27.650   7.983
    1AU     LIG  373   8.341  27.216   8.110
    1AU     LIG  374   8.362  26.746   8.149
    1AU     LIG  375   8.154  26.364   8.272
    1AU       S  376   8.516  28.623   8.454
    1AU     LIG  377   8.363  28.160   8.562
    1AU     LIG  378   7.938  27.977   8.651
    1AU     LIG  379   7.723  27.715   8.973
    1AU     LIG  380   7.627  27.691   9.433
    1AU    AUSL  381   9.035  28.343   7.604
    1AU    AUSL  382   8.803  28.586   7.320
    1AU     AUL  383   8.694  28.242   7.403
    1AU       S  384   9.074  28.136   7.176
    1AU     LIG  385   8.767  27.765   7.266
    1AU     LIG  386   8.586  27.378   7.041
    1AU     LIG  387   8.563  26.927   6.858
    1AU     LIG  388   8.671  26.472   6.741
    1AU       S  389   9.044  28.124   7.732
    1AU     LIG  390   8.987  27.624   7.776
    1AU     LIG  391   8.857  27.206   8.028
    1AU     LIG  392   8.886  26.711   8.143
    1AU     LIG  393   9.132  26.320   8.292
    1AU    AUSL  394   8.948  29.976   6.875
    1AU    AUSL  395   9.508  29.966   7.276
    1AU     AUL  396   9.280  30.152   6.961
    1AU       S  397   8.873  30.352   6.810
    1AU     LIG  398   9.007  30.660   6.517
    1AU     LIG  399   9.173  31.061   6.385
    1AU     LIG  400   9.178  31.295   5.992
    1AU     LIG  401   9.001  31.666   5.804
    1AU       S  402   9.710  30.111   7.138
    1AU     LIG  403  10.139  30.210   6.878
    1AU     LIG  404  10.307  30.379   6.460
    1AU     LIG  405  10.563  30.695   6.209
    1AU     LIG  406  10.916  31.029   6.249
    1AU    AUSL  407   8.755  29.961   7.278
    1AU    AUSL  408   8.697  29.645   6.956
    1AU     AUL  409   8.631  29.959   6.841
    1AU       S  410   8.672  30.329   7.146
    1AU     LIG  411   8.780  30.872   7.057
    1AU     LIG  412   8.769  31.358   6.909
    1AU     LIG  413   8.674  31.839   6.819
    1AU     LIG  414   8.562  32.264   6.573
    1AU       S  415   8.228  29.925   6.639
    1AU     LIG  416   8.169  30.181   6.248
    1AU     LIG  417   8.011  30.394   5.831
    1AU     LIG  418   8.095  30.639   5.424
    1AU     LIG  419   8.030  30.995   5.096
    1AU    AUSL  420   8.988  28.543   6.930
    1AU    AUSL  421   8.396  28.580   7.223
    1AU     AUL  422   8.651  28.430   6.974
    1AU       S  423   8.188  28.529   6.984
    1AU     LIG  424   7.831  28.240   6.838
    1AU     LIG  425   7.499  27.887   6.691
    1AU     LIG  426   7.142  27.595   6.507
    1AU     LIG  427   7.052  27.274   6.171
    1AU       S  428   9.039  28.148   6.998
    1AU     LIG  429   9.035  27.696   6.837
    1AU     LIG  430   8.919  27.259   6.660
    1AU     LIG  431   8.889  26.839   6.438
    1AU     LIG  432   9.066  26.586   6.077
    1AU    AUSL  433   9.230  28.565   7.308
    1AU    AUSL  434   9.236  28.879   6.954
    1AU     AUL  435   9.322  28.510   6.923
    1AU       S  436   9.327  28.198   7.269
    1AU     LIG  437   9.267  27.705   7.324
    1AU     LIG  438   9.078  27.281   7.161
    1AU     LIG  439   9.061  26.831   6.941
    1AU     LIG  440   9.226  26.493   6.641
    1AU       S  441   9.559  28.724   6.599
    1AU     LIG  442   9.470  28.334   6.443
    1AU     LIG  443   9.729  28.023   6.200
    1AU     LIG  444  10.022  27.754   5.934
    1AU     LIG  445  10.276  27.605   5.552
    2AU     AUC  446  15.452  33.245   7.499
    2AU     AUC  447  15.728  33.264   7.322
    2AU     AUC  448  15.712  33.236   7.672
    2AU     AUC  449  15.169  33.237   7.331
    2AU     AUC  450  15.185  33.273   7.680
    2AU     AUC  451  15.283  33.528   7.498
    2AU     AUC  452  15.644  33.527   7.494
    2AU     AUC  453  15.270  32.969   7.505
    2AU     AUC  454  15.621  32.954   7.493
    2AU     AUC  455  15.455  33.066   7.775
    2AU     AUC  456  15.445  33.417   7.771
    2AU     AUC  457  15.449  33.081   7.222
    2AU     AUC  458  15.464  33.405   7.226
    2AU     AUC  459  16.033  33.279   7.153
    2AU     AUC  460  16.051  33.229   7.513
    2AU     AUC  461  15.999  33.209   7.869
    2AU     AUC  462  14.870  33.219   7.161
    2AU     AUC  463  14.848  33.263   7.522
    2AU     AUC  464  14.893  33.300   7.861
    2AU     AUC  465  15.118  33.834   7.479
    2AU     AUC  466  15.476  33.853   7.475
    2AU     AUC  467  15.853  33.804   7.492
    2AU     AUC  468  15.081  32.691   7.512
    2AU     AUC  469  15.436  32.641   7.484
    2AU     AUC  470  15.797  32.658   7.475
    2AU     AUC  471  15.439  32.890   8.058
    2AU     AUC  472  15.461  33.264   8.110
    2AU     AUC  473  15.465  33.597   8.067
    2AU     AUC  474  15.479  32.907   6.944
    2AU     AUC  475  15.455  33.244   6.889
    2AU     AUC  476  15.436  33.576   6.926
    2AU     AUC  477  15.716  33.033   8.001
    2AU     AUC  478  15.762  33.386   8.006
    2AU     AUC  479  15.776  33.122   6.989
    2AU     AUC  480  15.760  33.442   7.023
    2AU     AUC  481  15.148  33.113   8.008
    2AU     AUC  482  15.169  33.490   7.983
    2AU     AUC  483  15.154  33.047   7.039
    2AU     AUC  484  15.130  33.374   6.996
    2AU     AUC  485  15.982  33.551   7.331
    2AU     AUC  486  15.953  33.528   7.681
    2AU     AUC  487  14.970  33.537   7.312
    2AU     AUC  488  14.982  33.587   7.668
    2AU     AUC  489  15.927  32.954   7.316
    2AU     AUC  490  15.902  32.903   7.676
    2AU     AUC  491  14.942  32.930   7.360
    2AU     AUC  492  14.985  32.982   7.714
    2AU     AUC  493  15.304  33.782   7.775
    2AU     AUC  494  15.656  33.711   7.765
    2AU     AUC  495  15.265  32.769   7.798
    2AU     AUC  496  15.591  32.716   7.771
    2AU     AUC  497  15.275  33.689   7.196
    2AU     AUC  498  15.643  33.741   7.204
    2AU     AUC  499  15.269  32.764   7.205
    2AU     AUC  500  15.659  32.792   7.193
    2AU    AUSL  501  15.976  33.105   8.255
    2AU    AUSL  502  15.734  32.719   8.168
    2AU     AUL  503  15.941  32.750   8.553
    2AU       S  504  16.065  32.533   8.179
    2AU     LIG  505  15.949  32.165   8.470
    2AU     LIG  506  16.194  31.821   8.682
    2AU     LIG  507  16.455  31.697   9.060
    2AU     LIG  508  16.737  31.778   9.425
    2AU       S  509  16.175  33.031   8.286
    2AU     LIG  510  16.435  33.156   8.636
    2AU     LIG  511  16.592  33.051   9.065
    2AU     LIG  512  16.883  32.919   9.413
    2AU     LIG  513  17.071  32.925   9.843
    2AU    AUSL  514  15.559  33.055   8.381
    2AU    AUSL  515  15.309  33.432   8.391
    2AU     AUL  516  15.500  33.373   8.742
    2AU       S  517  15.574  32.995   8.507
    2AU     LIG  518  15.590  32.906   8.932
    2AU     LIG  519  15.888  32.822   9.297
    2AU     LIG  520  16.036  32.703   9.744
    2AU     LIG  521  16.042  32.497  10.180
    2AU       S  522  15.104  33.180   8.620
    2AU     LIG  523  15.164  33.217   9.087
    2AU     LIG  524  14.923  33.239   9.476
    2AU     LIG  525  14.644  33.335   9.832
    2AU     LIG  526  14.509  33.681  10.132
    2AU    AUSL  527  15.725  33.465   8.359
    2AU    AUSL  528  16.097  33.492   8.114
    2AU     AUL  529  15.991  33.375   8.528
    2AU       S  530  15.613  33.783   8.494
    2AU     LIG  531  15.847  33.732   8.878
    2AU     LIG  532  16.026  33.903   9.293
    2AU     LIG  533  15.972  34.045   9.767
    2AU     LIG  534  16.004  34.134  10.245
    2AU       S  535  16.171  33.734   8.295
    2AU     LIG  536  16.565  33.598   8.373
    2AU     LIG  537  16.865  33.765   8.707
    2AU     LIG  538  17.096  34.107   8.974
    2AU     LIG  539  17.267  34.476   9.226
    2AU    AUSL  540  15.977  33.427   6.741
    2AU    AUSL  541  15.745  33.722   6.965
    2AU     AUL  542  15.794  33.818   6.597
    2AU       S  543  15.984  33.454   6.367
    2AU     LIG  544  16.358  33.313   6.157
    2AU     LIG  545  16.452  33.087   5.774
    2AU     LIG  546  16.526  32.949   5.330
    2AU     LIG  547  16.867  32.844   5.013
    2AU       S  548  16.173  33.961   6.832
    2AU     LIG  549  16.266  34.151   6.444
    2AU     LIG  550  16.449  34.344   6.065
    2AU     LIG  551  16.630  34.645   5.770
    2AU     LIG  552  16.686  34.869   5.363
    2AU    AUSL  553  15.764  33.078   6.612
    2AU    AUSL  554  16.098  33.046   6.915
    2AU     AUL  555  16.225  33.203   6.678
    2AU       S  556  16.124  32.749   6.630
    2AU     LIG  557  16.283  32.401   6.301
    2AU     LIG  558  16.588  32.041   6.318
    2AU     LIG  559  16.902  31.808   6.063
    2AU     LIG  560  17.184  31.829   5.680
    2AU       S  561  15.919  33.150   6.329
    2AU     LIG  562  16.092  32.844   6.082
    2AU     LIG  563  16.099  32.750   5.614
    2AU     LIG  564  16.057  32.784   5.138
    2AU     LIG  565  16.049  32.741   4.657
    2AU    AUSL  566  15.551  33.446   6.692
    2AU    AUSL  567  15.351  33.040   6.723
    2AU     AUL  568  15.475  33.107   6.429
    2AU       S  569  15.033  33.061   6.300
    2AU     LIG  570  15.106  32.837   5.937
    2AU     LIG  571  14.856  32.641   5.611
    2AU     LIG  572  14.668  32.684   5.192
    2AU     LIG  573  14.508  32.779   4.754
    2AU       S  574  15.732  33.465   6.289
    2AU     LIG  575  15.923  33.297   5.857
    2AU     LIG  576  16.091  33.235   5.422
    2AU     LIG  577  16.187  33.252   4.963
    2AU     LIG  578  16.079  33.509   4.582
    2AU    AUSL  579  14.906  33.378   8.237
    2AU    AUSL  580  15.193  33.744   8.135
    2AU     AUL  581  15.073  33.670   8.469
    2AU       S  582  14.899  33.266   8.651
    2AU     LIG  583  14.675  33.074   8.984
    2AU     LIG  584  14.454  33.038   9.403
    2AU     LIG  585  14.249  32.991   9.831
    2AU     LIG  586  13.878  33.019  10.141
    2AU       S  587  14.809  33.959   8.188
    2AU     LIG  588  14.890  34.173   8.550
    2AU     LIG  589  14.791  34.347   8.958
    2AU     LIG  590  14.476  34.471   9.266
    2AU     LIG  591  14.117  34.741   9.402
    2AU    AUSL  592  15.208  33.091   8.149
    2AU    AUSL  593  14.799  32.955   8.131
    2AU     AUL  594  14.687  33.185   8.250
    2AU       S  595  14.733  32.735   8.390
    2AU     LIG  596  14.298  32.671   8.233
    2AU     LIG  597  14.050  32.314   8.388
    2AU     LIG  598  13.861  31.999   8.672
    2AU     LIG  599  13.588  31.682   8.888
    2AU       S  600  15.083  33.042   8.537
    2AU     LIG  601  15.084  32.757   8.901
    2AU     LIG  602  14.905  32.752   9.322
    2AU     LIG  603  14.751  32.810   9.762
    2AU     LIG  604  14.678  32.565  10.159
    2AU    AUSL  605  14.928  33.091   6.774
    2AU    AUSL  606  15.144  32.745   6.947
    2AU     AUL  607  15.191  32.746   6.609
    2AU       S  608  14.851  32.962   6.376
    2AU     LIG  609  14.589  32.834   6.027
    2AU     LIG  610  14.413  32.925   5.592
    2AU     LIG  611  14.211  32.930   5.157
    2AU     LIG  612  13.847  33.054   4.877
    2AU       S  613  14.779  32.624   6.777
    2AU     LIG  614  14.814  32.239   6.571
    2AU     LIG  615  14.476  31.989   6.362
    2AU     LIG  616  14.108  31.786   6.144
    2AU     LIG  617  13.845  31.546   5.836
    2AU    AUSL  618  15.142  33.418   6.600
    2AU    AUSL  619  14.800  33.486   6.905
    2AU     AUL  620  14.707  33.308   6.633
    2AU       S  621  14.792  33.751   6.656
    2AU     LIG  622  14.385  33.817   6.597
    2AU     LIG  623  14.198  34.074   6.245
    2AU     LIG  624  14.025  34.327   5.886
    2AU     LIG  625  13.893  34.463   5.461
    2AU       S  626  15.064  33.341   6.327
    2AU     LIG  627  14.830  33.285   5.907
    2AU     LIG  628  14.860  33.138   5.466
    2AU     LIG  629  14.665  33.181   5.047
    2AU     LIG  630  14.615  33.275   4.588
    2AU    AUSL  631  16.275  33.740   7.494
    2AU    AUSL  632  16.133  33.536   7.114
    2AU     AUL  633  16.504  33.721   7.137
    2AU       S  634  16.194  33.822   6.838
    2AU     LIG  635  16.444  33.659   6.538
    2AU     LIG  636  16.689  33.896   6.229
    2AU     LIG  637  16.939  34.211   5.979
    2AU     LIG  638  17.120  34.526   5.675
    2AU       S  639  16.639  33.838   7.566
    2AU     LIG  640  17.128  33.888   7.463
    2AU     LIG  641  17.610  33.987   7.486
    2AU     LIG  642  18.002  34.271   7.494
    2AU     LIG  643  18.047  34.746   7.430
    2AU    AUSL  644  16.417  33.343   7.380
    2AU    AUSL  645  16.345  33.031   7.709
    2AU     AUL  646  16.573  33.220   7.815
    2AU       S  647  16.705  33.435   7.431
    2AU     LIG  648  17.055  33.454   7.197
    2AU     LIG  649  17.502  33.529   7.253
    2AU     LIG  650  17.962  33.446   7.138
    2AU     LIG  651  18.388  33.663   7.004
    2AU       S  652  16.634  32.821   7.537
    2AU     LIG  653  17.002  32.531   7.627
    2AU     LIG  654  17.415  32.293   7.746
    2AU     LIG  655  17.816  32.455   7.999
    2AU     LIG  656  18.239  32.634   8.177
    2AU    AUSL  657  16.135  33.394   7.710
    2AU    AUSL  658  16.060  33.849   7.843
    2AU     AUL  659  16.351  33.628   7.877
    2AU       S  660  16.259  34.006   8.145
    2AU     LIG  661  16.580  34.125   8.447
    2AU     LIG  662  16.872  34.437   8.652
    2AU     LIG  663  17.088  34.815   8.849
    2AU     LIG  664  17.231  35.278   8.796
    2AU       S  665  16.727  33.613   7.612
    2AU     LIG  666  17.108  33.469   7.774
    2AU     LIG  667  17.550  33.574   7.776
    2AU     LIG  668  17.910  33.808   7.970
    2AU     LIG  669  18.368  33.795   7.884
    2AU    AUSL  670  14.777  33.806   7.507
    2AU    AUSL  671  14.872  33.598   7.885
    2AU     AUL  672  14.558  33.906   7.747
    2AU       S  673  14.691  33.776   8.168
    2AU     LIG  674  14.584  33.757   8.611
    2AU     LIG  675  14.366  34.057   8.913
    2AU     LIG  676  14.016  34.313   9.095
    2AU     LIG  677  13.704  34.410   9.431
    2AU       S  678  14.781  34.195   7.424
    2AU     LIG  679  14.335  34.092   7.334
    2AU     LIG  680  13.904  34.200   7.371
    2AU     LIG  681  13.579  34.508   7.510
    2AU     LIG  682  13.216  34.797   7.533
    2AU    AUSL  683  14.741  33.420   7.311
    2AU    AUSL  684  14.875  33.866   7.105
    2AU     AUL  685  14.578  33.713   7.143
    2AU       S  686  14.386  33.266   6.985
    2AU     LIG  687  14.084  33.661   7.061
    2AU     LIG  688  13.642  33.884   7.054
    2AU     LIG  689  13.157  33.951   6.964
    2AU     LIG  690  12.673  34.021   6.906
    2AU       S  691  14.657  34.129   6.904
    2AU     LIG  692  14.591  34.309   6.487
    2AU     LIG  693  14.332  34.598   6.204
    2AU     LIG  694  14.025  34.876   5.972
    2AU     LIG  695  13.685  35.223   6.004
    2AU    AUSL  696  14.534  33.452   7.698
    2AU    AUSL  697  14.506  33.086   7.400
    2AU     AUL  698  14.351  33.423   7.425
    2AU       S  699  14.300  33.007   7.669
    2AU     LIG  700  13.994  33.064   7.335
    2AU     LIG  701  13.544  32.904   7.273
    2AU     LIG  702  13.075  32.735   7.276
    2AU     LIG  703  12.590  32.683   7.218
    2AU       S  704  14.388  33.480   7.919
    2AU     LIG  705  14.068  33.765   7.680
    2AU     LIG  706  13.643  34.004   7.764
    2AU     LIG  707  13.271  34.161   8.028
    2AU     LIG  708  12.825  34.225   8.202
    2AU    AUSL  709  16.154  32.680   7.523
    2AU    AUSL  710  15.974  32.930   7.874
    2AU     AUL  711  16.326  32.796   7.887
    2AU       S  712  16.443  32.583   7.480
    2AU     LIG  713  16.542  32.293   7.789
    2AU     LIG  714  16.933  32.012   7.719
    2AU     LIG  715  17.339  31.861   7.473
    2AU     LIG  716  17.783  31.709   7.358
    2AU       S  717  16.152  32.452   8.120
    2AU     LIG  718  16.451  32.293   8.417
    2AU     LIG  719  16.680  32.027   8.732
    2AU     LIG  720  16.968  31.731   8.960
    2AU     LIG  721  17.241  31.641   9.333
    2AU    AUSL  722  16.121  33.061   7.331
    2AU    AUSL  723  16.070  32.654   7.109
    2AU     AUL  724  16.328  32.859   7.123
    2AU       S  725  16.679  32.932   7.394
    2AU     LIG  726  17.013  32.729   7.155
    2AU     LIG  727  17.437  32.583   7.306
    2AU     LIG  728  17.757  32.238   7.309
    2AU     LIG  729  18.218  32.200   7.184
    2AU       S  730  16.229  32.582   6.752
    2AU     LIG  731  16.274  32.122   6.755
    2AU     LIG  732  16.400  31.658   6.656
    2AU     LIG  733  16.668  31.248   6.593
    2AU     LIG  734  16.906  30.890   6.359
    2AU    AUSL  735  14.708  32.723   7.556
    2AU    AUSL  736  14.819  32.953   7.154
    2AU     AUL  737  14.466  32.790   7.270
    2AU       S  738  14.630  32.742   6.842
    2AU     LIG  739  14.387  32.537   6.478
    2AU     LIG  740  14.019  32.236   6.419
    2AU     LIG  741  13.654  31.926   6.347
    2AU     LIG  742  13.394  31.785   5.985
    2AU       S  743  14.279  32.764   7.706
    2AU     LIG  744  13.923  32.573   7.466
    2AU     LIG  745  13.473  32.403   7.400
    2AU     LIG  746  13.029  32.239   7.441
    2AU     LIG  747  12.754  31.872   7.557
    2AU    AUSL  748  14.770  33.108   7.744
    2AU    AUSL  749  15.023  32.732   7.844
    2AU     AUL  750  14.692  32.692   7.900
    2AU       S  751  14.758  32.521   8.328
    2AU     LIG  752  14.515  32.168   8.186
    2AU     LIG  753  14.165  31.829   8.243
    2AU     LIG  754  13.892  31.512   8.486
    2AU     LIG  755  13.727  31.184   8.804
    2AU       S  756  14.355  33.010   7.852
    2AU     LIG  757  13.819  32.945   7.814
    2AU     LIG  758  13.336  32.784   7.734
    2AU     LIG  759  12.828  32.711   7.743
    2AU     LIG  760  12.416  32.571   8.007
    2AU    AUSL  761  15.475  34.025   7.990
    2AU    AUSL  762  15.063  33.968   7.788
    2AU     AUL  763  15.257  34.086   8.200
    2AU       S  764  14.924  34.165   7.891
    2AU     LIG  765  14.608  34.402   8.152
    2AU     LIG  766  14.438  34.455   8.587
    2AU     LIG  767  14.236  34.737   8.890
    2AU     LIG  768  14.010  35.127   9.008
    2AU       S  769  15.578  34.383   7.963
    2AU     LIG  770  15.687  34.490   8.327
    2AU     LIG  771  15.621  34.900   8.524
    2AU     LIG  772  15.695  35.331   8.656
    2AU     LIG  773  15.670  35.617   9.025
    2AU    AUSL  774  15.347  34.211   7.599
    2AU    AUSL  775  15.616  34.132   7.254
    2AU     AUL  776  15.613  34.486   7.406
    2AU       S  777  15.371  34.439   7.801
    2AU     LIG  778  15.438  34.867   8.032
    2AU     LIG  779  15.416  35.317   8.215
    2AU     LIG  780  15.234  35.768   8.247
    2AU     LIG  781  14.895  36.133   8.197
    2AU       S  782  15.384  34.426   7.019
    2AU     LIG  783  15.820  34.634   6.982
    2AU     LIG  784  15.944  35.083   6.928
    2AU     LIG  785  16.068  35.507   6.742
    2AU     LIG  786  16.425  35.857   6.752
    2AU    AUSL  787  15.717  33.976   7.640
    2AU    AUSL  788  15.705  33.678   8.011
    2AU     AUL  789  15.795  33.994   8.086
    2AU       S  790  16.079  33.862   8.416
    2AU     LIG  791  16.339  33.816   8.782
    2AU     LIG  792  16.582  34.136   8.980
    2AU     LIG  793  16.763  34.521   9.156
    2AU     LIG  794  16.898  34.750   9.541
    2AU       S  795  15.827  34.283   7.742
    2AU     LIG  796  15.920  34.730   7.883
    2AU     LIG  797  15.893  35.126   8.148
    2AU     LIG  798  15.892  35.596   8.249
    2AU     LIG  799  16.148  36.017   8.261
    2AU    AUSL  800  15.420  32.547   7.925
    2AU    AUSL  801  15.838  32.534   7.773
    2AU     AUL  802  15.624  32.396   8.146
    2AU       S  803  15.382  32.048   7.971
    2AU     LIG  804  15.249  31.929   8.346
    2AU     LIG  805  15.256  31.475   8.404
    2AU     LIG  806  15.363  31.045   8.552
    2AU     LIG  807  15.297  30.577   8.614
    2AU       S  808  16.016  32.387   7.881
    2AU     LIG  809  16.188  31.976   8.054
    2AU     LIG  810  16.536  31.810   8.288
    2AU     LIG  811  16.654  31.506   8.613
    2AU     LIG  812  16.805  31.114   8.844
    2AU    AUSL  813  15.106  32.371   7.655
    2AU    AUSL  814  15.203  32.692   8.251
    2AU     AUL  815  15.084  32.410   8.019
    2AU       S  816  15.192  31.997   7.829
    2AU     LIG  817  14.933  31.684   8.020
    2AU     LIG  818  14.957  31.218   8.036
    2AU     LIG  819  15.022  30.806   8.228
    2AU     LIG  820  14.915  30.363   8.340
    2AU       S  821  15.010  32.572   8.454
    2AU     LIG  822  14.821  32.137   8.617
    2AU     LIG  823  14.387  31.945   8.689
    2AU     LIG  824  14.117  31.628   8.935
    2AU     LIG  825  13.850  31.427   9.261
    2AU    AUSL  826  15.538  32.293   7.600
    2AU    AUSL  827  15.303  32.529   7.311
    2AU     AUL  828  15.190  32.187   7.410
    2AU       S  829  15.530  32.078   7.137
    2AU     LIG  830  15.114  31.841   7.021
    2AU     LIG  831  15.030  31.347   6.946
    2AU     LIG  832  14.860  30.871   6.939
    2AU     LIG  833  14.714  30.439   6.760
    2AU       S  834  15.540  32.064   7.748
    2AU     LIG  835  15.418  31.564   7.885
    2AU     LIG  836  15.473  31.143   8.057
    2AU     LIG  837  15.551  30.700   8.186
    2AU     LIG  838  15.882  30.352   8.209
    2AU    AUSL  839  15.424  33.981   6.886
    2AU    AUSL  840  15.978  33.925   7.263
    2AU     AUL  841  15.760  34.121   6.961
    2AU       S  842  15.376  34.352   6.787
    2AU     LIG  843  15.688  34.481   6.526
    2AU     LIG  844  15.762  34.935   6.473
    2AU     LIG  845  15.731  35.340   6.233
    2AU     LIG  846  15.722  35.495   5.772
    2AU       S  847  16.191  34.073   7.133
    2AU     LIG  848  16.611  34.161   6.874
    2AU     LIG  849  16.767  34.351   6.475
    2AU     LIG  850  16.937  34.680   6.187
    2AU     LIG  851  17.131  35.082   6.055
    2AU    AUSL  852  15.237  33.936   7.302
    2AU    AUSL  853  15.205  33.636   6.952
    2AU     AUL  854  15.104  34.027   6.969
    2AU       S  855  15.197  34.423   7.176
    2AU     LIG  856  15.384  34.894   6.917
    2AU     LIG  857  15.523  35.329   6.736
    2AU     LIG  858  15.391  35.795   6.695
    2AU     LIG  859  15.129  36.211   6.763
    2AU       S  860  14.940  33.855   6.587
    2AU     LIG  861  14.712  33.917   6.179
    2AU     LIG  862  14.549  34.257   5.890
    2AU     LIG  863  14.369  34.635   5.647
    2AU     LIG  864  14.372  35.012   5.354
    2AU    AUSL  865  15.485  32.489   6.917
    2AU    AUSL  866  14.892  32.526   7.230
    2AU     AUL  867  15.144  32.374   6.977
    2AU       S  868  14.681  32.468   7.004
    2AU     LIG  869  14.350  32.158   6.834
    2AU     LIG  870  14.057  31.776   6.657
    2AU     LIG  871  13.736  31.411   6.468
    2AU     LIG  872  13.441  30.985   6.464
    2AU       S  873  15.531  32.109   6.910
    2AU     LIG  874  15.416  31.854   6.589
    2AU     LIG  875  15.270  31.434   6.494
    2AU     LIG  876  15.114  30.980   6.502
    2AU     LIG  877  15.017  30.526   6.352
    2AU    AUSL  878  15.730  32.508   7.299
    2AU    AUSL  879  15.713  32.832   6.946
    2AU     AUL  880  15.850  32.439   6.976
    2AU       S  881  15.706  32.066   7.214
    2AU     LIG  882  15.544  31.585   7.039
    2AU     LIG  883  15.525  31.153   6.834
    2AU     LIG  884  15.787  30.751   6.823
    2AU     LIG  885  16.021  30.348   6.652
    2AU       S  886  15.901  32.646   6.574
    2AU     LIG  887  15.834  32.221   6.500
    2AU     LIG  888  16.102  31.892   6.284
    2AU     LIG  889  16.392  31.692   5.976
    2AU     LIG  890  16.662  31.766   5.596
    3AU     AUC  891  38.816   4.275   7.507
    3AU     AUC  892  39.087   4.290   7.327
    3AU     AUC  893  39.093   4.276   7.675
    3AU     AUC  894  38.530   4.262   7.337
    3AU     AUC  895  38.554   4.305   7.696
    3AU     AUC  896  38.635   4.547   7.506
    3AU     AUC  897  39.003   4.557   7.494
    3AU     AUC  898  38.631   4.004   7.515
    3AU     AUC  899  38.980   3.988   7.507
    3AU     AUC  900  38.822   4.110   7.789
    3AU     AUC  901  38.814   4.453   7.776
    3AU     AUC  902  38.810   4.105   7.229
    3AU     AUC  903  38.827   4.426   7.227
    3AU     AUC  904  39.398   4.295   7.151
    3AU     AUC  905  39.423   4.250   7.510
    3AU     AUC  906  39.379   4.259   7.845
    3AU     AUC  907  38.229   4.247   7.162
    3AU     AUC  908  38.206   4.293   7.525
    3AU     AUC  909  38.255   4.321   7.890
    3AU     AUC  910  38.455   4.850   7.488
    3AU     AUC  911  38.813   4.879   7.461
    3AU     AUC  912  39.186   4.843   7.479
    3AU     AUC  913  38.428   3.722   7.524
    3AU     AUC  914  38.787   3.676   7.505
    3AU     AUC  915  39.145   3.687   7.497
    3AU     AUC  916  38.814   3.941   8.085
    3AU     AUC  917  38.854   4.313   8.118
    3AU     AUC  918  38.836   4.645   8.056
    3AU     AUC  919  38.836   3.927   6.954
    3AU     AUC  920  38.818   4.264   6.892
    3AU     AUC  921  38.804   4.591   6.924
    3AU     AUC  922  39.107   4.095   8.001
    3AU     AUC  923  39.140   4.465   7.980
    3AU     AUC  924  39.139   4.135   6.993
    3AU     AUC  925  39.129   4.458   7.029
    3AU     AUC  926  38.517   4.137   8.024
    3AU     AUC  927  38.537   4.494   7.999
    3AU     AUC  928  38.513   4.071   7.045
    3AU     AUC  929  38.490   4.396   6.997
    3AU     AUC  930  39.346   4.561   7.346
    3AU     AUC  931  39.319   4.573   7.675
    3AU     AUC  932  38.328   4.561   7.319
    3AU     AUC  933  38.325   4.607   7.689
    3AU     AUC  934  39.282   3.973   7.324
    3AU     AUC  935  39.262   3.930   7.691
    3AU     AUC  936  38.299   3.954   7.358
    3AU     AUC  937  38.356   4.015   7.715
    3AU     AUC  938  38.629   4.803   7.774
    3AU     AUC  939  38.996   4.763   7.746
    3AU     AUC  940  38.612   3.811   7.812
    3AU     AUC  941  38.955   3.769   7.793
    3AU     AUC  942  38.636   4.701   7.189
    3AU     AUC  943  39.018   4.754   7.195
    3AU     AUC  944  38.624   3.791   7.218
    3AU     AUC  945  39.014   3.816   7.209
    3AU    AUSL  946  39.398   4.239   8.187
    3AU    AUSL  947  39.108   3.783   8.183
    3AU     AUL  948  39.446   3.832   8.336
    3AU       S  949  39.443   3.410   8.164
    3AU     LIG  950  39.346   3.260   8.508
    3AU     LIG  951  39.490   2.870   8.663
    3AU     LIG  952  39.724   2.594   8.944
    3AU     LIG  953  39.945   2.576   9.364
    3AU       S  954  39.663   4.222   8.245
    3AU     LIG  955  39.653   4.148   8.705
    3AU     LIG  956  39.722   4.004   9.158
    3AU     LIG  957  39.985   3.898   9.549
    3AU     LIG  958  40.363   3.888   9.843
    3AU    AUSL  959  39.015   4.144   8.386
    3AU    AUSL  960  38.715   4.473   8.411
    3AU     AUL  961  38.935   4.450   8.732
    3AU       S  962  39.170   4.099   8.567
    3AU     LIG  963  38.985   3.906   8.909
    3AU     LIG  964  39.049   3.823   9.376
    3AU     LIG  965  39.284   3.766   9.800
    3AU     LIG  966  39.388   3.604  10.239
    3AU       S  967  38.560   4.205   8.672
    3AU     LIG  968  38.608   4.151   9.150
    3AU     LIG  969  38.356   4.236   9.530
    3AU     LIG  970  38.179   4.308   9.954
    3AU     LIG  971  38.043   4.662  10.247
    3AU    AUSL  972  39.115   4.566   8.326
    3AU    AUSL  973  39.463   4.641   8.052
    3AU     AUL  974  39.404   4.526   8.464
    3AU       S  975  38.981   4.866   8.463
    3AU     LIG  976  39.228   4.841   8.850
    3AU     LIG  977  39.331   4.852   9.329
    3AU     LIG  978  39.304   4.861   9.826
    3AU     LIG  979  39.415   4.781  10.294
    3AU       S  980  39.512   4.908   8.228
    3AU     LIG  981  39.891   4.686   8.325
    3AU     LIG  982  40.200   4.865   8.654
    3AU     LIG  983  40.459   5.111   8.974
    3AU     LIG  984  40.706   5.393   9.262
    3AU    AUSL  985  39.345   4.417   6.761
    3AU    AUSL  986  39.123   4.735   6.967
    3AU     AUL  987  39.258   4.790   6.626
    3AU       S  988  39.299   4.470   6.305
    3AU     LIG  989  39.658   4.295   6.104
    3AU     LIG  990  39.672   4.041   5.720
    3AU     LIG  991  39.871   4.009   5.306
    3AU     LIG  992  40.161   3.821   4.996
    3AU       S  993  39.595   4.994   6.887
    3AU     LIG  994  39.584   5.201   6.504
    3AU     LIG  995  39.745   5.395   6.096
    3AU     LIG  996  39.916   5.503   5.664
    3AU     LIG  997  39.907   5.760   5.258
    3AU    AUSL  998  39.118   4.086   6.609
    3AU    AUSL  999  39.485   4.045   6.919
    3AU     AUL 1000  39.521   4.170   6.596
    3AU       S 1001  39.646   3.733   6.701
    3AU     LIG 1002  39.764   3.352   6.426
    3AU     LIG 1003  40.009   2.958   6.382
    3AU     LIG 1004  40.265   2.718   6.053
    3AU     LIG 1005  40.686   2.760   5.833
    3AU       S 1006  39.194   4.349   6.300
    3AU     LIG 1007  39.274   3.947   6.142
    3AU     LIG 1008  39.238   3.752   5.733
    3AU     LIG 1009  39.419   3.759   5.305
    3AU     LIG 1010  39.635   3.773   4.884
    3AU    AUSL 1011  38.920   4.464   6.699
    3AU    AUSL 1012  38.709   4.059   6.737
    3AU     AUL 1013  38.857   4.079   6.443
    3AU       S 1014  38.417   4.079   6.305
    3AU     LIG 1015  38.531   3.930   5.923
    3AU     LIG 1016  38.282   3.703   5.610
    3AU     LIG 1017  38.030   3.697   5.225
    3AU     LIG 1018  37.892   3.559   4.807
    3AU       S 1019  38.952   4.535   6.370
    3AU     LIG 1020  38.929   4.286   5.905
    3AU     LIG 1021  39.223   4.216   5.501
    3AU     LIG 1022  39.465   4.236   5.079
    3AU     LIG 1023  39.518   4.460   4.659
    3AU    AUSL 1024  38.315   4.390   8.280
    3AU    AUSL 1025  38.576   4.735   8.112
    3AU     AUL 1026  38.463   4.695   8.470
    3AU       S 1027  38.385   4.321   8.741
    3AU     LIG 1028  38.095   4.185   9.032
    3AU     LIG 1029  37.859   4.124   9.422
    3AU     LIG 1030  37.578   3.939   9.745
    3AU     LIG 1031  37.243   3.969  10.072
    3AU       S 1032  38.136   4.958   8.238
    3AU     LIG 1033  38.248   5.171   8.598
    3AU     LIG 1034  38.180   5.430   8.968
    3AU     LIG 1035  37.847   5.679   9.158
    3AU     LIG 1036  37.543   5.660   9.508
    3AU    AUSL 1037  38.632   4.104   8.201
    3AU    AUSL 1038  38.169   4.022   8.117
    3AU     AUL 1039  38.194   4.104   8.385
    3AU       S 1040  38.004   3.675   8.307
    3AU     LIG 1041  37.592   3.609   8.160
    3AU     LIG 1042  37.459   3.242   8.378
    3AU     LIG 1043  37.262   3.024   8.717
    3AU     LIG 1044  36.963   2.716   8.868
    3AU       S 1045  38.611   4.028   8.587
    3AU     LIG 1046  38.375   3.776   8.865
    3AU     LIG 1047  38.259   3.776   9.319
    3AU     LIG 1048  38.100   3.822   9.764
    3AU     LIG 1049  37.819   3.675  10.120
    3AU    AUSL 1050  38.284   4.118   6.777
    3AU    AUSL 1051  38.495   3.765   6.954
    3AU     AUL 1052  38.547   3.759   6.624
    3AU       S 1053  38.233   3.999   6.385
    3AU     LIG 1054  38.008   3.881   6.017
    3AU     LIG 1055  37.811   3.970   5.605
    3AU     LIG 1056  37.584   3.967   5.180
    3AU     LIG 1057  37.241   4.069   4.863
    3AU       S 1058  38.135   3.641   6.789
    3AU     LIG 1059  38.219   3.267   6.572
    3AU     LIG 1060  37.935   2.921   6.395
    3AU     LIG 1061  37.611   2.622   6.185
    3AU     LIG 1062  37.343   2.518   5.798
    3AU    AUSL 1063  38.512   4.436   6.600
    3AU    AUSL 1064  38.157   4.517   6.906
    3AU     AUL 1065  38.077   4.356   6.618
    3AU       S 1066  38.187   4.795   6.662
    3AU     LIG 1067  37.774   4.836   6.638
    3AU     LIG 1068  37.568   5.086   6.295
    3AU     LIG 1069  37.420   5.332   5.918
    3AU     LIG 1070  37.248   5.429   5.479
    3AU       S 1071  38.468   4.352   6.348
    3AU     LIG 1072  38.224   4.350   5.939
    3AU     LIG 1073  38.266   4.207   5.498
    3AU     LIG 1074  38.331   4.395   5.067
    3AU     LIG 1075  38.356   4.787   4.785
    3AU    AUSL 1076  39.602   4.732   7.510
    3AU    AUSL 1077  39.511   4.588   7.109
    3AU     AUL 1078  39.860   4.866   7.305
    3AU       S 1079  39.614   4.760   6.942
    3AU     LIG 1080  39.738   4.664   6.519
    3AU     LIG 1081  39.979   4.948   6.247
    3AU     LIG 1082  40.239   5.244   5.998
    3AU     LIG 1083  40.515   5.506   5.733
    3AU       S 1084  40.054   4.575   7.631
    3AU     LIG 1085  40.478   4.748   7.575
    3AU     LIG 1086  40.925   4.875   7.504
    3AU     LIG 1087  41.355   5.074   7.487
    3AU     LIG 1088  41.583   5.441   7.309
    3AU    AUSL 1089  39.769   4.346   7.342
    3AU    AUSL 1090  39.732   4.007   7.670
    3AU     AUL 1091  40.060   4.034   7.525
    3AU       S 1092  39.925   4.424   7.370
    3AU     LIG 1093  40.379   4.339   7.288
    3AU     LIG 1094  40.850   4.404   7.287
    3AU     LIG 1095  41.239   4.654   7.159
    3AU     LIG 1096  41.658   4.778   6.944
    3AU       S 1097  39.941   3.587   7.647
    3AU     LIG 1098  40.328   3.468   7.809
    3AU     LIG 1099  40.790   3.427   7.773
    3AU     LIG 1100  41.242   3.324   7.771
    3AU     LIG 1101  41.682   3.470   7.792
    3AU    AUSL 1102  39.556   4.381   7.740
    3AU    AUSL 1103  39.377   4.978   7.771
    3AU     AUL 1104  39.693   4.799   7.816
    3AU       S 1105  39.578   5.175   8.078
    3AU     LIG 1106  39.959   5.197   8.326
    3AU     LIG 1107  40.230   5.426   8.631
    3AU     LIG 1108  40.341   5.859   8.800
    3AU     LIG 1109  40.297   6.350   8.812
    3AU       S 1110  39.918   4.402   7.816
    3AU     LIG 1111  40.394   4.312   7.870
    3AU     LIG 1112  40.850   4.455   7.808
    3AU     LIG 1113  41.254   4.711   7.864
    3AU     LIG 1114  41.677   4.871   7.941
    3AU    AUSL 1115  38.117   4.820   7.527
    3AU    AUSL 1116  38.202   4.599   7.930
    3AU     AUL 1117  37.880   4.909   7.797
    3AU       S 1118  38.046   4.744   8.192
    3AU     LIG 1119  37.984   4.708   8.646
    3AU     LIG 1120  37.803   5.084   8.874
    3AU     LIG 1121  37.470   5.335   9.089
    3AU     LIG 1122  37.100   5.418   9.374
    3AU       S 1123  38.077   5.181   7.456
    3AU     LIG 1124  37.613   5.023   7.391
    3AU     LIG 1125  37.148   5.132   7.421
    3AU     LIG 1126  36.755   5.428   7.401
    3AU     LIG 1127  36.450   5.809   7.337
    3AU    AUSL 1128  38.104   4.446   7.313
    3AU    AUSL 1129  38.245   4.888   7.132
    3AU     AUL 1130  37.943   4.749   7.141
    3AU       S 1131  37.751   4.293   6.973
    3AU     LIG 1132  37.430   4.646   7.056
    3AU     LIG 1133  36.965   4.730   7.145
    3AU     LIG 1134  36.518   4.924   7.155
    3AU     LIG 1135  36.156   5.086   6.872
    3AU       S 1136  38.051   5.164   6.920
    3AU     LIG 1137  37.910   5.389   6.544
    3AU     LIG 1138  37.830   5.793   6.293
    3AU     LIG 1139  37.674   6.254   6.260
    3AU     LIG 1140  37.302   6.429   6.030
    3AU    AUSL 1141  37.878   4.470   7.700
    3AU    AUSL 1142  37.857   4.117   7.391
    3AU     AUL 1143  37.720   4.459   7.417
    3AU       S 1144  37.606   4.035   7.603
    3AU     LIG 1145  37.317   4.181   7.286
    3AU     LIG 1146  36.865   4.028   7.216
    3AU     LIG 1147  36.411   3.817   7.202
    3AU     LIG 1148  36.002   3.589   7.041
    3AU       S 1149  37.744   4.441   7.925
    3AU     LIG 1150  37.354   4.642   7.691
    3AU     LIG 1151  36.878   4.743   7.648
    3AU     LIG 1152  36.430   4.911   7.675
    3AU     LIG 1153  36.022   5.090   7.866
    3AU    AUSL 1154  39.480   3.689   7.535
    3AU    AUSL 1155  39.362   3.960   7.879
    3AU     AUL 1156  39.676   3.855   7.913
    3AU       S 1157  39.660   3.501   7.517
    3AU     LIG 1158  40.037   3.127   7.460
    3AU     LIG 1159  40.520   3.158   7.419
    3AU     LIG 1160  40.978   3.014   7.455
    3AU     LIG 1161  41.198   2.633   7.640
    3AU       S 1162  39.586   3.422   8.008
    3AU     LIG 1163  39.826   3.129   8.296
    3AU     LIG 1164  40.010   2.928   8.665
    3AU     LIG 1165  40.244   2.634   8.946
    3AU     LIG 1166  40.534   2.602   9.302
    3AU    AUSL 1167  39.462   4.067   7.334
    3AU    AUSL 1168  39.421   3.660   7.119
    3AU     AUL 1169  39.705   3.894   7.177
    3AU       S 1170  39.924   3.590   7.418
    3AU     LIG 1171  40.413   3.664   7.347
    3AU     LIG 1172  40.899   3.521   7.284
    3AU     LIG 1173  41.392   3.464   7.302
    3AU     LIG 1174  41.744   3.396   6.988
    3AU       S 1175  39.623   3.537   6.872
    3AU     LIG 1176  39.620   3.074   6.854
    3AU     LIG 1177  39.761   2.631   6.718
    3AU     LIG 1178  40.019   2.431   6.408
    3AU     LIG 1179  40.356   2.174   6.247
    3AU    AUSL 1180  38.043   3.756   7.561
    3AU    AUSL 1181  38.180   3.982   7.159
    3AU     AUL 1182  37.829   3.830   7.243
    3AU       S 1183  37.997   3.753   6.823
    3AU     LIG 1184  37.722   3.423   6.582
    3AU     LIG 1185  37.434   3.054   6.449
    3AU     LIG 1186  37.126   2.844   6.147
    3AU     LIG 1187  36.800   2.638   5.864
    3AU       S 1188  37.608   3.746   7.651
    3AU     LIG 1189  37.261   3.680   7.383
    3AU     LIG 1190  36.812   3.564   7.442
    3AU     LIG 1191  36.483   3.253   7.556
    3AU     LIG 1192  36.193   2.927   7.758
    3AU    AUSL 1193  38.141   4.151   7.719
    3AU    AUSL 1194  38.361   3.770   7.836
    3AU     AUL 1195  37.971   3.895   7.897
    3AU       S 1196  38.066   3.496   8.095
    3AU     LIG 1197  37.825   3.126   8.014
    3AU     LIG 1198  37.534   2.786   8.159
    3AU     LIG 1199  37.321   2.547   8.507
    3AU     LIG 1200  37.195   2.254   8.863
    3AU       S 1201  37.561   4.036   7.751
    3AU     LIG 1202  37.083   4.035   7.715
    3AU     LIG 1203  36.609   3.981   7.672
    3AU     LIG 1204  36.233   3.682   7.684
    3AU     LIG 1205  35.818   3.524   7.876
    3AU    AUSL 1206  38.783   5.083   7.977
    3AU    AUSL 1207  38.367   4.983   7.833
    3AU     AUL 1208  38.586   5.078   8.220
    3AU       S 1209  38.239   5.185   7.932
    3AU     LIG 1210  37.966   5.419   8.221
    3AU     LIG 1211  37.823   5.577   8.631
    3AU     LIG 1212  37.750   6.026   8.757
    3AU     LIG 1213  37.480   6.405   8.666
    3AU       S 1214  38.785   5.430   7.961
    3AU     LIG 1215  38.950   5.442   8.352
    3AU     LIG 1216  39.053   5.855   8.525
    3AU     LIG 1217  39.158   6.300   8.628
    3AU     LIG 1218  39.072   6.666   8.903
    3AU    AUSL 1219  38.600   5.218   7.582
    3AU    AUSL 1220  38.974   5.183   7.216
    3AU     AUL 1221  38.677   5.433   7.324
    3AU       S 1222  38.675   5.509   7.784
    3AU     LIG 1223  38.848   5.910   8.033
    3AU     LIG 1224  38.821   6.327   8.236
    3AU     LIG 1225  38.510   6.693   8.303
    3AU     LIG 1226  38.237   7.088   8.239
    3AU       S 1227  38.875   5.468   6.909
    3AU     LIG 1228  39.263   5.630   6.981
    3AU     LIG 1229  39.373   6.088   6.873
    3AU     LIG 1230  39.374   6.548   6.725
    3AU     LIG 1231  39.654   6.972   6.745
    3AU    AUSL 1232  38.994   5.023   7.606
    3AU    AUSL 1233  39.056   4.768   7.975
    3AU     AUL 1234  39.122   5.118   7.993
    3AU       S 1235  39.406   5.023   8.340
    3AU     LIG 1236  39.689   4.974   8.701
    3AU     LIG 1237  39.947   5.197   8.996
    3AU     LIG 1238  40.210   5.528   9.190
    3AU     LIG 1239  40.420   5.678   9.597
    3AU       S 1240  39.031   5.413   7.653
    3AU     LIG 1241  39.275   5.625   7.994
    3AU     LIG 1242  39.333   6.086   8.161
    3AU     LIG 1243  39.481   6.534   8.283
    3AU     LIG 1244  39.350   6.943   8.470
    3AU    AUSL 1245  38.776   3.633   7.952
    3AU    AUSL 1246  39.188   3.573   7.814
    3AU     AUL 1247  38.981   3.483   8.195
    3AU       S 1248  38.821   3.082   8.026
    3AU     LIG 1249  38.610   2.764   8.294
    3AU     LIG 1250  38.359   2.377   8.393
    3AU     LIG 1251  38.412   1.960   8.599
    3AU     LIG 1252  38.340   1.542   8.808
    3AU       S 1253  39.333   3.378   7.882
    3AU     LIG 1254  39.349   2.933   8.076
    3AU     LIG 1255  39.691   2.633   8.255
    3AU     LIG 1256  40.008   2.434   8.528
    3AU     LIG 1257  40.353   2.174   8.716
    3AU    AUSL 1258  38.460   3.399   7.689
    3AU    AUSL 1259  38.491   3.719   8.250
    3AU     AUL 1260  38.511   3.432   8.041
    3AU       S 1261  38.579   3.010   7.854
    3AU     LIG 1262  38.209   2.742   7.964
    3AU     LIG 1263  38.159   2.287   7.935
    3AU     LIG 1264  38.437   1.951   8.090
    3AU     LIG 1265  38.320   1.537   8.290
    3AU       S 1266  38.246   3.605   8.395
    3AU     LIG 1267  38.005   3.188   8.491
    3AU     LIG 1268  37.742   2.823   8.637
    3AU     LIG 1269  37.485   2.662   9.006
    3AU     LIG 1270  37.173   2.749   9.339
    3AU    AUSL 1271  38.884   3.348   7.639
    3AU    AUSL 1272  38.649   3.564   7.338
    3AU     AUL 1273  38.532   3.228   7.446
    3AU       S 1274  38.899   3.119   7.207
    3AU     LIG 1275  38.529   2.797   7.215
    3AU     LIG 1276  38.410   2.355   7.218
    3AU     LIG 1277  38.303   1.948   7.008
    3AU     LIG 1278  38.127   1.566   6.781
    3AU       S 1279  38.899   3.148   7.766
    3AU     LIG 1280  38.942   2.677   7.760
    3AU     LIG 1281  38.765   2.339   8.031
    3AU     LIG 1282  38.925   1.954   8.266
    3AU     LIG 1283  39.308   1.655   8.275
    3AU    AUSL 1284  38.800   4.979   6.863
    3AU    AUSL 1285  39.321   4.952   7.284
    3AU     AUL 1286  39.147   5.107   6.936
    3AU       S 1287  38.775   5.200   6.653
    3AU     LIG 1288  39.132   5.497   6.494
    3AU     LIG 1289  39.192   5.968   6.399
    3AU     LIG 1290  39.091   6.364   6.156
    3AU     LIG 1291  39.135   6.566   5.711
    3AU       S 1292  39.522   5.143   7.186
    3AU     LIG 1293  39.881   5.379   6.927
    3AU     LIG 1294  40.083   5.419   6.490
    3AU     LIG 1295  40.289   5.730   6.184
    3AU     LIG 1296  40.458   6.186   6.147
    3AU    AUSL 1297  38.633   4.934   7.283
    3AU    AUSL 1298  38.562   4.653   6.954
    3AU     AUL 1299  38.492   5.092   7.038
    3AU       S 1300  38.692   5.449   6.846
    3AU     LIG 1301  38.860   5.931   6.783
    3AU     LIG 1302  38.805   6.370   6.650
    3AU     LIG 1303  38.412   6.657   6.720
    3AU     LIG 1304  38.109   6.935   6.965
    3AU       S 1305  38.359   4.890   6.649
    3AU     LIG 1306  38.254   5.124   6.275
    3AU     LIG 1307  37.935   5.350   6.007
    3AU     LIG 1308  37.777   5.480   5.570
    3AU     LIG 1309  37.854   5.690   5.152
    3AU    AUSL 1310  38.836   3.513   6.947
    3AU    AUSL 1311  38.242   3.555   7.244
    3AU     AUL 1312  38.503   3.392   7.003
    3AU       S 1313  38.040   3.482   7.010
    3AU     LIG 1314  37.880   3.046   6.903
    3AU     LIG 1315  37.634   2.664   6.732
    3AU     LIG 1316  37.242   2.526   6.531
    3AU     LIG 1317  37.056   2.303   6.163
    3AU       S 1318  38.890   3.108   7.000
    3AU     LIG 1319  38.767   2.705   6.781
    3AU     LIG 1320  38.458   2.342   6.705
    3AU     LIG 1321  38.412   1.936   6.461
    3AU     LIG 1322  38.369   1.776   6.003
    3AU    AUSL 1323  39.078   3.542   7.323
    3AU    AUSL 1324  39.077   3.855   6.952
    3AU     AUL 1325  39.169   3.475   6.951
    3AU       S 1326  39.144   3.157   7.293
    3AU     LIG 1327  39.027   2.653   7.244
    3AU     LIG 1328  38.913   2.248   7.022
    3AU     LIG 1329  39.203   1.868   6.914
    3AU     LIG 1330  39.612   1.624   6.779
    3AU       S 1331  39.378   3.690   6.606
    3AU     LIG 1332  39.267   3.252   6.520
    3AU     LIG 1333  39.489   2.881   6.364
    3AU     LIG 1334  39.740   2.725   6.019
    3AU     LIG 1335  39.927   2.724   5.606
    4AU     AUC 1336   8.986  16.410   7.501
    4AU     AUC 1337   9.257  16.430   7.322
    4AU     AUC 1338   9.263  16.406   7.671
    4AU     AUC 1339   8.700  16.400   7.331
    4AU     AUC 1340   8.719  16.433   7.691
    4AU     AUC 1341   8.804  16.680   7.506
    4AU     AUC 1342   9.172  16.691   7.494
    4AU     AUC 1343   8.805  16.141   7.500
    4AU     AUC 1344   9.152  16.124   7.496
    4AU     AUC 1345   8.993  16.236   7.779
    4AU     AUC 1346   8.983  16.581   7.774
    4AU     AUC 1347   8.981  16.247   7.218
    4AU     AUC 1348   8.997  16.567   7.223
    4AU     AUC 1349   9.568  16.438   7.146
    4AU     AUC 1350   9.594  16.382   7.506
    4AU     AUC 1351   9.546  16.381   7.839
    4AU     AUC 1352   8.400  16.386   7.158
    4AU     AUC 1353   8.375  16.422   7.524
    4AU     AUC 1354   8.419  16.442   7.888
    4AU     AUC 1355   8.627  16.983   7.493
    4AU     AUC 1356   8.982  17.013   7.468
    4AU     AUC 1357   9.355  16.977   7.485
    4AU     AUC 1358   8.609  15.857   7.501
    4AU     AUC 1359   8.962  15.812   7.488
    4AU     AUC 1360   9.316  15.822   7.479
    4AU     AUC 1361   8.982  16.059   8.071
    4AU     AUC 1362   9.021  16.434   8.114
    4AU     AUC 1363   9.002  16.768   8.057
    4AU     AUC 1364   9.009  16.078   6.938
    4AU     AUC 1365   8.990  16.413   6.882
    4AU     AUC 1366   8.974  16.738   6.923
    4AU     AUC 1367   9.273  16.218   7.991
    4AU     AUC 1368   9.306  16.589   7.978
    4AU     AUC 1369   9.313  16.284   6.983
    4AU     AUC 1370   9.300  16.603   7.025
    4AU     AUC 1371   8.689  16.263   8.019
    4AU     AUC 1372   8.702  16.618   7.996
    4AU     AUC 1373   8.684  16.218   7.034
    4AU     AUC 1374   8.660  16.542   6.993
    4AU     AUC 1375   9.515  16.697   7.347
    4AU     AUC 1376   9.485  16.699   7.678
    4AU     AUC 1377   8.498  16.696   7.319
    4AU     AUC 1378   8.494  16.733   7.690
    4AU     AUC 1379   9.453  16.116   7.313
    4AU     AUC 1380   9.431  16.058   7.678
    4AU     AUC 1381   8.471  16.094   7.349
    4AU     AUC 1382   8.524  16.149   7.708
    4AU     AUC 1383   8.797  16.932   7.779
    4AU     AUC 1384   9.164  16.892   7.752
    4AU     AUC 1385   8.795  15.932   7.799
    4AU     AUC 1386   9.124  15.891   7.777
    4AU     AUC 1387   8.806  16.841   7.191
    4AU     AUC 1388   9.187  16.894   7.199
    4AU     AUC 1389   8.797  15.935   7.198
    4AU     AUC 1390   9.188  15.962   7.191
    4AU    AUSL 1391   9.557  16.355   8.181
    4AU    AUSL 1392   9.259  15.913   8.160
    4AU     AUL 1393   9.597  15.944   8.316
    4AU       S 1394   9.594  15.509   8.172
    4AU     LIG 1395   9.499  15.245   8.490
    4AU     LIG 1396   9.650  14.927   8.778
    4AU     LIG 1397   9.968  14.703   9.022
    4AU     LIG 1398  10.283  14.612   9.340
    4AU       S 1399   9.823  16.333   8.244
    4AU     LIG 1400   9.800  16.252   8.699
    4AU     LIG 1401   9.911  16.145   9.147
    4AU     LIG 1402  10.130  16.070   9.560
    4AU     LIG 1403  10.495  16.078   9.865
    4AU    AUSL 1404   9.179  16.260   8.389
    4AU    AUSL 1405   8.874  16.588   8.412
    4AU     AUL 1406   9.100  16.566   8.733
    4AU       S 1407   9.321  16.210   8.554
    4AU     LIG 1408   9.217  16.102   8.951
    4AU     LIG 1409   9.459  15.970   9.340
    4AU     LIG 1410   9.693  15.789   9.716
    4AU     LIG 1411   9.658  15.554  10.138
    4AU       S 1412   8.735  16.306   8.665
    4AU     LIG 1413   8.740  16.212   9.150
    4AU     LIG 1414   8.408  16.260   9.483
    4AU     LIG 1415   8.223  16.329   9.904
    4AU     LIG 1416   8.099  16.609  10.257
    4AU    AUSL 1417   9.274  16.681   8.323
    4AU    AUSL 1418   9.627  16.760   8.056
    4AU     AUL 1419   9.564  16.637   8.461
    4AU       S 1420   9.141  16.981   8.467
    4AU     LIG 1421   9.405  16.959   8.828
    4AU     LIG 1422   9.592  17.014   9.258
    4AU     LIG 1423   9.563  17.033   9.741
    4AU     LIG 1424   9.616  17.122  10.207
    4AU       S 1425   9.671  17.027   8.238
    4AU     LIG 1426  10.048  16.819   8.345
    4AU     LIG 1427  10.366  17.018   8.659
    4AU     LIG 1428  10.636  17.285   8.962
    4AU     LIG 1429  10.871  17.632   9.183
    4AU    AUSL 1430   9.516  16.569   6.753
    4AU    AUSL 1431   9.294  16.880   6.969
    4AU     AUL 1432   9.423  16.947   6.625
    4AU       S 1433   9.469  16.623   6.307
    4AU     LIG 1434   9.854  16.477   6.107
    4AU     LIG 1435   9.974  16.187   5.772
    4AU     LIG 1436  10.083  16.065   5.330
    4AU     LIG 1437  10.411  16.043   4.976
    4AU       S 1438   9.762  17.138   6.887
    4AU     LIG 1439   9.815  17.349   6.489
    4AU     LIG 1440  10.001  17.558   6.086
    4AU     LIG 1441  10.252  17.804   5.754
    4AU     LIG 1442  10.526  18.045   5.432
    4AU    AUSL 1443   9.293  16.238   6.593
    4AU    AUSL 1444   9.661  16.199   6.911
    4AU     AUL 1445   9.705  16.328   6.598
    4AU       S 1446   9.852  15.889   6.690
    4AU     LIG 1447  10.017  15.472   6.464
    4AU     LIG 1448  10.152  15.055   6.284
    4AU     LIG 1449  10.447  14.822   6.009
    4AU     LIG 1450  10.805  14.913   5.712
    4AU       S 1451   9.384  16.477   6.290
    4AU     LIG 1452   9.498  16.097   6.093
    4AU     LIG 1453   9.591  15.855   5.681
    4AU     LIG 1454   9.636  15.819   5.207
    4AU     LIG 1455   9.588  15.797   4.733
    4AU    AUSL 1456   9.092  16.616   6.691
    4AU    AUSL 1457   8.882  16.214   6.722
    4AU     AUL 1458   9.021  16.242   6.428
    4AU       S 1459   8.579  16.239   6.296
    4AU     LIG 1460   8.648  16.029   5.928
    4AU     LIG 1461   8.388  15.808   5.625
    4AU     LIG 1462   8.248  15.819   5.189
    4AU     LIG 1463   8.317  15.664   4.735
    4AU       S 1464   9.128  16.693   6.360
    4AU     LIG 1465   9.138  16.498   5.883
    4AU     LIG 1466   9.507  16.358   5.597
    4AU     LIG 1467   9.665  16.341   5.142
    4AU     LIG 1468   9.583  16.535   4.707
    4AU    AUSL 1469   8.479  16.498   8.266
    4AU    AUSL 1470   8.745  16.855   8.114
    4AU     AUL 1471   8.614  16.801   8.466
    4AU       S 1472   8.565  16.427   8.745
    4AU     LIG 1473   8.161  16.361   8.848
    4AU     LIG 1474   7.999  16.111   9.195
    4AU     LIG 1475   7.876  16.046   9.642
    4AU     LIG 1476   7.594  16.085  10.016
    4AU       S 1477   8.298  17.090   8.243
    4AU     LIG 1478   8.408  17.283   8.620
    4AU     LIG 1479   8.292  17.512   9.001
    4AU     LIG 1480   7.923  17.693   9.204
    4AU     LIG 1481   7.702  17.796   9.603
    4AU    AUSL 1482   8.804  16.226   8.188
    4AU    AUSL 1483   8.337  16.115   8.112
    4AU     AUL 1484   8.371  16.240   8.374
    4AU       S 1485   8.166  15.828   8.339
    4AU     LIG 1486   7.750  15.776   8.190
    4AU     LIG 1487   7.462  15.458   8.380
    4AU     LIG 1488   7.255  15.138   8.664
    4AU     LIG 1489   7.067  14.934   9.049
    4AU       S 1490   8.776  16.132   8.593
    4AU     LIG 1491   8.428  15.932   8.868
    4AU     LIG 1492   8.384  15.778   9.300
    4AU     LIG 1493   8.319  15.820   9.762
    4AU     LIG 1494   8.058  15.889  10.142
    4AU    AUSL 1495   8.459  16.275   6.772
    4AU    AUSL 1496   8.668  15.920   6.937
    4AU     AUL 1497   8.716  15.917   6.607
    4AU       S 1498   8.395  16.155   6.378
    4AU     LIG 1499   8.148  15.972   6.072
    4AU     LIG 1500   7.922  16.033   5.679
    4AU     LIG 1501   7.819  16.132   5.244
    4AU     LIG 1502   7.548  16.177   4.852
    4AU       S 1503   8.299  15.807   6.765
    4AU     LIG 1504   8.355  15.471   6.518
    4AU     LIG 1505   8.042  15.182   6.331
    4AU     LIG 1506   7.714  14.935   6.114
    4AU     LIG 1507   7.416  14.773   5.798
    4AU    AUSL 1508   8.683  16.594   6.594
    4AU    AUSL 1509   8.324  16.667   6.906
    4AU     AUL 1510   8.249  16.513   6.614
    4AU       S 1511   8.356  16.949   6.672
    4AU     LIG 1512   7.947  16.978   6.626
    4AU     LIG 1513   7.744  17.239   6.283
    4AU     LIG 1514   7.609  17.478   5.895
    4AU     LIG 1515   7.483  17.673   5.476
    4AU       S 1516   8.628  16.510   6.326
    4AU     LIG 1517   8.340  16.453   5.920
    4AU     LIG 1518   8.312  16.294   5.466
    4AU     LIG 1519   8.240  16.302   4.992
    4AU     LIG 1520   8.173  16.452   4.545
    4AU    AUSL 1521   9.762  16.857   7.517
    4AU    AUSL 1522   9.680  16.724   7.109
    4AU     AUL 1523  10.018  16.977   7.308
    4AU       S 1524   9.785  16.912   6.929
    4AU     LIG 1525   9.916  16.823   6.510
    4AU     LIG 1526  10.194  17.087   6.229
    4AU     LIG 1527  10.486  17.391   5.997
    4AU     LIG 1528  10.719  17.598   5.633
    4AU       S 1529  10.232  16.715   7.651
    4AU     LIG 1530  10.627  16.846   7.518
    4AU     LIG 1531  11.012  17.038   7.416
    4AU     LIG 1532  11.268  17.420   7.372
    4AU     LIG 1533  11.403  17.831   7.554
    4AU    AUSL 1534   9.943  16.485   7.343
    4AU    AUSL 1535   9.903  16.131   7.656
    4AU     AUL 1536  10.217  16.147   7.463
    4AU       S 1537  10.150  16.585   7.502
    4AU     LIG 1538  10.501  16.470   7.212
    4AU     LIG 1539  10.978  16.528   7.249
    4AU     LIG 1540  11.405  16.719   7.363
    4AU     LIG 1541  11.789  16.981   7.305
    4AU       S 1542  10.102  15.706   7.621
    4AU     LIG 1543  10.551  15.679   7.744
    4AU     LIG 1544  10.877  15.349   7.783
    4AU     LIG 1545  11.341  15.317   7.728
    4AU     LIG 1546  11.778  15.461   7.842
    4AU    AUSL 1547   9.727  16.501   7.744
    4AU    AUSL 1548   9.547  17.106   7.781
    4AU     AUL 1549   9.860  16.911   7.830
    4AU       S 1550   9.744  17.290   8.086
    4AU     LIG 1551  10.129  17.330   8.311
    4AU     LIG 1552  10.396  17.568   8.612
    4AU     LIG 1553  10.682  17.910   8.777
    4AU     LIG 1554  10.929  18.329   8.690
    4AU       S 1555  10.095  16.510   7.837
    4AU     LIG 1556  10.586  16.448   7.847
    4AU     LIG 1557  11.044  16.614   7.762
    4AU     LIG 1558  11.536  16.604   7.845
    4AU     LIG 1559  11.905  16.874   8.032
    4AU    AUSL 1560   8.297  16.947   7.531
    4AU    AUSL 1561   8.366  16.731   7.934
    4AU     AUL 1562   8.060  17.047   7.788
    4AU       S 1563   8.216  16.865   8.184
    4AU     LIG 1564   8.125  16.845   8.643
    4AU     LIG 1565   7.910  17.185   8.906
    4AU     LIG 1566   7.531  17.355   9.137
    4AU     LIG 1567   7.081  17.259   9.269
    4AU       S 1568   8.274  17.332   7.467
    4AU     LIG 1569   7.822  17.217   7.376
    4AU     LIG 1570   7.383  17.338   7.474
    4AU     LIG 1571   7.009  17.619   7.602
    4AU     LIG 1572   6.644  17.930   7.545
    4AU    AUSL 1573   8.271  16.575   7.309
    4AU    AUSL 1574   8.413  17.031   7.137
    4AU     AUL 1575   8.107  16.881   7.156
    4AU       S 1576   7.932  16.416   6.970
    4AU     LIG 1577   7.614  16.793   7.035
    4AU     LIG 1578   7.158  16.985   6.979
    4AU     LIG 1579   6.733  17.152   6.784
    4AU     LIG 1580   6.263  17.048   6.886
    4AU       S 1581   8.210  17.302   6.942
    4AU     LIG 1582   8.165  17.449   6.504
    4AU     LIG 1583   7.900  17.754   6.234
    4AU     LIG 1584   7.622  18.143   6.153
    4AU     LIG 1585   7.355  18.495   6.377
    4AU    AUSL 1586   8.053  16.600   7.694
    4AU    AUSL 1587   8.029  16.244   7.394
    4AU     AUL 1588   7.875  16.573   7.413
    4AU       S 1589   7.832  16.158   7.664
    4AU     LIG 1590   7.486  16.227   7.369
    4AU     LIG 1591   7.022  16.037   7.306
    4AU     LIG 1592   6.595  15.776   7.281
    4AU     LIG 1593   6.114  15.830   7.235
    4AU       S 1594   7.882  16.618   7.914
    4AU     LIG 1595   7.570  16.871   7.696
    4AU     LIG 1596   7.170  17.058   7.847
    4AU     LIG 1597   6.828  17.318   7.994
    4AU     LIG 1598   6.388  17.206   8.050
    4AU    AUSL 1599   9.638  15.823   7.516
    4AU    AUSL 1600   9.532  16.082   7.867
    4AU     AUL 1601   9.845  15.976   7.898
    4AU       S 1602   9.800  15.634   7.504
    4AU     LIG 1603  10.049  15.212   7.434
    4AU     LIG 1604  10.526  15.148   7.448
    4AU     LIG 1605  10.993  14.968   7.443
    4AU     LIG 1606  11.444  14.846   7.499
    4AU       S 1607   9.755  15.547   8.008
    4AU     LIG 1608   9.994  15.230   8.262
    4AU     LIG 1609  10.142  15.020   8.635
    4AU     LIG 1610  10.463  14.815   8.892
    4AU     LIG 1611  10.723  14.893   9.273
    4AU    AUSL 1612   9.633  16.207   7.326
    4AU    AUSL 1613   9.598  15.806   7.096
    4AU     AUL 1614   9.871  16.036   7.163
    4AU       S 1615  10.061  15.693   7.377
    4AU     LIG 1616  10.507  15.713   7.246
    4AU     LIG 1617  10.900  15.448   7.266
    4AU     LIG 1618  11.351  15.305   7.217
    4AU     LIG 1619  11.804  15.130   7.256
    4AU       S 1620   9.799  15.686   6.857
    4AU     LIG 1621   9.829  15.244   6.931
    4AU     LIG 1622  10.056  14.845   6.736
    4AU     LIG 1623  10.223  14.538   6.401
    4AU     LIG 1624  10.532  14.191   6.253
    4AU    AUSL 1625   8.238  15.884   7.542
    4AU    AUSL 1626   8.344  16.122   7.145
    4AU     AUL 1627   7.993  15.948   7.262
    4AU       S 1628   8.154  15.930   6.830
    4AU     LIG 1629   7.902  15.727   6.469
    4AU     LIG 1630   7.573  15.407   6.335
    4AU     LIG 1631   7.230  15.100   6.188
    4AU     LIG 1632   6.956  14.727   6.026
    4AU       S 1633   7.809  15.923   7.701
    4AU     LIG 1634   7.410  15.760   7.562
    4AU     LIG 1635   6.976  15.605   7.599
    4AU     LIG 1636   6.639  15.306   7.547
    4AU     LIG 1637   6.367  14.938   7.446
    4AU    AUSL 1638   8.306  16.269   7.729
    4AU    AUSL 1639   8.563  15.903   7.815
    4AU     AUL 1640   8.235  15.847   7.865
    4AU       S 1641   8.242  15.637   8.268
    4AU     LIG 1642   7.941  15.291   8.230
    4AU     LIG 1643   7.583  14.959   8.291
    4AU     LIG 1644   7.291  14.643   8.511
    4AU     LIG 1645   7.059  14.234   8.582
    4AU       S 1646   7.892  16.153   7.851
    4AU     LIG 1647   7.379  16.168   7.879
    4AU     LIG 1648   6.896  16.068   7.810
    4AU     LIG 1649   6.501  15.786   7.807
    4AU     LIG 1650   6.022  15.895   7.767
    4AU    AUSL 1651   8.951  17.209   7.988
    4AU    AUSL 1652   8.536  17.112   7.843
    4AU     AUL 1653   8.752  17.193   8.233
    4AU       S 1654   8.405  17.325   7.954
    4AU     LIG 1655   8.125  17.552   8.262
    4AU     LIG 1656   7.922  17.670   8.672
    4AU     LIG 1657   7.731  18.054   8.884
    4AU     LIG 1658   7.478  18.439   9.007
    4AU       S 1659   8.940  17.562   7.984
    4AU     LIG 1660   9.127  17.572   8.357
    4AU     LIG 1661   9.225  17.999   8.496
    4AU     LIG 1662   9.155  18.453   8.592
    4AU     LIG 1663   9.104  18.768   8.931
    4AU    AUSL 1664   8.772  17.349   7.595
    4AU    AUSL 1665   9.143  17.321   7.230
    4AU     AUL 1666   8.838  17.566   7.339
    4AU       S 1667   8.832  17.639   7.801
    4AU     LIG 1668   8.892  18.067   8.069
    4AU     LIG 1669   8.860  18.557   8.161
    4AU     LIG 1670   8.789  19.049   8.132
    4AU     LIG 1671   8.409  19.351   8.121
    4AU       S 1672   9.054  17.622   6.934
    4AU     LIG 1673   9.404  17.851   6.933
    4AU     LIG 1674   9.430  18.307   6.833
    4AU     LIG 1675   9.399  18.781   6.820
    4AU     LIG 1676   9.341  19.243   6.857
    4AU    AUSL 1677   9.165  17.155   7.616
    4AU    AUSL 1678   9.224  16.896   7.979
    4AU     AUL 1679   9.289  17.254   7.993
    4AU       S 1680   9.565  17.142   8.342
    4AU     LIG 1681   9.855  17.140   8.702
    4AU     LIG 1682  10.119  17.350   8.993
    4AU     LIG 1683  10.361  17.705   9.154
    4AU     LIG 1684  10.439  17.954   9.548
    4AU       S 1685   9.189  17.564   7.670
    4AU     LIG 1686   9.359  17.867   7.991
    4AU     LIG 1687   9.344  18.348   8.121
    4AU     LIG 1688   9.290  18.839   8.231
    4AU     LIG 1689   9.353  19.336   8.262
    4AU    AUSL 1690   8.945  15.714   7.939
    4AU    AUSL 1691   9.362  15.691   7.804
    4AU     AUL 1692   9.144  15.608   8.195
    4AU       S 1693   8.964  15.238   7.984
    4AU     LIG 1694   9.126  14.957   8.264
    4AU     LIG 1695   8.987  14.559   8.407
    4AU     LIG 1696   8.912  14.111   8.423
    4AU     LIG 1697   8.778  13.808   8.742
    4AU       S 1698   9.499  15.505   7.878
    4AU     LIG 1699   9.568  15.038   8.024
    4AU     LIG 1700   9.800  14.748   8.324
    4AU     LIG 1701  10.152  14.513   8.572
    4AU     LIG 1702  10.354  14.299   8.928
    4AU    AUSL 1703   8.635  15.530   7.652
    4AU    AUSL 1704   8.675  15.838   8.235
    4AU     AUL 1705   8.613  15.559   8.000
    4AU       S 1706   8.773  15.152   7.816
    4AU     LIG 1707   8.647  14.825   8.104
    4AU     LIG 1708   8.521  14.376   8.205
    4AU     LIG 1709   8.421  13.898   8.254
    4AU     LIG 1710   8.204  13.448   8.176
    4AU       S 1711   8.476  15.746   8.422
    4AU     LIG 1712   8.191  15.450   8.714
    4AU     LIG 1713   7.798  15.167   8.714
    4AU     LIG 1714   7.565  14.812   8.923
    4AU     LIG 1715   7.404  14.690   9.349
    4AU    AUSL 1716   9.064  15.480   7.596
    4AU    AUSL 1717   8.822  15.708   7.310
    4AU     AUL 1718   8.717  15.359   7.399
    4AU       S 1719   9.099  15.272   7.169
    4AU     LIG 1720   8.784  14.904   7.200
    4AU     LIG 1721   8.775  14.476   7.005
    4AU     LIG 1722   8.705  14.054   6.800
    4AU     LIG 1723   8.514  13.592   6.789
    4AU       S 1724   9.083  15.269   7.720
    4AU     LIG 1725   9.179  14.818   7.767
    4AU     LIG 1726   9.337  14.468   8.042
    4AU     LIG 1727   9.441  13.994   8.075
    4AU     LIG 1728   9.483  13.510   8.109
    4AU    AUSL 1729   8.969  17.125   6.872
    4AU    AUSL 1730   9.495  17.091   7.288
    4AU     AUL 1731   9.316  17.253   6.950
    4AU       S 1732   8.943  17.351   6.671
    4AU     LIG 1733   9.240  17.666   6.477
    4AU     LIG 1734   9.281  18.125   6.365
    4AU     LIG 1735   9.231  18.465   6.041
    4AU     LIG 1736   9.306  18.796   5.706
    4AU       S 1737   9.715  17.288   7.166
    4AU     LIG 1738  10.127  17.454   6.921
    4AU     LIG 1739  10.330  17.544   6.489
    4AU     LIG 1740  10.599  17.854   6.219
    4AU     LIG 1741  10.935  18.219   6.237
    4AU    AUSL 1742   8.801  17.071   7.290
    4AU    AUSL 1743   8.730  16.798   6.955
    4AU     AUL 1744   8.657  17.232   7.045
    4AU       S 1745   8.860  17.593   6.863
    4AU     LIG 1746   8.950  18.071   6.756
    4AU     LIG 1747   8.972  18.540   6.660
    4AU     LIG 1748   8.830  19.012   6.700
    4AU     LIG 1749   8.472  19.338   6.696
    4AU       S 1750   8.524  17.045   6.650
    4AU     LIG 1751   8.388  17.092   6.199
    4AU     LIG 1752   8.129  17.392   5.948
    4AU     LIG 1753   7.980  17.780   5.702
    4AU     LIG 1754   8.012  18.078   5.330
    4AU    AUSL 1755   9.009  15.669   6.918
    4AU    AUSL 1756   8.417  15.691   7.211
    4AU     AUL 1757   8.676  15.546   6.965
    4AU       S 1758   8.213  15.646   6.976
    4AU     LIG 1759   7.900  15.338   6.803
    4AU     LIG 1760   7.615  14.979   6.617
    4AU     LIG 1761   7.349  14.638   6.377
    4AU     LIG 1762   7.034  14.276   6.279
    4AU       S 1763   9.073  15.280   7.005
    4AU     LIG 1764   9.042  14.903   6.756
    4AU     LIG 1765   9.022  14.484   6.547
    4AU     LIG 1766   8.980  14.070   6.345
    4AU     LIG 1767   9.002  13.899   5.908
    4AU    AUSL 1768   9.250  15.696   7.292
    4AU    AUSL 1769   9.254  16.010   6.937
    4AU     AUL 1770   9.338  15.641   6.904
    4AU       S 1771   9.370  15.340   7.265
    4AU     LIG 1772   9.277  14.844   7.263
    4AU     LIG 1773   9.286  14.512   6.988
    4AU     LIG 1774   9.248  14.095   6.805
    4AU     LIG 1775   9.041  13.678   6.700
    4AU       S 1776   9.582  15.852   6.584
    4AU     LIG 1777   9.522  15.386   6.511
    4AU     LIG 1778   9.674  15.161   6.127
    4AU     LIG 1779   9.933  14.837   5.866
    4AU     LIG 1780  10.203  14.481   5.699
    5AU     AUC 1781  28.271  40.471   7.507
    5AU     AUC 1782  28.549  40.487   7.329
    5AU     AUC 1783  28.532  40.463   7.678
    5AU     AUC 1784  27.990  40.463   7.339
    5AU     AUC 1785  28.001  40.500   7.691
    5AU     AUC 1786  28.102  40.748   7.506
    5AU     AUC 1787  28.465  40.751   7.499
    5AU     AUC 1788  28.087  40.198   7.514
    5AU     AUC 1789  28.437  40.181   7.504
    5AU     AUC 1790  28.273  40.292   7.783
    5AU     AUC 1791  28.267  40.643   7.780
    5AU     AUC 1792  28.267  40.306   7.231
    5AU     AUC 1793  28.284  40.628   7.229
    5AU     AUC 1794  28.858  40.492   7.159
    5AU     AUC 1795  28.873  40.450   7.521
    5AU     AUC 1796  28.817  40.437   7.874
    5AU     AUC 1797  27.693  40.448   7.168
    5AU     AUC 1798  27.667  40.492   7.531
    5AU     AUC 1799  27.710  40.529   7.872
    5AU     AUC 1800  27.939  41.056   7.488
    5AU     AUC 1801  28.297  41.077   7.479
    5AU     AUC 1802  28.674  41.027   7.495
    5AU     AUC 1803  27.896  39.918   7.521
    5AU     AUC 1804  28.248  39.867   7.497
    5AU     AUC 1805  28.611  39.881   7.486
    5AU     AUC 1806  28.256  40.113   8.073
    5AU     AUC 1807  28.281  40.489   8.120
    5AU     AUC 1808  28.286  40.822   8.068
    5AU     AUC 1809  28.296  40.131   6.952
    5AU     AUC 1810  28.276  40.465   6.894
    5AU     AUC 1811  28.263  40.798   6.929
    5AU     AUC 1812  28.533  40.262   8.008
    5AU     AUC 1813  28.580  40.619   8.006
    5AU     AUC 1814  28.601  40.341   6.997
    5AU     AUC 1815  28.585  40.657   7.030
    5AU     AUC 1816  27.968  40.336   8.019
    5AU     AUC 1817  27.981  40.710   7.989
    5AU     AUC 1818  27.972  40.273   7.047
    5AU     AUC 1819  27.954  40.602   6.999
    5AU     AUC 1820  28.807  40.765   7.336
    5AU     AUC 1821  28.773  40.754   7.684
    5AU     AUC 1822  27.795  40.764   7.312
    5AU     AUC 1823  27.796  40.812   7.680
    5AU     AUC 1824  28.749  40.176   7.331
    5AU     AUC 1825  28.715  40.126   7.686
    5AU     AUC 1826  27.758  40.159   7.371
    5AU     AUC 1827  27.804  40.210   7.724
    5AU     AUC 1828  28.116  41.005   7.778
    5AU     AUC 1829  28.472  40.939   7.766
    5AU     AUC 1830  28.083  39.991   7.809
    5AU     AUC 1831  28.402  39.940   7.781
    5AU     AUC 1832  28.100  40.911   7.194
    5AU     AUC 1833  28.473  40.957   7.209
    5AU     AUC 1834  28.084  39.993   7.215
    5AU     AUC 1835  28.476  40.021   7.208
    5AU    AUSL 1836  28.798  40.344   8.250
    5AU    AUSL 1837  28.542  39.949   8.167
    5AU     AUL 1838  28.778  39.940   8.461
    5AU       S 1839  28.921  39.636   8.144
    5AU     LIG 1840  28.787  39.405   8.510
    5AU     LIG 1841  28.974  39.071   8.792
    5AU     LIG 1842  29.244  38.716   8.973
    5AU     LIG 1843  29.538  38.617   9.330
    5AU       S 1844  29.006  40.298   8.304
    5AU     LIG 1845  29.055  40.270   8.751
    5AU     LIG 1846  29.143  40.230   9.205
    5AU     LIG 1847  29.429  40.235   9.573
    5AU     LIG 1848  29.838  40.332   9.789
    5AU    AUSL 1849  28.387  40.282   8.399
    5AU    AUSL 1850  28.123  40.658   8.412
    5AU     AUL 1851  28.330  40.607   8.749
    5AU       S 1852  28.435  40.225   8.532
    5AU     LIG 1853  28.456  40.142   8.941
    5AU     LIG 1854  28.691  39.985   9.310
    5AU     LIG 1855  28.818  39.943   9.760
    5AU     LIG 1856  28.781  39.729  10.181
    5AU       S 1857  27.934  40.410   8.630
    5AU     LIG 1858  27.991  40.428   9.097
    5AU     LIG 1859  27.719  40.393   9.478
    5AU     LIG 1860  27.536  40.415   9.910
    5AU     LIG 1861  27.580  40.567  10.357
    5AU    AUSL 1862  28.535  40.693   8.348
    5AU    AUSL 1863  28.912  40.737   8.114
    5AU     AUL 1864  28.798  40.635   8.522
    5AU       S 1865  28.435  41.014   8.486
    5AU     LIG 1866  28.683  40.981   8.866
    5AU     LIG 1867  28.920  41.143   9.240
    5AU     LIG 1868  28.912  41.277   9.694
    5AU     LIG 1869  28.787  41.364  10.145
    5AU       S 1870  28.983  40.988   8.283
    5AU     LIG 1871  29.320  40.792   8.460
    5AU     LIG 1872  29.649  41.023   8.741
    5AU     LIG 1873  29.918  41.343   8.990
    5AU     LIG 1874  30.119  41.685   9.255
    5AU    AUSL 1875  28.801  40.633   6.749
    5AU    AUSL 1876  28.570  40.934   6.969
    5AU     AUL 1877  28.619  41.035   6.616
    5AU       S 1878  28.789  40.700   6.352
    5AU     LIG 1879  29.152  40.537   6.150
    5AU     LIG 1880  29.197  40.271   5.795
    5AU     LIG 1881  29.327  40.205   5.364
    5AU     LIG 1882  29.687  40.211   5.059
    5AU       S 1883  29.014  41.164   6.838
    5AU     LIG 1884  29.109  41.310   6.416
    5AU     LIG 1885  29.360  41.522   6.070
    5AU     LIG 1886  29.594  41.727   5.703
    5AU     LIG 1887  29.641  42.122   5.435
    5AU    AUSL 1888  28.584  40.284   6.610
    5AU    AUSL 1889  28.939  40.260   6.924
    5AU     AUL 1890  29.000  40.380   6.620
    5AU       S 1891  29.096  39.928   6.687
    5AU     LIG 1892  29.237  39.609   6.355
    5AU     LIG 1893  29.498  39.226   6.250
    5AU     LIG 1894  29.772  38.844   6.178
    5AU     LIG 1895  30.061  38.629   5.873
    5AU       S 1896  28.675  40.510   6.299
    5AU     LIG 1897  28.790  40.139   6.119
    5AU     LIG 1898  28.808  39.958   5.673
    5AU     LIG 1899  28.887  39.968   5.204
    5AU     LIG 1900  29.007  39.958   4.745
    5AU    AUSL 1901  28.377  40.655   6.700
    5AU    AUSL 1902  28.169  40.257   6.734
    5AU     AUL 1903  28.313  40.273   6.445
    5AU       S 1904  27.868  40.282   6.311
    5AU     LIG 1905  27.981  40.050   5.971
    5AU     LIG 1906  27.752  39.880   5.607
    5AU     LIG 1907  27.522  39.897   5.200
    5AU     LIG 1908  27.455  39.712   4.761
    5AU       S 1909  28.441  40.707   6.329
    5AU     LIG 1910  28.572  40.553   5.833
    5AU     LIG 1911  28.840  40.433   5.445
    5AU     LIG 1912  29.035  40.437   5.006
    5AU     LIG 1913  29.075  40.677   4.605
    5AU    AUSL 1914  27.729  40.595   8.243
    5AU    AUSL 1915  28.030  40.943   8.117
    5AU     AUL 1916  27.883  40.897   8.458
    5AU       S 1917  27.721  40.498   8.670
    5AU     LIG 1918  27.520  40.233   8.976
    5AU     LIG 1919  27.277  40.145   9.384
    5AU     LIG 1920  27.093  40.158   9.820
    5AU     LIG 1921  26.728  40.313  10.084
    5AU       S 1922  27.610  41.215   8.205
    5AU     LIG 1923  27.718  41.417   8.567
    5AU     LIG 1924  27.438  41.666   8.811
    5AU     LIG 1925  27.216  41.771   9.186
    5AU     LIG 1926  27.046  41.775   9.622
    5AU    AUSL 1927  28.038  40.315   8.163
    5AU    AUSL 1928  27.628  40.174   8.142
    5AU     AUL 1929  27.518  40.403   8.268
    5AU       S 1930  27.547  39.953   8.403
    5AU     LIG 1931  27.104  39.887   8.241
    5AU     LIG 1932  26.819  39.526   8.389
    5AU     LIG 1933  26.536  39.181   8.579
    5AU     LIG 1934  26.159  38.890   8.687
    5AU       S 1935  27.912  40.261   8.552
    5AU     LIG 1936  27.962  39.968   8.896
    5AU     LIG 1937  27.760  39.908   9.312
    5AU     LIG 1938  27.574  39.924   9.746
    5AU     LIG 1939  27.358  39.868  10.164
    5AU    AUSL 1940  27.745  40.324   6.785
    5AU    AUSL 1941  27.951  39.970   6.955
    5AU     AUL 1942  27.996  39.962   6.625
    5AU       S 1943  27.673  40.199   6.396
    5AU     LIG 1944  27.463  40.025   6.049
    5AU     LIG 1945  27.306  40.143   5.631
    5AU     LIG 1946  27.027  40.097   5.257
    5AU     LIG 1947  26.622  40.170   5.022
    5AU       S 1948  27.583  39.855   6.796
    5AU     LIG 1949  27.655  39.512   6.557
    5AU     LIG 1950  27.352  39.205   6.367
    5AU     LIG 1951  27.029  38.929   6.148
    5AU     LIG 1952  26.894  38.726   5.738
    5AU    AUSL 1953  27.972  40.640   6.605
    5AU    AUSL 1954  27.627  40.725   6.906
    5AU     AUL 1955  27.542  40.568   6.625
    5AU       S 1956  27.664  41.008   6.629
    5AU     LIG 1957  27.375  41.211   6.366
    5AU     LIG 1958  27.125  41.528   6.129
    5AU     LIG 1959  26.869  41.596   5.742
    5AU     LIG 1960  26.647  41.765   5.370
    5AU       S 1961  27.923  40.545   6.339
    5AU     LIG 1962  27.689  40.476   5.895
    5AU     LIG 1963  27.726  40.376   5.428
    5AU     LIG 1964  27.810  40.565   4.988
    5AU     LIG 1965  27.757  40.865   4.609
    5AU    AUSL 1966  29.108  40.952   7.491
    5AU    AUSL 1967  28.961  40.748   7.118
    5AU     AUL 1968  29.347  40.908   7.124
    5AU       S 1969  29.018  41.027   6.854
    5AU     LIG 1970  29.291  40.845   6.566
    5AU     LIG 1971  29.598  41.127   6.330
    5AU     LIG 1972  29.858  41.391   6.021
    5AU     LIG 1973  30.145  41.474   5.653
    5AU       S 1974  29.444  41.049   7.555
    5AU     LIG 1975  29.907  41.097   7.407
    5AU     LIG 1976  30.347  41.236   7.522
    5AU     LIG 1977  30.704  41.538   7.444
    5AU     LIG 1978  30.759  42.004   7.296
    5AU    AUSL 1979  29.242  40.550   7.389
    5AU    AUSL 1980  29.162  40.247   7.723
    5AU     AUL 1981  29.394  40.431   7.830
    5AU       S 1982  29.529  40.640   7.444
    5AU     LIG 1983  29.919  40.598   7.258
    5AU     LIG 1984  30.331  40.812   7.221
    5AU     LIG 1985  30.750  41.025   7.267
    5AU     LIG 1986  31.164  41.128   7.092
    5AU       S 1987  29.428  40.018   7.582
    5AU     LIG 1988  29.748  39.760   7.775
    5AU     LIG 1989  30.205  39.621   7.752
    5AU     LIG 1990  30.675  39.543   7.734
    5AU     LIG 1991  31.140  39.484   7.690
    5AU    AUSL 1992  28.960  40.614   7.718
    5AU    AUSL 1993  28.878  41.080   7.824
    5AU     AUL 1994  29.173  40.845   7.882
    5AU       S 1995  29.078  41.246   8.107
    5AU     LIG 1996  29.431  41.294   8.352
    5AU     LIG 1997  29.574  41.569   8.690
    5AU     LIG 1998  29.883  41.890   8.843
    5AU     LIG 1999  30.053  42.321   8.945
    5AU       S 2000  29.551  40.822   7.623
    5AU     LIG 2001  29.955  40.708   7.760
    5AU     LIG 2002  30.413  40.760   7.726
    5AU     LIG 2003  30.776  41.037   7.775
    5AU     LIG 2004  31.136  41.258   7.602
    5AU    AUSL 2005  27.609  41.025   7.513
    5AU    AUSL 2006  27.661  40.844   7.916
    5AU     AUL 2007  27.369  41.140   7.745
    5AU       S 2008  27.511  40.995   8.162
    5AU     LIG 2009  27.402  40.995   8.619
    5AU     LIG 2010  27.162  41.257   8.957
    5AU     LIG 2011  26.824  41.446   9.249
    5AU     LIG 2012  26.536  41.699   9.537
    5AU       S 2013  27.614  41.424   7.440
    5AU     LIG 2014  27.153  41.369   7.345
    5AU     LIG 2015  26.668  41.448   7.459
    5AU     LIG 2016  26.248  41.725   7.533
    5AU     LIG 2017  25.871  42.068   7.580
    5AU    AUSL 2018  27.564  40.643   7.309
    5AU    AUSL 2019  27.707  41.100   7.113
    5AU     AUL 2020  27.401  40.950   7.154
    5AU       S 2021  27.229  40.475   6.981
    5AU     LIG 2022  26.841  40.776   7.084
    5AU     LIG 2023  26.450  41.045   7.192
    5AU     LIG 2024  26.043  41.198   7.009
    5AU     LIG 2025  25.674  40.954   6.838
    5AU       S 2026  27.508  41.352   6.901
    5AU     LIG 2027  27.387  41.673   6.584
    5AU     LIG 2028  27.386  41.975   6.240
    5AU     LIG 2029  27.190  42.373   6.137
    5AU     LIG 2030  26.887  42.746   6.147
    5AU    AUSL 2031  27.354  40.681   7.691
    5AU    AUSL 2032  27.325  40.315   7.413
    5AU     AUL 2033  27.174  40.643   7.419
    5AU       S 2034  27.120  40.241   7.686
    5AU     LIG 2035  26.818  40.263   7.356
    5AU     LIG 2036  26.438  40.007   7.187
    5AU     LIG 2037  25.991  39.780   7.176
    5AU     LIG 2038  25.552  39.839   7.315
    5AU       S 2039  27.182  40.718   7.913
    5AU     LIG 2040  26.765  40.769   7.686
    5AU     LIG 2041  26.387  41.073   7.738
    5AU     LIG 2042  26.002  41.229   7.986
    5AU     LIG 2043  25.545  41.121   8.127
    5AU    AUSL 2044  28.965  39.899   7.540
    5AU    AUSL 2045  28.788  40.152   7.879
    5AU     AUL 2046  29.109  40.021   7.936
    5AU       S 2047  29.230  39.798   7.524
    5AU     LIG 2048  29.442  39.424   7.522
    5AU     LIG 2049  29.899  39.295   7.492
    5AU     LIG 2050  30.375  39.187   7.490
    5AU     LIG 2051  30.845  39.081   7.485
    5AU       S 2052  29.042  39.573   7.947
    5AU     LIG 2053  29.250  39.290   8.293
    5AU     LIG 2054  29.459  39.024   8.604
    5AU     LIG 2055  29.702  38.984   8.987
    5AU     LIG 2056  30.032  38.758   9.218
    5AU    AUSL 2057  28.937  40.277   7.341
    5AU    AUSL 2058  28.889  39.868   7.122
    5AU     AUL 2059  29.153  40.072   7.151
    5AU       S 2060  29.503  40.125   7.427
    5AU     LIG 2061  29.767  39.767   7.266
    5AU     LIG 2062  30.227  39.615   7.233
    5AU     LIG 2063  30.705  39.526   7.226
    5AU     LIG 2064  31.154  39.381   7.173
    5AU       S 2065  29.097  39.708   6.844
    5AU     LIG 2066  29.212  39.245   6.728
    5AU     LIG 2067  29.349  38.818   6.528
    5AU     LIG 2068  29.516  38.418   6.331
    5AU     LIG 2069  29.918  38.150   6.299
    5AU    AUSL 2070  27.524  39.953   7.569
    5AU    AUSL 2071  27.635  40.182   7.164
    5AU     AUL 2072  27.282  40.015   7.289
    5AU       S 2073  27.441  39.982   6.857
    5AU     LIG 2074  27.214  39.784   6.477
    5AU     LIG 2075  26.897  39.446   6.407
    5AU     LIG 2076  26.591  39.104   6.352
    5AU     LIG 2077  26.490  38.778   6.053
    5AU       S 2078  27.098  40.012   7.731
    5AU     LIG 2079  26.672  39.862   7.642
    5AU     LIG 2080  26.239  39.707   7.610
    5AU     LIG 2081  26.042  39.308   7.469
    5AU     LIG 2082  25.948  38.849   7.407
    5AU    AUSL 2083  27.586  40.337   7.760
    5AU    AUSL 2084  27.847  39.959   7.846
    5AU     AUL 2085  27.514  39.915   7.908
    5AU       S 2086  27.568  39.739   8.333
    5AU     LIG 2087  27.286  39.391   8.191
    5AU     LIG 2088  26.933  39.036   8.252
    5AU     LIG 2089  26.616  38.697   8.407
    5AU     LIG 2090  26.488  38.491   8.791
    5AU       S 2091  27.193  40.248   7.874
    5AU     LIG 2092  26.683  40.294   7.909
    5AU     LIG 2093  26.224  40.106   7.935
    5AU     LIG 2094  25.753  39.981   7.786
    5AU     LIG 2095  25.265  39.876   7.759
    5AU    AUSL 2096  28.282  41.261   7.995
    5AU    AUSL 2097  27.871  41.197   7.807
    5AU     AUL 2098  28.067  41.284   8.212
    5AU       S 2099  27.721  41.411   7.925
    5AU     LIG 2100  27.426  41.685   8.234
    5AU     LIG 2101  27.332  42.083   8.499
    5AU     LIG 2102  27.114  42.517   8.573
    5AU     LIG 2103  26.690  42.795   8.614
    5AU       S 2104  28.346  41.619   7.982
    5AU     LIG 2105  28.424  41.847   8.312
    5AU     LIG 2106  28.211  42.202   8.468
    5AU     LIG 2107  28.171  42.594   8.674
    5AU     LIG 2108  28.134  43.030   8.870
    5AU    AUSL 2109  28.145  41.433   7.598
    5AU    AUSL 2110  28.449  41.366   7.258
    5AU     AUL 2111  28.335  41.694   7.379
    5AU       S 2112  28.161  41.676   7.810
    5AU     LIG 2113  28.159  42.136   7.944
    5AU     LIG 2114  28.141  42.589   8.128
    5AU     LIG 2115  28.093  42.978   8.360
    5AU     LIG 2116  27.856  43.343   8.480
    5AU       S 2117  28.342  41.698   6.912
    5AU     LIG 2118  28.508  42.115   6.835
    5AU     LIG 2119  28.459  42.589   6.785
    5AU     LIG 2120  28.627  43.021   6.629
    5AU     LIG 2121  28.905  43.422   6.701
    5AU    AUSL 2122  28.522  41.206   7.644
    5AU    AUSL 2123  28.525  40.922   8.009
    5AU     AUL 2124  28.615  41.248   8.061
    5AU       S 2125  28.894  41.122   8.397
    5AU     LIG 2126  29.148  41.173   8.763
    5AU     LIG 2127  29.402  41.311   9.106
    5AU     LIG 2128  29.601  41.692   9.231
    5AU     LIG 2129  29.723  42.132   9.294
    5AU       S 2130  28.601  41.551   7.724
    5AU     LIG 2131  28.654  41.993   7.862
    5AU     LIG 2132  28.598  42.348   8.166
    5AU     LIG 2133  28.581  42.796   8.335
    5AU     LIG 2134  28.817  43.224   8.363
    5AU    AUSL 2135  28.231  39.754   7.941
    5AU    AUSL 2136  28.645  39.759   7.784
    5AU     AUL 2137  28.456  39.630   8.166
    5AU       S 2138  28.213  39.282   7.982
    5AU     LIG 2139  28.369  39.118   8.321
    5AU     LIG 2140  28.311  38.691   8.427
    5AU     LIG 2141  28.293  38.241   8.504
    5AU     LIG 2142  28.528  37.882   8.715
    5AU       S 2143  28.802  39.560   7.842
    5AU     LIG 2144  28.813  39.131   8.079
    5AU     LIG 2145  29.030  38.803   8.367
    5AU     LIG 2146  29.395  38.521   8.503
    5AU     LIG 2147  29.691  38.482   8.852
    5AU    AUSL 2148  27.917  39.594   7.662
    5AU    AUSL 2149  28.013  39.915   8.258
    5AU     AUL 2150  27.893  39.627   8.021
    5AU       S 2151  28.037  39.212   7.839
    5AU     LIG 2152  27.900  38.929   8.180
    5AU     LIG 2153  27.862  38.460   8.232
    5AU     LIG 2154  27.588  38.071   8.120
    5AU     LIG 2155  27.229  37.759   8.037
    5AU       S 2156  27.825  39.793   8.458
    5AU     LIG 2157  27.668  39.319   8.550
    5AU     LIG 2158  27.214  39.167   8.661
    5AU     LIG 2159  26.867  38.877   8.842
    5AU     LIG 2160  26.679  38.655   9.235
    5AU    AUSL 2161  28.350  39.521   7.603
    5AU    AUSL 2162  28.114  39.762   7.321
    5AU     AUL 2163  28.007  39.413   7.419
    5AU       S 2164  28.369  39.324   7.158
    5AU     LIG 2165  28.002  39.024   7.113
    5AU     LIG 2166  27.933  38.589   6.965
    5AU     LIG 2167  27.839  38.154   6.779
    5AU     LIG 2168  27.584  37.730   6.792
    5AU       S 2169  28.371  39.306   7.741
    5AU     LIG 2170  28.456  38.844   7.855
    5AU     LIG 2171  28.557  38.417   8.063
    5AU     LIG 2172  28.604  37.952   8.212
    5AU     LIG 2173  28.636  37.456   8.254
    5AU    AUSL 2174  28.261  41.211   6.896
    5AU    AUSL 2175  28.797  41.132   7.276
    5AU     AUL 2176  28.611  41.330   6.983
    5AU       S 2177  28.235  41.452   6.703
    5AU     LIG 2178  28.299  41.834   6.442
    5AU     LIG 2179  28.171  42.290   6.473
    5AU     LIG 2180  28.239  42.745   6.340
    5AU     LIG 2181  28.464  42.986   5.983
    5AU       S 2182  29.053  41.278   7.127
    5AU     LIG 2183  29.463  41.353   6.810
    5AU     LIG 2184  29.687  41.642   6.466
    5AU     LIG 2185  29.933  42.059   6.305
    5AU     LIG 2186  30.069  42.536   6.197
    5AU    AUSL 2187  28.079  41.148   7.304
    5AU    AUSL 2188  28.034  40.870   6.950
    5AU     AUL 2189  27.944  41.304   7.056
    5AU       S 2190  28.133  41.693   6.954
    5AU     LIG 2191  28.030  42.169   6.998
    5AU     LIG 2192  27.894  42.578   6.807
    5AU     LIG 2193  27.844  43.056   6.711
    5AU     LIG 2194  27.857  43.549   6.685
    5AU       S 2195  27.850  41.101   6.651
    5AU     LIG 2196  27.827  41.465   6.385
    5AU     LIG 2197  27.610  41.586   5.987
    5AU     LIG 2198  27.315  41.862   5.737
    5AU     LIG 2199  27.123  41.995   5.323
    5AU    AUSL 2200  28.299  39.728   6.928
    5AU    AUSL 2201  27.705  39.753   7.242
    5AU     AUL 2202  27.964  39.598   6.987
    5AU       S 2203  27.506  39.706   7.017
    5AU     LIG 2204  27.218  39.405   6.834
    5AU     LIG 2205  26.982  39.013   6.687
    5AU     LIG 2206  26.778  38.629   6.495
    5AU     LIG 2207  26.810  38.369   6.122
    5AU       S 2208  28.366  39.331   6.946
    5AU     LIG 2209  28.370  38.892   6.793
    5AU     LIG 2210  28.309  38.449   6.642
    5AU     LIG 2211  28.132  38.161   6.316
    5AU     LIG 2212  28.128  38.057   5.842
    5AU    AUSL 2213  28.541  39.745   7.308
    5AU    AUSL 2214  28.541  40.067   6.962
    5AU     AUL 2215  28.638  39.705   6.928
    5AU       S 2216  28.599  39.367   7.242
    5AU     LIG 2217  28.488  38.875   7.307
    5AU     LIG 2218  28.651  38.520   7.040
    5AU     LIG 2219  28.704  38.126   6.764
    5AU     LIG 2220  28.665  37.640   6.711
    5AU       S 2221  28.863  39.904   6.590
    5AU     LIG 2222  28.779  39.437   6.526
    5AU     LIG 2223  28.994  39.104   6.264
    5AU     LIG 2224  29.276  38.806   6.011
    5AU     LIG 2225  29.603  38.850   5.687
    6AU     AUC 2226  18.210  23.368   7.507
    6AU     AUC 2227  18.482  23.382   7.326
    6AU     AUC 2228  18.472  23.355   7.678
    6AU     AUC 2229  17.925  23.361   7.339
    6AU     AUC 2230  17.945  23.401   7.688
    6AU     AUC 2231  18.048  23.649   7.504
    6AU     AUC 2232  18.408  23.645   7.496
    6AU     AUC 2233  18.023  23.096   7.515
    6AU     AUC 2234  18.375  23.076   7.502
    6AU     AUC 2235  18.212  23.190   7.783
    6AU     AUC 2236  18.218  23.544   7.782
    6AU     AUC 2237  18.200  23.202   7.231
    6AU     AUC 2238  18.221  23.523   7.228
    6AU     AUC 2239  18.788  23.387   7.152
    6AU     AUC 2240  18.810  23.342   7.515
    6AU     AUC 2241  18.760  23.322   7.874
    6AU     AUC 2242  17.624  23.345   7.171
    6AU     AUC 2243  17.606  23.395   7.533
    6AU     AUC 2244  17.655  23.433   7.870
    6AU     AUC 2245  17.887  23.955   7.483
    6AU     AUC 2246  18.245  23.966   7.476
    6AU     AUC 2247  18.623  23.912   7.487
    6AU     AUC 2248  17.830  22.819   7.524
    6AU     AUC 2249  18.184  22.766   7.495
    6AU     AUC 2250  18.547  22.778   7.483
    6AU     AUC 2251  18.193  23.013   8.068
    6AU     AUC 2252  18.222  23.387   8.116
    6AU     AUC 2253  18.240  23.720   8.066
    6AU     AUC 2254  18.226  23.025   6.952
    6AU     AUC 2255  18.207  23.359   6.895
    6AU     AUC 2256  18.192  23.693   6.927
    6AU     AUC 2257  18.473  23.153   8.010
    6AU     AUC 2258  18.526  23.507   8.008
    6AU     AUC 2259  18.531  23.236   6.993
    6AU     AUC 2260  18.515  23.554   7.023
    6AU     AUC 2261  17.908  23.240   8.016
    6AU     AUC 2262  17.933  23.614   7.985
    6AU     AUC 2263  17.903  23.168   7.049
    6AU     AUC 2264  17.884  23.494   7.001
    6AU     AUC 2265  18.743  23.661   7.327
    6AU     AUC 2266  18.715  23.640   7.683
    6AU     AUC 2267  17.730  23.661   7.316
    6AU     AUC 2268  17.748  23.716   7.675
    6AU     AUC 2269  18.682  23.071   7.326
    6AU     AUC 2270  18.656  23.020   7.686
    6AU     AUC 2271  17.692  23.059   7.373
    6AU     AUC 2272  17.740  23.112   7.725
    6AU     AUC 2273  18.078  23.905   7.774
    6AU     AUC 2274  18.428  23.832   7.771
    6AU     AUC 2275  18.018  22.893   7.808
    6AU     AUC 2276  18.342  22.841   7.780
    6AU     AUC 2277  18.034  23.809   7.195
    6AU     AUC 2278  18.404  23.854   7.200
    6AU     AUC 2279  18.016  22.889   7.216
    6AU     AUC 2280  18.409  22.914   7.205
    6AU    AUSL 2281  18.732  23.217   8.267
    6AU    AUSL 2282  18.484  22.840   8.173
    6AU     AUL 2283  18.671  22.838   8.550
    6AU       S 2284  18.825  22.643   8.176
    6AU     LIG 2285  18.698  22.313   8.488
    6AU     LIG 2286  18.950  22.009   8.717
    6AU     LIG 2287  19.204  21.817   9.049
    6AU     LIG 2288  19.434  21.510   9.307
    6AU       S 2289  18.914  23.137   8.311
    6AU     LIG 2290  18.997  23.145   8.781
    6AU     LIG 2291  19.181  23.010   9.201
    6AU     LIG 2292  19.456  22.890   9.562
    6AU     LIG 2293  19.797  22.903   9.872
    6AU    AUSL 2294  18.314  23.173   8.396
    6AU    AUSL 2295  18.066  23.558   8.407
    6AU     AUL 2296  18.270  23.501   8.745
    6AU       S 2297  18.326  23.115   8.519
    6AU     LIG 2298  18.396  23.049   8.940
    6AU     LIG 2299  18.689  22.864   9.245
    6AU     LIG 2300  18.965  22.716   9.610
    6AU     LIG 2301  19.283  22.591   9.955
    6AU       S 2302  17.865  23.320   8.628
    6AU     LIG 2303  17.926  23.343   9.093
    6AU     LIG 2304  17.663  23.322   9.475
    6AU     LIG 2305  17.429  23.364   9.878
    6AU     LIG 2306  17.420  23.639  10.271
    6AU    AUSL 2307  18.479  23.577   8.345
    6AU    AUSL 2308  18.859  23.599   8.111
    6AU     AUL 2309  18.747  23.507   8.523
    6AU       S 2310  18.372  23.911   8.492
    6AU     LIG 2311  18.611  23.857   8.872
    6AU     LIG 2312  18.764  23.978   9.307
    6AU     LIG 2313  18.702  24.029   9.788
    6AU     LIG 2314  18.717  24.083  10.264
    6AU       S 2315  18.935  23.856   8.287
    6AU     LIG 2316  19.321  23.736   8.417
    6AU     LIG 2317  19.618  23.956   8.734
    6AU     LIG 2318  19.862  24.241   9.038
    6AU     LIG 2319  20.061  24.587   9.291
    6AU    AUSL 2320  18.727  23.531   6.736
    6AU    AUSL 2321  18.503  23.838   6.960
    6AU     AUL 2322  18.538  23.928   6.598
    6AU       S 2323  18.710  23.572   6.354
    6AU     LIG 2324  19.103  23.455   6.154
    6AU     LIG 2325  19.299  23.150   5.861
    6AU     LIG 2326  19.377  23.016   5.417
    6AU     LIG 2327  19.513  23.076   4.968
    6AU       S 2328  18.935  24.068   6.808
    6AU     LIG 2329  19.086  24.269   6.431
    6AU     LIG 2330  19.297  24.411   6.040
    6AU     LIG 2331  19.477  24.626   5.676
    6AU     LIG 2332  19.668  24.993   5.475
    6AU    AUSL 2333  18.513  23.179   6.610
    6AU    AUSL 2334  18.863  23.159   6.920
    6AU     AUL 2335  18.952  23.299   6.644
    6AU       S 2336  19.003  22.838   6.670
    6AU     LIG 2337  19.165  22.549   6.323
    6AU     LIG 2338  19.438  22.160   6.241
    6AU     LIG 2339  19.722  21.845   6.019
    6AU     LIG 2340  20.054  21.825   5.666
    6AU       S 2341  18.642  23.305   6.291
    6AU     LIG 2342  18.870  22.976   6.098
    6AU     LIG 2343  18.972  22.785   5.665
    6AU     LIG 2344  19.013  22.735   5.183
    6AU     LIG 2345  19.069  22.662   4.712
    6AU    AUSL 2346  18.304  23.550   6.701
    6AU    AUSL 2347  18.099  23.150   6.735
    6AU     AUL 2348  18.227  23.189   6.445
    6AU       S 2349  17.784  23.176   6.308
    6AU     LIG 2350  17.896  22.943   5.968
    6AU     LIG 2351  17.669  22.830   5.583
    6AU     LIG 2352  17.462  22.875   5.160
    6AU     LIG 2353  17.251  22.708   4.768
    6AU       S 2354  18.419  23.584   6.303
    6AU     LIG 2355  18.640  23.518   5.850
    6AU     LIG 2356  18.915  23.287   5.542
    6AU     LIG 2357  19.034  23.247   5.087
    6AU     LIG 2358  18.963  23.362   4.632
    6AU    AUSL 2359  17.668  23.507   8.239
    6AU    AUSL 2360  17.989  23.849   8.113
    6AU     AUL 2361  17.836  23.801   8.456
    6AU       S 2362  17.654  23.411   8.665
    6AU     LIG 2363  17.459  23.144   8.971
    6AU     LIG 2364  17.219  23.073   9.383
    6AU     LIG 2365  16.903  23.116   9.740
    6AU     LIG 2366  16.621  23.343  10.053
    6AU       S 2367  17.571  24.116   8.186
    6AU     LIG 2368  17.704  24.349   8.547
    6AU     LIG 2369  17.651  24.651   8.869
    6AU     LIG 2370  17.289  24.780   9.110
    6AU     LIG 2371  16.992  25.035   9.332
    6AU    AUSL 2372  17.969  23.219   8.158
    6AU    AUSL 2373  17.560  23.084   8.142
    6AU     AUL 2374  17.452  23.313   8.262
    6AU       S 2375  17.485  22.863   8.406
    6AU     LIG 2376  17.050  22.833   8.249
    6AU     LIG 2377  16.757  22.486   8.318
    6AU     LIG 2378  16.594  22.150   8.600
    6AU     LIG 2379  16.298  21.840   8.788
    6AU       S 2380  17.836  23.171   8.550
    6AU     LIG 2381  17.903  22.882   8.896
    6AU     LIG 2382  17.707  22.838   9.314
    6AU     LIG 2383  17.517  22.860   9.747
    6AU     LIG 2384  17.472  22.617  10.152
    6AU    AUSL 2385  17.675  23.211   6.784
    6AU    AUSL 2386  17.882  22.865   6.959
    6AU     AUL 2387  17.924  22.859   6.624
    6AU       S 2388  17.597  23.083   6.384
    6AU     LIG 2389  17.371  22.953   6.012
    6AU     LIG 2390  17.198  23.059   5.577
    6AU     LIG 2391  16.949  22.985   5.161
    6AU     LIG 2392  16.618  23.052   4.812
    6AU       S 2393  17.513  22.748   6.802
    6AU     LIG 2394  17.586  22.396   6.581
    6AU     LIG 2395  17.283  22.101   6.401
    6AU     LIG 2396  16.975  21.901   6.125
    6AU     LIG 2397  16.906  21.779   5.673
    6AU    AUSL 2398  17.897  23.531   6.606
    6AU    AUSL 2399  17.556  23.609   6.910
    6AU     AUL 2400  17.465  23.438   6.637
    6AU       S 2401  17.562  23.881   6.641
    6AU     LIG 2402  17.213  24.077   6.460
    6AU     LIG 2403  17.014  24.400   6.196
    6AU     LIG 2404  16.710  24.434   5.823
    6AU     LIG 2405  16.340  24.432   5.504
    6AU       S 2406  17.833  23.448   6.335
    6AU     LIG 2407  17.631  23.388   5.884
    6AU     LIG 2408  17.626  23.315   5.410
    6AU     LIG 2409  17.622  23.330   4.928
    6AU     LIG 2410  17.591  23.522   4.483
    6AU    AUSL 2411  19.042  23.840   7.478
    6AU    AUSL 2412  18.888  23.637   7.108
    6AU     AUL 2413  19.259  23.804   7.103
    6AU       S 2414  18.952  23.929   6.810
    6AU     LIG 2415  19.273  23.792   6.543
    6AU     LIG 2416  19.561  24.005   6.239
    6AU     LIG 2417  19.799  24.295   5.944
    6AU     LIG 2418  20.000  24.632   5.679
    6AU       S 2419  19.351  23.945   7.536
    6AU     LIG 2420  19.772  23.967   7.281
    6AU     LIG 2421  20.221  24.085   7.417
    6AU     LIG 2422  20.644  24.292   7.378
    6AU     LIG 2423  20.876  24.603   7.097
    6AU    AUSL 2424  19.178  23.442   7.371
    6AU    AUSL 2425  19.104  23.139   7.710
    6AU     AUL 2426  19.354  23.314   7.795
    6AU       S 2427  19.461  23.550   7.420
    6AU     LIG 2428  19.808  23.407   7.240
    6AU     LIG 2429  20.206  23.620   7.220
    6AU     LIG 2430  20.640  23.794   7.194
    6AU     LIG 2431  21.066  23.540   7.226
    6AU       S 2432  19.394  22.894   7.548
    6AU     LIG 2433  19.865  22.758   7.630
    6AU     LIG 2434  20.253  22.475   7.678
    6AU     LIG 2435  20.708  22.327   7.667
    6AU     LIG 2436  21.038  22.454   7.999
    6AU    AUSL 2437  18.900  23.504   7.706
    6AU    AUSL 2438  18.845  23.956   7.831
    6AU     AUL 2439  19.121  23.715   7.878
    6AU       S 2440  19.048  24.099   8.141
    6AU     LIG 2441  19.354  24.270   8.423
    6AU     LIG 2442  19.625  24.542   8.697
    6AU     LIG 2443  19.847  24.917   8.895
    6AU     LIG 2444  19.933  25.404   8.897
    6AU       S 2445  19.487  23.724   7.604
    6AU     LIG 2446  19.919  23.665   7.676
    6AU     LIG 2447  20.370  23.685   7.706
    6AU     LIG 2448  20.820  23.765   7.679
    6AU     LIG 2449  21.148  24.050   7.852
    6AU    AUSL 2450  17.553  23.937   7.510
    6AU    AUSL 2451  17.632  23.744   7.898
    6AU     AUL 2452  17.328  24.049   7.742
    6AU       S 2453  17.480  23.918   8.156
    6AU     LIG 2454  17.369  23.950   8.609
    6AU     LIG 2455  17.224  24.336   8.839
    6AU     LIG 2456  16.861  24.463   9.125
    6AU     LIG 2457  16.441  24.286   9.294
    6AU       S 2458  17.575  24.328   7.423
    6AU     LIG 2459  17.120  24.256   7.329
    6AU     LIG 2460  16.652  24.291   7.389
    6AU     LIG 2461  16.292  24.584   7.500
    6AU     LIG 2462  15.892  24.812   7.598
    6AU    AUSL 2463  17.499  23.550   7.318
    6AU    AUSL 2464  17.633  23.989   7.104
    6AU     AUL 2465  17.336  23.842   7.153
    6AU       S 2466  17.147  23.386   6.996
    6AU     LIG 2467  16.765  23.686   7.071
    6AU     LIG 2468  16.352  23.859   6.853
    6AU     LIG 2469  15.909  24.035   6.740
    6AU     LIG 2470  15.526  24.081   7.030
    6AU       S 2471  17.419  24.247   6.899
    6AU     LIG 2472  17.456  24.539   6.558
    6AU     LIG 2473  17.254  24.892   6.349
    6AU     LIG 2474  16.985  25.243   6.200
    6AU     LIG 2475  16.668  25.544   6.022
    6AU    AUSL 2476  17.299  23.591   7.705
    6AU    AUSL 2477  17.259  23.222   7.417
    6AU     AUL 2478  17.106  23.557   7.436
    6AU       S 2479  17.056  23.151   7.692
    6AU     LIG 2480  16.708  23.232   7.420
    6AU     LIG 2481  16.333  22.989   7.244
    6AU     LIG 2482  15.872  22.902   7.247
    6AU     LIG 2483  15.422  22.743   7.305
    6AU       S 2484  17.167  23.619   7.935
    6AU     LIG 2485  16.766  23.659   7.811
    6AU     LIG 2486  16.391  23.865   8.035
    6AU     LIG 2487  16.076  24.211   8.016
    6AU     LIG 2488  15.604  24.168   7.996
    6AU    AUSL 2489  18.905  22.793   7.531
    6AU    AUSL 2490  18.733  23.049   7.883
    6AU     AUL 2491  19.080  22.918   7.900
    6AU       S 2492  19.173  22.682   7.498
    6AU     LIG 2493  19.493  22.391   7.596
    6AU     LIG 2494  19.891  22.271   7.384
    6AU     LIG 2495  20.344  22.110   7.327
    6AU     LIG 2496  20.603  21.724   7.419
    6AU       S 2497  18.901  22.557   8.107
    6AU     LIG 2498  19.205  22.383   8.404
    6AU     LIG 2499  19.455  22.133   8.703
    6AU     LIG 2500  19.716  21.891   9.003
    6AU     LIG 2501  20.077  21.925   9.295
    6AU    AUSL 2502  18.869  23.172   7.336
    6AU    AUSL 2503  18.821  22.765   7.116
    6AU     AUL 2504  19.084  22.973   7.141
    6AU       S 2505  19.443  23.026   7.402
    6AU     LIG 2506  19.803  22.880   7.147
    6AU     LIG 2507  20.201  22.627   7.182
    6AU     LIG 2508  20.650  22.519   7.180
    6AU     LIG 2509  20.865  22.124   7.191
    6AU       S 2510  19.026  22.627   6.822
    6AU     LIG 2511  19.161  22.193   6.708
    6AU     LIG 2512  19.315  21.764   6.554
    6AU     LIG 2513  19.571  21.406   6.360
    6AU     LIG 2514  19.853  21.008   6.313
    6AU    AUSL 2515  17.455  22.858   7.573
    6AU    AUSL 2516  17.566  23.082   7.167
    6AU     AUL 2517  17.212  22.926   7.291
    6AU       S 2518  17.369  22.871   6.860
    6AU     LIG 2519  17.150  22.663   6.473
    6AU     LIG 2520  16.814  22.332   6.387
    6AU     LIG 2521  16.495  21.973   6.307
    6AU     LIG 2522  16.114  21.732   6.146
    6AU       S 2523  17.032  22.914   7.731
    6AU     LIG 2524  16.629  22.745   7.592
    6AU     LIG 2525  16.199  22.544   7.488
    6AU     LIG 2526  15.844  22.226   7.523
    6AU     LIG 2527  15.606  21.857   7.331
    6AU    AUSL 2528  17.527  23.243   7.758
    6AU    AUSL 2529  17.778  22.861   7.851
    6AU     AUL 2530  17.447  22.823   7.913
    6AU       S 2531  17.506  22.654   8.343
    6AU     LIG 2532  17.232  22.336   8.156
    6AU     LIG 2533  16.877  21.984   8.199
    6AU     LIG 2534  16.553  21.658   8.379
    6AU     LIG 2535  16.441  21.334   8.726
    6AU       S 2536  17.124  23.154   7.873
    6AU     LIG 2537  16.621  23.137   7.937
    6AU     LIG 2538  16.187  22.991   7.742
    6AU     LIG 2539  15.770  22.748   7.722
    6AU     LIG 2540  15.307  22.754   7.798
    6AU    AUSL 2541  18.248  24.163   7.991
    6AU    AUSL 2542  17.837  24.102   7.793
    6AU     AUL 2543  18.026  24.172   8.209
    6AU       S 2544  17.699  24.307   7.903
    6AU     LIG 2545  17.398  24.571   8.204
    6AU     LIG 2546  17.269  24.821   8.577
    6AU     LIG 2547  17.007  25.129   8.822
    6AU     LIG 2548  16.835  25.564   8.956
    6AU       S 2549  18.265  24.523   8.008
    6AU     LIG 2550  18.070  24.674   8.335
    6AU     LIG 2551  18.127  25.101   8.489
    6AU     LIG 2552  18.027  25.534   8.587
    6AU     LIG 2553  18.147  25.963   8.694
    6AU    AUSL 2554  18.133  24.324   7.594
    6AU    AUSL 2555  18.382  24.216   7.248
    6AU     AUL 2556  18.495  24.499   7.406
    6AU       S 2557  18.120  24.565   7.732
    6AU     LIG 2558  18.104  25.020   7.946
    6AU     LIG 2559  17.996  25.475   8.069
    6AU     LIG 2560  17.887  25.915   8.248
    6AU     LIG 2561  17.820  26.324   8.457
    6AU       S 2562  18.166  24.535   7.087
    6AU     LIG 2563  18.538  24.788   6.981
    6AU     LIG 2564  18.584  25.260   6.915
    6AU     LIG 2565  18.567  25.715   6.757
    6AU     LIG 2566  18.752  26.169   6.792
    6AU    AUSL 2567  18.497  24.094   7.641
    6AU    AUSL 2568  18.486  23.824   8.019
    6AU     AUL 2569  18.608  24.181   8.000
    6AU       S 2570  18.817  23.999   8.373
    6AU     LIG 2571  19.077  24.018   8.769
    6AU     LIG 2572  19.338  24.276   9.039
    6AU     LIG 2573  19.554  24.636   9.230
    6AU     LIG 2574  19.622  24.926   9.595
    6AU       S 2575  18.452  24.587   7.851
    6AU     LIG 2576  18.611  24.959   7.983
    6AU     LIG 2577  18.475  25.336   8.192
    6AU     LIG 2578  18.394  25.782   8.267
    6AU     LIG 2579  18.601  26.204   8.309
    6AU    AUSL 2580  18.167  22.667   7.937
    6AU    AUSL 2581  18.583  22.660   7.778
    6AU     AUL 2582  18.378  22.521   8.154
    6AU       S 2583  18.127  22.177   7.979
    6AU     LIG 2584  18.128  22.007   8.357
    6AU     LIG 2585  18.037  21.562   8.456
    6AU     LIG 2586  18.058  21.090   8.482
    6AU     LIG 2587  18.224  20.654   8.591
    6AU       S 2588  18.759  22.488   7.867
    6AU     LIG 2589  19.075  22.135   7.939
    6AU     LIG 2590  19.230  21.874   8.298
    6AU     LIG 2591  19.439  21.621   8.633
    6AU     LIG 2592  19.731  21.374   8.904
    6AU    AUSL 2593  17.852  22.497   7.666
    6AU    AUSL 2594  17.953  22.820   8.261
    6AU     AUL 2595  17.827  22.536   8.027
    6AU       S 2596  17.950  22.122   7.843
    6AU     LIG 2597  17.769  21.783   8.061
    6AU     LIG 2598  17.743  21.319   8.094
    6AU     LIG 2599  17.778  20.855   8.119
    6AU     LIG 2600  17.654  20.537   8.429
    6AU       S 2601  17.768  22.700   8.462
    6AU     LIG 2602  17.639  22.206   8.468
    6AU     LIG 2603  17.188  22.044   8.603
    6AU     LIG 2604  16.846  21.749   8.797
    6AU     LIG 2605  16.571  21.588   9.153
    6AU    AUSL 2606  18.284  22.420   7.607
    6AU    AUSL 2607  18.049  22.657   7.322
    6AU     AUL 2608  17.937  22.312   7.421
    6AU       S 2609  18.293  22.218   7.159
    6AU     LIG 2610  17.906  21.933   7.097
    6AU     LIG 2611  17.822  21.471   7.074
    6AU     LIG 2612  17.853  20.992   6.966
    6AU     LIG 2613  17.628  20.532   6.991
    6AU       S 2614  18.296  22.209   7.745
    6AU     LIG 2615  18.260  21.721   7.815
    6AU     LIG 2616  18.254  21.298   8.040
    6AU     LIG 2617  18.315  20.823   8.105
    6AU     LIG 2618  18.242  20.356   8.160
    6AU    AUSL 2619  18.180  24.102   6.882
    6AU    AUSL 2620  18.756  24.038   7.247
    6AU     AUL 2621  18.529  24.236   6.956
    6AU       S 2622  18.141  24.484   6.821
    6AU     LIG 2623  18.344  24.677   6.523
    6AU     LIG 2624  18.313  25.116   6.508
    6AU     LIG 2625  18.358  25.519   6.305
    6AU     LIG 2626  18.450  25.646   5.851
    6AU       S 2627  18.964  24.172   7.114
    6AU     LIG 2628  19.390  24.247   6.868
    6AU     LIG 2629  19.576  24.464   6.478
    6AU     LIG 2630  19.709  24.766   6.127
    6AU     LIG 2631  20.002  25.091   5.930
    6AU    AUSL 2632  17.993  24.055   7.307
    6AU    AUSL 2633  17.963  23.757   6.954
    6AU     AUL 2634  17.861  24.167   6.998
    6AU       S 2635  17.991  24.557   7.206
    6AU     LIG 2636  18.086  25.021   6.998
    6AU     LIG 2637  18.099  25.468   6.819
    6AU     LIG 2638  18.027  25.921   6.769
    6AU     LIG 2639  17.955  26.378   6.675
    6AU       S 2640  17.739  23.979   6.608
    6AU     LIG 2641  17.660  24.206   6.222
    6AU     LIG 2642  17.457  24.567   5.996
    6AU     LIG 2643  17.070  24.818   5.872
    6AU     LIG 2644  16.872  25.201   5.677
    6AU    AUSL 2645  18.228  22.621   6.927
    6AU    AUSL 2646  17.637  22.654   7.250
    6AU     AUL 2647  17.892  22.496   6.991
    6AU       S 2648  17.432  22.600   7.032
    6AU     LIG 2649  17.123  22.304   6.846
    6AU     LIG 2650  16.864  21.913   6.687
    6AU     LIG 2651  16.528  21.556   6.619
    6AU     LIG 2652  16.403  21.316   6.242
    6AU       S 2653  18.288  22.227   6.948
    6AU     LIG 2654  18.275  21.799   6.772
    6AU     LIG 2655  18.045  21.421   6.615
    6AU     LIG 2656  18.060  20.984   6.477
    6AU     LIG 2657  18.287  20.677   6.205
    6AU    AUSL 2658  18.476  22.636   7.305
    6AU    AUSL 2659  18.470  22.959   6.959
    6AU     AUL 2660  18.572  22.592   6.931
    6AU       S 2661  18.528  22.247   7.245
    6AU     LIG 2662  18.366  21.754   7.285
    6AU     LIG 2663  18.316  21.330   7.046
    6AU     LIG 2664  18.396  20.890   6.859
    6AU     LIG 2665  18.560  20.513   6.611
    6AU       S 2666  18.785  22.805   6.589
    6AU     LIG 2667  18.713  22.364   6.498
    6AU     LIG 2668  18.942  22.022   6.266
    6AU     LIG 2669  19.225  21.696   6.051
    6AU     LIG 2670  19.423  21.293   5.877
    7AU     AUC 2671  17.376   8.261   7.502
    7AU     AUC 2672  17.649   8.282   7.323
    7AU     AUC 2673  17.652   8.256   7.672
    7AU     AUC 2674  17.092   8.251   7.334
    7AU     AUC 2675  17.105   8.282   7.690
    7AU     AUC 2676  17.195   8.532   7.505
    7AU     AUC 2677  17.564   8.543   7.496
    7AU     AUC 2678  17.196   7.989   7.504
    7AU     AUC 2679  17.544   7.973   7.495
    7AU     AUC 2680  17.383   8.085   7.778
    7AU     AUC 2681  17.371   8.433   7.774
    7AU     AUC 2682  17.374   8.099   7.220
    7AU     AUC 2683  17.388   8.420   7.224
    7AU     AUC 2684  17.960   8.291   7.149
    7AU     AUC 2685  17.984   8.234   7.508
    7AU     AUC 2686  17.934   8.231   7.842
    7AU     AUC 2687  16.794   8.237   7.162
    7AU     AUC 2688  16.767   8.271   7.528
    7AU     AUC 2689  16.812   8.297   7.882
    7AU     AUC 2690  17.019   8.838   7.490
    7AU     AUC 2691  17.376   8.866   7.469
    7AU     AUC 2692  17.749   8.827   7.490
    7AU     AUC 2693  17.004   7.706   7.504
    7AU     AUC 2694  17.357   7.660   7.484
    7AU     AUC 2695  17.712   7.670   7.475
    7AU     AUC 2696  17.372   7.907   8.068
    7AU     AUC 2697  17.404   8.285   8.113
    7AU     AUC 2698  17.388   8.620   8.058
    7AU     AUC 2699  17.403   7.931   6.939
    7AU     AUC 2700  17.383   8.268   6.886
    7AU     AUC 2701  17.366   8.592   6.925
    7AU     AUC 2702  17.658   8.066   7.990
    7AU     AUC 2703  17.692   8.436   7.981
    7AU     AUC 2704  17.705   8.138   6.985
    7AU     AUC 2705  17.692   8.457   7.028
    7AU     AUC 2706  17.081   8.113   8.019
    7AU     AUC 2707  17.088   8.478   7.991
    7AU     AUC 2708  17.077   8.069   7.038
    7AU     AUC 2709  17.052   8.396   6.995
    7AU     AUC 2710  17.908   8.549   7.350
    7AU     AUC 2711  17.877   8.551   7.682
    7AU     AUC 2712  16.889   8.550   7.317
    7AU     AUC 2713  16.885   8.587   7.686
    7AU     AUC 2714  17.848   7.966   7.315
    7AU     AUC 2715  17.821   7.906   7.679
    7AU     AUC 2716  16.863   7.945   7.358
    7AU     AUC 2717  16.915   7.994   7.715
    7AU     AUC 2718  17.189   8.787   7.776
    7AU     AUC 2719  17.556   8.743   7.755
    7AU     AUC 2720  17.192   7.778   7.800
    7AU     AUC 2721  17.516   7.737   7.772
    7AU     AUC 2722  17.197   8.695   7.191
    7AU     AUC 2723  17.580   8.746   7.202
    7AU     AUC 2724  17.190   7.786   7.199
    7AU     AUC 2725  17.582   7.814   7.190
    7AU    AUSL 2726  17.934   8.198   8.186
    7AU    AUSL 2727  17.645   7.761   8.153
    7AU     AUL 2728  17.975   7.790   8.321
    7AU       S 2729  17.999   7.369   8.147
    7AU     LIG 2730  17.882   7.235   8.512
    7AU     LIG 2731  18.107   6.922   8.738
    7AU     LIG 2732  18.376   6.604   8.944
    7AU     LIG 2733  18.640   6.451   9.303
    7AU       S 2734  18.205   8.178   8.252
    7AU     LIG 2735  18.175   8.087   8.712
    7AU     LIG 2736  18.308   7.961   9.159
    7AU     LIG 2737  18.612   7.866   9.530
    7AU     LIG 2738  18.877   7.838   9.931
    7AU    AUSL 2739  17.548   8.102   8.388
    7AU    AUSL 2740  17.254   8.445   8.408
    7AU     AUL 2741  17.463   8.403   8.731
    7AU       S 2742  17.694   8.053   8.553
    7AU     LIG 2743  17.502   7.900   8.889
    7AU     LIG 2744  17.787   7.804   9.245
    7AU     LIG 2745  18.114   7.700   9.571
    7AU     LIG 2746  18.365   7.707   9.969
    7AU       S 2747  17.076   8.175   8.645
    7AU     LIG 2748  17.128   8.180   9.131
    7AU     LIG 2749  16.824   8.244   9.488
    7AU     LIG 2750  16.606   8.330   9.896
    7AU     LIG 2751  16.480   8.553  10.299
    7AU    AUSL 2752  17.658   8.523   8.328
    7AU    AUSL 2753  18.015   8.602   8.064
    7AU     AUL 2754  17.941   8.476   8.470
    7AU       S 2755  17.530   8.826   8.472
    7AU     LIG 2756  17.792   8.789   8.837
    7AU     LIG 2757  18.030   8.892   9.235
    7AU     LIG 2758  17.979   8.934   9.719
    7AU     LIG 2759  17.839   8.964  10.186
    7AU       S 2760  18.065   8.861   8.248
    7AU     LIG 2761  18.433   8.630   8.361
    7AU     LIG 2762  18.756   8.802   8.675
    7AU     LIG 2763  19.034   9.070   8.975
    7AU     LIG 2764  19.253   9.394   9.258
    7AU    AUSL 2765  17.906   8.424   6.758
    7AU    AUSL 2766  17.685   8.734   6.976
    7AU     AUL 2767  17.816   8.805   6.634
    7AU       S 2768  17.864   8.478   6.319
    7AU     LIG 2769  18.256   8.356   6.124
    7AU     LIG 2770  18.355   8.098   5.769
    7AU     LIG 2771  18.381   8.013   5.315
    7AU     LIG 2772  18.703   8.059   4.979
    7AU       S 2773  18.152   8.994   6.900
    7AU     LIG 2774  18.198   9.171   6.510
    7AU     LIG 2775  18.373   9.303   6.103
    7AU     LIG 2776  18.586   9.550   5.772
    7AU     LIG 2777  18.798   9.765   5.410
    7AU    AUSL 2778  17.683   8.095   6.595
    7AU    AUSL 2779  18.057   8.054   6.914
    7AU     AUL 2780  18.105   8.195   6.613
    7AU       S 2781  18.225   7.751   6.683
    7AU     LIG 2782  18.328   7.440   6.336
    7AU     LIG 2783  18.556   7.048   6.235
    7AU     LIG 2784  18.824   6.750   6.009
    7AU     LIG 2785  19.113   6.723   5.650
    7AU       S 2786  17.788   8.292   6.283
    7AU     LIG 2787  17.939   7.942   6.065
    7AU     LIG 2788  17.975   7.789   5.604
    7AU     LIG 2789  18.059   7.617   5.163
    7AU     LIG 2790  18.175   7.435   4.734
    7AU    AUSL 2791  17.484   8.474   6.691
    7AU    AUSL 2792  17.275   8.068   6.729
    7AU     AUL 2793  17.403   8.108   6.433
    7AU       S 2794  16.962   8.087   6.295
    7AU     LIG 2795  16.942   7.811   5.926
    7AU     LIG 2796  16.863   7.639   5.502
    7AU     LIG 2797  16.656   7.718   5.099
    7AU     LIG 2798  16.516   7.860   4.666
    7AU       S 2799  17.547   8.544   6.343
    7AU     LIG 2800  17.690   8.449   5.838
    7AU     LIG 2801  17.975   8.312   5.471
    7AU     LIG 2802  18.124   8.375   5.009
    7AU     LIG 2803  18.194   8.628   4.592
    7AU    AUSL 2804  16.860   8.361   8.254
    7AU    AUSL 2805  17.131   8.715   8.110
    7AU     AUL 2806  16.998   8.663   8.462
    7AU       S 2807  16.896   8.272   8.708
    7AU     LIG 2808  16.619   8.103   8.997
    7AU     LIG 2809  16.359   8.028   9.378
    7AU     LIG 2810  16.165   8.089   9.800
    7AU     LIG 2811  15.883   8.267  10.125
    7AU       S 2812  16.690   8.955   8.233
    7AU     LIG 2813  16.816   9.145   8.608
    7AU     LIG 2814  16.716   9.372   8.984
    7AU     LIG 2815  16.368   9.591   9.184
    7AU     LIG 2816  16.242   9.995   9.379
    7AU    AUSL 2817  17.177   8.087   8.178
    7AU    AUSL 2818  16.748   7.954   8.132
    7AU     AUL 2819  16.686   8.156   8.318
    7AU       S 2820  16.632   7.698   8.387
    7AU     LIG 2821  16.199   7.607   8.194
    7AU     LIG 2822  15.925   7.230   8.272
    7AU     LIG 2823  15.818   6.885   8.573
    7AU     LIG 2824  15.603   6.557   8.836
    7AU       S 2825  17.098   8.024   8.555
    7AU     LIG 2826  16.985   7.745   8.901
    7AU     LIG 2827  16.819   7.754   9.332
    7AU     LIG 2828  16.630   7.819   9.759
    7AU     LIG 2829  16.488   7.655  10.171
    7AU    AUSL 2830  16.851   8.128   6.776
    7AU    AUSL 2831  17.058   7.770   6.937
    7AU     AUL 2832  17.110   7.772   6.608
    7AU       S 2833  16.782   8.008   6.388
    7AU     LIG 2834  16.473   7.865   6.130
    7AU     LIG 2835  16.407   7.806   5.682
    7AU     LIG 2836  16.242   7.965   5.271
    7AU     LIG 2837  16.092   8.116   4.849
    7AU       S 2838  16.694   7.660   6.771
    7AU     LIG 2839  16.752   7.351   6.496
    7AU     LIG 2840  16.434   7.082   6.274
    7AU     LIG 2841  16.112   6.819   6.040
    7AU     LIG 2842  15.993   6.608   5.630
    7AU    AUSL 2843  17.075   8.445   6.595
    7AU    AUSL 2844  16.716   8.522   6.907
    7AU     AUL 2845  16.639   8.368   6.621
    7AU       S 2846  16.751   8.806   6.660
    7AU     LIG 2847  16.335   8.840   6.639
    7AU     LIG 2848  16.115   9.110   6.319
    7AU     LIG 2849  15.978   9.301   5.919
    7AU     LIG 2850  15.741   9.443   5.538
    7AU       S 2851  17.008   8.365   6.323
    7AU     LIG 2852  16.730   8.287   5.911
    7AU     LIG 2853  16.719   8.143   5.454
    7AU     LIG 2854  16.594   8.244   5.008
    7AU     LIG 2855  16.401   8.479   4.635
    7AU    AUSL 2856  18.164   8.714   7.520
    7AU    AUSL 2857  18.074   8.582   7.113
    7AU     AUL 2858  18.428   8.846   7.312
    7AU       S 2859  18.174   8.762   6.947
    7AU     LIG 2860  18.313   8.665   6.543
    7AU     LIG 2861  18.631   8.898   6.318
    7AU     LIG 2862  18.871   9.178   6.028
    7AU     LIG 2863  19.103   9.490   5.752
    7AU       S 2864  18.615   8.552   7.638
    7AU     LIG 2865  19.025   8.740   7.541
    7AU     LIG 2866  19.498   8.865   7.482
    7AU     LIG 2867  19.893   9.108   7.561
    7AU     LIG 2868  20.044   9.559   7.652
    7AU    AUSL 2869  18.330   8.333   7.342
    7AU    AUSL 2870  18.292   7.985   7.661
    7AU     AUL 2871  18.625   8.014   7.520
    7AU       S 2872  18.476   8.402   7.374
    7AU     LIG 2873  18.909   8.325   7.255
    7AU     LIG 2874  19.338   8.467   7.220
    7AU     LIG 2875  19.739   8.631   7.032
    7AU     LIG 2876  20.191   8.594   6.876
    7AU       S 2877  18.494   7.575   7.633
    7AU     LIG 2878  18.893   7.627   7.782
    7AU     LIG 2879  19.327   7.614   7.877
    7AU     LIG 2880  19.723   7.449   7.768
    7AU     LIG 2881  20.163   7.346   7.674
    7AU    AUSL 2882  18.115   8.357   7.742
    7AU    AUSL 2883  17.939   8.949   7.790
    7AU     AUL 2884  18.253   8.767   7.834
    7AU       S 2885  18.136   9.134   8.103
    7AU     LIG 2886  18.523   9.129   8.312
    7AU     LIG 2887  18.697   9.326   8.681
    7AU     LIG 2888  19.032   9.597   8.839
    7AU     LIG 2889  19.299   9.977   8.870
    7AU       S 2890  18.478   8.372   7.821
    7AU     LIG 2891  18.949   8.300   7.891
    7AU     LIG 2892  19.384   8.442   7.765
    7AU     LIG 2893  19.769   8.695   7.887
    7AU     LIG 2894  20.227   8.804   7.836
    7AU    AUSL 2895  16.687   8.800   7.525
    7AU    AUSL 2896  16.753   8.596   7.926
    7AU     AUL 2897  16.445   8.898   7.775
    7AU       S 2898  16.600   8.732   8.179
    7AU     LIG 2899  16.510   8.726   8.641
    7AU     LIG 2900  16.301   9.082   8.899
    7AU     LIG 2901  15.966   9.257   9.201
    7AU     LIG 2902  15.554   9.282   9.446
    7AU       S 2903  16.661   9.187   7.461
    7AU     LIG 2904  16.194   9.083   7.368
    7AU     LIG 2905  15.749   9.280   7.453
    7AU     LIG 2906  15.374   9.605   7.425
    7AU     LIG 2907  15.078   9.996   7.438
    7AU    AUSL 2908  16.662   8.424   7.308
    7AU    AUSL 2909  16.806   8.888   7.132
    7AU     AUL 2910  16.497   8.736   7.158
    7AU       S 2911  16.327   8.262   6.975
    7AU     LIG 2912  16.007   8.650   7.056
    7AU     LIG 2913  15.588   8.898   7.150
    7AU     LIG 2914  15.154   9.143   7.262
    7AU     LIG 2915  14.678   9.267   7.144
    7AU       S 2916  16.609   9.154   6.938
    7AU     LIG 2917  16.542   9.324   6.506
    7AU     LIG 2918  16.313   9.638   6.194
    7AU     LIG 2919  16.222  10.119   6.082
    7AU     LIG 2920  15.994  10.563   6.031
    7AU    AUSL 2921  16.446   8.448   7.691
    7AU    AUSL 2922  16.428   8.091   7.404
    7AU     AUL 2923  16.271   8.420   7.414
    7AU       S 2924  16.223   8.004   7.669
    7AU     LIG 2925  15.909   8.067   7.355
    7AU     LIG 2926  15.448   7.947   7.343
    7AU     LIG 2927  14.975   7.812   7.366
    7AU     LIG 2928  14.534   7.625   7.339
    7AU       S 2929  16.270   8.472   7.913
    7AU     LIG 2930  15.947   8.723   7.660
    7AU     LIG 2931  15.484   8.874   7.653
    7AU     LIG 2932  15.009   8.913   7.724
    7AU     LIG 2933  14.589   9.039   7.893
    7AU    AUSL 2934  18.038   7.672   7.517
    7AU    AUSL 2935  17.921   7.932   7.865
    7AU     AUL 2936  18.233   7.836   7.906
    7AU       S 2937  18.223   7.483   7.508
    7AU     LIG 2938  18.658   7.133   7.547
    7AU     LIG 2939  19.146   7.155   7.610
    7AU     LIG 2940  19.585   6.928   7.533
    7AU     LIG 2941  19.832   6.484   7.464
    7AU       S 2942  18.152   7.405   8.007
    7AU     LIG 2943  18.398   7.225   8.388
    7AU     LIG 2944  18.630   6.977   8.683
    7AU     LIG 2945  18.892   6.684   8.908
    7AU     LIG 2946  19.138   6.670   9.300
    7AU    AUSL 2947  18.022   8.056   7.329
    7AU    AUSL 2948  17.997   7.659   7.096
    7AU     AUL 2949  18.272   7.887   7.168
    7AU       S 2950  18.477   7.566   7.398
    7AU     LIG 2951  18.923   7.668   7.278
    7AU     LIG 2952  19.377   7.540   7.369
    7AU     LIG 2953  19.797   7.352   7.272
    7AU     LIG 2954  20.250   7.449   7.179
    7AU       S 2955  18.202   7.538   6.838
    7AU     LIG 2956  18.267   7.074   6.702
    7AU     LIG 2957  18.404   6.638   6.502
    7AU     LIG 2958  18.661   6.302   6.252
    7AU     LIG 2959  19.065   6.034   6.294
    7AU    AUSL 2960  16.634   7.731   7.552
    7AU    AUSL 2961  16.739   7.972   7.150
    7AU     AUL 2962  16.391   7.796   7.268
    7AU       S 2963  16.549   7.783   6.836
    7AU     LIG 2964  16.278   7.571   6.513
    7AU     LIG 2965  15.968   7.247   6.431
    7AU     LIG 2966  15.675   6.923   6.294
    7AU     LIG 2967  15.572   6.662   5.927
    7AU       S 2968  16.206   7.761   7.704
    7AU     LIG 2969  15.805   7.586   7.516
    7AU     LIG 2970  15.339   7.449   7.473
    7AU     LIG 2971  14.897   7.250   7.490
    7AU     LIG 2972  14.650   6.844   7.602
    7AU    AUSL 2973  16.690   8.113   7.751
    7AU    AUSL 2974  16.959   7.745   7.825
    7AU     AUL 2975  16.626   7.697   7.893
    7AU       S 2976  16.667   7.494   8.303
    7AU     LIG 2977  16.417   7.109   8.187
    7AU     LIG 2978  16.133   6.695   8.206
    7AU     LIG 2979  15.791   6.383   8.380
    7AU     LIG 2980  15.607   6.053   8.672
    7AU       S 2981  16.282   8.003   7.858
    7AU     LIG 2982  15.753   7.975   7.848
    7AU     LIG 2983  15.263   7.830   7.814
    7AU     LIG 2984  14.792   7.642   7.818
    7AU     LIG 2985  14.295   7.588   7.795
    7AU    AUSL 2986  17.345   9.062   7.987
    7AU    AUSL 2987  16.930   8.971   7.832
    7AU     AUL 2988  17.145   9.054   8.225
    7AU       S 2989  16.796   9.171   7.942
    7AU     LIG 2990  16.557   9.432   8.254
    7AU     LIG 2991  16.354   9.566   8.660
    7AU     LIG 2992  16.158   9.961   8.858
    7AU     LIG 2993  15.968  10.416   8.808
    7AU       S 2994  17.352   9.416   7.972
    7AU     LIG 2995  17.460   9.519   8.353
    7AU     LIG 2996  17.453   9.967   8.518
    7AU     LIG 2997  17.432  10.442   8.610
    7AU     LIG 2998  17.322  10.874   8.795
    7AU    AUSL 2999  17.171   9.208   7.589
    7AU    AUSL 3000  17.537   9.172   7.233
    7AU     AUL 3001  17.259   9.429   7.333
    7AU       S 3002  17.207   9.476   7.794
    7AU     LIG 3003  17.252   9.903   8.028
    7AU     LIG 3004  17.180  10.337   8.172
    7AU     LIG 3005  17.191  10.777   8.287
    7AU     LIG 3006  16.965  11.135   8.457
    7AU       S 3007  17.453   9.486   6.913
    7AU     LIG 3008  17.766   9.795   6.915
    7AU     LIG 3009  17.751  10.259   6.773
    7AU     LIG 3010  17.679  10.747   6.713
    7AU     LIG 3011  17.925  11.174   6.620
    7AU    AUSL 3012  17.560   9.005   7.620
    7AU    AUSL 3013  17.613   8.742   7.986
    7AU     AUL 3014  17.682   9.094   8.010
    7AU       S 3015  17.961   8.979   8.357
    7AU     LIG 3016  18.256   8.958   8.719
    7AU     LIG 3017  18.515   9.051   9.079
    7AU     LIG 3018  18.733   9.416   9.225
    7AU     LIG 3019  18.838   9.778   9.485
    7AU       S 3020  17.595   9.402   7.679
    7AU     LIG 3021  17.740   9.750   7.977
    7AU     LIG 3022  17.687  10.215   8.135
    7AU     LIG 3023  17.713  10.695   8.242
    7AU     LIG 3024  17.996  11.098   8.294
    7AU    AUSL 3025  17.341   7.548   7.930
    7AU    AUSL 3026  17.754   7.540   7.796
    7AU     AUL 3027  17.546   7.451   8.185
    7AU       S 3028  17.363   7.083   7.971
    7AU     LIG 3029  17.267   7.029   8.357
    7AU     LIG 3030  17.084   6.613   8.481
    7AU     LIG 3031  17.168   6.138   8.447
    7AU     LIG 3032  17.432   5.770   8.623
    7AU       S 3033  17.902   7.339   7.870
    7AU     LIG 3034  18.059   6.892   8.125
    7AU     LIG 3035  18.373   6.623   8.406
    7AU     LIG 3036  18.655   6.276   8.634
    7AU     LIG 3037  18.962   5.890   8.719
    7AU    AUSL 3038  17.030   7.379   7.646
    7AU    AUSL 3039  17.102   7.686   8.241
    7AU     AUL 3040  17.008   7.404   8.002
    7AU       S 3041  17.169   7.003   7.812
    7AU     LIG 3042  16.856   6.865   8.086
    7AU     LIG 3043  16.670   6.454   8.194
    7AU     LIG 3044  16.620   5.990   8.125
    7AU     LIG 3045  16.322   5.663   7.962
    7AU       S 3046  16.920   7.578   8.438
    7AU     LIG 3047  16.805   7.100   8.553
    7AU     LIG 3048  16.485   6.754   8.573
    7AU     LIG 3049  16.124   6.527   8.785
    7AU     LIG 3050  15.917   6.278   9.143
    7AU    AUSL 3051  17.461   7.323   7.585
    7AU    AUSL 3052  17.219   7.558   7.305
    7AU     AUL 3053  17.112   7.207   7.394
    7AU       S 3054  17.482   7.119   7.148
    7AU     LIG 3055  17.129   6.783   7.127
    7AU     LIG 3056  16.929   6.366   7.009
    7AU     LIG 3057  16.550   6.051   6.988
    7AU     LIG 3058  16.368   5.616   7.010
    7AU       S 3059  17.480   7.113   7.708
    7AU     LIG 3060  17.541   6.651   7.768
    7AU     LIG 3061  17.479   6.257   8.035
    7AU     LIG 3062  17.597   5.799   8.136
    7AU     LIG 3063  17.795   5.357   8.199
    7AU    AUSL 3064  17.363   8.981   6.874
    7AU    AUSL 3065  17.885   8.941   7.297
    7AU     AUL 3066  17.706   9.110   6.959
    7AU       S 3067  17.340   9.188   6.669
    7AU     LIG 3068  17.720   9.410   6.512
    7AU     LIG 3069  17.690   9.881   6.414
    7AU     LIG 3070  17.557  10.329   6.271
    7AU     LIG 3071  17.514  10.626   5.872
    7AU       S 3072  18.095   9.130   7.193
    7AU     LIG 3073  18.521   9.293   6.954
    7AU     LIG 3074  18.691   9.380   6.512
    7AU     LIG 3075  18.890   9.667   6.196
    7AU     LIG 3076  19.250   9.960   6.091
    7AU    AUSL 3077  17.193   8.923   7.291
    7AU    AUSL 3078  17.123   8.653   6.953
    7AU     AUL 3079  17.054   9.092   7.053
    7AU       S 3080  17.252   9.446   6.854
    7AU     LIG 3081  17.292   9.956   6.786
    7AU     LIG 3082  17.284  10.436   6.889
    7AU     LIG 3083  17.139  10.829   6.666
    7AU     LIG 3084  16.970  11.280   6.639
    7AU       S 3085  16.923   8.898   6.658
    7AU     LIG 3086  16.865   9.036   6.227
    7AU     LIG 3087  16.512   9.213   5.974
    7AU     LIG 3088  16.352   9.503   5.640
    7AU     LIG 3089  16.139   9.808   5.364
    7AU    AUSL 3090  17.404   7.526   6.911
    7AU    AUSL 3091  16.811   7.543   7.217
    7AU     AUL 3092  17.069   7.398   6.964
    7AU       S 3093  16.605   7.495   6.975
    7AU     LIG 3094  16.355   7.138   6.786
    7AU     LIG 3095  16.112   6.766   6.563
    7AU     LIG 3096  15.848   6.429   6.316
    7AU     LIG 3097  15.424   6.229   6.173
    7AU       S 3098  17.466   7.128   6.956
    7AU     LIG 3099  17.463   6.711   6.745
    7AU     LIG 3100  17.248   6.318   6.590
    7AU     LIG 3101  17.186   5.957   6.281
    7AU     LIG 3102  17.188   5.708   5.868
    7AU    AUSL 3103  17.646   7.544   7.285
    7AU    AUSL 3104  17.651   7.864   6.938
    7AU     AUL 3105  17.741   7.497   6.905
    7AU       S 3106  17.735   7.167   7.236
    7AU     LIG 3107  17.628   6.660   7.238
    7AU     LIG 3108  17.574   6.227   7.001
    7AU     LIG 3109  17.776   5.771   6.879
    7AU     LIG 3110  17.893   5.370   6.597
    7AU       S 3111  17.967   7.718   6.578
    7AU     LIG 3112  17.855   7.285   6.468
    7AU     LIG 3113  18.053   6.930   6.240
    7AU     LIG 3114  18.322   6.626   5.987
    7AU     LIG 3115  18.606   6.412   5.674
    8AU     AUC 3116   2.353   6.706   7.509
    8AU     AUC 3117   2.626   6.722   7.327
    8AU     AUC 3118   2.617   6.695   7.679
    8AU     AUC 3119   2.068   6.701   7.344
    8AU     AUC 3120   2.086   6.739   7.694
    8AU     AUC 3121   2.187   6.985   7.510
    8AU     AUC 3122   2.550   6.985   7.498
    8AU     AUC 3123   2.168   6.436   7.517
    8AU     AUC 3124   2.519   6.417   7.504
    8AU     AUC 3125   2.357   6.529   7.785
    8AU     AUC 3126   2.354   6.878   7.781
    8AU     AUC 3127   2.344   6.543   7.232
    8AU     AUC 3128   2.365   6.863   7.232
    8AU     AUC 3129   2.934   6.729   7.153
    8AU     AUC 3130   2.955   6.684   7.516
    8AU     AUC 3131   2.905   6.667   7.873
    8AU     AUC 3132   1.768   6.688   7.176
    8AU     AUC 3133   1.748   6.732   7.539
    8AU     AUC 3134   1.796   6.770   7.878
    8AU     AUC 3135   2.025   7.293   7.493
    8AU     AUC 3136   2.386   7.312   7.479
    8AU     AUC 3137   2.761   7.259   7.489
    8AU     AUC 3138   1.975   6.158   7.526
    8AU     AUC 3139   2.329   6.106   7.496
    8AU     AUC 3140   2.692   6.119   7.483
    8AU     AUC 3141   2.342   6.351   8.071
    8AU     AUC 3142   2.368   6.725   8.120
    8AU     AUC 3143   2.379   7.056   8.069
    8AU     AUC 3144   2.370   6.369   6.954
    8AU     AUC 3145   2.351   6.702   6.895
    8AU     AUC 3146   2.338   7.033   6.930
    8AU     AUC 3147   2.621   6.494   8.010
    8AU     AUC 3148   2.670   6.848   8.008
    8AU     AUC 3149   2.676   6.577   6.993
    8AU     AUC 3150   2.661   6.893   7.025
    8AU     AUC 3151   2.052   6.577   8.022
    8AU     AUC 3152   2.072   6.950   7.993
    8AU     AUC 3153   2.047   6.512   7.052
    8AU     AUC 3154   2.028   6.839   7.006
    8AU     AUC 3155   2.888   7.000   7.330
    8AU     AUC 3156   2.859   6.984   7.679
    8AU     AUC 3157   1.873   7.004   7.325
    8AU     AUC 3158   1.883   7.051   7.686
    8AU     AUC 3159   2.826   6.413   7.327
    8AU     AUC 3160   2.802   6.362   7.686
    8AU     AUC 3161   1.836   6.398   7.376
    8AU     AUC 3162   1.886   6.450   7.729
    8AU     AUC 3163   2.212   7.240   7.780
    8AU     AUC 3164   2.565   7.171   7.766
    8AU     AUC 3165   2.164   6.232   7.810
    8AU     AUC 3166   2.489   6.181   7.781
    8AU     AUC 3167   2.181   7.146   7.200
    8AU     AUC 3168   2.553   7.192   7.206
    8AU     AUC 3169   2.160   6.231   7.217
    8AU     AUC 3170   2.553   6.256   7.206
    8AU    AUSL 3171   2.883   6.566   8.261
    8AU    AUSL 3172   2.636   6.181   8.173
    8AU     AUL 3173   2.834   6.178   8.528
    8AU       S 3174   2.990   5.953   8.167
    8AU     LIG 3175   2.861   5.667   8.498
    8AU     LIG 3176   3.078   5.312   8.696
    8AU     LIG 3177   3.387   4.991   8.869
    8AU     LIG 3178   3.629   4.855   9.242
    8AU       S 3179   3.070   6.493   8.308
    8AU     LIG 3180   3.124   6.495   8.792
    8AU     LIG 3181   3.316   6.439   9.227
    8AU     LIG 3182   3.559   6.342   9.626
    8AU     LIG 3183   3.890   6.352   9.964
    8AU    AUSL 3184   2.469   6.515   8.395
    8AU    AUSL 3185   2.216   6.893   8.411
    8AU     AUL 3186   2.417   6.842   8.750
    8AU       S 3187   2.489   6.460   8.521
    8AU     LIG 3188   2.574   6.397   8.928
    8AU     LIG 3189   2.840   6.246   9.249
    8AU     LIG 3190   3.046   6.266   9.663
    8AU     LIG 3191   3.094   6.318  10.127
    8AU       S 3192   2.021   6.644   8.633
    8AU     LIG 3193   2.065   6.638   9.099
    8AU     LIG 3194   1.807   6.612   9.492
    8AU     LIG 3195   1.686   6.629   9.942
    8AU     LIG 3196   1.796   6.789  10.377
    8AU    AUSL 3197   2.629   6.924   8.352
    8AU    AUSL 3198   3.005   6.953   8.111
    8AU     AUL 3199   2.898   6.855   8.524
    8AU       S 3200   2.534   7.244   8.489
    8AU     LIG 3201   2.772   7.194   8.881
    8AU     LIG 3202   3.010   7.242   9.300
    8AU     LIG 3203   3.063   7.245   9.795
    8AU     LIG 3204   3.193   7.307  10.264
    8AU       S 3205   3.080   7.205   8.282
    8AU     LIG 3206   3.490   7.105   8.348
    8AU     LIG 3207   3.794   7.304   8.650
    8AU     LIG 3208   4.043   7.556   8.957
    8AU     LIG 3209   4.240   7.756   9.332
    8AU    AUSL 3210   2.874   6.871   6.737
    8AU    AUSL 3211   2.647   7.169   6.965
    8AU     AUL 3212   2.686   7.275   6.607
    8AU       S 3213   2.857   6.926   6.357
    8AU     LIG 3214   3.235   6.800   6.146
    8AU     LIG 3215   3.376   6.530   5.816
    8AU     LIG 3216   3.452   6.449   5.373
    8AU     LIG 3217   3.508   6.411   4.914
    8AU       S 3218   3.085   7.405   6.826
    8AU     LIG 3219   3.175   7.614   6.447
    8AU     LIG 3220   3.371   7.805   6.070
    8AU     LIG 3221   3.589   8.079   5.755
    8AU     LIG 3222   3.825   8.308   5.416
    8AU    AUSL 3223   2.656   6.519   6.609
    8AU    AUSL 3224   3.009   6.499   6.920
    8AU     AUL 3225   3.087   6.628   6.632
    8AU       S 3226   3.169   6.174   6.682
    8AU     LIG 3227   3.439   5.904   6.418
    8AU     LIG 3228   3.650   5.511   6.308
    8AU     LIG 3229   3.770   5.292   5.921
    8AU     LIG 3230   4.101   5.172   5.617
    8AU       S 3231   2.770   6.681   6.289
    8AU     LIG 3232   2.966   6.349   6.092
    8AU     LIG 3233   3.036   6.175   5.648
    8AU     LIG 3234   3.052   6.206   5.173
    8AU     LIG 3235   3.054   6.265   4.700
    8AU    AUSL 3236   2.449   6.893   6.696
    8AU    AUSL 3237   2.241   6.496   6.737
    8AU     AUL 3238   2.371   6.528   6.446
    8AU       S 3239   1.927   6.518   6.310
    8AU     LIG 3240   1.796   6.257   5.946
    8AU     LIG 3241   1.691   6.173   5.501
    8AU     LIG 3242   1.676   6.264   5.046
    8AU     LIG 3243   1.750   6.052   4.620
    8AU       S 3244   2.551   6.936   6.313
    8AU     LIG 3245   2.780   6.878   5.848
    8AU     LIG 3246   2.989   6.666   5.483
    8AU     LIG 3247   3.097   6.700   5.027
    8AU     LIG 3248   3.030   6.903   4.603
    8AU    AUSL 3249   1.817   6.839   8.250
    8AU    AUSL 3250   2.124   7.184   8.123
    8AU     AUL 3251   1.984   7.136   8.466
    8AU       S 3252   1.815   6.734   8.669
    8AU     LIG 3253   1.626   6.395   8.904
    8AU     LIG 3254   1.402   6.341   9.319
    8AU     LIG 3255   1.224   6.428   9.755
    8AU     LIG 3256   0.812   6.533   9.991
    8AU       S 3257   1.730   7.459   8.203
    8AU     LIG 3258   1.842   7.788   8.465
    8AU     LIG 3259   1.690   7.918   8.886
    8AU     LIG 3260   1.368   8.079   9.170
    8AU     LIG 3261   1.149   8.041   9.590
    8AU    AUSL 3262   2.119   6.553   8.163
    8AU    AUSL 3263   1.707   6.420   8.147
    8AU     AUL 3264   1.600   6.651   8.270
    8AU       S 3265   1.621   6.200   8.403
    8AU     LIG 3266   1.189   6.074   8.250
    8AU     LIG 3267   1.028   5.678   8.472
    8AU     LIG 3268   0.830   5.466   8.856
    8AU     LIG 3269   0.413   5.360   9.036
    8AU       S 3270   1.992   6.500   8.551
    8AU     LIG 3271   2.105   6.194   8.869
    8AU     LIG 3272   1.894   6.144   9.287
    8AU     LIG 3273   1.673   6.147   9.716
    8AU     LIG 3274   1.495   6.188  10.150
    8AU    AUSL 3275   1.817   6.563   6.790
    8AU    AUSL 3276   2.024   6.210   6.960
    8AU     AUL 3277   2.071   6.201   6.628
    8AU       S 3278   1.744   6.444   6.421
    8AU     LIG 3279   1.395   6.482   6.192
    8AU     LIG 3280   1.340   6.471   5.736
    8AU     LIG 3281   1.263   6.506   5.271
    8AU     LIG 3282   0.909   6.517   4.945
    8AU       S 3283   1.658   6.096   6.804
    8AU     LIG 3284   1.730   5.787   6.528
    8AU     LIG 3285   1.411   5.519   6.291
    8AU     LIG 3286   1.125   5.194   6.074
    8AU     LIG 3287   1.001   4.775   5.873
    8AU    AUSL 3288   2.041   6.880   6.610
    8AU    AUSL 3289   1.700   6.962   6.917
    8AU     AUL 3290   1.603   6.817   6.636
    8AU       S 3291   1.743   7.250   6.660
    8AU     LIG 3292   1.351   7.297   6.567
    8AU     LIG 3293   1.198   7.511   6.181
    8AU     LIG 3294   0.969   7.686   5.807
    8AU     LIG 3295   0.575   7.857   5.606
    8AU       S 3296   1.982   6.797   6.352
    8AU     LIG 3297   1.742   6.778   5.927
    8AU     LIG 3298   1.721   6.687   5.456
    8AU     LIG 3299   1.643   6.793   4.999
    8AU     LIG 3300   1.760   7.075   4.622
    8AU    AUSL 3301   3.186   7.183   7.479
    8AU    AUSL 3302   3.036   6.979   7.108
    8AU     AUL 3303   3.417   7.127   7.091
    8AU       S 3304   3.090   7.271   6.834
    8AU     LIG 3305   3.366   7.118   6.537
    8AU     LIG 3306   3.651   7.420   6.316
    8AU     LIG 3307   3.883   7.738   6.042
    8AU     LIG 3308   4.066   7.897   5.634
    8AU       S 3309   3.462   7.299   7.521
    8AU     LIG 3310   3.831   7.403   7.261
    8AU     LIG 3311   4.277   7.520   7.364
    8AU     LIG 3312   4.661   7.660   7.609
    8AU     LIG 3313   4.913   8.081   7.672
    8AU    AUSL 3314   3.324   6.785   7.376
    8AU    AUSL 3315   3.250   6.483   7.710
    8AU     AUL 3316   3.495   6.665   7.803
    8AU       S 3317   3.613   6.901   7.431
    8AU     LIG 3318   3.947   6.905   7.159
    8AU     LIG 3319   4.392   7.046   7.190
    8AU     LIG 3320   4.729   7.362   7.147
    8AU     LIG 3321   5.208   7.388   7.073
    8AU       S 3322   3.516   6.254   7.544
    8AU     LIG 3323   3.731   5.955   7.783
    8AU     LIG 3324   4.144   5.737   7.719
    8AU     LIG 3325   4.610   5.702   7.719
    8AU     LIG 3326   5.070   5.739   7.707
    8AU    AUSL 3327   3.044   6.848   7.709
    8AU    AUSL 3328   2.973   7.305   7.824
    8AU     AUL 3329   3.262   7.068   7.875
    8AU       S 3330   3.185   7.464   8.118
    8AU     LIG 3331   3.455   7.636   8.446
    8AU     LIG 3332   3.796   7.899   8.651
    8AU     LIG 3333   4.035   8.313   8.739
    8AU     LIG 3334   4.290   8.720   8.608
    8AU       S 3335   3.631   7.076   7.603
    8AU     LIG 3336   4.069   7.101   7.616
    8AU     LIG 3337   4.494   7.181   7.684
    8AU     LIG 3338   4.797   7.116   7.982
    8AU     LIG 3339   5.221   7.201   8.038
    8AU    AUSL 3340   1.679   7.271   7.527
    8AU    AUSL 3341   1.753   7.086   7.922
    8AU     AUL 3342   1.452   7.378   7.781
    8AU       S 3343   1.595   7.248   8.203
    8AU     LIG 3344   1.391   7.544   8.541
    8AU     LIG 3345   1.239   7.637   8.949
    8AU     LIG 3346   0.903   7.801   9.207
    8AU     LIG 3347   0.587   7.836   9.547
    8AU       S 3348   1.677   7.646   7.455
    8AU     LIG 3349   1.242   7.596   7.357
    8AU     LIG 3350   0.865   7.883   7.404
    8AU     LIG 3351   0.477   8.151   7.528
    8AU     LIG 3352   0.079   8.356   7.713
    8AU    AUSL 3353   1.643   6.887   7.323
    8AU    AUSL 3354   1.788   7.334   7.128
    8AU     AUL 3355   1.481   7.188   7.163
    8AU       S 3356   1.295   6.732   6.999
    8AU     LIG 3357   0.976   7.122   7.074
    8AU     LIG 3358   0.547   7.416   7.085
    8AU     LIG 3359   0.074   7.639   7.040
    8AU     LIG 3360  44.585   7.735   6.984
    8AU       S 3361   1.575   7.595   6.933
    8AU     LIG 3362   1.807   7.831   6.674
    8AU     LIG 3363   1.665   8.132   6.359
    8AU     LIG 3364   1.420   8.533   6.250
    8AU     LIG 3365   1.138   8.762   5.947
    8AU    AUSL 3366   1.438   6.922   7.710
    8AU    AUSL 3367   1.403   6.559   7.422
    8AU     AUL 3368   1.254   6.897   7.440
    8AU       S 3369   1.198   6.485   7.691
    8AU     LIG 3370   0.888   6.558   7.367
    8AU     LIG 3371   0.450   6.398   7.339
    8AU     LIG 3372   0.034   6.158   7.328
    8AU     LIG 3373  44.600   6.001   7.289
    8AU       S 3374   1.288   6.945   7.944
    8AU     LIG 3375   0.856   6.909   7.761
    8AU     LIG 3376   0.370   7.033   7.784
    8AU     LIG 3377  44.986   7.336   7.912
    8AU     LIG 3378  44.486   7.395   7.950
    8AU    AUSL 3379   3.048   6.137   7.533
    8AU    AUSL 3380   2.880   6.388   7.882
    8AU     AUL 3381   3.222   6.267   7.910
    8AU       S 3382   3.303   6.028   7.505
    8AU     LIG 3383   3.572   5.742   7.319
    8AU     LIG 3384   3.989   5.523   7.278
    8AU     LIG 3385   4.422   5.338   7.397
    8AU     LIG 3386   4.847   5.246   7.600
    8AU       S 3387   3.075   5.865   8.058
    8AU     LIG 3388   3.357   5.645   8.351
    8AU     LIG 3389   3.588   5.433   8.683
    8AU     LIG 3390   3.876   5.220   8.971
    8AU     LIG 3391   4.141   4.971   9.280
    8AU    AUSL 3392   3.014   6.515   7.337
    8AU    AUSL 3393   2.966   6.107   7.117
    8AU     AUL 3394   3.231   6.324   7.146
    8AU       S 3395   3.592   6.361   7.410
    8AU     LIG 3396   3.973   6.064   7.333
    8AU     LIG 3397   4.406   5.842   7.266
    8AU     LIG 3398   4.850   5.620   7.241
    8AU     LIG 3399   5.313   5.591   7.092
    8AU       S 3400   3.168   5.976   6.841
    8AU     LIG 3401   3.378   5.597   6.847
    8AU     LIG 3402   3.466   5.187   6.677
    8AU     LIG 3403   3.659   4.972   6.326
    8AU     LIG 3404   3.999   4.848   6.028
    8AU    AUSL 3405   1.602   6.194   7.575
    8AU    AUSL 3406   1.710   6.422   7.171
    8AU     AUL 3407   1.358   6.259   7.295
    8AU       S 3408   1.514   6.221   6.864
    8AU     LIG 3409   1.276   6.040   6.495
    8AU     LIG 3410   0.955   5.709   6.444
    8AU     LIG 3411   0.689   5.367   6.292
    8AU     LIG 3412   0.585   5.082   5.941
    8AU       S 3413   1.181   6.248   7.737
    8AU     LIG 3414   0.862   6.064   7.482
    8AU     LIG 3415   0.426   5.886   7.493
    8AU     LIG 3416  45.000   5.660   7.460
    8AU     LIG 3417  44.839   5.260   7.609
    8AU    AUSL 3418   1.671   6.577   7.763
    8AU    AUSL 3419   1.925   6.199   7.853
    8AU     AUL 3420   1.595   6.157   7.914
    8AU       S 3421   1.659   5.987   8.339
    8AU     LIG 3422   1.479   5.644   8.134
    8AU     LIG 3423   1.174   5.278   8.175
    8AU     LIG 3424   0.852   5.119   8.486
    8AU     LIG 3425   0.618   4.920   8.840
    8AU       S 3426   1.258   6.477   7.878
    8AU     LIG 3427   0.720   6.417   7.842
    8AU     LIG 3428   0.245   6.277   7.797
    8AU     LIG 3429  44.829   6.034   7.789
    8AU     LIG 3430  44.401   6.076   7.991
    8AU    AUSL 3431   2.385   7.493   7.992
    8AU    AUSL 3432   1.976   7.426   7.798
    8AU     AUL 3433   2.184   7.516   8.211
    8AU       S 3434   1.843   7.623   7.912
    8AU     LIG 3435   1.495   7.887   8.093
    8AU     LIG 3436   1.394   8.086   8.511
    8AU     LIG 3437   1.171   8.387   8.803
    8AU     LIG 3438   1.000   8.817   8.857
    8AU       S 3439   2.466   7.851   7.977
    8AU     LIG 3440   2.390   7.945   8.385
    8AU     LIG 3441   2.502   8.369   8.526
    8AU     LIG 3442   2.620   8.788   8.608
    8AU     LIG 3443   2.419   9.112   8.858
    8AU    AUSL 3444   2.246   7.674   7.599
    8AU    AUSL 3445   2.531   7.599   7.254
    8AU     AUL 3446   2.442   7.942   7.375
    8AU       S 3447   2.281   7.907   7.807
    8AU     LIG 3448   2.269   8.308   8.058
    8AU     LIG 3449   2.341   8.723   8.175
    8AU     LIG 3450   2.289   9.123   8.351
    8AU     LIG 3451   1.960   9.446   8.389
    8AU       S 3452   2.384   7.911   6.901
    8AU     LIG 3453   2.785   8.068   7.018
    8AU     LIG 3454   2.881   8.534   7.009
    8AU     LIG 3455   2.993   8.995   6.934
    8AU     LIG 3456   3.071   9.404   6.731
    8AU    AUSL 3457   2.620   7.437   7.638
    8AU    AUSL 3458   2.621   7.149   8.011
    8AU     AUL 3459   2.722   7.476   8.058
    8AU       S 3460   2.993   7.337   8.398
    8AU     LIG 3461   3.260   7.292   8.771
    8AU     LIG 3462   3.522   7.604   8.987
    8AU     LIG 3463   3.779   7.953   9.178
    8AU     LIG 3464   3.951   8.101   9.598
    8AU       S 3465   2.708   7.769   7.708
    8AU     LIG 3466   2.695   8.243   7.763
    8AU     LIG 3467   2.818   8.570   8.098
    8AU     LIG 3468   2.916   9.018   8.232
    8AU     LIG 3469   3.183   9.424   8.248
    8AU    AUSL 3470   2.316   6.007   7.939
    8AU    AUSL 3471   2.729   6.000   7.778
    8AU     AUL 3472   2.534   5.864   8.157
    8AU       S 3473   2.286   5.517   7.985
    8AU     LIG 3474   2.236   5.239   8.311
    8AU     LIG 3475   1.983   4.879   8.421
    8AU     LIG 3476   2.007   4.423   8.428
    8AU     LIG 3477   2.165   4.005   8.535
    8AU       S 3478   2.899   5.811   7.854
    8AU     LIG 3479   2.982   5.378   8.089
    8AU     LIG 3480   3.352   5.119   8.309
    8AU     LIG 3481   3.752   4.963   8.515
    8AU     LIG 3482   3.974   4.727   8.851
    8AU    AUSL 3483   1.999   5.835   7.668
    8AU    AUSL 3484   2.099   6.154   8.263
    8AU     AUL 3485   1.982   5.872   8.031
    8AU       S 3486   2.108   5.457   7.841
    8AU     LIG 3487   1.928   5.059   7.927
    8AU     LIG 3488   1.632   4.728   8.055
    8AU     LIG 3489   1.668   4.288   8.073
    8AU     LIG 3490   1.661   3.957   8.385
    8AU       S 3491   1.873   6.033   8.470
    8AU     LIG 3492   1.538   5.680   8.680
    8AU     LIG 3493   1.304   5.277   8.682
    8AU     LIG 3494   1.086   5.035   9.003
    8AU     LIG 3495   0.751   5.082   9.314
    8AU    AUSL 3496   2.430   5.761   7.607
    8AU    AUSL 3497   2.192   5.999   7.323
    8AU     AUL 3498   2.085   5.653   7.422
    8AU       S 3499   2.441   5.565   7.156
    8AU     LIG 3500   2.031   5.295   7.083
    8AU     LIG 3501   1.806   4.902   7.005
    8AU     LIG 3502   1.872   4.466   6.888
    8AU     LIG 3503   1.652   4.145   6.632
    8AU       S 3504   2.447   5.549   7.745
    8AU     LIG 3505   2.461   5.070   7.870
    8AU     LIG 3506   2.289   4.671   8.053
    8AU     LIG 3507   2.496   4.255   8.197
    8AU     LIG 3508   2.929   3.995   8.166
    8AU    AUSL 3509   2.333   7.440   6.897
    8AU    AUSL 3510   2.882   7.370   7.263
    8AU     AUL 3511   2.685   7.567   6.979
    8AU       S 3512   2.307   7.652   6.694
    8AU     LIG 3513   2.698   7.835   6.541
    8AU     LIG 3514   2.636   8.295   6.582
    8AU     LIG 3515   2.458   8.579   6.266
    8AU     LIG 3516   2.502   8.762   5.827
    8AU       S 3517   3.129   7.507   7.117
    8AU     LIG 3518   3.537   7.589   6.831
    8AU     LIG 3519   3.670   7.919   6.493
    8AU     LIG 3520   3.853   8.365   6.354
    8AU     LIG 3521   4.191   8.708   6.264
    8AU    AUSL 3522   2.162   7.386   7.311
    8AU    AUSL 3523   2.108   7.100   6.961
    8AU     AUL 3524   2.017   7.535   7.059
    8AU       S 3525   2.226   7.914   6.961
    8AU     LIG 3526   2.367   8.368   7.065
    8AU     LIG 3527   2.318   8.688   6.755
    8AU     LIG 3528   2.043   9.047   6.721
    8AU     LIG 3529   2.037   9.479   6.867
    8AU       S 3530   1.910   7.338   6.654
    8AU     LIG 3531   1.731   7.557   6.256
    8AU     LIG 3532   1.529   7.841   5.940
    8AU     LIG 3533   1.276   8.077   5.643
    8AU     LIG 3534   1.035   8.270   5.303
    8AU    AUSL 3535   2.370   5.966   6.928
    8AU    AUSL 3536   1.781   5.993   7.249
    8AU     AUL 3537   2.033   5.838   6.991
    8AU       S 3538   1.572   5.942   7.018
    8AU     LIG 3539   1.325   5.605   6.801
    8AU     LIG 3540   1.089   5.215   6.593
    8AU     LIG 3541   0.823   4.854   6.359
    8AU     LIG 3542   0.691   4.439   6.113
    8AU       S 3543   2.431   5.573   6.964
    8AU     LIG 3544   2.441   5.142   6.821
    8AU     LIG 3545   2.168   4.817   6.632
    8AU     LIG 3546   2.091   4.403   6.422
    8AU     LIG 3547   2.138   4.118   6.054
    8AU    AUSL 3548   2.619   5.979   7.305
    8AU    AUSL 3549   2.614   6.302   6.960
    8AU     AUL 3550   2.712   5.937   6.923
    8AU       S 3551   2.682   5.599   7.248
    8AU     LIG 3552   2.455   5.142   7.366
    8AU     LIG 3553   2.281   4.763   7.143
    8AU     LIG 3554   2.404   4.410   6.856
    8AU     LIG 3555   2.781   4.137   6.756
    8AU       S 3556   2.939   6.143   6.587
    8AU     LIG 3557   2.991   5.659   6.490
    8AU     LIG 3558   3.201   5.279   6.235
    8AU     LIG 3559   3.375   4.966   5.892
    8AU     LIG 3560   3.646   4.945   5.502
    9AU     AUC 3561  28.441  17.289   7.504
    9AU     AUC 3562  28.723  17.301   7.331
    9AU     AUC 3563  28.700  17.274   7.681
    9AU     AUC 3564  28.159  17.286   7.330
    9AU     AUC 3565  28.171  17.321   7.679
    9AU     AUC 3566  28.278  17.575   7.498
    9AU     AUC 3567  28.641  17.564   7.500
    9AU     AUC 3568  28.252  17.018   7.507
    9AU     AUC 3569  28.605  16.999   7.504
    9AU     AUC 3570  28.435  17.110   7.780
    9AU     AUC 3571  28.434  17.460   7.775
    9AU     AUC 3572  28.438  17.125   7.228
    9AU     AUC 3573  28.463  17.443   7.230
    9AU     AUC 3574  29.035  17.303   7.164
    9AU     AUC 3575  29.044  17.259   7.528
    9AU     AUC 3576  28.984  17.240   7.884
    9AU     AUC 3577  27.862  17.273   7.155
    9AU     AUC 3578  27.834  17.319   7.515
    9AU     AUC 3579  27.877  17.353   7.855
    9AU     AUC 3580  28.119  17.885   7.474
    9AU     AUC 3581  28.480  17.893   7.477
    9AU     AUC 3582  28.856  17.834   7.501
    9AU     AUC 3583  28.056  16.742   7.509
    9AU     AUC 3584  28.411  16.688   7.491
    9AU     AUC 3585  28.776  16.698   7.490
    9AU     AUC 3586  28.409  16.933   8.065
    9AU     AUC 3587  28.440  17.306   8.114
    9AU     AUC 3588  28.453  17.640   8.069
    9AU     AUC 3589  28.470  16.949   6.949
    9AU     AUC 3590  28.455  17.280   6.890
    9AU     AUC 3591  28.444  17.610   6.929
    9AU     AUC 3592  28.693  17.072   8.011
    9AU     AUC 3593  28.747  17.422   8.016
    9AU     AUC 3594  28.778  17.154   6.999
    9AU     AUC 3595  28.765  17.470   7.032
    9AU     AUC 3596  28.123  17.161   8.006
    9AU     AUC 3597  28.156  17.536   7.980
    9AU     AUC 3598  28.146  17.095   7.038
    9AU     AUC 3599  28.130  17.419   6.993
    9AU     AUC 3600  28.985  17.577   7.343
    9AU     AUC 3601  28.948  17.558   7.692
    9AU     AUC 3602  27.967  17.589   7.307
    9AU     AUC 3603  27.975  17.640   7.663
    9AU     AUC 3604  28.920  16.990   7.335
    9AU     AUC 3605  28.883  16.939   7.690
    9AU     AUC 3606  27.924  16.984   7.354
    9AU     AUC 3607  27.965  17.035   7.708
    9AU     AUC 3608  28.300  17.827   7.774
    9AU     AUC 3609  28.652  17.748   7.770
    9AU     AUC 3610  28.237  16.815   7.799
    9AU     AUC 3611  28.565  16.761   7.780
    9AU     AUC 3612  28.278  17.736   7.196
    9AU     AUC 3613  28.649  17.774   7.210
    9AU     AUC 3614  28.252  16.813   7.209
    9AU     AUC 3615  28.644  16.838   7.210
    9AU    AUSL 3616  28.950  17.137   8.272
    9AU    AUSL 3617  28.702  16.758   8.178
    9AU     AUL 3618  28.887  16.758   8.548
    9AU       S 3619  29.049  16.534   8.189
    9AU     LIG 3620  28.906  16.233   8.505
    9AU     LIG 3621  29.138  15.896   8.730
    9AU     LIG 3622  29.456  15.591   8.920
    9AU     LIG 3623  29.719  15.204   9.056
    9AU       S 3624  29.136  17.055   8.317
    9AU     LIG 3625  29.234  17.056   8.773
    9AU     LIG 3626  29.360  16.995   9.224
    9AU     LIG 3627  29.688  16.993   9.573
    9AU     LIG 3628  30.079  16.942   9.847
    9AU    AUSL 3629  28.529  17.097   8.388
    9AU    AUSL 3630  28.288  17.479   8.389
    9AU     AUL 3631  28.467  17.419   8.747
    9AU       S 3632  28.545  17.041   8.516
    9AU     LIG 3633  28.551  16.943   8.928
    9AU     LIG 3634  28.863  16.793   9.247
    9AU     LIG 3635  28.965  16.589   9.667
    9AU     LIG 3636  29.094  16.553  10.120
    9AU       S 3637  28.075  17.227   8.616
    9AU     LIG 3638  28.087  17.254   9.094
    9AU     LIG 3639  27.854  17.254   9.510
    9AU     LIG 3640  27.787  17.331   9.959
    9AU     LIG 3641  27.978  17.616  10.307
    9AU    AUSL 3642  28.706  17.503   8.367
    9AU    AUSL 3643  29.082  17.520   8.128
    9AU     AUL 3644  28.970  17.418   8.538
    9AU       S 3645  28.607  17.818   8.499
    9AU     LIG 3646  28.840  17.764   8.889
    9AU     LIG 3647  29.027  17.906   9.315
    9AU     LIG 3648  28.991  17.987   9.806
    9AU     LIG 3649  29.010  17.923  10.291
    9AU       S 3650  29.163  17.771   8.307
    9AU     LIG 3651  29.551  17.658   8.415
    9AU     LIG 3652  29.851  17.877   8.718
    9AU     LIG 3653  30.103  18.167   8.998
    9AU     LIG 3654  30.303  18.435   9.328
    9AU    AUSL 3655  28.984  17.442   6.753
    9AU    AUSL 3656  28.757  17.745   6.973
    9AU     AUL 3657  28.809  17.841   6.616
    9AU       S 3658  28.968  17.505   6.347
    9AU     LIG 3659  29.320  17.313   6.132
    9AU     LIG 3660  29.342  17.047   5.768
    9AU     LIG 3661  29.482  17.026   5.329
    9AU     LIG 3662  29.847  16.911   5.044
    9AU       S 3663  29.192  17.980   6.844
    9AU     LIG 3664  29.287  18.189   6.453
    9AU     LIG 3665  29.466  18.369   6.046
    9AU     LIG 3666  29.660  18.420   5.607
    9AU     LIG 3667  29.833  18.632   5.221
    9AU    AUSL 3668  28.767  17.097   6.611
    9AU    AUSL 3669  29.117  17.068   6.928
    9AU     AUL 3670  29.175  17.184   6.616
    9AU       S 3671  29.276  16.731   6.695
    9AU     LIG 3672  29.393  16.336   6.418
    9AU     LIG 3673  29.589  15.910   6.408
    9AU     LIG 3674  29.882  15.634   6.174
    9AU     LIG 3675  30.163  15.531   5.816
    9AU       S 3676  28.852  17.340   6.298
    9AU     LIG 3677  28.933  16.951   6.123
    9AU     LIG 3678  28.902  16.793   5.671
    9AU     LIG 3679  29.040  16.789   5.209
    9AU     LIG 3680  29.086  16.569   4.784
    9AU    AUSL 3681  28.559  17.468   6.701
    9AU    AUSL 3682  28.350  17.074   6.724
    9AU     AUL 3683  28.509  17.077   6.446
    9AU       S 3684  28.080  17.116   6.289
    9AU     LIG 3685  28.169  16.994   5.892
    9AU     LIG 3686  27.892  16.727   5.653
    9AU     LIG 3687  27.688  16.685   5.249
    9AU     LIG 3688  27.687  16.751   4.791
    9AU       S 3689  28.614  17.519   6.335
    9AU     LIG 3690  28.675  17.318   5.848
    9AU     LIG 3691  28.975  17.256   5.455
    9AU     LIG 3692  29.137  17.267   4.999
    9AU     LIG 3693  29.134  17.426   4.542
    9AU    AUSL 3694  27.886  17.432   8.229
    9AU    AUSL 3695  28.182  17.792   8.130
    9AU     AUL 3696  28.057  17.722   8.463
    9AU       S 3697  27.890  17.316   8.636
    9AU     LIG 3698  27.587  17.166   8.846
    9AU     LIG 3699  27.464  17.038   9.261
    9AU     LIG 3700  27.365  17.037   9.712
    9AU     LIG 3701  26.993  16.946   9.990
    9AU       S 3702  27.796  18.010   8.180
    9AU     LIG 3703  27.818  18.161   8.577
    9AU     LIG 3704  27.634  18.327   8.951
    9AU     LIG 3705  27.374  18.649   9.140
    9AU     LIG 3706  27.336  18.997   9.443
    9AU    AUSL 3707  28.182  17.136   8.150
    9AU    AUSL 3708  27.770  17.011   8.120
    9AU     AUL 3709  27.663  17.245   8.244
    9AU       S 3710  27.680  16.792   8.381
    9AU     LIG 3711  27.242  16.732   8.206
    9AU     LIG 3712  26.925  16.395   8.326
    9AU     LIG 3713  26.738  16.062   8.625
    9AU     LIG 3714  26.492  15.726   8.877
    9AU       S 3715  28.051  17.091   8.531
    9AU     LIG 3716  28.033  16.801   8.886
    9AU     LIG 3717  27.922  16.779   9.325
    9AU     LIG 3718  27.809  16.786   9.781
    9AU     LIG 3719  27.588  16.551  10.141
    9AU    AUSL 3720  27.929  17.140   6.768
    9AU    AUSL 3721  28.128  16.794   6.951
    9AU     AUL 3722  28.168  16.783   6.618
    9AU       S 3723  27.910  17.041   6.337
    9AU     LIG 3724  27.551  17.059   6.106
    9AU     LIG 3725  27.405  16.932   5.688
    9AU     LIG 3726  27.235  16.931   5.264
    9AU     LIG 3727  27.138  16.979   4.818
    9AU       S 3728  27.752  16.678   6.780
    9AU     LIG 3729  27.831  16.335   6.548
    9AU     LIG 3730  27.528  16.046   6.342
    9AU     LIG 3731  27.186  15.800   6.129
    9AU     LIG 3732  26.854  15.559   5.892
    9AU    AUSL 3733  28.152  17.464   6.598
    9AU    AUSL 3734  27.802  17.534   6.900
    9AU     AUL 3735  27.718  17.336   6.621
    9AU       S 3736  27.732  17.783   6.663
    9AU     LIG 3737  27.379  17.720   6.434
    9AU     LIG 3738  27.181  17.961   6.084
    9AU     LIG 3739  26.825  18.076   5.783
    9AU     LIG 3740  26.373  18.091   5.607
    9AU       S 3741  28.122  17.387   6.361
    9AU     LIG 3742  27.879  17.430   5.954
    9AU     LIG 3743  27.798  17.223   5.532
    9AU     LIG 3744  27.641  17.186   5.080
    9AU     LIG 3745  27.569  17.218   4.604
    9AU    AUSL 3746  29.278  17.760   7.508
    9AU    AUSL 3747  29.142  17.558   7.125
    9AU     AUL 3748  29.517  17.730   7.148
    9AU       S 3749  29.210  17.835   6.847
    9AU     LIG 3750  29.429  17.685   6.505
    9AU     LIG 3751  29.725  17.961   6.260
    9AU     LIG 3752  29.976  18.292   6.015
    9AU     LIG 3753  30.192  18.411   5.606
    9AU       S 3754  29.600  17.871   7.581
    9AU     LIG 3755  30.009  17.916   7.325
    9AU     LIG 3756  30.488  17.993   7.412
    9AU     LIG 3757  30.921  18.198   7.506
    9AU     LIG 3758  31.332  18.479   7.491
    9AU    AUSL 3759  29.416  17.362   7.400
    9AU    AUSL 3760  29.330  17.052   7.728
    9AU     AUL 3761  29.573  17.229   7.823
    9AU       S 3762  29.721  17.471   7.462
    9AU     LIG 3763  30.089  17.399   7.243
    9AU     LIG 3764  30.551  17.501   7.271
    9AU     LIG 3765  30.969  17.729   7.283
    9AU     LIG 3766  31.421  17.769   7.124
    9AU       S 3767  29.612  16.809   7.574
    9AU     LIG 3768  29.965  16.498   7.651
    9AU     LIG 3769  30.379  16.256   7.707
    9AU     LIG 3770  30.820  16.124   7.802
    9AU     LIG 3771  31.189  16.322   8.010
    9AU    AUSL 3772  29.129  17.419   7.725
    9AU    AUSL 3773  29.060  17.875   7.853
    9AU     AUL 3774  29.346  17.635   7.899
    9AU       S 3775  29.256  18.034   8.133
    9AU     LIG 3776  29.556  18.187   8.430
    9AU     LIG 3777  29.871  18.459   8.645
    9AU     LIG 3778  30.066  18.861   8.799
    9AU     LIG 3779  30.182  19.328   8.692
    9AU       S 3780  29.728  17.638   7.643
    9AU     LIG 3781  30.221  17.617   7.689
    9AU     LIG 3782  30.716  17.660   7.744
    9AU     LIG 3783  31.089  17.755   8.034
    9AU     LIG 3784  31.428  17.967   8.311
    9AU    AUSL 3785  27.781  17.866   7.496
    9AU    AUSL 3786  27.865  17.651   7.873
    9AU     AUL 3787  27.554  17.961   7.734
    9AU       S 3788  27.680  17.834   8.157
    9AU     LIG 3789  27.540  17.699   8.559
    9AU     LIG 3790  27.303  17.930   8.907
    9AU     LIG 3791  26.897  18.100   9.095
    9AU     LIG 3792  26.499  18.214   9.344
    9AU       S 3793  27.767  18.239   7.413
    9AU     LIG 3794  27.291  18.140   7.348
    9AU     LIG 3795  26.879  18.333   7.508
    9AU     LIG 3796  26.460  18.588   7.642
    9AU     LIG 3797  26.206  19.025   7.771
    9AU    AUSL 3798  27.731  17.479   7.305
    9AU    AUSL 3799  27.885  17.919   7.092
    9AU     AUL 3800  27.580  17.781   7.145
    9AU       S 3801  27.376  17.353   6.968
    9AU     LIG 3802  27.152  17.807   6.895
    9AU     LIG 3803  26.703  17.985   7.043
    9AU     LIG 3804  26.216  18.140   7.032
    9AU     LIG 3805  25.756  18.237   6.859
    9AU       S 3806  27.684  18.188   6.893
    9AU     LIG 3807  27.505  18.241   6.446
    9AU     LIG 3808  27.308  18.590   6.158
    9AU     LIG 3809  27.049  19.001   6.069
    9AU     LIG 3810  26.655  19.284   6.142
    9AU    AUSL 3811  27.520  17.513   7.689
    9AU    AUSL 3812  27.488  17.150   7.385
    9AU     AUL 3813  27.331  17.490   7.415
    9AU       S 3814  27.273  17.073   7.652
    9AU     LIG 3815  26.973  17.014   7.316
    9AU     LIG 3816  26.539  16.861   7.351
    9AU     LIG 3817  26.075  16.817   7.239
    9AU     LIG 3818  25.670  16.919   6.988
    9AU       S 3819  27.382  17.532   7.915
    9AU     LIG 3820  27.124  17.895   7.978
    9AU     LIG 3821  26.702  18.085   7.936
    9AU     LIG 3822  26.233  18.155   7.966
    9AU     LIG 3823  25.816  17.919   8.015
    9AU    AUSL 3824  29.131  16.708   7.544
    9AU    AUSL 3825  28.954  16.965   7.890
    9AU     AUL 3826  29.292  16.827   7.919
    9AU       S 3827  29.413  16.595   7.520
    9AU     LIG 3828  29.602  16.207   7.421
    9AU     LIG 3829  29.997  15.963   7.496
    9AU     LIG 3830  30.445  15.820   7.423
    9AU     LIG 3831  30.913  15.749   7.461
    9AU       S 3832  29.131  16.440   8.093
    9AU     LIG 3833  29.411  16.222   8.404
    9AU     LIG 3834  29.687  15.991   8.700
    9AU     LIG 3835  29.967  15.673   8.915
    9AU     LIG 3836  30.320  15.384   9.004
    9AU    AUSL 3837  29.111  17.088   7.346
    9AU    AUSL 3838  29.057  16.678   7.127
    9AU     AUL 3839  29.323  16.878   7.158
    9AU       S 3840  29.676  16.944   7.426
    9AU     LIG 3841  29.835  16.591   7.163
    9AU     LIG 3842  30.244  16.321   7.215
    9AU     LIG 3843  30.726  16.225   7.287
    9AU     LIG 3844  31.153  16.181   7.076
    9AU       S 3845  29.267  16.509   6.865
    9AU     LIG 3846  29.254  16.025   6.836
    9AU     LIG 3847  29.344  15.556   6.706
    9AU     LIG 3848  29.590  15.283   6.411
    9AU     LIG 3849  29.906  15.098   6.116
    9AU    AUSL 3850  27.680  16.783   7.546
    9AU    AUSL 3851  27.804  17.010   7.147
    9AU     AUL 3852  27.451  16.855   7.255
    9AU       S 3853  27.617  16.803   6.829
    9AU     LIG 3854  27.390  16.603   6.447
    9AU     LIG 3855  27.060  16.274   6.346
    9AU     LIG 3856  26.713  16.009   6.149
    9AU     LIG 3857  26.368  15.709   6.001
    9AU       S 3858  27.258  16.823   7.686
    9AU     LIG 3859  26.892  16.555   7.576
    9AU     LIG 3860  26.441  16.382   7.511
    9AU     LIG 3861  25.967  16.343   7.500
    9AU     LIG 3862  25.651  16.016   7.347
    9AU    AUSL 3863  27.750  17.165   7.733
    9AU    AUSL 3864  27.994  16.784   7.835
    9AU     AUL 3865  27.665  16.750   7.886
    9AU       S 3866  27.704  16.568   8.305
    9AU     LIG 3867  27.403  16.229   8.199
    9AU     LIG 3868  27.040  15.887   8.239
    9AU     LIG 3869  26.713  15.570   8.426
    9AU     LIG 3870  26.636  15.242   8.768
    9AU       S 3871  27.331  17.069   7.835
    9AU     LIG 3872  26.831  16.952   7.902
    9AU     LIG 3873  26.396  16.770   7.834
    9AU     LIG 3874  25.934  16.822   7.747
    9AU     LIG 3875  25.575  16.695   7.461
    9AU    AUSL 3876  28.472  18.066   7.992
    9AU    AUSL 3877  28.057  18.023   7.786
    9AU     AUL 3878  28.244  18.136   8.196
    9AU       S 3879  27.913  18.228   7.887
    9AU     LIG 3880  27.599  18.458   8.194
    9AU     LIG 3881  27.426  18.666   8.605
    9AU     LIG 3882  27.224  19.061   8.835
    9AU     LIG 3883  26.969  19.493   8.894
    9AU       S 3884  28.584  18.426   7.964
    9AU     LIG 3885  28.676  18.535   8.336
    9AU     LIG 3886  28.679  18.973   8.487
    9AU     LIG 3887  28.738  19.427   8.557
    9AU     LIG 3888  28.623  19.834   8.733
    9AU    AUSL 3889  28.356  18.248   7.599
    9AU    AUSL 3890  28.631  18.164   7.260
    9AU     AUL 3891  28.620  18.520   7.405
    9AU       S 3892  28.381  18.483   7.802
    9AU     LIG 3893  28.487  18.928   8.000
    9AU     LIG 3894  28.472  19.410   8.117
    9AU     LIG 3895  28.440  19.885   8.244
    9AU     LIG 3896  28.372  20.252   8.566
    9AU       S 3897  28.369  18.441   7.040
    9AU     LIG 3898  28.803  18.678   6.974
    9AU     LIG 3899  28.919  19.144   6.924
    9AU     LIG 3900  28.916  19.625   6.808
    9AU     LIG 3901  28.925  20.109   6.718
    9AU    AUSL 3902  28.722  18.011   7.648
    9AU    AUSL 3903  28.698  17.715   8.017
    9AU     AUL 3904  28.790  18.032   8.090
    9AU       S 3905  29.074  17.901   8.420
    9AU     LIG 3906  29.318  17.924   8.799
    9AU     LIG 3907  29.583  18.228   9.002
    9AU     LIG 3908  29.820  18.574   9.199
    9AU     LIG 3909  29.838  18.773   9.633
    9AU       S 3910  28.833  18.323   7.748
    9AU     LIG 3911  28.969  18.748   7.947
    9AU     LIG 3912  28.949  19.212   8.110
    9AU     LIG 3913  28.930  19.709   8.160
    9AU     LIG 3914  28.871  20.182   8.280
    9AU    AUSL 3915  28.386  16.596   7.932
    9AU    AUSL 3916  28.807  16.576   7.787
    9AU     AUL 3917  28.594  16.445   8.157
    9AU       S 3918  28.353  16.097   7.978
    9AU     LIG 3919  28.598  15.875   8.262
    9AU     LIG 3920  28.585  15.417   8.370
    9AU     LIG 3921  28.462  15.004   8.563
    9AU     LIG 3922  28.494  14.767   8.974
    9AU       S 3923  28.975  16.384   7.871
    9AU     LIG 3924  29.087  15.942   8.108
    9AU     LIG 3925  29.430  15.669   8.376
    9AU     LIG 3926  29.773  15.345   8.570
    9AU     LIG 3927  30.103  15.002   8.732
    9AU    AUSL 3928  28.076  16.419   7.655
    9AU    AUSL 3929  28.154  16.737   8.249
    9AU     AUL 3930  28.048  16.455   8.012
    9AU       S 3931  28.184  16.036   7.828
    9AU     LIG 3932  28.196  15.624   8.052
    9AU     LIG 3933  28.203  15.173   8.116
    9AU     LIG 3934  28.171  14.726   8.183
    9AU     LIG 3935  27.819  14.400   8.126
    9AU       S 3936  27.944  16.629   8.439
    9AU     LIG 3937  27.704  16.246   8.662
    9AU     LIG 3938  27.275  16.039   8.672
    9AU     LIG 3939  27.019  15.675   8.829
    9AU     LIG 3940  26.862  15.427   9.195
    9AU    AUSL 3941  28.507  16.343   7.607
    9AU    AUSL 3942  28.278  16.578   7.315
    9AU     AUL 3943  28.164  16.233   7.406
    9AU       S 3944  28.544  16.146   7.172
    9AU     LIG 3945  28.216  15.820   7.119
    9AU     LIG 3946  28.117  15.414   7.005
    9AU     LIG 3947  28.203  14.996   6.903
    9AU     LIG 3948  28.212  14.593   6.689
    9AU       S 3949  28.518  16.151   7.740
    9AU     LIG 3950  28.674  15.739   7.768
    9AU     LIG 3951  28.638  15.290   7.868
    9AU     LIG 3952  28.680  14.896   8.108
    9AU     LIG 3953  28.695  14.424   8.170
    9AU    AUSL 3954  28.447  18.013   6.887
    9AU    AUSL 3955  28.988  17.949   7.272
    9AU     AUL 3956  28.781  18.152   6.972
    9AU       S 3957  28.402  18.397   6.814
    9AU     LIG 3958  28.570  18.685   6.527
    9AU     LIG 3959  28.676  19.124   6.473
    9AU     LIG 3960  28.600  19.574   6.402
    9AU     LIG 3961  28.474  19.975   6.211
    9AU       S 3962  29.213  18.089   7.139
    9AU     LIG 3963  29.636  18.172   6.864
    9AU     LIG 3964  29.767  18.434   6.480
    9AU     LIG 3965  29.959  18.816   6.257
    9AU     LIG 3966  30.104  19.292   6.251
    9AU    AUSL 3967  28.243  17.983   7.293
    9AU    AUSL 3968  28.211  17.674   6.951
    9AU     AUL 3969  28.126  18.038   6.907
    9AU       S 3970  28.189  18.411   7.177
    9AU     LIG 3971  28.342  18.916   6.981
    9AU     LIG 3972  28.457  19.381   6.876
    9AU     LIG 3973  28.436  19.866   6.807
    9AU     LIG 3974  28.125  20.116   6.579
    9AU       S 3975  27.892  17.871   6.563
    9AU     LIG 3976  27.748  17.907   6.132
    9AU     LIG 3977  27.557  18.241   5.865
    9AU     LIG 3978  27.369  18.604   5.614
    9AU     LIG 3979  27.297  18.873   5.215
    9AU    AUSL 3980  28.471  16.546   6.927
    9AU    AUSL 3981  27.870  16.580   7.228
    9AU     AUL 3982  28.131  16.422   6.976
    9AU       S 3983  27.672  16.527   7.003
    9AU     LIG 3984  27.378  16.230   6.806
    9AU     LIG 3985  27.119  15.854   6.640
    9AU     LIG 3986  26.792  15.571   6.415
    9AU     LIG 3987  26.528  15.251   6.175
    9AU       S 3988  28.534  16.165   6.985
    9AU     LIG 3989  28.646  15.810   6.745
    9AU     LIG 3990  28.556  15.359   6.703
    9AU     LIG 3991  28.475  14.990   6.443
    9AU     LIG 3992  28.443  14.897   5.976
    9AU    AUSL 3993  28.705  16.567   7.313
    9AU    AUSL 3994  28.714  16.884   6.964
    9AU     AUL 3995  28.807  16.527   6.930
    9AU       S 3996  28.798  16.201   7.265
    9AU     LIG 3997  28.718  15.702   7.245
    9AU     LIG 3998  28.585  15.262   7.204
    9AU     LIG 3999  28.705  14.902   6.932
    9AU     LIG 4000  29.049  14.603   6.909
    9AU       S 4001  29.042  16.709   6.592
    9AU     LIG 4002  28.901  16.247   6.536
    9AU     LIG 4003  29.070  15.833   6.371
    9AU     LIG 4004  29.356  15.589   6.071
    9AU     LIG 4005  29.656  15.409   5.762
   10AU     AUC 4006  12.941   1.180   7.511
   10AU     AUC 4007  13.224   1.186   7.336
   10AU     AUC 4008  13.214   1.175   7.682
   10AU     AUC 4009  12.655   1.174   7.341
   10AU     AUC 4010  12.668   1.212   7.696
   10AU     AUC 4011  12.764   1.456   7.508
   10AU     AUC 4012  13.135   1.457   7.502
   10AU     AUC 4013  12.753   0.911   7.514
   10AU     AUC 4014  13.104   0.888   7.508
   10AU     AUC 4015  12.942   1.010   7.788
   10AU     AUC 4016  12.936   1.359   7.780
   10AU     AUC 4017  12.935   1.012   7.234
   10AU     AUC 4018  12.960   1.331   7.233
   10AU     AUC 4019  13.538   1.185   7.163
   10AU     AUC 4020  13.552   1.148   7.524
   10AU     AUC 4021  13.494   1.155   7.859
   10AU     AUC 4022  12.359   1.165   7.167
   10AU     AUC 4023  12.329   1.206   7.532
   10AU     AUC 4024  12.373   1.236   7.886
   10AU     AUC 4025  12.594   1.767   7.486
   10AU     AUC 4026  12.952   1.784   7.466
   10AU     AUC 4027  13.325   1.740   7.492
   10AU     AUC 4028  12.550   0.632   7.521
   10AU     AUC 4029  12.903   0.577   7.501
   10AU     AUC 4030  13.266   0.582   7.492
   10AU     AUC 4031  12.928   0.838   8.081
   10AU     AUC 4032  12.963   1.215   8.120
   10AU     AUC 4033  12.953   1.551   8.062
   10AU     AUC 4034  12.958   0.836   6.958
   10AU     AUC 4035  12.952   1.172   6.898
   10AU     AUC 4036  12.946   1.496   6.930
   10AU     AUC 4037  13.217   0.989   8.002
   10AU     AUC 4038  13.253   1.363   7.992
   10AU     AUC 4039  13.268   1.033   7.002
   10AU     AUC 4040  13.269   1.355   7.040
   10AU     AUC 4041  12.637   1.049   8.027
   10AU     AUC 4042  12.653   1.412   7.994
   10AU     AUC 4043  12.637   0.987   7.049
   10AU     AUC 4044  12.623   1.312   7.001
   10AU     AUC 4045  13.485   1.458   7.362
   10AU     AUC 4046  13.444   1.472   7.693
   10AU     AUC 4047  12.459   1.478   7.318
   10AU     AUC 4048  12.454   1.522   7.685
   10AU     AUC 4049  13.408   0.871   7.329
   10AU     AUC 4050  13.388   0.833   7.685
   10AU     AUC 4051  12.417   0.875   7.370
   10AU     AUC 4052  12.469   0.930   7.725
   10AU     AUC 4053  12.758   1.716   7.775
   10AU     AUC 4054  13.123   1.664   7.757
   10AU     AUC 4055  12.741   0.711   7.813
   10AU     AUC 4056  13.071   0.663   7.787
   10AU     AUC 4057  12.776   1.610   7.193
   10AU     AUC 4058  13.159   1.652   7.204
   10AU     AUC 4059  12.740   0.701   7.219
   10AU     AUC 4060  13.130   0.716   7.210
   10AU    AUSL 4061  13.497   1.127   8.197
   10AU    AUSL 4062  13.209   0.675   8.175
   10AU     AUL 4063  13.536   0.710   8.337
   10AU       S 4064  13.518   0.267   8.182
   10AU     LIG 4065  13.480   0.142   8.571
   10AU     LIG 4066  13.695  44.775   8.736
   10AU     LIG 4067  13.993  44.440   8.857
   10AU     LIG 4068  14.213  44.301   9.220
   10AU       S 4069  13.763   1.094   8.263
   10AU     LIG 4070  13.727   1.014   8.727
   10AU     LIG 4071  13.782   0.952   9.199
   10AU     LIG 4072  14.044   0.875   9.592
   10AU     LIG 4073  14.407   0.874   9.899
   10AU    AUSL 4074  13.104   1.030   8.389
   10AU    AUSL 4075  12.814   1.378   8.409
   10AU     AUL 4076  13.014   1.329   8.732
   10AU       S 4077  13.253   0.980   8.561
   10AU     LIG 4078  13.084   0.864   8.923
   10AU     LIG 4079  13.302   0.763   9.305
   10AU     LIG 4080  13.546   0.757   9.696
   10AU     LIG 4081  13.532   0.592  10.138
   10AU       S 4082  12.621   1.108   8.653
   10AU     LIG 4083  12.656   1.102   9.139
   10AU     LIG 4084  12.357   1.148   9.508
   10AU     LIG 4085  12.163   1.204   9.944
   10AU     LIG 4086  11.915   1.436  10.282
   10AU    AUSL 4087  13.220   1.452   8.338
   10AU    AUSL 4088  13.579   1.536   8.083
   10AU     AUL 4089  13.507   1.402   8.482
   10AU       S 4090  13.085   1.756   8.484
   10AU     LIG 4091  13.351   1.705   8.852
   10AU     LIG 4092  13.590   1.732   9.263
   10AU     LIG 4093  13.642   1.798   9.744
   10AU     LIG 4094  13.670   1.888  10.221
   10AU       S 4095  13.621   1.786   8.253
   10AU     LIG 4096  14.003   1.564   8.363
   10AU     LIG 4097  14.326   1.766   8.665
   10AU     LIG 4098  14.594   2.055   8.958
   10AU     LIG 4099  14.814   2.422   9.164
   10AU    AUSL 4100  13.487   1.310   6.774
   10AU    AUSL 4101  13.271   1.629   6.979
   10AU     AUL 4102  13.406   1.691   6.637
   10AU       S 4103  13.438   1.356   6.331
   10AU     LIG 4104  13.829   1.242   6.141
   10AU     LIG 4105  13.967   0.940   5.851
   10AU     LIG 4106  14.003   0.880   5.411
   10AU     LIG 4107  14.178   0.712   5.018
   10AU       S 4108  13.749   1.873   6.909
   10AU     LIG 4109  13.737   2.108   6.521
   10AU     LIG 4110  13.926   2.318   6.117
   10AU     LIG 4111  14.190   2.467   5.742
   10AU     LIG 4112  14.457   2.640   5.398
   10AU    AUSL 4113  13.250   0.986   6.617
   10AU    AUSL 4114  13.600   0.923   6.916
   10AU     AUL 4115  13.674   1.063   6.622
   10AU       S 4116  13.715   0.599   6.667
   10AU     LIG 4117  14.124   0.370   6.541
   10AU     LIG 4118  14.312  44.950   6.412
   10AU     LIG 4119  14.621  44.794   6.087
   10AU     LIG 4120  14.827  44.514   5.756
   10AU       S 4121  13.356   1.194   6.304
   10AU     LIG 4122  13.520   0.821   6.132
   10AU     LIG 4123  13.605   0.607   5.702
   10AU     LIG 4124  13.647   0.557   5.227
   10AU     LIG 4125  13.673   0.639   4.761
   10AU    AUSL 4126  13.062   1.370   6.703
   10AU    AUSL 4127  12.837   0.972   6.740
   10AU     AUL 4128  12.981   0.992   6.452
   10AU       S 4129  12.547   0.996   6.300
   10AU     LIG 4130  12.442   0.799   5.894
   10AU     LIG 4131  12.216   0.626   5.526
   10AU     LIG 4132  12.168   0.632   5.066
   10AU     LIG 4133  12.335   0.397   4.696
   10AU       S 4134  13.113   1.435   6.368
   10AU     LIG 4135  13.208   1.316   5.865
   10AU     LIG 4136  13.537   1.106   5.567
   10AU     LIG 4137  13.641   1.061   5.088
   10AU     LIG 4138  13.577   1.133   4.609
   10AU    AUSL 4139  12.418   1.305   8.258
   10AU    AUSL 4140  12.699   1.653   8.112
   10AU     AUL 4141  12.567   1.606   8.462
   10AU       S 4142  12.450   1.225   8.712
   10AU     LIG 4143  12.184   0.920   8.884
   10AU     LIG 4144  11.944   0.896   9.297
   10AU     LIG 4145  11.756   0.990   9.725
   10AU     LIG 4146  11.664   1.000  10.193
   10AU       S 4147  12.260   1.898   8.227
   10AU     LIG 4148  12.373   2.103   8.595
   10AU     LIG 4149  12.306   2.373   8.962
   10AU     LIG 4150  11.972   2.587   9.181
   10AU     LIG 4151  11.663   2.682   9.512
   10AU    AUSL 4152  12.729   1.020   8.186
   10AU    AUSL 4153  12.297   0.898   8.140
   10AU     AUL 4154  12.241   1.103   8.324
   10AU       S 4155  12.172   0.649   8.398
   10AU     LIG 4156  11.743   0.600   8.227
   10AU     LIG 4157  11.440   0.272   8.371
   10AU     LIG 4158  11.218  44.986   8.670
   10AU     LIG 4159  11.099  44.844   9.111
   10AU       S 4160  12.654   0.963   8.564
   10AU     LIG 4161  12.619   0.652   8.899
   10AU     LIG 4162  12.410   0.663   9.306
   10AU     LIG 4163  12.193   0.707   9.722
   10AU     LIG 4164  12.101   0.737  10.174
   10AU    AUSL 4165  12.415   1.046   6.783
   10AU    AUSL 4166  12.614   0.688   6.961
   10AU     AUL 4167  12.664   0.676   6.630
   10AU       S 4168  12.378   0.940   6.394
   10AU     LIG 4169  12.042   0.775   6.231
   10AU     LIG 4170  11.899   0.914   5.821
   10AU     LIG 4171  11.814   0.913   5.363
   10AU     LIG 4172  11.678   0.774   4.941
   10AU       S 4173  12.242   0.583   6.781
   10AU     LIG 4174  12.296   0.213   6.556
   10AU     LIG 4175  11.966  44.897   6.401
   10AU     LIG 4176  11.591  44.623   6.256
   10AU     LIG 4177  11.323  44.403   5.922
   10AU    AUSL 4178  12.653   1.354   6.601
   10AU    AUSL 4179  12.291   1.447   6.905
   10AU     AUL 4180  12.208   1.291   6.618
   10AU       S 4181  12.343   1.721   6.663
   10AU     LIG 4182  11.938   1.775   6.613
   10AU     LIG 4183  11.752   2.076   6.310
   10AU     LIG 4184  11.574   2.319   5.959
   10AU     LIG 4185  11.367   2.341   5.542
   10AU       S 4186  12.604   1.283   6.354
   10AU     LIG 4187  12.274   1.278   5.993
   10AU     LIG 4188  12.260   1.145   5.525
   10AU     LIG 4189  12.148   1.163   5.058
   10AU     LIG 4190  12.027   1.455   4.698
   10AU    AUSL 4191  13.752   1.635   7.527
   10AU    AUSL 4192  13.654   1.463   7.133
   10AU     AUL 4193  14.027   1.720   7.303
   10AU       S 4194  13.754   1.648   6.955
   10AU     LIG 4195  13.889   1.569   6.536
   10AU     LIG 4196  14.143   1.870   6.290
   10AU     LIG 4197  14.441   2.162   6.084
   10AU     LIG 4198  14.705   2.439   5.805
   10AU       S 4199  14.164   1.493   7.697
   10AU     LIG 4200  14.567   1.721   7.595
   10AU     LIG 4201  15.022   1.887   7.517
   10AU     LIG 4202  15.467   2.095   7.498
   10AU     LIG 4203  15.692   2.452   7.694
   10AU    AUSL 4204  13.918   1.243   7.391
   10AU    AUSL 4205  13.849   0.919   7.696
   10AU     AUL 4206  14.217   0.989   7.737
   10AU       S 4207  14.064   1.283   7.433
   10AU     LIG 4208  14.541   1.240   7.430
   10AU     LIG 4209  15.002   1.399   7.338
   10AU     LIG 4210  15.391   1.663   7.219
   10AU     LIG 4211  15.790   1.847   7.017
   10AU       S 4212  14.085   0.600   7.513
   10AU     LIG 4213  14.505   0.436   7.563
   10AU     LIG 4214  14.864   0.257   7.774
   10AU     LIG 4215  15.339   0.391   7.841
   10AU     LIG 4216  15.823   0.477   7.826
   10AU    AUSL 4217  13.663   1.291   7.758
   10AU    AUSL 4218  13.504   1.865   7.787
   10AU     AUL 4219  13.795   1.737   7.827
   10AU       S 4220  13.692   2.067   8.143
   10AU     LIG 4221  14.091   2.062   8.304
   10AU     LIG 4222  14.348   2.303   8.589
   10AU     LIG 4223  14.541   2.672   8.798
   10AU     LIG 4224  14.572   3.106   8.981
   10AU       S 4225  13.980   1.336   7.888
   10AU     LIG 4226  14.503   1.333   7.994
   10AU     LIG 4227  14.951   1.465   7.843
   10AU     LIG 4228  15.401   1.648   7.777
   10AU     LIG 4229  15.748   1.953   7.933
   10AU    AUSL 4230  12.262   1.737   7.519
   10AU    AUSL 4231  12.325   1.535   7.922
   10AU     AUL 4232  12.021   1.845   7.766
   10AU       S 4233  12.177   1.684   8.172
   10AU     LIG 4234  12.083   1.662   8.628
   10AU     LIG 4235  11.912   2.040   8.874
   10AU     LIG 4236  11.572   2.280   9.108
   10AU     LIG 4237  11.248   2.375   9.444
   10AU       S 4238  12.242   2.125   7.448
   10AU     LIG 4239  11.780   2.256   7.563
   10AU     LIG 4240  11.329   2.482   7.643
   10AU     LIG 4241  10.912   2.755   7.744
   10AU     LIG 4242  10.453   2.957   7.721
   10AU    AUSL 4243  12.230   1.359   7.307
   10AU    AUSL 4244  12.390   1.814   7.127
   10AU     AUL 4245  12.073   1.673   7.150
   10AU       S 4246  11.903   1.185   6.976
   10AU     LIG 4247  11.537   1.455   7.011
   10AU     LIG 4248  11.098   1.503   6.840
   10AU     LIG 4249  10.677   1.707   6.792
   10AU     LIG 4250  10.356   1.835   7.067
   10AU       S 4251  12.203   2.085   6.924
   10AU     LIG 4252  12.150   2.318   6.530
   10AU     LIG 4253  11.885   2.619   6.272
   10AU     LIG 4254  11.582   2.969   6.183
   10AU     LIG 4255  11.418   3.409   6.105
   10AU    AUSL 4256  12.012   1.395   7.690
   10AU    AUSL 4257  11.986   1.035   7.410
   10AU     AUL 4258  11.836   1.370   7.410
   10AU       S 4259  11.780   0.960   7.673
   10AU     LIG 4260  11.475   1.027   7.338
   10AU     LIG 4261  11.025   0.907   7.288
   10AU     LIG 4262  10.584   0.809   7.173
   10AU     LIG 4263  10.202   0.535   7.225
   10AU       S 4264  11.846   1.422   7.918
   10AU     LIG 4265  11.442   1.496   7.734
   10AU     LIG 4266  10.969   1.663   7.782
   10AU     LIG 4267  10.604   1.975   7.925
   10AU     LIG 4268  10.169   2.229   8.002
   10AU    AUSL 4269  13.611   0.593   7.532
   10AU    AUSL 4270  13.477   0.851   7.885
   10AU     AUL 4271  13.803   0.712   7.905
   10AU       S 4272  13.891   0.453   7.500
   10AU     LIG 4273  14.188   0.080   7.370
   10AU     LIG 4274  14.681  44.968   7.318
   10AU     LIG 4275  15.093  44.679   7.374
   10AU     LIG 4276  15.444  44.507   7.588
   10AU       S 4277  13.654   0.323   8.077
   10AU     LIG 4278  13.928   0.019   8.298
   10AU     LIG 4279  14.185  44.820   8.586
   10AU     LIG 4280  14.414  44.723   8.989
   10AU     LIG 4281  14.804  44.904   9.179
   10AU    AUSL 4282  13.612   0.970   7.330
   10AU    AUSL 4283  13.532   0.540   7.121
   10AU     AUL 4284  13.780   0.726   7.130
   10AU       S 4285  14.160   0.767   7.343
   10AU     LIG 4286  14.353   0.468   7.068
   10AU     LIG 4287  14.825   0.404   7.083
   10AU     LIG 4288  15.297   0.489   7.021
   10AU     LIG 4289  15.652   0.431   7.321
   10AU       S 4290  13.725   0.369   6.827
   10AU     LIG 4291  13.963  44.955   6.804
   10AU     LIG 4292  14.048  44.497   6.670
   10AU     LIG 4293  14.244  44.128   6.424
   10AU     LIG 4294  14.625  43.817   6.262
   10AU    AUSL 4295  12.180   0.672   7.566
   10AU    AUSL 4296  12.293   0.902   7.158
   10AU     AUL 4297  11.939   0.740   7.278
   10AU       S 4298  12.101   0.709   6.846
   10AU     LIG 4299  11.811   0.401   6.593
   10AU     LIG 4300  11.492   0.042   6.560
   10AU     LIG 4301  11.115  44.823   6.351
   10AU     LIG 4302  10.852  44.697   5.968
   10AU       S 4303  11.754   0.721   7.718
   10AU     LIG 4304  11.356   0.567   7.523
   10AU     LIG 4305  10.913   0.407   7.393
   10AU     LIG 4306  10.563   0.155   7.538
   10AU     LIG 4307  10.210  44.961   7.344
   10AU    AUSL 4308  12.248   1.055   7.758
   10AU    AUSL 4309  12.506   0.684   7.837
   10AU     AUL 4310  12.174   0.642   7.902
   10AU       S 4311  12.205   0.438   8.308
   10AU     LIG 4312  11.910   0.093   8.226
   10AU     LIG 4313  11.528  44.774   8.251
   10AU     LIG 4314  11.157  44.533   8.416
   10AU     LIG 4315  10.842  44.198   8.578
   10AU       S 4316  11.839   0.957   7.865
   10AU     LIG 4317  11.322   0.997   7.833
   10AU     LIG 4318  10.939   0.740   7.788
   10AU     LIG 4319  10.499   0.644   7.663
   10AU     LIG 4320  10.113   0.349   7.701
   10AU    AUSL 4321  12.918   1.996   7.980
   10AU    AUSL 4322  12.503   1.909   7.829
   10AU     AUL 4323  12.717   1.991   8.222
   10AU       S 4324  12.375   2.117   7.932
   10AU     LIG 4325  12.098   2.366   8.222
   10AU     LIG 4326  11.932   2.522   8.639
   10AU     LIG 4327  11.788   2.927   8.837
   10AU     LIG 4328  11.538   3.316   8.941
   10AU       S 4329  12.921   2.344   7.964
   10AU     LIG 4330  13.095   2.353   8.350
   10AU     LIG 4331  13.201   2.776   8.501
   10AU     LIG 4332  13.087   3.189   8.699
   10AU     LIG 4333  12.967   3.448   9.085
   10AU    AUSL 4334  12.747   2.133   7.578
   10AU    AUSL 4335  13.126   2.084   7.224
   10AU     AUL 4336  12.831   2.342   7.319
   10AU       S 4337  12.809   2.421   7.781
   10AU     LIG 4338  12.905   2.833   8.062
   10AU     LIG 4339  12.790   3.259   8.261
   10AU     LIG 4340  12.566   3.691   8.327
   10AU     LIG 4341  12.452   4.142   8.431
   10AU       S 4342  13.048   2.373   6.913
   10AU     LIG 4343  13.446   2.545   6.928
   10AU     LIG 4344  13.553   2.999   6.813
   10AU     LIG 4345  13.812   3.423   6.811
   10AU     LIG 4346  13.928   3.897   6.759
   10AU    AUSL 4347  13.130   1.920   7.613
   10AU    AUSL 4348  13.177   1.670   7.993
   10AU     AUL 4349  13.257   2.025   7.990
   10AU       S 4350  13.506   1.916   8.363
   10AU     LIG 4351  13.807   1.889   8.711
   10AU     LIG 4352  14.078   2.103   8.992
   10AU     LIG 4353  14.298   2.450   9.193
   10AU     LIG 4354  14.359   2.871   9.391
   10AU       S 4355  13.172   2.331   7.660
   10AU     LIG 4356  13.368   2.608   7.994
   10AU     LIG 4357  13.444   3.075   8.143
   10AU     LIG 4358  13.742   3.484   8.187
   10AU     LIG 4359  13.845   3.905   8.408
   10AU    AUSL 4360  12.892   0.500   7.944
   10AU    AUSL 4361  13.307   0.467   7.800
   10AU     AUL 4362  13.078   0.374   8.186
   10AU       S 4363  12.883  44.996   8.012
   10AU     LIG 4364  12.830  44.755   8.368
   10AU     LIG 4365  12.753  44.366   8.615
   10AU     LIG 4366  12.687  43.889   8.664
   10AU     LIG 4367  12.611  43.427   8.785
   10AU       S 4368  13.463   0.309   7.886
   10AU     LIG 4369  13.890   0.011   7.788
   10AU     LIG 4370  14.212  44.693   7.961
   10AU     LIG 4371  14.295  44.394   8.330
   10AU     LIG 4372  14.460  44.231   8.751
   10AU    AUSL 4373  12.572   0.306   7.683
   10AU    AUSL 4374  12.644   0.622   8.255
   10AU     AUL 4375  12.561   0.346   8.027
   10AU       S 4376  12.692  44.919   7.857
   10AU     LIG 4377  12.386  44.645   7.642
   10AU     LIG 4378  12.158  44.212   7.696
   10AU     LIG 4379  12.165  43.777   7.927
   10AU     LIG 4380  12.281  43.357   8.098
   10AU       S 4381  12.436   0.531   8.458
   10AU     LIG 4382  12.152   0.189   8.717
   10AU     LIG 4383  11.744  44.924   8.696
   10AU     LIG 4384  11.457  44.564   8.840
   10AU     LIG 4385  11.268  44.371   9.225
   10AU    AUSL 4386  13.001   0.235   7.626
   10AU    AUSL 4387  12.758   0.464   7.331
   10AU     AUL 4388  12.638   0.127   7.442
   10AU       S 4389  12.971   0.010   7.162
   10AU     LIG 4390  12.595  44.731   7.127
   10AU     LIG 4391  12.344  44.334   7.219
   10AU     LIG 4392  12.321  43.925   6.961
   10AU     LIG 4393  12.485  43.629   6.629
   10AU       S 4394  13.009   0.024   7.765
   10AU     LIG 4395  13.051  44.531   7.946
   10AU     LIG 4396  13.385  44.230   8.100
   10AU     LIG 4397  13.415  43.768   8.232
   10AU     LIG 4398  13.345  43.279   8.281
   10AU    AUSL 4399  12.955   1.879   6.869
   10AU    AUSL 4400  13.464   1.839   7.299
   10AU     AUL 4401  13.307   2.004   6.954
   10AU       S 4402  12.943   2.091   6.659
   10AU     LIG 4403  13.279   2.370   6.474
   10AU     LIG 4404  13.353   2.823   6.343
   10AU     LIG 4405  13.204   3.185   6.069
   10AU     LIG 4406  13.230   3.427   5.648
   10AU       S 4407  13.684   2.012   7.208
   10AU     LIG 4408  13.990   2.297   6.942
   10AU     LIG 4409  14.227   2.368   6.527
   10AU     LIG 4410  14.384   2.669   6.175
   10AU     LIG 4411  14.532   3.011   5.862
   10AU    AUSL 4412  12.777   1.843   7.285
   10AU    AUSL 4413  12.702   1.564   6.958
   10AU     AUL 4414  12.645   2.003   7.034
   10AU       S 4415  12.862   2.349   6.841
   10AU     LIG 4416  13.019   2.817   6.728
   10AU     LIG 4417  12.919   3.230   6.554
   10AU     LIG 4418  12.543   3.524   6.597
   10AU     LIG 4419  12.338   3.940   6.635
   10AU       S 4420  12.506   1.815   6.639
   10AU     LIG 4421  12.275   1.926   6.220
   10AU     LIG 4422  12.094   2.269   5.952
   10AU     LIG 4423  11.885   2.524   5.594
   10AU     LIG 4424  11.813   2.829   5.227
   10AU    AUSL 4425  12.943   0.422   6.937
   10AU    AUSL 4426  12.352   0.472   7.235
   10AU     AUL 4427  12.601   0.312   6.998
   10AU       S 4428  12.145   0.428   6.996
   10AU     LIG 4429  11.959   0.003   6.907
   10AU     LIG 4430  11.690  44.606   6.783
   10AU     LIG 4431  11.299  44.373   6.622
   10AU     LIG 4432  10.989  44.333   6.293
   10AU       S 4433  12.971   0.024   6.925
   10AU     LIG 4434  12.891  44.680   6.686
   10AU     LIG 4435  13.077  44.332   6.498
   10AU     LIG 4436  12.894  44.071   6.161
   10AU     LIG 4437  12.793  43.576   6.202
   10AU    AUSL 4438  13.182   0.445   7.317
   10AU    AUSL 4439  13.194   0.754   6.960
   10AU     AUL 4440  13.284   0.364   6.966
   10AU       S 4441  13.114   0.021   7.232
   10AU     LIG 4442  13.155  44.538   7.091
   10AU     LIG 4443  13.245  44.092   6.986
   10AU     LIG 4444  13.353  43.679   6.827
   10AU     LIG 4445  13.065  43.391   6.601
   10AU       S 4446  13.465   0.573   6.603
   10AU     LIG 4447  13.566   0.174   6.393
   10AU     LIG 4448  13.805  44.796   6.328
   10AU     LIG 4449  14.129  44.540   6.129
   10AU     LIG 4450  14.316  44.561   5.708
   11POPC   NC3 4451  40.237   7.048   9.555
   11POPC   PO4 4452  40.077   7.714   9.419
   11POPC   GL1 4453  40.071   7.570   9.022
   11POPC   GL2 4454  40.055   7.208   9.078
   11POPC   C1A 4455  40.124   7.469   8.585
   11POPC   D2A 4456  40.110   7.270   8.194
   11POPC   C3A 4457  39.992   7.480   7.854
   11POPC   C4A 4458  40.253   7.417   7.500
   11POPC   C1B 4459  39.704   7.258   8.807
   11POPC   C2B 4460  39.639   7.376   8.377
   11POPC   C3B 4461  39.611   7.153   7.997
   11POPC   C4B 4462  39.636   7.234   7.558
   12POPC   NC3 4463  30.357  28.979   9.469
   12POPC   PO4 4464  30.904  29.465   9.465
   12POPC   GL1 4465  30.921  29.199   9.122
   12POPC   GL2 4466  30.558  29.267   9.054
   12POPC   C1A 4467  30.962  29.143   8.686
   12POPC   D2A 4468  30.594  29.282   8.491
   12POPC   C3A 4469  30.539  29.291   8.053
   12POPC   C4A 4470  30.841  29.370   7.737
   12POPC   C1B 4471  30.586  28.853   8.851
   12POPC   C2B 4472  30.545  28.755   8.393
   12POPC   C3B 4473  30.679  28.815   7.945
   12POPC   C4B 4474  30.445  29.015   7.613
   13POPC   NC3 4475  20.384   5.741   9.635
   13POPC   PO4 4476  20.626   5.131   9.678
   13POPC   GL1 4477  20.581   5.367   9.281
   13POPC   GL2 4478  20.254   5.277   9.119
   13POPC   C1A 4479  20.738   5.308   8.856
   13POPC   D2A 4480  20.811   4.948   8.553
   13POPC   C3A 4481  20.961   5.104   8.159
   13POPC   C4A 4482  20.776   5.399   7.856
   13POPC   C1B 4483  20.292   5.078   8.681
   13POPC   C2B 4484  20.357   4.690   8.425
   13POPC   C3B 4485  20.613   4.739   8.070
   13POPC   C4B 4486  20.574   4.928   7.669
   14POPC   NC3 4487  17.458  14.729   9.326
   14POPC   PO4 4488  17.906  14.259   9.551
   14POPC   GL1 4489  17.681  14.284   9.183
   14POPC   GL2 4490  17.832  14.583   9.004
   14POPC   C1A 4491  17.804  14.085   8.813
   14POPC   D2A 4492  17.896  13.919   8.406
   14POPC   C3A 4493  17.845  14.239   8.121
   14POPC   C4A 4494  17.597  14.269   7.763
   14POPC   C1B 4495  17.485  14.501   8.719
   14POPC   C2B 4496  17.248  14.537   8.357
   14POPC   C3B 4497  17.063  14.599   7.971
   14POPC   C4B 4498  17.134  14.395   7.596
   15POPC   NC3 4499  38.969  32.423   9.352
   15POPC   PO4 4500  39.623  32.058   9.293
   15POPC   GL1 4501  39.289  32.179   9.066
   15POPC   GL2 4502  39.335  32.516   9.015
   15POPC   C1A 4503  39.072  32.279   8.676
   15POPC   D2A 4504  39.226  32.536   8.365
   15POPC   C3A 4505  39.323  32.353   7.961
   15POPC   C4A 4506  39.020  32.101   7.742
   15POPC   C1B 4507  38.955  32.770   8.806
   15POPC   C2B 4508  38.678  32.763   8.424
   15POPC   C3B 4509  38.807  32.829   7.991
   15POPC   C4B 4510  39.043  32.644   7.644
   16POPC   NC3 4511  15.015  40.440   9.625
   16POPC   PO4 4512  14.746  41.026   9.684
   16POPC   GL1 4513  15.190  40.794   9.317
   16POPC   GL2 4514  15.325  40.439   9.213
   16POPC   C1A 4515  15.276  40.873   8.846
   16POPC   D2A 4516  14.969  40.758   8.492
   16POPC   C3A 4517  15.137  40.741   8.078
   16POPC   C4A 4518  15.425  40.981   7.835
   16POPC   C1B 4519  15.260  40.380   8.764
   16POPC   C2B 4520  15.454  40.379   8.333
   16POPC   C3B 4521  15.278  40.272   7.908
   16POPC   C4B 4522  14.977  40.487   7.658
   17POPC   NC3 4523  28.094  34.120   9.517
   17POPC   PO4 4524  28.350  33.501   9.397
   17POPC   GL1 4525  28.409  33.722   9.066
   17POPC   GL2 4526  28.605  33.968   9.209
   17POPC   C1A 4527  28.237  33.932   8.745
   17POPC   D2A 4528  28.350  34.083   8.357
   17POPC   C3A 4529  28.243  33.803   8.054
   17POPC   C4A 4530  28.196  33.973   7.672
   17POPC   C1B 4531  28.741  33.960   8.753
   17POPC   C2B 4532  28.874  34.116   8.349
   17POPC   C3B 4533  28.692  34.089   7.948
   17POPC   C4B 4534  28.644  34.230   7.531
   18POPC   NC3 4535  33.929  35.275   9.393
   18POPC   PO4 4536  34.617  35.294   9.463
   18POPC   GL1 4537  34.746  35.413   9.039
   18POPC   GL2 4538  35.064  35.214   8.931
   18POPC   C1A 4539  34.548  35.440   8.646
   18POPC   D2A 4540  34.384  35.139   8.339
   18POPC   C3A 4541  34.492  35.253   7.919
   18POPC   C4A 4542  34.562  35.686   7.831
   18POPC   C1B 4543  35.060  35.557   8.658
   18POPC   C2B 4544  34.876  35.553   8.235
   18POPC   C3B 4545  35.015  35.400   7.809
   18POPC   C4B 4546  34.934  35.319   7.352
   19POPC   NC3 4547  44.955  11.885   9.330
   19POPC   PO4 4548   0.508  12.180   9.552
   19POPC   GL1 4549   0.498  11.976   9.176
   19POPC   GL2 4550   0.606  11.680   9.333
   19POPC   C1A 4551   0.407  11.977   8.728
   19POPC   D2A 4552   0.626  12.081   8.332
   19POPC   C3A 4553   0.299  12.200   8.040
   19POPC   C4A 4554   0.216  12.275   7.602
   19POPC   C1B 4555   0.645  11.543   8.891
   19POPC   C2B 4556   0.544  11.542   8.440
   19POPC   C3B 4557   0.728  11.654   8.039
   19POPC   C4B 4558   0.710  12.015   7.783
   20POPC   NC3 4559  21.795  31.912   9.443
   20POPC   PO4 4560  21.366  32.550   9.372
   20POPC   GL1 4561  21.640  32.315   9.127
   20POPC   GL2 4562  21.558  31.987   8.980
   20POPC   C1A 4563  21.687  32.491   8.730
   20POPC   D2A 4564  21.782  32.583   8.315
   20POPC   C3A 4565  21.515  32.380   8.042
   20POPC   C4A 4566  21.264  32.523   7.690
   20POPC   C1B 4567  21.235  32.045   8.657
   20POPC   C2B 4568  21.209  31.941   8.222
   20POPC   C3B 4569  21.208  32.027   7.804
   20POPC   C4B 4570  21.360  31.892   7.431
   21POPC   NC3 4571  40.877  37.724   9.564
   21POPC   PO4 4572  40.965  37.031   9.401
   21POPC   GL1 4573  40.814  37.405   9.123
   21POPC   GL2 4574  40.862  37.785   9.075
   21POPC   C1A 4575  40.482  37.456   8.795
   21POPC   D2A 4576  40.334  37.425   8.364
   21POPC   C3A 4577  40.691  37.264   8.144
   21POPC   C4A 4578  40.854  37.456   7.844
   21POPC   C1B 4579  40.726  37.894   8.671
   21POPC   C2B 4580  40.804  37.727   8.307
   21POPC   C3B 4581  40.850  37.946   7.959
   21POPC   C4B 4582  40.700  38.212   7.729
   22POPC   NC3 4583   5.982  14.247   9.515
   22POPC   PO4 4584   5.944  14.939   9.553
   22POPC   GL1 4585   6.036  14.629   9.185
   22POPC   GL2 4586   5.808  14.395   9.044
   22POPC   C1A 4587   6.201  14.601   8.798
   22POPC   D2A 4588   5.854  14.563   8.492
   22POPC   C3A 4589   5.932  14.563   8.029
   22POPC   C4A 4590   5.800  14.534   7.588
   22POPC   C1B 4591   6.044  14.136   8.750
   22POPC   C2B 4592   6.060  14.134   8.282
   22POPC   C3B 4593   6.101  14.070   7.827
   22POPC   C4B 4594   5.892  14.039   7.437
   23POPC   NC3 4595  28.006  20.234   9.509
   23POPC   PO4 4596  27.488  19.919   9.544
   23POPC   GL1 4597  27.436  19.942   9.108
   23POPC   GL2 4598  27.423  20.290   9.136
   23POPC   C1A 4599  27.255  19.854   8.669
   23POPC   D2A 4600  27.030  19.758   8.256
   23POPC   C3A 4601  27.303  19.752   7.882
   23POPC   C4A 4602  27.776  19.891   7.860
   23POPC   C1B 4603  27.627  20.228   8.726
   23POPC   C2B 4604  27.524  20.110   8.302
   23POPC   C3B 4605  27.381  20.239   7.922
   23POPC   C4B 4606  27.570  20.160   7.487
   24POPC   NC3 4607  19.836   0.224   9.545
   24POPC   PO4 4608  19.481   0.871   9.384
   24POPC   GL1 4609  19.692   0.760   9.020
   24POPC   GL2 4610  19.925   0.494   9.117
   24POPC   C1A 4611  19.747   0.558   8.639
   24POPC   D2A 4612  20.082   0.493   8.364
   24POPC   C3A 4613  19.899   0.452   7.967
   24POPC   C4A 4614  19.865   0.538   7.560
   24POPC   C1B 4615  20.093   0.163   8.859
   24POPC   C2B 4616  19.940   0.011   8.477
   24POPC   C3B 4617  19.668   0.053   8.153
   24POPC   C4B 4618  19.586  44.952   7.737
   25POPC   NC3 4619  28.957   0.609   9.417
   25POPC   PO4 4620  29.351   0.053   9.476
   25POPC   GL1 4621  29.290   0.304   9.104
   25POPC   GL2 4622  29.414   0.683   9.147
   25POPC   C1A 4623  28.996   0.174   8.712
   25POPC   D2A 4624  28.712   0.099   8.319
   25POPC   C3A 4625  28.997   0.047   7.966
   25POPC   C4A 4626  29.280   0.371   7.786
   25POPC   C1B 4627  29.259   0.632   8.730
   25POPC   C2B 4628  29.291   0.464   8.331
   25POPC   C3B 4629  29.241   0.806   8.056
   25POPC   C4B 4630  29.293   0.965   7.677
   26POPC   NC3 4631  15.828  11.451   9.533
   26POPC   PO4 4632  16.530  11.312   9.527
   26POPC   GL1 4633  16.169  11.265   9.180
   26POPC   GL2 4634  15.790  11.111   9.164
   26POPC   C1A 4635  15.933  11.474   8.806
   26POPC   D2A 4636  15.705  11.610   8.402
   26POPC   C3A 4637  15.802  11.497   7.942
   26POPC   C4A 4638  16.171  11.384   7.648
   26POPC   C1B 4639  15.941  10.960   8.769
   26POPC   C2B 4640  15.895  11.114   8.342
   26POPC   C3B 4641  15.946  11.001   7.912
   26POPC   C4B 4642  15.739  11.135   7.522
   27POPC   NC3 4643  43.948  20.136   9.575
   27POPC   PO4 4644  44.088  20.765   9.314
   27POPC   GL1 4645  44.013  20.395   9.135
   27POPC   GL2 4646  43.653  20.301   9.173
   27POPC   C1A 4647  43.958  20.338   8.719
   27POPC   D2A 4648  43.851  20.603   8.357
   27POPC   C3A 4649  44.011  20.552   7.921
   27POPC   C4A 4650  44.057  20.794   7.484
   27POPC   C1B 4651  43.576  20.659   8.870
   27POPC   C2B 4652  43.377  20.767   8.470
   27POPC   C3B 4653  43.520  20.857   8.040
   27POPC   C4B 4654  43.582  20.649   7.640
   28POPC   NC3 4655  37.961  13.434   9.429
   28POPC   PO4 4656  37.554  13.974   9.517
   28POPC   GL1 4657  37.588  13.763   9.119
   28POPC   GL2 4658  37.414  13.458   9.140
   28POPC   C1A 4659  37.742  13.649   8.691
   28POPC   D2A 4660  37.971  13.902   8.359
   28POPC   C3A 4661  37.774  13.915   7.929
   28POPC   C4A 4662  37.639  13.541   7.731
   28POPC   C1B 4663  37.411  13.226   8.745
   28POPC   C2B 4664  37.466  13.376   8.335
   28POPC   C3B 4665  37.317  13.199   7.967
   28POPC   C4B 4666  37.165  13.352   7.608
   29POPC   NC3 4667  10.103  25.120   9.719
   29POPC   PO4 4668   9.563  24.978   9.372
   29POPC   GL1 4669   9.883  25.224   9.142
   29POPC   GL2 4670  10.006  25.522   9.287
   29POPC   C1A 4671   9.851  25.307   8.712
   29POPC   D2A 4672   9.691  25.084   8.332
   29POPC   C3A 4673   9.918  25.178   7.987
   29POPC   C4A 4674   9.724  25.212   7.586
   29POPC   C1B 4675  10.285  25.584   8.920
   29POPC   C2B 4676  10.209  25.603   8.486
   29POPC   C3B 4677   9.827  25.602   8.251
   29POPC   C4B 4678   9.840  25.667   7.811
   30POPC   NC3 4679  30.670  32.662   9.494
   30POPC   PO4 4680  30.354  32.148   9.706
   30POPC   GL1 4681  30.534  32.283   9.204
   30POPC   GL2 4682  30.876  32.375   9.108
   30POPC   C1A 4683  30.571  32.115   8.763
   30POPC   D2A 4684  30.747  32.308   8.412
   30POPC   C3A 4685  30.550  32.141   8.065
   30POPC   C4A 4686  30.616  32.034   7.656
   30POPC   C1B 4687  30.621  32.613   8.819
   30POPC   C2B 4688  30.308  32.544   8.568
   30POPC   C3B 4689  30.342  32.602   8.152
   30POPC   C4B 4690  30.501  32.551   7.760
   31POPC   NC3 4691  32.550   5.947   9.568
   31POPC   PO4 4692  33.290   5.922   9.561
   31POPC   GL1 4693  33.027   5.951   9.200
   31POPC   GL2 4694  33.268   5.732   9.067
   31POPC   C1A 4695  33.110   6.116   8.749
   31POPC   D2A 4696  33.321   6.110   8.320
   31POPC   C3A 4697  33.091   6.243   7.953
   31POPC   C4A 4698  32.639   6.169   7.903
   31POPC   C1B 4699  32.896   5.659   8.800
   31POPC   C2B 4700  32.785   5.856   8.380
   31POPC   C3B 4701  32.989   5.750   7.989
   31POPC   C4B 4702  33.421   5.824   7.843
   32POPC   NC3 4703   6.137  11.718   9.468
   32POPC   PO4 4704   6.453  12.255   9.700
   32POPC   GL1 4705   6.399  12.207   9.229
   32POPC   GL2 4706   6.452  11.918   9.136
   32POPC   C1A 4707   6.290  12.277   8.784
   32POPC   D2A 4708   6.550  12.372   8.419
   32POPC   C3A 4709   6.608  12.149   8.033
   32POPC   C4A 4710   7.032  12.165   7.861
   32POPC   C1B 4711   6.602  11.853   8.766
   32POPC   C2B 4712   6.657  11.757   8.357
   32POPC   C3B 4713   6.760  11.658   7.946
   32POPC   C4B 4714   6.892  11.781   7.568
   33POPC   NC3 4715  25.487  29.419   9.489
   33POPC   PO4 4716  25.000  29.025   9.422
   33POPC   GL1 4717  25.378  29.029   9.134
   33POPC   GL2 4718  25.189  28.808   8.925
   33POPC   C1A 4719  25.556  29.051   8.674
   33POPC   D2A 4720  25.385  29.164   8.234
   33POPC   C3A 4721  25.270  28.799   7.939
   33POPC   C4A 4722  25.335  28.715   7.492
   33POPC   C1B 4723  25.068  29.264   8.809
   33POPC   C2B 4724  24.945  29.522   8.462
   33POPC   C3B 4725  25.012  29.620   8.045
   33POPC   C4B 4726  25.159  29.350   7.763
   34POPC   NC3 4727  32.595  11.012  10.050
   34POPC   PO4 4728  33.126  10.757   9.676
   34POPC   GL1 4729  33.142  10.757   9.253
   34POPC   GL2 4730  32.831  10.663   9.176
   34POPC   C1A 4731  33.230  10.827   8.800
   34POPC   D2A 4732  33.468  10.604   8.459
   34POPC   C3A 4733  33.317  10.626   8.019
   34POPC   C4A 4734  33.309  10.241   7.769
   34POPC   C1B 4735  32.652  10.404   8.834
   34POPC   C2B 4736  32.603  10.353   8.377
   34POPC   C3B 4737  32.745  10.482   7.961
   34POPC   C4B 4738  32.966  10.636   7.602
   35POPC   NC3 4739   8.156   8.269   9.536
   35POPC   PO4 4740   7.856   7.680   9.368
   35POPC   GL1 4741   7.969   8.054   9.081
   35POPC   GL2 4742   7.969   8.444   9.103
   35POPC   C1A 4743   8.218   8.215   8.727
   35POPC   D2A 4744   8.349   8.419   8.351
   35POPC   C3A 4745   8.407   8.131   8.026
   35POPC   C4A 4746   8.326   8.256   7.635
   35POPC   C1B 4747   7.757   8.469   8.717
   35POPC   C2B 4748   7.856   8.249   8.336
   35POPC   C3B 4749   7.994   8.427   7.964
   35POPC   C4B 4750   7.894   8.484   7.526
   36POPC   NC3 4751  26.513  27.343   9.335
   36POPC   PO4 4752  25.884  27.553   9.540
   36POPC   GL1 4753  26.100  27.589   9.154
   36POPC   GL2 4754  26.351  27.844   9.153
   36POPC   C1A 4755  26.000  27.644   8.748
   36POPC   D2A 4756  25.688  27.570   8.427
   36POPC   C3A 4757  25.875  27.430   8.069
   36POPC   C4A 4758  25.984  27.467   7.654
   36POPC   C1B 4759  26.460  27.902   8.736
   36POPC   C2B 4760  26.134  28.018   8.454
   36POPC   C3B 4761  26.049  27.920   8.079
   36POPC   C4B 4762  26.266  27.899   7.723
   37POPC   NC3 4763   5.259  28.526   9.591
   37POPC   PO4 4764   4.547  28.531   9.516
   37POPC   GL1 4765   4.866  28.367   9.204
   37POPC   GL2 4766   5.236  28.408   9.095
   37POPC   C1A 4767   4.887  28.310   8.749
   37POPC   D2A 4768   5.156  28.545   8.454
   37POPC   C3A 4769   4.950  28.441   8.076
   37POPC   C4A 4770   4.909  28.595   7.691
   37POPC   C1B 4771   5.362  28.133   8.723
   37POPC   C2B 4772   5.186  28.061   8.306
   37POPC   C3B 4773   5.443  28.261   8.001
   37POPC   C4B 4774   5.662  27.975   7.752
   38POPC   NC3 4775  24.249  10.935   9.444
   38POPC   PO4 4776  24.833  10.616   9.518
   38POPC   GL1 4777  24.585  10.568   9.192
   38POPC   GL2 4778  24.864  10.650   8.981
   38POPC   C1A 4779  24.425  10.450   8.798
   38POPC   D2A 4780  24.652  10.423   8.415
   38POPC   C3A 4781  24.377  10.422   8.075
   38POPC   C4A 4782  24.302  10.611   7.676
   38POPC   C1B 4783  25.104  10.857   8.659
   38POPC   C2B 4784  25.112  10.926   8.222
   38POPC   C3B 4785  24.816  10.707   7.967
   38POPC   C4B 4786  24.780  10.774   7.547
   39POPC   NC3 4787  43.868  15.856   9.599
   39POPC   PO4 4788  44.186  16.378   9.332
   39POPC   GL1 4789  43.803  16.125   9.180
   39POPC   GL2 4790  43.769  15.728   9.123
   39POPC   C1A 4791  43.621  16.125   8.783
   39POPC   D2A 4792  43.890  16.309   8.455
   39POPC   C3A 4793  43.791  16.254   8.030
   39POPC   C4A 4794  44.030  16.085   7.688
   39POPC   C1B 4795  43.927  15.731   8.697
   39POPC   C2B 4796  43.867  15.652   8.251
   39POPC   C3B 4797  43.677  15.765   7.844
   39POPC   C4B 4798  43.554  15.501   7.486
   40POPC   NC3 4799  41.281  38.631   9.457
   40POPC   PO4 4800  41.858  38.346   9.570
   40POPC   GL1 4801  41.620  38.391   9.171
   40POPC   GL2 4802  41.436  38.102   9.156
   40POPC   C1A 4803  41.449  38.518   8.748
   40POPC   D2A 4804  41.537  38.454   8.295
   40POPC   C3A 4805  41.414  38.688   7.918
   40POPC   C4A 4806  41.467  38.608   7.482
   40POPC   C1B 4807  41.207  38.016   8.789
   40POPC   C2B 4808  41.177  38.084   8.338
   40POPC   C3B 4809  41.314  38.197   7.890
   40POPC   C4B 4810  41.184  38.170   7.482
   41POPC   NC3 4811  36.064  39.028   9.500
   41POPC   PO4 4812  36.442  39.590   9.607
   41POPC   GL1 4813  36.446  39.296   9.221
   41POPC   GL2 4814  36.104  39.305   9.073
   41POPC   C1A 4815  36.471  39.231   8.742
   41POPC   D2A 4816  36.313  38.966   8.419
   41POPC   C3A 4817  36.172  39.137   8.055
   41POPC   C4A 4818  36.349  39.151   7.690
   41POPC   C1B 4819  35.742  39.264   8.794
   41POPC   C2B 4820  35.815  39.298   8.378
   41POPC   C3B 4821  35.663  39.096   8.026
   41POPC   C4B 4822  35.844  39.085   7.615
   42POPC   NC3 4823  41.310  40.351   9.332
   42POPC   PO4 4824  41.676  39.784   9.549
   42POPC   GL1 4825  41.742  40.084   9.255
   42POPC   GL2 4826  41.445  39.903   9.106
   42POPC   C1A 4827  41.831  40.119   8.828
   42POPC   D2A 4828  41.749  39.816   8.495
   42POPC   C3A 4829  41.731  39.932   8.071
   42POPC   C4A 4830  41.655  40.344   7.893
   42POPC   C1B 4831  41.344  40.084   8.729
   42POPC   C2B 4832  41.400  40.251   8.348
   42POPC   C3B 4833  41.229  40.051   8.012
   42POPC   C4B 4834  41.251  39.698   7.773
   43POPC   NC3 4835  33.772  11.752   9.529
   43POPC   PO4 4836  33.995  11.135   9.665
   43POPC   GL1 4837  33.853  11.294   9.245
   43POPC   GL2 4838  34.153  11.365   9.072
   43POPC   C1A 4839  33.683  11.341   8.793
   43POPC   D2A 4840  33.474  11.110   8.417
   43POPC   C3A 4841  33.609  11.090   7.971
   43POPC   C4A 4842  33.632  11.410   7.652
   43POPC   C1B 4843  34.242  11.174   8.688
   43POPC   C2B 4844  33.980  11.186   8.342
   43POPC   C3B 4845  34.013  11.436   7.984
   43POPC   C4B 4846  34.183  11.264   7.629
   44POPC   NC3 4847   1.520  40.578   9.357
   44POPC   PO4 4848   2.210  40.382   9.403
   44POPC   GL1 4849   2.081  40.632   9.065
   44POPC   GL2 4850   1.873  40.887   9.173
   44POPC   C1A 4851   1.939  40.747   8.647
   44POPC   D2A 4852   2.047  40.830   8.230
   44POPC   C3A 4853   1.813  40.729   7.876
   44POPC   C4A 4854   1.889  40.708   7.426
   44POPC   C1B 4855   1.685  41.149   8.879
   44POPC   C2B 4856   1.818  41.250   8.475
   44POPC   C3B 4857   1.836  41.249   8.026
   44POPC   C4B 4858   1.554  41.136   7.681
   45POPC   NC3 4859  36.386   1.680   9.322
   45POPC   PO4 4860  36.071   1.163   9.616
   45POPC   GL1 4861  36.190   1.185   9.189
   45POPC   GL2 4862  36.232   0.846   9.132
   45POPC   C1A 4863  36.176   1.387   8.759
   45POPC   D2A 4864  36.160   1.309   8.316
   45POPC   C3A 4865  35.852   1.501   8.067
   45POPC   C4A 4866  35.786   1.508   7.639
   45POPC   C1B 4867  36.048   0.895   8.708
   45POPC   C2B 4868  36.235   0.815   8.305
   45POPC   C3B 4869  36.172   1.007   7.877
   45POPC   C4B 4870  36.444   0.814   7.499
   46POPC   NC3 4871   3.841   2.831   9.546
   46POPC   PO4 4872   3.278   2.616   9.827
   46POPC   GL1 4873   3.350   2.727   9.380
   46POPC   GL2 4874   3.414   2.435   9.199
   46POPC   C1A 4875   3.521   2.859   8.941
   46POPC   D2A 4876   3.417   2.914   8.480
   46POPC   C3A 4877   3.644   2.836   8.078
   46POPC   C4A 4878   3.488   2.650   7.707
   46POPC   C1B 4879   3.746   2.388   8.845
   46POPC   C2B 4880   3.796   2.511   8.442
   46POPC   C3B 4881   3.686   2.327   8.048
   46POPC   C4B 4882   3.839   2.269   7.647
   47POPC   NC3 4883  23.336  17.782   9.682
   47POPC   PO4 4884  22.920  18.246   9.344
   47POPC   GL1 4885  22.812  18.137   8.943
   47POPC   GL2 4886  23.162  18.027   8.832
   47POPC   C1A 4887  22.743  18.053   8.533
   47POPC   D2A 4888  22.573  18.308   8.214
   47POPC   C3A 4889  22.620  18.090   7.828
   47POPC   C4A 4890  23.068  18.058   7.757
   47POPC   C1B 4891  23.101  18.417   8.639
   47POPC   C2B 4892  23.121  18.251   8.247
   47POPC   C3B 4893  23.500  18.096   8.065
   47POPC   C4B 4894  23.579  17.971   7.636
   48POPC   NC3 4895  44.519  23.352   9.488
   48POPC   PO4 4896   0.075  23.678   9.731
   48POPC   GL1 4897  44.801  23.719   9.263
   48POPC   GL2 4898  44.804  23.383   9.067
   48POPC   C1A 4899  44.912  23.768   8.771
   48POPC   D2A 4900  44.755  23.897   8.360
   48POPC   C3A 4901  44.889  23.712   7.946
   48POPC   C4A 4902  44.663  23.915   7.580
   48POPC   C1B 4903  44.463  23.511   8.797
   48POPC   C2B 4904  44.294  23.624   8.410
   48POPC   C3B 4905  44.401  23.704   8.016
   48POPC   C4B 4906  44.561  23.379   7.736
   49POPC   NC3 4907  26.121  19.307   9.494
   49POPC   PO4 4908  25.763  19.823   9.456
   49POPC   GL1 4909  25.817  19.824   9.068
   49POPC   GL2 4910  26.142  19.764   9.026
   49POPC   C1A 4911  25.697  19.946   8.674
   49POPC   D2A 4912  25.821  19.786   8.269
   49POPC   C3A 4913  25.999  20.034   7.978
   49POPC   C4A 4914  26.388  20.139   7.812
   49POPC   C1B 4915  25.969  19.497   8.702
   49POPC   C2B 4916  26.192  19.415   8.317
   49POPC   C3B 4917  26.185  19.557   7.909
   49POPC   C4B 4918  25.861  19.479   7.657
   50POPC   NC3 4919  38.149   8.529   9.404
   50POPC   PO4 4920  37.490   8.871   9.493
   50POPC   GL1 4921  37.439   9.031   9.129
   50POPC   GL2 4922  37.793   9.062   9.100
   50POPC   C1A 4923  37.448   9.210   8.751
   50POPC   D2A 4924  37.457   9.020   8.377
   50POPC   C3A 4925  37.517   9.153   7.963
   50POPC   C4A 4926  37.500   8.767   7.716
   50POPC   C1B 4927  37.992   8.835   8.786
   50POPC   C2B 4928  37.765   8.631   8.492
   50POPC   C3B 4929  37.837   8.735   8.094
   50POPC   C4B 4930  37.905   8.465   7.750
   51POPC   NC3 4931  26.065   3.088   9.209
   51POPC   PO4 4932  26.072   2.558   9.599
   51POPC   GL1 4933  26.009   2.579   9.181
   51POPC   GL2 4934  26.329   2.504   9.145
   51POPC   C1A 4935  25.968   2.509   8.734
   51POPC   D2A 4936  25.776   2.603   8.336
   51POPC   C3A 4937  25.920   2.898   8.014
   51POPC   C4A 4938  25.915   2.852   7.567
   51POPC   C1B 4939  26.473   2.644   8.760
   51POPC   C2B 4940  26.467   2.909   8.417
   51POPC   C3B 4941  26.442   2.814   7.999
   51POPC   C4B 4942  26.339   3.089   7.683
   52POPC   NC3 4943  35.008  10.251   9.557
   52POPC   PO4 4944  35.440  10.810   9.539
   52POPC   GL1 4945  35.472  10.638   9.130
   52POPC   GL2 4946  35.452  10.275   9.195
   52POPC   C1A 4947  35.283  10.768   8.750
   52POPC   D2A 4948  35.152  10.532   8.371
   52POPC   C3A 4949  35.374  10.598   7.977
   52POPC   C4A 4950  35.123  10.668   7.599
   52POPC   C1B 4951  35.402  10.272   8.746
   52POPC   C2B 4952  35.547  10.173   8.321
   52POPC   C3B 4953  35.640  10.133   7.877
   52POPC   C4B 4954  35.528   9.975   7.461
   53POPC   NC3 4955  34.314  28.794   9.550
   53POPC   PO4 4956  33.796  29.283   9.566
   53POPC   GL1 4957  33.864  29.090   9.168
   53POPC   GL2 4958  34.053  28.743   9.113
   53POPC   C1A 4959  33.673  29.260   8.758
   53POPC   D2A 4960  33.663  29.480   8.342
   53POPC   C3A 4961  33.669  29.190   7.951
   53POPC   C4A 4962  33.428  29.234   7.575
   53POPC   C1B 4963  34.131  29.016   8.760
   53POPC   C2B 4964  33.984  29.079   8.353
   53POPC   C3B 4965  34.162  28.993   7.959
   53POPC   C4B 4966  34.045  29.118   7.545
   54POPC   NC3 4967  23.022   4.461   9.689
   54POPC   PO4 4968  22.674   3.883   9.534
   54POPC   GL1 4969  22.865   4.220   9.245
   54POPC   GL2 4970  22.764   4.582   9.155
   54POPC   C1A 4971  23.081   4.316   8.847
   54POPC   D2A 4972  23.308   4.454   8.490
   54POPC   C3A 4973  23.000   4.359   8.195
   54POPC   C4A 4974  22.906   4.285   7.795
   54POPC   C1B 4975  22.514   4.712   8.741
   54POPC   C2B 4976  22.457   4.714   8.269
   54POPC   C3B 4977  22.439   4.537   7.838
   54POPC   C4B 4978  22.701   4.593   7.465
   55POPC   NC3 4979  37.900  23.125   9.491
   55POPC   PO4 4980  37.459  23.005   9.972
   55POPC   GL1 4981  37.429  22.970   9.390
   55POPC   GL2 4982  37.712  22.721   9.255
   55POPC   C1A 4983  37.467  22.976   8.889
   55POPC   D2A 4984  37.413  23.043   8.411
   55POPC   C3A 4985  37.638  22.788   8.116
   55POPC   C4A 4986  37.663  22.853   7.698
   55POPC   C1B 4987  37.967  22.848   8.875
   55POPC   C2B 4988  37.909  23.053   8.491
   55POPC   C3B 4989  38.083  23.029   8.070
   55POPC   C4B 4990  38.161  22.760   7.738
   56POPC   NC3 4991  11.431   3.953   9.573
   56POPC   PO4 4992  11.228   4.565   9.533
   56POPC   GL1 4993  11.222   4.594   9.121
   56POPC   GL2 4994  10.890   4.724   9.108
   56POPC   C1A 4995  11.423   4.321   8.816
   56POPC   D2A 4996  11.654   4.183   8.460
   56POPC   C3A 4997  11.385   4.277   8.109
   56POPC   C4A 4998  11.423   4.426   7.703
   56POPC   C1B 4999  10.900   4.294   8.883
   56POPC   C2B 5000  11.027   4.045   8.516
   56POPC   C3B 5001  10.993   3.929   8.083
   56POPC   C4B 5002  10.961   4.209   7.750
   57POPC   NC3 5003  43.409  35.165   9.646
   57POPC   PO4 5004  44.013  35.412   9.609
   57POPC   GL1 5005  44.064  35.580   9.166
   57POPC   GL2 5006  44.056  35.237   9.024
   57POPC   C1A 5007  43.837  35.603   8.754
   57POPC   D2A 5008  43.982  35.484   8.397
   57POPC   C3A 5009  43.659  35.526   8.119
   57POPC   C4A 5010  43.894  35.483   7.750
   57POPC   C1B 5011  43.882  35.025   8.644
   57POPC   C2B 5012  43.702  35.029   8.231
   57POPC   C3B 5013  43.744  34.987   7.802
   57POPC   C4B 5014  43.688  34.980   7.366
   58POPC   NC3 5015  33.178  16.936   9.431
   58POPC   PO4 5016  32.819  17.510   9.511
   58POPC   GL1 5017  32.957  17.476   9.097
   58POPC   GL2 5018  32.996  17.846   8.988
   58POPC   C1A 5019  32.811  17.471   8.697
   58POPC   D2A 5020  32.853  17.837   8.474
   58POPC   C3A 5021  33.018  17.764   8.074
   58POPC   C4A 5022  32.986  17.384   7.832
   58POPC   C1B 5023  33.304  17.613   8.727
   58POPC   C2B 5024  33.532  17.659   8.362
   58POPC   C3B 5025  33.478  17.573   7.944
   58POPC   C4B 5026  33.338  17.670   7.556
   59POPC   NC3 5027  33.153   3.594   9.677
   59POPC   PO4 5028  32.556   3.273   9.452
   59POPC   GL1 5029  32.830   3.568   9.207
   59POPC   GL2 5030  33.214   3.619   9.180
   59POPC   C1A 5031  32.897   3.505   8.781
   59POPC   D2A 5032  32.724   3.342   8.405
   59POPC   C3A 5033  32.863   3.517   8.021
   59POPC   C4A 5034  32.919   3.319   7.647
   59POPC   C1B 5035  33.370   3.683   8.763
   59POPC   C2B 5036  33.171   3.734   8.390
   59POPC   C3B 5037  33.352   3.797   8.010
   59POPC   C4B 5038  33.299   3.626   7.693
   60POPC   NC3 5039  31.435   9.899   9.570
   60POPC   PO4 5040  31.139   9.391   9.123
   60POPC   GL1 5041  31.537   9.658   9.090
   60POPC   GL2 5042  31.496   9.999   9.081
   60POPC   C1A 5043  31.790   9.865   8.712
   60POPC   D2A 5044  31.638  10.027   8.292
   60POPC   C3A 5045  31.538   9.687   8.007
   60POPC   C4A 5046  31.724   9.395   7.701
   60POPC   C1B 5047  31.405  10.243   8.710
   60POPC   C2B 5048  31.064  10.377   8.469
   60POPC   C3B 5049  31.154  10.387   8.071
   60POPC   C4B 5050  31.402  10.148   7.819
   61POPC   NC3 5051  33.535  35.787   9.399
   61POPC   PO4 5052  33.473  35.107   9.429
   61POPC   GL1 5053  33.580  35.212   9.022
   61POPC   GL2 5054  33.682  35.551   8.983
   61POPC   C1A 5055  33.926  35.172   8.711
   61POPC   D2A 5056  33.863  35.134   8.283
   61POPC   C3A 5057  34.025  35.460   8.053
   61POPC   C4A 5058  34.077  35.467   7.634
   61POPC   C1B 5059  33.531  35.468   8.561
   61POPC   C2B 5060  33.486  35.477   8.129
   61POPC   C3B 5061  33.606  35.272   7.789
   61POPC   C4B 5062  33.605  35.390   7.366
   62POPC   NC3 5063  33.632  27.987   9.542
   62POPC   PO4 5064  33.948  28.516   9.579
   62POPC   GL1 5065  33.652  28.441   9.250
   62POPC   GL2 5066  33.867  28.195   9.140
   62POPC   C1A 5067  33.547  28.375   8.794
   62POPC   D2A 5068  33.746  28.273   8.395
   62POPC   C3A 5069  33.719  28.583   8.079
   62POPC   C4A 5070  33.880  28.652   7.691
   62POPC   C1B 5071  34.122  28.247   8.784
   62POPC   C2B 5072  34.228  28.084   8.349
   62POPC   C3B 5073  34.141  28.159   7.909
   62POPC   C4B 5074  33.750  28.144   7.759
   63POPC   NC3 5075  41.325  40.896   9.795
   63POPC   PO4 5076  41.841  40.595   9.513
   63POPC   GL1 5077  41.665  40.726   9.145
   63POPC   GL2 5078  41.948  40.584   8.986
   63POPC   C1A 5079  41.453  40.594   8.749
   63POPC   D2A 5080  41.207  40.743   8.410
   63POPC   C3A 5081  41.380  40.811   8.001
   63POPC   C4A 5082  41.124  41.068   7.776
   63POPC   C1B 5083  41.861  40.876   8.667
   63POPC   C2B 5084  41.707  41.066   8.316
   63POPC   C3B 5085  41.896  41.124   7.930
   63POPC   C4B 5086  41.665  41.057   7.559
   64POPC   NC3 5087  27.038  19.985   9.526
   64POPC   PO4 5088  26.459  19.630   9.452
   64POPC   GL1 5089  26.647  19.888   9.083
   64POPC   GL2 5090  26.951  20.083   9.047
   64POPC   C1A 5091  26.716  19.961   8.622
   64POPC   D2A 5092  26.496  19.841   8.227
   64POPC   C3A 5093  26.677  19.683   7.833
   64POPC   C4A 5094  26.656  19.894   7.431
   64POPC   C1B 5095  27.114  20.330   8.729
   64POPC   C2B 5096  27.007  20.271   8.306
   64POPC   C3B 5097  26.894  20.129   7.902
   64POPC   C4B 5098  27.067  20.187   7.479
   65POPC   NC3 5099  33.870  20.832   9.411
   65POPC   PO4 5100  33.556  20.300   9.289
   65POPC   GL1 5101  33.773  20.476   9.030
   65POPC   GL2 5102  33.555  20.774   8.996
   65POPC   C1A 5103  33.963  20.654   8.714
   65POPC   D2A 5104  33.751  20.795   8.371
   65POPC   C3A 5105  33.866  20.509   8.050
   65POPC   C4A 5106  33.992  20.658   7.678
   65POPC   C1B 5107  33.266  20.875   8.650
   65POPC   C2B 5108  33.277  20.979   8.227
   65POPC   C3B 5109  33.547  20.898   7.894
   65POPC   C4B 5110  33.437  20.822   7.486
   66POPC   NC3 5111  44.004  43.552   9.176
   66POPC   PO4 5112  43.726  43.946   9.703
   66POPC   GL1 5113  43.833  44.046   9.229
   66POPC   GL2 5114  44.204  44.198   9.259
   66POPC   C1A 5115  43.657  43.933   8.763
   66POPC   D2A 5116  43.593  43.622   8.425
   66POPC   C3A 5117  43.688  43.894   8.095
   66POPC   C4A 5118  43.920  43.873   7.742
   66POPC   C1B 5119  44.129  44.231   8.809
   66POPC   C2B 5120  43.959  44.231   8.394
   66POPC   C3B 5121  44.075  44.303   7.964
   66POPC   C4B 5122  44.149  44.246   7.496
   67POPC   NC3 5123  42.127  10.864   9.149
   67POPC   PO4 5124  42.311  10.352   9.617
   67POPC   GL1 5125  42.235  10.355   9.160
   67POPC   GL2 5126  41.875  10.400   9.106
   67POPC   C1A 5127  42.390  10.457   8.713
   67POPC   D2A 5128  42.304  10.726   8.318
   67POPC   C3A 5129  42.370  10.484   7.941
   67POPC   C4A 5130  42.706  10.145   7.846
   67POPC   C1B 5131  41.890  10.557   8.641
   67POPC   C2B 5132  41.793  10.847   8.315
   67POPC   C3B 5133  41.899  10.768   7.883
   67POPC   C4B 5134  42.244  10.783   7.538
   68POPC   NC3 5135  44.875  21.734   9.584
   68POPC   PO4 5136  44.249  21.430   9.598
   68POPC   GL1 5137  44.587  21.398   9.231
   68POPC   GL2 5138  44.858  21.572   9.078
   68POPC   C1A 5139  44.679  21.128   8.835
   68POPC   D2A 5140  44.758  20.849   8.450
   68POPC   C3A 5141  44.718  21.087   8.049
   68POPC   C4A 5142  44.942  21.274   7.699
   68POPC   C1B 5143  44.457  21.601   8.783
   68POPC   C2B 5144  44.381  21.459   8.335
   68POPC   C3B 5145  44.624  21.578   7.952
   68POPC   C4B 5146  44.906  21.835   7.700
   69POPC   NC3 5147  34.370   2.998   9.433
   69POPC   PO4 5148  35.045   2.724   9.621
   69POPC   GL1 5149  34.836   2.872   9.233
   69POPC   GL2 5150  34.628   2.609   9.186
   69POPC   C1A 5151  34.633   3.041   8.830
   69POPC   D2A 5152  34.735   2.876   8.418
   69POPC   C3A 5153  34.642   3.103   8.069
   69POPC   C4A 5154  34.442   3.066   7.675
   69POPC   C1B 5155  34.411   2.587   8.776
   69POPC   C2B 5156  34.253   2.651   8.370
   69POPC   C3B 5157  34.418   2.587   7.976
   69POPC   C4B 5158  34.772   2.701   7.785
   70POPC   NC3 5159   1.638   8.538   9.531
   70POPC   PO4 5160   2.053   8.169   9.548
   70POPC   GL1 5161   1.962   8.296   9.111
   70POPC   GL2 5162   2.244   8.508   9.013
   70POPC   C1A 5163   2.035   8.218   8.641
   70POPC   D2A 5164   1.801   8.287   8.249
   70POPC   C3A 5165   1.838   8.130   7.799
   70POPC   C4A 5166   1.953   8.038   7.356
   70POPC   C1B 5167   2.104   8.738   8.653
   70POPC   C2B 5168   1.843   8.819   8.301
   70POPC   C3B 5169   1.920   8.653   7.882
   70POPC   C4B 5170   2.222   8.418   7.566
   71POPC   NC3 5171   6.594  10.317   9.516
   71POPC   PO4 5172   6.530  10.948   9.132
   71POPC   GL1 5173   6.447  10.591   9.109
   71POPC   GL2 5174   6.219  10.660   8.842
   71POPC   C1A 5175   6.645  10.326   8.834
   71POPC   D2A 5176   6.901  10.468   8.480
   71POPC   C3A 5177   6.681  10.474   8.093
   71POPC   C4A 5178   6.719  10.494   7.689
   71POPC   C1B 5179   6.201  10.972   8.568
   71POPC   C2B 5180   6.495  10.913   8.286
   71POPC   C3B 5181   6.415  10.896   7.854
   71POPC   C4B 5182   6.439  11.283   7.629
   72POPC   NC3 5183  29.211   2.275   9.621
   72POPC   PO4 5184  28.825   1.723   9.639
   72POPC   GL1 5185  29.003   1.993   9.251
   72POPC   GL2 5186  29.368   2.008   9.175
   72POPC   C1A 5187  28.900   2.154   8.827
   72POPC   D2A 5188  28.990   2.307   8.406
   72POPC   C3A 5189  28.750   2.261   8.027
   72POPC   C4A 5190  28.833   2.337   7.589
   72POPC   C1B 5191  29.396   2.097   8.758
   72POPC   C2B 5192  29.279   1.887   8.415
   72POPC   C3B 5193  29.338   1.823   8.009
   72POPC   C4B 5194  29.259   2.159   7.766
   73POPC   NC3 5195  22.080  41.039   9.871
   73POPC   PO4 5196  21.812  40.500   9.628
   73POPC   GL1 5197  22.063  40.654   9.300
   73POPC   GL2 5198  22.119  40.967   9.325
   73POPC   C1A 5199  22.113  40.638   8.838
   73POPC   D2A 5200  22.271  40.589   8.389
   73POPC   C3A 5201  21.950  40.583   8.052
   73POPC   C4A 5202  22.059  40.397   7.679
   73POPC   C1B 5203  22.366  41.073   8.916
   73POPC   C2B 5204  22.480  41.072   8.460
   73POPC   C3B 5205  22.294  41.010   8.031
   73POPC   C4B 5206  21.979  41.327   7.886
   74POPC   NC3 5207  16.850  43.541   9.493
   74POPC   PO4 5208  16.820  42.902   9.520
   74POPC   GL1 5209  16.683  42.992   9.102
   74POPC   GL2 5210  16.537  43.294   9.178
   74POPC   C1A 5211  16.790  42.929   8.660
   74POPC   D2A 5212  17.102  43.019   8.315
   74POPC   C3A 5213  16.802  43.111   8.011
   74POPC   C4A 5214  16.349  43.074   8.033
   74POPC   C1B 5215  16.878  43.397   8.862
   74POPC   C2B 5216  16.783  43.405   8.443
   74POPC   C3B 5217  16.916  43.638   8.134
   74POPC   C4B 5218  16.817  43.610   7.734
   75POPC   NC3 5219  39.568  36.626   9.541
   75POPC   PO4 5220  39.021  37.007   9.552
   75POPC   GL1 5221  39.209  37.111   9.167
   75POPC   GL2 5222  39.546  36.942   9.146
   75POPC   C1A 5223  39.216  36.935   8.759
   75POPC   D2A 5224  39.169  36.685   8.419
   75POPC   C3A 5225  39.253  36.853   8.001
   75POPC   C4A 5226  39.144  36.997   7.577
   75POPC   C1B 5227  39.663  36.714   8.768
   75POPC   C2B 5228  39.659  36.843   8.342
   75POPC   C3B 5229  39.755  36.856   7.888
   75POPC   C4B 5230  39.493  36.624   7.564
   76POPC   NC3 5231  33.589  41.438   9.315
   76POPC   PO4 5232  33.019  41.617   9.602
   76POPC   GL1 5233  33.091  41.655   9.165
   76POPC   GL2 5234  33.359  41.880   9.127
   76POPC   C1A 5235  32.981  41.468   8.756
   76POPC   D2A 5236  32.733  41.192   8.444
   76POPC   C3A 5237  32.747  41.309   8.027
   76POPC   C4A 5238  32.878  41.512   7.669
   76POPC   C1B 5239  33.205  41.920   8.676
   76POPC   C2B 5240  33.069  41.657   8.283
   76POPC   C3B 5241  33.316  41.561   7.923
   76POPC   C4B 5242  33.319  41.703   7.479
   77POPC   NC3 5243   3.166  21.030   9.572
   77POPC   PO4 5244   3.560  21.559   9.672
   77POPC   GL1 5245   3.614  21.672   9.236
   77POPC   GL2 5246   3.360  21.442   9.164
   77POPC   C1A 5247   3.727  21.552   8.814
   77POPC   D2A 5248   3.526  21.495   8.422
   77POPC   C3A 5249   3.829  21.548   8.109
   77POPC   C4A 5250   3.820  21.292   7.759
   77POPC   C1B 5251   3.346  21.169   8.806
   77POPC   C2B 5252   3.132  21.162   8.391
   77POPC   C3B 5253   3.349  21.216   7.983
   77POPC   C4B 5254   3.373  21.272   7.511
   78POPC   NC3 5255  11.828  13.200   9.483
   78POPC   PO4 5256  12.032  12.629   9.625
   78POPC   GL1 5257  11.881  12.766   9.211
   78POPC   GL2 5258  12.154  12.960   9.141
   78POPC   C1A 5259  11.936  12.735   8.744
   78POPC   D2A 5260  11.774  12.773   8.344
   78POPC   C3A 5261  11.989  12.569   8.058
   78POPC   C4A 5262  12.051  12.669   7.614
   78POPC   C1B 5263  12.340  13.033   8.710
   78POPC   C2B 5264  12.214  13.111   8.292
   78POPC   C3B 5265  11.943  13.083   7.942
   78POPC   C4B 5266  12.153  13.174   7.570
   79POPC   NC3 5267  21.137  14.819   9.502
   79POPC   PO4 5268  21.663  15.257   9.465
   79POPC   GL1 5269  21.358  15.192   9.185
   79POPC   GL2 5270  21.459  14.859   9.103
   79POPC   C1A 5271  21.367  15.250   8.745
   79POPC   D2A 5272  21.649  15.282   8.386
   79POPC   C3A 5273  21.560  15.481   7.989
   79POPC   C4A 5274  21.171  15.446   7.810
   79POPC   C1B 5275  21.209  14.737   8.768
   79POPC   C2B 5276  21.255  14.912   8.382
   79POPC   C3B 5277  21.430  14.850   8.026
   79POPC   C4B 5278  21.221  14.951   7.697
   80POPC   NC3 5279   4.721  44.701   9.403
   80POPC   PO4 5280   4.114  44.551   9.351
   80POPC   GL1 5281   4.152  44.558   8.926
   80POPC   GL2 5282   4.513  44.606   8.957
   80POPC   C1A 5283   4.339  44.286   8.611
   80POPC   D2A 5284   4.660  44.161   8.349
   80POPC   C3A 5285   4.497  44.206   7.953
   80POPC   C4A 5286   4.329  44.542   7.710
   80POPC   C1B 5287   4.449  44.814   8.583
   80POPC   C2B 5288   4.210   0.126   8.374
   80POPC   C3B 5289   4.219  44.949   7.988
   80POPC   C4B 5290   4.593  44.992   7.698
   81POPC   NC3 5291   5.360   3.908   9.681
   81POPC   PO4 5292   5.356   4.543   9.517
   81POPC   GL1 5293   5.238   4.191   9.234
   81POPC   GL2 5294   4.944   4.017   9.350
   81POPC   C1A 5295   5.224   4.177   8.764
   81POPC   D2A 5296   5.460   4.194   8.406
   81POPC   C3A 5297   5.318   4.329   8.001
   81POPC   C4A 5298   5.220   3.984   7.775
   81POPC   C1B 5299   4.832   3.915   8.912
   81POPC   C2B 5300   4.755   3.844   8.421
   81POPC   C3B 5301   4.743   3.852   7.924
   81POPC   C4B 5302   4.493   4.117   7.612
   82POPC   NC3 5303  28.283  25.947   9.744
   82POPC   PO4 5304  28.501  26.264   9.204
   82POPC   GL1 5305  28.173  26.144   8.971
   82POPC   GL2 5306  28.164  25.841   9.209
   82POPC   C1A 5307  28.269  26.252   8.508
   82POPC   D2A 5308  28.546  26.200   8.103
   82POPC   C3A 5309  28.354  26.289   7.646
   82POPC   C4A 5310  27.967  26.217   7.377
   82POPC   C1B 5311  28.372  25.715   8.822
   82POPC   C2B 5312  28.233  25.749   8.443
   82POPC   C3B 5313  28.416  25.696   8.089
   82POPC   C4B 5314  28.523  25.822   7.703
   83POPC   NC3 5315  10.829  40.876   9.692
   83POPC   PO4 5316  10.202  40.651   9.530
   83POPC   GL1 5317  10.520  40.774   9.200
   83POPC   GL2 5318  10.893  40.859   9.191
   83POPC   C1A 5319  10.639  40.682   8.774
   83POPC   D2A 5320  10.744  40.443   8.427
   83POPC   C3A 5321  10.564  40.662   8.092
   83POPC   C4A 5322  10.266  40.721   7.744
   83POPC   C1B 5323  11.016  41.045   8.818
   83POPC   C2B 5324  10.837  41.132   8.421
   83POPC   C3B 5325  11.003  41.072   8.000
   83POPC   C4B 5326  10.780  40.836   7.675
   84POPC   NC3 5327  34.649  30.261   9.451
   84POPC   PO4 5328  34.411  30.897   9.315
   84POPC   GL1 5329  34.617  30.643   9.091
   84POPC   GL2 5330  34.340  30.411   9.075
   84POPC   C1A 5331  34.709  30.806   8.690
   84POPC   D2A 5332  34.378  30.954   8.430
   84POPC   C3A 5333  34.513  30.880   8.044
   84POPC   C4A 5334  34.335  30.866   7.672
   84POPC   C1B 5335  34.290  30.495   8.667
   84POPC   C2B 5336  34.282  30.451   8.256
   84POPC   C3B 5337  34.573  30.359   7.992
   84POPC   C4B 5338  34.480  30.381   7.619
   85POPC   NC3 5339  29.740  34.983   9.416
   85POPC   PO4 5340  30.140  35.553   9.469
   85POPC   GL1 5341  30.282  35.453   9.093
   85POPC   GL2 5342  30.039  35.202   9.063
   85POPC   C1A 5343  30.141  35.581   8.698
   85POPC   D2A 5344  29.813  35.584   8.382
   85POPC   C3A 5345  29.902  35.518   7.965
   85POPC   C4A 5346  30.152  35.676   7.659
   85POPC   C1B 5347  29.745  35.195   8.722
   85POPC   C2B 5348  29.784  35.072   8.277
   85POPC   C3B 5349  29.647  35.085   7.888
   85POPC   C4B 5350  29.671  35.290   7.496
   86POPC   NC3 5351  12.934  28.248   9.597
   86POPC   PO4 5352  12.567  28.810   9.464
   86POPC   GL1 5353  12.837  28.445   9.145
   86POPC   GL2 5354  13.049  28.106   9.127
   86POPC   C1A 5355  13.093  28.419   8.733
   86POPC   D2A 5356  12.880  28.442   8.312
   86POPC   C3A 5357  13.102  28.381   7.934
   86POPC   C4A 5358  12.971  28.228   7.508
   86POPC   C1B 5359  12.780  27.999   8.787
   86POPC   C2B 5360  12.801  27.943   8.336
   86POPC   C3B 5361  12.680  28.080   7.923
   86POPC   C4B 5362  12.285  28.180   7.722
   87POPC   NC3 5363  22.770   2.414   9.596
   87POPC   PO4 5364  22.864   3.042   9.470
   87POPC   GL1 5365  22.735   2.733   9.177
   87POPC   GL2 5366  22.910   2.464   9.110
   87POPC   C1A 5367  22.784   2.848   8.777
   87POPC   D2A 5368  23.006   2.921   8.406
   87POPC   C3A 5369  22.835   2.817   8.045
   87POPC   C4A 5370  22.943   2.780   7.652
   87POPC   C1B 5371  23.132   2.499   8.714
   87POPC   C2B 5372  23.061   2.378   8.286
   87POPC   C3B 5373  23.277   2.536   7.953
   87POPC   C4B 5374  23.340   2.487   7.482
   88POPC   NC3 5375   6.845  33.746   9.513
   88POPC   PO4 5376   6.332  34.218   9.395
   88POPC   GL1 5377   6.495  33.794   9.131
   88POPC   GL2 5378   6.826  33.512   9.079
   88POPC   C1A 5379   6.416  33.511   8.780
   88POPC   D2A 5380   6.351  33.723   8.436
   88POPC   C3A 5381   6.470  33.632   8.053
   88POPC   C4A 5382   6.486  33.944   7.764
   88POPC   C1B 5383   6.843  33.801   8.745
   88POPC   C2B 5384   6.778  33.953   8.338
   88POPC   C3B 5385   6.961  33.900   7.969
   88POPC   C4B 5386   6.846  33.573   7.707
   89POPC   NC3 5387  20.684  43.529   9.559
   89POPC   PO4 5388  20.885  42.918   9.415
   89POPC   GL1 5389  20.588  43.170   9.211
   89POPC   GL2 5390  20.810  43.339   9.043
   89POPC   C1A 5391  20.360  43.273   8.845
   89POPC   D2A 5392  20.636  43.390   8.517
   89POPC   C3A 5393  20.569  43.381   8.094
   89POPC   C4A 5394  20.557  43.320   7.654
   89POPC   C1B 5395  20.821  42.986   8.772
   89POPC   C2B 5396  20.870  42.972   8.308
   89POPC   C3B 5397  20.738  42.886   7.875
   89POPC   C4B 5398  20.852  42.954   7.418
   90POPC   NC3 5399  13.975  20.388   9.316
   90POPC   PO4 5400  13.259  20.552   9.527
   90POPC   GL1 5401  13.501  20.610   9.160
   90POPC   GL2 5402  13.486  20.257   9.126
   90POPC   C1A 5403  13.686  20.663   8.727
   90POPC   D2A 5404  13.486  20.642   8.309
   90POPC   C3A 5405  13.689  20.773   7.913
   90POPC   C4A 5406  13.722  20.812   7.450
   90POPC   C1B 5407  13.408  20.233   8.689
   90POPC   C2B 5408  13.712  20.190   8.354
   90POPC   C3B 5409  13.757  20.284   7.906
   90POPC   C4B 5410  13.437  20.421   7.604
   91POPC   NC3 5411  43.356  43.965   9.425
   91POPC   PO4 5412  42.940  43.528   9.757
   91POPC   GL1 5413  42.935  43.643   9.266
   91POPC   GL2 5414  43.163  43.860   9.006
   91POPC   C1A 5415  42.949  43.481   8.821
   91POPC   D2A 5416  43.129  43.818   8.499
   91POPC   C3A 5417  43.181  43.779   8.053
   91POPC   C4A 5418  43.426  43.721   7.677
   91POPC   C1B 5419  43.126  44.236   8.824
   91POPC   C2B 5420  42.926  44.289   8.445
   91POPC   C3B 5421  42.744  44.074   8.124
   91POPC   C4B 5422  42.848  44.104   7.699
   92POPC   NC3 5423  19.335   3.352   9.750
   92POPC   PO4 5424  18.825   3.219   9.465
   92POPC   GL1 5425  19.009   3.342   9.086
   92POPC   GL2 5426  19.362   3.443   9.213
   92POPC   C1A 5427  18.977   3.225   8.646
   92POPC   D2A 5428  18.770   3.421   8.291
   92POPC   C3A 5429  18.843   3.321   7.869
   92POPC   C4A 5430  18.873   3.360   7.324
   92POPC   C1B 5431  19.330   3.610   8.824
   92POPC   C2B 5432  19.252   3.641   8.406
   92POPC   C3B 5433  19.355   3.559   8.005
   92POPC   C4B 5434  19.143   3.638   7.644
   93POPC   NC3 5435  21.302  13.154   9.576
   93POPC   PO4 5436  21.543  13.779   9.487
   93POPC   GL1 5437  21.494  13.670   9.092
   93POPC   GL2 5438  21.346  13.352   9.086
   93POPC   C1A 5439  21.561  13.671   8.673
   93POPC   D2A 5440  21.477  13.951   8.356
   93POPC   C3A 5441  21.675  13.845   7.984
   93POPC   C4A 5442  21.361  13.947   7.692
   93POPC   C1B 5443  21.078  13.525   8.771
   93POPC   C2B 5444  21.187  13.440   8.358
   93POPC   C3B 5445  21.146  13.561   7.949
   93POPC   C4B 5446  21.496  13.424   7.724
   94POPC   NC3 5447  16.593  29.461   9.341
   94POPC   PO4 5448  16.884  28.848   9.473
   94POPC   GL1 5449  16.877  29.084   9.157
   94POPC   GL2 5450  16.547  28.987   9.055
   94POPC   C1A 5451  16.951  29.247   8.758
   94POPC   D2A 5452  16.681  29.272   8.443
   94POPC   C3A 5453  16.846  29.269   8.068
   94POPC   C4A 5454  16.447  29.221   7.840
   94POPC   C1B 5455  16.879  28.722   8.820
   94POPC   C2B 5456  16.958  28.812   8.411
   94POPC   C3B 5457  16.676  28.786   8.064
   94POPC   C4B 5458  16.843  28.932   7.666
   95POPC   NC3 5459   4.203  40.251   9.543
   95POPC   PO4 5460   4.616  39.660   9.430
   95POPC   GL1 5461   4.466  39.821   9.085
   95POPC   GL2 5462   4.568  40.131   9.124
   95POPC   C1A 5463   4.435  39.905   8.639
   95POPC   D2A 5464   4.046  39.862   8.380
   95POPC   C3A 5465   4.033  39.688   7.947
   95POPC   C4A 5466   4.070  39.804   7.504
   95POPC   C1B 5467   4.243  40.320   8.863
   95POPC   C2B 5468   4.309  40.350   8.418
   95POPC   C3B 5469   4.424  40.081   8.060
   95POPC   C4B 5470   4.500  40.170   7.619
   96POPC   NC3 5471  34.098  12.458   9.241
   96POPC   PO4 5472  33.618  12.921   9.523
   96POPC   GL1 5473  33.771  12.878   9.140
   96POPC   GL2 5474  33.574  12.584   9.114
   96POPC   C1A 5475  33.702  13.068   8.750
   96POPC   D2A 5476  33.496  12.978   8.368
   96POPC   C3A 5477  33.559  13.222   7.977
   96POPC   C4A 5478  33.782  12.920   7.797
   96POPC   C1B 5479  33.714  12.500   8.713
   96POPC   C2B 5480  34.089  12.606   8.505
   96POPC   C3B 5481  34.054  12.568   8.055
   96POPC   C4B 5482  33.673  12.394   7.822
   97POPC   NC3 5483   1.464  11.360   9.478
   97POPC   PO4 5484   0.798  11.227   9.625
   97POPC   GL1 5485   0.994  11.335   9.251
   97POPC   GL2 5486   1.116  10.994   9.265
   97POPC   C1A 5487   1.133  11.407   8.821
   97POPC   D2A 5488   0.985  11.279   8.416
   97POPC   C3A 5489   1.260  11.408   8.074
   97POPC   C4A 5490   1.138  11.670   7.724
   97POPC   C1B 5491   1.354  10.946   8.897
   97POPC   C2B 5492   1.423  11.008   8.446
   97POPC   C3B 5493   1.513  10.927   8.014
   97POPC   C4B 5494   1.341  11.049   7.634
   98POPC   NC3 5495  35.691  33.101   9.437
   98POPC   PO4 5496  36.379  32.890   9.433
   98POPC   GL1 5497  36.335  33.212   9.102
   98POPC   GL2 5498  35.961  33.271   9.058
   98POPC   C1A 5499  36.522  33.214   8.705
   98POPC   D2A 5500  36.389  32.823   8.452
   98POPC   C3A 5501  36.342  32.857   8.006
   98POPC   C4A 5502  36.066  32.758   7.654
   98POPC   C1B 5503  36.015  33.176   8.654
   98POPC   C2B 5504  36.212  33.288   8.283
   98POPC   C3B 5505  35.984  33.203   7.918
   98POPC   C4B 5506  35.874  33.425   7.573
   99POPC   NC3 5507  24.200  38.437   9.485
   99POPC   PO4 5508  23.627  38.153   9.707
   99POPC   GL1 5509  23.776  38.376   9.250
   99POPC   GL2 5510  23.498  38.404   9.097
   99POPC   C1A 5511  23.933  38.579   8.850
   99POPC   D2A 5512  23.822  38.488   8.402
   99POPC   C3A 5513  24.015  38.506   7.993
   99POPC   C4A 5514  24.146  38.915   7.843
   99POPC   C1B 5515  23.422  38.545   8.735
   99POPC   C2B 5516  23.364  38.723   8.354
   99POPC   C3B 5517  23.487  38.546   8.002
   99POPC   C4B 5518  23.491  38.362   7.656
  100POPC   NC3 5519  14.660  15.078   9.475
  100POPC   PO4 5520  14.262  15.590   9.599
  100POPC   GL1 5521  14.253  15.299   9.241
  100POPC   GL2 5522  14.147  14.971   9.258
  100POPC   C1A 5523  14.483  15.110   8.847
  100POPC   D2A 5524  14.653  14.950   8.447
  100POPC   C3A 5525  14.565  15.137   8.067
  100POPC   C4A 5526  14.588  15.045   7.646
  100POPC   C1B 5527  13.972  15.085   8.852
  100POPC   C2B 5528  14.140  15.079   8.433
  100POPC   C3B 5529  14.119  15.400   8.111
  100POPC   C4B 5530  14.092  15.218   7.737
  101POPC   NC3 5531   4.458  23.986   9.666
  101POPC   PO4 5532   4.373  24.673   9.538
  101POPC   GL1 5533   4.526  24.555   9.170
  101POPC   GL2 5534   4.580  24.168   9.201
  101POPC   C1A 5535   4.400  24.696   8.771
  101POPC   D2A 5536   4.605  24.672   8.374
  101POPC   C3A 5537   4.259  24.753   8.087
  101POPC   C4A 5538   4.124  24.830   7.688
  101POPC   C1B 5539   4.241  24.220   8.891
  101POPC   C2B 5540   4.214  24.333   8.451
  101POPC   C3B 5541   4.448  24.285   8.075
  101POPC   C4B 5542   4.225  24.278   7.710
  102POPC   NC3 5543  17.220  25.905   9.576
  102POPC   PO4 5544  16.582  25.886   9.683
  102POPC   GL1 5545  16.805  25.995   9.265
  102POPC   GL2 5546  16.634  26.298   9.137
  102POPC   C1A 5547  17.046  26.063   8.851
  102POPC   D2A 5548  16.939  26.378   8.500
  102POPC   C3A 5549  17.007  26.277   8.031
  102POPC   C4A 5550  16.949  25.888   7.747
  102POPC   C1B 5551  16.538  26.096   8.739
  102POPC   C2B 5552  16.441  26.050   8.289
  102POPC   C3B 5553  16.497  26.130   7.834
  102POPC   C4B 5554  16.528  25.933   7.383
  103POPC   NC3 5555  11.546  22.833   9.662
  103POPC   PO4 5556  12.216  22.922   9.640
  103POPC   GL1 5557  12.026  22.934   9.231
  103POPC   GL2 5558  11.725  23.111   9.275
  103POPC   C1A 5559  12.202  22.839   8.802
  103POPC   D2A 5560  12.105  22.601   8.450
  103POPC   C3A 5561  12.160  22.790   8.063
  103POPC   C4A 5562  12.078  22.545   7.720
  103POPC   C1B 5563  11.575  23.197   8.904
  103POPC   C2B 5564  11.780  23.014   8.562
  103POPC   C3B 5565  11.669  22.805   8.205
  103POPC   C4B 5566  11.701  22.908   7.764
  104POPC   NC3 5567  10.055  41.436   9.588
  104POPC   PO4 5568   9.469  41.834   9.530
  104POPC   GL1 5569   9.746  41.617   9.195
  104POPC   GL2 5570   9.441  41.467   9.103
  104POPC   C1A 5571   9.931  41.420   8.819
  104POPC   D2A 5572   9.812  41.269   8.405
  104POPC   C3A 5573  10.029  41.481   8.044
  104POPC   C4A 5574   9.862  41.537   7.618
  104POPC   C1B 5575   9.419  41.674   8.747
  104POPC   C2B 5576   9.286  41.544   8.366
  104POPC   C3B 5577   9.489  41.476   7.991
  104POPC   C4B 5578   9.348  41.593   7.600
  105POPC   NC3 5579  41.962  13.759   9.593
  105POPC   PO4 5580  42.467  13.353   9.559
  105POPC   GL1 5581  42.344  13.673   9.201
  105POPC   GL2 5582  42.212  13.975   9.026
  105POPC   C1A 5583  42.301  13.563   8.736
  105POPC   D2A 5584  42.533  13.424   8.348
  105POPC   C3A 5585  42.297  13.447   7.975
  105POPC   C4A 5586  42.133  13.542   7.580
  105POPC   C1B 5587  42.556  13.992   8.770
  105POPC   C2B 5588  42.458  13.941   8.345
  105POPC   C3B 5589  42.297  13.954   7.912
  105POPC   C4B 5590  42.605  13.752   7.637
  106POPC   NC3 5591  23.398  34.872   9.453
  106POPC   PO4 5592  24.075  34.932   9.360
  106POPC   GL1 5593  23.737  34.701   9.105
  106POPC   GL2 5594  23.608  34.382   9.270
  106POPC   C1A 5595  23.504  34.710   8.688
  106POPC   D2A 5596  23.661  34.549   8.297
  106POPC   C3A 5597  23.526  34.761   7.920
  106POPC   C4A 5598  23.776  34.690   7.527
  106POPC   C1B 5599  23.445  34.234   8.854
  106POPC   C2B 5600  23.191  34.325   8.454
  106POPC   C3B 5601  23.270  34.340   8.039
  106POPC   C4B 5602  23.651  34.278   7.815
  107POPC   NC3 5603  25.920  15.576   9.393
  107POPC   PO4 5604  26.152  15.024   9.360
  107POPC   GL1 5605  25.985  15.061   8.929
  107POPC   GL2 5606  25.920  15.423   8.914
  107POPC   C1A 5607  25.704  15.174   8.542
  107POPC   D2A 5608  25.723  15.441   8.165
  107POPC   C3A 5609  25.812  15.190   7.796
  107POPC   C4A 5610  26.121  14.886   7.729
  107POPC   C1B 5611  26.189  15.379   8.549
  107POPC   C2B 5612  26.216  15.221   8.123
  107POPC   C3B 5613  26.352  15.347   7.687
  107POPC   C4B 5614  26.492  15.364   7.220
  108POPC   NC3 5615  24.437  36.146   9.819
  108POPC   PO4 5616  24.291  35.841   9.273
  108POPC   GL1 5617  24.333  36.309   9.125
  108POPC   GL2 5618  24.677  36.488   9.166
  108POPC   C1A 5619  24.256  36.298   8.673
  108POPC   D2A 5620  24.439  35.910   8.464
  108POPC   C3A 5621  24.733  35.912   8.107
  108POPC   C4A 5622  24.474  36.144   7.801
  108POPC   C1B 5623  24.778  36.279   8.771
  108POPC   C2B 5624  24.678  36.361   8.361
  108POPC   C3B 5625  24.890  36.383   7.966
  108POPC   C4B 5626  24.802  36.450   7.512
  109POPC   NC3 5627   1.269  15.764   9.319
  109POPC   PO4 5628   1.132  16.399   9.306
  109POPC   GL1 5629   1.114  16.136   8.992
  109POPC   GL2 5630   0.789  15.967   9.050
  109POPC   C1A 5631   1.353  15.995   8.638
  109POPC   D2A 5632   1.317  15.641   8.341
  109POPC   C3A 5633   1.341  15.814   7.929
  109POPC   C4A 5634   1.493  16.237   7.795
  109POPC   C1B 5635   0.849  15.913   8.608
  109POPC   C2B 5636   0.802  16.015   8.170
  109POPC   C3B 5637   0.987  16.151   7.765
  109POPC   C4B 5638   1.038  15.913   7.378
  110POPC   NC3 5639  42.681   6.963   9.548
  110POPC   PO4 5640  43.002   6.355   9.653
  110POPC   GL1 5641  43.069   6.622   9.242
  110POPC   GL2 5642  43.403   6.752   9.193
  110POPC   C1A 5643  43.081   6.817   8.780
  110POPC   D2A 5644  42.852   6.859   8.369
  110POPC   C3A 5645  43.043   6.730   8.020
  110POPC   C4A 5646  42.887   6.710   7.611
  110POPC   C1B 5647  43.548   6.622   8.780
  110POPC   C2B 5648  43.381   6.557   8.369
  110POPC   C3B 5649  43.451   6.438   7.925
  110POPC   C4B 5650  43.179   6.263   7.646
  111POPC   NC3 5651  41.858  10.151   9.772
  111POPC   PO4 5652  41.549   9.621   9.555
  111POPC   GL1 5653  41.590   9.517   9.148
  111POPC   GL2 5654  41.559   9.877   9.090
  111POPC   C1A 5655  41.358   9.338   8.775
  111POPC   D2A 5656  41.440   9.445   8.311
  111POPC   C3A 5657  41.218   9.511   7.884
  111POPC   C4A 5658  41.192   9.446   7.395
  111POPC   C1B 5659  41.720   9.696   8.701
  111POPC   C2B 5660  41.713   9.905   8.338
  111POPC   C3B 5661  41.687   9.747   7.951
  111POPC   C4B 5662  41.550   9.793   7.548
  112POPC   NC3 5663  25.914  33.013   9.463
  112POPC   PO4 5664  26.363  33.457   9.367
  112POPC   GL1 5665  26.289  33.093   9.069
  112POPC   GL2 5666  26.042  32.779   9.048
  112POPC   C1A 5667  26.173  33.030   8.643
  112POPC   D2A 5668  26.023  32.849   8.273
  112POPC   C3A 5669  26.207  32.933   7.856
  112POPC   C4A 5670  26.017  32.749   7.450
  112POPC   C1B 5671  25.711  32.818   8.701
  112POPC   C2B 5672  25.520  32.735   8.299
  112POPC   C3B 5673  25.706  32.910   7.889
  112POPC   C4B 5674  25.878  33.344   7.910
  113POPC   NC3 5675  23.401   7.924   9.481
  113POPC   PO4 5676  22.709   8.100   9.584
  113POPC   GL1 5677  22.847   8.147   9.152
  113POPC   GL2 5678  22.889   8.471   8.941
  113POPC   C1A 5679  22.812   7.997   8.730
  113POPC   D2A 5680  22.888   8.216   8.334
  113POPC   C3A 5681  22.977   7.901   8.030
  113POPC   C4A 5682  23.346   7.965   7.761
  113POPC   C1B 5683  23.124   8.707   8.588
  113POPC   C2B 5684  23.376   8.593   8.257
  113POPC   C3B 5685  23.237   8.527   7.873
  113POPC   C4B 5686  22.874   8.352   7.802
  114POPC   NC3 5687   0.942  12.098   9.715
  114POPC   PO4 5688   1.463  11.820   9.350
  114POPC   GL1 5689   1.039  11.965   9.222
  114POPC   GL2 5690   0.904  12.320   9.243
  114POPC   C1A 5691   0.904  11.987   8.811
  114POPC   D2A 5692   1.026  11.781   8.436
  114POPC   C3A 5693   1.265  11.974   8.107
  114POPC   C4A 5694   1.629  11.842   7.902
  114POPC   C1B 5695   1.131  12.447   8.887
  114POPC   C2B 5696   1.142  12.311   8.473
  114POPC   C3B 5697   1.080  12.454   8.066
  114POPC   C4B 5698   1.123  12.274   7.673
  115POPC   NC3 5699   7.703  11.621   9.430
  115POPC   PO4 5700   7.397  11.023   9.333
  115POPC   GL1 5701   7.205  11.335   9.088
  115POPC   GL2 5702   7.457  11.548   9.007
  115POPC   C1A 5703   7.265  11.225   8.689
  115POPC   D2A 5704   7.491  11.451   8.409
  115POPC   C3A 5705   7.432  11.172   8.072
  115POPC   C4A 5706   7.509  11.186   7.663
  115POPC   C1B 5707   7.868  11.463   8.798
  115POPC   C2B 5708   8.010  11.567   8.389
  115POPC   C3B 5709   7.772  11.585   7.999
  115POPC   C4B 5710   7.802  11.820   7.593
  116POPC   NC3 5711   6.850  32.225   9.579
  116POPC   PO4 5712   6.227  32.214   9.729
  116POPC   GL1 5713   6.417  32.284   9.285
  116POPC   GL2 5714   6.657  32.572   9.236
  116POPC   C1A 5715   6.551  32.094   8.865
  116POPC   D2A 5716   6.692  31.896   8.495
  116POPC   C3A 5717   6.571  31.969   8.090
  116POPC   C4A 5718   6.951  32.086   7.936
  116POPC   C1B 5719   6.682  32.558   8.765
  116POPC   C2B 5720   6.759  32.376   8.350
  116POPC   C3B 5721   6.650  32.515   7.917
  116POPC   C4B 5722   6.259  32.570   7.629
  117POPC   NC3 5723  21.066  15.677   9.535
  117POPC   PO4 5724  20.635  16.224   9.507
  117POPC   GL1 5725  20.814  16.010   9.188
  117POPC   GL2 5726  20.584  15.729   9.297
  117POPC   C1A 5727  20.700  16.179   8.762
  117POPC   D2A 5728  20.334  16.082   8.478
  117POPC   C3A 5729  20.475  16.007   8.042
  117POPC   C4A 5730  20.759  16.201   7.722
  117POPC   C1B 5731  20.588  15.671   8.850
  117POPC   C2B 5732  20.736  15.745   8.453
  117POPC   C3B 5733  20.745  15.533   8.085
  117POPC   C4B 5734  20.706  15.687   7.681
  118POPC   NC3 5735  35.163  18.653   9.438
  118POPC   PO4 5736  35.607  18.030   9.426
  118POPC   GL1 5737  35.349  18.285   9.148
  118POPC   GL2 5738  35.533  18.607   9.045
  118POPC   C1A 5739  35.170  18.455   8.743
  118POPC   D2A 5740  35.305  18.362   8.319
  118POPC   C3A 5741  35.103  18.440   7.932
  118POPC   C4A 5742  34.983  18.061   7.804
  118POPC   C1B 5743  35.632  18.240   8.736
  118POPC   C2B 5744  35.801  18.248   8.324
  118POPC   C3B 5745  35.624  18.296   7.906
  118POPC   C4B 5746  35.466  18.582   7.579
  119POPC   NC3 5747  23.095  29.549   9.595
  119POPC   PO4 5748  22.521  29.237   9.693
  119POPC   GL1 5749  22.662  29.505   9.217
  119POPC   GL2 5750  23.005  29.448   9.111
  119POPC   C1A 5751  22.637  29.430   8.704
  119POPC   D2A 5752  22.575  29.412   8.238
  119POPC   C3A 5753  22.677  29.099   7.975
  119POPC   C4A 5754  23.045  28.877   7.896
  119POPC   C1B 5755  23.153  29.346   8.706
  119POPC   C2B 5756  23.036  29.157   8.351
  119POPC   C3B 5757  23.132  29.368   7.987
  119POPC   C4B 5758  23.315  29.252   7.603
  120POPC   NC3 5759  36.375  28.482   9.584
  120POPC   PO4 5760  35.742  28.160   9.571
  120POPC   GL1 5761  36.062  28.228   9.249
  120POPC   GL2 5762  36.363  28.058   9.287
  120POPC   C1A 5763  36.099  28.368   8.832
  120POPC   D2A 5764  35.846  28.378   8.471
  120POPC   C3A 5765  36.020  28.300   8.083
  120POPC   C4A 5766  35.849  28.135   7.715
  120POPC   C1B 5767  36.520  28.055   8.871
  120POPC   C2B 5768  36.354  28.122   8.456
  120POPC   C3B 5769  36.568  28.120   8.078
  120POPC   C4B 5770  36.369  28.178   7.708
  121POPC   NC3 5771  30.386  23.102   9.436
  121POPC   PO4 5772  29.849  22.639   9.503
  121POPC   GL1 5773  29.878  22.983   9.216
  121POPC   GL2 5774  29.566  23.121   9.113
  121POPC   C1A 5775  30.002  22.922   8.798
  121POPC   D2A 5776  30.092  23.086   8.395
  121POPC   C3A 5777  30.141  22.854   8.013
  121POPC   C4A 5778  30.050  23.083   7.589
  121POPC   C1B 5779  29.503  22.786   8.799
  121POPC   C2B 5780  29.676  22.766   8.402
  121POPC   C3B 5781  29.672  23.018   8.056
  121POPC   C4B 5782  29.544  22.989   7.650
  122POPC   NC3 5783   4.256  18.521   9.573
  122POPC   PO4 5784   4.329  17.906   9.627
  122POPC   GL1 5785   4.222  18.109   9.242
  122POPC   GL2 5786   4.476  18.302   9.138
  122POPC   C1A 5787   4.124  18.038   8.810
  122POPC   D2A 5788   4.335  18.132   8.408
  122POPC   C3A 5789   4.085  18.208   8.025
  122POPC   C4A 5790   4.307  18.020   7.677
  122POPC   C1B 5791   4.466  18.516   8.741
  122POPC   C2B 5792   4.396  18.634   8.315
  122POPC   C3B 5793   4.529  18.429   7.934
  122POPC   C4B 5794   4.818  18.560   7.647
  123POPC   NC3 5795  25.641   0.762   9.592
  123POPC   PO4 5796  25.072   0.334   9.461
  123POPC   GL1 5797  25.186   0.288   9.079
  123POPC   GL2 5798  25.438   0.535   9.156
  123POPC   C1A 5799  25.062   0.457   8.690
  123POPC   D2A 5800  25.273   0.470   8.335
  123POPC   C3A 5801  25.147   0.558   7.943
  123POPC   C4A 5802  25.378   0.357   7.642
  123POPC   C1B 5803  25.582   0.477   8.759
  123POPC   C2B 5804  25.693   0.762   8.422
  123POPC   C3B 5805  25.670   0.565   8.027
  123POPC   C4B 5806  25.805   0.665   7.632
  124POPC   NC3 5807  44.443  21.001   9.490
  124POPC   PO4 5808  44.256  20.432   9.749
  124POPC   GL1 5809  44.521  20.540   9.247
  124POPC   GL2 5810  44.833  20.760   9.147
  124POPC   C1A 5811  44.433  20.631   8.791
  124POPC   D2A 5812  44.355  20.434   8.397
  124POPC   C3A 5813  44.502  20.638   8.032
  124POPC   C4A 5814  44.457  20.520   7.610
  124POPC   C1B 5815  44.926  20.454   8.773
  124POPC   C2B 5816  44.853  20.267   8.328
  124POPC   C3B 5817  44.901  20.373   7.874
  124POPC   C4B 5818  44.935  20.771   7.669
  125POPC   NC3 5819  12.232  30.869   9.634
  125POPC   PO4 5820  11.601  30.746   9.656
  125POPC   GL1 5821  11.833  30.844   9.209
  125POPC   GL2 5822  12.186  30.905   9.137
  125POPC   C1A 5823  11.946  30.773   8.699
  125POPC   D2A 5824  12.254  30.601   8.314
  125POPC   C3A 5825  12.101  30.420   7.872
  125POPC   C4A 5826  12.203  30.115   7.504
  125POPC   C1B 5827  12.380  31.021   8.743
  125POPC   C2B 5828  12.215  31.099   8.341
  125POPC   C3B 5829  12.218  30.949   7.914
  125POPC   C4B 5830  12.089  31.151   7.556
  126POPC   NC3 5831  15.017  11.624   9.314
  126POPC   PO4 5832  14.922  12.253   9.369
  126POPC   GL1 5833  15.259  12.274   9.094
  126POPC   GL2 5834  15.310  11.918   8.985
  126POPC   C1A 5835  15.286  12.315   8.664
  126POPC   D2A 5836  15.150  12.082   8.343
  126POPC   C3A 5837  15.277  12.195   7.954
  126POPC   C4A 5838  15.480  11.872   7.772
  126POPC   C1B 5839  14.882  11.971   8.775
  126POPC   C2B 5840  14.700  11.799   8.389
  126POPC   C3B 5841  14.857  11.868   7.978
  126POPC   C4B 5842  15.001  11.802   7.583
  127POPC   NC3 5843  17.412  36.295   9.881
  127POPC   PO4 5844  17.866  35.861   9.496
  127POPC   GL1 5845  17.682  36.255   9.339
  127POPC   GL2 5846  17.331  36.319   9.283
  127POPC   C1A 5847  17.690  36.404   8.901
  127POPC   D2A 5848  17.457  36.415   8.534
  127POPC   C3A 5849  17.621  36.275   8.126
  127POPC   C4A 5850  17.429  36.449   7.751
  127POPC   C1B 5851  17.439  35.972   8.969
  127POPC   C2B 5852  17.521  35.902   8.506
  127POPC   C3B 5853  17.477  35.776   8.065
  127POPC   C4B 5854  17.724  35.546   7.748
  128POPC   NC3 5855  44.008  36.559   9.476
  128POPC   PO4 5856  43.757  35.963   9.456
  128POPC   GL1 5857  44.027  36.116   9.157
  128POPC   GL2 5858  43.792  36.362   9.073
  128POPC   C1A 5859  44.016  36.090   8.703
  128POPC   D2A 5860  43.727  36.020   8.371
  128POPC   C3A 5861  44.018  35.884   8.070
  128POPC   C4A 5862  44.074  35.963   7.643
  128POPC   C1B 5863  43.743  36.558   8.726
  128POPC   C2B 5864  43.932  36.536   8.373
  128POPC   C3B 5865  43.996  36.370   7.974
  128POPC   C4B 5866  43.744  36.383   7.607
  129POPC   NC3 5867  43.596  12.915   9.595
  129POPC   PO4 5868  44.077  12.965   9.189
  129POPC   GL1 5869  43.670  12.962   9.067
  129POPC   GL2 5870  43.511  12.651   9.135
  129POPC   C1A 5871  43.703  12.972   8.641
  129POPC   D2A 5872  43.750  13.084   8.201
  129POPC   C3A 5873  44.025  12.847   7.957
  129POPC   C4A 5874  43.897  12.902   7.549
  129POPC   C1B 5875  43.464  12.499   8.708
  129POPC   C2B 5876  43.642  12.586   8.301
  129POPC   C3B 5877  43.517  12.734   7.874
  129POPC   C4B 5878  43.525  12.590   7.381
  130POPC   NC3 5879  34.592  34.133   9.583
  130POPC   PO4 5880  34.266  33.477   9.412
  130POPC   GL1 5881  34.580  33.750   9.157
  130POPC   GL2 5882  34.807  34.045   9.150
  130POPC   C1A 5883  34.547  33.860   8.696
  130POPC   D2A 5884  34.266  33.740   8.319
  130POPC   C3A 5885  34.527  33.630   7.941
  130POPC   C4A 5886  34.431  33.654   7.483
  130POPC   C1B 5887  34.978  34.239   8.830
  130POPC   C2B 5888  34.933  34.122   8.453
  130POPC   C3B 5889  34.606  34.125   8.183
  130POPC   C4B 5890  34.626  34.103   7.774
  131POPC   NC3 5891   4.616  25.822   9.539
  131POPC   PO4 5892   5.287  25.988   9.514
  131POPC   GL1 5893   4.948  25.941   9.176
  131POPC   GL2 5894   5.031  26.240   9.062
  131POPC   C1A 5895   4.696  26.006   8.770
  131POPC   D2A 5896   4.836  26.311   8.454
  131POPC   C3A 5897   4.827  26.278   8.021
  131POPC   C4A 5898   4.838  26.037   7.675
  131POPC   C1B 5899   5.207  26.009   8.700
  131POPC   C2B 5900   5.353  26.270   8.376
  131POPC   C3B 5901   5.300  26.442   8.016
  131POPC   C4B 5902   5.332  26.157   7.646
  132POPC   NC3 5903   8.803  37.065   9.457
  132POPC   PO4 5904   9.131  36.534   9.319
  132POPC   GL1 5905   9.031  36.804   9.057
  132POPC   GL2 5906   8.707  36.733   9.059
  132POPC   C1A 5907   9.007  36.657   8.667
  132POPC   D2A 5908   9.221  36.626   8.324
  132POPC   C3A 5909   8.970  36.797   8.008
  132POPC   C4A 5910   8.698  36.712   7.675
  132POPC   C1B 5911   8.697  37.128   8.796
  132POPC   C2B 5912   8.540  37.304   8.393
  132POPC   C3B 5913   8.669  37.255   7.948
  132POPC   C4B 5914   8.547  37.181   7.528
  133POPC   NC3 5915   0.627  10.814   9.499
  133POPC   PO4 5916   0.319  10.186   9.470
  133POPC   GL1 5917   0.500  10.459   9.156
  133POPC   GL2 5918   0.277  10.746   9.137
  133POPC   C1A 5919   0.556  10.569   8.715
  133POPC   D2A 5920   0.310  10.371   8.385
  133POPC   C3A 5921   0.455  10.367   7.982
  133POPC   C4A 5922   0.536  10.795   7.853
  133POPC   C1B 5923   0.067  10.706   8.769
  133POPC   C2B 5924   0.052  10.816   8.375
  133POPC   C3B 5925   0.017  10.626   8.027
  133POPC   C4B 5926   0.005  10.288   7.784
  134POPC   NC3 5927   2.382  22.354   9.746
  134POPC   PO4 5928   2.918  22.069   9.425
  134POPC   GL1 5929   2.604  22.215   9.060
  134POPC   GL2 5930   2.649  22.549   8.907
  134POPC   C1A 5931   2.459  22.190   8.619
  134POPC   D2A 5932   2.768  22.264   8.289
  134POPC   C3A 5933   2.689  21.975   7.989
  134POPC   C4A 5934   2.555  22.159   7.652
  134POPC   C1B 5935   2.988  22.292   8.744
  134POPC   C2B 5936   3.307  22.348   8.486
  134POPC   C3B 5937   3.310  22.421   8.093
  134POPC   C4B 5938   2.944  22.496   7.830
  135POPC   NC3 5939  20.838  30.498   9.302
  135POPC   PO4 5940  20.654  31.025   9.737
  135POPC   GL1 5941  20.530  30.881   9.191
  135POPC   GL2 5942  20.501  30.597   8.962
  135POPC   C1A 5943  20.316  31.026   8.782
  135POPC   D2A 5944  20.452  31.204   8.377
  135POPC   C3A 5945  20.398  30.939   8.011
  135POPC   C4A 5946  20.570  30.645   7.719
  135POPC   C1B 5947  20.687  30.397   8.617
  135POPC   C2B 5948  20.762  30.614   8.227
  135POPC   C3B 5949  21.028  30.477   7.853
  135POPC   C4B 5950  20.917  30.427   7.414
  136POPC   NC3 5951  14.020   8.387   9.396
  136POPC   PO4 5952  14.147   7.792   9.733
  136POPC   GL1 5953  14.206   7.921   9.276
  136POPC   GL2 5954  14.447   8.183   9.178
  136POPC   C1A 5955  14.118   8.013   8.812
  136POPC   D2A 5956  14.033   8.251   8.411
  136POPC   C3A 5957  14.211   8.086   7.988
  136POPC   C4A 5958  14.540   8.051   7.639
  136POPC   C1B 5959  14.442   8.402   8.754
  136POPC   C2B 5960  14.522   8.392   8.286
  136POPC   C3B 5961  14.625   8.517   7.848
  136POPC   C4B 5962  14.573   8.769   7.449
  137POPC   NC3 5963   1.704  35.084   9.516
  137POPC   PO4 5964   2.299  35.428   9.573
  137POPC   GL1 5965   1.963  35.240   9.119
  137POPC   GL2 5966   1.808  35.515   8.898
  137POPC   C1A 5967   2.031  35.170   8.634
  137POPC   D2A 5968   1.810  35.460   8.332
  137POPC   C3A 5969   1.904  35.348   7.920
  137POPC   C4A 5970   2.193  35.048   7.743
  137POPC   C1B 5971   2.028  35.806   8.644
  137POPC   C2B 5972   2.213  35.893   8.291
  137POPC   C3B 5973   2.125  35.884   7.892
  137POPC   C4B 5974   2.013  35.673   7.534
  138POPC   NC3 5975  32.930  38.190   9.453
  138POPC   PO4 5976  33.021  38.785   9.540
  138POPC   GL1 5977  33.165  38.538   9.155
  138POPC   GL2 5978  32.852  38.386   9.012
  138POPC   C1A 5979  33.105  38.678   8.720
  138POPC   D2A 5980  32.840  38.831   8.409
  138POPC   C3A 5981  32.968  38.601   8.044
  138POPC   C4A 5982  33.189  38.680   7.648
  138POPC   C1B 5983  32.965  38.180   8.633
  138POPC   C2B 5984  32.696  38.115   8.264
  138POPC   C3B 5985  32.567  38.280   7.877
  138POPC   C4B 5986  32.860  38.322   7.601
  139POPC   NC3 5987  35.256   3.118   9.416
  139POPC   PO4 5988  35.100   3.720   9.702
  139POPC   GL1 5989  35.019   3.687   9.234
  139POPC   GL2 5990  34.894   3.366   9.127
  139POPC   C1A 5991  35.205   3.604   8.802
  139POPC   D2A 5992  35.360   3.471   8.380
  139POPC   C3A 5993  35.305   3.676   7.975
  139POPC   C4A 5994  35.337   3.956   7.613
  139POPC   C1B 5995  35.131   3.087   8.783
  139POPC   C2B 5996  35.255   2.972   8.360
  139POPC   C3B 5997  35.393   3.141   7.965
  139POPC   C4B 5998  35.022   3.245   7.754
  140POPC   NC3 5999  30.306   5.659   9.431
  140POPC   PO4 6000  30.975   5.750   9.494
  140POPC   GL1 6001  30.955   6.001   9.137
  140POPC   GL2 6002  30.695   6.198   9.238
  140POPC   C1A 6003  30.634   5.941   8.793
  140POPC   D2A 6004  30.405   5.995   8.408
  140POPC   C3A 6005  30.630   5.861   8.041
  140POPC   C4A 6006  30.473   5.848   7.617
  140POPC   C1B 6007  30.793   6.410   8.856
  140POPC   C2B 6008  30.869   6.243   8.455
  140POPC   C3B 6009  30.928   6.299   8.038
  140POPC   C4B 6010  30.613   6.316   7.741
  141POPC   NC3 6011  33.707  40.645   9.704
  141POPC   PO4 6012  34.217  40.495   9.249
  141POPC   GL1 6013  34.050  40.871   9.048
  141POPC   GL2 6014  33.729  40.985   9.102
  141POPC   C1A 6015  34.107  41.150   8.724
  141POPC   D2A 6016  33.901  41.224   8.367
  141POPC   C3A 6017  33.844  40.877   8.129
  141POPC   C4A 6018  34.078  40.874   7.775
  141POPC   C1B 6019  33.688  40.833   8.659
  141POPC   C2B 6020  33.546  40.459   8.429
  141POPC   C3B 6021  33.365  40.505   8.039
  141POPC   C4B 6022  33.580  40.731   7.707
  142POPC   NC3 6023  18.506   4.371   9.588
  142POPC   PO4 6024  17.864   4.267   9.496
  142POPC   GL1 6025  18.169   4.408   9.145
  142POPC   GL2 6026  18.554   4.563   9.115
  142POPC   C1A 6027  18.108   4.208   8.722
  142POPC   D2A 6028  17.863   4.254   8.339
  142POPC   C3A 6029  18.129   4.085   8.010
  142POPC   C4A 6030  18.272   3.988   7.607
  142POPC   C1B 6031  18.584   4.381   8.691
  142POPC   C2B 6032  18.347   4.427   8.322
  142POPC   C3B 6033  18.354   4.536   7.885
  142POPC   C4B 6034  18.555   4.374   7.478
  143POPC   NC3 6035   0.775   3.041   9.430
  143POPC   PO4 6036   0.345   2.644   9.752
  143POPC   GL1 6037   0.343   2.726   9.272
  143POPC   GL2 6038   0.398   2.413   9.102
  143POPC   C1A 6039   0.379   2.928   8.840
  143POPC   D2A 6040   0.548   3.168   8.467
  143POPC   C3A 6041   0.661   2.924   8.078
  143POPC   C4A 6042   0.335   2.852   7.760
  143POPC   C1B 6043   0.591   2.472   8.712
  143POPC   C2B 6044   0.451   2.526   8.309
  143POPC   C3B 6045   0.593   2.437   7.904
  143POPC   C4B 6046   0.196   2.354   7.760
  144POPC   NC3 6047  34.286  10.812   9.838
  144POPC   PO4 6048  34.542  11.190   9.317
  144POPC   GL1 6049  34.697  11.077   8.951
  144POPC   GL2 6050  34.722  11.419   8.888
  144POPC   C1A 6051  34.730  11.056   8.504
  144POPC   D2A 6052  34.480  11.286   8.202
  144POPC   C3A 6053  34.667  11.293   7.808
  144POPC   C4A 6054  34.697  10.985   7.515
  144POPC   C1B 6055  34.386  11.693   8.737
  144POPC   C2B 6056  34.297  11.778   8.299
  144POPC   C3B 6057  34.419  11.726   7.857
  144POPC   C4B 6058  34.261  11.837   7.476
  145POPC   NC3 6059   8.212  31.407   9.447
  145POPC   PO4 6060   8.515  30.998   9.247
  145POPC   GL1 6061   8.427  31.382   8.951
  145POPC   GL2 6062   8.253  31.707   9.043
  145POPC   C1A 6063   8.206  31.519   8.549
  145POPC   D2A 6064   7.909  31.274   8.280
  145POPC   C3A 6065   8.011  31.218   7.803
  145POPC   C4A 6066   8.171  31.209   7.344
  145POPC   C1B 6067   7.935  31.926   8.805
  145POPC   C2B 6068   7.770  31.794   8.416
  145POPC   C3B 6069   7.962  31.699   8.019
  145POPC   C4B 6070   8.105  31.675   7.571
  146POPC   NC3 6071  24.929  44.202   9.856
  146POPC   PO4 6072  25.135  43.739   9.438
  146POPC   GL1 6073  25.227  43.757   9.040
  146POPC   GL2 6074  25.262  44.101   9.018
  146POPC   C1A 6075  25.577  43.676   8.770
  146POPC   D2A 6076  25.636  43.573   8.339
  146POPC   C3A 6077  25.244  43.672   8.125
  146POPC   C4A 6078  25.209  43.838   7.717
  146POPC   C1B 6079  25.005  44.272   8.673
  146POPC   C2B 6080  25.025  44.145   8.236
  146POPC   C3B 6081  25.123  44.319   7.843
  146POPC   C4B 6082  25.131  44.250   7.383
  147POPC   NC3 6083  26.412  37.037   9.589
  147POPC   PO4 6084  25.851  36.622   9.557
  147POPC   GL1 6085  26.043  36.822   9.217
  147POPC   GL2 6086  26.393  36.689   9.186
  147POPC   C1A 6087  26.063  36.834   8.770
  147POPC   D2A 6088  25.961  37.171   8.519
  147POPC   C3A 6089  25.974  37.014   8.120
  147POPC   C4A 6090  26.029  37.136   7.713
  147POPC   C1B 6091  26.448  37.094   8.942
  147POPC   C2B 6092  26.459  37.159   8.495
  147POPC   C3B 6093  26.416  37.265   8.046
  147POPC   C4B 6094  26.505  37.255   7.588
  148POPC   NC3 6095  19.770  34.082   9.614
  148POPC   PO4 6096  20.141  33.505   9.736
  148POPC   GL1 6097  20.025  33.688   9.231
  148POPC   GL2 6098  19.678  33.805   9.140
  148POPC   C1A 6099  19.911  33.562   8.741
  148POPC   D2A 6100  19.679  33.577   8.308
  148POPC   C3A 6101  19.916  33.639   7.911
  148POPC   C4A 6102  20.161  33.844   7.538
  148POPC   C1B 6103  19.756  34.044   8.730
  148POPC   C2B 6104  19.844  34.058   8.285
  148POPC   C3B 6105  19.784  34.137   7.847
  148POPC   C4B 6106  19.381  34.213   7.677
  149POPC   NC3 6107  25.804  35.555   9.527
  149POPC   PO4 6108  26.203  35.015   9.407
  149POPC   GL1 6109  26.129  35.362   9.161
  149POPC   GL2 6110  25.837  35.274   9.102
  149POPC   C1A 6111  26.167  35.415   8.738
  149POPC   D2A 6112  26.233  35.661   8.401
  149POPC   C3A 6113  26.092  35.447   8.034
  149POPC   C4A 6114  26.110  35.595   7.627
  149POPC   C1B 6115  25.661  35.537   8.864
  149POPC   C2B 6116  25.698  35.599   8.439
  149POPC   C3B 6117  25.646  35.724   8.025
  149POPC   C4B 6118  25.593  35.480   7.680
  150POPC   NC3 6119   5.589  36.495   9.390
  150POPC   PO4 6120   5.589  35.774   9.417
  150POPC   GL1 6121   5.789  36.011   9.114
  150POPC   GL2 6122   5.987  36.311   9.020
  150POPC   C1A 6123   5.880  35.940   8.716
  150POPC   D2A 6124   6.039  36.219   8.426
  150POPC   C3A 6125   5.854  36.084   8.073
  150POPC   C4A 6126   5.864  35.775   7.765
  150POPC   C1B 6127   5.634  36.398   8.745
  150POPC   C2B 6128   5.465  36.585   8.387
  150POPC   C3B 6129   5.520  36.495   7.949
  150POPC   C4B 6130   5.729  36.268   7.617
  151POPC   NC3 6131  37.328  34.012   9.488
  151POPC   PO4 6132  36.658  33.849   9.511
  151POPC   GL1 6133  36.731  33.635   9.129
  151POPC   GL2 6134  37.104  33.633   9.171
  151POPC   C1A 6135  36.718  33.792   8.713
  151POPC   D2A 6136  36.484  33.742   8.337
  151POPC   C3A 6137  36.681  33.756   7.945
  151POPC   C4A 6138  36.935  34.048   7.758
  151POPC   C1B 6139  37.246  33.847   8.778
  151POPC   C2B 6140  37.096  33.903   8.352
  151POPC   C3B 6141  37.189  33.650   8.004
  151POPC   C4B 6142  37.310  33.746   7.592
  152POPC   NC3 6143   0.274  14.072   9.434
  152POPC   PO4 6144   0.467  14.772   9.396
  152POPC   GL1 6145   0.270  14.715   9.023
  152POPC   GL2 6146   0.370  14.390   8.995
  152POPC   C1A 6147   0.244  14.642   8.557
  152POPC   D2A 6148   0.330  14.313   8.247
  152POPC   C3A 6149   0.090  14.378   7.899
  152POPC   C4A 6150  44.798  14.676   7.877
  152POPC   C1B 6151   0.662  14.343   8.644
  152POPC   C2B 6152   0.755  14.036   8.350
  152POPC   C3B 6153   0.703  14.091   7.945
  152POPC   C4B 6154   0.583  14.436   7.731
  153POPC   NC3 6155   3.687  22.949   9.528
  153POPC   PO4 6156   4.397  22.786   9.459
  153POPC   GL1 6157   4.311  22.784   9.067
  153POPC   GL2 6158   3.924  22.705   9.112
  153POPC   C1A 6159   4.557  22.855   8.674
  153POPC   D2A 6160   4.667  22.987   8.225
  153POPC   C3A 6161   4.384  22.811   7.876
  153POPC   C4A 6162   4.254  22.696   7.426
  153POPC   C1B 6163   3.977  22.917   8.743
  153POPC   C2B 6164   4.153  22.935   8.358
  153POPC   C3B 6165   4.025  23.149   8.016
  153POPC   C4B 6166   3.894  22.977   7.656
  154POPC   NC3 6167   6.756  25.819   9.507
  154POPC   PO4 6168   7.250  26.308   9.502
  154POPC   GL1 6169   7.073  26.033   9.187
  154POPC   GL2 6170   6.838  26.322   9.169
  154POPC   C1A 6171   6.743  25.934   8.854
  154POPC   D2A 6172   6.735  26.018   8.430
  154POPC   C3A 6173   6.577  25.738   8.159
  154POPC   C4A 6174   6.721  25.833   7.774
  154POPC   C1B 6175   6.604  26.425   8.783
  154POPC   C2B 6176   6.647  26.505   8.330
  154POPC   C3B 6177   6.499  26.279   7.976
  154POPC   C4B 6178   6.488  26.353   7.529
  155POPC   NC3 6179  39.260  17.163   9.568
  155POPC   PO4 6180  39.722  17.718   9.469
  155POPC   GL1 6181  39.378  17.597   9.198
  155POPC   GL2 6182  39.082  17.388   9.153
  155POPC   C1A 6183  39.383  17.482   8.776
  155POPC   D2A 6184  39.171  17.467   8.412
  155POPC   C3A 6185  39.387  17.262   8.144
  155POPC   C4A 6186  39.450  17.554   7.867
  155POPC   C1B 6187  38.968  17.166   8.790
  155POPC   C2B 6188  38.681  17.320   8.427
  155POPC   C3B 6189  38.858  17.336   7.989
  155POPC   C4B 6190  38.755  17.036   7.659
  156POPC   NC3 6191   1.849  17.142   9.588
  156POPC   PO4 6192   2.337  17.585   9.679
  156POPC   GL1 6193   2.321  17.551   9.240
  156POPC   GL2 6194   1.951  17.530   9.205
  156POPC   C1A 6195   2.266  17.588   8.783
  156POPC   D2A 6196   2.141  17.416   8.374
  156POPC   C3A 6197   2.184  17.649   7.959
  156POPC   C4A 6198   2.111  17.863   7.548
  156POPC   C1B 6199   1.810  17.350   8.810
  156POPC   C2B 6200   1.654  17.218   8.449
  156POPC   C3B 6201   1.730  17.326   8.044
  156POPC   C4B 6202   1.757  17.016   7.773
  157POPC   NC3 6203  41.430  44.165   9.393
  157POPC   PO4 6204  42.054  43.899   9.481
  157POPC   GL1 6205  41.827  43.788   9.121
  157POPC   GL2 6206  41.499  43.599   9.105
  157POPC   C1A 6207  41.676  44.025   8.801
  157POPC   D2A 6208  41.682  44.269   8.424
  157POPC   C3A 6209  41.520  44.026   8.082
  157POPC   C4A 6210  41.480  44.119   7.645
  157POPC   C1B 6211  41.266  43.432   8.724
  157POPC   C2B 6212  41.092  43.509   8.313
  157POPC   C3B 6213  41.227  43.518   7.905
  157POPC   C4B 6214  41.550  43.633   7.709
  158POPC   NC3 6215  44.265  26.103   9.247
  158POPC   PO4 6216  43.872  25.680   9.651
  158POPC   GL1 6217  43.785  25.802   9.196
  158POPC   GL2 6218  43.698  26.170   9.198
  158POPC   C1A 6219  43.968  25.808   8.730
  158POPC   D2A 6220  44.053  25.633   8.310
  158POPC   C3A 6221  44.120  25.879   7.932
  158POPC   C4A 6222  43.937  25.921   7.506
  158POPC   C1B 6223  43.868  26.318   8.788
  158POPC   C2B 6224  43.883  26.500   8.372
  158POPC   C3B 6225  43.894  26.318   7.966
  158POPC   C4B 6226  43.577  26.318   7.585
  159POPC   NC3 6227  23.013  17.781   9.238
  159POPC   PO4 6228  23.113  17.346   9.735
  159POPC   GL1 6229  23.015  17.254   9.176
  159POPC   GL2 6230  22.774  17.373   8.997
  159POPC   C1A 6231  23.227  17.414   8.721
  159POPC   D2A 6232  23.181  17.740   8.359
  159POPC   C3A 6233  23.299  17.612   7.910
  159POPC   C4A 6234  23.270  17.342   7.514
  159POPC   C1B 6235  22.609  17.510   8.603
  159POPC   C2B 6236  22.686  17.670   8.175
  159POPC   C3B 6237  22.805  17.578   7.738
  159POPC   C4B 6238  22.997  17.740   7.356
  160POPC   NC3 6239   7.160  19.794   9.554
  160POPC   PO4 6240   7.623  20.220   9.534
  160POPC   GL1 6241   7.296  20.177   9.211
  160POPC   GL2 6242   7.352  19.823   9.091
  160POPC   C1A 6243   7.150  20.164   8.782
  160POPC   D2A 6244   7.328  20.108   8.382
  160POPC   C3A 6245   6.989  20.089   8.063
  160POPC   C4A 6246   7.025  19.889   7.668
  160POPC   C1B 6247   7.263  19.644   8.688
  160POPC   C2B 6248   7.179  19.641   8.244
  160POPC   C3B 6249   7.446  19.787   7.928
  160POPC   C4B 6250   7.613  19.573   7.562
  161POPC   NC3 6251   3.687  18.788   9.341
  161POPC   PO4 6252   3.042  18.787   9.374
  161POPC   GL1 6253   3.312  19.013   9.074
  161POPC   GL2 6254   3.571  19.268   9.158
  161POPC   C1A 6255   3.449  19.028   8.683
  161POPC   D2A 6256   3.149  19.055   8.377
  161POPC   C3A 6257   3.289  18.806   8.053
  161POPC   C4A 6258   3.543  18.966   7.759
  161POPC   C1B 6259   3.797  19.410   8.797
  161POPC   C2B 6260   3.668  19.403   8.356
  161POPC   C3B 6261   3.883  19.279   7.965
  161POPC   C4B 6262   3.826  19.326   7.507
  162POPC   NC3 6263  36.956  42.575   9.553
  162POPC   PO4 6264  36.838  41.842   9.547
  162POPC   GL1 6265  37.018  42.070   9.137
  162POPC   GL2 6266  36.899  42.418   9.079
  162POPC   C1A 6267  37.103  42.261   8.659
  162POPC   D2A 6268  36.825  42.425   8.281
  162POPC   C3A 6269  36.771  42.335   7.804
  162POPC   C4A 6270  37.074  42.302   7.437
  162POPC   C1B 6271  36.698  42.686   8.747
  162POPC   C2B 6272  36.722  42.931   8.370
  162POPC   C3B 6273  36.690  42.843   7.935
  162POPC   C4B 6274  36.355  42.858   7.642
  163POPC   NC3 6275   7.995   2.919   9.510
  163POPC   PO4 6276   8.102   2.287   9.400
  163POPC   GL1 6277   8.015   2.632   9.059
  163POPC   GL2 6278   8.199   2.949   9.048
  163POPC   C1A 6279   7.983   2.846   8.620
  163POPC   D2A 6280   8.070   2.731   8.228
  163POPC   C3A 6281   7.880   2.383   8.011
  163POPC   C4A 6282   7.869   2.660   7.633
  163POPC   C1B 6283   8.403   3.190   8.700
  163POPC   C2B 6284   8.418   3.121   8.240
  163POPC   C3B 6285   8.247   3.005   7.814
  163POPC   C4B 6286   8.459   2.993   7.387
  164POPC   NC3 6287  37.553  34.830   9.443
  164POPC   PO4 6288  37.764  34.209   9.502
  164POPC   GL1 6289  37.602  34.416   9.149
  164POPC   GL2 6290  37.925  34.557   9.114
  164POPC   C1A 6291  37.632  34.697   8.756
  164POPC   D2A 6292  37.841  34.566   8.378
  164POPC   C3A 6293  37.669  34.620   7.984
  164POPC   C4A 6294  37.344  34.882   7.862
  164POPC   C1B 6295  38.136  34.393   8.771
  164POPC   C2B 6296  38.094  34.128   8.385
  164POPC   C3B 6297  38.004  34.172   7.957
  164POPC   C4B 6298  38.022  34.459   7.606
  165POPC   NC3 6299  33.505  37.898   9.559
  165POPC   PO4 6300  34.053  37.614   9.421
  165POPC   GL1 6301  33.788  37.785   9.140
  165POPC   GL2 6302  33.530  37.528   9.189
  165POPC   C1A 6303  33.922  37.916   8.741
  165POPC   D2A 6304  33.974  37.754   8.353
  165POPC   C3A 6305  33.765  38.042   8.096
  165POPC   C4A 6306  33.811  38.092   7.679
  165POPC   C1B 6307  33.716  37.422   8.766
  165POPC   C2B 6308  33.852  37.238   8.379
  165POPC   C3B 6309  33.903  37.361   7.986
  165POPC   C4B 6310  33.631  37.643   7.791
  166POPC   NC3 6311  13.770  17.869   9.535
  166POPC   PO4 6312  13.340  17.346   9.424
  166POPC   GL1 6313  13.475  17.662   9.161
  166POPC   GL2 6314  13.831  17.640   9.102
  166POPC   C1A 6315  13.494  17.771   8.735
  166POPC   D2A 6316  13.409  17.550   8.356
  166POPC   C3A 6317  13.460  17.538   7.924
  166POPC   C4A 6318  13.776  17.257   7.800
  166POPC   C1B 6319  13.915  17.406   8.760
  166POPC   C2B 6320  13.868  17.314   8.341
  166POPC   C3B 6321  13.907  17.663   8.100
  166POPC   C4B 6322  13.956  17.706   7.682
  167POPC   NC3 6323  15.852   4.067   9.497
  167POPC   PO4 6324  15.499   4.660   9.526
  167POPC   GL1 6325  15.775   4.690   9.153
  167POPC   GL2 6326  16.104   4.520   9.217
  167POPC   C1A 6327  15.859   4.461   8.743
  167POPC   D2A 6328  15.873   4.297   8.331
  167POPC   C3A 6329  15.850   4.513   7.939
  167POPC   C4A 6330  16.114   4.365   7.595
  167POPC   C1B 6331  16.340   4.328   8.856
  167POPC   C2B 6332  16.361   4.174   8.439
  167POPC   C3B 6333  16.321   4.382   8.069
  167POPC   C4B 6334  16.283   4.774   7.857
  168POPC   NC3 6335  29.463   8.628   9.729
  168POPC   PO4 6336  28.882   8.840   9.402
  168POPC   GL1 6337  29.138   8.897   9.026
  168POPC   GL2 6338  29.377   8.645   8.933
  168POPC   C1A 6339  29.187   8.934   8.572
  168POPC   D2A 6340  29.484   8.846   8.250
  168POPC   C3A 6341  29.364   9.043   7.896
  168POPC   C4A 6342  28.941   9.059   7.780
  168POPC   C1B 6343  28.996   8.484   8.726
  168POPC   C2B 6344  28.978   8.435   8.318
  168POPC   C3B 6345  29.091   8.609   7.942
  168POPC   C4B 6346  28.990   8.648   7.482
  169POPC   NC3 6347  44.074  42.630   9.525
  169POPC   PO4 6348  43.622  42.095   9.325
  169POPC   GL1 6349  43.818  42.358   9.007
  169POPC   GL2 6350  43.758  42.643   9.128
  169POPC   C1A 6351  43.828  42.241   8.581
  169POPC   D2A 6352  43.573  42.066   8.244
  169POPC   C3A 6353  43.750  42.276   7.894
  169POPC   C4A 6354  44.016  42.542   7.644
  169POPC   C1B 6355  43.620  42.712   8.697
  169POPC   C2B 6356  43.627  42.602   8.255
  169POPC   C3B 6357  43.580  42.775   7.820
  169POPC   C4B 6358  43.555  42.784   7.326
  170POPC   NC3 6359  44.427   2.274   9.412
  170POPC   PO4 6360  44.949   1.884   9.598
  170POPC   GL1 6361  44.777   1.986   9.205
  170POPC   GL2 6362   0.018   2.104   8.991
  170POPC   C1A 6363  44.577   1.974   8.809
  170POPC   D2A 6364  44.728   1.876   8.417
  170POPC   C3A 6365  44.410   1.711   8.147
  170POPC   C4A 6366  44.562   1.718   7.744
  170POPC   C1B 6367   0.098   2.247   8.598
  170POPC   C2B 6368  44.835   2.389   8.288
  170POPC   C3B 6369  44.650   2.163   7.992
  170POPC   C4B 6370  44.708   2.248   7.594
  171POPC   NC3 6371   3.530  25.626   9.619
  171POPC   PO4 6372   3.830  25.071   9.657
  171POPC   GL1 6373   3.696  25.250   9.234
  171POPC   GL2 6374   4.024  25.357   9.205
  171POPC   C1A 6375   3.464  25.183   8.784
  171POPC   D2A 6376   3.368  24.953   8.363
  171POPC   C3A 6377   3.316  25.123   7.956
  171POPC   C4A 6378   3.148  25.446   7.684
  171POPC   C1B 6379   4.021  25.093   8.838
  171POPC   C2B 6380   3.845  25.159   8.427
  171POPC   C3B 6381   3.838  25.172   7.994
  171POPC   C4B 6382   3.646  25.356   7.636
  172POPC   NC3 6383  39.652  38.267   9.363
  172POPC   PO4 6384  40.174  38.702   9.408
  172POPC   GL1 6385  39.962  38.545   9.057
  172POPC   GL2 6386  40.035  38.192   9.024
  172POPC   C1A 6387  39.938  38.600   8.611
  172POPC   D2A 6388  39.988  38.357   8.249
  172POPC   C3A 6389  39.991  38.591   7.870
  172POPC   C4A 6390  39.759  38.618   7.485
  172POPC   C1B 6391  40.238  38.087   8.647
  172POPC   C2B 6392  40.339  37.960   8.245
  172POPC   C3B 6393  40.224  38.145   7.845
  172POPC   C4B 6394  40.283  38.424   7.488
  173POPC   NC3 6395  28.825  29.582   9.457
  173POPC   PO4 6396  29.089  28.960   9.525
  173POPC   GL1 6397  29.034  29.180   9.183
  173POPC   GL2 6398  29.316  29.363   9.132
  173POPC   C1A 6399  28.832  29.040   8.860
  173POPC   D2A 6400  28.901  28.859   8.477
  173POPC   C3A 6401  29.127  29.096   8.207
  173POPC   C4A 6402  28.921  29.069   7.815
  173POPC   C1B 6403  29.266  29.262   8.691
  173POPC   C2B 6404  29.441  29.551   8.390
  173POPC   C3B 6405  29.403  29.657   7.978
  173POPC   C4B 6406  29.306  29.366   7.687
  174POPC   NC3 6407  21.818  23.009   9.572
  174POPC   PO4 6408  21.191  23.031   9.746
  174POPC   GL1 6409  21.323  22.954   9.324
  174POPC   GL2 6410  21.168  22.642   9.246
  174POPC   C1A 6411  21.532  23.058   8.909
  174POPC   D2A 6412  21.624  22.895   8.493
  174POPC   C3A 6413  21.537  23.053   8.079
  174POPC   C4A 6414  21.457  22.700   7.799
  174POPC   C1B 6415  21.127  22.779   8.809
  174POPC   C2B 6416  21.105  22.899   8.366
  174POPC   C3B 6417  21.051  22.986   7.934
  174POPC   C4B 6418  20.995  22.741   7.583
  175POPC   NC3 6419  15.050  43.869   9.545
  175POPC   PO4 6420  15.669  43.555   9.631
  175POPC   GL1 6421  15.472  43.816   9.249
  175POPC   GL2 6422  15.125  43.865   9.050
  175POPC   C1A 6423  15.585  43.953   8.836
  175POPC   D2A 6424  15.413  43.894   8.418
  175POPC   C3A 6425  15.081  43.940   8.112
  175POPC   C4A 6426  15.145  44.096   7.706
  175POPC   C1B 6427  15.007  44.061   8.665
  175POPC   C2B 6428  14.776  44.258   8.335
  175POPC   C3B 6429  14.670  44.217   7.893
  175POPC   C4B 6430  14.796  44.285   7.405
  176POPC   NC3 6431  25.614  36.219   9.514
  176POPC   PO4 6432  26.199  35.808   9.525
  176POPC   GL1 6433  25.965  35.922   9.191
  176POPC   GL2 6434  25.995  36.290   9.166
  176POPC   C1A 6435  25.983  35.917   8.766
  176POPC   D2A 6436  25.879  36.072   8.377
  176POPC   C3A 6437  26.095  35.974   8.033
  176POPC   C4A 6438  25.896  36.056   7.687
  176POPC   C1B 6439  25.781  36.406   8.791
  176POPC   C2B 6440  25.842  36.571   8.370
  176POPC   C3B 6441  26.025  36.481   7.973
  176POPC   C4B 6442  26.122  36.502   7.537
  177POPC   NC3 6443  17.465  41.745   9.925
  177POPC   PO4 6444  17.618  42.308   9.518
  177POPC   GL1 6445  17.592  42.516   9.131
  177POPC   GL2 6446  17.323  42.292   9.066
  177POPC   C1A 6447  17.720  42.637   8.695
  177POPC   D2A 6448  17.699  42.731   8.244
  177POPC   C3A 6449  17.536  42.368   8.000
  177POPC   C4A 6450  17.291  42.365   7.588
  177POPC   C1B 6451  17.653  42.115   8.799
  177POPC   C2B 6452  17.606  41.933   8.396
  177POPC   C3B 6453  17.759  41.893   7.991
  177POPC   C4B 6454  17.755  42.137   7.598
  178POPC   NC3 6455  42.873  26.605   9.876
  178POPC   PO4 6456  43.189  27.023   9.492
  178POPC   GL1 6457  43.104  26.684   9.249
  178POPC   GL2 6458  43.419  26.622   9.088
  178POPC   C1A 6459  42.975  26.641   8.817
  178POPC   D2A 6460  43.103  26.949   8.521
  178POPC   C3A 6461  43.096  26.932   8.067
  178POPC   C4A 6462  42.911  26.880   7.628
  178POPC   C1B 6463  43.443  26.550   8.671
  178POPC   C2B 6464  43.222  26.410   8.343
  178POPC   C3B 6465  43.454  26.549   8.038
  178POPC   C4B 6466  43.436  26.799   7.711
  179POPC   NC3 6467  27.823  21.014   9.593
  179POPC   PO4 6468  27.204  20.855   9.814
  179POPC   GL1 6469  27.460  20.747   9.370
  179POPC   GL2 6470  27.805  20.649   9.226
  179POPC   C1A 6471  27.502  20.713   8.850
  179POPC   D2A 6472  27.406  20.605   8.414
  179POPC   C3A 6473  27.518  20.800   8.035
  179POPC   C4A 6474  27.400  20.618   7.616
  179POPC   C1B 6475  28.015  20.569   8.808
  179POPC   C2B 6476  27.922  20.483   8.375
  179POPC   C3B 6477  27.849  20.405   7.958
  179POPC   C4B 6478  28.040  20.353   7.598
  180POPC   NC3 6479   7.744  43.477   9.482
  180POPC   PO4 6480   7.134  43.901   9.521
  180POPC   GL1 6481   7.251  43.706   9.118
  180POPC   GL2 6482   7.620  43.763   9.079
  180POPC   C1A 6483   7.355  43.729   8.646
  180POPC   D2A 6484   7.526  43.927   8.282
  180POPC   C3A 6485   7.455  43.718   7.913
  180POPC   C4A 6486   7.135  43.462   7.799
  180POPC   C1B 6487   7.848  43.983   8.740
  180POPC   C2B 6488   7.858  44.293   8.396
  180POPC   C3B 6489   7.878  44.143   7.942
  180POPC   C4B 6490   7.796  43.864   7.570
  181POPC   NC3 6491  43.982  32.809   9.550
  181POPC   PO4 6492  44.153  33.508   9.453
  181POPC   GL1 6493  44.077  33.150   9.154
  181POPC   GL2 6494  43.754  33.236   8.996
  181POPC   C1A 6495  44.096  33.063   8.681
  181POPC   D2A 6496  43.786  33.318   8.462
  181POPC   C3A 6497  43.900  33.233   8.082
  181POPC   C4A 6498  44.058  33.049   7.714
  181POPC   C1B 6499  43.598  32.904   8.709
  181POPC   C2B 6500  43.761  32.801   8.285
  181POPC   C3B 6501  43.603  32.846   7.873
  181POPC   C4B 6502  43.591  32.605   7.503
  182POPC   NC3 6503  20.963  39.164   9.468
  182POPC   PO4 6504  21.522  39.526   9.679
  182POPC   GL1 6505  21.431  39.284   9.243
  182POPC   GL2 6506  21.454  38.900   9.235
  182POPC   C1A 6507  21.208  39.233   8.812
  182POPC   D2A 6508  21.103  39.377   8.380
  182POPC   C3A 6509  21.227  39.228   7.944
  182POPC   C4A 6510  21.194  39.190   7.459
  182POPC   C1B 6511  21.357  38.758   8.801
  182POPC   C2B 6512  21.389  38.926   8.388
  182POPC   C3B 6513  21.559  38.787   8.006
  182POPC   C4B 6514  21.367  38.727   7.611
  183POPC   NC3 6515   5.403   6.443   9.534
  183POPC   PO4 6516   4.924   6.280   9.330
  183POPC   GL1 6517   5.255   6.486   9.030
  183POPC   GL2 6518   5.531   6.743   9.133
  183POPC   C1A 6519   5.223   6.590   8.567
  183POPC   D2A 6520   5.216   6.484   8.099
  183POPC   C3A 6521   5.093   6.751   7.769
  183POPC   C4A 6522   4.716   6.764   7.500
  183POPC   C1B 6523   5.621   6.872   8.706
  183POPC   C2B 6524   5.562   6.863   8.255
  183POPC   C3B 6525   5.577   6.940   7.795
  183POPC   C4B 6526   5.420   6.904   7.379
  184POPC   NC3 6527  38.480  10.783   9.627
  184POPC   PO4 6528  38.659  10.219   9.764
  184POPC   GL1 6529  38.538  10.349   9.263
  184POPC   GL2 6530  38.414  10.686   9.132
  184POPC   C1A 6531  38.749  10.361   8.835
  184POPC   D2A 6532  38.576  10.556   8.458
  184POPC   C3A 6533  38.690  10.386   8.061
  184POPC   C4A 6534  38.599  10.522   7.677
  184POPC   C1B 6535  38.148  10.572   8.790
  184POPC   C2B 6536  38.085  10.271   8.463
  184POPC   C3B 6537  37.960  10.250   8.069
  184POPC   C4B 6538  38.123  10.266   7.700
  185POPC   NC3 6539   5.605  40.804   9.458
  185POPC   PO4 6540   6.271  40.674   9.466
  185POPC   GL1 6541   6.134  40.796   9.087
  185POPC   GL2 6542   5.865  40.565   9.089
  185POPC   C1A 6543   6.079  41.103   8.754
  185POPC   D2A 6544   5.782  41.175   8.399
  185POPC   C3A 6545   5.690  40.884   8.075
  185POPC   C4A 6546   5.948  40.816   7.729
  185POPC   C1B 6547   5.740  40.734   8.716
  185POPC   C2B 6548   5.728  40.460   8.403
  185POPC   C3B 6549   5.453  40.352   8.108
  185POPC   C4B 6550   5.503  40.529   7.722
  186POPC   NC3 6551  38.442  25.016   9.433
  186POPC   PO4 6552  38.568  24.348   9.508
  186POPC   GL1 6553  38.478  24.310   9.095
  186POPC   GL2 6554  38.348  24.627   9.098
  186POPC   C1A 6555  38.669  24.323   8.699
  186POPC   D2A 6556  38.448  24.246   8.346
  186POPC   C3A 6557  38.500  24.376   7.934
  186POPC   C4A 6558  38.071  24.256   7.823
  186POPC   C1B 6559  38.346  24.714   8.675
  186POPC   C2B 6560  38.601  24.752   8.336
  186POPC   C3B 6561  38.663  24.896   7.952
  186POPC   C4B 6562  38.870  24.630   7.682
  187POPC   NC3 6563  23.526  39.361   9.461
  187POPC   PO4 6564  23.964  38.862   9.473
  187POPC   GL1 6565  23.862  39.065   9.121
  187POPC   GL2 6566  23.558  38.921   9.137
  187POPC   C1A 6567  23.757  39.427   8.854
  187POPC   D2A 6568  23.954  39.614   8.524
  187POPC   C3A 6569  23.936  39.429   8.145
  187POPC   C4A 6570  23.725  39.420   7.756
  187POPC   C1B 6571  23.445  39.042   8.771
  187POPC   C2B 6572  23.762  39.046   8.487
  187POPC   C3B 6573  23.690  39.002   8.081
  187POPC   C4B 6574  23.260  38.995   7.890
  188POPC   NC3 6575  41.140  23.727   9.466
  188POPC   PO4 6576  41.736  23.472   9.609
  188POPC   GL1 6577  41.790  23.632   9.199
  188POPC   GL2 6578  41.460  23.659   9.053
  188POPC   C1A 6579  41.881  23.568   8.755
  188POPC   D2A 6580  41.599  23.582   8.409
  188POPC   C3A 6581  41.668  23.502   7.990
  188POPC   C4A 6582  41.483  23.812   7.722
  188POPC   C1B 6583  41.225  23.828   8.693
  188POPC   C2B 6584  41.041  23.951   8.314
  188POPC   C3B 6585  41.265  24.158   8.013
  188POPC   C4B 6586  41.284  24.309   7.604
  189POPC   NC3 6587  41.481  11.541   9.502
  189POPC   PO4 6588  41.739  10.921   9.392
  189POPC   GL1 6589  41.436  11.215   9.115
  189POPC   GL2 6590  41.158  11.541   9.100
  189POPC   C1A 6591  41.537  11.521   8.790
  189POPC   D2A 6592  41.522  11.370   8.393
  189POPC   C3A 6593  41.691  11.282   8.029
  189POPC   C4A 6594  41.460  11.139   7.661
  189POPC   C1B 6595  41.006  11.453   8.688
  189POPC   C2B 6596  41.043  11.412   8.237
  189POPC   C3B 6597  41.282  11.579   7.883
  189POPC   C4B 6598  41.329  11.649   7.415
  190POPC   NC3 6599  18.806  29.060   9.772
  190POPC   PO4 6600  19.328  29.091   9.406
  190POPC   GL1 6601  18.952  28.954   9.256
  190POPC   GL2 6602  18.853  29.267   9.243
  190POPC   C1A 6603  18.856  28.994   8.831
  190POPC   D2A 6604  19.150  28.973   8.524
  190POPC   C3A 6605  18.935  28.985   8.156
  190POPC   C4A 6606  19.202  29.076   7.847
  190POPC   C1B 6607  18.957  29.483   8.849
  190POPC   C2B 6608  18.880  29.425   8.425
  190POPC   C3B 6609  18.923  29.488   7.967
  190POPC   C4B 6610  18.723  29.698   7.604
  191POPC   NC3 6611  31.295  37.183   9.510
  191POPC   PO4 6612  31.076  37.837   9.720
  191POPC   GL1 6613  31.386  37.669   9.414
  191POPC   GL2 6614  31.154  37.772   9.168
  191POPC   C1A 6615  31.657  37.626   9.005
  191POPC   D2A 6616  31.597  37.548   8.559
  191POPC   C3A 6617  31.790  37.665   8.165
  191POPC   C4A 6618  31.874  37.679   7.740
  191POPC   C1B 6619  31.082  37.799   8.719
  191POPC   C2B 6620  31.281  37.853   8.304
  191POPC   C3B 6621  31.340  37.698   7.891
  191POPC   C4B 6622  31.274  38.000   7.551
  192POPC   NC3 6623  12.293   6.646   9.210
  192POPC   PO4 6624  11.822   7.042   9.509
  192POPC   GL1 6625  11.798   6.841   9.114
  192POPC   GL2 6626  11.825   6.476   9.113
  192POPC   C1A 6627  11.911   6.820   8.698
  192POPC   D2A 6628  12.218   6.621   8.480
  192POPC   C3A 6629  12.039   6.670   8.068
  192POPC   C4A 6630  11.787   6.729   7.747
  192POPC   C1B 6631  12.001   6.208   8.790
  192POPC   C2B 6632  12.137   6.086   8.399
  192POPC   C3B 6633  12.219   6.213   8.022
  192POPC   C4B 6634  12.009   6.221   7.666
  193POPC   NC3 6635  35.781   7.392   9.680
  193POPC   PO4 6636  36.426   7.641   9.580
  193POPC   GL1 6637  36.059   7.539   9.249
  193POPC   GL2 6638  35.948   7.275   9.053
  193POPC   C1A 6639  36.067   7.682   8.790
  193POPC   D2A 6640  36.257   7.600   8.378
  193POPC   C3A 6641  36.404   7.449   7.963
  193POPC   C4A 6642  36.277   7.404   7.523
  193POPC   C1B 6643  36.060   7.192   8.628
  193POPC   C2B 6644  36.090   7.109   8.221
  193POPC   C3B 6645  36.129   7.024   7.812
  193POPC   C4B 6646  36.105   6.947   7.377
  194POPC   NC3 6647  22.274  18.701   9.600
  194POPC   PO4 6648  22.033  19.313   9.597
  194POPC   GL1 6649  22.103  19.036   9.230
  194POPC   GL2 6650  22.374  18.820   9.106
  194POPC   C1A 6651  22.132  19.221   8.825
  194POPC   D2A 6652  22.055  19.386   8.407
  194POPC   C3A 6653  22.052  19.125   8.091
  194POPC   C4A 6654  22.187  18.932   7.736
  194POPC   C1B 6655  22.129  18.727   8.730
  194POPC   C2B 6656  22.176  18.654   8.299
  194POPC   C3B 6657  21.823  18.650   8.031
  194POPC   C4B 6658  21.672  18.436   7.675
  195POPC   NC3 6659  10.973  37.146   9.466
  195POPC   PO4 6660  11.692  37.058   9.424
  195POPC   GL1 6661  11.399  37.092   9.144
  195POPC   GL2 6662  11.261  36.783   9.260
  195POPC   C1A 6663  11.343  37.226   8.708
  195POPC   D2A 6664  11.162  37.030   8.344
  195POPC   C3A 6665  11.423  37.087   7.971
  195POPC   C4A 6666  11.759  37.033   7.647
  195POPC   C1B 6667  11.364  36.723   8.808
  195POPC   C2B 6668  11.230  36.541   8.453
  195POPC   C3B 6669  11.446  36.526   8.095
  195POPC   C4B 6670  11.296  36.603   7.737
  196POPC   NC3 6671  37.919  42.345   9.415
  196POPC   PO4 6672  37.310  42.262   9.713
  196POPC   GL1 6673  37.401  42.384   9.282
  196POPC   GL2 6674  37.531  42.043   9.218
  196POPC   C1A 6675  37.550  42.515   8.855
  196POPC   D2A 6676  37.523  42.413   8.395
  196POPC   C3A 6677  37.657  42.617   8.011
  196POPC   C4A 6678  37.796  42.566   7.586
  196POPC   C1B 6679  37.619  42.009   8.776
  196POPC   C2B 6680  37.862  41.997   8.398
  196POPC   C3B 6681  37.993  42.222   8.082
  196POPC   C4B 6682  37.951  42.094   7.684
  197POPC   NC3 6683  35.872  38.180   9.425
  197POPC   PO4 6684  36.387  38.599   9.480
  197POPC   GL1 6685  36.227  38.436   9.131
  197POPC   GL2 6686  35.925  38.627   9.174
  197POPC   C1A 6687  36.109  38.422   8.710
  197POPC   D2A 6688  36.272  38.292   8.335
  197POPC   C3A 6689  36.263  38.596   8.023
  197POPC   C4A 6690  36.291  38.288   7.711
  197POPC   C1B 6691  35.694  38.725   8.819
  197POPC   C2B 6692  35.839  38.760   8.407
  197POPC   C3B 6693  35.731  38.605   8.040
  197POPC   C4B 6694  35.865  38.585   7.641
  198POPC   NC3 6695   5.595  24.661   9.524
  198POPC   PO4 6696   6.243  24.612   9.325
  198POPC   GL1 6697   5.847  24.729   9.099
  198POPC   GL2 6698   5.622  24.410   9.091
  198POPC   C1A 6699   5.607  24.744   8.721
  198POPC   D2A 6700   5.895  24.532   8.494
  198POPC   C3A 6701   5.877  24.634   8.091
  198POPC   C4A 6702   6.191  24.563   7.778
  198POPC   C1B 6703   5.363  24.274   8.754
  198POPC   C2B 6704   5.434  24.372   8.336
  198POPC   C3B 6705   5.453  24.387   7.916
  198POPC   C4B 6706   5.712  24.528   7.626
  199POPC   NC3 6707  31.150  13.840   9.601
  199POPC   PO4 6708  31.814  13.506   9.596
  199POPC   GL1 6709  31.618  13.603   9.180
  199POPC   GL2 6710  31.280  13.689   9.139
  199POPC   C1A 6711  31.651  13.622   8.710
  199POPC   D2A 6712  31.770  13.412   8.294
  199POPC   C3A 6713  31.826  13.649   7.898
  199POPC   C4A 6714  31.765  13.604   7.401
  199POPC   C1B 6715  31.143  13.771   8.757
  199POPC   C2B 6716  31.095  13.649   8.378
  199POPC   C3B 6717  31.345  13.594   8.062
  199POPC   C4B 6718  31.370  13.760   7.670
  200POPC   NC3 6719  11.597   7.475   9.521
  200POPC   PO4 6720  11.010   7.315   9.264
  200POPC   GL1 6721  11.312   7.450   9.011
  200POPC   GL2 6722  11.617   7.658   9.049
  200POPC   C1A 6723  11.264   7.419   8.564
  200POPC   D2A 6724  11.117   7.102   8.272
  200POPC   C3A 6725  11.105   7.230   7.858
  200POPC   C4A 6726  11.132   7.560   7.592
  200POPC   C1B 6727  11.766   7.295   8.863
  200POPC   C2B 6728  11.762   7.313   8.452
  200POPC   C3B 6729  11.565   7.372   8.050
  200POPC   C4B 6730  11.634   7.708   7.729
  201POPC   NC3 6731  30.799   3.473   9.555
  201POPC   PO4 6732  30.217   3.680   9.717
  201POPC   GL1 6733  30.417   3.592   9.262
  201POPC   GL2 6734  30.729   3.790   9.173
  201POPC   C1A 6735  30.426   3.541   8.800
  201POPC   D2A 6736  30.501   3.744   8.381
  201POPC   C3A 6737  30.712   3.545   8.012
  201POPC   C4A 6738  30.594   3.444   7.598
  201POPC   C1B 6739  30.931   3.643   8.780
  201POPC   C2B 6740  31.038   3.771   8.357
  201POPC   C3B 6741  31.023   3.935   7.907
  201POPC   C4B 6742  31.088   3.823   7.454
  202POPC   NC3 6743  16.673  38.702   9.422
  202POPC   PO4 6744  16.305  39.204   9.341
  202POPC   GL1 6745  16.706  39.213   9.249
  202POPC   GL2 6746  16.720  39.541   9.142
  202POPC   C1A 6747  16.886  39.154   8.838
  202POPC   D2A 6748  16.634  39.102   8.462
  202POPC   C3A 6749  16.836  39.156   8.056
  202POPC   C4A 6750  16.712  39.160   7.642
  202POPC   C1B 6751  16.636  39.593   8.710
  202POPC   C2B 6752  16.616  39.575   8.277
  202POPC   C3B 6753  16.609  39.635   7.868
  202POPC   C4B 6754  16.665  39.624   7.458
  203POPC   NC3 6755  24.887  11.688   9.943
  203POPC   PO4 6756  24.435  11.532   9.463
  203POPC   GL1 6757  24.595  11.376   9.116
  203POPC   GL2 6758  24.690  11.077   9.249
  203POPC   C1A 6759  24.438  11.455   8.719
  203POPC   D2A 6760  24.160  11.549   8.419
  203POPC   C3A 6761  24.392  11.446   8.086
  203POPC   C4A 6762  24.440  11.621   7.717
  203POPC   C1B 6763  24.537  10.969   8.827
  203POPC   C2B 6764  24.607  10.946   8.410
  203POPC   C3B 6765  24.363  10.948   8.058
  203POPC   C4B 6766  24.398  11.102   7.659
  204POPC   NC3 6767  27.695  44.786   9.976
  204POPC   PO4 6768  27.508  44.529   9.391
  204POPC   GL1 6769  27.665  44.527   9.024
  204POPC   GL2 6770  27.738  44.838   8.982
  204POPC   C1A 6771  27.565  44.319   8.676
  204POPC   D2A 6772  27.445  44.509   8.362
  204POPC   C3A 6773  27.762  44.626   8.124
  204POPC   C4A 6774  27.626  44.394   7.831
  204POPC   C1B 6775  27.313  44.854   8.798
  204POPC   C2B 6776  27.132  44.890   8.385
  204POPC   C3B 6777  27.337  44.912   7.996
  204POPC   C4B 6778  27.396   0.287   7.736
  205POPC   NC3 6779  19.493  15.717   9.525
  205POPC   PO4 6780  18.819  15.715   9.874
  205POPC   GL1 6781  18.889  15.783   9.388
  205POPC   GL2 6782  19.142  15.959   9.251
  205POPC   C1A 6783  18.709  16.011   8.975
  205POPC   D2A 6784  18.607  16.061   8.514
  205POPC   C3A 6785  18.884  16.275   8.181
  205POPC   C4A 6786  19.081  16.125   7.796
  205POPC   C1B 6787  19.202  16.025   8.820
  205POPC   C2B 6788  19.235  15.951   8.386
  205POPC   C3B 6789  19.249  15.695   8.003
  205POPC   C4B 6790  19.197  15.690   7.543
  206POPC   NC3 6791  31.602  26.333   9.567
  206POPC   PO4 6792  31.340  26.996   9.579
  206POPC   GL1 6793  31.271  26.885   9.152
  206POPC   GL2 6794  31.156  26.541   9.126
  206POPC   C1A 6795  31.381  26.948   8.711
  206POPC   D2A 6796  31.688  27.089   8.377
  206POPC   C3A 6797  31.492  27.141   7.994
  206POPC   C4A 6798  31.203  26.868   7.781
  206POPC   C1B 6799  31.556  26.506   8.918
  206POPC   C2B 6800  31.676  26.591   8.484
  206POPC   C3B 6801  31.448  26.535   8.111
  206POPC   C4B 6802  31.576  26.502   7.697
  207POPC   NC3 6803  41.728  33.978   9.518
  207POPC   PO4 6804  41.091  33.906   9.430
  207POPC   GL1 6805  41.473  33.668   9.197
  207POPC   GL2 6806  41.870  33.609   9.181
  207POPC   C1A 6807  41.556  33.614   8.762
  207POPC   D2A 6808  41.340  33.502   8.396
  207POPC   C3A 6809  41.394  33.807   8.095
  207POPC   C4A 6810  41.472  33.743   7.688
  207POPC   C1B 6811  41.949  33.927   8.830
  207POPC   C2B 6812  41.812  34.054   8.436
  207POPC   C3B 6813  41.878  33.912   8.058
  207POPC   C4B 6814  42.086  34.011   7.754
  208POPC   NC3 6815  42.751   7.777   9.456
  208POPC   PO4 6816  43.105   7.135   9.394
  208POPC   GL1 6817  43.023   7.410   9.093
  208POPC   GL2 6818  42.658   7.311   9.138
  208POPC   C1A 6819  43.185   7.503   8.652
  208POPC   D2A 6820  43.309   7.638   8.251
  208POPC   C3A 6821  43.335   7.399   7.923
  208POPC   C4A 6822  43.109   7.136   7.729
  208POPC   C1B 6823  42.779   7.227   8.698
  208POPC   C2B 6824  42.862   7.342   8.234
  208POPC   C3B 6825  42.633   7.083   7.904
  208POPC   C4B 6826  42.575   7.144   7.436
  209POPC   NC3 6827  36.615  41.926   9.955
  209POPC   PO4 6828  36.986  41.318   9.657
  209POPC   GL1 6829  36.922  41.423   9.239
  209POPC   GL2 6830  37.243  41.589   9.155
  209POPC   C1A 6831  36.857  41.348   8.808
  209POPC   D2A 6832  36.953  41.134   8.443
  209POPC   C3A 6833  36.925  41.393   8.094
  209POPC   C4A 6834  37.174  41.411   7.758
  209POPC   C1B 6835  37.178  41.747   8.732
  209POPC   C2B 6836  37.351  41.923   8.342
  209POPC   C3B 6837  37.274  42.176   7.975
  209POPC   C4B 6838  37.014  41.890   7.747
  210POPC   NC3 6839   3.363  16.624   9.626
  210POPC   PO4 6840   3.468  15.883   9.573
  210POPC   GL1 6841   3.468  16.106   9.189
  210POPC   GL2 6842   3.741  15.862   9.104
  210POPC   C1A 6843   3.487  16.139   8.727
  210POPC   D2A 6844   3.697  16.022   8.341
  210POPC   C3A 6845   3.421  15.879   8.016
  210POPC   C4A 6846   3.306  15.853   7.585
  210POPC   C1B 6847   3.366  15.661   8.905
  210POPC   C2B 6848   3.324  15.651   8.480
  210POPC   C3B 6849   3.683  15.503   8.266
  210POPC   C4B 6850   3.922  15.722   7.970
  211POPC   NC3 6851   7.924  37.066   9.528
  211POPC   PO4 6852   8.516  36.679   9.545
  211POPC   GL1 6853   8.274  36.906   9.214
  211POPC   GL2 6854   8.313  37.245   9.123
  211POPC   C1A 6855   8.282  36.838   8.761
  211POPC   D2A 6856   8.580  36.777   8.421
  211POPC   C3A 6857   8.370  36.853   8.060
  211POPC   C4A 6858   8.181  36.848   7.683
  211POPC   C1B 6859   8.053  37.307   8.734
  211POPC   C2B 6860   8.042  37.215   8.273
  211POPC   C3B 6861   8.129  37.311   7.834
  211POPC   C4B 6862   8.101  37.292   7.361
  212POPC   NC3 6863  35.083  24.047   9.531
  212POPC   PO4 6864  35.571  23.562   9.450
  212POPC   GL1 6865  35.371  23.709   9.143
  212POPC   GL2 6866  35.527  24.025   9.164
  212POPC   C1A 6867  35.463  23.559   8.766
  212POPC   D2A 6868  35.283  23.648   8.408
  212POPC   C3A 6869  35.457  23.585   8.038
  212POPC   C4A 6870  35.333  23.393   7.659
  212POPC   C1B 6871  35.396  24.055   8.722
  212POPC   C2B 6872  35.340  24.177   8.289
  212POPC   C3B 6873  35.210  24.181   7.843
  212POPC   C4B 6874  34.897  24.042   7.524
  213POPC   NC3 6875   8.441  33.894   9.455
  213POPC   PO4 6876   7.987  33.417   9.567
  213POPC   GL1 6877   8.173  33.539   9.151
  213POPC   GL2 6878   8.113  33.880   9.061
  213POPC   C1A 6879   8.183  33.598   8.674
  213POPC   D2A 6880   8.221  33.708   8.260
  213POPC   C3A 6881   8.246  33.449   7.966
  213POPC   C4A 6882   8.518  33.375   7.676
  213POPC   C1B 6883   8.395  34.065   8.708
  213POPC   C2B 6884   8.503  34.134   8.232
  213POPC   C3B 6885   8.443  33.990   7.765
  213POPC   C4B 6886   8.475  34.209   7.324
  214POPC   NC3 6887   9.749  39.091   9.449
  214POPC   PO4 6888   9.258  39.466   9.663
  214POPC   GL1 6889   9.498  39.532   9.230
  214POPC   GL2 6890   9.892  39.520   9.192
  214POPC   C1A 6891   9.485  39.409   8.765
  214POPC   D2A 6892   9.619  39.125   8.398
  214POPC   C3A 6893   9.494  39.242   7.954
  214POPC   C4A 6894   9.652  39.425   7.543
  214POPC   C1B 6895   9.995  39.379   8.746
  214POPC   C2B 6896   9.851  39.558   8.356
  214POPC   C3B 6897   9.973  39.412   7.956
  214POPC   C4B 6898  10.118  39.615   7.593
  215POPC   NC3 6899  33.819   7.015   9.806
  215POPC   PO4 6900  34.167   7.397   9.463
  215POPC   GL1 6901  33.904   7.304   9.125
  215POPC   GL2 6902  33.637   7.533   9.089
  215POPC   C1A 6903  33.769   7.294   8.689
  215POPC   D2A 6904  33.910   7.192   8.349
  215POPC   C3A 6905  33.842   7.419   8.022
  215POPC   C4A 6906  33.711   7.167   7.717
  215POPC   C1B 6907  33.477   7.793   8.795
  215POPC   C2B 6908  33.645   7.786   8.428
  215POPC   C3B 6909  33.500   7.808   8.030
  215POPC   C4B 6910  33.490   7.615   7.658
  216POPC   NC3 6911  21.478  18.155   9.451
  216POPC   PO4 6912  20.835  18.277   9.619
  216POPC   GL1 6913  21.022  18.383   9.208
  216POPC   GL2 6914  21.170  18.082   9.054
  216POPC   C1A 6915  21.288  18.512   8.826
  216POPC   D2A 6916  21.639  18.421   8.496
  216POPC   C3A 6917  21.387  18.356   8.116
  216POPC   C4A 6918  21.171  18.493   7.733
  216POPC   C1B 6919  21.330  18.010   8.623
  216POPC   C2B 6920  21.259  17.802   8.204
  216POPC   C3B 6921  21.120  18.000   7.836
  216POPC   C4B 6922  21.350  18.039   7.431
  217POPC   NC3 6923  21.058   2.539   9.375
  217POPC   PO4 6924  20.513   2.935   9.464
  217POPC   GL1 6925  20.677   2.722   9.100
  217POPC   GL2 6926  20.969   2.948   9.044
  217POPC   C1A 6927  20.858   2.522   8.707
  217POPC   D2A 6928  20.751   2.300   8.317
  217POPC   C3A 6929  20.736   2.502   7.922
  217POPC   C4A 6930  20.874   2.570   7.482
  217POPC   C1B 6931  20.722   3.025   8.704
  217POPC   C2B 6932  20.834   2.892   8.320
  217POPC   C3B 6933  20.662   3.028   7.998
  217POPC   C4B 6934  20.524   2.884   7.647
  218POPC   NC3 6935  20.747  34.608   9.571
  218POPC   PO4 6936  20.103  34.404   9.483
  218POPC   GL1 6937  20.408  34.624   9.171
  218POPC   GL2 6938  20.563  34.961   9.273
  218POPC   C1A 6939  20.586  34.421   8.770
  218POPC   D2A 6940  20.641  34.155   8.384
  218POPC   C3A 6941  20.911  34.315   8.032
  218POPC   C4A 6942  20.846  34.468   7.582
  218POPC   C1B 6943  20.635  34.954   8.826
  218POPC   C2B 6944  20.728  34.861   8.397
  218POPC   C3B 6945  20.587  34.739   7.981
  218POPC   C4B 6946  20.455  35.008   7.654
  219POPC   NC3 6947  10.952  10.780   9.582
  219POPC   PO4 6948  11.363  10.344   9.346
  219POPC   GL1 6949  11.254  10.633   9.113
  219POPC   GL2 6950  11.093  10.428   8.922
  219POPC   C1A 6951  11.453  10.730   8.704
  219POPC   D2A 6952  11.291  10.483   8.365
  219POPC   C3A 6953  11.165  10.661   7.974
  219POPC   C4A 6954  11.427  10.613   7.617
  219POPC   C1B 6955  10.799  10.332   8.690
  219POPC   C2B 6956  10.768  10.504   8.307
  219POPC   C3B 6957  10.860  10.231   7.967
  219POPC   C4B 6958  11.008  10.337   7.573
  220POPC   NC3 6959  16.934  16.350   9.393
  220POPC   PO4 6960  16.419  16.841   9.488
  220POPC   GL1 6961  16.614  16.827   9.118
  220POPC   GL2 6962  16.545  16.511   9.104
  220POPC   C1A 6963  16.819  16.851   8.732
  220POPC   D2A 6964  17.101  16.937   8.419
  220POPC   C3A 6965  16.898  16.926   8.027
  220POPC   C4A 6966  17.036  17.230   7.757
  220POPC   C1B 6967  16.749  16.335   8.747
  220POPC   C2B 6968  16.648  16.258   8.343
  220POPC   C3B 6969  16.742  16.420   7.986
  220POPC   C4B 6970  17.075  16.453   7.757
  221POPC   NC3 6971  40.893  18.818   9.685
  221POPC   PO4 6972  40.375  19.247   9.634
  221POPC   GL1 6973  40.741  19.093   9.284
  221POPC   GL2 6974  40.996  18.814   9.195
  221POPC   C1A 6975  40.810  19.133   8.817
  221POPC   D2A 6976  40.737  19.424   8.434
  221POPC   C3A 6977  40.880  19.323   8.014
  221POPC   C4A 6978  40.667  19.482   7.644
  221POPC   C1B 6979  40.940  18.630   8.802
  221POPC   C2B 6980  40.964  18.791   8.401
  221POPC   C3B 6981  40.883  18.667   7.988
  221POPC   C4B 6982  40.773  18.927   7.668
  222POPC   NC3 6983  33.613  28.845   9.587
  222POPC   PO4 6984  32.884  28.988   9.572
  222POPC   GL1 6985  33.026  29.098   9.176
  222POPC   GL2 6986  33.365  29.200   9.271
  222POPC   C1A 6987  33.174  29.340   8.820
  222POPC   D2A 6988  33.057  29.146   8.448
  222POPC   C3A 6989  32.959  29.285   8.031
  222POPC   C4A 6990  32.914  29.002   7.681
  222POPC   C1B 6991  33.424  28.859   8.949
  222POPC   C2B 6992  33.512  28.849   8.491
  222POPC   C3B 6993  33.292  28.883   8.081
  222POPC   C4B 6994  33.359  28.738   7.684
  223POPC   NC3 6995  42.320   5.395   9.373
  223POPC   PO4 6996  42.280   5.964   9.583
  223POPC   GL1 6997  42.368   5.875   9.177
  223POPC   GL2 6998  42.032   5.777   9.143
  223POPC   C1A 6999  42.562   6.032   8.802
  223POPC   D2A 7000  42.394   6.181   8.415
  223POPC   C3A 7001  42.398   5.996   8.019
  223POPC   C4A 7002  42.178   6.061   7.602
  223POPC   C1B 7003  42.104   5.847   8.713
  223POPC   C2B 7004  42.429   5.662   8.467
  223POPC   C3B 7005  42.512   5.486   8.123
  223POPC   C4B 7006  42.227   5.576   7.800
  224POPC   NC3 7007  43.690  39.539   9.461
  224POPC   PO4 7008  43.992  40.115   9.431
  224POPC   GL1 7009  44.002  40.048   9.061
  224POPC   GL2 7010  44.050  39.683   9.119
  224POPC   C1A 7011  44.050  40.279   8.687
  224POPC   D2A 7012  43.699  40.416   8.436
  224POPC   C3A 7013  43.701  40.197   8.054
  224POPC   C4A 7014  43.973  40.208   7.722
  224POPC   C1B 7015  44.191  39.774   8.687
  224POPC   C2B 7016  44.234  39.836   8.268
  224POPC   C3B 7017  43.981  39.750   7.962
  224POPC   C4B 7018  44.230  39.767   7.690
  225POPC   NC3 7019   0.378  40.553   9.296
  225POPC   PO4 7020   0.775  41.008   9.545
  225POPC   GL1 7021   0.543  41.020   9.158
  225POPC   GL2 7022   0.720  41.301   9.123
  225POPC   C1A 7023   0.357  40.867   8.746
  225POPC   D2A 7024   0.421  40.549   8.435
  225POPC   C3A 7025   0.177  40.520   8.067
  225POPC   C4A 7026   0.321  40.601   7.648
  225POPC   C1B 7027   0.808  41.162   8.718
  225POPC   C2B 7028   0.576  41.117   8.339
  225POPC   C3B 7029   0.428  40.976   7.965
  225POPC   C4B 7030   0.569  41.041   7.537
  226POPC   NC3 7031  41.721  27.788   9.490
  226POPC   PO4 7032  41.235  28.190   9.362
  226POPC   GL1 7033  41.498  27.900   9.064
  226POPC   GL2 7034  41.454  27.547   9.081
  226POPC   C1A 7035  41.664  27.797   8.637
  226POPC   D2A 7036  41.838  27.826   8.201
  226POPC   C3A 7037  41.558  27.763   7.857
  226POPC   C4A 7038  41.629  27.660   7.438
  226POPC   C1B 7039  41.216  27.484   8.691
  226POPC   C2B 7040  41.301  27.502   8.227
  226POPC   C3B 7041  41.134  27.463   7.788
  226POPC   C4B 7042  41.106  27.398   7.316
  227POPC   NC3 7043  20.839   6.454   9.505
  227POPC   PO4 7044  20.557   6.032   9.944
  227POPC   GL1 7045  20.518   6.083   9.325
  227POPC   GL2 7046  20.298   5.806   9.127
  227POPC   C1A 7047  20.746   5.849   8.893
  227POPC   D2A 7048  20.779   5.610   8.441
  227POPC   C3A 7049  20.817   5.878   8.058
  227POPC   C4A 7050  20.550   6.196   7.868
  227POPC   C1B 7051  20.324   5.580   8.710
  227POPC   C2B 7052  20.309   5.453   8.240
  227POPC   C3B 7053  20.361   5.699   7.828
  227POPC   C4B 7054  20.309   5.612   7.368
  228POPC   NC3 7055  39.386  15.514   9.269
  228POPC   PO4 7056  39.085  15.027   9.638
  228POPC   GL1 7057  39.175  15.041   9.213
  228POPC   GL2 7058  39.520  15.008   9.183
  228POPC   C1A 7059  38.936  15.106   8.855
  228POPC   D2A 7060  38.843  15.254   8.451
  228POPC   C3A 7061  39.133  15.205   8.153
  228POPC   C4A 7062  38.967  15.208   7.760
  228POPC   C1B 7063  39.461  15.052   8.745
  228POPC   C2B 7064  39.525  15.389   8.460
  228POPC   C3B 7065  39.618  15.408   8.035
  228POPC   C4B 7066  39.521  15.039   7.787
  229POPC   NC3 7067  26.094   9.077   9.544
  229POPC   PO4 7068  26.029   8.403   9.740
  229POPC   GL1 7069  25.990   8.631   9.274
  229POPC   GL2 7070  25.753   8.896   9.175
  229POPC   C1A 7071  26.164   8.833   8.865
  229POPC   D2A 7072  26.157   9.042   8.428
  229POPC   C3A 7073  26.124   8.812   7.991
  229POPC   C4A 7074  26.144   8.736   7.503
  229POPC   C1B 7075  25.819   9.224   8.822
  229POPC   C2B 7076  25.741   9.360   8.386
  229POPC   C3B 7077  25.968   9.311   8.035
  229POPC   C4B 7078  25.967   9.177   7.643
  230POPC   NC3 7079   7.065   0.222   9.422
  230POPC   PO4 7080   6.409   0.289   9.422
  230POPC   GL1 7081   6.732   0.468   9.131
  230POPC   GL2 7082   6.758   0.804   8.978
  230POPC   C1A 7083   6.857   0.407   8.691
  230POPC   D2A 7084   6.773   0.235   8.292
  230POPC   C3A 7085   6.732   0.423   7.893
  230POPC   C4A 7086   6.677   0.263   7.473
  230POPC   C1B 7087   6.362   0.569   8.790
  230POPC   C2B 7088   6.266   0.374   8.393
  230POPC   C3B 7089   6.238   0.536   7.928
  230POPC   C4B 7090   6.431   0.714   7.508
  231POPC   NC3 7091  16.020  12.432   9.518
  231POPC   PO4 7092  16.092  11.822   9.579
  231POPC   GL1 7093  16.112  12.021   9.180
  231POPC   GL2 7094  15.760  12.121   9.179
  231POPC   C1A 7095  15.975  12.017   8.720
  231POPC   D2A 7096  15.698  12.118   8.349
  231POPC   C3A 7097  15.933  12.059   7.938
  231POPC   C4A 7098  16.118  12.417   7.727
  231POPC   C1B 7099  15.727  12.461   8.870
  231POPC   C2B 7100  15.626  12.641   8.440
  231POPC   C3B 7101  15.692  12.508   8.007
  231POPC   C4B 7102  15.621  12.340   7.573
  232POPC   NC3 7103  19.305  41.544   9.455
  232POPC   PO4 7104  18.611  41.449   9.582
  232POPC   GL1 7105  18.864  41.294   9.239
  232POPC   GL2 7106  19.006  41.552   9.034
  232POPC   C1A 7107  18.713  41.172   8.809
  232POPC   D2A 7108  18.967  41.304   8.509
  232POPC   C3A 7109  18.822  41.375   8.104
  232POPC   C4A 7110  19.140  41.409   7.791
  232POPC   C1B 7111  19.088  41.801   8.671
  232POPC   C2B 7112  19.156  41.721   8.256
  232POPC   C3B 7113  18.991  41.874   7.891
  232POPC   C4B 7114  19.396  41.953   7.748
  233POPC   NC3 7115   2.522  44.219   9.347
  233POPC   PO4 7116   2.802  43.649   9.508
  233POPC   GL1 7117   2.985  43.677   9.120
  233POPC   GL2 7118   2.982  44.045   9.095
  233POPC   C1A 7119   2.950  43.771   8.673
  233POPC   D2A 7120   2.818  43.985   8.311
  233POPC   C3A 7121   3.062  43.884   7.995
  233POPC   C4A 7122   2.769  43.615   7.828
  233POPC   C1B 7123   2.723  44.246   8.734
  233POPC   C2B 7124   2.568  44.487   8.382
  233POPC   C3B 7125   2.416  44.408   7.990
  233POPC   C4B 7126   2.643  44.118   7.764
  234POPC   NC3 7127  35.324  40.619   9.660
  234POPC   PO4 7128  35.720  40.101   9.469
  234POPC   GL1 7129  35.480  40.015   9.098
  234POPC   GL2 7130  35.431  40.345   9.064
  234POPC   C1A 7131  35.253  40.081   8.682
  234POPC   D2A 7132  35.324  40.069   8.244
  234POPC   C3A 7133  35.093  39.883   7.919
  234POPC   C4A 7134  35.232  40.208   7.649
  234POPC   C1B 7135  35.749  40.304   8.725
  234POPC   C2B 7136  35.682  40.482   8.315
  234POPC   C3B 7137  35.686  40.276   7.916
  234POPC   C4B 7138  35.612  39.878   7.708
  235POPC   NC3 7139  32.966  39.918   9.531
  235POPC   PO4 7140  33.375  40.440   9.452
  235POPC   GL1 7141  33.267  40.180   9.127
  235POPC   GL2 7142  33.179  39.830   9.098
  235POPC   C1A 7143  33.351  40.073   8.705
  235POPC   D2A 7144  33.213  39.807   8.388
  235POPC   C3A 7145  33.230  40.001   7.991
  235POPC   C4A 7146  33.034  40.068   7.576
  235POPC   C1B 7147  32.860  39.744   8.758
  235POPC   C2B 7148  32.710  39.796   8.298
  235POPC   C3B 7149  32.765  39.727   7.825
  235POPC   C4B 7150  32.859  39.689   7.301
  236POPC   NC3 7151  19.792  42.775   9.840
  236POPC   PO4 7152  20.146  43.183   9.485
  236POPC   GL1 7153  19.960  42.895   9.195
  236POPC   GL2 7154  19.584  42.898   9.171
  236POPC   C1A 7155  19.951  42.963   8.732
  236POPC   D2A 7156  20.119  43.249   8.385
  236POPC   C3A 7157  20.172  43.081   7.955
  236POPC   C4A 7158  19.895  42.818   7.708
  236POPC   C1B 7159  19.479  43.159   8.793
  236POPC   C2B 7160  19.590  43.335   8.389
  236POPC   C3B 7161  19.689  43.289   7.953
  236POPC   C4B 7162  19.447  43.446   7.624
  237POPC   NC3 7163  30.086   8.644   9.428
  237POPC   PO4 7164  29.589   9.076   9.615
  237POPC   GL1 7165  29.703   8.984   9.161
  237POPC   GL2 7166  29.914   8.717   8.971
  237POPC   C1A 7167  29.674   9.050   8.696
  237POPC   D2A 7168  29.988   9.078   8.332
  237POPC   C3A 7169  29.869   8.910   7.913
  237POPC   C4A 7170  29.728   9.083   7.494
  237POPC   C1B 7171  30.151   8.454   8.693
  237POPC   C2B 7172  30.130   8.360   8.287
  237POPC   C3B 7173  30.234   8.546   7.900
  237POPC   C4B 7174  29.997   8.661   7.490
  238POPC   NC3 7175  19.779  30.290   9.486
  238POPC   PO4 7176  20.064  29.666   9.419
  238POPC   GL1 7177  19.822  29.749   9.050
  238POPC   GL2 7178  19.663  30.062   9.052
  238POPC   C1A 7179  19.872  29.918   8.617
  238POPC   D2A 7180  19.831  30.242   8.310
  238POPC   C3A 7181  19.856  29.976   7.954
  238POPC   C4A 7182  20.190  29.733   7.738
  238POPC   C1B 7183  19.444  30.215   8.715
  238POPC   C2B 7184  19.391  29.987   8.329
  238POPC   C3B 7185  19.378  30.156   7.924
  238POPC   C4B 7186  19.543  30.171   7.476
  239POPC   NC3 7187  20.952  41.874   9.206
  239POPC   PO4 7188  20.497  41.529   9.637
  239POPC   GL1 7189  20.520  41.576   9.182
  239POPC   GL2 7190  20.810  41.399   9.072
  239POPC   C1A 7191  20.450  41.632   8.739
  239POPC   D2A 7192  20.441  41.378   8.382
  239POPC   C3A 7193  20.682  41.393   7.970
  239POPC   C4A 7194  20.672  41.554   7.511
  239POPC   C1B 7195  20.941  41.580   8.657
  239POPC   C2B 7196  21.158  41.946   8.575
  239POPC   C3B 7197  21.243  42.013   8.191
  239POPC   C4B 7198  21.063  41.729   7.891
  240POPC   NC3 7199  41.177  15.817   9.182
  240POPC   PO4 7200  41.653  16.166   9.571
  240POPC   GL1 7201  41.583  16.137   9.134
  240POPC   GL2 7202  41.818  15.935   8.974
  240POPC   C1A 7203  41.477  16.128   8.681
  240POPC   D2A 7204  41.843  16.122   8.415
  240POPC   C3A 7205  41.806  16.084   7.986
  240POPC   C4A 7206  41.550  16.091   7.640
  240POPC   C1B 7207  41.720  15.654   8.628
  240POPC   C2B 7208  41.929  15.646   8.245
  240POPC   C3B 7209  41.836  15.599   7.807
  240POPC   C4B 7210  41.454  15.587   7.539
  241POPC   NC3 7211  26.407  28.877   9.446
  241POPC   PO4 7212  25.949  29.338   9.466
  241POPC   GL1 7213  25.825  29.318   9.082
  241POPC   GL2 7214  25.974  29.003   9.058
  241POPC   C1A 7215  25.978  29.391   8.694
  241POPC   D2A 7216  26.085  29.168   8.343
  241POPC   C3A 7217  25.905  29.279   7.972
  241POPC   C4A 7218  25.603  29.114   7.728
  241POPC   C1B 7219  26.336  28.965   8.772
  241POPC   C2B 7220  26.399  28.768   8.374
  241POPC   C3B 7221  26.146  28.803   7.966
  241POPC   C4B 7222  26.169  29.059   7.590
  242POPC   NC3 7223  18.990   0.758   9.518
  242POPC   PO4 7224  19.381   0.250   9.610
  242POPC   GL1 7225  19.401   0.368   9.171
  242POPC   GL2 7226  19.582   0.124   8.978
  242POPC   C1A 7227  19.171   0.584   8.826
  242POPC   D2A 7228  18.862   0.633   8.452
  242POPC   C3A 7229  18.982   0.691   7.996
  242POPC   C4A 7230  18.939   0.537   7.521
  242POPC   C1B 7231  19.382   0.213   8.555
  242POPC   C2B 7232  19.414   0.499   8.213
  242POPC   C3B 7233  19.392   0.434   7.762
  242POPC   C4B 7234  19.243   0.133   7.399
  243POPC   NC3 7235  27.532   8.533   9.534
  243POPC   PO4 7236  27.894   7.962   9.454
  243POPC   GL1 7237  27.783   8.186   9.095
  243POPC   GL2 7238  27.579   8.429   9.045
  243POPC   C1A 7239  27.587   8.070   8.682
  243POPC   D2A 7240  27.363   8.093   8.324
  243POPC   C3A 7241  27.674   8.189   8.037
  243POPC   C4A 7242  27.670   8.166   7.622
  243POPC   C1B 7243  27.382   8.550   8.667
  243POPC   C2B 7244  27.425   8.641   8.233
  243POPC   C3B 7245  27.395   8.582   7.798
  243POPC   C4B 7246  27.412   8.516   7.360
  244POPC   NC3 7247  44.261  25.114   9.395
  244POPC   PO4 7248  44.838  25.487   9.628
  244POPC   GL1 7249  44.803  25.352   9.183
  244POPC   GL2 7250  44.512  25.253   8.929
  244POPC   C1A 7251  44.966  25.493   8.779
  244POPC   D2A 7252  44.739  25.362   8.414
  244POPC   C3A 7253  44.943  25.320   8.008
  244POPC   C4A 7254  44.782  25.287   7.596
  244POPC   C1B 7255  44.523  24.876   8.582
  244POPC   C2B 7256  44.350  24.670   8.170
  244POPC   C3B 7257  44.341  24.900   7.743
  244POPC   C4B 7258  44.393  25.117   7.339
  245POPC   NC3 7259  37.175  29.824   9.532
  245POPC   PO4 7260  36.539  29.731   9.551
  245POPC   GL1 7261  36.757  30.039   9.230
  245POPC   GL2 7262  37.112  30.134   9.133
  245POPC   C1A 7263  36.754  30.067   8.754
  245POPC   D2A 7264  36.887  29.750   8.408
  245POPC   C3A 7265  36.755  29.819   7.960
  245POPC   C4A 7266  36.659  30.196   7.711
  245POPC   C1B 7267  37.348  30.183   8.739
  245POPC   C2B 7268  37.168  30.221   8.329
  245POPC   C3B 7269  37.183  30.131   7.872
  245POPC   C4B 7270  37.192  29.787   7.557
  246POPC   NC3 7271  43.187   8.444   9.621
  246POPC   PO4 7272  43.228   7.729   9.462
  246POPC   GL1 7273  43.311   8.112   9.257
  246POPC   GL2 7274  43.029   8.368   9.153
  246POPC   C1A 7275  43.332   8.123   8.856
  246POPC   D2A 7276  43.111   7.986   8.550
  246POPC   C3A 7277  43.072   8.070   8.100
  246POPC   C4A 7278  43.324   7.883   7.789
  246POPC   C1B 7279  42.991   8.474   8.702
  246POPC   C2B 7280  42.903   8.542   8.254
  246POPC   C3B 7281  42.927   8.510   7.775
  246POPC   C4B 7282  42.864   8.470   7.287
  247POPC   NC3 7283  42.039  23.819   9.623
  247POPC   PO4 7284  42.627  23.590   9.373
  247POPC   GL1 7285  42.300  23.600   9.090
  247POPC   GL2 7286  42.214  23.942   9.172
  247POPC   C1A 7287  42.379  23.585   8.643
  247POPC   D2A 7288  42.555  23.805   8.315
  247POPC   C3A 7289  42.543  23.526   7.955
  247POPC   C4A 7290  42.161  23.327   7.840
  247POPC   C1B 7291  42.359  24.053   8.806
  247POPC   C2B 7292  42.096  23.988   8.496
  247POPC   C3B 7293  42.086  23.667   8.216
  247POPC   C4B 7294  42.167  23.839   7.809
  248POPC   NC3 7295  13.434  36.597   9.555
  248POPC   PO4 7296  13.939  37.059   9.468
  248POPC   GL1 7297  13.737  36.844   9.147
  248POPC   GL2 7298  13.482  37.066   9.098
  248POPC   C1A 7299  13.731  36.898   8.684
  248POPC   D2A 7300  13.753  37.125   8.303
  248POPC   C3A 7301  13.926  36.925   7.963
  248POPC   C4A 7302  13.665  36.955   7.604
  248POPC   C1B 7303  13.214  36.954   8.760
  248POPC   C2B 7304  13.292  36.792   8.396
  248POPC   C3B 7305  13.431  36.763   8.006
  248POPC   C4B 7306  13.215  36.755   7.607
  249POPC   NC3 7307  12.117  28.999   9.602
  249POPC   PO4 7308  12.548  29.570   9.500
  249POPC   GL1 7309  12.300  29.309   9.214
  249POPC   GL2 7310  12.440  29.504   8.940
  249POPC   C1A 7311  12.345  29.029   8.850
  249POPC   D2A 7312  12.339  29.154   8.423
  249POPC   C3A 7313  12.276  29.062   7.994
  249POPC   C4A 7314  12.305  29.429   7.771
  249POPC   C1B 7315  12.017  29.406   8.740
  249POPC   C2B 7316  11.861  29.326   8.302
  249POPC   C3B 7317  11.809  29.411   7.861
  249POPC   C4B 7318  11.906  29.660   7.474
  250POPC   NC3 7319   9.202   7.969   9.524
  250POPC   PO4 7320   8.576   8.171   9.719
  250POPC   GL1 7321   8.680   8.165   9.218
  250POPC   GL2 7322   9.039   8.266   9.129
  250POPC   C1A 7323   8.710   8.349   8.770
  250POPC   D2A 7324   8.794   8.176   8.394
  250POPC   C3A 7325   8.882   8.336   8.016
  250POPC   C4A 7326   8.790   8.033   7.667
  250POPC   C1B 7327   9.277   8.309   8.743
  250POPC   C2B 7328   9.320   8.107   8.318
  250POPC   C3B 7329   9.251   7.996   7.887
  250POPC   C4B 7330   9.206   8.336   7.589
  251POPC   NC3 7331   4.945  10.000   9.525
  251POPC   PO4 7332   5.209  10.616   9.539
  251POPC   GL1 7333   5.037  10.397   9.187
  251POPC   GL2 7334   5.369  10.242   9.146
  251POPC   C1A 7335   4.965  10.260   8.730
  251POPC   D2A 7336   4.900  10.117   8.301
  251POPC   C3A 7337   4.984  10.390   7.947
  251POPC   C4A 7338   4.885  10.398   7.494
  251POPC   C1B 7339   5.324  10.611   8.827
  251POPC   C2B 7340   5.186  10.629   8.403
  251POPC   C3B 7341   5.104  10.880   8.065
  251POPC   C4B 7342   5.181  10.779   7.641
  252POPC   NC3 7343  15.805  31.624   9.810
  252POPC   PO4 7344  16.233  31.329   9.615
  252POPC   GL1 7345  16.056  31.382   9.142
  252POPC   GL2 7346  16.259  31.274   8.843
  252POPC   C1A 7347  15.797  31.471   8.717
  252POPC   D2A 7348  15.733  31.717   8.309
  252POPC   C3A 7349  15.916  31.582   7.921
  252POPC   C4A 7350  15.768  31.664   7.500
  252POPC   C1B 7351  16.193  31.404   8.380
  252POPC   C2B 7352  16.416  31.445   7.978
  252POPC   C3B 7353  16.433  31.789   7.655
  252POPC   C4B 7354  16.116  32.115   7.490
  253POPC   NC3 7355   4.841  21.594   9.502
  253POPC   PO4 7356   5.175  21.029   9.653
  253POPC   GL1 7357   5.240  21.188   9.230
  253POPC   GL2 7358   5.592  21.128   9.113
  253POPC   C1A 7359   5.038  21.441   8.866
  253POPC   D2A 7360   4.695  21.450   8.545
  253POPC   C3A 7361   4.834  21.503   8.083
  253POPC   C4A 7362   4.632  21.766   7.756
  253POPC   C1B 7363   5.363  21.040   8.757
  253POPC   C2B 7364   5.123  21.190   8.414
  253POPC   C3B 7365   5.145  21.075   8.012
  253POPC   C4B 7366   5.131  21.270   7.622
  254POPC   NC3 7367   3.294  42.404   9.529
  254POPC   PO4 7368   2.768  41.936   9.487
  254POPC   GL1 7369   2.940  42.224   9.180
  254POPC   GL2 7370   2.798  42.573   9.232
  254POPC   C1A 7371   2.928  42.384   8.763
  254POPC   D2A 7372   2.719  42.495   8.374
  254POPC   C3A 7373   2.842  42.273   8.014
  254POPC   C4A 7374   2.968  42.129   7.626
  254POPC   C1B 7375   2.558  42.718   8.867
  254POPC   C2B 7376   2.264  42.696   8.545
  254POPC   C3B 7377   2.290  42.758   8.105
  254POPC   C4B 7378   2.545  42.647   7.730
  255POPC   NC3 7379  14.101  27.614   9.524
  255POPC   PO4 7380  13.508  27.287   9.462
  255POPC   GL1 7381  13.735  27.512   9.158
  255POPC   GL2 7382  14.040  27.300   9.100
  255POPC   C1A 7383  13.647  27.831   8.830
  255POPC   D2A 7384  13.268  27.947   8.591
  255POPC   C3A 7385  13.281  27.924   8.135
  255POPC   C4A 7386  13.372  27.776   7.727
  255POPC   C1B 7387  13.821  27.340   8.689
  255POPC   C2B 7388  13.603  27.579   8.388
  255POPC   C3B 7389  13.790  27.681   8.015
  255POPC   C4B 7390  13.785  27.507   7.613
  256POPC   NC3 7391  33.576   5.540   9.572
  256POPC   PO4 7392  34.109   5.972   9.482
  256POPC   GL1 7393  33.781   5.885   9.193
  256POPC   GL2 7394  34.035   5.960   8.966
  256POPC   C1A 7395  33.705   5.605   8.855
  256POPC   D2A 7396  33.704   5.438   8.447
  256POPC   C3A 7397  33.866   5.661   8.086
  256POPC   C4A 7398  33.911   5.467   7.671
  256POPC   C1B 7399  34.165   5.957   8.549
  256POPC   C2B 7400  34.400   5.895   8.180
  256POPC   C3B 7401  34.247   5.827   7.759
  256POPC   C4B 7402  33.868   5.976   7.529
  257POPC   NC3 7403  40.593  27.187   9.409
  257POPC   PO4 7404  40.895  26.545   9.590
  257POPC   GL1 7405  40.798  26.572   9.164
  257POPC   GL2 7406  40.881  26.880   9.147
  257POPC   C1A 7407  40.999  26.598   8.732
  257POPC   D2A 7408  40.850  26.699   8.338
  257POPC   C3A 7409  41.001  26.556   7.971
  257POPC   C4A 7410  40.700  26.602   7.653
  257POPC   C1B 7411  40.831  27.086   8.800
  257POPC   C2B 7412  40.591  27.103   8.488
  257POPC   C3B 7413  40.823  27.196   8.129
  257POPC   C4B 7414  40.671  27.207   7.733
  258POPC   NC3 7415  39.291  28.319   9.567
  258POPC   PO4 7416  38.765  28.920   9.471
  258POPC   GL1 7417  39.002  28.554   9.193
  258POPC   GL2 7418  39.409  28.581   9.135
  258POPC   C1A 7419  39.139  28.481   8.746
  258POPC   D2A 7420  38.975  28.342   8.395
  258POPC   C3A 7421  39.170  28.340   8.023
  258POPC   C4A 7422  39.127  28.288   7.592
  258POPC   C1B 7423  39.509  28.186   8.907
  258POPC   C2B 7424  39.451  28.164   8.480
  258POPC   C3B 7425  39.629  28.073   8.116
  258POPC   C4B 7426  39.607  28.388   7.784
  259POPC   NC3 7427   6.578  38.860   9.741
  259POPC   PO4 7428   6.593  38.244   9.531
  259POPC   GL1 7429   6.440  38.358   9.146
  259POPC   GL2 7430   6.750  38.507   9.055
  259POPC   C1A 7431   6.408  38.286   8.725
  259POPC   D2A 7432   6.667  38.499   8.446
  259POPC   C3A 7433   6.526  38.387   8.038
  259POPC   C4A 7434   6.438  38.639   7.695
  259POPC   C1B 7435   7.001  38.776   8.805
  259POPC   C2B 7436   6.957  38.980   8.420
  259POPC   C3B 7437   6.753  38.877   8.050
  259POPC   C4B 7438   6.950  38.849   7.650
  260POPC   NC3 7439  10.797  23.456   9.439
  260POPC   PO4 7440  10.384  23.963   9.324
  260POPC   GL1 7441  10.734  23.791   9.038
  260POPC   GL2 7442  10.694  23.415   8.950
  260POPC   C1A 7443  10.781  23.823   8.580
  260POPC   D2A 7444  10.574  24.115   8.264
  260POPC   C3A 7445  10.451  23.934   7.869
  260POPC   C4A 7446  10.171  23.612   7.754
  260POPC   C1B 7447  10.324  23.420   8.684
  260POPC   C2B 7448  10.318  23.529   8.243
  260POPC   C3B 7449  10.623  23.423   7.914
  260POPC   C4B 7450  10.501  23.351   7.457
  261POPC   NC3 7451  19.125  34.697   9.671
  261POPC   PO4 7452  18.709  34.227   9.523
  261POPC   GL1 7453  19.030  34.376   9.265
  261POPC   GL2 7454  19.279  34.109   9.370
  261POPC   C1A 7455  19.017  34.602   8.837
  261POPC   D2A 7456  19.267  34.749   8.451
  261POPC   C3A 7457  19.147  34.886   8.083
  261POPC   C4A 7458  19.168  34.688   7.706
  261POPC   C1B 7459  19.287  34.124   8.914
  261POPC   C2B 7460  19.343  34.200   8.467
  261POPC   C3B 7461  19.130  34.340   8.107
  261POPC   C4B 7462  18.839  34.101   7.854
  262POPC   NC3 7463  23.966  22.399   9.477
  262POPC   PO4 7464  23.445  21.930   9.355
  262POPC   GL1 7465  23.795  22.041   9.065
  262POPC   GL2 7466  23.933  22.369   8.990
  262POPC   C1A 7467  23.697  22.107   8.629
  262POPC   D2A 7468  23.838  21.976   8.243
  262POPC   C3A 7469  23.598  22.011   7.898
  262POPC   C4A 7470  23.542  22.317   7.577
  262POPC   C1B 7471  24.146  22.345   8.618
  262POPC   C2B 7472  24.024  22.480   8.222
  262POPC   C3B 7473  24.049  22.260   7.855
  262POPC   C4B 7474  23.992  22.156   7.439
  263POPC   NC3 7475  33.537  23.221   9.611
  263POPC   PO4 7476  33.339  22.658   9.242
  263POPC   GL1 7477  33.686  22.840   9.093
  263POPC   GL2 7478  33.506  23.160   9.023
  263POPC   C1A 7479  34.017  22.651   8.805
  263POPC   D2A 7480  33.972  22.470   8.395
  263POPC   C3A 7481  33.815  22.740   8.064
  263POPC   C4A 7482  33.959  22.597   7.643
  263POPC   C1B 7483  33.665  22.997   8.600
  263POPC   C2B 7484  33.716  23.252   8.217
  263POPC   C3B 7485  34.017  23.205   7.897
  263POPC   C4B 7486  33.924  23.106   7.481
  264POPC   NC3 7487  32.186  13.771   9.464
  264POPC   PO4 7488  32.044  13.167   9.185
  264POPC   GL1 7489  32.094  13.559   8.989
  264POPC   GL2 7490  32.378  13.788   8.980
  264POPC   C1A 7491  32.181  13.558   8.573
  264POPC   D2A 7492  32.298  13.672   8.216
  264POPC   C3A 7493  32.218  13.308   8.001
  264POPC   C4A 7494  32.119  13.325   7.628
  264POPC   C1B 7495  32.568  13.360   8.842
  264POPC   C2B 7496  32.711  13.252   8.414
  264POPC   C3B 7497  32.710  13.399   7.962
  264POPC   C4B 7498  32.520  13.727   7.758
  265POPC   NC3 7499  44.655  11.139   9.619
  265POPC   PO4 7500  44.478  11.803   9.353
  265POPC   GL1 7501  44.652  11.440   9.202
  265POPC   GL2 7502  44.393  11.237   9.212
  265POPC   C1A 7503  44.822  11.154   8.854
  265POPC   D2A 7504  44.947  11.303   8.395
  265POPC   C3A 7505  44.909  11.117   7.945
  265POPC   C4A 7506   0.027  11.310   7.508
  265POPC   C1B 7507  44.398  11.384   8.791
  265POPC   C2B 7508  44.426  11.371   8.401
  265POPC   C3B 7509  44.534  11.436   8.046
  265POPC   C4B 7510  44.499  11.227   7.647
  266POPC   NC3 7511  44.348   9.735   9.858
  266POPC   PO4 7512  43.844   9.616   9.416
  266POPC   GL1 7513  44.040   9.756   9.032
  266POPC   GL2 7514  44.083   9.389   8.944
  266POPC   C1A 7515  43.937   9.997   8.608
  266POPC   D2A 7516  43.620  10.025   8.279
  266POPC   C3A 7517  43.749   9.946   7.843
  266POPC   C4A 7518  43.528   9.912   7.459
  266POPC   C1B 7519  44.198   9.570   8.576
  266POPC   C2B 7520  44.034   9.662   8.174
  266POPC   C3B 7521  44.132   9.372   7.851
  266POPC   C4B 7522  44.244   9.284   7.435
  267POPC   NC3 7523  29.798  22.195   9.619
  267POPC   PO4 7524  30.357  21.778   9.548
  267POPC   GL1 7525  30.054  21.963   9.211
  267POPC   GL2 7526  29.643  21.943   9.207
  267POPC   C1A 7527  30.154  22.224   8.817
  267POPC   D2A 7528  30.175  22.544   8.474
  267POPC   C3A 7529  30.369  22.383   8.096
  267POPC   C4A 7530  30.185  22.188   7.743
  267POPC   C1B 7531  29.678  22.307   8.948
  267POPC   C2B 7532  29.716  22.267   8.503
  267POPC   C3B 7533  29.831  22.382   8.085
  267POPC   C4B 7534  29.678  22.250   7.689
  268POPC   NC3 7535  37.776  21.723   9.420
  268POPC   PO4 7536  37.956  21.105   9.470
  268POPC   GL1 7537  37.881  21.198   9.062
  268POPC   GL2 7538  37.609  21.426   9.036
  268POPC   C1A 7539  38.007  21.436   8.710
  268POPC   D2A 7540  37.913  21.570   8.338
  268POPC   C3A 7541  38.017  21.421   7.973
  268POPC   C4A 7542  37.912  21.613   7.580
  268POPC   C1B 7543  37.410  21.367   8.658
  268POPC   C2B 7544  37.492  21.248   8.228
  268POPC   C3B 7545  37.543  21.323   7.791
  268POPC   C4B 7546  37.386  21.059   7.481
  269POPC   NC3 7547  32.099  22.780   9.459
  269POPC   PO4 7548  32.456  23.386   9.428
  269POPC   GL1 7549  32.527  23.169   9.024
  269POPC   GL2 7550  32.269  22.905   9.002
  269POPC   C1A 7551  32.323  23.181   8.576
  269POPC   D2A 7552  32.140  22.784   8.366
  269POPC   C3A 7553  32.210  22.740   7.954
  269POPC   C4A 7554  32.267  23.121   7.740
  269POPC   C1B 7555  32.529  22.751   8.686
  269POPC   C2B 7556  32.764  22.834   8.351
  269POPC   C3B 7557  32.733  22.980   7.949
  269POPC   C4B 7558  32.629  22.680   7.692
  270POPC   NC3 7559  18.806  29.714   9.445
  270POPC   PO4 7560  19.352  30.107   9.450
  270POPC   GL1 7561  19.153  29.920   9.117
  270POPC   GL2 7562  19.303  29.605   9.202
  270POPC   C1A 7563  18.966  29.981   8.690
  270POPC   D2A 7564  18.890  29.907   8.246
  270POPC   C3A 7565  18.879  30.159   7.870
  270POPC   C4A 7566  19.035  30.164   7.418
  270POPC   C1B 7567  19.411  29.686   8.758
  270POPC   C2B 7568  19.390  29.450   8.390
  270POPC   C3B 7569  19.441  29.548   7.969
  270POPC   C4B 7570  19.216  29.765   7.663
  271POPC   NC3 7571  25.469  20.172   9.552
  271POPC   PO4 7572  24.861  20.454   9.275
  271POPC   GL1 7573  25.290  20.475   9.157
  271POPC   GL2 7574  25.399  20.802   9.278
  271POPC   C1A 7575  25.428  20.387   8.733
  271POPC   D2A 7576  25.210  20.494   8.359
  271POPC   C3A 7577  25.366  20.324   7.948
  271POPC   C4A 7578  25.152  20.240   7.558
  271POPC   C1B 7579  25.232  20.891   8.823
  271POPC   C2B 7580  25.203  21.051   8.393
  271POPC   C3B 7581  25.075  20.837   8.019
  271POPC   C4B 7582  25.246  20.726   7.634
  272POPC   NC3 7583  10.726  43.498   9.697
  272POPC   PO4 7584  10.452  42.937   9.719
  272POPC   GL1 7585  10.600  43.145   9.310
  272POPC   GL2 7586  10.625  42.870   9.101
  272POPC   C1A 7587  10.446  43.270   8.850
  272POPC   D2A 7588  10.332  43.079   8.418
  272POPC   C3A 7589  10.235  43.300   8.024
  272POPC   C4A 7590  10.421  43.419   7.634
  272POPC   C1B 7591  10.447  42.704   8.755
  272POPC   C2B 7592  10.447  42.568   8.320
  272POPC   C3B 7593  10.594  42.757   7.951
  272POPC   C4B 7594  10.316  42.925   7.683
  273POPC   NC3 7595  11.701  27.001   9.632
  273POPC   PO4 7596  12.369  26.796   9.566
  273POPC   GL1 7597  12.124  26.625   9.221
  273POPC   GL2 7598  11.779  26.548   9.308
  273POPC   C1A 7599  12.092  26.557   8.789
  273POPC   D2A 7600  12.171  26.754   8.432
  273POPC   C3A 7601  12.309  26.588   8.126
  273POPC   C4A 7602  12.086  26.530   7.789
  273POPC   C1B 7603  11.719  26.866   8.981
  273POPC   C2B 7604  11.643  26.870   8.509
  273POPC   C3B 7605  11.792  26.829   8.079
  273POPC   C4B 7606  11.700  27.027   7.695
  274POPC   NC3 7607   7.304   9.621   9.413
  274POPC   PO4 7608   7.712  10.152   9.313
  274POPC   GL1 7609   7.643  10.010   8.896
  274POPC   GL2 7610   7.579   9.683   8.981
  274POPC   C1A 7611   7.629   9.756   8.498
  274POPC   D2A 7612   7.523   9.481   8.148
  274POPC   C3A 7613   7.406   9.749   7.780
  274POPC   C4A 7614   7.367   9.916   7.316
  274POPC   C1B 7615   7.206   9.631   8.750
  274POPC   C2B 7616   7.046   9.594   8.345
  274POPC   C3B 7617   7.013   9.380   7.948
  274POPC   C4B 7618   7.090   9.476   7.507
  275POPC   NC3 7619  13.962  23.500   9.406
  275POPC   PO4 7620  14.342  24.058   9.601
  275POPC   GL1 7621  14.201  23.846   9.117
  275POPC   GL2 7622  13.977  23.601   8.921
  275POPC   C1A 7623  14.428  23.656   8.694
  275POPC   D2A 7624  14.575  23.352   8.353
  275POPC   C3A 7625  14.526  23.498   7.922
  275POPC   C4A 7626  14.663  23.851   7.679
  275POPC   C1B 7627  13.999  23.981   8.649
  275POPC   C2B 7628  14.009  23.976   8.198
  275POPC   C3B 7629  14.028  23.571   7.930
  275POPC   C4B 7630  14.204  23.613   7.482
  276POPC   NC3 7631   8.771  36.255   9.400
  276POPC   PO4 7632   9.342  35.864   9.522
  276POPC   GL1 7633   9.039  35.853   9.187
  276POPC   GL2 7634   9.197  36.119   9.068
  276POPC   C1A 7635   8.875  35.969   8.723
  276POPC   D2A 7636   8.801  36.285   8.387
  276POPC   C3A 7637   8.609  36.163   8.028
  276POPC   C4A 7638   8.786  36.201   7.631
  276POPC   C1B 7639   9.390  36.307   8.736
  276POPC   C2B 7640   9.279  36.115   8.372
  276POPC   C3B 7641   9.248  36.271   7.958
  276POPC   C4B 7642   9.229  36.006   7.609
  277POPC   NC3 7643  37.769  32.860   9.265
  277POPC   PO4 7644  38.113  33.313   9.590
  277POPC   GL1 7645  37.852  33.357   9.165
  277POPC   GL2 7646  37.473  33.255   9.118
  277POPC   C1A 7647  37.803  33.193   8.714
  277POPC   D2A 7648  37.755  32.876   8.444
  277POPC   C3A 7649  37.754  33.091   8.077
  277POPC   C4A 7650  37.919  33.023   7.689
  277POPC   C1B 7651  37.351  32.980   8.764
  277POPC   C2B 7652  37.292  33.116   8.334
  277POPC   C3B 7653  37.244  33.010   7.924
  277POPC   C4B 7654  37.446  33.275   7.688
  278POPC   NC3 7655  32.670  32.097   9.289
  278POPC   PO4 7656  32.914  32.566   9.686
  278POPC   GL1 7657  32.997  32.501   9.241
  278POPC   GL2 7658  33.211  32.201   9.132
  278POPC   C1A 7659  32.888  32.519   8.810
  278POPC   D2A 7660  32.654  32.217   8.535
  278POPC   C3A 7661  32.715  32.272   8.089
  278POPC   C4A 7662  32.669  32.132   7.670
  278POPC   C1B 7663  33.132  32.053   8.704
  278POPC   C2B 7664  33.033  31.928   8.281
  278POPC   C3B 7665  33.148  32.022   7.864
  278POPC   C4B 7666  33.439  31.845   7.599
  279POPC   NC3 7667  21.449  44.942   9.580
  279POPC   PO4 7668  21.409   0.615   9.613
  279POPC   GL1 7669  21.479   0.475   9.212
  279POPC   GL2 7670  21.280   0.230   9.164
  279POPC   C1A 7671  21.280   0.602   8.805
  279POPC   D2A 7672  21.075   0.478   8.423
  279POPC   C3A 7673  21.372   0.586   8.097
  279POPC   C4A 7674  21.453   0.726   7.695
  279POPC   C1B 7675  21.166   0.088   8.758
  279POPC   C2B 7676  20.961  44.960   8.361
  279POPC   C3B 7677  21.064   0.197   7.987
  279POPC   C4B 7678  21.289   0.147   7.596
  280POPC   NC3 7679   9.671  33.183   9.954
  280POPC   PO4 7680   9.710  32.818   9.402
  280POPC   GL1 7681   9.718  33.169   9.105
  280POPC   GL2 7682   9.447  33.265   8.884
  280POPC   C1A 7683   9.945  33.405   8.802
  280POPC   D2A 7684   9.693  33.559   8.447
  280POPC   C3A 7685   9.711  33.308   8.065
  280POPC   C4A 7686   9.700  32.969   7.789
  280POPC   C1B 7687   9.740  33.043   8.532
  280POPC   C2B 7688  10.037  32.895   8.181
  280POPC   C3B 7689   9.984  32.545   7.867
  280POPC   C4B 7690   9.802  32.609   7.433
  281POPC   NC3 7691  19.766  25.921   9.542
  281POPC   PO4 7692  19.634  26.478   9.555
  281POPC   GL1 7693  19.857  26.327   9.162
  281POPC   GL2 7694  19.935  26.000   9.047
  281POPC   C1A 7695  19.747  26.389   8.705
  281POPC   D2A 7696  19.608  26.312   8.259
  281POPC   C3A 7697  19.814  26.337   7.833
  281POPC   C4A 7698  19.723  26.150   7.391
  281POPC   C1B 7699  19.948  25.932   8.595
  281POPC   C2B 7700  20.040  25.993   8.151
  281POPC   C3B 7701  19.924  25.835   7.735
  281POPC   C4B 7702  19.815  25.622   7.341
  282POPC   NC3 7703  22.962   5.386   9.451
  282POPC   PO4 7704  23.280   4.696   9.400
  282POPC   GL1 7705  23.090   5.000   9.163
  282POPC   GL2 7706  22.747   5.086   9.053
  282POPC   C1A 7707  23.169   5.289   8.834
  282POPC   D2A 7708  22.886   5.306   8.480
  282POPC   C3A 7709  23.088   5.319   8.072
  282POPC   C4A 7710  22.834   5.365   7.742
  282POPC   C1B 7711  22.996   4.826   8.710
  282POPC   C2B 7712  23.069   4.856   8.282
  282POPC   C3B 7713  22.863   4.852   7.899
  282POPC   C4B 7714  23.096   4.899   7.537
  283POPC   NC3 7715  21.391  27.292   9.410
  283POPC   PO4 7716  21.610  27.883   9.609
  283POPC   GL1 7717  21.379  27.787   9.249
  283POPC   GL2 7718  21.690  27.627   9.120
  283POPC   C1A 7719  21.336  27.852   8.805
  283POPC   D2A 7720  21.535  27.994   8.434
  283POPC   C3A 7721  21.298  27.815   8.122
  283POPC   C4A 7722  21.212  27.816   7.690
  283POPC   C1B 7723  21.508  27.368   8.787
  283POPC   C2B 7724  21.258  27.336   8.439
  283POPC   C3B 7725  21.385  27.316   8.028
  283POPC   C4B 7726  21.641  27.575   7.834
  284POPC   NC3 7727  26.763  23.971   9.468
  284POPC   PO4 7728  26.916  23.305   9.504
  284POPC   GL1 7729  26.683  23.527   9.161
  284POPC   GL2 7730  26.483  23.841   9.061
  284POPC   C1A 7731  26.737  23.382   8.758
  284POPC   D2A 7732  27.010  23.494   8.456
  284POPC   C3A 7733  26.750  23.600   8.116
  284POPC   C4A 7734  26.762  23.519   7.692
  284POPC   C1B 7735  26.813  23.893   8.752
  284POPC   C2B 7736  26.788  24.060   8.331
  284POPC   C3B 7737  26.884  24.060   7.900
  284POPC   C4B 7738  26.558  23.992   7.590
  285POPC   NC3 7739  31.590  21.920   9.497
  285POPC   PO4 7740  31.439  22.552   9.550
  285POPC   GL1 7741  31.251  22.314   9.174
  285POPC   GL2 7742  31.097  21.996   9.135
  285POPC   C1A 7743  31.332  22.243   8.729
  285POPC   D2A 7744  31.494  22.369   8.304
  285POPC   C3A 7745  31.436  22.108   7.922
  285POPC   C4A 7746  31.566  21.710   7.715
  285POPC   C1B 7747  30.928  21.921   8.732
  285POPC   C2B 7748  31.147  21.881   8.354
  285POPC   C3B 7749  31.115  21.671   7.970
  285POPC   C4B 7750  31.061  21.893   7.610
  286POPC   NC3 7751  22.602  10.300   9.445
  286POPC   PO4 7752  23.144  10.671   9.445
  286POPC   GL1 7753  23.048  10.685   9.037
  286POPC   GL2 7754  22.697  10.667   9.103
  286POPC   C1A 7755  23.001  10.638   8.596
  286POPC   D2A 7756  22.868  10.255   8.466
  286POPC   C3A 7757  23.119  10.175   8.121
  286POPC   C4A 7758  23.077  10.469   7.806
  286POPC   C1B 7759  22.482  10.662   8.718
  286POPC   C2B 7760  22.553  10.660   8.280
  286POPC   C3B 7761  22.580  10.603   7.847
  286POPC   C4B 7762  22.481  10.751   7.395
  287POPC   NC3 7763  32.373   7.671   9.398
  287POPC   PO4 7764  31.968   7.096   9.462
  287POPC   GL1 7765  31.872   7.343   9.093
  287POPC   GL2 7766  31.978   7.715   9.032
  287POPC   C1A 7767  31.747   7.416   8.672
  287POPC   D2A 7768  31.982   7.637   8.358
  287POPC   C3A 7769  32.030   7.462   7.940
  287POPC   C4A 7770  32.332   7.160   7.792
  287POPC   C1B 7771  32.323   7.859   8.706
  287POPC   C2B 7772  32.586   8.019   8.312
  287POPC   C3B 7773  32.613   7.872   7.866
  287POPC   C4B 7774  32.313   7.743   7.534
  288POPC   NC3 7775  41.035  34.636   9.443
  288POPC   PO4 7776  41.722  34.671   9.552
  288POPC   GL1 7777  41.720  34.407   9.203
  288POPC   GL2 7778  41.377  34.395   9.059
  288POPC   C1A 7779  41.861  34.437   8.788
  288POPC   D2A 7780  41.853  34.639   8.392
  288POPC   C3A 7781  41.663  34.414   8.067
  288POPC   C4A 7782  41.650  34.239   7.692
  288POPC   C1B 7783  41.423  34.723   8.705
  288POPC   C2B 7784  41.327  34.743   8.276
  288POPC   C3B 7785  41.231  34.957   7.895
  288POPC   C4B 7786  41.511  34.848   7.591
  289POPC   NC3 7787   7.516  31.969   9.475
  289POPC   PO4 7788   7.135  32.600   9.540
  289POPC   GL1 7789   7.391  32.539   9.181
  289POPC   GL2 7790   7.118  32.666   9.007
  289POPC   C1A 7791   7.398  32.333   8.731
  289POPC   D2A 7792   7.217  32.000   8.444
  289POPC   C3A 7793   7.418  31.863   8.043
  289POPC   C4A 7794   7.269  31.881   7.604
  289POPC   C1B 7795   7.098  32.769   8.558
  289POPC   C2B 7796   7.243  32.470   8.232
  289POPC   C3B 7797   7.411  32.336   7.861
  289POPC   C4B 7798   7.786  32.567   7.744
  290POPC   NC3 7799   6.307  13.403   9.301
  290POPC   PO4 7800   6.870  13.701   9.706
  290POPC   GL1 7801   6.707  13.760   9.263
  290POPC   GL2 7802   6.807  13.529   9.017
  290POPC   C1A 7803   6.446  13.851   8.895
  290POPC   D2A 7804   6.381  13.778   8.481
  290POPC   C3A 7805   6.679  13.637   8.191
  290POPC   C4A 7806   6.661  13.890   7.806
  290POPC   C1B 7807   6.577  13.311   8.690
  290POPC   C2B 7808   6.264  13.295   8.363
  290POPC   C3B 7809   6.388  13.292   7.935
  290POPC   C4B 7810   6.834  13.165   7.992
  291POPC   NC3 7811  12.318  18.789   9.385
  291POPC   PO4 7812  12.032  19.441   9.563
  291POPC   GL1 7813  12.151  19.356   9.103
  291POPC   GL2 7814  12.037  19.037   8.979
  291POPC   C1A 7815  12.334  19.252   8.640
  291POPC   D2A 7816  12.381  18.834   8.388
  291POPC   C3A 7817  12.196  18.839   7.966
  291POPC   C4A 7818  12.193  19.163   7.663
  291POPC   C1B 7819  11.902  18.790   8.625
  291POPC   C2B 7820  11.722  18.877   8.233
  291POPC   C3B 7821  11.705  18.755   7.814
  291POPC   C4B 7822  11.705  19.147   7.647
  292POPC   NC3 7823  25.585  25.150   9.384
  292POPC   PO4 7824  24.992  25.346   9.422
  292POPC   GL1 7825  25.112  25.071   9.115
  292POPC   GL2 7826  24.908  24.781   9.049
  292POPC   C1A 7827  25.332  25.175   8.744
  292POPC   D2A 7828  25.338  25.466   8.421
  292POPC   C3A 7829  25.392  25.265   8.040
  292POPC   C4A 7830  25.594  25.412   7.709
  292POPC   C1B 7831  24.810  25.020   8.684
  292POPC   C2B 7832  24.878  25.203   8.260
  292POPC   C3B 7833  24.940  25.290   7.815
  292POPC   C4B 7834  25.275  25.024   7.569
  293POPC   NC3 7835  38.493  25.772   9.462
  293POPC   PO4 7836  38.110  25.269   9.645
  293POPC   GL1 7837  38.369  25.413   9.159
  293POPC   GL2 7838  38.504  25.128   8.951
  293POPC   C1A 7839  38.680  25.565   8.810
  293POPC   D2A 7840  38.719  25.259   8.446
  293POPC   C3A 7841  38.451  25.366   8.073
  293POPC   C4A 7842  38.566  25.404   7.616
  293POPC   C1B 7843  38.242  25.266   8.616
  293POPC   C2B 7844  38.161  25.005   8.304
  293POPC   C3B 7845  38.147  24.740   7.994
  293POPC   C4B 7846  38.233  25.023   7.717
  294POPC   NC3 7847  17.345  41.889   9.417
  294POPC   PO4 7848  17.637  41.352   9.785
  294POPC   GL1 7849  17.514  41.366   9.281
  294POPC   GL2 7850  17.268  41.515   9.099
  294POPC   C1A 7851  17.630  41.319   8.793
  294POPC   D2A 7852  17.770  41.456   8.349
  294POPC   C3A 7853  17.527  41.413   7.955
  294POPC   C4A 7854  17.551  41.185   7.571
  294POPC   C1B 7855  17.302  41.719   8.760
  294POPC   C2B 7856  17.260  41.568   8.373
  294POPC   C3B 7857  17.250  41.864   8.016
  294POPC   C4B 7858  17.313  41.833   7.602
  295POPC   NC3 7859  30.033   2.472   9.502
  295POPC   PO4 7860  29.729   2.972   9.601
  295POPC   GL1 7861  29.808   2.803   9.160
  295POPC   GL2 7862  29.602   3.057   9.027
  295POPC   C1A 7863  29.928   2.671   8.728
  295POPC   D2A 7864  29.839   2.439   8.360
  295POPC   C3A 7865  30.087   2.590   8.027
  295POPC   C4A 7866  30.235   2.893   7.730
  295POPC   C1B 7867  29.394   3.077   8.655
  295POPC   C2B 7868  29.718   3.058   8.369
  295POPC   C3B 7869  29.709   3.167   7.959
  295POPC   C4B 7870  29.270   3.079   7.795
  296POPC   NC3 7871  19.785  18.584   9.770
  296POPC   PO4 7872  20.004  19.136   9.351
  296POPC   GL1 7873  20.005  19.038   8.962
  296POPC   GL2 7874  19.652  18.988   8.885
  296POPC   C1A 7875  19.993  19.097   8.549
  296POPC   D2A 7876  19.698  19.011   8.300
  296POPC   C3A 7877  19.994  18.957   8.040
  296POPC   C4A 7878  20.130  19.070   7.664
  296POPC   C1B 7879  19.867  18.630   8.650
  296POPC   C2B 7880  19.847  18.471   8.262
  296POPC   C3B 7881  19.611  18.613   7.928
  296POPC   C4B 7882  19.592  19.012   7.762
  297POPC   NC3 7883   5.298  33.225   9.275
  297POPC   PO4 7884   4.869  32.877   9.610
  297POPC   GL1 7885   4.952  32.891   9.143
  297POPC   GL2 7886   5.296  32.757   9.080
  297POPC   C1A 7887   4.975  33.043   8.698
  297POPC   D2A 7888   5.174  33.029   8.289
  297POPC   C3A 7889   5.100  32.774   7.949
  297POPC   C4A 7890   4.980  33.171   7.756
  297POPC   C1B 7891   5.478  32.954   8.688
  297POPC   C2B 7892   5.673  33.131   8.304
  297POPC   C3B 7893   5.495  33.149   7.875
  297POPC   C4B 7894   5.404  32.871   7.533
  298POPC   NC3 7895   7.438  40.938   9.624
  298POPC   PO4 7896   7.126  40.330   9.493
  298POPC   GL1 7897   7.193  40.550   9.087
  298POPC   GL2 7898   7.387  40.833   9.114
  298POPC   C1A 7899   7.359  40.559   8.658
  298POPC   D2A 7900   7.305  40.773   8.272
  298POPC   C3A 7901   7.546  40.667   7.928
  298POPC   C4A 7902   7.311  40.911   7.651
  298POPC   C1B 7903   7.620  41.041   8.827
  298POPC   C2B 7904   7.639  41.172   8.444
  298POPC   C3B 7905   7.582  41.174   8.025
  298POPC   C4B 7906   7.568  41.359   7.642
  299POPC   NC3 7907  16.660   4.656   9.485
  299POPC   PO4 7908  16.311   4.079   9.464
  299POPC   GL1 7909  16.697   4.205   9.216
  299POPC   GL2 7910  16.907   3.910   9.162
  299POPC   C1A 7911  16.818   4.499   8.841
  299POPC   D2A 7912  16.593   4.630   8.442
  299POPC   C3A 7913  16.795   4.564   8.013
  299POPC   C4A 7914  16.631   4.461   7.591
  299POPC   C1B 7915  16.759   4.014   8.730
  299POPC   C2B 7916  16.855   4.135   8.312
  299POPC   C3B 7917  16.676   4.063   7.910
  299POPC   C4B 7918  16.799   3.967   7.504
  300POPC   NC3 7919  31.660  12.221   9.327
  300POPC   PO4 7920  31.095  11.804   9.473
  300POPC   GL1 7921  31.295  11.941   9.123
  300POPC   GL2 7922  31.233  12.292   9.085
  300POPC   C1A 7923  31.407  11.931   8.698
  300POPC   D2A 7924  31.245  11.886   8.280
  300POPC   C3A 7925  31.547  12.063   8.017
  300POPC   C4A 7926  31.561  12.231   7.635
  300POPC   C1B 7927  31.030  12.301   8.764
  300POPC   C2B 7928  31.025  12.391   8.370
  300POPC   C3B 7929  31.153  12.412   7.956
  300POPC   C4B 7930  31.119  12.406   7.485
  301POPC   NC3 7931  41.035  20.625   9.624
  301POPC   PO4 7932  40.465  20.926   9.647
  301POPC   GL1 7933  40.592  20.668   9.266
  301POPC   GL2 7934  40.879  20.440   9.180
  301POPC   C1A 7935  40.590  20.687   8.805
  301POPC   D2A 7936  40.496  20.839   8.381
  301POPC   C3A 7937  40.615  20.541   8.073
  301POPC   C4A 7938  40.738  20.850   7.826
  301POPC   C1B 7939  40.989  20.351   8.779
  301POPC   C2B 7940  40.961  20.616   8.443
  301POPC   C3B 7941  41.127  20.620   8.050
  301POPC   C4B 7942  41.010  20.450   7.680
  302POPC   NC3 7943  29.281  26.223   9.467
  302POPC   PO4 7944  30.013  26.103   9.432
  302POPC   GL1 7945  29.713  26.135   9.121
  302POPC   GL2 7946  30.021  26.149   8.913
  302POPC   C1A 7947  29.576  26.137   8.692
  302POPC   D2A 7948  29.792  26.158   8.307
  302POPC   C3A 7949  29.561  26.357   8.023
  302POPC   C4A 7950  29.464  26.461   7.615
  302POPC   C1B 7951  30.015  25.726   8.758
  302POPC   C2B 7952  30.073  25.481   8.377
  302POPC   C3B 7953  29.968  25.728   8.001
  302POPC   C4B 7954  29.827  26.046   7.705
  303POPC   NC3 7955  35.523  22.394   9.499
  303POPC   PO4 7956  34.894  22.312   9.392
  303POPC   GL1 7957  35.172  22.076   9.149
  303POPC   GL2 7958  35.332  22.372   9.031
  303POPC   C1A 7959  35.373  21.904   8.755
  303POPC   D2A 7960  35.666  21.993   8.398
  303POPC   C3A 7961  35.463  22.072   7.996
  303POPC   C4A 7962  35.403  21.899   7.586
  303POPC   C1B 7963  35.433  22.408   8.618
  303POPC   C2B 7964  35.502  22.542   8.230
  303POPC   C3B 7965  35.323  22.559   7.860
  303POPC   C4B 7966  35.314  22.408   7.439
  304POPC   NC3 7967  25.103  31.609   9.497
  304POPC   PO4 7968  25.592  31.245   9.497
  304POPC   GL1 7969  25.269  31.259   9.178
  304POPC   GL2 7970  25.468  31.089   8.970
  304POPC   C1A 7971  25.122  31.517   8.821
  304POPC   D2A 7972  25.086  31.721   8.389
  304POPC   C3A 7973  25.090  31.468   8.015
  304POPC   C4A 7974  25.275  31.561   7.634
  304POPC   C1B 7975  25.764  31.212   8.648
  304POPC   C2B 7976  25.833  31.221   8.189
  304POPC   C3B 7977  25.547  31.178   7.837
  304POPC   C4B 7978  25.570  31.276   7.363
  305POPC   NC3 7979  23.943   5.579   9.456
  305POPC   PO4 7980  23.682   6.168   9.617
  305POPC   GL1 7981  23.513   5.949   9.243
  305POPC   GL2 7982  23.367   6.198   9.026
  305POPC   C1A 7983  23.465   5.722   8.841
  305POPC   D2A 7984  23.701   5.709   8.471
  305POPC   C3A 7985  23.565   5.574   8.071
  305POPC   C4A 7986  23.846   5.806   7.842
  305POPC   C1B 7987  23.432   6.167   8.569
  305POPC   C2B 7988  23.479   6.094   8.134
  305POPC   C3B 7989  23.459   6.145   7.687
  305POPC   C4B 7990  23.366   6.157   7.216
  306POPC   NC3 7991  24.654   7.216   9.513
  306POPC   PO4 7992  24.536   7.849   9.726
  306POPC   GL1 7993  24.505   7.658   9.294
  306POPC   GL2 7994  24.787   7.747   9.093
  306POPC   C1A 7995  24.510   7.384   8.887
  306POPC   D2A 7996  24.534   7.059   8.595
  306POPC   C3A 7997  24.613   7.205   8.210
  306POPC   C4A 7998  24.664   6.992   7.811
  306POPC   C1B 7999  24.940   7.624   8.729
  306POPC   C2B 8000  25.044   7.851   8.350
  306POPC   C3B 8001  24.782   7.882   8.002
  306POPC   C4B 8002  24.664   7.488   7.800
  307POPC   NC3 8003  28.767  37.490   9.450
  307POPC   PO4 8004  29.360  37.748   9.716
  307POPC   GL1 8005  29.207  37.696   9.292
  307POPC   GL2 8006  29.353  37.379   9.258
  307POPC   C1A 8007  28.982  37.676   8.860
  307POPC   D2A 8008  29.053  37.716   8.406
  307POPC   C3A 8009  28.965  37.729   7.945
  307POPC   C4A 8010  29.074  37.843   7.522
  307POPC   C1B 8011  29.476  37.583   8.856
  307POPC   C2B 8012  29.500  37.456   8.454
  307POPC   C3B 8013  29.446  37.584   8.039
  307POPC   C4B 8014  29.575  37.758   7.655
  308POPC   NC3 8015   1.079  38.613   9.437
  308POPC   PO4 8016   1.187  38.006   9.461
  308POPC   GL1 8017   1.136  38.265   9.067
  308POPC   GL2 8018   1.427  38.499   9.090
  308POPC   C1A 8019   1.172  38.504   8.651
  308POPC   D2A 8020   0.970  38.618   8.276
  308POPC   C3A 8021   1.118  38.538   7.909
  308POPC   C4A 8022   1.019  38.275   7.577
  308POPC   C1B 8023   1.611  38.754   8.760
  308POPC   C2B 8024   1.509  38.861   8.314
  308POPC   C3B 8025   1.619  38.624   7.936
  308POPC   C4B 8026   1.448  38.567   7.520
  309POPC   NC3 8027   0.077  39.317   9.546
  309POPC   PO4 8028   0.752  39.408   9.466
  309POPC   GL1 8029   0.409  39.307   9.156
  309POPC   GL2 8030   0.162  39.037   9.114
  309POPC   C1A 8031   0.225  39.371   8.735
  309POPC   D2A 8032   0.347  39.235   8.339
  309POPC   C3A 8033   0.244  39.455   7.984
  309POPC   C4A 8034   0.532  39.366   7.638
  309POPC   C1B 8035   0.209  38.845   8.698
  309POPC   C2B 8036   0.415  38.720   8.284
  309POPC   C3B 8037   0.319  38.944   7.891
  309POPC   C4B 8038   0.393  38.891   7.416
  310POPC   NC3 8039  36.983  31.656   9.590
  310POPC   PO4 8040  36.518  31.258   9.475
  310POPC   GL1 8041  36.831  31.389   9.179
  310POPC   GL2 8042  37.141  31.277   9.310
  310POPC   C1A 8043  37.030  31.613   8.857
  310POPC   D2A 8044  36.948  31.715   8.427
  310POPC   C3A 8045  37.165  31.520   8.108
  310POPC   C4A 8046  36.936  31.468   7.740
  310POPC   C1B 8047  37.276  31.149   8.952
  310POPC   C2B 8048  37.222  31.201   8.551
  310POPC   C3B 8049  37.291  31.012   8.167
  310POPC   C4B 8050  37.215  31.045   7.760
  311POPC   NC3 8051  26.647  17.624   9.595
  311POPC   PO4 8052  27.193  17.674   9.546
  311POPC   GL1 8053  26.973  17.591   9.160
  311POPC   GL2 8054  26.742  17.325   9.185
  311POPC   C1A 8055  26.923  17.647   8.708
  311POPC   D2A 8056  26.749  17.711   8.290
  311POPC   C3A 8057  26.851  17.460   7.947
  311POPC   C4A 8058  26.692  17.328   7.577
  311POPC   C1B 8059  26.528  17.339   8.789
  311POPC   C2B 8060  26.506  17.260   8.352
  311POPC   C3B 8061  26.341  17.250   7.951
  311POPC   C4B 8062  26.216  17.213   7.535
  312POPC   NC3 8063  23.346  35.802   9.382
  312POPC   PO4 8064  23.522  36.409   9.567
  312POPC   GL1 8065  23.471  36.241   9.130
  312POPC   GL2 8066  23.284  36.434   8.906
  312POPC   C1A 8067  23.517  35.977   8.727
  312POPC   D2A 8068  23.869  35.982   8.395
  312POPC   C3A 8069  23.829  36.051   7.926
  312POPC   C4A 8070  24.039  36.270   7.558
  312POPC   C1B 8071  23.703  36.451   8.652
  312POPC   C2B 8072  23.750  36.513   8.192
  312POPC   C3B 8073  23.632  36.508   7.751
  312POPC   C4B 8074  23.534  36.304   7.359
  313POPC   NC3 8075  25.610  42.211   9.584
  313POPC   PO4 8076  25.052  42.010   9.539
  313POPC   GL1 8077  25.244  42.351   9.229
  313POPC   GL2 8078  25.601  42.452   9.123
  313POPC   C1A 8079  25.253  42.362   8.760
  313POPC   D2A 8080  25.371  42.177   8.359
  313POPC   C3A 8081  25.218  42.284   7.941
  313POPC   C4A 8082  25.160  42.028   7.527
  313POPC   C1B 8083  25.748  42.474   8.664
  313POPC   C2B 8084  25.797  42.488   8.200
  313POPC   C3B 8085  25.558  42.680   7.877
  313POPC   C4B 8086  25.408  42.495   7.479
  314POPC   NC3 8087  32.241  18.552   9.649
  314POPC   PO4 8088  32.068  18.003   9.616
  314POPC   GL1 8089  32.416  18.145   9.289
  314POPC   GL2 8090  32.544  18.517   9.198
  314POPC   C1A 8091  32.546  18.065   8.848
  314POPC   D2A 8092  32.324  18.045   8.456
  314POPC   C3A 8093  32.527  17.950   8.086
  314POPC   C4A 8094  32.505  18.161   7.722
  314POPC   C1B 8095  32.480  18.575   8.731
  314POPC   C2B 8096  32.299  18.568   8.287
  314POPC   C3B 8097  32.077  18.324   7.938
  314POPC   C4B 8098  31.801  18.207   7.574
  315POPC   NC3 8099  14.331  22.745   9.451
  315POPC   PO4 8100  14.418  23.401   9.320
  315POPC   GL1 8101  14.179  23.133   9.056
  315POPC   GL2 8102  14.172  22.751   8.981
  315POPC   C1A 8103  14.193  23.147   8.632
  315POPC   D2A 8104  14.184  22.837   8.314
  315POPC   C3A 8105  14.413  22.995   7.999
  315POPC   C4A 8106  14.228  23.149   7.666
  315POPC   C1B 8107  14.535  22.726   8.682
  315POPC   C2B 8108  14.765  22.676   8.258
  315POPC   C3B 8109  14.603  22.546   7.864
  315POPC   C4B 8110  14.186  22.601   7.757
  316POPC   NC3 8111   8.369   4.812   9.519
  316POPC   PO4 8112   8.270   4.165   9.560
  316POPC   GL1 8113   8.126   4.163   9.151
  316POPC   GL2 8114   8.118   4.530   9.148
  316POPC   C1A 8115   8.097   4.152   8.743
  316POPC   D2A 8116   8.296   4.011   8.385
  316POPC   C3A 8117   8.030   4.104   8.055
  316POPC   C4A 8118   8.055   3.869   7.681
  316POPC   C1B 8119   8.173   4.676   8.738
  316POPC   C2B 8120   8.274   4.522   8.319
  316POPC   C3B 8121   8.277   4.711   7.903
  316POPC   C4B 8122   8.151   4.695   7.430
  317POPC   NC3 8123  14.951  36.597   9.597
  317POPC   PO4 8124  15.455  36.982   9.682
  317POPC   GL1 8125  15.322  36.989   9.258
  317POPC   GL2 8126  15.010  37.106   9.184
  317POPC   C1A 8127  15.270  36.815   8.851
  317POPC   D2A 8128  15.361  36.980   8.456
  317POPC   C3A 8129  15.154  36.828   8.110
  317POPC   C4A 8130  15.263  36.908   7.690
  317POPC   C1B 8131  14.979  37.227   8.742
  317POPC   C2B 8132  14.855  37.203   8.308
  317POPC   C3B 8133  14.960  37.288   7.899
  317POPC   C4B 8134  14.919  37.236   7.455
  318POPC   NC3 8135  20.796  40.338   9.374
  318POPC   PO4 8136  20.388  39.778   9.603
  318POPC   GL1 8137  20.520  39.822   9.190
  318POPC   GL2 8138  20.375  40.137   9.143
  318POPC   C1A 8139  20.747  39.965   8.817
  318POPC   D2A 8140  20.768  40.172   8.420
  318POPC   C3A 8141  20.506  40.003   8.133
  318POPC   C4A 8142  20.535  39.791   7.764
  318POPC   C1B 8143  20.453  40.410   8.800
  318POPC   C2B 8144  20.307  40.401   8.425
  318POPC   C3B 8145  20.498  40.499   8.051
  318POPC   C4B 8146  20.320  40.246   7.739
  319POPC   NC3 8147  40.747  14.963   9.473
  319POPC   PO4 8148  41.358  15.214   9.577
  319POPC   GL1 8149  40.949  15.351   9.216
  319POPC   GL2 8150  40.547  15.345   9.202
  319POPC   C1A 8151  40.786  15.464   8.757
  319POPC   D2A 8152  41.015  15.415   8.357
  319POPC   C3A 8153  40.840  15.334   7.942
  319POPC   C4A 8154  40.939  15.500   7.517
  319POPC   C1B 8155  40.515  15.042   8.848
  319POPC   C2B 8156  40.469  15.110   8.408
  319POPC   C3B 8157  40.565  14.894   8.021
  319POPC   C4B 8158  40.488  14.911   7.587
  320POPC   NC3 8159   3.276  20.153   9.896
  320POPC   PO4 8160   3.374  19.644   9.442
  320POPC   GL1 8161   3.715  19.785   9.185
  320POPC   GL2 8162   3.473  19.790   8.956
  320POPC   C1A 8163   3.916  19.917   8.776
  320POPC   D2A 8164   3.674  19.930   8.383
  320POPC   C3A 8165   3.931  20.069   8.073
  320POPC   C4A 8166   3.930  19.748   7.773
  320POPC   C1B 8167   3.285  19.511   8.724
  320POPC   C2B 8168   3.156  19.584   8.325
  320POPC   C3B 8169   3.272  19.362   7.979
  320POPC   C4B 8170   3.453  19.557   7.697
  321POPC   NC3 8171  17.221  15.075   9.718
  321POPC   PO4 8172  17.801  15.027   9.301
  321POPC   GL1 8173  17.533  15.127   8.991
  321POPC   GL2 8174  17.218  15.132   9.167
  321POPC   C1A 8175  17.510  15.167   8.558
  321POPC   D2A 8176  17.600  14.882   8.228
  321POPC   C3A 8177  17.715  15.134   7.908
  321POPC   C4A 8178  17.478  15.517   7.813
  321POPC   C1B 8179  17.111  14.901   8.759
  321POPC   C2B 8180  17.049  15.019   8.324
  321POPC   C3B 8181  17.212  15.079   7.905
  321POPC   C4B 8182  17.480  14.757   7.698
  322POPC   NC3 8183  38.998  24.185   9.435
  322POPC   PO4 8184  39.515  24.628   9.349
  322POPC   GL1 8185  39.227  24.469   9.058
  322POPC   GL2 8186  38.891  24.592   9.152
  322POPC   C1A 8187  39.167  24.407   8.622
  322POPC   D2A 8188  38.985  24.424   8.226
  322POPC   C3A 8189  39.258  24.297   7.907
  322POPC   C4A 8190  38.959  24.026   7.734
  322POPC   C1B 8191  38.861  24.810   8.784
  322POPC   C2B 8192  39.100  24.892   8.434
  322POPC   C3B 8193  39.164  24.875   8.042
  322POPC   C4B 8194  39.368  24.746   7.699
  323POPC   NC3 8195   2.652  25.211   9.692
  323POPC   PO4 8196   3.051  25.697   9.632
  323POPC   GL1 8197   2.727  25.539   9.284
  323POPC   GL2 8198   2.411  25.292   9.239
  323POPC   C1A 8199   2.746  25.445   8.836
  323POPC   D2A 8200   2.916  25.085   8.603
  323POPC   C3A 8201   2.864  25.205   8.163
  323POPC   C4A 8202   2.661  25.440   7.830
  323POPC   C1B 8203   2.454  25.009   8.865
  323POPC   C2B 8204   2.439  25.029   8.428
  323POPC   C3B 8205   2.411  25.028   8.001
  323POPC   C4B 8206   2.618  24.901   7.643
  324POPC   NC3 8207   2.884  33.334   9.511
  324POPC   PO4 8208   2.652  34.019   9.527
  324POPC   GL1 8209   2.727  33.705   9.170
  324POPC   GL2 8210   2.467  33.474   9.170
  324POPC   C1A 8211   2.961  33.694   8.769
  324POPC   D2A 8212   2.778  33.685   8.368
  324POPC   C3A 8213   3.002  33.796   7.989
  324POPC   C4A 8214   2.958  33.600   7.591
  324POPC   C1B 8215   2.339  33.454   8.735
  324POPC   C2B 8216   2.297  33.475   8.289
  324POPC   C3B 8217   2.513  33.653   7.920
  324POPC   C4B 8218   2.323  33.737   7.500
  325POPC   NC3 8219  21.901  14.860   9.456
  325POPC   PO4 8220  22.323  15.399   9.461
  325POPC   GL1 8221  22.171  15.397   9.037
  325POPC   GL2 8222  21.798  15.420   8.991
  325POPC   C1A 8223  22.124  15.361   8.588
  325POPC   D2A 8224  22.020  15.610   8.227
  325POPC   C3A 8225  22.274  15.418   7.942
  325POPC   C4A 8226  22.346  14.939   7.846
  325POPC   C1B 8227  21.832  14.984   8.777
  325POPC   C2B 8228  22.006  14.907   8.354
  325POPC   C3B 8229  21.881  15.079   7.961
  325POPC   C4B 8230  21.870  14.710   7.752
  326POPC   NC3 8231  17.891  29.207   9.430
  326POPC   PO4 8232  18.508  29.387   9.622
  326POPC   GL1 8233  18.345  29.263   9.213
  326POPC   GL2 8234  18.195  28.928   9.071
  326POPC   C1A 8235  18.470  29.302   8.812
  326POPC   D2A 8236  18.493  29.087   8.439
  326POPC   C3A 8237  18.457  29.383   8.119
  326POPC   C4A 8238  18.309  29.398   7.721
  326POPC   C1B 8239  18.383  28.659   8.715
  326POPC   C2B 8240  18.445  28.606   8.267
  326POPC   C3B 8241  18.333  28.907   7.972
  326POPC   C4B 8242  17.967  29.010   7.710
  327POPC   NC3 8243  18.606  27.160   9.509
  327POPC   PO4 8244  17.906  27.109   9.422
  327POPC   GL1 8245  18.233  26.936   9.191
  327POPC   GL2 8246  18.151  26.610   9.176
  327POPC   C1A 8247  18.407  26.907   8.782
  327POPC   D2A 8248  18.296  27.140   8.426
  327POPC   C3A 8249  18.473  27.020   8.062
  327POPC   C4A 8250  18.328  26.952   7.618
  327POPC   C1B 8251  18.193  26.465   8.756
  327POPC   C2B 8252  18.303  26.613   8.334
  327POPC   C3B 8253  18.481  26.537   7.887
  327POPC   C4B 8254  18.659  26.602   7.440
  328POPC   NC3 8255   9.863   5.684   9.462
  328POPC   PO4 8256   9.653   5.058   9.569
  328POPC   GL1 8257   9.791   4.993   9.178
  328POPC   GL2 8258   9.696   5.342   9.081
  328POPC   C1A 8259   9.603   4.850   8.806
  328POPC   D2A 8260   9.405   4.959   8.427
  328POPC   C3A 8261   9.643   4.758   8.080
  328POPC   C4A 8262   9.781   5.006   7.757
  328POPC   C1B 8263   9.723   5.389   8.642
  328POPC   C2B 8264   9.872   5.156   8.311
  328POPC   C3B 8265  10.170   5.242   8.033
  328POPC   C4B 8266  10.123   5.383   7.647
  329POPC   NC3 8267  30.600   9.978   9.482
  329POPC   PO4 8268  31.139   9.536   9.632
  329POPC   GL1 8269  31.024   9.856   9.232
  329POPC   GL2 8270  30.696   9.760   9.036
  329POPC   C1A 8271  31.064   9.887   8.745
  329POPC   D2A 8272  30.788   9.777   8.431
  329POPC   C3A 8273  31.037   9.890   8.106
  329POPC   C4A 8274  31.030   9.818   7.693
  329POPC   C1B 8275  30.579   9.395   8.761
  329POPC   C2B 8276  30.663   9.266   8.354
  329POPC   C3B 8277  30.738   9.481   7.971
  329POPC   C4B 8278  30.475   9.555   7.622
  330POPC   NC3 8279  37.193  12.876   9.324
  330POPC   PO4 8280  36.663  13.081   9.693
  330POPC   GL1 8281  36.582  12.928   9.233
  330POPC   GL2 8282  36.801  12.713   9.046
  330POPC   C1A 8283  36.479  12.997   8.770
  330POPC   D2A 8284  36.463  13.150   8.334
  330POPC   C3A 8285  36.664  12.873   8.033
  330POPC   C4A 8286  36.960  12.903   7.731
  330POPC   C1B 8287  36.974  12.855   8.631
  330POPC   C2B 8288  37.147  12.772   8.213
  330POPC   C3B 8289  37.093  12.438   7.876
  330POPC   C4B 8290  37.146  12.456   7.411
  331POPC   NC3 8291  33.482  14.315   9.630
  331POPC   PO4 8292  33.970  14.764   9.408
  331POPC   GL1 8293  33.901  14.358   9.215
  331POPC   GL2 8294  33.604  14.443   9.138
  331POPC   C1A 8295  33.871  14.184   8.774
  331POPC   D2A 8296  34.184  14.384   8.499
  331POPC   C3A 8297  34.074  14.406   8.061
  331POPC   C4A 8298  33.745  14.199   7.855
  331POPC   C1B 8299  33.559  14.601   8.731
  331POPC   C2B 8300  33.609  14.403   8.330
  331POPC   C3B 8301  33.628  14.687   7.935
  331POPC   C4B 8302  33.480  14.955   7.580
  332POPC   NC3 8303  39.400  41.624   9.600
  332POPC   PO4 8304  39.393  41.015   9.332
  332POPC   GL1 8305  39.518  41.415   9.146
  332POPC   GL2 8306  39.236  41.676   9.103
  332POPC   C1A 8307  39.625  41.632   8.770
  332POPC   D2A 8308  39.580  41.653   8.335
  332POPC   C3A 8309  39.224  41.688   8.090
  332POPC   C4A 8310  39.399  41.727   7.707
  332POPC   C1B 8311  39.170  41.874   8.660
  332POPC   C2B 8312  38.944  42.082   8.301
  332POPC   C3B 8313  38.991  42.071   7.840
  332POPC   C4B 8314  38.906  41.739   7.560
  333POPC   NC3 8315  27.275  44.930   9.470
  333POPC   PO4 8316  26.597  44.940   9.391
  333POPC   GL1 8317  26.852  44.779   9.126
  333POPC   GL2 8318  27.010  44.519   9.280
  333POPC   C1A 8319  26.782  44.848   8.727
  333POPC   D2A 8320  26.593  44.724   8.371
  333POPC   C3A 8321  26.805  44.780   8.016
  333POPC   C4A 8322  26.673  44.719   7.622
  333POPC   C1B 8323  27.076  44.387   8.857
  333POPC   C2B 8324  26.932  44.331   8.442
  333POPC   C3B 8325  27.094  44.258   8.065
  333POPC   C4B 8326  27.145  44.513   7.747
  334POPC   NC3 8327  36.011  22.816   9.382
  334POPC   PO4 8328  36.464  23.305   9.424
  334POPC   GL1 8329  36.192  23.194   9.072
  334POPC   GL2 8330  35.818  23.198   9.108
  334POPC   C1A 8331  36.090  22.855   8.749
  334POPC   D2A 8332  35.865  22.860   8.371
  334POPC   C3A 8333  36.086  22.951   8.022
  334POPC   C4A 8334  36.100  22.983   7.601
  334POPC   C1B 8335  35.886  23.315   8.675
  334POPC   C2B 8336  35.882  23.382   8.252
  334POPC   C3B 8337  35.855  23.370   7.802
  334POPC   C4B 8338  35.785  23.364   7.361
  335POPC   NC3 8339  38.269  41.424   9.585
  335POPC   PO4 8340  38.890  41.707   9.571
  335POPC   GL1 8341  38.626  41.647   9.200
  335POPC   GL2 8342  38.293  41.498   9.099
  335POPC   C1A 8343  38.661  41.677   8.767
  335POPC   D2A 8344  38.851  41.546   8.404
  335POPC   C3A 8345  38.692  41.641   8.007
  335POPC   C4A 8346  38.468  41.395   7.692
  335POPC   C1B 8347  38.249  41.336   8.715
  335POPC   C2B 8348  38.342  41.400   8.299
  335POPC   C3B 8349  38.165  41.694   7.994
  335POPC   C4B 8350  37.990  41.592   7.616
  336POPC   NC3 8351  16.637  10.873   9.637
  336POPC   PO4 8352  16.884  10.381   9.616
  336POPC   GL1 8353  16.834  10.639   9.187
  336POPC   GL2 8354  16.679  10.982   9.136
  336POPC   C1A 8355  16.857  10.679   8.703
  336POPC   D2A 8356  16.708  10.604   8.259
  336POPC   C3A 8357  16.926  10.707   7.850
  336POPC   C4A 8358  17.026  10.556   7.400
  336POPC   C1B 8359  16.455  11.020   8.741
  336POPC   C2B 8360  16.404  11.021   8.283
  336POPC   C3B 8361  16.464  10.981   7.829
  336POPC   C4B 8362  16.562  10.743   7.458
  337POPC   NC3 8363  13.945   9.360   9.613
  337POPC   PO4 8364  14.409   9.834   9.712
  337POPC   GL1 8365  14.171   9.812   9.278
  337POPC   GL2 8366  14.100   9.468   9.138
  337POPC   C1A 8367  14.211  10.041   8.854
  337POPC   D2A 8368  14.067   9.946   8.425
  337POPC   C3A 8369  14.288  10.028   8.009
  337POPC   C4A 8370  14.572   9.985   7.632
  337POPC   C1B 8371  14.293   9.557   8.731
  337POPC   C2B 8372  14.512   9.703   8.351
  337POPC   C3B 8373  14.471   9.554   7.926
  337POPC   C4B 8374  14.140   9.278   7.812
  338POPC   NC3 8375  42.703  33.747   9.473
  338POPC   PO4 8376  42.139  34.128   9.417
  338POPC   GL1 8377  42.351  33.876   9.140
  338POPC   GL2 8378  42.613  34.149   9.158
  338POPC   C1A 8379  42.338  33.605   8.772
  338POPC   D2A 8380  42.038  33.540   8.424
  338POPC   C3A 8381  42.259  33.575   8.040
  338POPC   C4A 8382  42.271  33.567   7.618
  338POPC   C1B 8383  42.597  34.047   8.733
  338POPC   C2B 8384  42.363  33.948   8.371
  338POPC   C3B 8385  42.545  34.021   7.963
  338POPC   C4B 8386  42.515  33.995   7.504
  339POPC   NC3 8387  26.444  12.394   9.235
  339POPC   PO4 8388  27.004  12.163   9.384
  339POPC   GL1 8389  26.760  12.048   9.021
  339POPC   GL2 8390  26.749  11.710   9.144
  339POPC   C1A 8391  26.756  12.083   8.558
  339POPC   D2A 8392  26.944  12.351   8.230
  339POPC   C3A 8393  26.809  12.263   7.791
  339POPC   C4A 8394  26.412  12.090   7.768
  339POPC   C1B 8395  26.951  11.618   8.756
  339POPC   C2B 8396  27.161  11.738   8.398
  339POPC   C3B 8397  26.911  11.858   8.066
  339POPC   C4B 8398  26.735  11.695   7.698
  340POPC   NC3 8399   1.592  16.510   9.376
  340POPC   PO4 8400   2.153  16.781   9.626
  340POPC   GL1 8401   2.045  16.713   9.167
  340POPC   GL2 8402   2.145  17.056   9.145
  340POPC   C1A 8403   1.826  16.576   8.734
  340POPC   D2A 8404   1.638  16.425   8.310
  340POPC   C3A 8405   1.893  16.540   7.927
  340POPC   C4A 8406   1.762  16.599   7.486
  340POPC   C1B 8407   2.142  16.980   8.709
  340POPC   C2B 8408   2.031  16.914   8.284
  340POPC   C3B 8409   2.220  17.117   7.936
  340POPC   C4B 8410   2.202  16.824   7.572
  341POPC   NC3 8411   0.796  18.601   9.515
  341POPC   PO4 8412   0.276  18.116   9.459
  341POPC   GL1 8413   0.605  18.228   9.235
  341POPC   GL2 8414   0.483  18.506   9.110
  341POPC   C1A 8415   0.729  18.174   8.816
  341POPC   D2A 8416   0.559  18.327   8.437
  341POPC   C3A 8417   0.534  18.036   8.122
  341POPC   C4A 8418   0.657  18.037   7.716
  341POPC   C1B 8419   0.214  18.261   8.828
  341POPC   C2B 8420   0.039  18.312   8.442
  341POPC   C3B 8421   0.163  18.438   8.056
  341POPC   C4B 8422   0.132  18.070   7.785
  342POPC   NC3 8423  13.400  13.658   9.532
  342POPC   PO4 8424  14.022  13.484   9.405
  342POPC   GL1 8425  13.783  13.767   9.105
  342POPC   GL2 8426  13.410  13.895   9.086
  342POPC   C1A 8427  13.791  13.638   8.685
  342POPC   D2A 8428  13.549  13.450   8.356
  342POPC   C3A 8429  13.780  13.579   8.000
  342POPC   C4A 8430  13.778  13.344   7.648
  342POPC   C1B 8431  13.309  13.789   8.670
  342POPC   C2B 8432  13.437  13.932   8.269
  342POPC   C3B 8433  13.296  13.711   7.900
  342POPC   C4B 8434  13.458  13.707   7.503
  343POPC   NC3 8435  32.742  19.701   9.582
  343POPC   PO4 8436  33.058  20.287   9.648
  343POPC   GL1 8437  33.027  20.054   9.206
  343POPC   GL2 8438  32.932  19.716   9.132
  343POPC   C1A 8439  33.092  19.939   8.732
  343POPC   D2A 8440  33.018  20.123   8.356
  343POPC   C3A 8441  32.829  20.098   7.944
  343POPC   C4A 8442  33.046  19.980   7.581
  343POPC   C1B 8443  32.829  19.454   8.822
  343POPC   C2B 8444  32.667  19.283   8.468
  343POPC   C3B 8445  32.847  19.301   8.063
  343POPC   C4B 8446  32.841  19.538   7.705
  344POPC   NC3 8447  40.343  38.285   9.457
  344POPC   PO4 8448  41.029  38.187   9.464
  344POPC   GL1 8449  40.919  38.330   9.095
  344POPC   GL2 8450  40.576  38.222   9.020
  344POPC   C1A 8451  40.920  38.413   8.678
  344POPC   D2A 8452  40.690  38.314   8.338
  344POPC   C3A 8453  40.951  38.484   8.073
  344POPC   C4A 8454  40.991  38.613   7.649
  344POPC   C1B 8455  40.427  38.556   8.742
  344POPC   C2B 8456  40.354  38.713   8.292
  344POPC   C3B 8457  40.511  38.675   7.863
  344POPC   C4B 8458  40.599  38.780   7.370
  345POPC   NC3 8459   5.258   1.742   9.740
  345POPC   PO4 8460   4.724   2.158   9.619
  345POPC   GL1 8461   4.946   2.105   9.241
  345POPC   GL2 8462   5.237   1.860   9.231
  345POPC   C1A 8463   4.965   2.133   8.799
  345POPC   D2A 8464   5.045   1.962   8.410
  345POPC   C3A 8465   4.814   2.071   8.092
  345POPC   C4A 8466   4.951   2.134   7.699
  345POPC   C1B 8467   5.238   1.680   8.799
  345POPC   C2B 8468   5.471   1.690   8.376
  345POPC   C3B 8469   5.304   1.841   7.947
  345POPC   C4B 8470   5.414   1.759   7.482
  346POPC   NC3 8471   1.089  23.036   9.591
  346POPC   PO4 8472   1.671  22.734   9.692
  346POPC   GL1 8473   1.425  22.956   9.222
  346POPC   GL2 8474   1.058  23.056   9.101
  346POPC   C1A 8475   1.281  22.843   8.732
  346POPC   D2A 8476   1.169  23.037   8.359
  346POPC   C3A 8477   0.913  22.871   8.040
  346POPC   C4A 8478   1.205  22.985   7.735
  346POPC   C1B 8479   0.767  23.118   8.743
  346POPC   C2B 8480   0.800  23.377   8.393
  346POPC   C3B 8481   0.951  23.385   7.986
  346POPC   C4B 8482   0.759  23.239   7.602
  347POPC   NC3 8483  43.412   4.195   9.197
  347POPC   PO4 8484  44.111   4.335   9.361
  347POPC   GL1 8485  43.881   4.321   9.016
  347POPC   GL2 8486  43.880   3.965   9.037
  347POPC   C1A 8487  43.633   4.510   8.664
  347POPC   D2A 8488  43.468   4.316   8.307
  347POPC   C3A 8489  43.713   4.348   7.914
  347POPC   C4A 8490  43.930   4.701   7.771
  347POPC   C1B 8491  43.798   3.996   8.590
  347POPC   C2B 8492  44.115   3.913   8.259
  347POPC   C3B 8493  44.276   3.936   7.859
  347POPC   C4B 8494  44.161   4.258   7.602
  348POPC   NC3 8495  42.956  40.651   9.541
  348POPC   PO4 8496  43.490  40.980   9.429
  348POPC   GL1 8497  43.280  40.796   9.082
  348POPC   GL2 8498  42.972  40.628   9.035
  348POPC   C1A 8499  43.333  40.731   8.648
  348POPC   D2A 8500  43.146  40.588   8.262
  348POPC   C3A 8501  42.985  40.898   7.975
  348POPC   C4A 8502  43.242  40.757   7.674
  348POPC   C1B 8503  42.812  40.755   8.617
  348POPC   C2B 8504  42.625  40.624   8.203
  348POPC   C3B 8505  42.808  40.452   7.821
  348POPC   C4B 8506  42.976  40.210   7.482
  349POPC   NC3 8507  42.776  15.566   9.446
  349POPC   PO4 8508  43.389  15.873   9.662
  349POPC   GL1 8509  43.305  15.950   9.227
  349POPC   GL2 8510  43.211  15.635   9.169
  349POPC   C1A 8511  43.116  16.009   8.797
  349POPC   D2A 8512  42.986  16.163   8.374
  349POPC   C3A 8513  43.283  16.079   8.020
  349POPC   C4A 8514  43.188  15.929   7.601
  349POPC   C1B 8515  42.952  15.516   8.800
  349POPC   C2B 8516  42.877  15.506   8.360
  349POPC   C3B 8517  42.857  15.802   8.007
  349POPC   C4B 8518  42.734  15.697   7.602
  350POPC   NC3 8519  39.605   7.843   9.415
  350POPC   PO4 8520  39.967   8.423   9.500
  350POPC   GL1 8521  40.232   8.424   9.148
  350POPC   GL2 8522  40.249   8.081   9.104
  350POPC   C1A 8523  40.111   8.543   8.759
  350POPC   D2A 8524  39.888   8.373   8.404
  350POPC   C3A 8525  40.110   8.233   8.036
  350POPC   C4A 8526  39.991   8.368   7.626
  350POPC   C1B 8527  40.042   8.000   8.722
  350POPC   C2B 8528  39.857   7.847   8.307
  350POPC   C3B 8529  39.747   7.936   7.860
  350POPC   C4B 8530  40.094   7.887   7.554
  351POPC   NC3 8531  12.829  43.291   9.414
  351POPC   PO4 8532  12.871  43.924   9.401
  351POPC   GL1 8533  13.083  43.786   9.011
  351POPC   GL2 8534  13.427  43.880   8.894
  351POPC   C1A 8535  13.085  43.563   8.612
  351POPC   D2A 8536  12.782  43.412   8.281
  351POPC   C3A 8537  12.696  43.721   7.917
  351POPC   C4A 8538  13.074  44.001   7.725
  351POPC   C1B 8539  13.164  44.070   8.566
  351POPC   C2B 8540  12.900  44.074   8.213
  351POPC   C3B 8541  12.648  44.241   7.853
  351POPC   C4B 8542  12.839  44.465   7.485
  352POPC   NC3 8543  27.960  11.232   9.567
  352POPC   PO4 8544  27.384  11.384   9.431
  352POPC   GL1 8545  27.676  11.406   9.122
  352POPC   GL2 8546  27.696  11.052   9.096
  352POPC   C1A 8547  27.636  11.610   8.706
  352POPC   D2A 8548  27.654  11.671   8.246
  352POPC   C3A 8549  27.586  11.276   8.041
  352POPC   C4A 8550  27.369  11.058   7.690
  352POPC   C1B 8551  27.885  11.156   8.711
  352POPC   C2B 8552  28.089  11.440   8.423
  352POPC   C3B 8553  28.112  11.317   8.020
  352POPC   C4B 8554  27.903  11.148   7.670
  353POPC   NC3 8555   5.951  44.117   9.504
  353POPC   PO4 8556   5.477  43.695   9.423
  353POPC   GL1 8557   5.817  43.754   9.120
  353POPC   GL2 8558   5.893  44.118   9.005
  353POPC   C1A 8559   5.993  43.701   8.698
  353POPC   D2A 8560   6.131  43.938   8.335
  353POPC   C3A 8561   6.000  43.741   7.956
  353POPC   C4A 8562   5.850  43.921   7.559
  353POPC   C1B 8563   5.577  43.992   8.739
  353POPC   C2B 8564   5.612  43.885   8.321
  353POPC   C3B 8565   5.626  44.109   7.967
  353POPC   C4B 8566   5.414  44.134   7.583
  354POPC   NC3 8567  31.420  16.263   9.458
  354POPC   PO4 8568  31.299  15.657   9.530
  354POPC   GL1 8569  31.461  15.801   9.161
  354POPC   GL2 8570  31.501  15.498   9.069
  354POPC   C1A 8571  31.336  15.773   8.698
  354POPC   D2A 8572  31.415  15.942   8.302
  354POPC   C3A 8573  31.285  15.820   7.900
  354POPC   C4A 8574  31.285  16.097   7.553
  354POPC   C1B 8575  31.785  15.470   8.739
  354POPC   C2B 8576  31.615  15.469   8.354
  354POPC   C3B 8577  31.737  15.563   7.966
  354POPC   C4B 8578  31.711  15.822   7.613
  355POPC   NC3 8579  18.845  18.498   9.439
  355POPC   PO4 8580  19.312  18.018   9.188
  355POPC   GL1 8581  19.076  18.162   8.902
  355POPC   GL2 8582  18.797  18.277   8.996
  355POPC   C1A 8583  19.124  18.177   8.475
  355POPC   D2A 8584  19.459  18.123   8.213
  355POPC   C3A 8585  19.267  17.938   7.915
  355POPC   C4A 8586  18.935  18.217   7.813
  355POPC   C1B 8587  18.854  18.578   8.660
  355POPC   C2B 8588  18.877  18.577   8.200
  355POPC   C3B 8589  18.658  18.637   7.807
  355POPC   C4B 8590  18.571  18.709   7.384
  356POPC   NC3 8591  43.055  28.666   9.672
  356POPC   PO4 8592  43.071  29.311   9.821
  356POPC   GL1 8593  43.071  29.242   9.241
  356POPC   GL2 8594  42.831  28.997   9.104
  356POPC   C1A 8595  43.296  29.062   8.832
  356POPC   D2A 8596  43.181  28.855   8.424
  356POPC   C3A 8597  43.276  29.059   8.022
  356POPC   C4A 8598  43.263  29.072   7.562
  356POPC   C1B 8599  42.820  29.283   8.725
  356POPC   C2B 8600  42.893  29.308   8.259
  356POPC   C3B 8601  42.824  29.250   7.806
  356POPC   C4B 8602  42.888  29.378   7.387
  357POPC   NC3 8603  31.318  21.172   9.525
  357POPC   PO4 8604  31.867  21.546   9.533
  357POPC   GL1 8605  31.467  21.525   9.192
  357POPC   GL2 8606  31.219  21.205   9.046
  357POPC   C1A 8607  31.322  21.604   8.771
  357POPC   D2A 8608  31.247  21.271   8.465
  357POPC   C3A 8609  31.493  21.325   8.085
  357POPC   C4A 8610  31.317  21.258   7.662
  357POPC   C1B 8611  31.630  21.178   8.870
  357POPC   C2B 8612  31.917  21.164   8.542
  357POPC   C3B 8613  32.001  21.086   8.132
  357POPC   C4B 8614  31.791  21.058   7.742
  358POPC   NC3 8615   6.660   0.963   9.445
  358POPC   PO4 8616   6.999   1.534   9.448
  358POPC   GL1 8617   6.884   1.315   9.092
  358POPC   GL2 8618   6.523   1.275   9.062
  358POPC   C1A 8619   6.885   1.358   8.644
  358POPC   D2A 8620   6.896   1.198   8.258
  358POPC   C3A 8621   6.749   1.406   7.892
  358POPC   C4A 8622   6.685   1.182   7.491
  358POPC   C1B 8623   6.456   1.057   8.660
  358POPC   C2B 8624   6.614   0.759   8.346
  358POPC   C3B 8625   6.600   0.918   7.939
  358POPC   C4B 8626   6.252   1.188   7.790
  359POPC   NC3 8627   5.589  14.801   9.301
  359POPC   PO4 8628   4.992  15.142   9.521
  359POPC   GL1 8629   4.947  15.360   9.158
  359POPC   GL2 8630   5.173  15.070   9.035
  359POPC   C1A 8631   4.926  15.388   8.725
  359POPC   D2A 8632   5.057  15.127   8.414
  359POPC   C3A 8633   5.341  15.215   8.075
  359POPC   C4A 8634   5.540  14.896   7.829
  359POPC   C1B 8635   4.738  14.937   8.890
  359POPC   C2B 8636   4.686  14.787   8.470
  359POPC   C3B 8637   4.719  15.016   8.051
  359POPC   C4B 8638   5.030  14.914   7.780
  360POPC   NC3 8639  12.428  42.519   9.309
  360POPC   PO4 8640  11.772  42.659   9.497
  360POPC   GL1 8641  11.751  42.472   9.045
  360POPC   GL2 8642  12.027  42.245   8.985
  360POPC   C1A 8643  11.746  42.401   8.596
  360POPC   D2A 8644  12.113  42.305   8.335
  360POPC   C3A 8645  11.995  42.398   7.916
  360POPC   C4A 8646  11.868  42.257   7.484
  360POPC   C1B 8647  12.415  42.135   8.735
  360POPC   C2B 8648  12.522  41.910   8.346
  360POPC   C3B 8649  12.429  42.101   7.970
  360POPC   C4B 8650  12.375  42.252   7.586
  361POPC   NC3 8651  21.311  35.402   9.798
  361POPC   PO4 8652  21.740  34.993   9.545
  361POPC   GL1 8653  21.455  35.231   9.285
  361POPC   GL2 8654  21.466  35.596   9.301
  361POPC   C1A 8655  21.416  35.184   8.846
  361POPC   D2A 8656  21.441  35.009   8.424
  361POPC   C3A 8657  21.536  35.232   8.081
  361POPC   C4A 8658  21.342  35.196   7.714
  361POPC   C1B 8659  21.221  35.649   8.929
  361POPC   C2B 8660  21.348  35.571   8.511
  361POPC   C3B 8661  21.372  35.727   8.120
  361POPC   C4B 8662  21.160  35.667   7.739
  362POPC   NC3 8663  43.382  36.298   9.374
  362POPC   PO4 8664  43.088  35.693   9.352
  362POPC   GL1 8665  43.204  35.900   9.059
  362POPC   GL2 8666  43.538  35.916   9.001
  362POPC   C1A 8667  43.179  35.757   8.654
  362POPC   D2A 8668  43.172  35.995   8.321
  362POPC   C3A 8669  43.176  35.738   8.004
  362POPC   C4A 8670  42.960  35.881   7.686
  362POPC   C1B 8671  43.359  36.246   8.725
  362POPC   C2B 8672  43.381  36.493   8.338
  362POPC   C3B 8673  43.402  36.292   7.967
  362POPC   C4B 8674  43.591  35.929   7.799
  363POPC   NC3 8675  14.373  43.658   9.566
  363POPC   PO4 8676  14.674  44.125   9.650
  363POPC   GL1 8677  14.629  43.899   9.194
  363POPC   GL2 8678  14.271  43.827   9.076
  363POPC   C1A 8679  14.628  43.731   8.733
  363POPC   D2A 8680  14.417  43.888   8.340
  363POPC   C3A 8681  14.343  43.727   7.908
  363POPC   C4A 8682  14.472  43.935   7.524
  363POPC   C1B 8683  14.017  43.935   8.693
  363POPC   C2B 8684  13.918  44.019   8.250
  363POPC   C3B 8685  14.139  44.177   7.873
  363POPC   C4B 8686  13.979  44.115   7.435
  364POPC   NC3 8687  13.088  38.967   9.462
  364POPC   PO4 8688  12.738  39.603   9.477
  364POPC   GL1 8689  12.996  39.416   9.190
  364POPC   GL2 8690  12.764  39.146   9.135
  364POPC   C1A 8691  13.157  39.266   8.806
  364POPC   D2A 8692  12.908  39.302   8.432
  364POPC   C3A 8693  13.039  39.160   8.093
  364POPC   C4A 8694  12.877  39.274   7.722
  364POPC   C1B 8695  12.576  39.298   8.825
  364POPC   C2B 8696  12.434  39.073   8.483
  364POPC   C3B 8697  12.514  39.194   8.078
  364POPC   C4B 8698  12.376  39.268   7.671
  365POPC   NC3 8699   2.180  20.732   9.505
  365POPC   PO4 8700   1.531  20.511   9.382
  365POPC   GL1 8701   1.970  20.477   9.116
  365POPC   GL2 8702   2.173  20.786   9.003
  365POPC   C1A 8703   2.155  20.344   8.725
  365POPC   D2A 8704   2.205  20.628   8.376
  365POPC   C3A 8705   2.155  20.394   8.004
  365POPC   C4A 8706   1.812  20.407   7.673
  365POPC   C1B 8707   1.834  20.765   8.729
  365POPC   C2B 8708   1.826  20.951   8.344
  365POPC   C3B 8709   1.910  20.835   7.930
  365POPC   C4B 8710   1.875  20.992   7.520
  366POPC   NC3 8711  24.720  29.852   9.505
  366POPC   PO4 8712  24.098  29.689   9.190
  366POPC   GL1 8713  24.480  29.824   9.045
  366POPC   GL2 8714  24.641  30.138   9.083
  366POPC   C1A 8715  24.592  29.863   8.648
  366POPC   D2A 8716  24.349  30.095   8.384
  366POPC   C3A 8717  24.246  29.860   8.040
  366POPC   C4A 8718  24.240  30.107   7.689
  366POPC   C1B 8719  24.840  30.331   8.741
  366POPC   C2B 8720  24.895  30.124   8.334
  366POPC   C3B 8721  24.715  30.026   7.963
  366POPC   C4B 8722  24.674  29.893   7.560
  367POPC   NC3 8723  38.918  10.057   9.433
  367POPC   PO4 8724  39.616  10.055   9.525
  367POPC   GL1 8725  39.513   9.809   9.101
  367POPC   GL2 8726  39.167   9.750   9.139
  367POPC   C1A 8727  39.357   9.610   8.704
  367POPC   D2A 8728  39.320   9.780   8.323
  367POPC   C3A 8729  39.294   9.541   7.969
  367POPC   C4A 8730  39.377   9.852   7.639
  367POPC   C1B 8731  38.865   9.812   8.803
  367POPC   C2B 8732  38.853   9.607   8.419
  367POPC   C3B 8733  38.865   9.821   8.033
  367POPC   C4B 8734  38.914   9.661   7.628
  368POPC   NC3 8735   7.503  25.822   9.460
  368POPC   PO4 8736   8.003  26.282   9.425
  368POPC   GL1 8737   7.648  26.166   9.137
  368POPC   GL2 8738   7.404  26.363   9.028
  368POPC   C1A 8739   7.465  25.890   8.813
  368POPC   D2A 8740   7.577  25.733   8.405
  368POPC   C3A 8741   7.572  25.941   8.013
  368POPC   C4A 8742   7.566  25.635   7.728
  368POPC   C1B 8743   7.113  26.282   8.729
  368POPC   C2B 8744   7.232  26.114   8.376
  368POPC   C3B 8745   7.060  26.191   7.958
  368POPC   C4B 8746   6.880  26.574   7.805
  369POPC   NC3 8747   1.087   9.358   9.688
  369POPC   PO4 8748   1.256   8.772   9.539
  369POPC   GL1 8749   1.437   8.760   9.112
  369POPC   GL2 8750   1.796   8.781   9.079
  369POPC   C1A 8751   1.482   8.983   8.701
  369POPC   D2A 8752   1.290   9.125   8.322
  369POPC   C3A 8753   1.433   8.989   7.912
  369POPC   C4A 8754   1.238   9.151   7.533
  369POPC   C1B 8755   1.649   8.511   8.724
  369POPC   C2B 8756   1.394   8.583   8.348
  369POPC   C3B 8757   1.434   8.457   7.902
  369POPC   C4B 8758   1.224   8.615   7.519
  370POPC   NC3 8759  44.081  18.512   9.895
  370POPC   PO4 8760  43.536  18.288   9.454
  370POPC   GL1 8761  43.713  18.255   9.097
  370POPC   GL2 8762  44.035  18.171   9.226
  370POPC   C1A 8763  43.552  18.352   8.714
  370POPC   D2A 8764  43.498  18.544   8.348
  370POPC   C3A 8765  43.599  18.324   8.000
  370POPC   C4A 8766  43.547  18.552   7.633
  370POPC   C1B 8767  44.153  18.315   8.799
  370POPC   C2B 8768  44.016  18.421   8.387
  370POPC   C3B 8769  44.225  18.417   8.010
  370POPC   C4B 8770  44.179  18.265   7.599
  371POPC   NC3 8771  16.477  42.624   9.633
  371POPC   PO4 8772  16.988  42.157   9.562
  371POPC   GL1 8773  16.844  42.154   9.177
  371POPC   GL2 8774  16.848  42.512   9.150
  371POPC   C1A 8775  16.811  41.889   8.830
  371POPC   D2A 8776  17.012  42.014   8.463
  371POPC   C3A 8777  16.780  42.011   8.130
  371POPC   C4A 8778  16.829  42.244   7.808
  371POPC   C1B 8779  16.784  42.406   8.718
  371POPC   C2B 8780  16.703  42.557   8.285
  371POPC   C3B 8781  16.565  42.655   7.870
  371POPC   C4B 8782  16.711  42.573   7.439
  372POPC   NC3 8783  27.847  28.146   9.760
  372POPC   PO4 8784  27.839  28.664   9.251
  372POPC   GL1 8785  27.744  28.468   8.865
  372POPC   GL2 8786  27.438  28.238   8.974
  372POPC   C1A 8787  27.712  28.078   8.606
  372POPC   D2A 8788  27.542  28.080   8.223
  372POPC   C3A 8789  27.776  28.402   8.027
  372POPC   C4A 8790  27.908  28.386   7.625
  372POPC   C1B 8791  27.299  28.628   8.741
  372POPC   C2B 8792  27.453  28.700   8.343
  372POPC   C3B 8793  27.266  28.523   7.966
  372POPC   C4B 8794  27.338  28.340   7.558
  373POPC   NC3 8795  32.010  42.284   9.497
  373POPC   PO4 8796  32.644  42.541   9.455
  373POPC   GL1 8797  32.515  42.461   9.052
  373POPC   GL2 8798  32.301  42.202   9.077
  373POPC   C1A 8799  32.498  42.395   8.605
  373POPC   D2A 8800  32.425  42.171   8.203
  373POPC   C3A 8801  32.226  42.435   7.913
  373POPC   C4A 8802  31.955  42.782   7.882
  373POPC   C1B 8803  32.239  41.978   8.727
  373POPC   C2B 8804  31.952  42.038   8.390
  373POPC   C3B 8805  31.957  42.007   7.973
  373POPC   C4B 8806  32.185  42.032   7.605
  374POPC   NC3 8807  28.546   5.299   9.612
  374POPC   PO4 8808  28.188   4.682   9.503
  374POPC   GL1 8809  28.355   4.968   9.233
  374POPC   GL2 8810  28.176   5.289   9.265
  374POPC   C1A 8811  28.254   4.962   8.811
  374POPC   D2A 8812  28.431   4.794   8.445
  374POPC   C3A 8813  28.372   4.994   8.064
  374POPC   C4A 8814  28.528   4.920   7.655
  374POPC   C1B 8815  28.460   5.423   8.923
  374POPC   C2B 8816  28.483   5.305   8.497
  374POPC   C3B 8817  28.651   5.412   8.111
  374POPC   C4B 8818  28.417   5.416   7.720
  375POPC   NC3 8819  44.526  41.760   9.640
  375POPC   PO4 8820  44.965  41.313   9.531
  375POPC   GL1 8821  44.692  41.389   9.149
  375POPC   GL2 8822  44.548  41.742   9.132
  375POPC   C1A 8823  44.673  41.447   8.687
  375POPC   D2A 8824  44.328  41.475   8.373
  375POPC   C3A 8825  44.428  41.605   7.956
  375POPC   C4A 8826  44.676  41.379   7.685
  375POPC   C1B 8827  44.436  41.889   8.708
  375POPC   C2B 8828  44.529  41.983   8.297
  375POPC   C3B 8829  44.577  42.112   7.874
  375POPC   C4B 8830  44.804  42.143   7.491
  376POPC   NC3 8831   7.333   8.832   9.464
  376POPC   PO4 8832   7.788   9.407   9.368
  376POPC   GL1 8833   7.461   9.211   9.098
  376POPC   GL2 8834   7.438   8.847   8.969
  376POPC   C1A 8835   7.525   9.243   8.643
  376POPC   D2A 8836   7.449   8.824   8.461
  376POPC   C3A 8837   7.393   8.833   8.047
  376POPC   C4A 8838   7.430   9.164   7.747
  376POPC   C1B 8839   7.063   9.101   8.772
  376POPC   C2B 8840   6.946   9.055   8.349
  376POPC   C3B 8841   6.894   8.821   7.955
  376POPC   C4B 8842   6.940   8.843   7.504
  377POPC   NC3 8843  30.445  10.746   9.559
  377POPC   PO4 8844  30.964  10.310   9.476
  377POPC   GL1 8845  30.784  10.545   9.205
  377POPC   GL2 8846  30.868  10.304   8.954
  377POPC   C1A 8847  30.596  10.747   8.871
  377POPC   D2A 8848  30.516  10.810   8.453
  377POPC   C3A 8849  30.667  10.561   8.138
  377POPC   C4A 8850  30.676  10.750   7.743
  377POPC   C1B 8851  30.585  10.293   8.605
  377POPC   C2B 8852  30.426  10.085   8.251
  377POPC   C3B 8853  30.584  10.010   7.878
  377POPC   C4B 8854  30.847  10.285   7.677
  378POPC   NC3 8855  32.568  35.999   9.544
  378POPC   PO4 8856  33.283  36.176   9.498
  378POPC   GL1 8857  33.027  36.128   9.144
  378POPC   GL2 8858  32.709  36.274   9.113
  378POPC   C1A 8859  33.163  36.230   8.710
  378POPC   D2A 8860  33.409  36.306   8.382
  378POPC   C3A 8861  33.326  36.056   8.029
  378POPC   C4A 8862  33.351  36.195   7.627
  378POPC   C1B 8863  32.717  35.997   8.743
  378POPC   C2B 8864  32.756  36.164   8.326
  378POPC   C3B 8865  32.729  36.414   7.965
  378POPC   C4B 8866  32.856  36.042   7.782
  379POPC   NC3 8867  17.134  37.815   9.383
  379POPC   PO4 8868  17.827  37.586   9.601
  379POPC   GL1 8869  17.627  37.635   9.228
  379POPC   GL2 8870  17.653  37.969   9.157
  379POPC   C1A 8871  17.448  37.588   8.827
  379POPC   D2A 8872  17.583  37.438   8.449
  379POPC   C3A 8873  17.305  37.447   8.120
  379POPC   C4A 8874  17.468  37.481   7.738
  379POPC   C1B 8875  17.449  38.104   8.818
  379POPC   C2B 8876  17.576  37.954   8.447
  379POPC   C3B 8877  17.714  37.807   8.081
  379POPC   C4B 8878  17.563  38.020   7.772
  380POPC   NC3 8879  33.047  37.080   9.380
  380POPC   PO4 8880  33.063  37.748   9.491
  380POPC   GL1 8881  32.922  37.862   9.066
  380POPC   GL2 8882  33.266  37.977   9.032
  380POPC   C1A 8883  32.711  37.724   8.650
  380POPC   D2A 8884  32.676  37.588   8.191
  380POPC   C3A 8885  32.865  37.848   7.830
  380POPC   C4A 8886  33.295  38.070   7.769
  380POPC   C1B 8887  33.196  37.534   8.808
  380POPC   C2B 8888  33.112  37.386   8.384
  380POPC   C3B 8889  33.159  37.459   7.932
  380POPC   C4B 8890  33.282  37.489   7.463
  381POPC   NC3 8891  35.206  41.371   9.542
  381POPC   PO4 8892  35.612  41.910   9.469
  381POPC   GL1 8893  35.389  41.825   9.101
  381POPC   GL2 8894  35.345  41.465   9.075
  381POPC   C1A 8895  35.492  41.728   8.683
  381POPC   D2A 8896  35.383  41.466   8.379
  381POPC   C3A 8897  35.612  41.540   8.025
  381POPC   C4A 8898  35.555  41.607   7.607
  381POPC   C1B 8899  35.160  41.175   8.774
  381POPC   C2B 8900  34.935  41.234   8.376
  381POPC   C3B 8901  35.107  41.357   7.964
  381POPC   C4B 8902  35.056  41.085   7.652
  382POPC   NC3 8903  37.862  35.563   9.498
  382POPC   PO4 8904  38.046  34.895   9.461
  382POPC   GL1 8905  37.810  35.089   9.089
  382POPC   GL2 8906  37.700  35.428   9.054
  382POPC   C1A 8907  37.747  35.182   8.639
  382POPC   D2A 8908  37.563  35.027   8.305
  382POPC   C3A 8909  37.753  35.171   7.947
  382POPC   C4A 8910  37.940  34.981   7.603
  382POPC   C1B 8911  37.430  35.604   8.763
  382POPC   C2B 8912  37.442  35.735   8.351
  382POPC   C3B 8913  37.223  35.753   8.004
  382POPC   C4B 8914  37.309  35.390   7.780
  383POPC   NC3 8915  25.472  27.698   9.686
  383POPC   PO4 8916  24.892  27.548   9.413
  383POPC   GL1 8917  25.227  27.651   9.132
  383POPC   GL2 8918  25.577  27.682   9.158
  383POPC   C1A 8919  25.221  27.563   8.709
  383POPC   D2A 8920  25.125  27.897   8.448
  383POPC   C3A 8921  25.056  27.679   8.095
  383POPC   C4A 8922  25.143  27.772   7.703
  383POPC   C1B 8923  25.575  27.922   8.781
  383POPC   C2B 8924  25.620  28.084   8.366
  383POPC   C3B 8925  25.566  27.871   7.965
  383POPC   C4B 8926  25.649  27.821   7.504
  384POPC   NC3 8927  39.070  18.914   9.568
  384POPC   PO4 8928  39.528  19.341   9.614
  384POPC   GL1 8929  39.334  19.120   9.184
  384POPC   GL2 8930  39.428  18.758   9.172
  384POPC   C1A 8931  39.083  18.883   8.795
  384POPC   D2A 8932  39.170  18.809   8.337
  384POPC   C3A 8933  39.029  19.218   8.140
  384POPC   C4A 8934  38.896  19.305   7.711
  384POPC   C1B 8935  39.578  18.957   8.751
  384POPC   C2B 8936  39.510  19.191   8.353
  384POPC   C3B 8937  39.460  19.031   7.927
  384POPC   C4B 8938  39.722  18.705   7.821
  385POPC   NC3 8939  29.643  31.020   9.562
  385POPC   PO4 8940  30.001  30.433   9.649
  385POPC   GL1 8941  29.898  30.590   9.222
  385POPC   GL2 8942  29.938  30.950   9.150
  385POPC   C1A 8943  29.784  30.610   8.771
  385POPC   D2A 8944  29.651  30.814   8.380
  385POPC   C3A 8945  29.789  30.546   8.047
  385POPC   C4A 8946  29.964  30.604   7.633
  385POPC   C1B 8947  29.893  31.105   8.744
  385POPC   C2B 8948  30.093  31.217   8.384
  385POPC   C3B 8949  30.016  31.004   8.020
  385POPC   C4B 8950  29.758  31.068   7.698
  386POPC   NC3 8951   5.398  33.267   9.795
  386POPC   PO4 8952   4.990  33.768   9.588
  386POPC   GL1 8953   4.922  33.783   9.167
  386POPC   GL2 8954   5.267  33.778   9.136
  386POPC   C1A 8955   4.958  33.750   8.719
  386POPC   D2A 8956   5.118  33.983   8.385
  386POPC   C3A 8957   5.018  33.798   7.997
  386POPC   C4A 8958   5.042  34.010   7.618
  386POPC   C1B 8959   5.461  33.688   8.752
  386POPC   C2B 8960   5.345  33.518   8.388
  386POPC   C3B 8961   5.494  33.640   8.011
  386POPC   C4B 8962   5.314  33.567   7.621
  387POPC   NC3 8963  13.797  17.171   9.402
  387POPC   PO4 8964  13.833  16.476   9.424
  387POPC   GL1 8965  13.732  16.765   9.100
  387POPC   GL2 8966  13.396  16.914   9.127
  387POPC   C1A 8967  13.887  16.904   8.736
  387POPC   D2A 8968  13.779  16.705   8.396
  387POPC   C3A 8969  13.938  16.856   8.055
  387POPC   C4A 8970  13.897  16.783   7.655
  387POPC   C1B 8971  13.355  16.889   8.652
  387POPC   C2B 8972  13.447  17.047   8.198
  387POPC   C3B 8973  13.368  16.990   7.740
  387POPC   C4B 8974  13.166  16.965   7.305
  388POPC   NC3 8975  43.803   5.639   9.494
  388POPC   PO4 8976  44.183   6.085   9.536
  388POPC   GL1 8977  43.900   6.015   9.160
  388POPC   GL2 8978  43.647   6.223   9.067
  388POPC   C1A 8979  43.802   5.789   8.749
  388POPC   D2A 8980  44.088   5.842   8.367
  388POPC   C3A 8981  44.056   5.624   7.971
  388POPC   C4A 8982  43.695   5.591   7.764
  388POPC   C1B 8983  43.919   6.278   8.708
  388POPC   C2B 8984  43.777   6.239   8.305
  388POPC   C3B 8985  43.891   6.118   7.902
  388POPC   C4B 8986  44.149   6.055   7.546
  389POPC   NC3 8987  37.450   0.843   9.416
  389POPC   PO4 8988  37.962   0.437   9.390
  389POPC   GL1 8989  37.554   0.372   9.217
  389POPC   GL2 8990  37.502   0.003   9.221
  389POPC   C1A 8991  37.385   0.516   8.810
  389POPC   D2A 8992  37.623   0.439   8.419
  389POPC   C3A 8993  37.678   0.576   7.968
  389POPC   C4A 8994  37.392   0.635   7.634
  389POPC   C1B 8995  37.697   0.086   8.824
  389POPC   C2B 8996  37.703  44.915   8.444
  389POPC   C3B 8997  37.605   0.081   8.053
  389POPC   C4B 8998  37.704   0.182   7.643
  390POPC   NC3 8999  35.296   5.825   9.639
  390POPC   PO4 9000  35.727   6.329   9.509
  390POPC   GL1 9001  35.363   6.126   9.205
  390POPC   GL2 9002  35.315   5.772   9.142
  390POPC   C1A 9003  35.179   6.044   8.746
  390POPC   D2A 9004  35.148   5.738   8.380
  390POPC   C3A 9005  35.175   5.880   7.957
  390POPC   C4A 9006  35.158   6.132   7.561
  390POPC   C1B 9007  35.483   5.625   8.751
  390POPC   C2B 9008  35.514   5.344   8.398
  390POPC   C3B 9009  35.649   5.438   7.981
  390POPC   C4B 9010  35.639   5.325   7.566
  391POPC   NC3 9011  34.676  34.840   9.561
  391POPC   PO4 9012  34.206  34.454   9.617
  391POPC   GL1 9013  34.390  34.384   9.177
  391POPC   GL2 9014  34.714  34.567   9.124
  391POPC   C1A 9015  34.495  34.373   8.721
  391POPC   D2A 9016  34.738  34.591   8.436
  391POPC   C3A 9017  34.465  34.674   8.129
  391POPC   C4A 9018  34.500  34.603   7.733
  391POPC   C1B 9019  34.651  34.922   8.830
  391POPC   C2B 9020  34.889  35.084   8.464
  391POPC   C3B 9021  34.895  34.952   8.039
  391POPC   C4B 9022  34.928  34.864   7.596
  392POPC   NC3 9023  41.355   7.956   9.644
  392POPC   PO4 9024  41.522   7.290   9.609
  392POPC   GL1 9025  41.676   7.610   9.325
  392POPC   GL2 9026  41.353   7.706   9.208
  392POPC   C1A 9027  41.791   7.727   8.893
  392POPC   D2A 9028  41.982   7.513   8.534
  392POPC   C3A 9029  41.790   7.633   8.131
  392POPC   C4A 9030  41.670   7.464   7.739
  392POPC   C1B 9031  41.377   7.423   8.892
  392POPC   C2B 9032  41.481   7.368   8.456
  392POPC   C3B 9033  41.248   7.478   8.085
  392POPC   C4B 9034  41.182   7.421   7.637
  393POPC   NC3 9035  41.731  35.186   9.514
  393POPC   PO4 9036  41.048  35.383   9.684
  393POPC   GL1 9037  41.291  35.165   9.257
  393POPC   GL2 9038  41.476  34.887   9.175
  393POPC   C1A 9039  41.480  35.273   8.829
  393POPC   D2A 9040  41.395  35.373   8.408
  393POPC   C3A 9041  41.632  35.581   8.114
  393POPC   C4A 9042  41.464  35.440   7.742
  393POPC   C1B 9043  41.863  34.949   8.893
  393POPC   C2B 9044  41.843  35.142   8.477
  393POPC   C3B 9045  41.719  35.045   8.067
  393POPC   C4B 9046  41.892  35.166   7.689
  394POPC   NC3 9047   6.660  19.242   9.425
  394POPC   PO4 9048   6.489  18.672   9.762
  394POPC   GL1 9049   6.656  18.740   9.276
  394POPC   GL2 9050   6.986  18.911   9.201
  394POPC   C1A 9051   6.653  18.892   8.786
  394POPC   D2A 9052   6.364  19.054   8.426
  394POPC   C3A 9053   6.438  19.188   7.992
  394POPC   C4A 9054   6.657  19.095   7.583
  394POPC   C1B 9055   7.067  19.194   8.833
  394POPC   C2B 9056   6.859  19.278   8.438
  394POPC   C3B 9057   6.960  19.230   7.994
  394POPC   C4B 9058   7.124  19.368   7.610
  395POPC   NC3 9059  26.906  31.697   9.400
  395POPC   PO4 9060  26.479  31.115   9.311
  395POPC   GL1 9061  26.581  31.450   9.103
  395POPC   GL2 9062  26.939  31.415   8.983
  395POPC   C1A 9063  26.594  31.697   8.752
  395POPC   D2A 9064  26.823  31.562   8.419
  395POPC   C3A 9065  26.639  31.315   8.119
  395POPC   C4A 9066  26.845  31.262   7.740
  395POPC   C1B 9067  27.120  31.802   8.781
  395POPC   C2B 9068  27.093  32.015   8.384
  395POPC   C3B 9069  27.006  31.803   7.976
  395POPC   C4B 9070  26.639  31.721   7.788
  396POPC   NC3 9071  33.351  31.140   9.478
  396POPC   PO4 9072  33.014  31.785   9.377
  396POPC   GL1 9073  33.009  31.664   9.011
  396POPC   GL2 9074  33.171  31.374   9.072
  396POPC   C1A 9075  32.785  31.667   8.637
  396POPC   D2A 9076  32.817  31.410   8.257
  396POPC   C3A 9077  32.806  31.648   7.910
  396POPC   C4A 9078  32.929  31.646   7.478
  396POPC   C1B 9079  32.955  31.207   8.757
  396POPC   C2B 9080  33.035  30.975   8.416
  396POPC   C3B 9081  33.157  31.030   7.986
  396POPC   C4B 9082  32.871  31.164   7.690
  397POPC   NC3 9083   0.909   1.167   9.334
  397POPC   PO4 9084   0.334   1.081   9.707
  397POPC   GL1 9085   0.343   0.972   9.278
  397POPC   GL2 9086   0.441   1.272   9.208
  397POPC   C1A 9087   0.442   0.962   8.803
  397POPC   D2A 9088   0.315   1.241   8.434
  397POPC   C3A 9089   0.311   1.152   7.986
  397POPC   C4A 9090   0.539   0.990   7.632
  397POPC   C1B 9091   0.544   1.477   8.833
  397POPC   C2B 9092   0.742   1.562   8.463
  397POPC   C3B 9093   0.696   1.471   8.057
  397POPC   C4B 9094   0.551   1.526   7.643
  398POPC   NC3 9095  21.488  31.138   9.402
  398POPC   PO4 9096  21.339  31.800   9.412
  398POPC   GL1 9097  21.154  31.653   9.013
  398POPC   GL2 9098  21.260  31.314   9.004
  398POPC   C1A 9099  21.255  31.540   8.554
  398POPC   D2A 9100  21.607  31.588   8.273
  398POPC   C3A 9101  21.484  31.594   7.846
  398POPC   C4A 9102  21.579  31.455   7.451
  398POPC   C1B 9103  21.302  31.049   8.702
  398POPC   C2B 9104  21.508  31.097   8.370
  398POPC   C3B 9105  21.644  31.137   8.023
  398POPC   C4B 9106  21.372  31.087   7.710
  399POPC   NC3 9107  34.083  26.258   9.387
  399POPC   PO4 9108  33.511  26.023   9.614
  399POPC   GL1 9109  33.703  25.953   9.194
  399POPC   GL2 9110  33.481  25.823   8.985
  399POPC   C1A 9111  33.827  26.163   8.781
  399POPC   D2A 9112  33.950  26.039   8.370
  399POPC   C3A 9113  33.932  26.321   8.056
  399POPC   C4A 9114  33.976  26.147   7.694
  399POPC   C1B 9115  33.649  25.715   8.640
  399POPC   C2B 9116  33.459  25.913   8.336
  399POPC   C3B 9117  33.556  25.966   7.945
  399POPC   C4B 9118  33.614  25.792   7.565
  400POPC   NC3 9119  31.956  30.774   9.413
  400POPC   PO4 9120  32.390  30.262   9.569
  400POPC   GL1 9121  32.484  30.443   9.153
  400POPC   GL2 9122  32.345  30.763   9.094
  400POPC   C1A 9123  32.266  30.420   8.725
  400POPC   D2A 9124  32.175  30.608   8.316
  400POPC   C3A 9125  32.362  30.354   8.024
  400POPC   C4A 9126  32.583  30.400   7.638
  400POPC   C1B 9127  32.112  30.912   8.718
  400POPC   C2B 9128  32.057  31.170   8.359
  400POPC   C3B 9129  31.961  30.967   8.009
  400POPC   C4B 9130  32.141  30.688   7.720
  401POPC   NC3 9131   1.718  27.523   9.475
  401POPC   PO4 9132   2.247  27.176   9.578
  401POPC   GL1 9133   2.151  27.344   9.132
  401POPC   GL2 9134   2.015  27.716   9.108
  401POPC   C1A 9135   1.936  27.419   8.710
  401POPC   D2A 9136   1.664  27.471   8.329
  401POPC   C3A 9137   1.863  27.434   7.921
  401POPC   C4A 9138   2.304  27.364   7.854
  401POPC   C1B 9139   1.927  27.921   8.688
  401POPC   C2B 9140   2.138  27.682   8.320
  401POPC   C3B 9141   2.114  27.859   7.931
  401POPC   C4B 9142   2.326  27.790   7.563
  402POPC   NC3 9143   7.410   7.783   9.332
  402POPC   PO4 9144   7.271   7.077   9.504
  402POPC   GL1 9145   7.427   7.299   9.175
  402POPC   GL2 9146   7.771   7.228   9.138
  402POPC   C1A 9147   7.287   7.505   8.793
  402POPC   D2A 9148   7.173   7.747   8.452
  402POPC   C3A 9149   7.492   7.834   8.183
  402POPC   C4A 9150   7.343   7.829   7.774
  402POPC   C1B 9151   7.771   7.356   8.712
  402POPC   C2B 9152   7.507   7.329   8.375
  402POPC   C3B 9153   7.213   7.403   8.062
  402POPC   C4B 9154   7.488   7.335   7.739
  403POPC   NC3 9155  12.244  15.668   9.744
  403POPC   PO4 9156  11.776  16.008   9.687
  403POPC   GL1 9157  11.985  15.990   9.260
  403POPC   GL2 9158  12.347  16.075   9.209
  403POPC   C1A 9159  11.984  16.072   8.783
  403POPC   D2A 9160  12.188  15.976   8.366
  403POPC   C3A 9161  12.032  15.916   7.918
  403POPC   C4A 9162  12.118  15.724   7.503
  403POPC   C1B 9163  12.488  16.269   8.795
  403POPC   C2B 9164  12.490  16.384   8.346
  403POPC   C3B 9165  12.161  16.408   8.009
  403POPC   C4B 9166  12.004  16.616   7.608
  404POPC   NC3 9167  25.536   5.293   9.481
  404POPC   PO4 9168  25.103   4.773   9.668
  404POPC   GL1 9169  25.240   4.785   9.220
  404POPC   GL2 9170  25.322   5.118   9.040
  404POPC   C1A 9171  25.196   4.701   8.762
  404POPC   D2A 9172  25.042   4.744   8.324
  404POPC   C3A 9173  25.385   4.880   8.040
  404POPC   C4A 9174  25.510   5.188   7.737
  404POPC   C1B 9175  25.668   5.395   8.847
  404POPC   C2B 9176  25.869   5.445   8.455
  404POPC   C3B 9177  25.655   5.531   8.077
  404POPC   C4B 9178  25.591   5.715   7.666
  405POPC   NC3 9179   1.816  20.148   9.449
  405POPC   PO4 9180   1.850  19.558   9.711
  405POPC   GL1 9181   1.960  19.775   9.162
  405POPC   GL2 9182   2.200  19.986   9.093
  405POPC   C1A 9183   1.788  19.870   8.718
  405POPC   D2A 9184   1.854  20.125   8.321
  405POPC   C3A 9185   1.844  19.926   7.870
  405POPC   C4A 9186   1.824  19.987   7.365
  405POPC   C1B 9187   2.270  19.707   8.721
  405POPC   C2B 9188   2.154  19.691   8.290
  405POPC   C3B 9189   2.319  19.624   7.891
  405POPC   C4B 9190   2.161  19.614   7.465
  406POPC   NC3 9191   9.183  23.870   9.446
  406POPC   PO4 9192   8.495  23.654   9.282
  406POPC   GL1 9193   8.836  23.528   9.041
  406POPC   GL2 9194   9.139  23.466   9.169
  406POPC   C1A 9195   9.004  23.764   8.721
  406POPC   D2A 9196   8.831  23.985   8.399
  406POPC   C3A 9197   9.070  24.114   8.092
  406POPC   C4A 9198   8.936  24.153   7.691
  406POPC   C1B 9199   9.347  23.408   8.800
  406POPC   C2B 9200   9.291  23.261   8.393
  406POPC   C3B 9201   9.273  23.440   8.042
  406POPC   C4B 9202   9.197  23.736   7.789
  407POPC   NC3 9203  32.294  27.781   9.472
  407POPC   PO4 9204  31.728  27.759   9.634
  407POPC   GL1 9205  31.911  27.800   9.154
  407POPC   GL2 9206  32.126  27.492   9.075
  407POPC   C1A 9207  31.939  27.781   8.689
  407POPC   D2A 9208  32.100  27.359   8.524
  407POPC   C3A 9209  32.312  27.314   8.128
  407POPC   C4A 9210  32.158  27.182   7.716
  407POPC   C1B 9211  32.428  27.672   8.774
  407POPC   C2B 9212  32.557  27.761   8.334
  407POPC   C3B 9213  32.459  27.740   7.878
  407POPC   C4B 9214  32.423  27.546   7.465
  408POPC   NC3 9215  20.109  19.516   9.606
  408POPC   PO4 9216  19.758  20.078   9.580
  408POPC   GL1 9217  19.937  19.938   9.187
  408POPC   GL2 9218  19.764  19.614   9.190
  408POPC   C1A 9219  19.842  20.005   8.728
  408POPC   D2A 9220  19.768  20.183   8.316
  408POPC   C3A 9221  19.678  19.904   7.983
  408POPC   C4A 9222  19.439  19.775   7.605
  408POPC   C1B 9223  19.924  19.518   8.793
  408POPC   C2B 9224  19.803  19.524   8.354
  408POPC   C3B 9225  19.489  19.430   8.046
  408POPC   C4B 9226  19.831  19.467   7.748
  409POPC   NC3 9227   2.924  43.212   9.599
  409POPC   PO4 9228   3.269  42.766   9.241
  409POPC   GL1 9229   3.031  43.107   9.099
  409POPC   GL2 9230   2.657  43.133   9.165
  409POPC   C1A 9231   2.873  43.103   8.702
  409POPC   D2A 9232   2.666  42.999   8.383
  409POPC   C3A 9233   2.900  43.185   8.103
  409POPC   C4A 9234   2.827  43.081   7.701
  409POPC   C1B 9235   2.567  43.466   8.860
  409POPC   C2B 9236   2.580  43.524   8.385
  409POPC   C3B 9237   2.415  43.291   8.013
  409POPC   C4B 9238   2.426  43.365   7.568
  410POPC   NC3 9239  34.045  17.433   9.452
  410POPC   PO4 9240  33.383  17.346   9.360
  410POPC   GL1 9241  33.651  17.473   9.080
  410POPC   GL2 9242  33.841  17.739   9.089
  410POPC   C1A 9243  33.768  17.312   8.722
  410POPC   D2A 9244  33.698  17.148   8.357
  410POPC   C3A 9245  33.894  17.268   7.982
  410POPC   C4A 9246  33.774  17.351   7.548
  410POPC   C1B 9247  33.890  17.800   8.705
  410POPC   C2B 9248  34.044  17.583   8.369
  410POPC   C3B 9249  33.916  17.804   8.041
  410POPC   C4B 9250  33.800  17.854   7.643
  411POPC   NC3 9251  39.544   9.566   9.534
  411POPC   PO4 9252  39.403   8.932   9.447
  411POPC   GL1 9253  39.121   9.230   9.262
  411POPC   GL2 9254  39.402   9.309   9.106
  411POPC   C1A 9255  38.912   9.306   8.850
  411POPC   D2A 9256  38.904   9.049   8.475
  411POPC   C3A 9257  39.061   9.077   8.059
  411POPC   C4A 9258  39.175   8.701   7.848
  411POPC   C1B 9259  39.347   9.048   8.783
  411POPC   C2B 9260  39.436   9.190   8.410
  411POPC   C3B 9261  39.582   8.961   8.120
  411POPC   C4B 9262  39.533   9.110   7.790
  412POPC   NC3 9263  20.650  18.685   9.474
  412POPC   PO4 9264  20.435  19.224   9.755
  412POPC   GL1 9265  20.528  19.135   9.254
  412POPC   GL2 9266  20.823  19.350   9.069
  412POPC   C1A 9267  20.437  19.189   8.784
  412POPC   D2A 9268  20.375  19.341   8.327
  412POPC   C3A 9269  20.500  19.036   8.016
  412POPC   C4A 9270  20.885  18.889   7.892
  412POPC   C1B 9271  20.790  19.498   8.614
  412POPC   C2B 9272  20.899  19.309   8.213
  412POPC   C3B 9273  20.740  19.413   7.793
  412POPC   C4B 9274  20.757  19.313   7.351
  413POPC   NC3 9275  40.598  35.136   9.763
  413POPC   PO4 9276  40.617  34.486   9.586
  413POPC   GL1 9277  40.582  34.400   9.166
  413POPC   GL2 9278  40.870  34.224   9.103
  413POPC   C1A 9279  40.468  34.387   8.728
  413POPC   D2A 9280  40.471  34.785   8.460
  413POPC   C3A 9281  40.671  34.725   8.058
  413POPC   C4A 9282  40.676  34.317   7.865
  413POPC   C1B 9283  40.932  34.571   8.800
  413POPC   C2B 9284  40.885  34.402   8.402
  413POPC   C3B 9285  41.161  34.273   8.111
  413POPC   C4B 9286  41.194  34.449   7.744
  414POPC   NC3 9287  22.835  43.526   9.374
  414POPC   PO4 9288  22.569  44.147   9.438
  414POPC   GL1 9289  22.816  43.969   9.096
  414POPC   GL2 9290  23.140  44.102   9.043
  414POPC   C1A 9291  22.797  44.130   8.679
  414POPC   D2A 9292  22.545  44.117   8.330
  414POPC   C3A 9293  22.763  44.033   7.980
  414POPC   C4A 9294  22.868  43.799   7.613
  414POPC   C1B 9295  23.268  43.943   8.679
  414POPC   C2B 9296  23.196  44.123   8.282
  414POPC   C3B 9297  23.265  43.984   7.862
  414POPC   C4B 9298  23.260  44.041   7.405
  415POPC   NC3 9299  12.329  27.603   9.403
  415POPC   PO4 9300  11.782  27.443   9.528
  415POPC   GL1 9301  11.962  27.436   9.097
  415POPC   GL2 9302  12.124  27.140   9.183
  415POPC   C1A 9303  12.312  27.553   8.733
  415POPC   D2A 9304  12.453  27.578   8.266
  415POPC   C3A 9305  12.122  27.780   8.002
  415POPC   C4A 9306  11.724  27.783   7.750
  415POPC   C1B 9307  12.034  27.141   8.703
  415POPC   C2B 9308  12.064  27.235   8.247
  415POPC   C3B 9309  12.117  27.308   7.792
  415POPC   C4B 9310  12.343  27.281   7.403
  416POPC   NC3 9311  27.676   4.807   9.583
  416POPC   PO4 9312  27.641   5.451   9.399
  416POPC   GL1 9313  27.502   5.074   9.182
  416POPC   GL2 9314  27.825   4.950   9.127
  416POPC   C1A 9315  27.434   4.917   8.756
  416POPC   D2A 9316  27.362   5.295   8.508
  416POPC   C3A 9317  27.471   5.299   8.069
  416POPC   C4A 9318  27.253   5.410   7.704
  416POPC   C1B 9319  27.833   5.239   8.794
  416POPC   C2B 9320  27.936   5.148   8.372
  416POPC   C3B 9321  27.881   5.010   7.934
  416POPC   C4B 9322  28.085   4.673   7.728
  417POPC   NC3 9323  43.664  22.624   9.505
  417POPC   PO4 9324  44.151  23.042   9.558
  417POPC   GL1 9325  43.832  22.985   9.178
  417POPC   GL2 9326  43.617  22.694   9.007
  417POPC   C1A 9327  43.660  23.246   8.847
  417POPC   D2A 9328  43.926  23.276   8.495
  417POPC   C3A 9329  43.833  23.314   8.108
  417POPC   C4A 9330  43.708  23.150   7.767
  417POPC   C1B 9331  43.734  22.807   8.586
  417POPC   C2B 9332  43.817  22.778   8.127
  417POPC   C3B 9333  43.969  22.709   7.685
  417POPC   C4B 9334  44.174  22.735   7.251
  418POPC   NC3 9335  24.006  17.586   9.578
  418POPC   PO4 9336  23.398  17.491   9.326
  418POPC   GL1 9337  23.802  17.459   9.118
  418POPC   GL2 9338  23.982  17.810   9.132
  418POPC   C1A 9339  23.766  17.269   8.702
  418POPC   D2A 9340  23.601  17.433   8.304
  418POPC   C3A 9341  23.547  17.145   7.943
  418POPC   C4A 9342  23.845  16.989   7.635
  418POPC   C1B 9343  23.753  17.801   8.743
  418POPC   C2B 9344  23.920  17.900   8.348
  418POPC   C3B 9345  23.877  17.718   7.960
  418POPC   C4B 9346  23.744  17.492   7.636
  419POPC   NC3 9347  18.644  38.837   9.365
  419POPC   PO4 9348  19.224  38.358   9.454
  419POPC   GL1 9349  19.031  38.409   9.114
  419POPC   GL2 9350  19.073  38.740   9.098
  419POPC   C1A 9351  18.941  38.205   8.744
  419POPC   D2A 9352  19.109  38.449   8.449
  419POPC   C3A 9353  18.899  38.547   8.094
  419POPC   C4A 9354  18.999  38.314   7.752
  419POPC   C1B 9355  19.394  38.765   8.766
  419POPC   C2B 9356  19.570  38.700   8.346
  419POPC   C3B 9357  19.507  38.946   7.974
  419POPC   C4B 9358  19.281  38.937   7.604
  420POPC   NC3 9359   0.770  34.751   9.385
  420POPC   PO4 9360   0.230  35.102   9.603
  420POPC   GL1 9361   0.180  34.935   9.152
  420POPC   GL2 9362   0.360  34.625   9.126
  420POPC   C1A 9363   0.034  34.731   8.751
  420POPC   D2A 9364   0.033  34.450   8.396
  420POPC   C3A 9365   0.214  34.560   7.980
  420POPC   C4A 9366   0.585  34.720   7.746
  420POPC   C1B 9367   0.460  34.422   8.732
  420POPC   C2B 9368   0.792  34.399   8.420
  420POPC   C3B 9369   0.734  34.314   7.984
  420POPC   C4B 9370   0.445  34.118   7.730
  421POPC   NC3 9371   6.769  11.966   9.523
  421POPC   PO4 9372   7.464  11.992   9.573
  421POPC   GL1 9373   7.313  12.034   9.138
  421POPC   GL2 9374   7.015  11.843   9.094
  421POPC   C1A 9375   7.543  11.947   8.732
  421POPC   D2A 9376   7.726  11.989   8.340
  421POPC   C3A 9377   7.532  12.045   7.932
  421POPC   C4A 9378   7.347  11.980   7.511
  421POPC   C1B 9379   7.096  11.727   8.670
  421POPC   C2B 9380   7.184  11.834   8.241
  421POPC   C3B 9381   7.281  11.611   7.848
  421POPC   C4B 9382   7.261  11.518   7.345
  422POPC   NC3 9383  22.129  44.112   9.629
  422POPC   PO4 9384  22.319  43.450   9.674
  422POPC   GL1 9385  22.372  43.720   9.217
  422POPC   GL2 9386  22.060  43.939   9.117
  422POPC   C1A 9387  22.379  43.863   8.746
  422POPC   D2A 9388  22.058  44.123   8.470
  422POPC   C3A 9389  22.120  44.093   8.009
  422POPC   C4A 9390  22.394  44.006   7.630
  422POPC   C1B 9391  21.989  43.555   8.793
  422POPC   C2B 9392  22.122  43.321   8.415
  422POPC   C3B 9393  22.304  43.581   8.098
  422POPC   C4B 9394  22.033  43.665   7.755
  423POPC   NC3 9395  26.573   7.457   9.327
  423POPC   PO4 9396  25.994   7.258   9.561
  423POPC   GL1 9397  26.062   7.293   9.159
  423POPC   GL2 9398  26.133   7.639   9.171
  423POPC   C1A 9399  26.069   7.105   8.781
  423POPC   D2A 9400  25.849   7.201   8.426
  423POPC   C3A 9401  26.062   7.160   8.032
  423POPC   C4A 9402  25.981   7.321   7.651
  423POPC   C1B 9403  26.282   7.575   8.737
  423POPC   C2B 9404  26.191   7.571   8.308
  423POPC   C3B 9405  26.397   7.672   7.917
  423POPC   C4B 9406  26.427   7.551   7.498
  424POPC   NC3 9407  34.171  21.157   9.825
  424POPC   PO4 9408  34.655  21.450   9.470
  424POPC   GL1 9409  34.378  21.542   9.137
  424POPC   GL2 9410  34.150  21.310   9.317
  424POPC   C1A 9411  34.455  21.473   8.681
  424POPC   D2A 9412  34.599  21.253   8.331
  424POPC   C3A 9413  34.627  21.541   7.999
  424POPC   C4A 9414  34.335  21.634   7.685
  424POPC   C1B 9415  34.103  21.160   8.907
  424POPC   C2B 9416  34.153  21.074   8.509
  424POPC   C3B 9417  34.201  20.920   8.112
  424POPC   C4B 9418  34.443  21.125   7.818
  425POPC   NC3 9419  21.977  30.531   9.454
  425POPC   PO4 9420  22.520  30.894   9.578
  425POPC   GL1 9421  22.307  30.871   9.174
  425POPC   GL2 9422  21.942  30.959   9.172
  425POPC   C1A 9423  22.227  30.695   8.757
  425POPC   D2A 9424  22.420  30.773   8.348
  425POPC   C3A 9425  22.395  30.463   8.013
  425POPC   C4A 9426  22.296  30.592   7.566
  425POPC   C1B 9427  21.819  30.996   8.752
  425POPC   C2B 9428  21.890  30.747   8.345
  425POPC   C3B 9429  22.067  30.860   7.962
  425POPC   C4B 9430  21.857  30.952   7.611
  426POPC   NC3 9431  33.917   9.262   9.557
  426POPC   PO4 9432  33.607   9.895   9.515
  426POPC   GL1 9433  33.769   9.660   9.161
  426POPC   GL2 9434  33.567   9.388   9.118
  426POPC   C1A 9435  33.727   9.769   8.706
  426POPC   D2A 9436  33.450   9.834   8.330
  426POPC   C3A 9437  33.661   9.918   7.948
  426POPC   C4A 9438  34.088   9.827   7.884
  426POPC   C1B 9439  33.696   9.253   8.729
  426POPC   C2B 9440  33.544   9.173   8.343
  426POPC   C3B 9441  33.708   9.409   8.023
  426POPC   C4B 9442  33.917   9.273   7.688
  427POPC   NC3 9443  39.265  31.937   9.538
  427POPC   PO4 9444  39.125  31.213   9.490
  427POPC   GL1 9445  39.123  31.398   9.076
  427POPC   GL2 9446  39.314  31.668   9.091
  427POPC   C1A 9447  39.189  31.394   8.629
  427POPC   D2A 9448  39.457  31.183   8.333
  427POPC   C3A 9449  39.301  31.320   7.921
  427POPC   C4A 9450  38.950  31.600   7.788
  427POPC   C1B 9451  39.364  31.869   8.682
  427POPC   C2B 9452  39.150  31.952   8.287
  427POPC   C3B 9453  39.383  31.823   7.966
  427POPC   C4B 9454  39.451  31.735   7.555
  428POPC   NC3 9455   0.471  23.427   9.783
  428POPC   PO4 9456   0.254  23.940   9.304
  428POPC   GL1 9457   0.601  23.767   9.109
  428POPC   GL2 9458   0.699  23.409   9.166
  428POPC   C1A 9459   0.527  23.693   8.678
  428POPC   D2A 9460   0.230  23.713   8.353
  428POPC   C3A 9461   0.261  24.035   7.999
  428POPC   C4A 9462   0.177  23.895   7.543
  428POPC   C1B 9463   1.001  23.576   8.840
  428POPC   C2B 9464   0.988  23.867   8.478
  428POPC   C3B 9465   0.701  23.802   8.134
  428POPC   C4B 9466   0.627  23.741   7.703
  429POPC   NC3 9467   4.060   8.861   9.910
  429POPC   PO4 9468   3.846   9.368   9.635
  429POPC   GL1 9469   3.885   9.247   9.169
  429POPC   GL2 9470   3.548   9.154   9.038
  429POPC   C1A 9471   3.933   9.088   8.720
  429POPC   D2A 9472   4.154   9.169   8.350
  429POPC   C3A 9473   3.919   9.053   7.961
  429POPC   C4A 9474   3.653   9.066   7.562
  429POPC   C1B 9475   3.417   9.101   8.593
  429POPC   C2B 9476   3.433   8.986   8.140
  429POPC   C3B 9477   3.194   8.909   7.766
  429POPC   C4B 9478   3.276   8.811   7.316
  430POPC   NC3 9479  32.305  32.448   9.661
  430POPC   PO4 9480  32.332  31.812   9.441
  430POPC   GL1 9481  32.136  32.081   9.130
  430POPC   GL2 9482  32.295  32.414   9.122
  430POPC   C1A 9483  31.989  32.277   8.725
  430POPC   D2A 9484  31.957  32.056   8.325
  430POPC   C3A 9485  32.258  32.052   7.998
  430POPC   C4A 9486  32.166  32.081   7.569
  430POPC   C1B 9487  32.361  32.641   8.724
  430POPC   C2B 9488  32.275  32.501   8.280
  430POPC   C3B 9489  32.213  32.541   7.822
  430POPC   C4B 9490  32.362  32.509   7.394
  431POPC   NC3 9491  20.964  27.033   9.737
  431POPC   PO4 9492  20.513  26.546   9.609
  431POPC   GL1 9493  20.815  26.695   9.226
  431POPC   GL2 9494  20.957  27.058   9.215
  431POPC   C1A 9495  20.805  26.697   8.732
  431POPC   D2A 9496  20.551  26.717   8.337
  431POPC   C3A 9497  20.738  26.668   7.906
  431POPC   C4A 9498  20.910  26.625   7.506
  431POPC   C1B 9499  20.600  27.131   8.926
  431POPC   C2B 9500  20.634  27.238   8.480
  431POPC   C3B 9501  20.526  27.143   8.056
  431POPC   C4B 9502  20.781  27.142   7.699
  432POPC   NC3 9503  15.495  39.686   9.509
  432POPC   PO4 9504  14.899  40.091   9.361
  432POPC   GL1 9505  15.160  39.941   9.020
  432POPC   GL2 9506  15.480  39.951   9.079
  432POPC   C1A 9507  15.228  39.911   8.555
  432POPC   D2A 9508  14.961  40.233   8.347
  432POPC   C3A 9509  14.753  40.142   7.992
  432POPC   C4A 9510  14.924  39.972   7.632
  432POPC   C1B 9511  15.672  39.708   8.754
  432POPC   C2B 9512  15.622  39.562   8.328
  432POPC   C3B 9513  15.456  39.791   7.975
  432POPC   C4B 9514  15.485  39.764   7.522
  433POPC   NC3 9515  31.749  43.243   9.603
  433POPC   PO4 9516  31.172  43.074   9.849
  433POPC   GL1 9517  31.291  43.006   9.356
  433POPC   GL2 9518  31.564  43.182   9.109
  433POPC   C1A 9519  31.179  42.947   8.866
  433POPC   D2A 9520  31.503  43.018   8.527
  433POPC   C3A 9521  31.498  42.946   8.069
  433POPC   C4A 9522  31.364  43.112   7.679
  433POPC   C1B 9523  31.925  43.207   8.762
  433POPC   C2B 9524  31.943  43.128   8.283
  433POPC   C3B 9525  31.794  43.338   7.902
  433POPC   C4B 9526  31.741  43.391   7.444
  434POPC   NC3 9527  37.085  14.665   9.403
  434POPC   PO4 9528  36.764  14.053   9.480
  434POPC   GL1 9529  36.836  14.308   9.147
  434POPC   GL2 9530  36.637  14.585   9.047
  434POPC   C1A 9531  36.789  14.163   8.762
  434POPC   D2A 9532  36.655  14.306   8.412
  434POPC   C3A 9533  36.790  13.997   8.161
  434POPC   C4A 9534  36.983  14.191   7.845
  434POPC   C1B 9535  36.940  14.642   8.734
  434POPC   C2B 9536  36.896  14.834   8.363
  434POPC   C3B 9537  36.829  14.667   7.974
  434POPC   C4B 9538  37.080  14.701   7.578
  435POPC   NC3 9539  31.725  15.455   9.525
  435POPC   PO4 9540  31.303  14.907   9.580
  435POPC   GL1 9541  31.443  15.009   9.168
  435POPC   GL2 9542  31.737  15.062   9.052
  435POPC   C1A 9543  31.423  15.110   8.690
  435POPC   D2A 9544  31.203  15.005   8.357
  435POPC   C3A 9545  31.365  15.163   8.019
  435POPC   C4A 9546  31.411  15.358   7.638
  435POPC   C1B 9547  31.927  14.959   8.682
  435POPC   C2B 9548  31.777  14.988   8.271
  435POPC   C3B 9549  31.817  15.039   7.836
  435POPC   C4B 9550  31.939  15.367   7.539
  436POPC   NC3 9551  41.372  15.705   9.682
  436POPC   PO4 9552  40.746  15.792   9.373
  436POPC   GL1 9553  40.716  15.947   8.954
  436POPC   GL2 9554  40.566  16.290   8.986
  436POPC   C1A 9555  41.009  15.907   8.567
  436POPC   D2A 9556  41.365  15.853   8.263
  436POPC   C3A 9557  41.163  15.854   7.872
  436POPC   C4A 9558  41.090  15.991   7.438
  436POPC   C1B 9559  40.576  16.179   8.518
  436POPC   C2B 9560  40.569  15.747   8.297
  436POPC   C3B 9561  40.656  15.800   7.868
  436POPC   C4B 9562  40.757  16.213   7.761
  437POPC   NC3 9563  13.651  38.393   9.552
  437POPC   PO4 9564  13.265  37.762   9.520
  437POPC   GL1 9565  13.454  38.079   9.208
  437POPC   GL2 9566  13.799  38.163   9.094
  437POPC   C1A 9567  13.349  38.070   8.782
  437POPC   D2A 9568  13.594  38.220   8.405
  437POPC   C3A 9569  13.461  38.313   7.975
  437POPC   C4A 9570  13.465  38.313   7.517
  437POPC   C1B 9571  13.642  38.523   8.836
  437POPC   C2B 9572  13.789  38.728   8.467
  437POPC   C3B 9573  13.954  38.524   8.094
  437POPC   C4B 9574  13.846  38.618   7.666
  438POPC   NC3 9575  23.946  25.355   9.392
  438POPC   PO4 9576  23.287  25.052   9.489
  438POPC   GL1 9577  23.517  25.207   9.165
  438POPC   GL2 9578  23.832  25.024   9.037
  438POPC   C1A 9579  23.566  25.401   8.800
  438POPC   D2A 9580  23.575  25.126   8.504
  438POPC   C3A 9581  23.493  25.360   8.185
  438POPC   C4A 9582  23.476  25.397   7.784
  438POPC   C1B 9583  24.055  25.273   8.737
  438POPC   C2B 9584  24.052  25.114   8.329
  438POPC   C3B 9585  23.797  24.903   8.064
  438POPC   C4B 9586  23.931  25.165   7.731
  439POPC   NC3 9587  42.200  29.676   9.440
  439POPC   PO4 9588  41.534  29.898   9.512
  439POPC   GL1 9589  41.500  29.983   9.108
  439POPC   GL2 9590  41.177  29.977   9.084
  439POPC   C1A 9591  41.652  30.095   8.728
  439POPC   D2A 9592  41.761  30.222   8.320
  439POPC   C3A 9593  41.686  29.892   8.005
  439POPC   C4A 9594  41.763  29.943   7.545
  439POPC   C1B 9595  41.171  29.823   8.708
  439POPC   C2B 9596  41.286  30.025   8.358
  439POPC   C3B 9597  41.090  30.064   7.996
  439POPC   C4B 9598  41.268  29.966   7.638
  440POPC   NC3 9599  35.781  40.583   9.332
  440POPC   PO4 9600  35.527  41.065   9.664
  440POPC   GL1 9601  35.501  40.984   9.200
  440POPC   GL2 9602  35.759  41.167   9.091
  440POPC   C1A 9603  35.478  40.754   8.754
  440POPC   D2A 9604  35.294  40.868   8.359
  440POPC   C3A 9605  35.238  40.592   8.008
  440POPC   C4A 9606  34.925  40.604   7.643
  440POPC   C1B 9607  35.668  41.210   8.708
  440POPC   C2B 9608  35.733  41.084   8.283
  440POPC   C3B 9609  35.496  41.042   7.885
  440POPC   C4B 9610  35.487  41.138   7.401
  441POPC   NC3 9611  14.198  11.268   9.574
  441POPC   PO4 9612  14.743  11.283   9.205
  441POPC   GL1 9613  14.365  11.305   9.026
  441POPC   GL2 9614  14.110  11.067   9.048
  441POPC   C1A 9615  14.458  11.335   8.579
  441POPC   D2A 9616  14.791  11.285   8.310
  441POPC   C3A 9617  14.576  11.441   7.979
  441POPC   C4A 9618  14.264  11.414   7.675
  441POPC   C1B 9619  13.965  11.271   8.692
  441POPC   C2B 9620  14.031  11.279   8.263
  441POPC   C3B 9621  14.277  11.045   8.054
  441POPC   C4B 9622  14.263  10.899   7.646
  442POPC   NC3 9623  12.479  24.665   9.455
  442POPC   PO4 9624  11.870  24.399   9.435
  442POPC   GL1 9625  12.194  24.378   9.131
  442POPC   GL2 9626  12.264  24.707   8.965
  442POPC   C1A 9627  12.102  24.294   8.724
  442POPC   D2A 9628  12.126  24.528   8.372
  442POPC   C3A 9629  12.027  24.302   8.015
  442POPC   C4A 9630  12.121  24.338   7.589
  442POPC   C1B 9631  11.806  24.688   8.774
  442POPC   C2B 9632  11.621  24.566   8.360
  442POPC   C3B 9633  11.689  24.778   7.966
  442POPC   C4B 9634  11.390  25.072   7.784
  443POPC   NC3 9635  44.421  15.369   9.682
  443POPC   PO4 9636   0.036  15.673   9.420
  443POPC   GL1 9637  44.794  15.354   9.133
  443POPC   GL2 9638  44.478  15.162   9.194
  443POPC   C1A 9639  44.736  15.203   8.709
  443POPC   D2A 9640  44.891  14.970   8.339
  443POPC   C3A 9641   0.001  15.149   7.961
  443POPC   C4A 9642  44.824  15.409   7.715
  443POPC   C1B 9643  44.322  15.459   8.911
  443POPC   C2B 9644  44.363  15.519   8.488
  443POPC   C3B 9645  44.554  15.382   8.131
  443POPC   C4B 9646  44.472  15.045   7.814
  444POPC   NC3 9647  33.998  30.734   9.421
  444POPC   PO4 9648  33.333  30.579   9.462
  444POPC   GL1 9649  33.601  30.524   9.153
  444POPC   GL2 9650  33.648  30.880   9.082
  444POPC   C1A 9651  33.807  30.391   8.800
  444POPC   D2A 9652  33.762  30.570   8.389
  444POPC   C3A 9653  33.989  30.811   8.087
  444POPC   C4A 9654  34.022  30.480   7.785
  444POPC   C1B 9655  33.458  31.099   8.754
  444POPC   C2B 9656  33.534  31.036   8.339
  444POPC   C3B 9657  33.670  31.181   7.966
  444POPC   C4B 9658  33.844  31.001   7.617
  445POPC   NC3 9659  17.071  39.471   9.506
  445POPC   PO4 9660  17.716  39.357   9.500
  445POPC   GL1 9661  17.521  39.388   9.122
  445POPC   GL2 9662  17.464  39.741   9.153
  445POPC   C1A 9663  17.623  39.454   8.665
  445POPC   D2A 9664  17.573  39.461   8.184
  445POPC   C3A 9665  17.350  39.112   7.994
  445POPC   C4A 9666  17.623  38.770   7.848
  445POPC   C1B 9667  17.156  39.634   8.835
  445POPC   C2B 9668  17.098  39.437   8.443
  445POPC   C3B 9669  17.092  39.604   8.043
  445POPC   C4B 9670  17.134  39.474   7.636
  446POPC   NC3 9671  31.009  43.426   9.591
  446POPC   PO4 9672  30.550  42.918   9.529
  446POPC   GL1 9673  30.665  43.296   9.187
  446POPC   GL2 9674  31.031  43.367   9.103
  446POPC   C1A 9675  30.730  43.387   8.698
  446POPC   D2A 9676  30.800  43.108   8.365
  446POPC   C3A 9677  30.581  43.084   7.967
  446POPC   C4A 9678  30.867  42.946   7.673
  446POPC   C1B 9679  31.255  43.434   8.732
  446POPC   C2B 9680  31.232  43.391   8.287
  446POPC   C3B 9681  30.998  43.360   7.945
  446POPC   C4B 9682  30.886  43.574   7.578
  447POPC   NC3 9683   8.342  25.963   9.438
  447POPC   PO4 9684   8.706  25.493   9.187
  447POPC   GL1 9685   8.277  25.687   9.015
  447POPC   GL2 9686   8.132  26.055   8.983
  447POPC   C1A 9687   8.052  25.759   8.597
  447POPC   D2A 9688   8.330  25.882   8.265
  447POPC   C3A 9689   8.152  26.000   7.896
  447POPC   C4A 9690   8.077  25.763   7.554
  447POPC   C1B 9691   7.814  26.243   8.670
  447POPC   C2B 9692   7.649  26.384   8.268
  447POPC   C3B 9693   7.828  26.394   7.851
  447POPC   C4B 9694   7.897  26.204   7.416
  448POPC   NC3 9695   7.771   6.031   9.222
  448POPC   PO4 9696   8.439   6.026   9.325
  448POPC   GL1 9697   8.208   5.801   9.012
  448POPC   GL2 9698   7.951   5.910   8.765
  448POPC   C1A 9699   8.276   5.549   8.656
  448POPC   D2A 9700   8.456   5.696   8.298
  448POPC   C3A 9701   8.155   5.857   8.056
  448POPC   C4A 9702   8.019   5.547   7.760
  448POPC   C1B 9703   8.380   6.091   8.619
  448POPC   C2B 9704   8.594   6.214   8.224
  448POPC   C3B 9705   8.505   6.201   7.778
  448POPC   C4B 9706   8.178   5.978   7.531
  449POPC   NC3 9707   5.349  27.449   9.507
  449POPC   PO4 9708   5.301  28.067   9.495
  449POPC   GL1 9709   5.255  27.826   9.101
  449POPC   GL2 9710   5.120  27.465   9.070
  449POPC   C1A 9711   5.026  27.744   8.666
  449POPC   D2A 9712   5.108  27.522   8.265
  449POPC   C3A 9713   5.196  27.746   7.874
  449POPC   C4A 9714   5.086  28.124   7.688
  449POPC   C1B 9715   4.870  27.240   8.770
  449POPC   C2B 9716   4.719  27.193   8.353
  449POPC   C3B 9717   4.755  27.393   7.920
  449POPC   C4B 9718   4.784  27.395   7.440
  450POPC   NC3 9719  31.191  30.553   9.520
  450POPC   PO4 9720  31.573  31.072   9.496
  450POPC   GL1 9721  31.294  30.890   9.149
  450POPC   GL2 9722  31.541  30.644   9.111
  450POPC   C1A 9723  31.257  30.709   8.690
  450POPC   D2A 9724  31.110  31.028   8.376
  450POPC   C3A 9725  31.272  30.925   7.976
  450POPC   C4A 9726  31.192  30.493   7.988
  450POPC   C1B 9727  31.742  30.547   8.720
  450POPC   C2B 9728  31.645  30.670   8.289
  450POPC   C3B 9729  31.680  30.532   7.859
  450POPC   C4B 9730  31.773  30.532   7.384
  451POPC   NC3 9731  26.560  26.486   9.526
  451POPC   PO4 9732  26.864  27.168   9.598
  451POPC   GL1 9733  26.990  26.975   9.200
  451POPC   GL2 9734  26.872  26.643   9.160
  451POPC   C1A 9735  26.900  26.976   8.730
  451POPC   D2A 9736  26.628  27.022   8.323
  451POPC   C3A 9737  26.915  26.965   7.970
  451POPC   C4A 9738  26.966  26.993   7.525
  451POPC   C1B 9739  26.672  26.517   8.774
  451POPC   C2B 9740  26.855  26.571   8.351
  451POPC   C3B 9741  26.581  26.582   8.004
  451POPC   C4B 9742  26.763  26.503   7.638
  452POPC   NC3 9743  22.752  17.098   9.580
  452POPC   PO4 9744  23.168  16.523   9.423
  452POPC   GL1 9745  22.803  16.524   9.148
  452POPC   GL2 9746  22.737  16.848   9.117
  452POPC   C1A 9747  22.642  16.553   8.725
  452POPC   D2A 9748  22.901  16.615   8.375
  452POPC   C3A 9749  22.760  16.705   7.981
  452POPC   C4A 9750  23.006  16.497   7.683
  452POPC   C1B 9751  22.928  16.993   8.720
  452POPC   C2B 9752  22.973  17.244   8.322
  452POPC   C3B 9753  23.044  17.149   7.922
  452POPC   C4B 9754  22.920  16.974   7.548
  453POPC   NC3 9755  38.808  30.871   9.550
  453POPC   PO4 9756  38.205  30.816   9.438
  453POPC   GL1 9757  38.493  30.726   9.103
  453POPC   GL2 9758  38.720  30.452   9.129
  453POPC   C1A 9759  38.508  30.681   8.659
  453POPC   D2A 9760  38.488  30.918   8.270
  453POPC   C3A 9761  38.398  30.650   7.902
  453POPC   C4A 9762  38.427  30.677   7.437
  453POPC   C1B 9763  38.985  30.492   8.758
  453POPC   C2B 9764  38.939  30.569   8.318
  453POPC   C3B 9765  38.926  30.490   7.880
  453POPC   C4B 9766  38.641  30.268   7.638
  454POPC   NC3 9767  39.178  44.261   9.505
  454POPC   PO4 9768  39.202  43.623   9.499
  454POPC   GL1 9769  39.139  43.910   9.132
  454POPC   GL2 9770  39.398  44.209   9.049
  454POPC   C1A 9771  39.170  43.879   8.699
  454POPC   D2A 9772  39.274  44.096   8.360
  454POPC   C3A 9773  39.060  43.934   8.035
  454POPC   C4A 9774  38.907  43.531   7.934
  454POPC   C1B 9775  39.629  43.863   8.941
  454POPC   C2B 9776  39.697  43.786   8.520
  454POPC   C3B 9777  39.655  43.838   8.088
  454POPC   C4B 9778  39.411  43.729   7.733
  455POPC   NC3 9779  34.613  16.398   9.312
  455POPC   PO4 9780  34.276  16.999   9.505
  455POPC   GL1 9781  34.404  16.812   9.143
  455POPC   GL2 9782  34.742  16.791   9.047
  455POPC   C1A 9783  34.339  16.563   8.751
  455POPC   D2A 9784  34.540  16.540   8.372
  455POPC   C3A 9785  34.368  16.542   7.986
  455POPC   C4A 9786  34.321  16.944   7.821
  455POPC   C1B 9787  34.773  16.902   8.660
  455POPC   C2B 9788  35.003  16.758   8.316
  455POPC   C3B 9789  34.857  16.834   7.931
  455POPC   C4B 9790  34.837  16.460   7.744
  456POPC   NC3 9791   4.276   2.267   9.471
  456POPC   PO4 9792   4.393   1.634   9.595
  456POPC   GL1 9793   4.459   1.874   9.155
  456POPC   GL2 9794   4.156   2.106   9.011
  456POPC   C1A 9795   4.488   1.967   8.669
  456POPC   D2A 9796   4.162   2.141   8.410
  456POPC   C3A 9797   4.268   2.008   8.027
  456POPC   C4A 9798   4.571   1.799   7.747
  456POPC   C1B 9799   4.358   2.450   8.764
  456POPC   C2B 9800   4.605   2.438   8.380
  456POPC   C3B 9801   4.728   2.550   7.965
  456POPC   C4B 9802   4.458   2.332   7.700
  457POPC   NC3 9803  21.663  36.253   9.406
  457POPC   PO4 9804  21.197  35.824   9.668
  457POPC   GL1 9805  21.232  36.072   9.236
  457POPC   GL2 9806  21.560  36.008   8.995
  457POPC   C1A 9807  21.190  36.319   8.833
  457POPC   D2A 9808  21.323  36.115   8.468
  457POPC   C3A 9809  21.200  36.219   8.052
  457POPC   C4A 9810  21.467  36.069   7.727
  457POPC   C1B 9811  21.746  36.350   8.775
  457POPC   C2B 9812  21.800  36.345   8.370
  457POPC   C3B 9813  21.664  36.454   7.992
  457POPC   C4B 9814  21.847  36.529   7.631
  458POPC   NC3 9815  18.694   2.103   9.533
  458POPC   PO4 9816  19.281   1.850   9.418
  458POPC   GL1 9817  19.120   2.218   9.208
  458POPC   GL2 9818  18.831   2.023   9.073
  458POPC   C1A 9819  19.002   2.408   8.804
  458POPC   D2A 9820  18.686   2.269   8.511
  458POPC   C3A 9821  18.797   2.282   8.074
  458POPC   C4A 9822  18.787   2.442   7.652
  458POPC   C1B 9823  19.006   1.886   8.739
  458POPC   C2B 9824  19.109   1.979   8.357
  458POPC   C3B 9825  19.092   1.845   7.960
  458POPC   C4B 9826  19.477   1.728   7.784
  459POPC   NC3 9827  33.252  21.497   9.600
  459POPC   PO4 9828  33.031  20.972   9.263
  459POPC   GL1 9829  32.942  21.395   9.204
  459POPC   GL2 9830  33.246  21.546   9.052
  459POPC   C1A 9831  32.806  21.439   8.809
  459POPC   D2A 9832  32.947  21.326   8.411
  459POPC   C3A 9833  32.760  21.220   8.025
  459POPC   C4A 9834  33.074  21.075   7.739
  459POPC   C1B 9835  33.427  21.677   8.648
  459POPC   C2B 9836  33.271  21.679   8.217
  459POPC   C3B 9837  33.359  21.489   7.779
  459POPC   C4B 9838  33.397  21.729   7.354
  460POPC   NC3 9839  39.870   1.657   9.558
  460POPC   PO4 9840  40.305   2.056   9.630
  460POPC   GL1 9841  40.183   1.899   9.203
  460POPC   GL2 9842  39.981   2.164   9.066
  460POPC   C1A 9843  40.058   1.753   8.775
  460POPC   D2A 9844  40.019   1.954   8.363
  460POPC   C3A 9845  40.247   1.910   7.979
  460POPC   C4A 9846  39.999   1.796   7.632
  460POPC   C1B 9847  39.665   2.110   8.729
  460POPC   C2B 9848  39.553   2.137   8.279
  460POPC   C3B 9849  39.825   2.220   7.908
  460POPC   C4B 9850  39.966   2.270   7.448
  461POPC   NC3 9851  15.946  40.577   9.557
  461POPC   PO4 9852  15.588  41.103   9.463
  461POPC   GL1 9853  15.718  40.784   9.140
  461POPC   GL2 9854  16.094  40.697   9.064
  461POPC   C1A 9855  15.733  40.722   8.701
  461POPC   D2A 9856  15.990  40.869   8.401
  461POPC   C3A 9857  15.827  40.774   8.022
  461POPC   C4A 9858  15.910  40.934   7.595
  461POPC   C1B 9859  16.184  40.472   8.656
  461POPC   C2B 9860  16.173  40.440   8.198
  461POPC   C3B 9861  16.125  40.492   7.733
  461POPC   C4B 9862  16.244  40.387   7.306
  462POPC   NC3 9863  32.147  40.349   9.538
  462POPC   PO4 9864  32.497  40.905   9.448
  462POPC   GL1 9865  32.226  40.832   9.123
  462POPC   GL2 9866  32.064  41.122   9.001
  462POPC   C1A 9867  32.407  40.836   8.722
  462POPC   D2A 9868  32.636  40.672   8.411
  462POPC   C3A 9869  32.471  40.683   8.004
  462POPC   C4A 9870  32.658  40.736   7.633
  462POPC   C1B 9871  32.097  41.205   8.575
  462POPC   C2B 9872  32.278  41.130   8.196
  462POPC   C3B 9873  32.340  41.129   7.771
  462POPC   C4B 9874  32.231  40.872   7.424
  463POPC   NC3 9875   0.731  43.819   9.332
  463POPC   PO4 9876   0.157  44.110   9.420
  463POPC   GL1 9877   0.372  44.084   9.042
  463POPC   GL2 9878   0.693  44.273   9.079
  463POPC   C1A 9879   0.326  43.729   8.746
  463POPC   D2A 9880   0.164  43.635   8.338
  463POPC   C3A 9881   0.261  44.050   8.141
  463POPC   C4A 9882   0.481  44.178   7.780
  463POPC   C1B 9883   0.833  44.016   8.717
  463POPC   C2B 9884   0.663  43.806   8.350
  463POPC   C3B 9885   0.561  43.676   7.917
  463POPC   C4B 9886   0.789  43.838   7.526
  464POPC   NC3 9887  10.590   8.547   9.482
  464POPC   PO4 9888  10.934   9.151   9.570
  464POPC   GL1 9889  10.760   8.945   9.199
  464POPC   GL2 9890  10.390   8.895   9.162
  464POPC   C1A 9891  10.734   8.727   8.819
  464POPC   D2A 9892  10.759   8.968   8.457
  464POPC   C3A 9893  10.857   8.779   8.083
  464POPC   C4A 9894  10.905   8.961   7.717
  464POPC   C1B 9895  10.217   8.761   8.734
  464POPC   C2B 9896  10.231   8.891   8.274
  464POPC   C3B 9897  10.394   8.763   7.859
  464POPC   C4B 9898  10.201   8.667   7.436
  465POPC   NC3 9899  16.527   0.768   9.439
  465POPC   PO4 9900  16.809   1.274   9.824
  465POPC   GL1 9901  16.854   1.227   9.362
  465POPC   GL2 9902  16.567   1.226   9.168
  465POPC   C1A 9903  16.977   1.234   8.897
  465POPC   D2A 9904  17.138   1.189   8.485
  465POPC   C3A 9905  16.913   1.191   8.099
  465POPC   C4A 9906  16.658   1.459   7.851
  465POPC   C1B 9907  16.497   1.209   8.690
  465POPC   C2B 9908  16.428   1.228   8.232
  465POPC   C3B 9909  16.310   1.084   7.759
  465POPC   C4B 9910  16.359   0.881   7.272
  466POPC   NC3 9911  34.473   7.855  10.010
  466POPC   PO4 9912  34.641   8.275   9.524
  466POPC   GL1 9913  34.566   8.145   9.112
  466POPC   GL2 9914  34.254   8.295   9.093
  466POPC   C1A 9915  34.498   8.119   8.657
  466POPC   D2A 9916  34.503   7.947   8.228
  466POPC   C3A 9917  34.629   8.216   7.887
  466POPC   C4A 9918  34.651   7.920   7.532
  466POPC   C1B 9919  34.190   8.513   8.704
  466POPC   C2B 9920  34.237   8.382   8.270
  466POPC   C3B 9921  34.107   8.472   7.867
  466POPC   C4B 9922  34.279   8.378   7.469
  467POPC   NC3 9923  33.524  11.033   9.637
  467POPC   PO4 9924  33.989  10.561   9.568
  467POPC   GL1 9925  33.888  10.514   9.167
  467POPC   GL2 9926  33.657  10.814   9.180
  467POPC   C1A 9927  34.007  10.299   8.788
  467POPC   D2A 9928  33.919  10.159   8.366
  467POPC   C3A 9929  34.197  10.311   8.043
  467POPC   C4A 9930  33.927  10.295   7.699
  467POPC   C1B 9931  33.840  10.852   8.772
  467POPC   C2B 9932  34.061  10.679   8.439
  467POPC   C3B 9933  33.832  10.647   8.086
  467POPC   C4B 9934  33.968  10.812   7.719
  468POPC   NC3 9935  14.610  42.944   9.517
  468POPC   PO4 9936  14.057  43.338   9.624
  468POPC   GL1 9937  14.241  43.177   9.218
  468POPC   GL2 9938  14.508  43.378   9.099
  468POPC   C1A 9939  14.449  42.956   8.826
  468POPC   D2A 9940  14.668  43.034   8.428
  468POPC   C3A 9941  14.411  42.944   8.079
  468POPC   C4A 9942  14.201  43.219   7.781
  468POPC   C1B 9943  14.207  43.417   8.745
  468POPC   C2B 9944  14.305  43.388   8.305
  468POPC   C3B 9945  14.682  43.385   8.025
  468POPC   C4B 9946  14.659  43.410   7.576
  469POPC   NC3 9947  31.876  19.478   9.550
  469POPC   PO4 9948  32.392  18.951   9.502
  469POPC   GL1 9949  32.497  19.308   9.211
  469POPC   GL2 9950  32.514  19.066   8.961
  469POPC   C1A 9951  32.310  19.506   8.786
  469POPC   D2A 9952  32.194  19.421   8.317
  469POPC   C3A 9953  32.398  19.069   8.045
  469POPC   C4A 9954  32.463  18.661   7.809
  469POPC   C1B 9955  32.191  19.017   8.635
  469POPC   C2B 9956  31.941  18.964   8.248
  469POPC   C3B 9957  31.968  18.833   7.801
  469POPC   C4B 9958  31.794  18.759   7.371
  470POPC   NC3 9959  20.573   9.840   9.589
  470POPC   PO4 9960  20.714   9.101   9.578
  470POPC   GL1 9961  20.824   9.385   9.198
  470POPC   GL2 9962  20.797   9.751   9.110
  470POPC   C1A 9963  20.856   9.428   8.717
  470POPC   D2A 9964  20.920   9.651   8.306
  470POPC   C3A 9965  20.697   9.477   7.933
  470POPC   C4A 9966  20.542   9.572   7.496
  470POPC   C1B 9967  21.024   9.908   8.753
  470POPC   C2B 9968  20.763  10.137   8.438
  470POPC   C3B 9969  20.651  10.009   7.996
  470POPC   C4B 9970  20.675  10.259   7.634
  471POPC   NC3 9971   1.461  23.899   9.599
  471POPC   PO4 9972   0.911  23.459   9.638
  471POPC   GL1 9973   1.267  23.476   9.302
  471POPC   GL2 9974   1.338  23.797   9.132
  471POPC   C1A 9975   1.473  23.356   8.873
  471POPC   D2A 9976   1.361  23.506   8.444
  471POPC   C3A 9977   1.494  23.354   8.032
  471POPC   C4A 9978   1.304  23.498   7.647
  471POPC   C1B 9979   1.452  23.939   8.740
  471POPC   C2B 9980   1.671  23.907   8.337
  471POPC   C3B 9981   1.500  23.948   7.953
  471POPC   C4B 9982   1.082  23.953   7.840
  472POPC   NC3 9983  38.976  34.168   9.605
  472POPC   PO4 9984  39.262  33.468   9.634
  472POPC   GL1 9985  38.970  33.678   9.320
  472POPC   GL2 9986  39.294  33.752   9.164
  472POPC   C1A 9987  38.856  33.853   8.891
  472POPC   D2A 9988  39.105  33.926   8.521
  472POPC   C3A 9989  39.004  34.034   8.082
  472POPC   C4A 9990  39.230  33.908   7.712
  472POPC   C1B 9991  39.592  33.425   8.969
  472POPC   C2B 9992  39.588  33.369   8.521
  472POPC   C3B 9993  39.533  33.584   8.132
  472POPC   C4B 9994  39.619  33.549   7.709
  473POPC   NC3 9995   3.831  38.252   9.549
  473POPC   PO4 9996   3.240  38.658   9.449
  473POPC   GL1 9997   3.564  38.498   9.180
  473POPC   GL2 9998   3.848  38.716   9.208
  473POPC   C1A 9999   3.390  38.350   8.816
  473POPC   D2A10000   3.185  38.499   8.451
  473POPC   C3A10001   3.273  38.238   8.087
  473POPC   C4A10002   3.496  38.449   7.755
  473POPC   C1B10003   4.018  38.545   8.822
  473POPC   C2B10004   3.913  38.428   8.403
  473POPC   C3B10005   3.943  38.600   7.969
  473POPC   C4B10006   3.896  38.664   7.500
  474POPC   NC310007  26.873   2.199   9.471
  474POPC   PO410008  26.977   1.551   9.551
  474POPC   GL110009  26.810   1.805   9.097
  474POPC   GL210010  26.652   2.136   9.039
  474POPC   C1A10011  26.590   1.708   8.684
  474POPC   D2A10012  26.712   1.591   8.234
  474POPC   C3A10013  26.565   1.789   7.846
  474POPC   C4A10014  26.819   1.952   7.481
  474POPC   C1B10015  26.862   2.136   8.687
  474POPC   C2B10016  26.705   2.081   8.306
  474POPC   C3B10017  26.855   2.197   7.936
  474POPC   C4B10018  26.525   2.297   7.712
  475POPC   NC310019  30.248  20.049   9.902
  475POPC   PO410020  30.872  20.202   9.716
  475POPC   GL110021  30.836  20.200   9.229
  475POPC   GL210022  31.153  20.106   9.156
  475POPC   C1A10023  30.713  20.024   8.806
  475POPC   D2A10024  30.766  20.059   8.320
  475POPC   C3A10025  30.577  19.883   7.915
  475POPC   C4A10026  30.732  19.965   7.470
  475POPC   C1B10027  31.190  19.884   8.751
  475POPC   C2B10028  31.157  19.738   8.307
  475POPC   C3B10029  31.096  19.903   7.853
  475POPC   C4B10030  31.228  19.918   7.375
  476POPC   NC310031  26.057   3.826   9.514
  476POPC   PO410032  25.690   3.348   9.223
  476POPC   GL110033  26.041   3.584   9.065
  476POPC   GL210034  25.853   3.920   9.045
  476POPC   C1A10035  26.247   3.407   8.701
  476POPC   D2A10036  26.027   3.123   8.475
  476POPC   C3A10037  26.236   3.279   8.136
  476POPC   C4A10038  26.076   3.515   7.835
  476POPC   C1B10039  26.144   3.910   8.694
  476POPC   C2B10040  25.996   3.704   8.324
  476POPC   C3B10041  25.728   3.853   7.982
  476POPC   C4B10042  25.808   3.805   7.522
  477POPC   NC310043  44.461  31.609   9.461
  477POPC   PO410044  44.907  32.024   9.686
  477POPC   GL110045  44.905  31.781   9.200
  477POPC   GL210046  44.792  31.415   9.136
  477POPC   C1A10047  44.664  31.724   8.774
  477POPC   D2A10048  44.421  31.564   8.436
  477POPC   C3A10049  44.622  31.619   8.052
  477POPC   C4A10050  44.710  31.387   7.667
  477POPC   C1B10051  44.464  31.211   8.863
  477POPC   C2B10052  44.296  31.057   8.468
  477POPC   C3B10053  44.436  31.134   8.052
  477POPC   C4B10054  44.320  31.046   7.648
  478POPC   NC310055  39.816  32.456   9.425
  478POPC   PO410056  40.371  32.138   9.592
  478POPC   GL110057  40.109  32.166   9.135
  478POPC   GL210058  40.147  32.475   9.018
  478POPC   C1A10059  39.893  32.029   8.714
  478POPC   D2A10060  39.626  32.188   8.355
  478POPC   C3A10061  39.804  32.090   7.931
  478POPC   C4A10062  40.189  32.139   7.699
  478POPC   C1B10063  39.779  32.553   8.770
  478POPC   C2B10064  39.689  32.764   8.406
  478POPC   C3B10065  39.774  32.626   7.990
  478POPC   C4B10066  39.773  32.468   7.575
  479POPC   NC310067   6.822   7.213   9.603
  479POPC   PO410068   6.948   7.825   9.480
  479POPC   GL110069   6.873   7.493   9.137
  479POPC   GL210070   6.533   7.335   9.199
  479POPC   C1A10071   6.826   7.371   8.664
  479POPC   D2A10072   6.675   7.660   8.322
  479POPC   C3A10073   6.800   7.647   7.853
  479POPC   C4A10074   6.664   7.628   7.402
  479POPC   C1B10075   6.434   7.084   8.832
  479POPC   C2B10076   6.382   7.220   8.425
  479POPC   C3B10077   6.368   7.380   8.045
  479POPC   C4B10078   6.388   7.275   7.646
  480POPC   NC310079  25.800   9.758   9.510
  480POPC   PO410080  26.406   9.442   9.580
  480POPC   GL110081  26.238   9.702   9.214
  480POPC   GL210082  25.927   9.895   9.053
  480POPC   C1A10083  26.331   9.770   8.781
  480POPC   D2A10084  26.228   9.565   8.420
  480POPC   C3A10085  26.023   9.813   8.124
  480POPC   C4A10086  26.037   9.692   7.709
  480POPC   C1B10087  25.738   9.799   8.648
  480POPC   C2B10088  25.498   9.816   8.244
  480POPC   C3B10089  25.601  10.005   7.833
  480POPC   C4B10090  25.579   9.888   7.359
  481POPC   NC310091  13.080  15.333   9.579
  481POPC   PO410092  12.730  14.846   9.287
  481POPC   GL110093  13.084  15.077   9.082
  481POPC   GL210094  13.132  15.466   9.075
  481POPC   C1A10095  13.038  15.067   8.627
  481POPC   D2A10096  12.786  15.233   8.267
  481POPC   C3A10097  12.691  14.974   7.876
  481POPC   C4A10098  12.823  14.986   7.443
  481POPC   C1B10099  13.109  15.564   8.612
  481POPC   C2B10100  13.266  15.406   8.208
  481POPC   C3B10101  13.049  15.337   7.822
  481POPC   C4B10102  12.667  15.480   7.607
  482POPC   NC310103  30.821   8.357   9.511
  482POPC   PO410104  30.219   8.225   9.322
  482POPC   GL110105  30.501   8.377   9.072
  482POPC   GL210106  30.708   8.098   9.071
  482POPC   C1A10107  30.672   8.447   8.660
  482POPC   D2A10108  30.627   8.319   8.248
  482POPC   C3A10109  30.762   8.475   7.884
  482POPC   C4A10110  30.585   8.719   7.582
  482POPC   C1B10111  30.971   8.017   8.739
  482POPC   C2B10112  31.093   8.103   8.328
  482POPC   C3B10113  30.851   7.940   8.012
  482POPC   C4B10114  30.862   8.017   7.630
  483POPC   NC310115   0.752  42.985   9.287
  483POPC   PO410116   0.286  43.396   9.517
  483POPC   GL110117   0.308  43.220   9.071
  483POPC   GL210118   0.072  42.912   9.075
  483POPC   C1A10119   0.456  43.240   8.597
  483POPC   D2A10120   0.644  42.957   8.280
  483POPC   C3A10121   0.733  43.113   7.863
  483POPC   C4A10122   0.729  42.925   7.469
  483POPC   C1B10123  44.963  43.121   8.709
  483POPC   C2B10124   0.078  42.987   8.363
  483POPC   C3B10125   0.247  43.202   8.051
  483POPC   C4B10126   0.173  43.096   7.656
  484POPC   NC310127   7.571  35.101   9.369
  484POPC   PO410128   7.346  35.696   9.360
  484POPC   GL110129   7.339  35.420   9.041
  484POPC   GL210130   7.706  35.425   8.993
  484POPC   C1A10131   7.242  35.453   8.620
  484POPC   D2A10132   7.090  35.230   8.263
  484POPC   C3A10133   7.192  35.401   7.844
  484POPC   C4A10134   6.965  35.193   7.480
  484POPC   C1B10135   7.665  35.157   8.636
  484POPC   C2B10136   7.591  35.298   8.208
  484POPC   C3B10137   7.697  35.602   7.884
  484POPC   C4B10138   7.874  35.512   7.493
  485POPC   NC310139  24.904  42.602   9.893
  485POPC   PO410140  24.340  42.254   9.549
  485POPC   GL110141  24.431  42.382   9.138
  485POPC   GL210142  24.743  42.267   9.164
  485POPC   C1A10143  24.386  42.287   8.706
  485POPC   D2A10144  24.373  42.469   8.327
  485POPC   C3A10145  24.284  42.201   8.002
  485POPC   C4A10146  24.294  41.946   7.675
  485POPC   C1B10147  24.804  42.573   8.832
  485POPC   C2B10148  24.896  42.491   8.399
  485POPC   C3B10149  24.740  42.464   7.984
  485POPC   C4B10150  24.908  42.476   7.573
  486POPC   NC310151   0.020  29.069   9.726
  486POPC   PO410152  44.391  29.038   9.556
  486POPC   GL110153  44.585  29.125   9.178
  486POPC   GL210154  44.832  29.381   9.216
  486POPC   C1A10155  44.607  28.978   8.751
  486POPC   D2A10156  44.807  29.102   8.352
  486POPC   C3A10157  44.600  29.096   7.968
  486POPC   C4A10158  44.253  28.818   7.775
  486POPC   C1B10159   0.023  29.271   8.805
  486POPC   C2B10160   0.186  29.430   8.393
  486POPC   C3B10161  44.975  29.530   8.014
  486POPC   C4B10162  44.969  29.396   7.588
  487POPC   NC310163  16.981  27.059   9.556
  487POPC   PO410164  16.494  26.652   9.533
  487POPC   GL110165  16.677  26.796   9.232
  487POPC   GL210166  16.380  26.773   9.049
  487POPC   C1A10167  16.898  26.785   8.871
  487POPC   D2A10168  16.795  26.980   8.480
  487POPC   C3A10169  16.986  26.802   8.127
  487POPC   C4A10170  16.891  26.862   7.725
  487POPC   C1B10171  16.479  26.600   8.649
  487POPC   C2B10172  16.549  26.537   8.195
  487POPC   C3B10173  16.425  26.638   7.774
  487POPC   C4B10174  16.344  26.399   7.390
  488POPC   NC310175  31.190  22.785   9.861
  488POPC   PO410176  30.865  23.140   9.350
  488POPC   GL110177  30.711  22.903   9.032
  488POPC   GL210178  30.960  22.692   8.838
  488POPC   C1A10179  30.475  23.136   8.742
  488POPC   D2A10180  30.524  23.425   8.420
  488POPC   C3A10181  30.358  23.329   8.045
  488POPC   C4A10182  30.526  23.105   7.743
  488POPC   C1B10183  30.962  23.074   8.596
  488POPC   C2B10184  30.842  23.113   8.169
  488POPC   C3B10185  30.750  22.718   7.962
  488POPC   C4B10186  30.840  22.737   7.511
  489POPC   NC310187  21.971  21.409   9.683
  489POPC   PO410188  21.845  21.745   9.131
  489POPC   GL110189  22.132  21.393   9.164
  489POPC   GL210190  21.974  21.163   9.012
  489POPC   C1A10191  22.436  21.197   8.816
  489POPC   D2A10192  22.547  21.328   8.357
  489POPC   C3A10193  22.331  21.267   7.924
  489POPC   C4A10194  22.266  21.483   7.483
  489POPC   C1B10195  21.980  21.184   8.529
  489POPC   C2B10196  21.834  21.297   8.094
  489POPC   C3B10197  21.824  21.465   7.679
  489POPC   C4B10198  21.841  21.234   7.236
  490POPC   NC310199  33.639  18.517   9.528
  490POPC   PO410200  33.955  17.891   9.547
  490POPC   GL110201  33.890  18.240   9.175
  490POPC   GL210202  33.670  18.550   9.038
  490POPC   C1A10203  33.980  18.302   8.742
  490POPC   D2A10204  33.802  18.173   8.375
  490POPC   C3A10205  33.951  18.390   8.078
  490POPC   C4A10206  33.795  18.388   7.685
  490POPC   C1B10207  33.519  18.550   8.594
  490POPC   C2B10208  33.430  18.570   8.146
  490POPC   C3B10209  33.354  18.649   7.719
  490POPC   C4B10210  33.532  18.628   7.304
  491POPC   NC310211  35.075  29.019   9.652
  491POPC   PO410212  34.481  29.223   9.479
  491POPC   GL110213  34.514  29.039   9.128
  491POPC   GL210214  34.836  28.928   9.150
  491POPC   C1A10215  34.611  29.202   8.738
  491POPC   D2A10216  34.494  29.081   8.369
  491POPC   C3A10217  34.574  29.380   8.080
  491POPC   C4A10218  34.463  29.338   7.728
  491POPC   C1B10219  34.974  28.841   8.730
  491POPC   C2B10220  34.846  28.714   8.327
  491POPC   C3B10221  34.717  28.900   7.941
  491POPC   C4B10222  34.948  29.051   7.639
  492POPC   NC310223   9.988  43.967   9.485
  492POPC   PO410224  10.751  43.967   9.555
  492POPC   GL110225  10.629  43.863   9.170
  492POPC   GL210226  10.325  43.679   9.173
  492POPC   C1A10227  10.688  43.723   8.754
  492POPC   D2A10228  10.466  43.572   8.397
  492POPC   C3A10229  10.483  43.778   7.984
  492POPC   C4A10230  10.821  44.028   7.805
  492POPC   C1B10231  10.266  44.012   8.839
  492POPC   C2B10232  10.376  44.085   8.390
  492POPC   C3B10233  10.402  44.292   7.976
  492POPC   C4B10234  10.361  44.171   7.530
  493POPC   NC310235  38.370  17.145   9.410
  493POPC   PO410236  38.849  17.562   9.551
  493POPC   GL110237  38.605  17.691   9.191
  493POPC   GL210238  38.586  17.380   9.019
  493POPC   C1A10239  38.389  17.752   8.754
  493POPC   D2A10240  38.296  17.667   8.321
  493POPC   C3A10241  38.341  17.329   8.020
  493POPC   C4A10242  38.432  17.444   7.593
  493POPC   C1B10243  38.873  17.659   8.769
  493POPC   C2B10244  38.784  17.846   8.356
  493POPC   C3B10245  38.621  17.806   7.915
  493POPC   C4B10246  38.898  17.654   7.536
  494POPC   NC310247  33.131  25.539   9.621
  494POPC   PO410248  32.851  24.903   9.427
  494POPC   GL110249  33.022  25.071   9.072
  494POPC   GL210250  33.120  25.417   9.098
  494POPC   C1A10251  32.927  25.069   8.640
  494POPC   D2A10252  33.157  25.095   8.266
  494POPC   C3A10253  33.056  25.066   7.838
  494POPC   C4A10254  32.918  25.074   7.411
  494POPC   C1B10255  33.211  25.475   8.660
  494POPC   C2B10256  33.093  25.592   8.241
  494POPC   C3B10257  33.266  25.549   7.852
  494POPC   C4B10258  33.251  25.458   7.416
  495POPC   NC310259  35.750  27.765   9.277
  495POPC   PO410260  36.371  27.554   9.377
  495POPC   GL110261  36.309  27.452   9.007
  495POPC   GL210262  35.986  27.384   9.035
  495POPC   C1A10263  36.201  27.629   8.636
  495POPC   D2A10264  35.938  27.836   8.355
  495POPC   C3A10265  36.190  27.806   8.016
  495POPC   C4A10266  36.094  27.678   7.603
  495POPC   C1B10267  35.959  27.125   8.699
  495POPC   C2B10268  35.773  27.194   8.306
  495POPC   C3B10269  35.863  27.439   8.004
  495POPC   C4B10270  35.788  27.290   7.630
  496POPC   NC310271  36.759  27.774   9.466
  496POPC   PO410272  37.438  27.666   9.607
  496POPC   GL110273  37.264  27.795   9.211
  496POPC   GL210274  37.120  27.498   9.163
  496POPC   C1A10275  37.031  27.886   8.791
  496POPC   D2A10276  36.704  27.754   8.482
  496POPC   C3A10277  36.758  27.597   8.074
  496POPC   C4A10278  36.584  27.712   7.686
  496POPC   C1B10279  36.803  27.405   8.849
  496POPC   C2B10280  36.822  27.215   8.426
  496POPC   C3B10281  37.035  27.140   8.037
  496POPC   C4B10282  36.784  27.211   7.661
  497POPC   NC310283  27.354  37.268   9.831
  497POPC   PO410284  26.846  36.714   9.590
  497POPC   GL110285  26.870  36.923   9.192
  497POPC   GL210286  26.945  36.625   9.019
  497POPC   C1A10287  26.909  37.057   8.732
  497POPC   D2A10288  26.835  36.869   8.298
  497POPC   C3A10289  26.896  37.081   7.891
  497POPC   C4A10290  26.900  36.972   7.450
  497POPC   C1B10291  26.581  36.640   8.706
  497POPC   C2B10292  26.346  36.697   8.313
  497POPC   C3B10293  26.461  36.768   7.865
  497POPC   C4B10294  26.748  36.498   7.590
  498POPC   NC310295  37.417  10.208   9.451
  498POPC   PO410296  38.038  10.597   9.525
  498POPC   GL110297  37.711  10.581   9.188
  498POPC   GL210298  37.493  10.879   9.173
  498POPC   C1A10299  37.616  10.405   8.764
  498POPC   D2A10300  37.561  10.104   8.410
  498POPC   C3A10301  37.477  10.303   8.025
  498POPC   C4A10302  37.692  10.667   7.833
  498POPC   C1B10303  37.764  10.921   8.785
  498POPC   C2B10304  37.830  10.692   8.363
  498POPC   C3B10305  38.183  10.716   8.007
  498POPC   C4B10306  38.154  10.732   7.519
  499POPC   NC310307  12.322   7.995   9.403
  499POPC   PO410308  11.930   8.512   9.551
  499POPC   GL110309  11.967   8.360   9.121
  499POPC   GL210310  11.919   8.058   9.098
  499POPC   C1A10311  12.224   8.188   8.725
  499POPC   D2A10312  12.024   8.032   8.346
  499POPC   C3A10313  12.324   8.026   8.022
  499POPC   C4A10314  12.371   8.086   7.595
  499POPC   C1B10315  11.713   8.138   8.736
  499POPC   C2B10316  11.556   8.331   8.383
  499POPC   C3B10317  11.639   8.198   7.995
  499POPC   C4B10318  11.996   8.381   7.795
  500POPC   NC310319   4.545  37.789   9.780
  500POPC   PO410320   4.391  37.172   9.594
  500POPC   GL110321   4.417  37.516   9.246
  500POPC   GL210322   4.568  37.875   9.259
  500POPC   C1A10323   4.172  37.643   8.848
  500POPC   D2A10324   4.094  37.892   8.458
  500POPC   C3A10325   4.381  37.723   8.144
  500POPC   C4A10326   4.412  37.500   7.766
  500POPC   C1B10327   4.687  37.809   8.800
  500POPC   C2B10328   4.791  37.939   8.366
  500POPC   C3B10329   4.866  37.687   7.943
  500POPC   C4B10330   4.749  37.752   7.455
  501POPC   NC310331  28.716  23.479   9.550
  501POPC   PO410332  29.222  23.886   9.496
  501POPC   GL110333  29.155  23.912   9.094
  501POPC   GL210334  29.504  23.981   9.060
  501POPC   C1A10335  28.931  23.657   8.755
  501POPC   D2A10336  28.970  23.460   8.334
  501POPC   C3A10337  29.049  23.689   7.915
  501POPC   C4A10338  28.757  23.999   7.686
  501POPC   C1B10339  29.432  23.738   8.719
  501POPC   C2B10340  29.260  23.886   8.374
  501POPC   C3B10341  29.518  23.949   8.041
  501POPC   C4B10342  29.287  24.135   7.758
  502POPC   NC310343  31.264  23.326   9.523
  502POPC   PO410344  31.518  23.896   9.382
  502POPC   GL110345  31.462  23.562   9.085
  502POPC   GL210346  31.244  23.245   9.033
  502POPC   C1A10347  31.364  23.763   8.686
  502POPC   D2A10348  31.581  23.845   8.311
  502POPC   C3A10349  31.438  23.736   7.892
  502POPC   C4A10350  31.388  23.902   7.457
  502POPC   C1B10351  31.422  23.265   8.672
  502POPC   C2B10352  31.302  23.373   8.283
  502POPC   C3B10353  31.376  23.177   7.898
  502POPC   C4B10354  31.480  23.375   7.519
  503POPC   NC310355   3.392  21.998   9.557
  503POPC   PO410356   4.056  21.922   9.330
  503POPC   GL110357   3.723  22.221   9.194
  503POPC   GL210358   3.345  22.228   9.111
  503POPC   C1A10359   3.724  22.277   8.766
  503POPC   D2A10360   3.668  21.979   8.430
  503POPC   C3A10361   3.709  22.071   8.012
  503POPC   C4A10362   3.527  22.202   7.628
  503POPC   C1B10363   3.322  21.890   8.820
  503POPC   C2B10364   3.131  21.878   8.407
  503POPC   C3B10365   3.191  21.945   7.983
  503POPC   C4B10366   3.432  21.677   7.819
  504POPC   NC310367  43.773  23.355   9.534
  504POPC   PO410368  44.264  23.797   9.385
  504POPC   GL110369  44.022  23.545   9.116
  504POPC   GL210370  43.668  23.695   9.166
  504POPC   C1A10371  43.892  23.715   8.726
  504POPC   D2A10372  43.586  23.687   8.412
  504POPC   C3A10373  43.880  23.811   8.111
  504POPC   C4A10374  44.018  23.634   7.715
  504POPC   C1B10375  43.629  24.120   8.900
  504POPC   C2B10376  43.453  24.213   8.484
  504POPC   C3B10377  43.447  24.060   8.050
  504POPC   C4B10378  43.691  24.040   7.647
  505POPC   NC310379  11.980  35.718   9.612
  505POPC   PO410380  12.325  36.336   9.400
  505POPC   GL110381  12.293  36.269   8.939
  505POPC   GL210382  11.988  36.213   8.999
  505POPC   C1A10383  12.074  35.998   8.562
  505POPC   D2A10384  12.006  35.840   8.109
  505POPC   C3A10385  12.351  35.974   7.880
  505POPC   C4A10386  12.389  36.257   7.570
  505POPC   C1B10387  11.920  36.547   8.707
  505POPC   C2B10388  11.945  36.506   8.270
  505POPC   C3B10389  11.911  36.306   7.872
  505POPC   C4B10390  11.919  36.372   7.421
  506POPC   NC310391  24.742   0.029   9.553
  506POPC   PO410392  24.570  44.399   9.629
  506POPC   GL110393  24.345  44.689   9.370
  506POPC   GL210394  24.347  44.397   9.161
  506POPC   C1A10395  24.422  44.930   8.978
  506POPC   D2A10396  24.385  44.858   8.515
  506POPC   C3A10397  24.587  44.802   8.106
  506POPC   C4A10398  24.470  44.903   7.701
  506POPC   C1B10399  24.550  44.462   8.800
  506POPC   C2B10400  24.539  44.356   8.386
  506POPC   C3B10401  24.618  44.289   7.961
  506POPC   C4B10402  24.701  44.468   7.556
  507POPC   NC310403  13.836  13.050   9.350
  507POPC   PO410404  13.263  13.111   9.682
  507POPC   GL110405  13.519  12.728   9.166
  507POPC   GL210406  13.811  12.610   9.077
  507POPC   C1A10407  13.413  12.661   8.707
  507POPC   D2A10408  13.617  12.639   8.277
  507POPC   C3A10409  13.421  12.912   7.967
  507POPC   C4A10410  13.513  12.886   7.529
  507POPC   C1B10411  13.786  13.015   8.729
  507POPC   C2B10412  13.929  13.127   8.292
  507POPC   C3B10413  13.930  12.910   7.866
  507POPC   C4B10414  13.988  12.961   7.414
  508POPC   NC310415  15.425  37.418   9.540
  508POPC   PO410416  14.973  37.858   9.663
  508POPC   GL110417  15.350  37.829   9.273
  508POPC   GL210418  15.241  37.530   9.098
  508POPC   C1A10419  15.420  37.852   8.789
  508POPC   D2A10420  15.040  37.727   8.547
  508POPC   C3A10421  15.123  37.747   8.103
  508POPC   C4A10422  15.358  37.985   7.768
  508POPC   C1B10423  15.492  37.312   8.827
  508POPC   C2B10424  15.471  37.469   8.399
  508POPC   C3B10425  15.586  37.546   7.988
  508POPC   C4B10426  15.375  37.466   7.601
  509POPC   NC310427   6.877  25.092   9.526
  509POPC   PO410428   6.365  25.596   9.453
  509POPC   GL110429   6.465  25.455   9.049
  509POPC   GL210430   6.608  25.146   9.089
  509POPC   C1A10431   6.539  25.369   8.610
  509POPC   D2A10432   6.831  25.303   8.298
  509POPC   C3A10433   6.630  25.223   7.940
  509POPC   C4A10434   6.331  25.480   7.780
  509POPC   C1B10435   6.974  25.140   8.778
  509POPC   C2B10436   7.095  24.876   8.464
  509POPC   C3B10437   7.074  24.959   8.002
  509POPC   C4B10438   6.932  24.959   7.592
  510POPC   NC310439  15.199   4.721   9.878
  510POPC   PO410440  15.080   4.167   9.538
  510POPC   GL110441  15.068   4.167   9.110
  510POPC   GL210442  15.411   4.320   9.102
  510POPC   C1A10443  15.093   4.271   8.693
  510POPC   D2A10444  15.380   4.247   8.403
  510POPC   C3A10445  15.223   4.106   8.043
  510POPC   C4A10446  14.960   4.339   7.818
  510POPC   C1B10447  15.405   4.655   8.795
  510POPC   C2B10448  15.531   4.721   8.368
  510POPC   C3B10449  15.357   4.612   7.983
  510POPC   C4B10450  15.455   4.697   7.589
  511POPC   NC310451  23.682  19.611   9.454
  511POPC   PO410452  23.574  20.345   9.464
  511POPC   GL110453  23.620  20.150   9.082
  511POPC   GL210454  23.970  20.060   9.019
  511POPC   C1A10455  23.597  19.957   8.671
  511POPC   D2A10456  23.403  19.662   8.365
  511POPC   C3A10457  23.530  19.747   7.939
  511POPC   C4A10458  23.808  19.493   7.717
  511POPC   C1B10459  24.039  19.655   8.790
  511POPC   C2B10460  23.984  19.486   8.369
  511POPC   C3B10461  24.090  19.747   8.046
  511POPC   C4B10462  23.933  20.081   7.858
  512POPC   NC310463  13.390  21.166   9.544
  512POPC   PO410464  13.912  21.645   9.528
  512POPC   GL110465  13.723  21.484   9.168
  512POPC   GL210466  13.361  21.550   9.157
  512POPC   C1A10467  13.563  21.130   8.906
  512POPC   D2A10468  13.406  21.127   8.483
  512POPC   C3A10469  13.546  21.218   8.080
  512POPC   C4A10470  13.372  21.111   7.682
  512POPC   C1B10471  13.472  21.593   8.706
  512POPC   C2B10472  13.285  21.622   8.284
  512POPC   C3B10473  13.407  21.629   7.811
  512POPC   C4B10474  13.305  21.729   7.369
  513POPC   NC310475   2.272  21.467   9.675
  513POPC   PO410476   1.838  21.028   9.592
  513POPC   GL110477   1.967  21.211   9.213
  513POPC   GL210478   2.057  21.569   9.184
  513POPC   C1A10479   1.944  21.260   8.768
  513POPC   D2A10480   1.897  21.510   8.400
  513POPC   C3A10481   1.879  21.331   7.988
  513POPC   C4A10482   1.954  21.507   7.595
  513POPC   C1B10483   2.192  21.730   8.750
  513POPC   C2B10484   2.301  21.807   8.302
  513POPC   C3B10485   2.188  21.851   7.878
  513POPC   C4B10486   2.488  21.657   7.581
  514POPC   NC310487  38.188  37.795   9.553
  514POPC   PO410488  38.860  37.960   9.384
  514POPC   GL110489  38.515  37.747   9.166
  514POPC   GL210490  38.588  37.421   9.029
  514POPC   C1A10491  38.222  37.776   8.790
  514POPC   D2A10492  38.314  37.738   8.346
  514POPC   C3A10493  38.119  37.952   8.014
  514POPC   C4A10494  38.113  37.795   7.601
  514POPC   C1B10495  38.731  37.744   8.699
  514POPC   C2B10496  38.835  37.747   8.260
  514POPC   C3B10497  38.629  37.844   7.906
  514POPC   C4B10498  38.506  37.477   7.682
  515POPC   NC310499  40.390  18.051   9.459
  515POPC   PO410500  39.841  18.433   9.405
  515POPC   GL110501  40.088  18.334   9.101
  515POPC   GL210502  39.997  17.993   9.129
  515POPC   C1A10503  39.896  18.344   8.715
  515POPC   D2A10504  39.959  18.114   8.366
  515POPC   C3A10505  40.002  18.337   8.015
  515POPC   C4A10506  40.120  18.056   7.749
  515POPC   C1B10507  39.779  17.822   8.780
  515POPC   C2B10508  39.620  17.731   8.353
  515POPC   C3B10509  39.620  18.020   7.945
  515POPC   C4B10510  39.689  18.060   7.472
  516POPC   NC310511  42.520  16.504   9.498
  516POPC   PO410512  42.076  16.970   9.532
  516POPC   GL110513  42.284  16.858   9.197
  516POPC   GL210514  41.977  16.783   9.073
  516POPC   C1A10515  42.458  16.659   8.866
  516POPC   D2A10516  42.684  16.820   8.552
  516POPC   C3A10517  42.691  16.625   8.165
  516POPC   C4A10518  42.492  16.749   7.788
  516POPC   C1B10519  41.985  16.828   8.624
  516POPC   C2B10520  42.228  16.882   8.256
  516POPC   C3B10521  42.031  16.927   7.839
  516POPC   C4B10522  42.116  16.774   7.393
  517POPC   NC310523  43.019  33.239   9.719
  517POPC   PO410524  43.551  32.968   9.416
  517POPC   GL110525  43.269  33.250   9.154
  517POPC   GL210526  42.944  33.405   9.159
  517POPC   C1A10527  43.121  33.152   8.715
  517POPC   D2A10528  43.294  33.005   8.304
  517POPC   C3A10529  43.200  33.196   7.912
  517POPC   C4A10530  43.219  32.950   7.531
  517POPC   C1B10531  42.852  33.586   8.751
  517POPC   C2B10532  42.633  33.444   8.368
  517POPC   C3B10533  42.625  33.216   7.954
  517POPC   C4B10534  42.825  33.253   7.557
  518POPC   NC310535  28.134  35.684   9.883
  518POPC   PO410536  28.262  36.236   9.524
  518POPC   GL110537  28.430  36.057   9.183
  518POPC   GL210538  28.461  36.357   9.056
  518POPC   C1A10539  28.439  35.922   8.759
  518POPC   D2A10540  28.231  35.840   8.406
  518POPC   C3A10541  28.403  35.946   8.004
  518POPC   C4A10542  28.306  36.154   7.646
  518POPC   C1B10543  28.651  36.391   8.704
  518POPC   C2B10544  28.545  36.289   8.343
  518POPC   C3B10545  28.741  36.354   7.976
  518POPC   C4B10546  28.607  36.558   7.625
  519POPC   NC310547  23.511  38.650   9.566
  519POPC   PO410548  22.804  38.430   9.480
  519POPC   GL110549  22.985  38.462   9.077
  519POPC   GL210550  23.081  38.774   9.070
  519POPC   C1A10551  23.014  38.252   8.671
  519POPC   D2A10552  22.928  37.994   8.304
  519POPC   C3A10553  23.082  38.127   7.908
  519POPC   C4A10554  23.029  38.552   7.772
  519POPC   C1B10555  22.978  38.840   8.663
  519POPC   C2B10556  22.873  38.800   8.247
  519POPC   C3B10557  22.674  38.444   8.136
  519POPC   C4B10558  22.515  38.503   7.761
  520POPC   NC310559  35.113   4.862   9.257
  520POPC   PO410560  35.173   5.381   9.680
  520POPC   GL110561  35.017   5.365   9.218
  520POPC   GL210562  35.360   5.252   9.067
  520POPC   C1A10563  35.004   5.354   8.727
  520POPC   D2A10564  35.076   5.105   8.327
  520POPC   C3A10565  35.156   5.328   7.982
  520POPC   C4A10566  35.210   5.084   7.630
  520POPC   C1B10567  35.452   4.919   8.732
  520POPC   C2B10568  35.436   4.733   8.338
  520POPC   C3B10569  35.541   4.903   7.960
  520POPC   C4B10570  35.682   4.832   7.549
  521POPC   NC310571  17.697  40.210   9.541
  521POPC   PO410572  17.098  39.934   9.444
  521POPC   GL110573  17.269  40.234   9.141
  521POPC   GL210574  17.641  40.319   9.053
  521POPC   C1A10575  17.320  40.145   8.720
  521POPC   D2A10576  17.447  39.879   8.432
  521POPC   C3A10577  17.361  40.029   8.040
  521POPC   C4A10578  17.471  39.858   7.649
  521POPC   C1B10579  17.802  39.928   8.837
  521POPC   C2B10580  17.969  39.784   8.424
  521POPC   C3B10581  17.884  39.817   7.968
  521POPC   C4B10582  17.993  39.910   7.525
  522POPC   NC310583   0.686  29.274   9.447
  522POPC   PO410584   0.227  28.749   9.478
  522POPC   GL110585   0.323  29.058   9.163
  522POPC   GL210586   0.652  28.907   9.090
  522POPC   C1A10587   0.523  29.286   8.775
  522POPC   D2A10588   0.590  29.111   8.353
  522POPC   C3A10589   0.686  29.305   8.008
  522POPC   C4A10590   0.428  29.583   7.803
  522POPC   C1B10591   0.322  28.804   8.733
  522POPC   C2B10592   0.201  28.800   8.304
  522POPC   C3B10593   0.175  29.067   7.952
  522POPC   C4B10594   0.060  28.906   7.547
  523POPC   NC310595  40.994  17.264   9.349
  523POPC   PO410596  40.518  17.674   9.681
  523POPC   GL110597  40.682  17.678   9.230
  523POPC   GL210598  40.574  17.381   9.056
  523POPC   C1A10599  40.935  17.638   8.806
  523POPC   D2A10600  41.108  17.390   8.460
  523POPC   C3A10601  41.019  17.669   8.118
  523POPC   C4A10602  40.877  17.697   7.714
  523POPC   C1B10603  40.688  17.199   8.708
  523POPC   C2B10604  40.620  17.420   8.342
  523POPC   C3B10605  40.694  17.264   7.936
  523POPC   C4B10606  40.472  17.066   7.589
  524POPC   NC310607  12.400  23.352   9.754
  524POPC   PO410608  11.832  23.842   9.716
  524POPC   GL110609  12.021  23.728   9.291
  524POPC   GL210610  12.171  23.438   9.311
  524POPC   C1A10611  12.192  23.818   8.851
  524POPC   D2A10612  12.327  23.975   8.405
  524POPC   C3A10613  12.113  23.773   8.077
  524POPC   C4A10614  11.825  23.876   7.758
  524POPC   C1B10615  12.070  23.333   8.900
  524POPC   C2B10616  12.202  23.310   8.485
  524POPC   C3B10617  11.955  23.261   8.126
  524POPC   C4B10618  12.122  23.353   7.749
  525POPC   NC310619  23.348  13.409   9.518
  525POPC   PO410620  23.870  13.778   9.377
  525POPC   GL110621  23.799  13.561   9.034
  525POPC   GL210622  23.686  13.238   9.107
  525POPC   C1A10623  23.913  13.531   8.634
  525POPC   D2A10624  23.871  13.222   8.319
  525POPC   C3A10625  23.721  13.410   7.934
  525POPC   C4A10626  23.760  13.682   7.575
  525POPC   C1B10627  23.458  13.312   8.681
  525POPC   C2B10628  23.497  13.641   8.334
  525POPC   C3B10629  23.568  13.942   7.985
  525POPC   C4B10630  23.454  14.169   7.604
  526POPC   NC310631  17.926  33.432   9.389
  526POPC   PO410632  17.982  32.855   9.558
  526POPC   GL110633  17.718  32.985   9.186
  526POPC   GL210634  17.326  33.028   9.157
  526POPC   C1A10635  17.626  33.126   8.753
  526POPC   D2A10636  17.339  33.112   8.399
  526POPC   C3A10637  17.466  33.129   7.994
  526POPC   C4A10638  17.474  32.778   7.787
  526POPC   C1B10639  17.009  33.182   8.784
  526POPC   C2B10640  16.837  33.156   8.308
  526POPC   C3B10641  16.989  32.969   7.900
  526POPC   C4B10642  17.178  33.059   7.491
  527POPC   NC310643  35.810   0.787   9.420
  527POPC   PO410644  36.195   0.171   9.640
  527POPC   GL110645  36.149   0.341   9.214
  527POPC   GL210646  35.813   0.201   9.195
  527POPC   C1A10647  36.327   0.465   8.766
  527POPC   D2A10648  36.559   0.373   8.361
  527POPC   C3A10649  36.453   0.526   7.940
  527POPC   C4A10650  36.328   0.298   7.579
  527POPC   C1B10651  35.806   0.449   8.822
  527POPC   C2B10652  35.801   0.533   8.389
  527POPC   C3B10653  35.950   0.472   7.985
  527POPC   C4B10654  35.987   0.653   7.589
  528POPC   NC310655  25.578  43.921   9.429
  528POPC   PO410656  26.256  44.086   9.464
  528POPC   GL110657  26.053  43.852   9.167
  528POPC   GL210658  26.174  44.129   8.955
  528POPC   C1A10659  26.076  43.692   8.750
  528POPC   D2A10660  25.962  43.966   8.432
  528POPC   C3A10661  26.164  43.847   8.085
  528POPC   C4A10662  26.087  44.064   7.738
  528POPC   C1B10663  25.735  44.163   8.852
  528POPC   C2B10664  25.456  44.099   8.516
  528POPC   C3B10665  25.552  44.083   8.096
  528POPC   C4B10666  25.707  43.732   7.836
  529POPC   NC310667   5.925  31.856   9.667
  529POPC   PO410668   6.207  31.252   9.491
  529POPC   GL110669   6.058  31.410   9.070
  529POPC   GL210670   5.704  31.424   9.021
  529POPC   C1A10671   5.965  31.562   8.625
  529POPC   D2A10672   5.892  31.304   8.260
  529POPC   C3A10673   5.976  31.519   7.897
  529POPC   C4A10674   5.842  31.601   7.436
  529POPC   C1B10675   5.521  31.221   8.638
  529POPC   C2B10676   5.424  31.071   8.217
  529POPC   C3B10677   5.556  31.259   7.842
  529POPC   C4B10678   5.650  31.149   7.427
  530POPC   NC310679  25.495  21.742   9.524
  530POPC   PO410680  25.061  22.330   9.402
  530POPC   GL110681  25.270  22.023   9.146
  530POPC   GL210682  25.607  22.132   9.162
  530POPC   C1A10683  25.176  21.952   8.723
  530POPC   D2A10684  25.425  22.089   8.354
  530POPC   C3A10685  25.212  22.029   7.991
  530POPC   C4A10686  24.876  21.858   7.792
  530POPC   C1B10687  25.427  22.379   8.788
  530POPC   C2B10688  25.451  22.596   8.399
  530POPC   C3B10689  25.571  22.506   7.978
  530POPC   C4B10690  25.602  22.157   7.677
  531POPC   NC310691  18.089   2.542   9.413
  531POPC   PO410692  18.276   1.907   9.460
  531POPC   GL110693  18.305   2.072   9.079
  531POPC   GL210694  18.462   2.386   8.985
  531POPC   C1A10695  18.486   1.855   8.737
  531POPC   D2A10696  18.649   1.692   8.358
  531POPC   C3A10697  18.240   1.667   8.185
  531POPC   C4A10698  18.005   1.818   7.842
  531POPC   C1B10699  18.125   2.288   8.652
  531POPC   C2B10700  18.085   2.210   8.188
  531POPC   C3B10701  18.369   2.195   7.803
  531POPC   C4B10702  18.449   2.278   7.318
  532POPC   NC310703  33.444  26.473   9.718
  532POPC   PO410704  34.026  26.786   9.587
  532POPC   GL110705  33.803  26.867   9.203
  532POPC   GL210706  33.596  27.181   9.180
  532POPC   C1A10707  33.721  26.677   8.812
  532POPC   D2A10708  33.926  26.658   8.433
  532POPC   C3A10709  33.792  26.841   8.048
  532POPC   C4A10710  33.847  26.661   7.660
  532POPC   C1B10711  33.742  27.181   8.778
  532POPC   C2B10712  33.622  27.211   8.388
  532POPC   C3B10713  33.590  27.347   7.997
  532POPC   C4B10714  33.695  27.150   7.619
  533POPC   NC310715   8.839  19.615   9.626
  533POPC   PO410716   8.187  19.400   9.431
  533POPC   GL110717   8.050  19.288   9.005
  533POPC   GL210718   7.972  18.956   8.964
  533POPC   C1A10719   8.113  19.390   8.570
  533POPC   D2A10720   7.882  19.170   8.265
  533POPC   C3A10721   8.006  19.133   7.837
  533POPC   C4A10722   8.361  19.168   7.604
  533POPC   C1B10723   8.131  18.855   8.583
  533POPC   C2B10724   8.302  18.852   8.179
  533POPC   C3B10725   8.511  18.741   7.817
  533POPC   C4B10726   8.382  18.663   7.401
  534POPC   NC310727   4.611   0.448   9.460
  534POPC   PO410728   3.969   0.300   9.552
  534POPC   GL110729   3.994   0.315   9.123
  534POPC   GL210730   4.232   0.061   9.033
  534POPC   C1A10731   4.188   0.598   8.838
  534POPC   D2A10732   4.320   0.641   8.433
  534POPC   C3A10733   3.990   0.580   8.137
  534POPC   C4A10734   3.978   0.723   7.715
  534POPC   C1B10735   4.582   0.252   8.793
  534POPC   C2B10736   4.707   0.226   8.340
  534POPC   C3B10737   4.441   0.396   7.994
  534POPC   C4B10738   4.171   0.284   7.616
  535POPC   NC310739  24.933   7.949   9.526
  535POPC   PO410740  25.548   8.179   9.445
  535POPC   GL110741  25.296   7.949   9.176
  535POPC   GL210742  25.063   8.191   9.100
  535POPC   C1A10743  25.370   7.896   8.766
  535POPC   D2A10744  25.458   8.186   8.439
  535POPC   C3A10745  25.448   7.991   8.035
  535POPC   C4A10746  25.612   8.130   7.632
  535POPC   C1B10747  24.807   8.123   8.747
  535POPC   C2B10748  24.764   8.310   8.362
  535POPC   C3B10749  25.039   8.320   8.013
  535POPC   C4B10750  25.124   8.042   7.648
  536POPC   NC310751  15.352  29.449   9.448
  536POPC   PO410752  15.346  28.789   9.608
  536POPC   GL110753  15.433  28.988   9.207
  536POPC   GL210754  15.106  29.171   9.099
  536POPC   C1A10755  15.383  28.958   8.743
  536POPC   D2A10756  15.167  29.161   8.421
  536POPC   C3A10757  15.392  29.090   8.079
  536POPC   C4A10758  15.190  28.911   7.739
  536POPC   C1B10759  15.301  29.480   8.785
  536POPC   C2B10760  15.285  29.671   8.370
  536POPC   C3B10761  15.094  29.507   8.012
  536POPC   C4B10762  15.345  29.414   7.655
  537POPC   NC310763  30.802  44.898   9.399
  537POPC   PO410764  30.328  44.404   9.578
  537POPC   GL110765  30.506  44.513   9.183
  537POPC   GL210766  30.851  44.489   9.095
  537POPC   C1A10767  30.483  44.683   8.778
  537POPC   D2A10768  30.358  44.559   8.385
  537POPC   C3A10769  30.447  44.675   7.996
  537POPC   C4A10770  30.640  44.842   7.679
  537POPC   C1B10771  30.990  44.760   8.736
  537POPC   C2B10772  30.851  44.803   8.297
  537POPC   C3B10773  30.940  44.507   7.927
  537POPC   C4B10774  30.927  44.465   7.467
  538POPC   NC310775  22.851  34.102   9.781
  538POPC   PO410776  23.198  33.575   9.798
  538POPC   GL110777  22.976  33.849   9.383
  538POPC   GL210778  22.640  33.796   9.280
  538POPC   C1A10779  23.012  33.995   8.931
  538POPC   D2A10780  23.153  33.817   8.530
  538POPC   C3A10781  23.051  33.890   8.114
  538POPC   C4A10782  23.256  33.988   7.688
  538POPC   C1B10783  22.700  33.628   8.831
  538POPC   C2B10784  22.726  33.529   8.419
  538POPC   C3B10785  22.719  33.528   7.973
  538POPC   C4B10786  22.782  33.857   7.672
  539POPC   NC310787  44.623   8.923   9.722
  539POPC   PO410788  44.797   9.386   9.350
  539POPC   GL110789  44.507   9.107   9.101
  539POPC   GL210790  44.442   8.777   9.238
  539POPC   C1A10791  44.494   9.163   8.658
  539POPC   D2A10792  44.869   9.132   8.368
  539POPC   C3A10793  44.778   9.000   7.937
  539POPC   C4A10794  44.394   8.928   7.760
  539POPC   C1B10795  44.455   8.677   8.773
  539POPC   C2B10796  44.471   8.787   8.301
  539POPC   C3B10797  44.494   8.479   7.953
  539POPC   C4B10798  44.221   8.426   7.590
  540POPC   NC310799   7.481   5.131   9.389
  540POPC   PO410800   6.957   4.651   9.289
  540POPC   GL110801   7.155   4.990   9.049
  540POPC   GL210802   7.154   5.408   9.100
  540POPC   C1A10803   7.412   4.970   8.723
  540POPC   D2A10804   7.163   4.993   8.384
  540POPC   C3A10805   7.360   4.869   8.032
  540POPC   C4A10806   7.195   4.941   7.650
  540POPC   C1B10807   7.383   5.476   8.695
  540POPC   C2B10808   7.483   5.362   8.287
  540POPC   C3B10809   7.196   5.355   7.982
  540POPC   C4B10810   6.912   5.370   7.680
  541POPC   NC310811  26.370  25.754   9.371
  541POPC   PO410812  26.978  26.215   9.531
  541POPC   GL110813  26.860  26.127   9.138
  541POPC   GL210814  27.202  26.133   9.045
  541POPC   C1A10815  26.827  26.033   8.699
  541POPC   D2A10816  26.580  26.158   8.373
  541POPC   C3A10817  26.644  26.065   7.980
  541POPC   C4A10818  26.677  25.953   7.589
  541POPC   C1B10819  27.327  25.910   8.657
  541POPC   C2B10820  27.081  25.945   8.255
  541POPC   C3B10821  27.108  26.259   7.927
  541POPC   C4B10822  27.102  26.165   7.483
  542POPC   NC310823  21.707  11.528   9.810
  542POPC   PO410824  21.243  11.192   9.434
  542POPC   GL110825  21.462  11.412   9.153
  542POPC   GL210826  21.792  11.494   9.304
  542POPC   C1A10827  21.425  11.223   8.759
  542POPC   D2A10828  21.174  11.188   8.401
  542POPC   C3A10829  21.380  11.135   8.053
  542POPC   C4A10830  21.175  11.143   7.663
  542POPC   C1B10831  21.926  11.356   8.899
  542POPC   C2B10832  21.847  11.257   8.467
  542POPC   C3B10833  21.847  11.414   8.059
  542POPC   C4B10834  21.671  11.291   7.680
  543POPC   NC310835  31.797   3.986   9.524
  543POPC   PO410836  31.185   3.708   9.491
  543POPC   GL110837  31.525   3.699   9.174
  543POPC   GL210838  31.641   3.401   9.028
  543POPC   C1A10839  31.436   3.783   8.757
  543POPC   D2A10840  31.605   3.909   8.391
  543POPC   C3A10841  31.458   3.671   8.080
  543POPC   C4A10842  31.505   3.832   7.714
  543POPC   C1B10843  31.305   3.264   8.773
  543POPC   C2B10844  31.161   3.257   8.364
  543POPC   C3B10845  31.166   3.239   7.936
  543POPC   C4B10846  31.526   3.305   7.686
  544POPC   NC310847   3.359  30.354   9.549
  544POPC   PO410848   3.695  30.889   9.557
  544POPC   GL110849   3.881  30.567   9.264
  544POPC   GL210850   3.640  30.315   9.133
  544POPC   C1A10851   3.974  30.520   8.818
  544POPC   D2A10852   3.738  30.545   8.429
  544POPC   C3A10853   3.885  30.541   8.000
  544POPC   C4A10854   3.695  30.793   7.693
  544POPC   C1B10855   3.450  30.615   8.860
  544POPC   C2B10856   3.234  30.600   8.453
  544POPC   C3B10857   3.325  30.629   8.042
  544POPC   C4B10858   3.083  30.544   7.682
  545POPC   NC310859  32.919  40.709   9.457
  545POPC   PO410860  33.472  41.050   9.617
  545POPC   GL110861  33.228  41.042   9.211
  545POPC   GL210862  33.307  40.701   9.025
  545POPC   C1A10863  32.930  40.958   8.842
  545POPC   D2A10864  33.136  40.782   8.460
  545POPC   C3A10865  32.967  40.847   8.053
  545POPC   C4A10866  33.068  41.042   7.674
  545POPC   C1B10867  32.974  40.437   8.803
  545POPC   C2B10868  32.951  40.260   8.384
  545POPC   C3B10869  32.856  40.356   7.951
  545POPC   C4B10870  33.118  40.548   7.590
  546POPC   NC310871  33.696  39.652   9.586
  546POPC   PO410872  33.995  39.010   9.583
  546POPC   GL110873  33.951  39.256   9.194
  546POPC   GL210874  33.588  39.354   9.178
  546POPC   C1A10875  33.933  39.115   8.721
  546POPC   D2A10876  33.857  38.793   8.377
  546POPC   C3A10877  34.032  38.902   7.988
  546POPC   C4A10878  33.795  39.259   7.877
  546POPC   C1B10879  33.434  39.540   8.784
  546POPC   C2B10880  33.575  39.429   8.389
  546POPC   C3B10881  33.370  39.485   8.019
  546POPC   C4B10882  33.224  39.619   7.659
  547POPC   NC310883   1.943  39.099   9.328
  547POPC   PO410884   1.602  39.646   9.521
  547POPC   GL110885   1.762  39.519   9.123
  547POPC   GL210886   1.662  39.248   8.920
  547POPC   C1A10887   2.040  39.568   8.752
  547POPC   D2A10888   1.961  39.424   8.346
  547POPC   C3A10889   2.249  39.482   8.037
  547POPC   C4A10890   1.921  39.520   7.767
  547POPC   C1B10891   2.025  39.052   8.693
  547POPC   C2B10892   2.148  38.937   8.294
  547POPC   C3B10893   1.905  39.044   7.952
  547POPC   C4B10894   1.799  38.974   7.524
  548POPC   NC310895  27.444  43.945   9.506
  548POPC   PO410896  27.895  44.405   9.808
  548POPC   GL110897  27.936  44.196   9.307
  548POPC   GL210898  27.651  44.022   9.083
  548POPC   C1A10899  28.024  44.064   8.799
  548POPC   D2A10900  27.696  43.839   8.501
  548POPC   C3A10901  27.770  43.678   8.065
  548POPC   C4A10902  27.716  43.904   7.688
  548POPC   C1B10903  27.300  43.904   8.820
  548POPC   C2B10904  27.153  43.849   8.383
  548POPC   C3B10905  27.266  43.771   7.912
  548POPC   C4B10906  27.343  43.715   7.406
  549POPC   NC310907  35.418   6.690   9.576
  549POPC   PO410908  35.519   7.318   9.312
  549POPC   GL110909  35.259   6.971   9.105
  549POPC   GL210910  35.198   6.597   9.138
  549POPC   C1A10911  35.118   6.824   8.711
  549POPC   D2A10912  35.277   6.625   8.356
  549POPC   C3A10913  35.258   6.857   7.962
  549POPC   C4A10914  35.202   6.667   7.541
  549POPC   C1B10915  35.491   6.460   8.815
  549POPC   C2B10916  35.566   6.213   8.442
  549POPC   C3B10917  35.454   6.294   8.019
  549POPC   C4B10918  35.609   6.339   7.649
  550POPC   NC310919  42.347  22.580  10.131
  550POPC   PO410920  42.464  22.961   9.623
  550POPC   GL110921  42.501  23.129   9.188
  550POPC   GL210922  42.468  22.864   9.042
  550POPC   C1A10923  42.681  23.195   8.721
  550POPC   D2A10924  42.402  23.164   8.332
  550POPC   C3A10925  42.529  22.984   7.940
  550POPC   C4A10926  42.540  22.679   7.622
  550POPC   C1B10927  42.180  23.143   8.806
  550POPC   C2B10928  41.917  22.991   8.525
  550POPC   C3B10929  41.891  23.013   8.114
  550POPC   C4B10930  41.779  23.008   7.672
  551POPC   NC310931  40.477  21.171   9.250
  551POPC   PO410932  40.926  21.532   9.453
  551POPC   GL110933  40.801  21.509   9.044
  551POPC   GL210934  40.575  21.777   9.087
  551POPC   C1A10935  40.779  21.190   8.689
  551POPC   D2A10936  40.964  21.313   8.352
  551POPC   C3A10937  40.774  21.334   7.975
  551POPC   C4A10938  40.844  21.251   7.544
  551POPC   C1B10939  40.540  21.654   8.634
  551POPC   C2B10940  40.780  21.773   8.264
  551POPC   C3B10941  40.894  21.813   7.823
  551POPC   C4B10942  40.565  21.828   7.517
  552POPC   NC310943  18.585  27.908   9.632
  552POPC   PO410944  19.028  27.381   9.533
  552POPC   GL110945  18.818  27.597   9.212
  552POPC   GL210946  19.121  27.770   9.169
  552POPC   C1A10947  18.895  27.629   8.756
  552POPC   D2A10948  18.800  27.333   8.419
  552POPC   C3A10949  18.824  27.595   8.072
  552POPC   C4A10950  18.941  27.527   7.637
  552POPC   C1B10951  19.410  27.694   8.813
  552POPC   C2B10952  19.260  27.615   8.383
  552POPC   C3B10953  19.346  27.674   7.961
  552POPC   C4B10954  19.417  27.902   7.596
  553POPC   NC310955  35.462  44.946   9.482
  553POPC   PO410956  35.395   0.544   9.354
  553POPC   GL110957  35.325   0.271   9.047
  553POPC   GL210958  35.028   0.067   9.129
  553POPC   C1A10959  35.341   0.398   8.628
  553POPC   D2A10960  35.212   0.205   8.259
  553POPC   C3A10961  35.407   0.502   8.016
  553POPC   C4A10962  35.562   0.427   7.644
  553POPC   C1B10963  34.875   0.384   8.820
  553POPC   C2B10964  34.932   0.620   8.420
  553POPC   C3B10965  34.885   0.555   7.997
  553POPC   C4B10966  35.067   0.441   7.618
  554POPC   NC310967  20.971  11.586   9.477
  554POPC   PO410968  20.446  11.143   9.502
  554POPC   GL110969  20.587  11.383   9.151
  554POPC   GL210970  20.948  11.370   9.027
  554POPC   C1A10971  20.574  11.154   8.748
  554POPC   D2A10972  20.661  11.234   8.327
  554POPC   C3A10973  20.473  11.068   7.939
  554POPC   C4A10974  20.585  11.197   7.495
  554POPC   C1B10975  21.039  11.585   8.668
  554POPC   C2B10976  20.935  11.642   8.243
  554POPC   C3B10977  20.835  11.442   7.882
  554POPC   C4B10978  20.989  11.621   7.496
  555POPC   NC310979  28.811  33.491   9.333
  555POPC   PO410980  29.218  33.993   9.465
  555POPC   GL110981  29.115  33.828   9.082
  555POPC   GL210982  29.285  33.511   8.976
  555POPC   C1A10983  29.242  33.918   8.679
  555POPC   D2A10984  29.307  33.613   8.380
  555POPC   C3A10985  29.117  33.800   8.014
  555POPC   C4A10986  28.996  33.866   7.577
  555POPC   C1B10987  28.905  33.477   8.691
  555POPC   C2B10988  28.682  33.638   8.327
  555POPC   C3B10989  28.668  33.575   7.889
  555POPC   C4B10990  28.816  33.353   7.578
  556POPC   NC310991  33.882  13.325   9.476
  556POPC   PO410992  33.495  13.847   9.590
  556POPC   GL110993  33.652  13.693   9.198
  556POPC   GL210994  33.476  13.354   9.141
  556POPC   C1A10995  33.914  13.617   8.802
  556POPC   D2A10996  33.813  13.431   8.376
  556POPC   C3A10997  34.025  13.539   7.959
  556POPC   C4A10998  34.150  13.911   7.790
  556POPC   C1B10999  33.420  13.631   8.764
  556POPC   C2B11000  33.479  13.858   8.384
  556POPC   C3B11001  33.574  13.741   7.971
  556POPC   C4B11002  33.688  13.553   7.566
  557POPC   NC311003   5.393  19.984   9.838
  557POPC   PO411004   5.899  19.790   9.484
  557POPC   GL111005   5.940  19.658   9.101
  557POPC   GL211006   5.633  19.801   9.044
  557POPC   C1A11007   5.950  19.684   8.675
  557POPC   D2A11008   5.899  19.852   8.316
  557POPC   C3A11009   6.170  19.639   8.026
  557POPC   C4A11010   5.955  19.332   7.778
  557POPC   C1B11011   5.544  20.038   8.691
  557POPC   C2B11012   5.338  20.235   8.374
  557POPC   C3B11013   5.485  20.146   7.961
  557POPC   C4B11014   5.739  19.804   7.832
  558POPC   NC311015  14.405  40.712   9.654
  558POPC   PO411016  14.811  41.093   9.189
  558POPC   GL111017  14.549  40.770   9.136
  558POPC   GL211018  14.786  40.540   9.168
  558POPC   C1A11019  14.332  40.832   8.756
  558POPC   D2A11020  14.474  41.006   8.367
  558POPC   C3A11021  14.209  40.903   8.029
  558POPC   C4A11022  14.260  41.004   7.616
  558POPC   C1B11023  14.705  40.408   8.771
  558POPC   C2B11024  14.503  40.481   8.405
  558POPC   C3B11025  14.637  40.637   8.019
  558POPC   C4B11026  14.478  40.554   7.594
  559POPC   NC311027   0.243  25.129   9.578
  559POPC   PO411028   0.875  24.761   9.409
  559POPC   GL111029   0.498  24.917   9.136
  559POPC   GL211030   0.307  25.248   9.083
  559POPC   C1A11031   0.429  24.983   8.684
  559POPC   D2A11032   0.307  25.308   8.394
  559POPC   C3A11033   0.408  25.099   8.020
  559POPC   C4A11034   0.187  24.998   7.661
  559POPC   C1B11035   0.627  25.421   8.779
  559POPC   C2B11036   0.831  25.277   8.423
  559POPC   C3B11037   0.748  25.463   8.064
  559POPC   C4B11038   0.748  25.332   7.657
  560POPC   NC311039  23.301  30.439   9.603
  560POPC   PO411040  23.078  31.102   9.440
  560POPC   GL111041  22.875  30.802   9.178
  560POPC   GL211042  22.990  30.444   9.124
  560POPC   C1A11043  22.737  30.740   8.764
  560POPC   D2A11044  22.929  30.712   8.342
  560POPC   C3A11045  22.760  30.805   7.936
  560POPC   C4A11046  23.153  30.881   7.737
  560POPC   C1B11047  23.049  30.323   8.690
  560POPC   C2B11048  22.917  30.199   8.276
  560POPC   C3B11049  23.045  30.374   7.880
  560POPC   C4B11050  23.064  30.419   7.411
  561POPC   NC311051   2.138  13.806   9.595
  561POPC   PO411052   1.459  13.586   9.586
  561POPC   GL111053   1.587  13.628   9.140
  561POPC   GL211054   1.898  13.825   9.158
  561POPC   C1A11055   1.881  13.427   8.809
  561POPC   D2A11056   2.283  13.383   8.566
  561POPC   C3A11057   2.242  13.447   8.102
  561POPC   C4A11058   1.882  13.388   7.798
  561POPC   C1B11059   1.810  13.937   8.771
  561POPC   C2B11060   2.026  13.829   8.422
  561POPC   C3B11061   1.909  13.846   8.023
  561POPC   C4B11062   2.198  13.788   7.700
  562POPC   NC311063  38.369  18.605   9.492
  562POPC   PO411064  38.711  19.206   9.517
  562POPC   GL111065  38.756  19.127   9.090
  562POPC   GL211066  38.757  18.766   9.168
  562POPC   C1A11067  38.619  19.291   8.637
  562POPC   D2A11068  38.299  19.160   8.274
  562POPC   C3A11069  38.387  19.174   7.799
  562POPC   C4A11070  38.517  19.339   7.337
  562POPC   C1B11071  38.555  18.636   8.809
  562POPC   C2B11072  38.680  18.829   8.442
  562POPC   C3B11073  38.693  18.857   8.040
  562POPC   C4B11074  38.485  18.642   7.758
  563POPC   NC311075   6.513   3.015   9.347
  563POPC   PO411076   6.671   2.435   9.734
  563POPC   GL111077   6.837   2.615   9.290
  563POPC   GL211078   7.042   2.959   9.347
  563POPC   C1A11079   6.711   2.700   8.813
  563POPC   D2A11080   6.423   2.556   8.488
  563POPC   C3A11081   6.417   2.599   8.021
  563POPC   C4A11082   6.782   2.633   7.747
  563POPC   C1B11083   7.131   2.977   8.896
  563POPC   C2B11084   7.054   3.121   8.463
  563POPC   C3B11085   7.058   2.954   8.035
  563POPC   C4B11086   6.981   3.149   7.613
  564POPC   NC311087   1.467  42.128   9.359
  564POPC   PO411088   1.154  42.785   9.429
  564POPC   GL111089   1.450  42.570   9.112
  564POPC   GL211090   1.241  42.288   8.921
  564POPC   C1A11091   1.638  42.475   8.705
  564POPC   D2A11092   1.421  42.314   8.360
  564POPC   C3A11093   1.268  42.505   7.978
  564POPC   C4A11094   1.007  42.444   7.578
  564POPC   C1B11095   1.198  41.921   8.604
  564POPC   C2B11096   1.082  41.975   8.177
  564POPC   C3B11097   1.226  42.023   7.769
  564POPC   C4B11098   1.259  42.042   7.298
  565POPC   NC311099  19.490  31.477   9.595
  565POPC   PO411100  20.174  31.429   9.551
  565POPC   GL111101  19.915  31.330   9.180
  565POPC   GL211102  19.636  31.565   9.117
  565POPC   C1A11103  19.743  31.251   8.756
  565POPC   D2A11104  19.510  31.418   8.416
  565POPC   C3A11105  19.648  31.282   8.017
  565POPC   C4A11106  20.043  31.264   7.808
  565POPC   C1B11107  19.741  31.768   8.721
  565POPC   C2B11108  19.735  31.919   8.294
  565POPC   C3B11109  19.877  31.795   7.868
  565POPC   C4B11110  19.959  31.923   7.397
  566POPC   NC311111  44.979   1.421   9.598
  566POPC   PO411112  44.326   1.126   9.568
  566POPC   GL111113  44.524   1.274   9.183
  566POPC   GL211114  44.873   1.161   9.115
  566POPC   C1A11115  44.570   1.423   8.751
  566POPC   D2A11116  44.830   1.374   8.400
  566POPC   C3A11117  44.654   1.298   8.032
  566POPC   C4A11118  44.297   1.265   7.775
  566POPC   C1B11119  44.930   0.948   8.707
  566POPC   C2B11120  44.919   0.880   8.259
  566POPC   C3B11121  44.899   0.928   7.828
  566POPC   C4B11122   0.089   0.943   7.400
  567POPC   NC311123  22.431   0.973   9.372
  567POPC   PO411124  23.033   1.088   9.421
  567POPC   GL111125  22.812   1.165   9.077
  567POPC   GL211126  22.866   1.519   9.125
  567POPC   C1A11127  22.810   0.978   8.661
  567POPC   D2A11128  22.721   0.711   8.318
  567POPC   C3A11129  22.860   0.908   7.954
  567POPC   C4A11130  23.174   1.216   7.848
  567POPC   C1B11131  23.005   1.451   8.717
  567POPC   C2B11132  23.033   1.394   8.315
  567POPC   C3B11133  23.406   1.549   8.165
  567POPC   C4B11134  23.444   1.666   7.757
  568POPC   NC311135   1.855   1.247   9.535
  568POPC   PO411136   2.476   0.924   9.428
  568POPC   GL111137   2.080   1.072   9.109
  568POPC   GL211138   1.729   1.302   9.066
  568POPC   C1A11139   1.931   1.086   8.668
  568POPC   D2A11140   1.971   0.822   8.357
  568POPC   C3A11141   1.870   0.980   7.996
  568POPC   C4A11142   2.107   1.203   7.729
  568POPC   C1B11143   1.584   1.488   8.685
  568POPC   C2B11144   1.713   1.380   8.254
  568POPC   C3B11145   1.579   1.359   7.798
  568POPC   C4B11146   1.418   1.537   7.364
  569POPC   NC311147  42.704  29.170   9.569
  569POPC   PO411148  42.023  29.243   9.617
  569POPC   GL111149  42.215  29.223   9.203
  569POPC   GL211150  42.325  28.915   9.264
  569POPC   C1A11151  42.248  29.436   8.783
  569POPC   D2A11152  41.986  29.714   8.494
  569POPC   C3A11153  41.912  29.411   8.153
  569POPC   C4A11154  42.241  29.222   7.914
  569POPC   C1B11155  42.398  28.911   8.821
  569POPC   C2B11156  42.496  29.045   8.419
  569POPC   C3B11157  42.604  28.873   8.041
  569POPC   C4B11158  42.222  28.703   7.881
  570POPC   NC311159  28.941  44.654   9.523
  570POPC   PO411160  29.521  44.307   9.515
  570POPC   GL111161  29.245  44.493   9.171
  570POPC   GL211162  29.128  44.820   9.078
  570POPC   C1A11163  29.075  44.444   8.766
  570POPC   D2A11164  29.052  44.726   8.406
  570POPC   C3A11165  29.023  44.525   8.008
  570POPC   C4A11166  28.885  44.612   7.580
  570POPC   C1B11167  29.433  44.886   8.752
  570POPC   C2B11168  29.494  44.979   8.325
  570POPC   C3B11169  29.507  44.722   7.986
  570POPC   C4B11170  29.332  44.841   7.622
  571POPC   NC311171  11.616  35.096   9.615
  571POPC   PO411172  12.316  35.341   9.505
  571POPC   GL111173  11.995  35.318   9.200
  571POPC   GL211174  11.926  35.676   9.084
  571POPC   C1A11175  11.908  35.149   8.777
  571POPC   D2A11176  11.863  35.404   8.377
  571POPC   C3A11177  11.881  35.143   8.001
  571POPC   C4A11178  12.239  34.936   7.802
  571POPC   C1B11179  12.235  35.544   8.761
  571POPC   C2B11180  12.367  35.575   8.324
  571POPC   C3B11181  12.277  35.464   7.853
  571POPC   C4B11182  12.431  35.700   7.454
  572POPC   NC311183  34.035  25.263   9.475
  572POPC   PO411184  33.404  25.195   9.473
  572POPC   GL111185  33.573  25.075   9.082
  572POPC   GL211186  33.711  25.398   9.101
  572POPC   C1A11187  33.720  25.195   8.641
  572POPC   D2A11188  33.569  25.398   8.252
  572POPC   C3A11189  33.612  25.156   7.893
  572POPC   C4A11190  34.044  25.064   7.939
  572POPC   C1B11191  34.064  25.544   8.874
  572POPC   C2B11192  34.111  25.542   8.422
  572POPC   C3B11193  33.969  25.656   8.007
  572POPC   C4B11194  33.989  25.466   7.617
  573POPC   NC311195  42.212  19.771   9.426
  573POPC   PO411196  42.834  19.844   9.560
  573POPC   GL111197  42.650  19.848   9.156
  573POPC   GL211198  42.523  19.508   9.086
  573POPC   C1A11199  42.550  19.883   8.700
  573POPC   D2A11200  42.641  19.743   8.266
  573POPC   C3A11201  42.490  19.945   7.884
  573POPC   C4A11202  42.126  20.240   7.825
  573POPC   C1B11203  42.147  19.573   8.799
  573POPC   C2B11204  42.141  19.692   8.373
  573POPC   C3B11205  42.153  19.561   7.958
  573POPC   C4B11206  42.135  19.728   7.585
  574POPC   NC311207  33.179  20.550   9.287
  574POPC   PO411208  32.587  20.269   9.374
  574POPC   GL111209  32.696  20.593   9.045
  574POPC   GL211210  32.946  20.428   8.857
  574POPC   C1A11211  32.755  20.853   8.638
  574POPC   D2A11212  32.949  20.608   8.343
  574POPC   C3A11213  33.070  20.607   7.935
  574POPC   C4A11214  32.762  20.675   7.686
  574POPC   C1B11215  33.345  20.381   8.678
  574POPC   C2B11216  33.431  20.411   8.294
  574POPC   C3B11217  33.338  20.186   7.963
  574POPC   C4B11218  33.522  20.375   7.707
  575POPC   NC311219  16.611  19.688   9.528
  575POPC   PO411220  16.840  20.288   9.394
  575POPC   GL111221  16.500  20.068   9.106
  575POPC   GL211222  16.366  19.721   9.081
  575POPC   C1A11223  16.516  20.082   8.662
  575POPC   D2A11224  16.863  20.183   8.362
  575POPC   C3A11225  16.791  20.074   7.939
  575POPC   C4A11226  16.394  19.990   7.766
  575POPC   C1B11227  16.781  19.685   8.883
  575POPC   C2B11228  16.920  19.675   8.480
  575POPC   C3B11229  16.694  19.568   8.127
  575POPC   C4B11230  16.744  19.601   7.699
  576POPC   NC311231  10.929  21.829   9.371
  576POPC   PO411232  11.342  22.391   9.579
  576POPC   GL111233  11.208  22.249   9.204
  576POPC   GL211234  11.361  21.948   9.134
  576POPC   C1A11235  11.089  22.291   8.787
  576POPC   D2A11236  10.961  22.083   8.427
  576POPC   C3A11237  11.126  22.267   8.063
  576POPC   C4A11238  11.503  22.434   7.885
  576POPC   C1B11239  11.346  21.832   8.707
  576POPC   C2B11240  11.430  21.861   8.277
  576POPC   C3B11241  11.425  21.893   7.864
  576POPC   C4B11242  11.445  21.803   7.440
  577POPC   NC311243   2.975  24.280   9.520
  577POPC   PO411244   2.624  24.802   9.504
  577POPC   GL111245   2.701  24.602   9.113
  577POPC   GL211246   2.693  24.246   9.097
  577POPC   C1A11247   2.659  24.571   8.663
  577POPC   D2A11248   2.862  24.705   8.253
  577POPC   C3A11249   2.757  24.452   7.874
  577POPC   C4A11250   2.562  24.383   7.445
  577POPC   C1B11251   2.944  24.124   8.770
  577POPC   C2B11252   2.855  24.193   8.342
  577POPC   C3B11253   3.048  24.048   7.967
  577POPC   C4B11254   2.735  23.946   7.680
  578POPC   NC311255  43.379  32.535   9.311
  578POPC   PO411256  43.001  31.985   9.556
  578POPC   GL111257  42.988  32.183   9.189
  578POPC   GL211258  43.302  32.058   9.083
  578POPC   C1A11259  42.845  32.207   8.767
  578POPC   D2A11260  42.942  31.982   8.413
  578POPC   C3A11261  43.133  32.153   8.021
  578POPC   C4A11262  43.087  31.910   7.643
  578POPC   C1B11263  43.553  32.255   8.770
  578POPC   C2B11264  43.438  32.426   8.394
  578POPC   C3B11265  43.653  32.333   8.039
  578POPC   C4B11266  43.557  32.151   7.687
  579POPC   NC311267  18.202   6.288   9.927
  579POPC   PO411268  18.266   5.784   9.627
  579POPC   GL111269  18.219   5.638   9.182
  579POPC   GL211270  17.964   5.418   9.060
  579POPC   C1A11271  18.416   5.559   8.780
  579POPC   D2A11272  18.591   5.731   8.406
  579POPC   C3A11273  18.509   5.607   7.977
  579POPC   C4A11274  18.421   5.920   7.664
  579POPC   C1B11275  17.937   5.605   8.634
  579POPC   C2B11276  18.100   5.765   8.239
  579POPC   C3B11277  17.993   5.650   7.799
  579POPC   C4B11278  17.814   5.423   7.414
  580POPC   NC311279  34.534  35.811   9.397
  580POPC   PO411280  34.382  36.515   9.564
  580POPC   GL111281  34.333  36.226   9.190
  580POPC   GL211282  34.660  36.193   9.083
  580POPC   C1A11283  34.229  35.977   8.788
  580POPC   D2A11284  34.310  35.802   8.340
  580POPC   C3A11285  34.363  36.124   7.994
  580POPC   C4A11286  34.705  36.390   7.830
  580POPC   C1B11287  34.731  35.948   8.730
  580POPC   C2B11288  34.761  36.068   8.324
  580POPC   C3B11289  34.991  35.989   7.989
  580POPC   C4B11290  35.003  35.872   7.615
  581POPC   NC311291  14.721  39.072   9.667
  581POPC   PO411292  15.329  39.243   9.558
  581POPC   GL111293  15.366  39.109   9.151
  581POPC   GL211294  15.348  39.444   9.045
  581POPC   C1A11295  15.177  39.041   8.748
  581POPC   D2A11296  15.160  39.316   8.406
  581POPC   C3A11297  15.055  39.106   8.044
  581POPC   C4A11298  15.129  38.980   7.620
  581POPC   C1B11299  14.941  39.517   8.849
  581POPC   C2B11300  14.774  39.670   8.452
  581POPC   C3B11301  14.960  39.677   8.073
  581POPC   C4B11302  15.081  39.490   7.691
  582POPC   NC311303  27.912  12.894   9.485
  582POPC   PO411304  28.461  12.655   9.759
  582POPC   GL111305  28.492  12.628   9.255
  582POPC   GL211306  28.160  12.655   9.102
  582POPC   C1A11307  28.602  12.755   8.822
  582POPC   D2A11308  28.364  12.716   8.430
  582POPC   C3A11309  28.522  12.896   8.066
  582POPC   C4A11310  28.427  12.787   7.680
  582POPC   C1B11311  28.125  12.978   8.777
  582POPC   C2B11312  28.120  13.177   8.365
  582POPC   C3B11313  28.069  13.074   7.975
  582POPC   C4B11314  28.187  13.215   7.610
  583POPC   NC311315   2.184  34.285   9.499
  583POPC   PO411316   1.713  33.676   9.529
  583POPC   GL111317   1.982  33.704   9.112
  583POPC   GL211318   2.260  33.957   9.110
  583POPC   C1A11319   1.991  33.813   8.658
  583POPC   D2A11320   1.649  33.861   8.376
  583POPC   C3A11321   1.721  33.990   7.995
  583POPC   C4A11322   2.011  33.670   7.880
  583POPC   C1B11323   2.522  33.978   8.741
  583POPC   C2B11324   2.369  34.006   8.311
  583POPC   C3B11325   2.269  34.105   7.897
  583POPC   C4B11326   1.996  34.114   7.591
  584POPC   NC311327  30.131  24.761   9.473
  584POPC   PO411328  29.746  24.232   9.433
  584POPC   GL111329  29.733  24.446   9.080
  584POPC   GL211330  29.555  24.730   9.174
  584POPC   C1A11331  29.960  24.408   8.696
  584POPC   D2A11332  30.099  24.234   8.301
  584POPC   C3A11333  30.270  24.563   8.065
  584POPC   C4A11334  30.256  24.667   7.686
  584POPC   C1B11335  29.622  24.808   8.725
  584POPC   C2B11336  29.934  24.783   8.369
  584POPC   C3B11337  29.862  24.877   7.952
  584POPC   C4B11338  29.794  24.793   7.526
  585POPC   NC311339  39.860   8.864   9.447
  585POPC   PO411340  39.971   9.511   9.712
  585POPC   GL111341  39.889   9.336   9.261
  585POPC   GL211342  40.175   9.144   9.158
  585POPC   C1A11343  39.815   9.352   8.806
  585POPC   D2A11344  39.971   9.132   8.439
  585POPC   C3A11345  39.976   9.251   8.004
  585POPC   C4A11346  39.955   8.862   7.731
  585POPC   C1B11347  40.377   9.196   8.757
  585POPC   C2B11348  40.506   9.043   8.359
  585POPC   C3B11349  40.415   9.007   7.920
  585POPC   C4B11350  40.274   9.265   7.561
  586POPC   NC311351  16.013  38.223   9.612
  586POPC   PO411352  15.900  37.497   9.558
  586POPC   GL111353  15.802  37.625   9.126
  586POPC   GL211354  15.849  37.977   9.177
  586POPC   C1A11355  15.878  37.611   8.662
  586POPC   D2A11356  16.093  37.593   8.244
  586POPC   C3A11357  16.068  37.513   7.804
  586POPC   C4A11358  16.240  37.628   7.404
  586POPC   C1B11359  15.864  38.107   8.753
  586POPC   C2B11360  15.698  37.959   8.327
  586POPC   C3B11361  15.860  37.975   7.901
  586POPC   C4B11362  15.752  37.801   7.477
  587POPC   NC311363  18.134  13.866   9.427
  587POPC   PO411364  18.825  13.856   9.629
  587POPC   GL111365  18.529  13.634   9.214
  587POPC   GL211366  18.229  13.401   9.229
  587POPC   C1A11367  18.285  13.714   8.796
  587POPC   D2A11368  18.422  13.902   8.434
  587POPC   C3A11369  18.255  13.700   8.085
  587POPC   C4A11370  18.439  13.691   7.694
  587POPC   C1B11371  18.158  13.230   8.830
  587POPC   C2B11372  17.979  13.426   8.478
  587POPC   C3B11373  17.855  13.353   8.073
  587POPC   C4B11374  18.081  13.328   7.708
  588POPC   NC311375  12.249   3.568   9.485
  588POPC   PO411376  12.422   3.090   9.252
  588POPC   GL111377  12.056   3.320   9.051
  588POPC   GL211378  11.900   3.654   9.105
  588POPC   C1A11379  11.941   3.396   8.614
  588POPC   D2A11380  12.208   3.335   8.247
  588POPC   C3A11381  12.152   3.482   7.816
  588POPC   C4A11382  12.357   3.362   7.411
  588POPC   C1B11383  12.109   3.855   8.751
  588POPC   C2B11384  12.063   3.852   8.291
  588POPC   C3B11385  12.320   3.950   7.916
  588POPC   C4B11386  12.294   3.875   7.454
  589POPC   NC311387  25.506  44.919   9.423
  589POPC   PO411388  25.225  44.348   9.524
  589POPC   GL111389  25.169  44.587   9.165
  589POPC   GL211390  24.827  44.648   9.191
  589POPC   C1A11391  25.385  44.609   8.756
  589POPC   D2A11392  25.229  44.618   8.313
  589POPC   C3A11393  25.512  44.658   7.943
  589POPC   C4A11394  25.588  44.761   7.486
  589POPC   C1B11395  24.913  44.904   8.808
  589POPC   C2B11396  24.896   0.092   8.386
  589POPC   C3B11397  25.129   0.039   7.999
  589POPC   C4B11398  25.105  44.784   7.623
  590POPC   NC311399  34.218  38.590   9.680
  590POPC   PO411400  33.685  38.302   9.415
  590POPC   GL111401  33.979  38.634   9.219
  590POPC   GL211402  33.755  38.806   9.093
  590POPC   C1A11403  34.144  38.629   8.778
  590POPC   D2A11404  34.079  38.315   8.420
  590POPC   C3A11405  34.173  38.387   7.980
  590POPC   C4A11406  34.032  38.503   7.566
  590POPC   C1B11407  33.609  38.533   8.760
  590POPC   C2B11408  33.444  38.468   8.326
  590POPC   C3B11409  33.636  38.515   7.915
  590POPC   C4B11410  33.694  38.839   7.603
  591POPC   NC311411  40.547   7.750   9.396
  591POPC   PO411412  40.708   7.077   9.477
  591POPC   GL111413  40.870   7.381   9.146
  591POPC   GL211414  40.543   7.370   9.001
  591POPC   C1A11415  40.918   7.463   8.660
  591POPC   D2A11416  40.590   7.417   8.319
  591POPC   C3A11417  40.637   7.239   7.878
  591POPC   C4A11418  40.947   6.982   7.584
  591POPC   C1B11419  40.509   7.759   8.753
  591POPC   C2B11420  40.369   7.882   8.346
  591POPC   C3B11421  40.419   7.757   7.939
  591POPC   C4B11422  40.827   7.747   7.808
  592POPC   NC311423  43.146  14.597   9.280
  592POPC   PO411424  43.017  15.176   9.610
  592POPC   GL111425  43.031  15.115   9.129
  592POPC   GL211426  43.380  15.170   9.070
  592POPC   C1A11427  43.131  15.065   8.631
  592POPC   D2A11428  43.125  15.047   8.162
  592POPC   C3A11429  42.788  15.271   7.914
  592POPC   C4A11430  42.764  15.165   7.476
  592POPC   C1B11431  43.477  15.481   8.752
  592POPC   C2B11432  43.356  15.701   8.373
  592POPC   C3B11433  43.259  15.512   7.957
  592POPC   C4B11434  43.232  15.166   7.667
  593POPC   NC311435  31.997  36.526   9.589
  593POPC   PO411436  32.143  35.894   9.694
  593POPC   GL111437  32.195  36.166   9.260
  593POPC   GL211438  31.923  36.195   9.116
  593POPC   C1A11439  32.297  36.283   8.786
  593POPC   D2A11440  32.276  35.960   8.425
  593POPC   C3A11441  32.312  36.072   7.983
  593POPC   C4A11442  32.238  36.463   7.821
  593POPC   C1B11443  31.831  36.109   8.682
  593POPC   C2B11444  31.855  36.249   8.257
  593POPC   C3B11445  31.772  35.983   7.925
  593POPC   C4B11446  31.965  35.816   7.591
  594POPC   NC311447  29.296  36.888   9.643
  594POPC   PO411448  28.706  36.733   9.804
  594POPC   GL111449  29.077  36.638   9.289
  594POPC   GL211450  29.369  36.873   9.143
  594POPC   C1A11451  29.062  36.651   8.821
  594POPC   D2A11452  29.354  36.766   8.484
  594POPC   C3A11453  29.198  36.726   8.052
  594POPC   C4A11454  29.412  36.780   7.713
  594POPC   C1B11455  29.180  37.159   8.795
  594POPC   C2B11456  29.084  37.184   8.333
  594POPC   C3B11457  29.089  37.234   7.886
  594POPC   C4B11458  28.753  37.383   7.586
  595POPC   NC311459  20.800  12.727   9.310
  595POPC   PO411460  20.228  12.929   9.306
  595POPC   GL111461  20.365  12.676   8.990
  595POPC   GL211462  20.603  12.930   8.901
  595POPC   C1A11463  20.310  12.728   8.546
  595POPC   D2A11464  20.601  13.022   8.394
  595POPC   C3A11465  20.683  12.908   8.002
  595POPC   C4A11466  20.819  12.833   7.615
  595POPC   C1B11467  20.797  12.598   8.657
  595POPC   C2B11468  20.813  12.487   8.247
  595POPC   C3B11469  21.097  12.534   7.893
  595POPC   C4B11470  21.131  12.500   7.402
  596POPC   NC311471  33.001  22.408   9.437
  596POPC   PO411472  32.991  21.860   9.733
  596POPC   GL111473  32.931  21.916   9.247
  596POPC   GL211474  32.679  22.111   9.146
  596POPC   C1A11475  33.018  21.964   8.797
  596POPC   D2A11476  32.941  22.195   8.417
  596POPC   C3A11477  33.178  22.192   8.115
  596POPC   C4A11478  33.220  21.966   7.770
  596POPC   C1B11479  32.547  22.260   8.748
  596POPC   C2B11480  32.470  22.386   8.319
  596POPC   C3B11481  32.686  22.254   7.975
  596POPC   C4B11482  32.835  22.248   7.570
  597POPC   NC311483  44.086  14.896   9.429
  597POPC   PO411484  43.622  14.430   9.485
  597POPC   GL111485  43.855  14.501   9.147
  597POPC   GL211486  43.639  14.744   9.087
  597POPC   C1A11487  43.945  14.486   8.713
  597POPC   D2A11488  43.764  14.236   8.358
  597POPC   C3A11489  43.884  14.333   7.945
  597POPC   C4A11490  44.130  14.014   7.741
  597POPC   C1B11491  43.605  14.866   8.690
  597POPC   C2B11492  43.775  14.746   8.291
  597POPC   C3B11493  43.516  14.777   7.937
  597POPC   C4B11494  43.571  14.843   7.490
  598POPC   NC311495  31.338  27.509   9.592
  598POPC   PO411496  31.487  28.057   9.193
  598POPC   GL111497  31.381  27.647   9.114
  598POPC   GL211498  31.637  27.353   9.222
  598POPC   C1A11499  31.154  27.646   8.731
  598POPC   D2A11500  31.189  28.037   8.477
  598POPC   C3A11501  31.263  27.928   8.059
  598POPC   C4A11502  31.418  27.621   7.790
  598POPC   C1B11503  31.645  27.382   8.788
  598POPC   C2B11504  31.560  27.591   8.385
  598POPC   C3B11505  31.853  27.546   8.059
  598POPC   C4B11506  31.969  27.663   7.654
  599POPC   NC311507  27.062  25.318   9.947
  599POPC   PO411508  26.600  25.330   9.414
  599POPC   GL111509  26.965  25.346   9.171
  599POPC   GL211510  27.022  25.649   9.029
  599POPC   C1A11511  26.910  25.115   8.803
  599POPC   D2A11512  26.690  25.134   8.403
  599POPC   C3A11513  26.871  25.075   8.045
  599POPC   C4A11514  26.723  25.003   7.643
  599POPC   C1B11515  26.650  25.559   8.746
  599POPC   C2B11516  26.621  25.646   8.302
  599POPC   C3B11517  26.846  25.582   7.925
  599POPC   C4B11518  27.194  25.710   7.663
  600POPC   NC311519   2.708  35.257   9.707
  600POPC   PO411520   2.382  35.500   9.097
  600POPC   GL111521   2.718  35.498   8.971
  600POPC   GL211522   2.907  35.559   9.210
  600POPC   C1A11523   2.989  35.222   8.787
  600POPC   D2A11524   3.087  35.243   8.364
  600POPC   C3A11525   2.805  35.284   8.029
  600POPC   C4A11526   2.439  35.489   7.867
  600POPC   C1B11527   3.165  35.717   8.864
  600POPC   C2B11528   3.247  35.742   8.419
  600POPC   C3B11529   3.123  35.714   7.987
  600POPC   C4B11530   3.105  35.936   7.615
  601POPC   NC311531  44.531  41.038   9.510
  601POPC   PO411532  44.947  40.412   9.437
  601POPC   GL111533  44.668  40.645   9.199
  601POPC   GL211534  44.944  40.911   9.191
  601POPC   C1A11535  44.463  40.568   8.800
  601POPC   D2A11536  44.770  40.553   8.432
  601POPC   C3A11537  44.652  40.636   8.006
  601POPC   C4A11538  44.904  40.883   7.771
  601POPC   C1B11539  44.762  40.967   8.794
  601POPC   C2B11540  44.633  41.041   8.352
  601POPC   C3B11541  44.384  41.093   8.008
  601POPC   C4B11542  44.425  40.934   7.595
  602POPC   NC311543  37.626   7.772   9.449
  602POPC   PO411544  37.203   7.217   9.463
  602POPC   GL111545  37.466   7.294   9.061
  602POPC   GL211546  37.804   7.490   9.058
  602POPC   C1A11547  37.589   7.440   8.612
  602POPC   D2A11548  37.729   7.701   8.263
  602POPC   C3A11549  37.673   7.447   7.949
  602POPC   C4A11550  37.941   7.110   7.805
  602POPC   C1B11551  38.021   7.741   8.689
  602POPC   C2B11552  38.235   7.658   8.242
  602POPC   C3B11553  38.133   7.586   7.754
  602POPC   C4B11554  38.051   7.666   7.270
  603POPC   NC311555  35.237  15.193   9.686
  603POPC   PO411556  34.602  15.535   9.674
  603POPC   GL111557  35.017  15.479   9.332
  603POPC   GL211558  35.135  15.089   9.196
  603POPC   C1A11559  35.369  15.469   8.977
  603POPC   D2A11560  35.443  15.355   8.519
  603POPC   C3A11561  35.538  15.185   8.088
  603POPC   C4A11562  35.626  14.970   7.688
  603POPC   C1B11563  35.150  14.965   8.754
  603POPC   C2B11564  34.967  15.196   8.378
  603POPC   C3B11565  35.034  15.202   7.925
  603POPC   C4B11566  35.071  15.558   7.650
  604POPC   NC311567  37.443  28.152   9.720
  604POPC   PO411568  36.738  28.194   9.649
  604POPC   GL111569  36.780  28.388   9.253
  604POPC   GL211570  36.495  28.536   9.089
  604POPC   C1A11571  36.962  28.474   8.866
  604POPC   D2A11572  36.818  28.333   8.487
  604POPC   C3A11573  37.068  28.067   8.235
  604POPC   C4A11574  36.999  27.969   7.813
  604POPC   C1B11575  36.576  28.798   8.701
  604POPC   C2B11576  36.871  28.832   8.332
  604POPC   C3B11577  36.863  28.522   7.986
  604POPC   C4B11578  37.088  28.414   7.613
  605POPC   NC311579  27.136  29.453   9.487
  605POPC   PO411580  26.871  28.778   9.477
  605POPC   GL111581  26.767  29.154   9.210
  605POPC   GL211582  26.407  29.296   9.169
  605POPC   C1A11583  26.903  29.213   8.806
  605POPC   D2A11584  27.091  29.133   8.428
  605POPC   C3A11585  27.006  29.425   8.116
  605POPC   C4A11586  26.820  29.409   7.736
  605POPC   C1B11587  26.472  29.486   8.785
  605POPC   C2B11588  26.579  29.298   8.396
  605POPC   C3B11589  26.565  29.084   8.019
  605POPC   C4B11590  26.648  28.921   7.612
  606POPC   NC311591  22.656  28.769   9.594
  606POPC   PO411592  22.271  28.172   9.591
  606POPC   GL111593  22.232  28.551   9.308
  606POPC   GL211594  22.280  28.280   9.082
  606POPC   C1A11595  22.095  28.682   8.868
  606POPC   D2A11596  22.172  28.379   8.538
  606POPC   C3A11597  22.179  28.491   8.122
  606POPC   C4A11598  22.084  28.352   7.698
  606POPC   C1B11599  22.558  28.081   8.773
  606POPC   C2B11600  22.600  28.164   8.310
  606POPC   C3B11601  22.485  28.116   7.865
  606POPC   C4B11602  22.392  28.052   7.392
  607POPC   NC311603  24.119  35.410   9.222
  607POPC   PO411604  23.445  35.360   9.504
  607POPC   GL111605  23.626  35.215   9.107
  607POPC   GL211606  23.654  35.559   9.032
  607POPC   C1A11607  23.885  35.045   8.723
  607POPC   D2A11608  23.735  35.069   8.285
  607POPC   C3A11609  23.948  35.033   7.880
  607POPC   C4A11610  23.798  35.179   7.445
  607POPC   C1B11611  23.737  35.516   8.600
  607POPC   C2B11612  23.481  35.526   8.243
  607POPC   C3B11613  23.510  35.343   7.854
  607POPC   C4B11614  23.915  35.526   7.818
  608POPC   NC311615  35.423  42.341   9.433
  608POPC   PO411616  35.036  42.969   9.487
  608POPC   GL111617  34.956  42.622   9.165
  608POPC   GL211618  35.072  42.257   9.091
  608POPC   C1A11619  35.151  42.626   8.743
  608POPC   D2A11620  35.465  42.451   8.442
  608POPC   C3A11621  35.235  42.452   8.072
  608POPC   C4A11622  35.067  42.382   7.696
  608POPC   C1B11623  35.178  42.115   8.669
  608POPC   C2B11624  35.353  41.976   8.245
  608POPC   C3B11625  35.180  41.877   7.838
  608POPC   C4B11626  35.283  41.986   7.380
  609POPC   NC311627  24.780   6.464   9.431
  609POPC   PO411628  24.264   6.915   9.496
  609POPC   GL111629  24.467   6.868   9.088
  609POPC   GL211630  24.837   6.919   9.117
  609POPC   C1A11631  24.320   6.603   8.715
  609POPC   D2A11632  24.374   6.411   8.274
  609POPC   C3A11633  24.277   6.680   7.900
  609POPC   C4A11634  24.245   6.911   7.511
  609POPC   C1B11635  24.874   6.686   8.720
  609POPC   C2B11636  24.793   6.721   8.260
  609POPC   C3B11637  24.751   6.499   7.866
  609POPC   C4B11638  24.468   6.396   7.506
  610POPC   NC311639   0.393  37.279   9.555
  610POPC   PO411640   0.313  36.633   9.435
  610POPC   GL111641   0.308  36.940   9.094
  610POPC   GL211642   0.633  37.098   9.137
  610POPC   C1A11643   0.301  37.004   8.618
  610POPC   D2A11644   0.081  36.911   8.202
  610POPC   C3A11645   0.356  36.741   7.888
  610POPC   C4A11646   0.624  36.393   7.909
  610POPC   C1B11647   0.763  37.308   8.768
  610POPC   C2B11648   0.686  37.389   8.334
  610POPC   C3B11649   0.513  37.224   7.954
  610POPC   C4B11650   0.762  36.977   7.665
  611POPC   NC311651  31.851   2.193   9.557
  611POPC   PO411652  31.162   2.097   9.428
  611POPC   GL111653  31.498   2.124   9.135
  611POPC   GL211654  31.604   2.443   9.187
  611POPC   C1A11655  31.530   1.934   8.715
  611POPC   D2A11656  31.237   1.861   8.331
  611POPC   C3A11657  31.409   1.966   7.911
  611POPC   C4A11658  31.413   1.916   7.430
  611POPC   C1B11659  31.587   2.486   8.769
  611POPC   C2B11660  31.421   2.348   8.402
  611POPC   C3B11661  31.556   2.433   8.022
  611POPC   C4B11662  31.461   2.374   7.631
  612POPC   NC311663  32.000  29.967   9.558
  612POPC   PO411664  32.407  29.434   9.382
  612POPC   GL111665  32.127  29.681   9.140
  612POPC   GL211666  32.119  30.073   9.094
  612POPC   C1A11667  32.223  29.666   8.724
  612POPC   D2A11668  32.064  29.569   8.344
  612POPC   C3A11669  32.274  29.864   8.129
  612POPC   C4A11670  32.427  29.922   7.740
  612POPC   C1B11671  31.867  30.054   8.758
  612POPC   C2B11672  31.902  30.174   8.373
  612POPC   C3B11673  31.802  30.039   8.013
  612POPC   C4B11674  31.976  30.151   7.655
  613POPC   NC311675  28.903  35.435   9.631
  613POPC   PO411676  29.284  34.883   9.597
  613POPC   GL111677  29.294  35.135   9.209
  613POPC   GL211678  29.566  35.412   9.184
  613POPC   C1A11679  29.227  35.172   8.770
  613POPC   D2A11680  29.354  35.320   8.368
  613POPC   C3A11681  29.157  35.068   8.070
  613POPC   C4A11682  28.835  35.208   7.821
  613POPC   C1B11683  29.367  35.673   8.870
  613POPC   C2B11684  29.336  35.840   8.452
  613POPC   C3B11685  29.446  35.749   8.060
  613POPC   C4B11686  29.311  35.479   7.808
  614POPC   NC311687   8.614  20.576   9.786
  614POPC   PO411688   8.079  20.927   9.478
  614POPC   GL111689   7.975  20.809   9.111
  614POPC   GL211690   7.909  20.466   9.146
  614POPC   C1A11691   7.948  20.980   8.708
  614POPC   D2A11692   8.181  20.860   8.347
  614POPC   C3A11693   7.998  20.863   7.955
  614POPC   C4A11694   7.762  20.522   7.750
  614POPC   C1B11695   8.167  20.500   8.758
  614POPC   C2B11696   8.461  20.355   8.449
  614POPC   C3B11697   8.364  20.430   8.039
  614POPC   C4B11698   8.627  20.386   7.730
  615POPC   NC311699   3.485   9.507   9.406
  615POPC   PO411700   3.698  10.126   9.588
  615POPC   GL111701   3.624   9.982   9.210
  615POPC   GL211702   3.844   9.750   9.106
  615POPC   C1A11703   3.491  10.032   8.786
  615POPC   D2A11704   3.493   9.855   8.363
  615POPC   C3A11705   3.769   9.891   8.013
  615POPC   C4A11706   3.433   9.927   7.702
  615POPC   C1B11707   3.700   9.550   8.724
  615POPC   C2B11708   3.710   9.401   8.295
  615POPC   C3B11709   3.564   9.443   7.881
  615POPC   C4B11710   3.718   9.562   7.457
  616POPC   NC311711  22.317   3.766   9.819
  616POPC   PO411712  21.794   3.803   9.351
  616POPC   GL111713  22.003   3.649   8.992
  616POPC   GL211714  22.021   3.286   9.041
  616POPC   C1A11715  22.319   3.793   8.663
  616POPC   D2A11716  22.550   3.565   8.319
  616POPC   C3A11717  22.308   3.632   7.934
  616POPC   C4A11718  22.313   3.529   7.510
  616POPC   C1B11719  22.212   3.317   8.665
  616POPC   C2B11720  22.115   3.285   8.234
  616POPC   C3B11721  22.006   3.194   7.812
  616POPC   C4B11722  22.125   3.063   7.389
  617POPC   NC311723  44.409  12.106   9.687
  617POPC   PO411724  44.867  12.353   9.230
  617POPC   GL111725  44.521  12.202   9.009
  617POPC   GL211726  44.558  11.862   8.868
  617POPC   C1A11727  44.405  12.257   8.578
  617POPC   D2A11728  44.698  12.072   8.283
  617POPC   C3A11729  44.802  12.285   7.906
  617POPC   C4A11730  44.688  12.163   7.489
  617POPC   C1B11731  44.158  11.796   8.629
  617POPC   C2B11732  44.202  11.841   8.210
  617POPC   C3B11733  44.416  11.914   7.869
  617POPC   C4B11734  44.718  11.694   7.670
  618POPC   NC311735  12.952  30.829   9.498
  618POPC   PO411736  12.445  31.276   9.571
  618POPC   GL111737  12.662  31.071   9.160
  618POPC   GL211738  13.021  31.117   9.083
  618POPC   C1A11739  12.790  30.706   8.817
  618POPC   D2A11740  13.053  30.516   8.416
  618POPC   C3A11741  12.971  30.607   7.972
  618POPC   C4A11742  12.573  30.589   7.772
  618POPC   C1B11743  12.850  31.194   8.669
  618POPC   C2B11744  12.706  30.925   8.331
  618POPC   C3B11745  12.729  31.065   7.927
  618POPC   C4B11746  12.922  31.427   7.772
  619POPC   NC311747  23.358  17.033   9.486
  619POPC   PO411748  24.061  17.074   9.568
  619POPC   GL111749  23.843  16.941   9.188
  619POPC   GL211750  23.641  16.651   9.244
  619POPC   C1A11751  23.860  16.681   8.791
  619POPC   D2A11752  23.665  16.502   8.414
  619POPC   C3A11753  23.809  16.706   8.071
  619POPC   C4A11754  24.177  16.705   7.890
  619POPC   C1B11755  23.417  16.906   8.870
  619POPC   C2B11756  23.393  16.965   8.421
  619POPC   C3B11757  23.290  16.719   8.057
  619POPC   C4B11758  23.474  16.378   7.880
  620POPC   NC311759  41.211   1.056   9.686
  620POPC   PO411760  40.682   0.823   9.707
  620POPC   GL111761  40.812   1.037   9.254
  620POPC   GL211762  41.162   1.200   9.178
  620POPC   C1A11763  40.747   1.195   8.784
  620POPC   D2A11764  40.520   1.071   8.360
  620POPC   C3A11765  40.583   1.255   7.939
  620POPC   C4A11766  40.932   1.467   7.727
  620POPC   C1B11767  41.170   0.899   8.848
  620POPC   C2B11768  40.972   0.883   8.441
  620POPC   C3B11769  41.050   1.031   8.059
  620POPC   C4B11770  40.991   0.941   7.665
  621POPC   NC311771  44.417  39.346   9.726
  621POPC   PO411772  44.915  38.981   9.809
  621POPC   GL111773  44.660  39.166   9.317
  621POPC   GL211774  44.533  39.482   9.247
  621POPC   C1A11775  44.765  39.155   8.842
  621POPC   D2A11776  44.874  39.109   8.411
  621POPC   C3A11777  44.785  39.110   7.987
  621POPC   C4A11778  44.976  39.259   7.605
  621POPC   C1B11779  44.314  39.336   8.885
  621POPC   C2B11780  44.439  39.367   8.454
  621POPC   C3B11781  44.313  39.353   8.034
  621POPC   C4B11782  44.480  39.351   7.637
  622POPC   NC311783  17.825   1.799   9.375
  622POPC   PO411784  17.213   1.976   9.568
  622POPC   GL111785  17.344   1.941   9.163
  622POPC   GL211786  17.351   1.575   9.173
  622POPC   C1A11787  17.558   2.009   8.758
  622POPC   D2A11788  17.474   1.840   8.318
  622POPC   C3A11789  17.595   2.087   7.963
  622POPC   C4A11790  17.913   2.311   7.685
  622POPC   C1B11791  17.195   1.657   8.735
  622POPC   C2B11792  16.993   1.652   8.329
  622POPC   C3B11793  17.146   1.632   7.949
  622POPC   C4B11794  17.550   1.592   7.811
  623POPC   NC311795  34.768  25.621   9.498
  623POPC   PO411796  34.433  25.019   9.468
  623POPC   GL111797  34.487  25.314   9.162
  623POPC   GL211798  34.830  25.257   9.113
  623POPC   C1A11799  34.529  25.398   8.724
  623POPC   D2A11800  34.469  25.160   8.367
  623POPC   C3A11801  34.429  25.393   8.008
  623POPC   C4A11802  34.435  25.223   7.628
  623POPC   C1B11803  35.060  25.340   8.735
  623POPC   C2B11804  34.943  25.372   8.292
  623POPC   C3B11805  34.908  25.240   7.860
  623POPC   C4B11806  34.834  25.468   7.456
  624POPC   NC311807  38.974  13.750   9.597
  624POPC   PO411808  39.418  13.268   9.511
  624POPC   GL111809  39.389  13.467   9.143
  624POPC   GL211810  39.095  13.652   9.124
  624POPC   C1A11811  39.311  13.372   8.737
  624POPC   D2A11812  39.434  13.615   8.399
  624POPC   C3A11813  39.431  13.367   8.053
  624POPC   C4A11814  39.377  13.473   7.637
  624POPC   C1B11815  39.112  13.834   8.758
  624POPC   C2B11816  38.954  13.743   8.353
  624POPC   C3B11817  39.131  13.811   7.974
  624POPC   C4B11818  38.910  13.703   7.622
  625POPC   NC311819  24.941  26.559   9.664
  625POPC   PO411820  25.210  25.956   9.610
  625POPC   GL111821  25.203  26.030   9.176
  625POPC   GL211822  25.469  26.281   9.103
  625POPC   C1A11823  25.415  25.865   8.779
  625POPC   D2A11824  25.419  25.983   8.341
  625POPC   C3A11825  25.247  25.766   7.982
  625POPC   C4A11826  25.345  25.968   7.553
  625POPC   C1B11827  25.144  26.311   8.747
  625POPC   C2B11828  24.921  26.190   8.349
  625POPC   C3B11829  25.018  26.250   7.896
  625POPC   C4B11830  25.012  26.341   7.434
  626POPC   NC311831  28.021  25.170   9.617
  626POPC   PO411832  27.370  25.299   9.606
  626POPC   GL111833  27.486  25.435   9.199
  626POPC   GL211834  27.834  25.439   9.206
  626POPC   C1A11835  27.371  25.382   8.778
  626POPC   D2A11836  27.093  25.473   8.454
  626POPC   C3A11837  27.314  25.432   8.073
  626POPC   C4A11838  27.195  25.187   7.671
  626POPC   C1B11839  27.701  25.040   8.958
  626POPC   C2B11840  27.739  24.963   8.502
  626POPC   C3B11841  27.837  25.074   8.072
  626POPC   C4B11842  27.674  25.309   7.718
  627POPC   NC311843  44.084  11.592   9.458
  627POPC   PO411844  44.023  10.979   9.552
  627POPC   GL111845  43.913  11.128   9.108
  627POPC   GL211846  43.959  11.442   8.995
  627POPC   C1A11847  43.550  11.202   8.810
  627POPC   D2A11848  43.502  11.130   8.358
  627POPC   C3A11849  43.860  10.939   8.094
  627POPC   C4A11850  43.961  10.987   7.634
  627POPC   C1B11851  43.989  11.190   8.594
  627POPC   C2B11852  43.933  11.416   8.256
  627POPC   C3B11853  44.064  11.418   7.864
  627POPC   C4B11854  44.169  11.572   7.458
  628POPC   NC311855   0.907  39.797   9.262
  628POPC   PO411856   1.370  40.206   9.583
  628POPC   GL111857   1.231  40.193   9.194
  628POPC   GL211858   1.389  39.890   9.133
  628POPC   C1A11859   1.122  40.229   8.782
  628POPC   D2A11860   1.213  40.366   8.387
  628POPC   C3A11861   1.096  40.122   8.031
  628POPC   C4A11862   1.139  40.213   7.616
  628POPC   C1B11863   1.604  39.843   8.772
  628POPC   C2B11864   1.447  39.920   8.399
  628POPC   C3B11865   1.568  39.823   8.022
  628POPC   C4B11866   1.315  39.743   7.714
  629POPC   NC311867  10.623  39.578   9.457
  629POPC   PO411868  10.194  39.045   9.294
  629POPC   GL111869  10.583  39.157   9.090
  629POPC   GL211870  10.792  39.479   8.985
  629POPC   C1A11871  10.506  39.158   8.657
  629POPC   D2A11872  10.208  39.068   8.332
  629POPC   C3A11873  10.427  39.175   7.947
  629POPC   C4A11874  10.230  39.085   7.584
  629POPC   C1B11875  10.430  39.658   8.743
  629POPC   C2B11876  10.345  39.555   8.326
  629POPC   C3B11877  10.479  39.695   7.954
  629POPC   C4B11878  10.894  39.579   7.865
  630POPC   NC311879  26.444   1.156   9.761
  630POPC   PO411880  26.007   1.566   9.491
  630POPC   GL111881  25.942   1.372   9.123
  630POPC   GL211882  26.081   1.080   9.176
  630POPC   C1A11883  25.772   1.242   8.693
  630POPC   D2A11884  26.053   1.356   8.324
  630POPC   C3A11885  25.912   1.474   7.918
  630POPC   C4A11886  26.013   1.523   7.474
  630POPC   C1B11887  26.258   1.123   8.735
  630POPC   C2B11888  26.218   0.858   8.366
  630POPC   C3B11889  26.034   0.945   7.989
  630POPC   C4B11890  26.213   0.982   7.583
  631POPC   NC311891  23.917  36.620   9.451
  631POPC   PO411892  23.623  37.315   9.517
  631POPC   GL111893  23.797  37.062   9.181
  631POPC   GL211894  23.496  36.812   9.199
  631POPC   C1A11895  24.028  36.852   8.813
  631POPC   D2A11896  24.169  36.734   8.391
  631POPC   C3A11897  24.124  36.996   7.983
  631POPC   C4A11898  24.026  36.792   7.588
  631POPC   C1B11899  23.532  36.915   8.759
  631POPC   C2B11900  23.759  37.017   8.365
  631POPC   C3B11901  23.620  36.971   7.951
  631POPC   C4B11902  23.261  37.168   7.816
  632POPC   NC311903   7.329  42.741   9.401
  632POPC   PO411904   7.218  42.052   9.460
  632POPC   GL111905   7.197  42.335   9.104
  632POPC   GL211906   7.574  42.381   9.068
  632POPC   C1A11907   7.287  42.382   8.654
  632POPC   D2A11908   7.413  42.146   8.320
  632POPC   C3A11909   7.237  42.203   7.936
  632POPC   C4A11910   7.343  42.580   7.699
  632POPC   C1B11911   7.726  42.071   8.733
  632POPC   C2B11912   7.912  42.068   8.281
  632POPC   C3B11913   7.751  42.275   7.953
  632POPC   C4B11914   7.614  42.056   7.634
  633POPC   NC311915  16.520   3.666   9.493
  633POPC   PO411916  17.225   3.661   9.494
  633POPC   GL111917  17.054   3.391   9.154
  633POPC   GL211918  16.716   3.427   9.086
  633POPC   C1A11919  17.028   3.184   8.750
  633POPC   D2A11920  16.867   3.089   8.350
  633POPC   C3A11921  16.806   3.346   7.995
  633POPC   C4A11922  17.108   3.331   7.722
  633POPC   C1B11923  16.652   3.529   8.652
  633POPC   C2B11924  16.543   3.716   8.265
  633POPC   C3B11925  16.390   3.640   7.826
  633POPC   C4B11926  16.362   3.759   7.366
  634POPC   NC311927  20.851  20.193   9.569
  634POPC   PO411928  20.506  20.741   9.597
  634POPC   GL111929  20.619  20.494   9.249
  634POPC   GL211930  20.406  20.199   9.179
  634POPC   C1A11931  20.796  20.397   8.878
  634POPC   D2A11932  20.735  20.520   8.467
  634POPC   C3A11933  20.737  20.315   8.098
  634POPC   C4A11934  20.726  20.587   7.796
  634POPC   C1B11935  20.306  20.273   8.765
  634POPC   C2B11936  20.269  20.316   8.326
  634POPC   C3B11937  20.258  20.374   7.874
  634POPC   C4B11938  20.454  20.297   7.444
  635POPC   NC311939  10.726  33.513   9.496
  635POPC   PO411940  10.082  33.630   9.498
  635POPC   GL111941  10.330  33.906   9.195
  635POPC   GL211942  10.691  33.809   9.099
  635POPC   C1A11943  10.404  34.067   8.770
  635POPC   D2A11944  10.640  33.952   8.376
  635POPC   C3A11945  10.376  33.920   8.011
  635POPC   C4A11946  10.258  33.811   7.623
  635POPC   C1B11947  10.944  33.666   8.776
  635POPC   C2B11948  10.942  33.521   8.357
  635POPC   C3B11949  10.805  33.625   7.931
  635POPC   C4B11950  11.085  33.756   7.613
  636POPC   NC311951   9.881  34.047   9.497
  636POPC   PO411952   9.454  33.473   9.643
  636POPC   GL111953   9.635  33.670   9.219
  636POPC   GL211954   9.495  33.993   9.126
  636POPC   C1A11955   9.910  33.892   8.853
  636POPC   D2A11956  10.076  33.893   8.415
  636POPC   C3A11957   9.870  33.788   7.995
  636POPC   C4A11958   9.817  33.542   7.612
  636POPC   C1B11959   9.522  34.191   8.726
  636POPC   C2B11960   9.521  34.032   8.322
  636POPC   C3B11961   9.357  33.710   8.053
  636POPC   C4B11962   9.396  33.823   7.638
  637POPC   NC311963   6.288  21.665   9.468
  637POPC   PO411964   6.039  21.077   9.375
  637POPC   GL111965   6.129  21.333   9.053
  637POPC   GL211966   6.440  21.151   9.018
  637POPC   C1A11967   5.818  21.420   8.733
  637POPC   D2A11968   5.641  21.226   8.365
  637POPC   C3A11969   5.429  21.480   8.079
  637POPC   C4A11970   5.616  21.407   7.718
  637POPC   C1B11971   6.339  21.095   8.635
  637POPC   C2B11972   6.156  21.372   8.362
  637POPC   C3B11973   6.060  21.515   7.994
  637POPC   C4B11974   6.098  21.380   7.577
  638POPC   NC311975  11.362  19.752   9.629
  638POPC   PO411976  11.160  19.446   9.110
  638POPC   GL111977  11.351  19.845   9.039
  638POPC   GL211978  11.266  20.172   9.198
  638POPC   C1A11979  11.384  19.901   8.566
  638POPC   D2A11980  11.257  19.612   8.224
  638POPC   C3A11981  11.520  19.586   7.872
  638POPC   C4A11982  11.581  19.928   7.623
  638POPC   C1B11983  11.024  20.167   8.818
  638POPC   C2B11984  10.887  19.924   8.421
  638POPC   C3B11985  10.964  19.970   7.981
  638POPC   C4B11986  11.118  20.110   7.595
  639POPC   NC311987  43.159  37.069   9.422
  639POPC   PO411988  42.932  36.361   9.548
  639POPC   GL111989  43.027  36.538   9.109
  639POPC   GL211990  42.892  36.871   9.044
  639POPC   C1A11991  43.272  36.754   8.762
  639POPC   D2A11992  43.096  36.952   8.406
  639POPC   C3A11993  43.244  36.947   7.995
  639POPC   C4A11994  43.320  36.668   7.628
  639POPC   C1B11995  42.703  37.125   8.742
  639POPC   C2B11996  42.772  37.335   8.381
  639POPC   C3B11997  42.758  37.106   8.010
  639POPC   C4B11998  42.907  36.971   7.618
  640POPC   NC311999  10.129   2.125   9.604
  640POPC   PO412000   9.546   1.797   9.498
  640POPC   GL112001   9.539   1.997   9.105
  640POPC   GL212002   9.883   2.029   9.126
  640POPC   C1A12003   9.577   1.884   8.676
  640POPC   D2A12004   9.748   2.012   8.295
  640POPC   C3A12005   9.655   1.749   7.965
  640POPC   C4A12006   9.786   2.010   7.676
  640POPC   C1B12007  10.085   2.008   8.714
  640POPC   C2B12008  10.234   1.810   8.311
  640POPC   C3B12009  10.162   1.738   7.882
  640POPC   C4B12010  10.263   2.000   7.535
  641POPC   NC312011  15.227  12.579   9.523
  641POPC   PO412012  14.762  13.029   9.335
  641POPC   GL112013  15.197  13.017   9.221
  641POPC   GL212014  15.188  13.284   9.012
  641POPC   C1A12015  15.337  12.815   8.843
  641POPC   D2A12016  15.115  12.753   8.428
  641POPC   C3A12017  15.345  12.877   8.050
  641POPC   C4A12018  15.252  12.710   7.641
  641POPC   C1B12019  14.903  13.159   8.707
  641POPC   C2B12020  14.894  13.211   8.280
  641POPC   C3B12021  14.867  12.985   7.928
  641POPC   C4B12022  15.103  13.199   7.649
  642POPC   NC312023   7.671  33.767   9.557
  642POPC   PO412024   7.124  34.141   9.521
  642POPC   GL112025   7.259  33.824   9.191
  642POPC   GL212026   7.557  33.544   9.145
  642POPC   C1A12027   7.307  34.018   8.829
  642POPC   D2A12028   7.256  34.048   8.425
  642POPC   C3A12029   7.493  33.912   8.085
  642POPC   C4A12030   7.377  33.819   7.682
  642POPC   C1B12031   7.708  33.732   8.825
  642POPC   C2B12032   7.670  33.601   8.438
  642POPC   C3B12033   7.746  33.469   8.039
  642POPC   C4B12034   7.885  33.740   7.736
  643POPC   NC312035  13.621  30.374   9.395
  643POPC   PO412036  13.384  30.964   9.425
  643POPC   GL112037  13.530  30.738   9.073
  643POPC   GL212038  13.218  30.583   9.087
  643POPC   C1A12039  13.507  30.424   8.683
  643POPC   D2A12040  13.542  30.273   8.225
  643POPC   C3A12041  13.481  30.576   7.876
  643POPC   C4A12042  13.444  30.553   7.392
  643POPC   C1B12043  13.260  30.880   8.702
  643POPC   C2B12044  13.437  30.849   8.312
  643POPC   C3B12045  13.269  31.043   7.944
  643POPC   C4B12046  13.129  30.943   7.548
  644POPC   NC312047  34.974  21.125   9.382
  644POPC   PO412048  35.512  21.542   9.553
  644POPC   GL112049  35.477  21.238   9.226
  644POPC   GL212050  35.252  21.504   9.086
  644POPC   C1A12051  35.355  21.113   8.784
  644POPC   D2A12052  35.083  21.354   8.505
  644POPC   C3A12053  35.040  21.209   8.079
  644POPC   C4A12054  35.144  21.327   7.670
  644POPC   C1B12055  34.903  21.700   8.858
  644POPC   C2B12056  34.836  21.788   8.422
  644POPC   C3B12057  35.080  21.737   8.026
  644POPC   C4B12058  34.895  21.739   7.585
  645POPC   NC312059  13.426  10.786   9.411
  645POPC   PO412060  13.855  10.215   9.404
  645POPC   GL112061  13.801  10.566   9.166
  645POPC   GL212062  13.463  10.440   9.037
  645POPC   C1A12063  13.736  10.807   8.797
  645POPC   D2A12064  14.010  10.803   8.445
  645POPC   C3A12065  13.829  10.792   8.042
  645POPC   C4A12066  13.807  10.670   7.576
  645POPC   C1B12067  13.775  10.298   8.720
  645POPC   C2B12068  13.829  10.357   8.290
  645POPC   C3B12069  13.851  10.255   7.891
  645POPC   C4B12070  13.627  10.111   7.580
  646POPC   NC312071  24.879   5.830   9.697
  646POPC   PO412072  24.405   6.212   9.405
  646POPC   GL112073  24.608   5.872   9.197
  646POPC   GL212074  24.968   6.014   9.229
  646POPC   C1A12075  24.393   5.646   8.820
  646POPC   D2A12076  24.399   5.559   8.349
  646POPC   C3A12077  24.312   5.921   8.041
  646POPC   C4A12078  24.303   5.907   7.566
  646POPC   C1B12079  24.876   6.168   8.835
  646POPC   C2B12080  24.661   5.991   8.493
  646POPC   C3B12081  24.807   5.808   8.123
  646POPC   C4B12082  24.768   6.019   7.748
  647POPC   NC312083  21.327  42.772   9.438
  647POPC   PO412084  21.338  42.027   9.423
  647POPC   GL112085  21.437  42.275   9.056
  647POPC   GL212086  21.608  42.603   9.050
  647POPC   C1A12087  21.487  42.317   8.621
  647POPC   D2A12088  21.744  42.048   8.391
  647POPC   C3A12089  21.714  42.171   7.995
  647POPC   C4A12090  21.414  42.039   7.704
  647POPC   C1B12091  21.304  42.783   8.762
  647POPC   C2B12092  21.345  42.787   8.321
  647POPC   C3B12093  21.301  42.476   7.979
  647POPC   C4B12094  20.999  42.511   7.643
  648POPC   NC312095   0.222  23.466   9.339
  648POPC   PO412096   0.624  22.941   9.562
  648POPC   GL112097   0.591  22.850   9.137
  648POPC   GL212098   0.313  23.038   9.082
  648POPC   C1A12099   0.435  22.658   8.747
  648POPC   D2A12100   0.434  22.413   8.362
  648POPC   C3A12101   0.183  22.642   8.074
  648POPC   C4A12102   0.421  22.931   7.846
  648POPC   C1B12103   0.218  23.250   8.718
  648POPC   C2B12104   0.347  23.131   8.334
  648POPC   C3B12105   0.423  23.393   8.015
  648POPC   C4B12106   0.186  23.366   7.685
  649POPC   NC312107  16.075  43.294   9.537
  649POPC   PO412108  15.654  43.151   9.113
  649POPC   GL112109  16.081  43.140   9.005
  649POPC   GL212110  16.210  42.893   9.211
  649POPC   C1A12111  16.171  43.072   8.585
  649POPC   D2A12112  15.833  42.983   8.296
  649POPC   C3A12113  15.873  43.170   7.920
  649POPC   C4A12114  15.684  43.438   7.660
  649POPC   C1B12115  16.341  42.654   8.821
  649POPC   C2B12116  16.205  42.612   8.352
  649POPC   C3B12117  16.038  42.663   7.923
  649POPC   C4B12118  16.205  42.787   7.534
  650POPC   NC312119  17.434  14.099   9.661
  650POPC   PO412120  17.758  13.469   9.501
  650POPC   GL112121  17.688  13.741   9.179
  650POPC   GL212122  17.351  13.735   9.193
  650POPC   C1A12123  17.598  13.628   8.747
  650POPC   D2A12124  17.442  13.506   8.365
  650POPC   C3A12125  17.558  13.753   7.998
  650POPC   C4A12126  17.603  13.541   7.596
  650POPC   C1B12127  17.294  14.025   8.863
  650POPC   C2B12128  17.389  14.045   8.417
  650POPC   C3B12129  17.170  14.080   8.006
  650POPC   C4B12130  17.191  13.838   7.609
  651POPC   NC312131  36.332  30.849   9.345
  651POPC   PO412132  35.809  30.414   9.522
  651POPC   GL112133  36.024  30.445   9.150
  651POPC   GL212134  36.356  30.334   9.039
  651POPC   C1A12135  35.873  30.562   8.781
  651POPC   D2A12136  35.914  30.827   8.419
  651POPC   C3A12137  35.810  30.569   8.076
  651POPC   C4A12138  35.473  30.563   7.739
  651POPC   C1B12139  36.489  30.638   8.738
  651POPC   C2B12140  36.455  30.818   8.321
  651POPC   C3B12141  36.179  30.993   8.003
  651POPC   C4B12142  35.897  30.855   7.673
  652POPC   NC312143   8.996  22.040   9.582
  652POPC   PO412144   8.747  22.628   9.359
  652POPC   GL112145   8.965  22.236   9.120
  652POPC   GL212146   9.213  21.943   9.124
  652POPC   C1A12147   8.877  22.036   8.749
  652POPC   D2A12148   8.752  22.201   8.394
  652POPC   C3A12149   8.702  21.932   8.079
  652POPC   C4A12150   8.722  22.119   7.704
  652POPC   C1B12151   9.408  21.890   8.753
  652POPC   C2B12152   9.207  21.884   8.356
  652POPC   C3B12153   9.189  22.028   7.913
  652POPC   C4B12154   9.318  22.412   7.706
  653POPC   NC312155  14.697  20.605   9.453
  653POPC   PO412156  14.049  20.849   9.368
  653POPC   GL112157  14.362  20.944   9.063
  653POPC   GL212158  14.728  21.012   9.133
  653POPC   C1A12159  14.213  20.832   8.670
  653POPC   D2A12160  14.010  20.608   8.319
  653POPC   C3A12161  14.182  20.610   7.927
  653POPC   C4A12162  14.264  20.690   7.493
  653POPC   C1B12163  14.704  20.665   8.797
  653POPC   C2B12164  14.574  20.625   8.360
  653POPC   C3B12165  14.603  20.321   8.071
  653POPC   C4B12166  14.461  20.258   7.687
  654POPC   NC312167  19.247  17.797   9.583
  654POPC   PO412168  18.775  17.357   9.570
  654POPC   GL112169  18.831  17.401   9.122
  654POPC   GL212170  18.743  17.742   9.107
  654POPC   C1A12171  19.193  17.398   8.804
  654POPC   D2A12172  19.325  17.649   8.418
  654POPC   C3A12173  19.197  17.438   8.031
  654POPC   C4A12174  19.288  17.499   7.623
  654POPC   C1B12175  18.874  17.762   8.684
  654POPC   C2B12176  18.798  17.643   8.296
  654POPC   C3B12177  18.813  17.719   7.882
  654POPC   C4B12178  18.644  17.688   7.513
  655POPC   NC312179  21.116  28.018   9.665
  655POPC   PO412180  20.560  28.362   9.542
  655POPC   GL112181  20.866  28.305   9.227
  655POPC   GL212182  20.996  28.654   9.104
  655POPC   C1A12183  20.840  28.008   8.894
  655POPC   D2A12184  20.538  28.035   8.549
  655POPC   C3A12185  20.693  28.063   8.102
  655POPC   C4A12186  20.435  28.123   7.737
  655POPC   C1B12187  20.721  28.496   8.755
  655POPC   C2B12188  20.536  28.525   8.339
  655POPC   C3B12189  20.495  28.763   7.962
  655POPC   C4B12190  20.694  28.546   7.644
  656POPC   NC312191  27.342  21.732   9.486
  656POPC   PO412192  27.322  22.459   9.449
  656POPC   GL112193  27.599  22.232   9.146
  656POPC   GL212194  27.738  21.883   9.174
  656POPC   C1A12195  27.765  22.218   8.733
  656POPC   D2A12196  27.834  22.026   8.322
  656POPC   C3A12197  27.625  22.248   7.975
  656POPC   C4A12198  27.658  22.188   7.555
  656POPC   C1B12199  27.359  21.896   8.866
  656POPC   C2B12200  27.320  22.068   8.468
  656POPC   C3B12201  27.398  21.813   8.128
  656POPC   C4B12202  27.320  21.810   7.695
  657POPC   NC312203  32.434  11.976   9.681
  657POPC   PO412204  31.809  11.788   9.409
  657POPC   GL112205  32.021  11.973   9.074
  657POPC   GL212206  32.335  12.101   9.206
  657POPC   C1A12207  32.011  12.261   8.750
  657POPC   D2A12208  32.280  12.343   8.425
  657POPC   C3A12209  32.038  12.230   8.092
  657POPC   C4A12210  32.037  12.405   7.682
  657POPC   C1B12211  32.467  12.017   8.808
  657POPC   C2B12212  32.244  11.831   8.506
  657POPC   C3B12213  32.430  11.795   8.110
  657POPC   C4B12214  32.300  11.980   7.735
  658POPC   NC312215  12.627  11.846   9.597
  658POPC   PO412216  12.781  12.492   9.506
  658POPC   GL112217  12.932  12.239   9.163
  658POPC   GL212218  12.967  11.885   9.216
  658POPC   C1A12219  13.002  12.218   8.714
  658POPC   D2A12220  12.734  12.229   8.328
  658POPC   C3A12221  12.997  12.155   7.941
  658POPC   C4A12222  12.969  12.287   7.514
  658POPC   C1B12223  12.669  11.859   8.884
  658POPC   C2B12224  12.689  11.717   8.445
  658POPC   C3B12225  12.626  11.812   8.029
  658POPC   C4B12226  12.900  11.693   7.717
  659POPC   NC312227   2.322  11.768   9.563
  659POPC   PO412228   1.921  11.228   9.532
  659POPC   GL112229   1.875  11.426   9.148
  659POPC   GL212230   2.224  11.508   9.115
  659POPC   C1A12231   1.661  11.352   8.755
  659POPC   D2A12232   1.878  11.222   8.376
  659POPC   C3A12233   1.789  11.358   7.987
  659POPC   C4A12234   1.836  11.129   7.647
  659POPC   C1B12235   2.265  11.291   8.707
  659POPC   C2B12236   2.388  11.229   8.247
  659POPC   C3B12237   2.305  11.233   7.784
  659POPC   C4B12238   2.216  10.980   7.371
  660POPC   NC312239  23.249  11.787   9.452
  660POPC   PO412240  22.801  12.205   9.658
  660POPC   GL112241  22.828  12.084   9.230
  660POPC   GL212242  22.718  12.412   9.146
  660POPC   C1A12243  23.049  11.924   8.841
  660POPC   D2A12244  23.183  12.039   8.419
  660POPC   C3A12245  22.939  11.908   8.052
  660POPC   C4A12246  23.037  11.974   7.608
  660POPC   C1B12247  22.820  12.360   8.707
  660POPC   C2B12248  22.654  12.285   8.275
  660POPC   C3B12249  22.813  12.373   7.839
  660POPC   C4B12250  22.649  12.259   7.389
  661POPC   NC312251  17.994  15.443   9.477
  661POPC   PO412252  18.489  14.973   9.495
  661POPC   GL112253  18.245  14.967   9.058
  661POPC   GL212254  18.161  15.266   9.022
  661POPC   C1A12255  17.969  14.951   8.675
  661POPC   D2A12256  18.009  15.210   8.322
  661POPC   C3A12257  18.241  15.127   7.924
  661POPC   C4A12258  18.309  14.960   7.496
  661POPC   C1B12259  17.899  15.474   8.767
  661POPC   C2B12260  17.750  15.629   8.382
  661POPC   C3B12261  17.960  15.566   7.955
  661POPC   C4B12262  17.959  15.327   7.512
  662POPC   NC312263  20.135  41.194   9.726
  662POPC   PO412264  19.690  40.720   9.481
  662POPC   GL112265  19.916  41.007   9.232
  662POPC   GL212266  19.616  41.211   9.155
  662POPC   C1A12267  20.081  40.839   8.834
  662POPC   D2A12268  19.996  41.004   8.415
  662POPC   C3A12269  19.991  40.653   8.128
  662POPC   C4A12270  20.122  40.692   7.730
  662POPC   C1B12271  19.609  40.993   8.754
  662POPC   C2B12272  19.542  40.758   8.380
  662POPC   C3B12273  19.566  40.834   7.943
  662POPC   C4B12274  19.851  41.116   7.728
  663POPC   NC312275   9.981   8.122   9.509
  663POPC   PO412276   9.335   8.423   9.511
  663POPC   GL112277   9.558   8.163   9.182
  663POPC   GL212278   9.885   8.307   9.075
  663POPC   C1A12279   9.602   7.917   8.796
  663POPC   D2A12280   9.808   7.934   8.371
  663POPC   C3A12281   9.746   8.028   7.921
  663POPC   C4A12282   9.598   7.995   7.458
  663POPC   C1B12283  10.006   8.236   8.726
  663POPC   C2B12284  10.043   8.414   8.359
  663POPC   C3B12285   9.992   8.476   7.950
  663POPC   C4B12286  10.131   8.197   7.636
  664POPC   NC312287  27.408  32.468   9.304
  664POPC   PO412288  27.872  31.933   9.573
  664POPC   GL112289  27.747  32.090   9.162
  664POPC   GL212290  27.881  32.417   9.123
  664POPC   C1A12291  27.560  32.082   8.727
  664POPC   D2A12292  27.726  31.949   8.335
  664POPC   C3A12293  27.466  32.009   7.962
  664POPC   C4A12294  27.190  32.097   7.569
  664POPC   C1B12295  27.748  32.562   8.754
  664POPC   C2B12296  27.849  32.468   8.352
  664POPC   C3B12297  27.759  32.445   7.937
  664POPC   C4B12298  27.520  32.671   7.680
  665POPC   NC312299  31.598  44.204   9.372
  665POPC   PO412300  31.441  43.558   9.442
  665POPC   GL112301  31.297  43.811   9.128
  665POPC   GL212302  31.110  44.077   9.272
  665POPC   C1A12303  31.507  43.870   8.736
  665POPC   D2A12304  31.683  43.568   8.440
  665POPC   C3A12305  31.545  43.758   8.076
  665POPC   C4A12306  31.375  43.618   7.743
  665POPC   C1B12307  31.084  44.144   8.813
  665POPC   C2B12308  30.994  43.824   8.498
  665POPC   C3B12309  31.005  43.871   8.050
  665POPC   C4B12310  31.217  44.103   7.726
  666POPC   NC312311   8.213  41.179   9.503
  666POPC   PO412312   8.026  40.488   9.518
  666POPC   GL112313   8.023  40.577   9.161
  666POPC   GL212314   7.877  40.903   9.234
  666POPC   C1A12315   7.850  40.552   8.780
  666POPC   D2A12316   7.829  40.715   8.380
  666POPC   C3A12317   8.075  40.510   8.086
  666POPC   C4A12318   8.001  40.418   7.662
  666POPC   C1B12319   8.156  40.966   8.855
  666POPC   C2B12320   8.289  40.960   8.424
  666POPC   C3B12321   8.098  41.027   8.000
  666POPC   C4B12322   8.368  41.079   7.630
  667POPC   NC312323  29.862  19.795   9.383
  667POPC   PO412324  30.468  19.968   9.498
  667POPC   GL112325  30.285  20.036   9.056
  667POPC   GL212326  30.030  19.796   8.916
  667POPC   C1A12327  30.295  19.969   8.548
  667POPC   D2A12328  29.954  19.847   8.310
  667POPC   C3A12329  29.809  20.174   8.091
  667POPC   C4A12330  30.056  20.005   7.774
  667POPC   C1B12331  29.659  19.975   8.702
  667POPC   C2B12332  29.420  19.884   8.296
  667POPC   C3B12333  29.532  19.806   7.852
  667POPC   C4B12334  29.741  19.765   7.420
  668POPC   NC312335   0.063  44.543   9.502
  668POPC   PO412336   0.676  44.732   9.381
  668POPC   GL112337   0.359  44.679   9.115
  668POPC   GL212338   0.103  44.959   9.189
  668POPC   C1A12339   0.371  44.479   8.721
  668POPC   D2A12340   0.605  44.375   8.371
  668POPC   C3A12341   0.388  44.585   8.052
  668POPC   C4A12342   0.473  44.674   7.630
  668POPC   C1B12343   0.006  44.842   8.780
  668POPC   C2B12344  44.967  44.588   8.403
  668POPC   C3B12345  44.915  44.819   8.041
  668POPC   C4B12346  44.958  44.609   7.714
  669POPC   NC312347  30.419   0.464   9.368
  669POPC   PO412348  31.032   0.407   9.502
  669POPC   GL112349  30.986   0.294   9.044
  669POPC   GL212350  30.696   0.534   8.950
  669POPC   C1A12351  30.939   0.278   8.547
  669POPC   D2A12352  30.624   0.573   8.378
  669POPC   C3A12353  30.711   0.597   7.939
  669POPC   C4A12354  30.914   0.188   7.939
  669POPC   C1B12355  30.538   0.169   8.801
  669POPC   C2B12356  30.368   0.063   8.454
  669POPC   C3B12357  30.418   0.191   8.083
  669POPC   C4B12358  30.222   0.166   7.750
  670POPC   NC312359  24.837   1.710   9.401
  670POPC   PO412360  25.433   1.944   9.498
  670POPC   GL112361  25.242   2.076   9.117
  670POPC   GL212362  25.561   2.314   9.146
  670POPC   C1A12363  25.032   1.924   8.728
  670POPC   D2A12364  25.162   1.652   8.378
  670POPC   C3A12365  25.204   1.842   7.987
  670POPC   C4A12366  25.472   1.921   7.653
  670POPC   C1B12367  25.410   2.397   8.756
  670POPC   C2B12368  25.427   2.126   8.429
  670POPC   C3B12369  25.579   2.216   8.055
  670POPC   C4B12370  25.213   2.346   7.826
  671POPC   NC312371  12.459  39.984   9.442
  671POPC   PO412372  11.878  40.063   9.699
  671POPC   GL112373  11.957  40.118   9.238
  671POPC   GL212374  12.273  40.217   9.023
  671POPC   C1A12375  11.927  39.911   8.839
  671POPC   D2A12376  12.146  40.164   8.509
  671POPC   C3A12377  12.229  40.016   8.093
  671POPC   C4A12378  12.125  40.207   7.685
  671POPC   C1B12379  12.409  39.807   8.786
  671POPC   C2B12380  12.453  39.580   8.408
  671POPC   C3B12381  12.589  39.673   7.966
  671POPC   C4B12382  12.312  39.752   7.592
  672POPC   NC312383   3.924  11.229   9.458
  672POPC   PO412384   3.344  11.458   9.185
  672POPC   GL112385   3.653  11.210   9.021
  672POPC   GL212386   3.879  11.468   9.031
  672POPC   C1A12387   3.806  11.100   8.616
  672POPC   D2A12388   3.712  11.077   8.153
  672POPC   C3A12389   3.313  11.201   7.941
  672POPC   C4A12390   3.103  10.918   7.630
  672POPC   C1B12391   3.680  11.632   8.667
  672POPC   C2B12392   3.360  11.624   8.374
  672POPC   C3B12393   3.657  11.596   8.044
  672POPC   C4B12394   3.710  11.386   7.652
  673POPC   NC312395  34.792  31.140   9.375
  673POPC   PO412396  34.597  31.807   9.586
  673POPC   GL112397  34.557  31.545   9.188
  673POPC   GL212398  34.235  31.542   9.051
  673POPC   C1A12399  34.567  31.347   8.732
  673POPC   D2A12400  34.640  31.371   8.280
  673POPC   C3A12401  34.953  31.154   8.059
  673POPC   C4A12402  34.690  31.253   7.715
  673POPC   C1B12403  34.160  31.772   8.652
  673POPC   C2B12404  34.218  31.647   8.248
  673POPC   C3B12405  34.215  31.323   7.907
  673POPC   C4B12406  34.205  31.287   7.412
  674POPC   NC312407  24.200  15.081   9.491
  674POPC   PO412408  24.645  15.567   9.267
  674POPC   GL112409  24.539  15.175   9.110
  674POPC   GL212410  24.261  15.355   9.033
  674POPC   C1A12411  24.530  15.091   8.668
  674POPC   D2A12412  24.390  14.890   8.274
  674POPC   C3A12413  24.633  15.041   7.917
  674POPC   C4A12414  24.814  15.478   7.820
  674POPC   C1B12415  24.014  15.609   8.818
  674POPC   C2B12416  23.945  15.527   8.411
  674POPC   C3B12417  24.126  15.293   8.076
  674POPC   C4B12418  24.306  15.372   7.691
  675POPC   NC312419   0.098  30.080   9.374
  675POPC   PO412420   0.245  29.410   9.533
  675POPC   GL112421   0.341  29.604   9.148
  675POPC   GL212422   0.605  29.873   9.187
  675POPC   C1A12423   0.373  29.773   8.728
  675POPC   D2A12424   0.584  29.759   8.321
  675POPC   C3A12425   0.310  30.006   8.055
  675POPC   C4A12426   0.045  29.952   7.695
  675POPC   C1B12427   0.699  30.160   8.808
  675POPC   C2B12428   0.614  30.285   8.387
  675POPC   C3B12429   0.752  30.285   7.964
  675POPC   C4B12430   0.611  30.028   7.628
  676POPC   NC312431  39.594  30.935   9.459
  676POPC   PO412432  39.069  30.476   9.534
  676POPC   GL112433  39.217  30.710   9.185
  676POPC   GL212434  38.969  30.916   9.068
  676POPC   C1A12435  39.404  30.842   8.781
  676POPC   D2A12436  39.553  30.648   8.396
  676POPC   C3A12437  39.327  30.764   8.040
  676POPC   C4A12438  39.233  30.917   7.633
  676POPC   C1B12439  38.920  30.979   8.638
  676POPC   C2B12440  38.967  31.089   8.229
  676POPC   C3B12441  38.795  30.979   7.852
  676POPC   C4B12442  38.766  31.034   7.429
  677POPC   NC312443  18.008  42.631   9.444
  677POPC   PO412444  18.321  43.184   9.567
  677POPC   GL112445  18.214  43.171   9.112
  677POPC   GL212446  18.084  42.836   8.985
  677POPC   C1A12447  18.392  43.088   8.671
  677POPC   D2A12448  18.204  42.760   8.407
  677POPC   C3A12449  18.131  42.984   8.024
  677POPC   C4A12450  18.506  43.284   7.907
  677POPC   C1B12451  17.893  43.135   8.665
  677POPC   C2B12452  18.104  43.423   8.352
  677POPC   C3B12453  18.028  43.471   7.907
  677POPC   C4B12454  17.829  43.138   7.625
  678POPC   NC312455   2.849  38.375   9.404
  678POPC   PO412456   2.254  38.807   9.529
  678POPC   GL112457   2.470  38.641   9.158
  678POPC   GL212458   2.362  38.280   9.139
  678POPC   C1A12459   2.800  38.711   8.814
  678POPC   D2A12460   2.708  38.722   8.383
  678POPC   C3A12461   2.925  38.589   7.997
  678POPC   C4A12462   2.670  38.633   7.651
  678POPC   C1B12463   2.590  38.240   8.727
  678POPC   C2B12464   2.763  38.207   8.312
  678POPC   C3B12465   2.608  38.201   7.893
  678POPC   C4B12466   2.786  38.175   7.431
  679POPC   NC312467   7.833   4.331   9.519
  679POPC   PO412468   7.234   4.236   9.708
  679POPC   GL112469   7.372   4.332   9.258
  679POPC   GL212470   7.491   4.642   9.270
  679POPC   C1A12471   7.376   4.128   8.825
  679POPC   D2A12472   7.227   4.026   8.416
  679POPC   C3A12473   7.485   4.191   8.059
  679POPC   C4A12474   7.323   4.436   7.719
  679POPC   C1B12475   7.692   4.533   8.880
  679POPC   C2B12476   7.764   4.402   8.451
  679POPC   C3B12477   7.810   4.582   8.047
  679POPC   C4B12478   7.710   4.759   7.665
  680POPC   NC312479  10.873  25.031   9.514
  680POPC   PO412480  10.370  25.497   9.642
  680POPC   GL112481  10.437  25.236   9.276
  680POPC   GL212482  10.720  25.358   9.119
  680POPC   C1A12483  10.312  25.055   8.863
  680POPC   D2A12484  10.210  25.106   8.413
  680POPC   C3A12485  10.486  25.075   8.079
  680POPC   C4A12486  10.552  24.958   7.640
  680POPC   C1B12487  10.674  25.339   8.658
  680POPC   C2B12488  10.681  25.547   8.271
  680POPC   C3B12489  10.353  25.557   7.956
  680POPC   C4B12490  10.207  25.340   7.603
  681POPC   NC312491  42.861  23.220   9.522
  681POPC   PO412492  43.237  22.672   9.391
  681POPC   GL112493  42.945  22.677   9.089
  681POPC   GL212494  42.995  23.024   9.067
  681POPC   C1A12495  42.767  22.691   8.664
  681POPC   D2A12496  42.905  22.923   8.296
  681POPC   C3A12497  42.976  22.696   7.889
  681POPC   C4A12498  42.984  22.772   7.433
  681POPC   C1B12499  43.245  22.955   8.713
  681POPC   C2B12500  43.399  23.156   8.336
  681POPC   C3B12501  43.214  23.152   7.917
  681POPC   C4B12502  43.271  23.240   7.468
  682POPC   NC312503   9.226   4.914   9.413
  682POPC   PO412504   8.756   5.415   9.578
  682POPC   GL112505   8.886   5.296   9.157
  682POPC   GL212506   9.186   5.482   9.138
  682POPC   C1A12507   9.004   5.028   8.769
  682POPC   D2A12508   8.751   4.771   8.457
  682POPC   C3A12509   8.804   4.923   8.028
  682POPC   C4A12510   9.249   5.031   7.915
  682POPC   C1B12511   9.225   5.507   8.680
  682POPC   C2B12512   9.276   5.426   8.217
  682POPC   C3B12513   9.219   5.489   7.710
  682POPC   C4B12514   9.158   5.657   7.263
  683POPC   NC312515  18.595  36.732   9.546
  683POPC   PO412516  19.160  36.817   9.330
  683POPC   GL112517  18.870  36.742   9.086
  683POPC   GL212518  18.794  37.083   9.049
  683POPC   C1A12519  18.847  36.756   8.648
  683POPC   D2A12520  19.155  36.869   8.335
  683POPC   C3A12521  19.136  36.668   7.923
  683POPC   C4A12522  19.244  36.695   7.474
  683POPC   C1B12523  19.142  37.216   8.751
  683POPC   C2B12524  19.322  37.360   8.340
  683POPC   C3B12525  19.224  37.169   7.924
  683POPC   C4B12526  18.779  37.004   7.758
  684POPC   NC312527  21.786  20.936   9.430
  684POPC   PO412528  21.187  20.533   9.440
  684POPC   GL112529  21.269  20.570   9.036
  684POPC   GL212530  21.582  20.459   8.878
  684POPC   C1A12531  21.140  20.745   8.675
  684POPC   D2A12532  21.251  20.555   8.324
  684POPC   C3A12533  21.249  20.581   7.921
  684POPC   C4A12534  21.658  20.614   7.772
  684POPC   C1B12535  21.229  20.201   8.695
  684POPC   C2B12536  21.139  20.063   8.269
  684POPC   C3B12537  21.150  20.117   7.797
  684POPC   C4B12538  20.971  20.352   7.424
  685POPC   NC312539   1.825  40.046   9.571
  685POPC   PO412540   2.234  39.555   9.378
  685POPC   GL112541   2.018  39.945   9.109
  685POPC   GL212542   1.773  40.220   9.103
  685POPC   C1A12543   2.107  40.118   8.729
  685POPC   D2A12544   1.947  39.935   8.356
  685POPC   C3A12545   2.032  40.023   7.926
  685POPC   C4A12546   2.077  40.235   7.525
  685POPC   C1B12547   1.631  40.345   8.687
  685POPC   C2B12548   1.712  40.371   8.229
  685POPC   C3B12549   1.612  40.267   7.784
  685POPC   C4B12550   1.583  40.309   7.319
  686POPC   NC312551  18.086  19.146   9.379
  686POPC   PO412552  18.750  18.939   9.325
  686POPC   GL112553  18.394  18.884   9.078
  686POPC   GL212554  18.019  18.713   9.107
  686POPC   C1A12555  18.471  18.948   8.652
  686POPC   D2A12556  18.483  18.910   8.227
  686POPC   C3A12557  18.303  19.290   8.078
  686POPC   C4A12558  18.454  19.527   7.768
  686POPC   C1B12559  17.967  18.776   8.647
  686POPC   C2B12560  17.974  18.899   8.181
  686POPC   C3B12561  18.236  18.923   7.749
  686POPC   C4B12562  18.080  18.863   7.301
  687POPC   NC312563  35.052  26.446   9.326
  687POPC   PO412564  34.494  26.016   9.434
  687POPC   GL112565  34.586  25.816   9.051
  687POPC   GL212566  34.969  25.748   9.050
  687POPC   C1A12567  34.349  25.938   8.687
  687POPC   D2A12568  34.401  26.273   8.369
  687POPC   C3A12569  34.428  26.150   7.954
  687POPC   C4A12570  34.391  25.784   7.661
  687POPC   C1B12571  34.845  25.781   8.613
  687POPC   C2B12572  34.608  25.776   8.278
  687POPC   C3B12573  34.830  25.754   7.913
  687POPC   C4B12574  34.856  26.120   7.675
  688POPC   NC312575  23.232   9.489   9.565
  688POPC   PO412576  22.927   9.966   9.459
  688POPC   GL112577  22.941   9.684   9.121
  688POPC   GL212578  23.297   9.661   9.090
  688POPC   C1A12579  22.708   9.783   8.723
  688POPC   D2A12580  22.802   9.786   8.283
  688POPC   C3A12581  22.611  10.100   8.024
  688POPC   C4A12582  22.602   9.885   7.678
  688POPC   C1B12583  23.209   9.774   8.676
  688POPC   C2B12584  23.242   9.522   8.312
  688POPC   C3B12585  23.088   9.525   7.904
  688POPC   C4B12586  23.334   9.534   7.523
  689POPC   NC312587   0.930  16.818   9.366
  689POPC   PO412588   1.600  16.951   9.247
  689POPC   GL112589   1.353  16.717   8.958
  689POPC   GL212590   0.984  16.711   8.889
  689POPC   C1A12591   1.354  16.783   8.531
  689POPC   D2A12592   1.315  16.969   8.135
  689POPC   C3A12593   1.342  16.722   7.761
  689POPC   C4A12594   1.267  16.518   7.351
  689POPC   C1B12595   0.992  16.406   8.576
  689POPC   C2B12596   1.107  16.468   8.160
  689POPC   C3B12597   0.847  16.664   7.831
  689POPC   C4B12598   0.760  16.487   7.429
  690POPC   NC312599   9.374  10.454   9.553
  690POPC   PO412600   8.792  10.723   9.783
  690POPC   GL112601   8.802  10.684   9.308
  690POPC   GL212602   9.075  10.529   9.158
  690POPC   C1A12603   8.683  10.431   8.884
  690POPC   D2A12604   8.856  10.280   8.489
  690POPC   C3A12605   8.737  10.346   8.066
  690POPC   C4A12606   8.651  10.625   7.709
  690POPC   C1B12607   9.315  10.423   8.793
  690POPC   C2B12608   9.352  10.303   8.352
  690POPC   C3B12609   9.256  10.378   7.917
  690POPC   C4B12610   9.518  10.417   7.563
  691POPC   NC312611  39.667  42.522   9.563
  691POPC   PO412612  40.237  42.208   9.417
  691POPC   GL112613  39.955  42.352   9.132
  691POPC   GL212614  39.854  42.688   9.142
  691POPC   C1A12615  40.145  42.542   8.760
  691POPC   D2A12616  40.260  42.399   8.391
  691POPC   C3A12617  40.002  42.211   8.118
  691POPC   C4A12618  40.024  42.384   7.718
  691POPC   C1B12619  39.645  42.565   8.785
  691POPC   C2B12620  39.784  42.647   8.380
  691POPC   C3B12621  39.616  42.603   7.978
  691POPC   C4B12622  39.652  42.698   7.553
  692POPC   NC312623  15.786  28.916   9.653
  692POPC   PO412624  16.189  29.369   9.535
  692POPC   GL112625  16.011  29.153   9.221
  692POPC   GL212626  16.069  28.817   9.205
  692POPC   C1A12627  15.755  29.244   8.904
  692POPC   D2A12628  15.687  29.340   8.463
  692POPC   C3A12629  15.962  29.185   8.151
  692POPC   C4A12630  15.801  29.186   7.767
  692POPC   C1B12631  16.089  28.897   8.750
  692POPC   C2B12632  15.759  28.812   8.429
  692POPC   C3B12633  15.738  28.723   7.990
  692POPC   C4B12634  15.869  28.715   7.558
  693POPC   NC312635  19.496  13.756   9.912
  693POPC   PO412636  20.096  13.849   9.615
  693POPC   GL112637  20.029  13.683   9.192
  693POPC   GL212638  20.147  13.387   9.053
  693POPC   C1A12639  19.875  13.876   8.801
  693POPC   D2A12640  19.662  13.979   8.449
  693POPC   C3A12641  19.874  13.819   8.059
  693POPC   C4A12642  19.703  13.827   7.645
  693POPC   C1B12643  19.732  13.393   8.838
  693POPC   C2B12644  19.667  13.472   8.399
  693POPC   C3B12645  19.706  13.321   7.973
  693POPC   C4B12646  20.115  13.403   7.744
  694POPC   NC312647   4.263  16.845   9.596
  694POPC   PO412648   4.675  17.164   9.251
  694POPC   GL112649   4.468  16.859   9.051
  694POPC   GL212650   4.118  16.787   9.101
  694POPC   C1A12651   4.495  16.848   8.627
  694POPC   D2A12652   4.323  17.055   8.294
  694POPC   C3A12653   4.261  16.705   8.046
  694POPC   C4A12654   4.562  16.567   7.767
  694POPC   C1B12655   3.933  16.870   8.685
  694POPC   C2B12656   3.813  17.096   8.293
  694POPC   C3B12657   4.006  17.104   7.866
  694POPC   C4B12658   4.457  17.098   7.777
  695POPC   NC312659  41.107  19.635   9.503
  695POPC   PO412660  41.746  19.788   9.398
  695POPC   GL112661  41.449  19.734   9.089
  695POPC   GL212662  41.201  19.977   9.068
  695POPC   C1A12663  41.566  19.582   8.651
  695POPC   D2A12664  41.676  19.898   8.328
  695POPC   C3A12665  41.731  19.888   7.899
  695POPC   C4A12666  41.619  19.628   7.581
  695POPC   C1B12667  41.435  20.104   8.729
  695POPC   C2B12668  41.311  20.253   8.339
  695POPC   C3B12669  41.238  20.081   7.936
  695POPC   C4B12670  41.279  20.054   7.456
  696POPC   NC312671  39.098   8.597   9.439
  696POPC   PO412672  39.101   7.932   9.400
  696POPC   GL112673  39.294   8.263   9.091
  696POPC   GL212674  39.705   8.245   9.085
  696POPC   C1A12675  39.035   8.572   8.760
  696POPC   D2A12676  38.879   8.558   8.290
  696POPC   C3A12677  39.140   8.231   8.045
  696POPC   C4A12678  39.040   8.002   7.645
  696POPC   C1B12679  39.579   8.581   8.800
  696POPC   C2B12680  39.400   8.578   8.377
  696POPC   C3B12681  39.613   8.465   7.971
  696POPC   C4B12682  39.454   8.316   7.584
  697POPC   NC312683   4.289  25.143   9.605
  697POPC   PO412684   4.170  25.801   9.438
  697POPC   GL112685   4.485  25.556   9.127
  697POPC   GL212686   4.488  25.133   9.124
  697POPC   C1A12687   4.403  25.436   8.723
  697POPC   D2A12688   4.352  25.127   8.419
  697POPC   C3A12689   4.351  25.270   7.984
  697POPC   C4A12690   4.138  25.323   7.586
  697POPC   C1B12691   4.751  25.045   8.759
  697POPC   C2B12692   4.858  25.131   8.328
  697POPC   C3B12693   4.726  24.913   7.917
  697POPC   C4B12694   4.565  25.085   7.501
  698POPC   NC312695   6.929  10.996   9.339
  698POPC   PO412696   6.563  11.532   9.547
  698POPC   GL112697   6.692  11.445   9.142
  698POPC   GL212698   6.381  11.430   9.032
  698POPC   C1A12699   6.754  11.350   8.685
  698POPC   D2A12700   6.980  11.364   8.305
  698POPC   C3A12701   6.840  11.149   7.998
  698POPC   C4A12702   6.968  11.271   7.656
  698POPC   C1B12703   6.262  11.484   8.611
  698POPC   C2B12704   6.335  11.385   8.179
  698POPC   C3B12705   6.257  11.682   7.888
  698POPC   C4B12706   6.238  11.995   7.655
  699POPC   NC312707  44.862  32.466   9.815
  699POPC   PO412708  44.521  32.063   9.325
  699POPC   GL112709  44.586  32.216   8.937
  699POPC   GL212710  44.946  32.140   8.824
  699POPC   C1A12711  44.527  32.268   8.507
  699POPC   D2A12712  44.672  32.415   8.111
  699POPC   C3A12713  44.579  32.083   7.817
  699POPC   C4A12714  44.465  31.852   7.416
  699POPC   C1B12715  44.923  32.575   8.702
  699POPC   C2B12716   0.024  32.779   8.308
  699POPC   C3B12717   0.070  32.654   7.896
  699POPC   C4B12718  44.864  32.424   7.570
  700POPC   NC312719   2.997  29.804   9.407
  700POPC   PO412720   2.410  30.163   9.226
  700POPC   GL112721   2.774  30.078   9.043
  700POPC   GL212722   3.130  30.185   9.111
  700POPC   C1A12723   2.828  29.755   8.775
  700POPC   D2A12724   2.681  29.530   8.463
  700POPC   C3A12725   2.696  29.770   8.133
  700POPC   C4A12726   2.453  29.757   7.819
  700POPC   C1B12727   3.163  30.206   8.747
  700POPC   C2B12728   2.944  30.133   8.419
  700POPC   C3B12729   3.041  30.143   8.029
  700POPC   C4B12730   2.841  30.074   7.714
  701POPC   NC312731  43.439   6.350   9.508
  701POPC   PO412732  43.915   6.754   9.570
  701POPC   GL112733  43.926   6.661   9.155
  701POPC   GL212734  43.824   7.014   9.087
  701POPC   C1A12735  44.067   6.757   8.734
  701POPC   D2A12736  43.818   6.851   8.392
  701POPC   C3A12737  43.901   6.633   8.005
  701POPC   C4A12738  44.046   6.578   7.596
  701POPC   C1B12739  43.483   7.127   8.800
  701POPC   C2B12740  43.316   7.077   8.376
  701POPC   C3B12741  43.504   6.938   7.994
  701POPC   C4B12742  43.636   7.081   7.583
  702POPC   NC312743  37.740  14.411   9.527
  702POPC   PO412744  37.389  14.882   9.134
  702POPC   GL112745  37.618  14.545   9.051
  702POPC   GL212746  37.372  14.297   9.170
  702POPC   C1A12747  37.811  14.415   8.670
  702POPC   D2A12748  37.690  14.315   8.247
  702POPC   C3A12749  37.880  14.474   7.856
  702POPC   C4A12750  37.890  14.423   7.385
  702POPC   C1B12751  37.310  14.229   8.741
  702POPC   C2B12752  37.158  14.360   8.341
  702POPC   C3B12753  37.335  14.572   7.996
  702POPC   C4B12754  37.445  14.308   7.662
  703POPC   NC312755  11.728  10.174   9.575
  703POPC   PO412756  11.073  10.036   9.735
  703POPC   GL112757  11.196   9.842   9.309
  703POPC   GL212758  11.173   9.480   9.246
  703POPC   C1A12759  11.134   9.875   8.846
  703POPC   D2A12760  11.098  10.005   8.407
  703POPC   C3A12761  11.263   9.742   8.069
  703POPC   C4A12762  11.083   9.842   7.671
  703POPC   C1B12763  10.968   9.370   8.864
  703POPC   C2B12764  10.954   9.480   8.440
  703POPC   C3B12765  10.756   9.702   8.118
  703POPC   C4B12766  10.743   9.472   7.728
  704POPC   NC312767  25.194   2.382   9.515
  704POPC   PO412768  24.958   3.040   9.548
  704POPC   GL112769  25.200   2.914   9.133
  704POPC   GL212770  25.545   2.830   9.231
  704POPC   C1A12771  25.128   2.827   8.668
  704POPC   D2A12772  25.265   2.604   8.291
  704POPC   C3A12773  25.420   2.821   7.927
  704POPC   C4A12774  25.276   2.791   7.504
  704POPC   C1B12775  25.617   2.868   8.780
  704POPC   C2B12776  25.526   3.065   8.406
  704POPC   C3B12777  25.691   3.332   8.116
  704POPC   C4B12778  25.640   3.278   7.682
  705POPC   NC312779  29.763  13.013   9.347
  705POPC   PO412780  29.743  13.639   9.691
  705POPC   GL112781  29.913  13.722   9.204
  705POPC   GL212782  30.250  13.639   8.968
  705POPC   C1A12783  29.888  13.910   8.763
  705POPC   D2A12784  30.105  13.709   8.392
  705POPC   C3A12785  29.862  13.640   7.996
  705POPC   C4A12786  29.862  13.801   7.618
  705POPC   C1B12787  30.312  13.267   8.676
  705POPC   C2B12788  30.282  13.014   8.328
  705POPC   C3B12789  30.249  13.251   7.974
  705POPC   C4B12790  30.342  13.708   7.892
  706POPC   NC312791  14.268  16.488   9.598
  706POPC   PO412792  14.234  17.207   9.553
  706POPC   GL112793  14.236  16.995   9.145
  706POPC   GL212794  14.227  16.631   9.128
  706POPC   C1A12795  14.415  16.876   8.739
  706POPC   D2A12796  14.285  17.027   8.376
  706POPC   C3A12797  14.485  16.859   8.005
  706POPC   C4A12798  14.401  16.706   7.563
  706POPC   C1B12799  14.096  16.438   8.771
  706POPC   C2B12800  14.255  16.500   8.375
  706POPC   C3B12801  14.199  16.430   7.959
  706POPC   C4B12802  14.055  16.302   7.593
  707POPC   NC312803  26.796  33.281   9.349
  707POPC   PO412804  27.317  32.877   9.516
  707POPC   GL112805  27.044  32.844   9.164
  707POPC   GL212806  26.673  32.754   9.208
  707POPC   C1A12807  26.956  33.032   8.773
  707POPC   D2A12808  27.025  32.886   8.386
  707POPC   C3A12809  26.877  33.180   8.078
  707POPC   C4A12810  26.661  33.163   7.718
  707POPC   C1B12811  26.572  32.715   8.760
  707POPC   C2B12812  26.526  32.860   8.317
  707POPC   C3B12813  26.658  32.698   7.929
  707POPC   C4B12814  26.531  32.735   7.488
  708POPC   NC312815  22.475   0.990  10.003
  708POPC   PO412816  21.988   1.032   9.516
  708POPC   GL112817  22.072   1.195   9.115
  708POPC   GL212818  22.354   1.437   9.144
  708POPC   C1A12819  21.891   1.388   8.818
  708POPC   D2A12820  21.802   1.465   8.414
  708POPC   C3A12821  22.096   1.340   8.121
  708POPC   C4A12822  22.018   1.380   7.712
  708POPC   C1B12823  22.417   1.324   8.720
  708POPC   C2B12824  22.535   1.509   8.344
  708POPC   C3B12825  22.633   1.435   7.927
  708POPC   C4B12826  22.414   1.092   7.777
  709POPC   NC312827  23.002  28.953   9.159
  709POPC   PO412828  23.056  28.408   9.529
  709POPC   GL112829  22.989  28.297   9.106
  709POPC   GL212830  22.722  28.514   9.123
  709POPC   C1A12831  23.033  28.275   8.633
  709POPC   D2A12832  23.106  28.033   8.243
  709POPC   C3A12833  23.013  28.311   7.926
  709POPC   C4A12834  23.360  28.517   7.776
  709POPC   C1B12835  22.615  28.590   8.697
  709POPC   C2B12836  22.790  28.645   8.283
  709POPC   C3B12837  22.597  28.613   7.876
  709POPC   C4B12838  22.705  28.434   7.495
  710POPC   NC312839  35.864   2.461   9.321
  710POPC   PO412840  35.359   2.069   9.656
  710POPC   GL112841  35.302   1.835   9.260
  710POPC   GL212842  35.016   1.976   9.109
  710POPC   C1A12843  35.362   1.799   8.792
  710POPC   D2A12844  35.437   2.145   8.510
  710POPC   C3A12845  35.426   2.147   8.101
  710POPC   C4A12846  35.453   1.792   7.882
  710POPC   C1B12847  34.957   2.097   8.687
  710POPC   C2B12848  35.035   1.867   8.320
  710POPC   C3B12849  34.964   1.715   7.921
  710POPC   C4B12850  34.964   1.859   7.506
  711POPC   NC312851  17.837  12.212   9.490
  711POPC   PO412852  17.115  12.006   9.510
  711POPC   GL112853  17.386  12.279   9.185
  711POPC   GL212854  17.723  12.125   9.012
  711POPC   C1A12855  17.500  12.492   8.783
  711POPC   D2A12856  17.806  12.300   8.482
  711POPC   C3A12857  17.584  12.025   8.165
  711POPC   C4A12858  17.287  12.136   7.785
  711POPC   C1B12859  17.646  11.844   8.664
  711POPC   C2B12860  17.815  11.590   8.351
  711POPC   C3B12861  17.951  11.672   7.947
  711POPC   C4B12862  17.791  12.009   7.652
  712POPC   NC312863  23.505  14.924   9.422
  712POPC   PO412864  23.909  15.490   9.586
  712POPC   GL112865  23.791  15.253   9.186
  712POPC   GL212866  23.955  14.960   9.048
  712POPC   C1A12867  23.584  15.290   8.794
  712POPC   D2A12868  23.437  15.493   8.418
  712POPC   C3A12869  23.632  15.442   8.030
  712POPC   C4A12870  23.696  15.113   7.790
  712POPC   C1B12871  24.021  15.073   8.631
  712POPC   C2B12872  23.858  14.890   8.252
  712POPC   C3B12873  24.066  14.799   7.864
  712POPC   C4B12874  23.937  14.865   7.392
  713POPC   NC312875  13.202   4.964   9.514
  713POPC   PO412876  12.600   4.804   9.502
  713POPC   GL112877  12.774   5.142   9.212
  713POPC   GL212878  12.981   5.414   9.343
  713POPC   C1A12879  12.997   5.086   8.836
  713POPC   D2A12880  12.817   4.982   8.452
  713POPC   C3A12881  12.774   5.231   8.111
  713POPC   C4A12882  12.789   4.892   7.796
  713POPC   C1B12883  13.147   5.544   8.951
  713POPC   C2B12884  13.154   5.432   8.472
  713POPC   C3B12885  13.254   5.477   8.004
  713POPC   C4B12886  12.960   5.342   7.658
  714POPC   NC312887  43.511  37.754  10.058
  714POPC   PO412888  43.055  37.635   9.537
  714POPC   GL112889  43.152  37.624   9.133
  714POPC   GL212890  42.897  37.408   9.090
  714POPC   C1A12891  43.028  37.768   8.710
  714POPC   D2A12892  42.929  37.821   8.284
  714POPC   C3A12893  43.301  37.916   8.071
  714POPC   C4A12894  43.579  37.935   7.741
  714POPC   C1B12895  43.217  37.283   8.769
  714POPC   C2B12896  43.309  37.420   8.343
  714POPC   C3B12897  43.120  37.452   7.947
  714POPC   C4B12898  43.223  37.614   7.563
  715POPC   NC312899  41.878  24.751   9.298
  715POPC   PO412900  42.120  24.274   9.703
  715POPC   GL112901  42.297  24.443   9.274
  715POPC   GL212902  42.092  24.448   8.960
  715POPC   C1A12903  42.601  24.485   8.899
  715POPC   D2A12904  42.624  24.318   8.442
  715POPC   C3A12905  42.302  24.251   8.120
  715POPC   C4A12906  42.372  24.313   7.689
  715POPC   C1B12907  42.236  24.804   8.708
  715POPC   C2B12908  42.378  24.759   8.285
  715POPC   C3B12909  42.138  24.698   7.909
  715POPC   C4B12910  42.381  24.879   7.575
  716POPC   NC312911  33.365   4.588   9.351
  716POPC   PO412912  33.094   4.072   9.695
  716POPC   GL112913  32.910   4.080   9.294
  716POPC   GL212914  32.880   4.425   9.183
  716POPC   C1A12915  33.017   4.017   8.867
  716POPC   D2A12916  32.897   4.179   8.468
  716POPC   C3A12917  32.933   4.072   8.035
  716POPC   C4A12918  32.841   4.318   7.666
  716POPC   C1B12919  33.035   4.609   8.775
  716POPC   C2B12920  33.197   4.571   8.354
  716POPC   C3B12921  33.006   4.698   7.955
  716POPC   C4B12922  33.218   4.675   7.544
  717POPC   NC312923  27.216  22.958   9.450
  717POPC   PO412924  26.540  22.730   9.622
  717POPC   GL112925  26.712  22.715   9.212
  717POPC   GL212926  26.831  23.028   9.101
  717POPC   C1A12927  26.820  22.666   8.765
  717POPC   D2A12928  26.819  22.951   8.418
  717POPC   C3A12929  26.757  22.710   8.043
  717POPC   C4A12930  26.453  22.742   7.683
  717POPC   C1B12931  27.180  23.031   8.785
  717POPC   C2B12932  27.315  23.082   8.353
  717POPC   C3B12933  27.043  23.189   8.012
  717POPC   C4B12934  26.893  23.006   7.655
  718POPC   NC312935  15.566  15.684   9.259
  718POPC   PO412936  14.980  15.414   9.506
  718POPC   GL112937  15.200  15.346   9.123
  718POPC   GL212938  15.312  14.993   9.179
  718POPC   C1A12939  15.287  15.356   8.671
  718POPC   D2A12940  14.942  15.369   8.365
  718POPC   C3A12941  15.002  15.406   7.932
  718POPC   C4A12942  15.372  15.454   7.697
  718POPC   C1B12943  14.994  14.945   8.843
  718POPC   C2B12944  15.171  14.915   8.424
  718POPC   C3B12945  15.320  15.024   8.033
  718POPC   C4B12946  15.114  14.999   7.638
  719POPC   NC312947  31.127  28.203   9.441
  719POPC   PO412948  30.542  28.551   9.498
  719POPC   GL112949  30.729  28.402   9.158
  719POPC   GL212950  30.439  28.269   9.062
  719POPC   C1A12951  30.872  28.435   8.744
  719POPC   D2A12952  31.027  28.573   8.360
  719POPC   C3A12953  30.877  28.264   8.129
  719POPC   C4A12954  30.873  28.367   7.747
  719POPC   C1B12955  30.269  28.460   8.751
  719POPC   C2B12956  30.328  28.269   8.383
  719POPC   C3B12957  30.401  28.400   8.001
  719POPC   C4B12958  30.398  28.186   7.634
  720POPC   NC312959  43.062  20.234   9.520
  720POPC   PO412960  43.553  19.769   9.705
  720POPC   GL112961  43.266  19.793   9.266
  720POPC   GL212962  43.046  19.473   9.203
  720POPC   C1A12963  43.041  19.845   8.835
  720POPC   D2A12964  42.972  20.107   8.449
  720POPC   C3A12965  43.012  19.974   8.013
  720POPC   C4A12966  43.091  19.767   7.635
  720POPC   C1B12967  43.287  19.417   8.807
  720POPC   C2B12968  43.138  19.604   8.375
  720POPC   C3B12969  43.151  19.402   7.983
  720POPC   C4B12970  43.405  19.358   7.624
  721POPC   NC312971  42.366  14.811   9.601
  721POPC   PO412972  42.326  15.435   9.456
  721POPC   GL112973  42.184  15.151   9.181
  721POPC   GL212974  42.499  14.980   9.138
  721POPC   C1A12975  42.104  15.330   8.782
  721POPC   D2A12976  42.349  15.351   8.405
  721POPC   C3A12977  42.184  15.231   8.004
  721POPC   C4A12978  42.323  15.415   7.645
  721POPC   C1B12979  42.681  14.842   8.760
  721POPC   C2B12980  42.667  14.930   8.321
  721POPC   C3B12981  42.550  14.829   7.887
  721POPC   C4B12982  42.315  14.935   7.576
  722POPC   NC312983   9.950  34.930   9.857
  722POPC   PO412984   9.545  35.184   9.369
  722POPC   GL112985   9.575  35.365   9.027
  722POPC   GL212986   9.925  35.304   9.019
  722POPC   C1A12987   9.554  35.313   8.618
  722POPC   D2A12988   9.890  35.311   8.346
  722POPC   C3A12989   9.659  35.347   7.982
  722POPC   C4A12990   9.831  35.205   7.625
  722POPC   C1B12991   9.999  35.642   8.756
  722POPC   C2B12992  10.178  35.743   8.355
  722POPC   C3B12993  10.091  35.634   7.954
  722POPC   C4B12994  10.078  35.951   7.699
  723POPC   NC312995   6.572  36.443   9.473
  723POPC   PO412996   6.456  35.736   9.495
  723POPC   GL112997   6.378  36.018   9.208
  723POPC   GL212998   6.733  36.063   9.128
  723POPC   C1A12999   6.374  36.025   8.774
  723POPC   D2A13000   6.597  35.907   8.425
  723POPC   C3A13001   6.378  36.012   8.078
  723POPC   C4A13002   6.221  36.165   7.705
  723POPC   C1B13003   6.825  36.290   8.719
  723POPC   C2B13004   6.549  36.463   8.386
  723POPC   C3B13005   6.562  36.470   7.935
  723POPC   C4B13006   6.745  36.141   7.729
  724POPC   NC313007  27.201  34.550   9.387
  724POPC   PO413008  27.811  34.694   9.553
  724POPC   GL113009  27.657  34.586   9.147
  724POPC   GL213010  27.567  34.232   9.222
  724POPC   C1A13011  27.562  34.777   8.733
  724POPC   D2A13012  27.669  34.805   8.309
  724POPC   C3A13013  27.402  34.889   7.970
  724POPC   C4A13014  27.509  34.776   7.532
  724POPC   C1B13015  27.351  34.322   8.795
  724POPC   C2B13016  27.508  34.302   8.373
  724POPC   C3B13017  27.510  34.401   7.928
  724POPC   C4B13018  27.833  34.337   7.631
  725POPC   NC313019  16.767  17.204   9.435
  725POPC   PO413020  16.493  17.835   9.544
  725POPC   GL113021  16.540  17.578   9.140
  725POPC   GL213022  16.338  17.277   9.168
  725POPC   C1A13023  16.906  17.519   8.805
  725POPC   D2A13024  17.153  17.776   8.449
  725POPC   C3A13025  17.023  17.700   8.018
  725POPC   C4A13026  16.656  17.852   7.800
  725POPC   C1B13027  16.446  17.193   8.773
  725POPC   C2B13028  16.692  17.251   8.410
  725POPC   C3B13029  16.587  17.379   8.023
  725POPC   C4B13030  16.537  17.147   7.695
  726POPC   NC313031   4.683  29.917   9.482
  726POPC   PO413032   4.236  29.623   9.935
  726POPC   GL113033   4.220  29.790   9.371
  726POPC   GL213034   4.079  30.072   9.212
  726POPC   C1A13035   4.398  29.638   8.896
  726POPC   D2A13036   4.571  29.561   8.458
  726POPC   C3A13037   4.470  29.858   8.137
  726POPC   C4A13038   4.579  29.936   7.724
  726POPC   C1B13039   4.164  30.046   8.736
  726POPC   C2B13040   3.977  29.940   8.291
  726POPC   C3B13041   4.020  30.034   7.823
  726POPC   C4B13042   4.065  30.136   7.280
  727POPC   NC313043  14.370  13.196   9.533
  727POPC   PO413044  14.572  13.874   9.446
  727POPC   GL113045  14.348  13.751   9.087
  727POPC   GL213046  14.432  13.418   9.078
  727POPC   C1A13047  14.165  14.002   8.744
  727POPC   D2A13048  13.945  14.036   8.332
  727POPC   C3A13049  14.181  13.922   7.970
  727POPC   C4A13050  14.267  13.523   7.754
  727POPC   C1B13051  14.578  13.562   8.675
  727POPC   C2B13052  14.511  13.567   8.237
  727POPC   C3B13053  14.757  13.498   7.881
  727POPC   C4B13054  14.691  13.486   7.453
  728POPC   NC313055  44.803  34.974   9.506
  728POPC   PO413056  44.381  34.480   9.517
  728POPC   GL113057  44.552  34.299   9.143
  728POPC   GL213058  44.893  34.413   9.142
  728POPC   C1A13059  44.562  34.475   8.725
  728POPC   D2A13060  44.369  34.771   8.472
  728POPC   C3A13061  44.684  34.811   8.200
  728POPC   C4A13062  44.668  34.762   7.788
  728POPC   C1B13063  44.907  34.101   8.805
  728POPC   C2B13064  44.730  34.044   8.398
  728POPC   C3B13065  44.697  34.301   8.016
  728POPC   C4B13066  44.926  34.349   7.598
  729POPC   NC313067  30.776  22.004   9.545
  729POPC   PO413068  30.846  22.650   9.589
  729POPC   GL113069  30.715  22.375   9.172
  729POPC   GL213070  30.559  22.011   9.094
  729POPC   C1A13071  30.638  22.336   8.697
  729POPC   D2A13072  30.967  22.392   8.394
  729POPC   C3A13073  30.938  22.211   8.011
  729POPC   C4A13074  30.686  22.261   7.685
  729POPC   C1B13075  30.433  21.797   8.699
  729POPC   C2B13076  30.584  21.961   8.307
  729POPC   C3B13077  30.619  21.797   7.892
  729POPC   C4B13078  30.430  21.832   7.484
  730POPC   NC313079  25.778  11.390   9.601
  730POPC   PO413080  25.167  11.554   9.614
  730POPC   GL113081  25.376  11.289   9.277
  730POPC   GL213082  25.158  11.092   9.098
  730POPC   C1A13083  25.476  11.349   8.821
  730POPC   D2A13084  25.449  11.612   8.475
  730POPC   C3A13085  25.308  11.451   8.074
  730POPC   C4A13086  25.279  11.322   7.636
  730POPC   C1B13087  24.954  11.346   8.758
  730POPC   C2B13088  24.855  11.395   8.315
  730POPC   C3B13089  24.834  11.246   7.866
  730POPC   C4B13090  24.738  11.390   7.399
  731POPC   NC313091  21.788  19.693   9.607
  731POPC   PO413092  21.969  20.301   9.451
  731POPC   GL113093  22.042  19.917   9.168
  731POPC   GL213094  22.240  19.607   9.242
  731POPC   C1A13095  22.141  19.736   8.761
  731POPC   D2A13096  22.060  19.896   8.359
  731POPC   C3A13097  21.975  19.709   8.010
  731POPC   C4A13098  22.144  19.896   7.677
  731POPC   C1B13099  22.555  19.489   8.926
  731POPC   C2B13100  22.656  19.588   8.520
  731POPC   C3B13101  22.454  19.577   8.135
  731POPC   C4B13102  22.333  19.423   7.739
  732POPC   NC313103  43.691   2.522   9.537
  732POPC   PO413104  44.360   2.692   9.589
  732POPC   GL113105  44.086   2.935   9.246
  732POPC   GL213106  43.749   2.901   9.144
  732POPC   C1A13107  44.063   2.780   8.765
  732POPC   D2A13108  43.776   2.843   8.401
  732POPC   C3A13109  43.975   2.881   7.993
  732POPC   C4A13110  43.785   2.791   7.664
  732POPC   C1B13111  43.618   2.535   8.818
  732POPC   C2B13112  43.741   2.297   8.432
  732POPC   C3B13113  43.704   2.412   8.004
  732POPC   C4B13114  43.419   2.453   7.661
  733POPC   NC313115  30.952  42.706   9.687
  733POPC   PO413116  31.648  42.576   9.539
  733POPC   GL113117  31.619  42.354   9.172
  733POPC   GL213118  31.566  42.667   9.020
  733POPC   C1A13119  31.876  42.341   8.792
  733POPC   D2A13120  31.889  42.586   8.396
  733POPC   C3A13121  31.611  42.423   8.085
  733POPC   C4A13122  31.599  42.413   7.638
  733POPC   C1B13123  31.403  42.527   8.623
  733POPC   C2B13124  31.133  42.692   8.296
  733POPC   C3B13125  31.152  42.571   7.858
  733POPC   C4B13126  31.143  42.187   7.596
  734POPC   NC313127  17.511  24.997   9.877
  734POPC   PO413128  17.504  25.531   9.534
  734POPC   GL113129  17.307  25.601   9.139
  734POPC   GL213130  17.418  25.274   9.082
  734POPC   C1A13131  17.273  25.548   8.678
  734POPC   D2A13132  17.568  25.517   8.347
  734POPC   C3A13133  17.534  25.319   7.918
  734POPC   C4A13134  17.837  25.303   7.573
  734POPC   C1B13135  17.650  25.156   8.711
  734POPC   C2B13136  17.684  24.998   8.275
  734POPC   C3B13137  17.659  24.809   7.843
  734POPC   C4B13138  17.270  24.594   7.703
  735POPC   NC313139  13.042   9.383   9.457
  735POPC   PO413140  12.971  10.079   9.446
  735POPC   GL113141  12.797   9.789   9.198
  735POPC   GL213142  12.518   9.689   9.324
  735POPC   C1A13143  12.905   9.760   8.768
  735POPC   D2A13144  13.017   9.953   8.408
  735POPC   C3A13145  12.990   9.686   8.077
  735POPC   C4A13146  12.884   9.832   7.693
  735POPC   C1B13147  12.439   9.577   8.887
  735POPC   C2B13148  12.552   9.575   8.438
  735POPC   C3B13149  12.517   9.820   8.062
  735POPC   C4B13150  12.363   9.812   7.683
  736POPC   NC313151   8.742  37.894   9.516
  736POPC   PO413152   8.110  37.505   9.529
  736POPC   GL113153   8.326  37.755   9.217
  736POPC   GL213154   8.014  37.739   9.058
  736POPC   C1A13155   8.428  37.657   8.774
  736POPC   D2A13156   8.152  37.728   8.418
  736POPC   C3A13157   8.375  37.693   8.038
  736POPC   C4A13158   8.376  37.687   7.567
  736POPC   C1B13159   7.740  38.033   8.850
  736POPC   C2B13160   7.812  38.129   8.427
  736POPC   C3B13161   7.996  38.163   8.004
  736POPC   C4B13162   7.707  38.212   7.628
  737POPC   NC313163   2.183  24.763   9.393
  737POPC   PO413164   1.768  24.285   9.514
  737POPC   GL113165   1.965  24.293   9.108
  737POPC   GL213166   2.225  24.457   8.997
  737POPC   C1A13167   1.880  24.226   8.668
  737POPC   D2A13168   1.920  24.346   8.218
  737POPC   C3A13169   1.662  24.457   7.900
  737POPC   C4A13170   1.531  24.222   7.509
  737POPC   C1B13171   2.134  24.663   8.609
  737POPC   C2B13172   2.377  24.548   8.241
  737POPC   C3B13173   2.274  24.559   7.837
  737POPC   C4B13174   2.030  24.352   7.586
  738POPC   NC313175   7.634  23.556   9.358
  738POPC   PO413176   7.205  24.008   9.709
  738POPC   GL113177   7.220  23.923   9.224
  738POPC   GL213178   6.944  23.667   9.153
  738POPC   C1A13179   7.428  23.902   8.787
  738POPC   D2A13180   7.589  23.510   8.568
  738POPC   C3A13181   7.656  23.448   8.104
  738POPC   C4A13182   7.825  23.531   7.656
  738POPC   C1B13183   7.077  23.531   8.735
  738POPC   C2B13184   7.196  23.721   8.312
  738POPC   C3B13185   7.136  23.492   7.916
  738POPC   C4B13186   7.288  23.490   7.516
  739POPC   NC313187  40.434   9.409   9.599
  739POPC   PO413188  40.657   8.792   9.604
  739POPC   GL113189  40.667   8.999   9.195
  739POPC   GL213190  40.688   9.338   9.169
  739POPC   C1A13191  40.847   8.944   8.778
  739POPC   D2A13192  40.854   8.665   8.424
  739POPC   C3A13193  40.914   8.892   8.069
  739POPC   C4A13194  40.775   8.706   7.707
  739POPC   C1B13195  40.812   9.474   8.782
  739POPC   C2B13196  40.940   9.349   8.397
  739POPC   C3B13197  40.729   9.414   8.034
  739POPC   C4B13198  40.786   9.248   7.667
  740POPC   NC313199  23.360  10.214   9.486
  740POPC   PO413200  23.851  10.726   9.363
  740POPC   GL113201  23.765  10.654   8.970
  740POPC   GL213202  23.505  10.449   9.073
  740POPC   C1A13203  23.912  10.339   8.729
  740POPC   D2A13204  24.041  10.135   8.359
  740POPC   C3A13205  23.782  10.208   7.968
  740POPC   C4A13206  23.822  10.464   7.586
  740POPC   C1B13207  23.364  10.266   8.726
  740POPC   C2B13208  23.527  10.455   8.382
  740POPC   C3B13209  23.447  10.828   8.208
  740POPC   C4B13210  23.456  10.779   7.802
  741POPC   NC313211   0.368  11.280   9.743
  741POPC   PO413212  44.830  11.560   9.663
  741POPC   GL113213   0.146  11.358   9.245
  741POPC   GL213214   0.474  11.204   9.229
  741POPC   C1A13215   0.310  11.166   8.762
  741POPC   D2A13216   0.529  11.021   8.347
  741POPC   C3A13217   0.381  11.292   7.963
  741POPC   C4A13218   0.229  11.733   7.798
  741POPC   C1B13219   0.776  11.023   8.891
  741POPC   C2B13220   0.989  10.792   8.574
  741POPC   C3B13221   1.013  10.875   8.108
  741POPC   C4B13222   0.868  11.196   7.821
  742POPC   NC313223  35.411  19.256   9.644
  742POPC   PO413224  34.905  19.008   9.306
  742POPC   GL113225  35.286  19.103   9.125
  742POPC   GL213226  35.638  19.172   9.119
  742POPC   C1A13227  35.315  18.953   8.715
  742POPC   D2A13228  35.295  19.153   8.326
  742POPC   C3A13229  35.255  18.934   7.952
  742POPC   C4A13230  35.304  19.089   7.539
  742POPC   C1B13231  35.813  18.923   8.762
  742POPC   C2B13232  35.643  18.744   8.372
  742POPC   C3B13233  35.771  18.781   7.945
  742POPC   C4B13234  35.799  18.963   7.510
  743POPC   NC313235  13.093  18.592   9.485
  743POPC   PO413236  12.483  18.332   9.335
  743POPC   GL113237  12.739  18.537   9.081
  743POPC   GL213238  13.000  18.278   9.096
  743POPC   C1A13239  12.741  18.537   8.632
  743POPC   D2A13240  12.750  18.254   8.336
  743POPC   C3A13241  12.745  18.278   7.890
  743POPC   C4A13242  12.504  18.563   7.624
  743POPC   C1B13243  13.052  18.050   8.720
  743POPC   C2B13244  13.184  18.006   8.293
  743POPC   C3B13245  13.026  17.822   7.919
  743POPC   C4B13246  13.199  17.867   7.492
  744POPC   NC313247  23.459   0.925   9.387
  744POPC   PO413248  23.642   1.526   9.483
  744POPC   GL113249  23.667   1.346   9.104
  744POPC   GL213250  23.333   1.304   9.068
  744POPC   C1A13251  23.602   1.404   8.656
  744POPC   D2A13252  23.800   1.089   8.428
  744POPC   C3A13253  23.700   1.154   8.026
  744POPC   C4A13254  23.859   1.373   7.693
  744POPC   C1B13255  23.328   0.977   8.741
  744POPC   C2B13256  23.253   0.937   8.314
  744POPC   C3B13257  23.392   0.761   7.954
  744POPC   C4B13258  23.551   0.917   7.594
  745POPC   NC313259   9.671  44.884   9.484
  745POPC   PO413260   9.572  44.203   9.605
  745POPC   GL113261   9.593  44.444   9.237
  745POPC   GL213262   9.895  44.338   9.096
  745POPC   C1A13263   9.584  44.684   8.840
  745POPC   D2A13264   9.451  44.582   8.394
  745POPC   C3A13265   9.687  44.682   8.002
  745POPC   C4A13266   9.757  44.955   7.626
  745POPC   C1B13267   9.869  44.324   8.636
  745POPC   C2B13268   9.925  44.246   8.209
  745POPC   C3B13269   9.927  44.299   7.766
  745POPC   C4B13270  10.004  44.498   7.370
  746POPC   NC313271  17.224  42.613   9.495
  746POPC   PO413272  17.764  43.017   9.363
  746POPC   GL113273  17.531  43.010   9.030
  746POPC   GL213274  17.190  42.974   9.130
  746POPC   C1A13275  17.363  43.226   8.702
  746POPC   D2A13276  17.588  43.491   8.415
  746POPC   C3A13277  17.573  43.254   8.065
  746POPC   C4A13278  17.215  43.288   7.777
  746POPC   C1B13279  17.218  42.692   8.782
  746POPC   C2B13280  17.200  42.496   8.381
  746POPC   C3B13281  17.098  42.655   7.962
  746POPC   C4B13282  17.452  42.838   7.791
  747POPC   NC313283   8.379  24.160   9.261
  747POPC   PO413284   8.056  24.815   9.348
  747POPC   GL113285   8.056  24.699   8.962
  747POPC   GL213286   7.929  24.367   9.043
  747POPC   C1A13287   8.374  24.602   8.694
  747POPC   D2A13288   8.393  24.221   8.488
  747POPC   C3A13289   8.271  24.236   8.069
  747POPC   C4A13290   8.294  24.574   7.791
  747POPC   C1B13291   7.898  24.325   8.612
  747POPC   C2B13292   8.037  24.632   8.318
  747POPC   C3B13293   7.941  24.877   8.001
  747POPC   C4B13294   7.785  24.493   7.834
  748POPC   NC313295  12.442  21.503   9.593
  748POPC   PO413296  12.988  21.359   9.632
  748POPC   GL113297  12.871  21.362   9.223
  748POPC   GL213298  12.677  21.666   9.169
  748POPC   C1A13299  13.043  21.266   8.821
  748POPC   D2A13300  12.829  21.361   8.428
  748POPC   C3A13301  13.021  21.262   8.038
  748POPC   C4A13302  12.987  21.422   7.618
  748POPC   C1B13303  12.460  21.749   8.773
  748POPC   C2B13304  12.375  21.638   8.322
  748POPC   C3B13305  12.509  21.400   7.952
  748POPC   C4B13306  12.538  21.621   7.573
  749POPC   NC313307   6.022  41.891   9.371
  749POPC   PO413308   5.349  41.917   9.464
  749POPC   GL113309   5.628  41.621   9.174
  749POPC   GL213310   5.985  41.435   9.155
  749POPC   C1A13311   5.717  41.606   8.723
  749POPC   D2A13312   5.853  41.801   8.332
  749POPC   C3A13313   5.572  41.599   8.090
  749POPC   C4A13314   5.624  41.312   7.750
  749POPC   C1B13315   6.219  41.614   8.789
  749POPC   C2B13316   6.214  41.433   8.386
  749POPC   C3B13317   6.052  41.404   7.998
  749POPC   C4B13318   6.119  41.455   7.554
  750POPC   NC313319  36.899  39.658   9.516
  750POPC   PO413320  37.253  39.059   9.680
  750POPC   GL113321  37.195  39.163   9.247
  750POPC   GL213322  37.267  39.498   9.180
  750POPC   C1A13323  36.958  39.230   8.863
  750POPC   D2A13324  36.928  39.048   8.451
  750POPC   C3A13325  36.680  39.253   8.122
  750POPC   C4A13326  36.786  39.391   7.694
  750POPC   C1B13327  37.417  39.416   8.753
  750POPC   C2B13328  37.429  39.252   8.358
  750POPC   C3B13329  37.181  39.221   8.003
  750POPC   C4B13330  37.289  39.457   7.653
  751POPC   NC313331  20.225  41.928   9.532
  751POPC   PO413332  19.751  41.477   9.585
  751POPC   GL113333  20.000  41.553   9.230
  751POPC   GL213334  19.714  41.729   9.076
  751POPC   C1A13335  20.006  41.371   8.811
  751POPC   D2A13336  19.899  41.513   8.394
  751POPC   C3A13337  20.129  41.455   7.993
  751POPC   C4A13338  20.105  41.530   7.526
  751POPC   C1B13339  19.479  41.488   8.745
  751POPC   C2B13340  19.450  41.279   8.331
  751POPC   C3B13341  19.600  41.496   7.969
  751POPC   C4B13342  19.570  41.536   7.519
  752POPC   NC313343  24.834  11.741   9.354
  752POPC   PO413344  24.340  12.218   9.587
  752POPC   GL113345  24.425  12.009   9.195
  752POPC   GL213346  24.711  12.201   9.105
  752POPC   C1A13347  24.205  11.909   8.809
  752POPC   D2A13348  24.083  12.055   8.413
  752POPC   C3A13349  24.225  11.931   8.043
  752POPC   C4A13350  24.344  12.210   7.693
  752POPC   C1B13351  24.729  11.902   8.755
  752POPC   C2B13352  24.593  11.846   8.370
  752POPC   C3B13353  24.730  11.981   7.961
  752POPC   C4B13354  24.851  12.325   7.691
  753POPC   NC313355  25.037  39.643   9.384
  753POPC   PO413356  25.141  38.982   9.415
  753POPC   GL113357  25.213  39.069   9.033
  753POPC   GL213358  25.566  39.094   9.113
  753POPC   C1A13359  25.094  39.140   8.630
  753POPC   D2A13360  25.316  39.242   8.248
  753POPC   C3A13361  25.132  39.347   7.861
  753POPC   C4A13362  25.200  39.471   7.435
  753POPC   C1B13363  25.620  39.167   8.682
  753POPC   C2B13364  25.764  38.934   8.330
  753POPC   C3B13365  25.726  39.107   7.936
  753POPC   C4B13366  25.626  39.481   7.698
  754POPC   NC313367  19.487  37.151   9.376
  754POPC   PO413368  19.664  36.454   9.318
  754POPC   GL113369  19.954  36.778   9.129
  754POPC   GL213370  20.132  37.100   9.099
  754POPC   C1A13371  20.093  36.767   8.711
  754POPC   D2A13372  20.081  36.478   8.384
  754POPC   C3A13373  20.224  36.738   8.067
  754POPC   C4A13374  20.063  36.840   7.654
  754POPC   C1B13375  19.811  37.185   8.784
  754POPC   C2B13376  19.851  37.188   8.346
  754POPC   C3B13377  19.704  36.974   7.999
  754POPC   C4B13378  19.613  37.109   7.590
  755POPC   NC313379   8.105  40.076   9.736
  755POPC   PO413380   8.473  39.617   9.313
  755POPC   GL113381   8.256  40.047   9.229
  755POPC   GL213382   7.891  40.038   9.269
  755POPC   C1A13383   8.303  40.292   8.839
  755POPC   D2A13384   8.282  40.047   8.445
  755POPC   C3A13385   8.454  40.159   8.031
  755POPC   C4A13386   8.353  40.064   7.612
  755POPC   C1B13387   7.863  40.027   8.819
  755POPC   C2B13388   7.791  40.193   8.396
  755POPC   C3B13389   7.953  39.990   8.019
  755POPC   C4B13390   7.746  39.606   7.855
  756POPC   NC313391  25.019  33.325   9.408
  756POPC   PO413392  25.507  32.898   9.304
  756POPC   GL113393  25.259  33.111   9.005
  756POPC   GL213394  25.213  33.492   8.964
  756POPC   C1A13395  25.225  33.143   8.585
  756POPC   D2A13396  24.933  33.357   8.320
  756POPC   C3A13397  24.895  33.065   7.999
  756POPC   C4A13398  25.216  32.801   7.897
  756POPC   C1B13399  25.658  33.392   8.827
  756POPC   C2B13400  25.741  33.254   8.415
  756POPC   C3B13401  25.405  33.234   8.121
  756POPC   C4B13402  25.333  33.248   7.708
  757POPC   NC313403   6.111  27.086   9.421
  757POPC   PO413404   5.811  26.440   9.639
  757POPC   GL113405   5.833  26.675   9.246
  757POPC   GL213406   5.637  27.001   9.211
  757POPC   C1A13407   5.953  26.672   8.806
  757POPC   D2A13408   5.623  26.706   8.496
  757POPC   C3A13409   5.752  26.728   8.071
  757POPC   C4A13410   6.041  26.616   7.728
  757POPC   C1B13411   5.812  27.148   8.781
  757POPC   C2B13412   5.939  27.284   8.366
  757POPC   C3B13413   6.020  27.140   7.947
  757POPC   C4B13414   5.701  27.097   7.659
  758POPC   NC313415  36.548  41.184   9.556
  758POPC   PO413416  37.048  40.790   9.300
  758POPC   GL113417  36.857  40.845   8.955
  758POPC   GL213418  36.567  41.037   9.063
  758POPC   C1A13419  36.932  40.624   8.572
  758POPC   D2A13420  37.189  40.462   8.252
  758POPC   C3A13421  36.885  40.411   7.938
  758POPC   C4A13422  36.750  40.556   7.532
  758POPC   C1B13423  36.513  40.911   8.598
  758POPC   C2B13424  36.656  40.840   8.145
  758POPC   C3B13425  36.815  41.031   7.740
  758POPC   C4B13426  36.739  41.025   7.300
  759POPC   NC313427  17.801  27.563   9.284
  759POPC   PO413428  18.339  27.475   9.750
  759POPC   GL113429  18.298  27.444   9.235
  759POPC   GL213430  18.142  27.720   8.953
  759POPC   C1A13431  18.480  27.387   8.849
  759POPC   D2A13432  18.461  27.702   8.510
  759POPC   C3A13433  18.305  27.576   8.158
  759POPC   C4A13434  18.448  27.431   7.775
  759POPC   C1B13435  17.958  27.769   8.542
  759POPC   C2B13436  17.825  27.812   8.116
  759POPC   C3B13437  18.041  27.718   7.751
  759POPC   C4B13438  17.987  27.847   7.318
  760POPC   NC313439  17.004  38.304   9.719
  760POPC   PO413440  17.066  38.953   9.520
  760POPC   GL113441  17.054  38.746   9.117
  760POPC   GL213442  17.002  38.376   9.176
  760POPC   C1A13443  16.784  38.645   8.752
  760POPC   D2A13444  16.907  38.691   8.331
  760POPC   C3A13445  16.606  38.692   8.023
  760POPC   C4A13446  16.898  38.686   7.713
  760POPC   C1B13447  16.923  38.158   8.798
  760POPC   C2B13448  16.707  38.208   8.403
  760POPC   C3B13449  16.814  38.219   7.985
  760POPC   C4B13450  16.556  38.304   7.660
  761POPC   NC313451  43.622  35.522   9.350
  761POPC   PO413452  42.990  35.378   9.722
  761POPC   GL113453  43.060  35.218   9.231
  761POPC   GL213454  43.290  35.385   9.003
  761POPC   C1A13455  42.863  35.240   8.786
  761POPC   D2A13456  42.790  34.937   8.459
  761POPC   C3A13457  42.642  35.207   8.148
  761POPC   C4A13458  42.853  35.394   7.795
  761POPC   C1B13459  43.412  35.290   8.605
  761POPC   C2B13460  43.162  35.281   8.259
  761POPC   C3B13461  43.320  35.241   7.867
  761POPC   C4B13462  43.191  35.087   7.484
  762POPC   NC313463  23.618   3.830   9.357
  762POPC   PO413464  23.429   4.324   9.914
  762POPC   GL113465  23.617   4.324   9.408
  762POPC   GL213466  23.949   4.436   9.217
  762POPC   C1A13467  23.584   4.310   8.904
  762POPC   D2A13468  23.737   4.115   8.489
  762POPC   C3A13469  23.506   4.210   8.068
  762POPC   C4A13470  23.333   4.590   7.874
  762POPC   C1B13471  23.971   4.607   8.742
  762POPC   C2B13472  23.785   4.618   8.300
  762POPC   C3B13473  23.851   4.587   7.819
  762POPC   C4B13474  24.001   4.581   7.316
  763POPC   NC313475  35.111   8.112   9.502
  763POPC   PO413476  35.809   8.457   9.376
  763POPC   GL113477  35.699   8.375   9.004
  763POPC   GL213478  35.393   8.260   9.116
  763POPC   C1A13479  35.552   8.106   8.678
  763POPC   D2A13480  35.414   7.837   8.379
  763POPC   C3A13481  35.423   8.121   8.063
  763POPC   C4A13482  35.614   8.179   7.681
  763POPC   C1B13483  35.046   8.091   8.841
  763POPC   C2B13484  34.958   8.020   8.420
  763POPC   C3B13485  34.979   7.854   8.004
  763POPC   C4B13486  35.104   8.102   7.659
  764POPC   NC313487  37.148  30.670   9.569
  764POPC   PO413488  36.572  30.461   9.475
  764POPC   GL113489  36.817  30.556   9.170
  764POPC   GL213490  36.860  30.873   9.179
  764POPC   C1A13491  36.979  30.527   8.793
  764POPC   D2A13492  36.983  30.720   8.436
  764POPC   C3A13493  36.843  30.530   8.090
  764POPC   C4A13494  37.005  30.588   7.707
  764POPC   C1B13495  36.785  31.061   8.774
  764POPC   C2B13496  36.804  31.183   8.312
  764POPC   C3B13497  36.720  31.039   7.923
  764POPC   C4B13498  36.515  30.708   7.744
  765POPC   NC313499  22.422  20.441   9.590
  765POPC   PO413500  22.222  21.044   9.545
  765POPC   GL113501  22.218  20.733   9.186
  765POPC   GL213502  22.327  20.370   9.104
  765POPC   C1A13503  22.016  20.723   8.772
  765POPC   D2A13504  21.769  20.726   8.387
  765POPC   C3A13505  22.035  20.841   8.052
  765POPC   C4A13506  21.996  20.986   7.648
  765POPC   C1B13507  22.144  20.251   8.715
  765POPC   C2B13508  22.126  20.388   8.286
  765POPC   C3B13509  22.120  20.387   7.829
  765POPC   C4B13510  22.433  20.282   7.513
  766POPC   NC313511  20.936   4.945   9.385
  766POPC   PO413512  21.611   5.191   9.452
  766POPC   GL113513  21.388   5.074   9.091
  766POPC   GL213514  21.672   4.860   9.057
  766POPC   C1A13515  21.330   5.008   8.631
  766POPC   D2A13516  21.266   4.679   8.292
  766POPC   C3A13517  21.377   4.857   7.890
  766POPC   C4A13518  21.063   5.043   7.632
  766POPC   C1B13519  21.811   5.202   8.787
  766POPC   C2B13520  21.689   5.373   8.376
  766POPC   C3B13521  21.778   5.210   7.936
  766POPC   C4B13522  21.546   5.200   7.515
  767POPC   NC313523  38.121  15.849   9.573
  767POPC   PO413524  38.883  15.903   9.609
  767POPC   GL113525  38.624  15.968   9.163
  767POPC   GL213526  38.396  15.705   9.177
  767POPC   C1A13527  38.679  16.084   8.689
  767POPC   D2A13528  38.661  16.382   8.338
  767POPC   C3A13529  38.779  16.152   7.963
  767POPC   C4A13530  38.476  16.099   7.636
  767POPC   C1B13531  38.195  15.749   8.820
  767POPC   C2B13532  38.330  15.625   8.444
  767POPC   C3B13533  38.322  15.826   8.062
  767POPC   C4B13534  38.092  15.704   7.705
  768POPC   NC313535  44.380  29.547   9.473
  768POPC   PO413536  44.647  30.202   9.430
  768POPC   GL113537  44.435  30.151   9.047
  768POPC   GL213538  44.485  29.814   9.065
  768POPC   C1A13539  44.498  30.070   8.596
  768POPC   D2A13540  44.927  30.086   8.403
  768POPC   C3A13541  44.871  30.315   8.013
  768POPC   C4A13542  44.567  30.187   7.701
  768POPC   C1B13543  44.833  29.740   8.828
  768POPC   C2B13544  44.702  29.608   8.445
  768POPC   C3B13545  44.597  29.850   8.088
  768POPC   C4B13546  44.564  29.675   7.692
  769POPC   NC313547   6.652  22.247   9.722
  769POPC   PO413548   6.075  22.075   9.446
  769POPC   GL113549   6.105  22.105   9.016
  769POPC   GL213550   5.882  22.366   9.053
  769POPC   C1A13551   6.051  21.903   8.619
  769POPC   D2A13552   5.721  21.797   8.347
  769POPC   C3A13553   5.725  21.887   7.905
  769POPC   C4A13554   5.845  22.226   7.667
  769POPC   C1B13555   5.742  22.599   8.766
  769POPC   C2B13556   5.893  22.370   8.458
  769POPC   C3B13557   5.792  22.421   8.108
  769POPC   C4B13558   5.590  22.692   7.835
  770POPC   NC313559  18.165  30.444   9.444
  770POPC   PO413560  18.030  31.126   9.575
  770POPC   GL113561  18.188  30.836   9.113
  770POPC   GL213562  18.061  30.533   8.960
  770POPC   C1A13563  18.536  30.510   8.828
  770POPC   D2A13564  18.532  30.250   8.416
  770POPC   C3A13565  18.465  30.482   8.017
  770POPC   C4A13566  18.165  30.836   7.963
  770POPC   C1B13567  18.143  30.635   8.552
  770POPC   C2B13568  18.005  30.413   8.254
  770POPC   C3B13569  18.002  30.301   7.877
  770POPC   C4B13570  17.761  30.571   7.648
  771POPC   NC313571  16.319  18.061   9.182
  771POPC   PO413572  16.687  18.537   9.619
  771POPC   GL113573  16.782  18.402   9.146
  771POPC   GL213574  17.096  18.486   9.062
  771POPC   C1A13575  16.624  18.429   8.669
  771POPC   D2A13576  16.433  18.214   8.331
  771POPC   C3A13577  16.606  18.362   7.984
  771POPC   C4A13578  16.488  18.260   7.546
  771POPC   C1B13579  17.118  18.283   8.666
  771POPC   C2B13580  17.101  18.239   8.195
  771POPC   C3B13581  17.011  18.219   7.734
  771POPC   C4B13582  17.048  18.430   7.299
  772POPC   NC313583  33.310  24.740   9.441
  772POPC   PO413584  32.997  24.160   9.591
  772POPC   GL113585  33.037  24.352   9.221
  772POPC   GL213586  33.387  24.306   9.135
  772POPC   C1A13587  32.877  24.581   8.847
  772POPC   D2A13588  33.191  24.641   8.566
  772POPC   C3A13589  33.144  24.599   8.131
  772POPC   C4A13590  33.310  24.629   7.736
  772POPC   C1B13591  33.144  24.147   8.790
  772POPC   C2B13592  32.900  24.237   8.439
  772POPC   C3B13593  32.971  24.137   8.017
  772POPC   C4B13594  32.804  24.479   7.742
  773POPC   NC313595  26.500  33.910   9.479
  773POPC   PO413596  27.107  33.579   9.510
  773POPC   GL113597  26.878  33.776   9.166
  773POPC   GL213598  27.134  33.966   9.076
  773POPC   C1A13599  26.573  33.851   8.807
  773POPC   D2A13600  26.430  33.847   8.352
  773POPC   C3A13601  26.769  33.725   8.135
  773POPC   C4A13602  26.993  33.622   7.813
  773POPC   C1B13603  27.305  33.739   8.713
  773POPC   C2B13604  27.348  33.807   8.269
  773POPC   C3B13605  27.102  34.126   8.072
  773POPC   C4B13606  26.920  34.117   7.682
  774POPC   NC313607  20.074  44.298   9.345
  774POPC   PO413608  20.709  43.960   9.367
  774POPC   GL113609  20.569  43.795   9.015
  774POPC   GL213610  20.378  44.085   8.920
  774POPC   C1A13611  20.743  43.871   8.609
  774POPC   D2A13612  20.582  43.996   8.234
  774POPC   C3A13613  20.815  43.799   7.921
  774POPC   C4A13614  20.875  43.887   7.500
  774POPC   C1B13615  20.247  43.720   8.609
  774POPC   C2B13616  20.156  43.698   8.147
  774POPC   C3B13617  20.350  43.813   7.742
  774POPC   C4B13618  20.420  43.665   7.312
  775POPC   NC313619  15.900  37.041   9.727
  775POPC   PO413620  16.387  36.642   9.555
  775POPC   GL113621  16.190  37.014   9.265
  775POPC   GL213622  15.818  37.119   9.226
  775POPC   C1A13623  16.142  37.211   8.822
  775POPC   D2A13624  15.894  37.147   8.413
  775POPC   C3A13625  16.136  37.032   8.016
  775POPC   C4A13626  16.207  37.106   7.540
  775POPC   C1B13627  15.781  36.859   8.862
  775POPC   C2B13628  15.755  36.648   8.466
  775POPC   C3B13629  15.668  36.806   8.054
  775POPC   C4B13630  15.720  37.115   7.742
  776POPC   NC313631   9.262  42.932   9.401
  776POPC   PO413632   8.630  42.950   9.679
  776POPC   GL113633   8.780  43.035   9.229
  776POPC   GL213634   8.981  43.293   9.122
  776POPC   C1A13635   8.750  42.962   8.779
  776POPC   D2A13636   8.567  42.867   8.371
  776POPC   C3A13637   8.735  43.149   8.052
  776POPC   C4A13638   8.988  42.986   7.719
  776POPC   C1B13639   9.229  43.165   8.745
  776POPC   C2B13640   9.141  42.970   8.341
  776POPC   C3B13641   9.405  42.907   7.978
  776POPC   C4B13642   9.460  43.081   7.542
  777POPC   NC313643  43.489   1.779   9.473
  777POPC   PO413644  43.986   2.143   9.524
  777POPC   GL113645  43.751   2.164   9.160
  777POPC   GL213646  44.006   2.451   9.134
  777POPC   C1A13647  43.771   1.866   8.775
  777POPC   D2A13648  43.895   1.752   8.335
  777POPC   C3A13649  43.659   1.901   7.963
  777POPC   C4A13650  43.763   2.107   7.545
  777POPC   C1B13651  44.106   2.246   8.797
  777POPC   C2B13652  44.257   2.099   8.436
  777POPC   C3B13653  44.124   2.129   8.047
  777POPC   C4B13654  44.212   2.278   7.683
  778POPC   NC313655  33.036  27.223   9.298
  778POPC   PO413656  33.042  26.618   9.522
  778POPC   GL113657  32.974  26.689   9.103
  778POPC   GL213658  33.308  26.767   9.116
  778POPC   C1A13659  32.802  26.530   8.710
  778POPC   D2A13660  32.603  26.463   8.307
  778POPC   C3A13661  32.906  26.598   7.989
  778POPC   C4A13662  33.026  26.448   7.592
  778POPC   C1B13663  33.277  26.944   8.731
  778POPC   C2B13664  33.380  26.779   8.356
  778POPC   C3B13665  33.283  26.946   7.960
  778POPC   C4B13666  33.203  27.251   7.653
  779POPC   NC313667  33.871   3.844   9.573
  779POPC   PO413668  33.541   3.338   9.615
  779POPC   GL113669  33.689   3.337   9.179
  779POPC   GL213670  33.730   3.676   9.112
  779POPC   C1A13671  33.715   3.326   8.700
  779POPC   D2A13672  33.699   3.619   8.338
  779POPC   C3A13673  33.758   3.485   7.896
  779POPC   C4A13674  33.989   3.266   7.580
  779POPC   C1B13675  33.829   3.911   8.743
  779POPC   C2B13676  34.004   4.068   8.356
  779POPC   C3B13677  33.837   3.996   7.962
  779POPC   C4B13678  33.712   3.885   7.551
  780POPC   NC313679   6.342  14.999   9.342
  780POPC   PO413680   5.700  15.182   9.072
  780POPC   GL113681   6.049  15.064   8.916
  780POPC   GL213682   6.244  15.334   8.911
  780POPC   C1A13683   6.145  14.997   8.499
  780POPC   D2A13684   5.820  15.022   8.232
  780POPC   C3A13685   6.026  15.026   7.837
  780POPC   C4A13686   5.868  15.028   7.428
  780POPC   C1B13687   5.980  15.476   8.534
  780POPC   C2B13688   5.915  15.497   8.076
  780POPC   C3B13689   5.681  15.416   7.714
  780POPC   C4B13690   5.707  15.476   7.238
  781POPC   NC313691  41.393  24.578   9.707
  781POPC   PO413692  41.261  24.136   9.261
  781POPC   GL113693  41.527  24.422   9.145
  781POPC   GL213694  41.793  24.221   9.311
  781POPC   C1A13695  41.650  24.568   8.729
  781POPC   D2A13696  41.924  24.505   8.395
  781POPC   C3A13697  41.654  24.539   8.062
  781POPC   C4A13698  41.649  24.721   7.674
  781POPC   C1B13699  41.777  24.055   8.883
  781POPC   C2B13700  41.597  24.099   8.472
  781POPC   C3B13701  41.768  24.040   8.085
  781POPC   C4B13702  41.858  24.241   7.709
  782POPC   NC313703   3.590   3.787   9.699
  782POPC   PO413704   3.331   3.226   9.608
  782POPC   GL113705   3.575   3.400   9.229
  782POPC   GL213706   3.394   3.690   9.101
  782POPC   C1A13707   3.588   3.348   8.745
  782POPC   D2A13708   3.867   3.185   8.402
  782POPC   C3A13709   3.713   3.338   8.014
  782POPC   C4A13710   3.320   3.192   7.806
  782POPC   C1B13711   3.317   3.779   8.633
  782POPC   C2B13712   3.311   3.598   8.212
  782POPC   C3B13713   3.162   3.671   7.777
  782POPC   C4B13714   3.261   3.710   7.328
  783POPC   NC313715  17.125   0.200   9.544
  783POPC   PO413716  17.730   0.531   9.552
  783POPC   GL113717  17.604   0.260   9.186
  783POPC   GL213718  17.377   0.499   9.160
  783POPC   C1A13719  17.464   0.299   8.708
  783POPC   D2A13720  17.271   0.230   8.273
  783POPC   C3A13721  17.524   0.287   7.910
  783POPC   C4A13722  17.832   0.039   7.676
  783POPC   C1B13723  17.235   0.757   8.798
  783POPC   C2B13724  17.285   0.720   8.374
  783POPC   C3B13725  17.132   0.710   7.962
  783POPC   C4B13726  17.211   0.728   7.512
  784POPC   NC313727  26.465  23.206   9.525
  784POPC   PO413728  25.796  22.942   9.514
  784POPC   GL113729  26.150  22.834   9.227
  784POPC   GL213730  25.962  22.517   9.185
  784POPC   C1A13731  26.379  22.945   8.830
  784POPC   D2A13732  26.379  23.196   8.437
  784POPC   C3A13733  26.489  23.145   8.013
  784POPC   C4A13734  26.104  23.131   7.804
  784POPC   C1B13735  25.870  22.635   8.803
  784POPC   C2B13736  25.997  22.836   8.463
  784POPC   C3B13737  26.058  22.706   8.068
  784POPC   C4B13738  26.008  22.477   7.701
  785POPC   NC313739  28.295  30.824   9.481
  785POPC   PO413740  28.864  30.849   9.189
  785POPC   GL113741  28.504  30.792   8.984
  785POPC   GL213742  28.242  30.543   9.049
  785POPC   C1A13743  28.576  30.914   8.567
  785POPC   D2A13744  28.426  30.648   8.278
  785POPC   C3A13745  28.350  30.749   7.910
  785POPC   C4A13746  28.257  30.502   7.608
  785POPC   C1B13747  28.536  30.367   8.711
  785POPC   C2B13748  28.651  30.198   8.305
  785POPC   C3B13749  28.695  30.350   7.884
  785POPC   C4B13750  28.614  30.150   7.501
  786POPC   NC313751  35.474  13.188   9.584
  786POPC   PO413752  35.406  12.561   9.491
  786POPC   GL113753  35.245  12.900   9.192
  786POPC   GL213754  35.456  13.207   9.091
  786POPC   C1A13755  35.114  12.932   8.744
  786POPC   D2A13756  35.010  12.706   8.370
  786POPC   C3A13757  35.195  12.724   8.008
  786POPC   C4A13758  35.188  12.872   7.608
  786POPC   C1B13759  35.480  13.291   8.712
  786POPC   C2B13760  35.314  13.240   8.330
  786POPC   C3B13761  35.476  13.139   7.965
  786POPC   C4B13762  35.806  13.132   7.711
  787POPC   NC313763   8.069  11.822   9.970
  787POPC   PO413764   8.289  12.239   9.540
  787POPC   GL113765   8.144  11.982   9.214
  787POPC   GL213766   7.817  12.069   9.176
  787POPC   C1A13767   8.228  11.859   8.796
  787POPC   D2A13768   8.299  12.109   8.425
  787POPC   C3A13769   8.138  11.944   8.044
  787POPC   C4A13770   8.311  11.882   7.670
  787POPC   C1B13771   7.938  12.270   8.779
  787POPC   C2B13772   7.906  12.461   8.389
  787POPC   C3B13773   8.167  12.448   8.022
  787POPC   C4B13774   7.988  12.307   7.621
  788POPC   NC313775  24.959  13.597   9.518
  788POPC   PO413776  24.773  14.192   9.258
  788POPC   GL113777  25.001  13.868   9.094
  788POPC   GL213778  25.332  13.806   9.251
  788POPC   C1A13779  25.007  13.582   8.766
  788POPC   D2A13780  25.135  13.444   8.359
  788POPC   C3A13781  24.865  13.154   8.131
  788POPC   C4A13782  25.035  13.297   7.770
  788POPC   C1B13783  25.471  13.830   8.825
  788POPC   C2B13784  25.548  13.807   8.376
  788POPC   C3B13785  25.360  13.817   7.944
  788POPC   C4B13786  25.499  13.993   7.534
  789POPC   NC313787   6.525  22.629   9.353
  789POPC   PO413788   6.897  21.991   9.437
  789POPC   GL113789   6.591  22.158   9.174
  789POPC   GL213790   6.787  22.378   9.024
  789POPC   C1A13791   6.541  22.112   8.699
  789POPC   D2A13792   6.855  22.143   8.332
  789POPC   C3A13793   6.669  22.093   7.922
  789POPC   C4A13794   6.364  22.386   7.737
  789POPC   C1B13795   6.808  22.564   8.659
  789POPC   C2B13796   7.017  22.663   8.297
  789POPC   C3B13797   6.823  22.588   7.909
  789POPC   C4B13798   6.829  22.584   7.448
  790POPC   NC313799  24.941   0.726   9.255
  790POPC   PO413800  24.425   0.361   9.599
  790POPC   GL113801  24.583   0.377   9.180
  790POPC   GL213802  24.447   0.716   9.187
  790POPC   C1A13803  24.549   0.385   8.710
  790POPC   D2A13804  24.406   0.292   8.273
  790POPC   C3A13805  24.684   0.327   7.944
  790POPC   C4A13806  24.883   0.241   7.571
  790POPC   C1B13807  24.195   0.805   8.850
  790POPC   C2B13808  24.155   0.686   8.447
  790POPC   C3B13809  24.317   0.768   8.046
  790POPC   C4B13810  24.057   0.903   7.724
  791POPC   NC313811   2.985   2.968   9.766
  791POPC   PO413812   2.608   2.406   9.615
  791POPC   GL113813   2.887   2.492   9.273
  791POPC   GL213814   2.936   2.180   9.164
  791POPC   C1A13815   3.054   2.626   8.853
  791POPC   D2A13816   2.884   2.731   8.430
  791POPC   C3A13817   3.106   2.792   8.046
  791POPC   C4A13818   2.993   2.707   7.605
  791POPC   C1B13819   2.757   2.189   8.780
  791POPC   C2B13820   2.471   2.448   8.534
  791POPC   C3B13821   2.414   2.545   8.095
  791POPC   C4B13822   2.573   2.887   7.849
  792POPC   NC313823  14.154  24.480   9.464
  792POPC   PO413824  14.547  24.207   9.053
  792POPC   GL113825  14.460  24.658   8.942
  792POPC   GL213826  14.149  24.787   9.012
  792POPC   C1A13827  14.376  24.672   8.499
  792POPC   D2A13828  14.467  24.244   8.307
  792POPC   C3A13829  14.761  24.308   7.951
  792POPC   C4A13830  14.633  24.545   7.587
  792POPC   C1B13831  13.978  24.484   8.762
  792POPC   C2B13832  13.906  24.513   8.323
  792POPC   C3B13833  14.200  24.544   7.995
  792POPC   C4B13834  14.299  24.175   7.803
  793POPC   NC313835  11.834  43.191   9.391
  793POPC   PO413836  12.489  42.981   9.440
  793POPC   GL113837  12.309  43.066   9.041
  793POPC   GL213838  12.078  42.845   9.103
  793POPC   C1A13839  12.150  43.193   8.612
  793POPC   D2A13840  11.775  43.339   8.340
  793POPC   C3A13841  11.801  43.391   7.875
  793POPC   C4A13842  12.166  43.311   7.582
  793POPC   C1B13843  12.166  42.673   8.705
  793POPC   C2B13844  11.953  42.804   8.329
  793POPC   C3B13845  12.011  42.929   7.921
  793POPC   C4B13846  12.136  42.738   7.553
  794POPC   NC313847  36.003   4.659   9.528
  794POPC   PO413848  36.414   4.298   9.552
  794POPC   GL113849  36.080   4.264   9.187
  794POPC   GL213850  35.837   4.528   9.066
  794POPC   C1A13851  35.985   4.155   8.732
  794POPC   D2A13852  36.169   4.239   8.296
  794POPC   C3A13853  35.959   4.078   7.899
  794POPC   C4A13854  36.162   4.158   7.485
  794POPC   C1B13855  35.888   4.649   8.636
  794POPC   C2B13856  35.942   4.700   8.206
  794POPC   C3B13857  36.042   4.570   7.799
  794POPC   C4B13858  36.110   4.659   7.355
  795POPC   NC313859  40.531  12.661   9.352
  795POPC   PO413860  39.995  12.984   9.560
  795POPC   GL113861  39.995  12.797   9.184
  795POPC   GL213862  39.658  12.623   9.108
  795POPC   C1A13863  40.186  12.978   8.811
  795POPC   D2A13864  40.243  13.145   8.390
  795POPC   C3A13865  40.008  13.027   8.051
  795POPC   C4A13866  40.222  12.965   7.646
  795POPC   C1B13867  39.664  13.023   8.870
  795POPC   C2B13868  39.585  13.029   8.425
  795POPC   C3B13869  39.674  12.658   8.145
  795POPC   C4B13870  39.819  12.672   7.716
  796POPC   NC313871   5.478   4.700   9.921
  796POPC   PO413872   6.054   5.010   9.524
  796POPC   GL113873   5.907   5.088   9.102
  796POPC   GL213874   5.600   5.305   9.109
  796POPC   C1A13875   6.017   4.973   8.670
  796POPC   D2A13876   6.313   5.012   8.316
  796POPC   C3A13877   6.000   4.948   7.986
  796POPC   C4A13878   5.602   4.830   7.757
  796POPC   C1B13879   5.810   5.444   8.739
  796POPC   C2B13880   5.952   5.372   8.314
  796POPC   C3B13881   5.691   5.385   7.943
  796POPC   C4B13882   5.441   5.423   7.568
  797POPC   NC313883  26.838   9.250   9.584
  797POPC   PO413884  26.422   8.697   9.493
  797POPC   GL113885  26.615   8.939   9.153
  797POPC   GL213886  26.940   9.112   9.117
  797POPC   C1A13887  26.619   8.992   8.692
  797POPC   D2A13888  26.550   8.735   8.305
  797POPC   C3A13889  26.606   9.011   7.950
  797POPC   C4A13890  26.474   9.123   7.531
  797POPC   C1B13891  27.146   9.015   8.765
  797POPC   C2B13892  27.021   8.931   8.359
  797POPC   C3B13893  27.118   9.005   7.955
  797POPC   C4B13894  26.941   8.847   7.559
  798POPC   NC313895  40.389  23.033   9.543
  798POPC   PO413896  39.715  23.025   9.434
  798POPC   GL113897  39.908  22.762   9.141
  798POPC   GL213898  39.605  22.584   9.089
  798POPC   C1A13899  40.128  22.913   8.760
  798POPC   D2A13900  40.295  23.186   8.431
  798POPC   C3A13901  40.192  23.002   8.049
  798POPC   C4A13902  40.185  23.069   7.639
  798POPC   C1B13903  39.587  22.949   8.779
  798POPC   C2B13904  39.765  23.108   8.387
  798POPC   C3B13905  39.660  23.058   7.945
  798POPC   C4B13906  39.746  22.839   7.563
  799POPC   NC313907  40.022  11.890   9.549
  799POPC   PO413908  40.589  12.186   9.456
  799POPC   GL113909  40.351  11.952   9.093
  799POPC   GL213910  39.960  12.017   9.052
  799POPC   C1A13911  40.265  11.980   8.620
  799POPC   D2A13912  39.925  12.200   8.361
  799POPC   C3A13913  39.843  12.195   7.921
  799POPC   C4A13914  40.035  11.931   7.641
  799POPC   C1B13915  40.064  12.420   8.833
  799POPC   C2B13916  40.140  12.647   8.425
  799POPC   C3B13917  40.241  12.578   8.000
  799POPC   C4B13918  40.251  12.411   7.587
  800POPC   NC313919  23.604  37.688   9.807
  800POPC   PO413920  23.619  37.910   9.226
  800POPC   GL113921  23.726  37.802   8.880
  800POPC   GL213922  24.038  38.024   8.908
  800POPC   C1A13923  23.404  37.877   8.597
  800POPC   D2A13924  23.411  38.189   8.338
  800POPC   C3A13925  23.633  38.028   8.011
  800POPC   C4A13926  23.404  37.679   7.880
  800POPC   C1B13927  23.931  37.952   8.456
  800POPC   C2B13928  23.706  37.575   8.306
  800POPC   C3B13929  23.829  37.418   7.941
  800POPC   C4B13930  23.866  37.729   7.650
  801POPC   NC313931   5.340  42.845   9.429
  801POPC   PO413932   5.062  43.384   9.685
  801POPC   GL113933   5.153  43.254   9.228
  801POPC   GL213934   4.930  42.880   9.162
  801POPC   C1A13935   5.260  43.050   8.797
  801POPC   D2A13936   5.003  43.145   8.421
  801POPC   C3A13937   5.235  43.077   8.029
  801POPC   C4A13938   5.259  42.879   7.610
  801POPC   C1B13939   4.852  42.727   8.734
  801POPC   C2B13940   4.677  42.733   8.291
  801POPC   C3B13941   4.785  42.887   7.856
  801POPC   C4B13942   4.768  42.934   7.382
  802POPC   NC313943   9.470  11.528   9.266
  802POPC   PO413944   9.665  10.951   9.554
  802POPC   GL113945   9.947  10.977   9.139
  802POPC   GL213946   9.887  11.317   9.049
  802POPC   C1A13947  10.027  11.027   8.679
  802POPC   D2A13948   9.740  11.272   8.433
  802POPC   C3A13949   9.853  11.266   8.013
  802POPC   C4A13950   9.679  11.268   7.620
  802POPC   C1B13951   9.880  11.675   8.760
  802POPC   C2B13952   9.926  11.851   8.405
  802POPC   C3B13953   9.652  11.740   8.127
  802POPC   C4B13954   9.736  11.759   7.746
  803POPC   NC313955   2.349  12.889   9.647
  803POPC   PO413956   1.716  12.773   9.515
  803POPC   GL113957   1.794  12.693   9.082
  803POPC   GL213958   1.592  12.383   9.091
  803POPC   C1A13959   1.934  12.902   8.677
  803POPC   D2A13960   1.876  13.141   8.290
  803POPC   C3A13961   2.106  12.956   7.955
  803POPC   C4A13962   2.043  12.574   7.773
  803POPC   C1B13963   1.609  12.495   8.639
  803POPC   C2B13964   1.826  12.582   8.247
  803POPC   C3B13965   1.585  12.386   7.900
  803POPC   C4B13966   1.519  12.505   7.466
  804POPC   NC313967  39.913  44.143   9.671
  804POPC   PO413968  40.476  43.790   9.534
  804POPC   GL113969  40.187  43.848   9.202
  804POPC   GL213970  39.992  44.159   9.178
  804POPC   C1A13971  40.339  43.904   8.798
  804POPC   D2A13972  40.501  43.915   8.406
  804POPC   C3A13973  40.207  43.962   8.059
  804POPC   C4A13974  40.384  44.169   7.720
  804POPC   C1B13975  39.938  44.215   8.750
  804POPC   C2B13976  39.746  44.295   8.364
  804POPC   C3B13977  39.534  44.325   7.967
  804POPC   C4B13978  39.696  44.164   7.581
  805POPC   NC313979  44.926  32.311   9.312
  805POPC   PO413980   0.475  31.952   9.439
  805POPC   GL113981   0.656  32.171   9.075
  805POPC   GL213982   0.621  32.532   9.149
  805POPC   C1A13983   0.493  32.238   8.642
  805POPC   D2A13984   0.132  32.277   8.352
  805POPC   C3A13985   0.108  32.125   7.953
  805POPC   C4A13986   0.393  31.888   7.752
  805POPC   C1B13987   0.410  32.722   8.766
  805POPC   C2B13988   0.527  32.655   8.312
  805POPC   C3B13989   0.560  32.444   7.880
  805POPC   C4B13990   0.817  32.505   7.486
  806POPC   NC313991  14.607  26.285   9.494
  806POPC   PO413992  14.207  25.694   9.637
  806POPC   GL113993  14.271  25.990   9.238
  806POPC   GL213994  14.616  25.938   9.130
  806POPC   C1A13995  14.116  26.095   8.786
  806POPC   D2A13996  14.311  25.938   8.358
  806POPC   C3A13997  14.145  26.108   7.950
  806POPC   C4A13998  14.281  26.356   7.576
  806POPC   C1B13999  14.611  26.144   8.724
  806POPC   C2B14000  14.711  26.306   8.321
  806POPC   C3B14001  14.662  26.111   7.939
  806POPC   C4B14002  14.496  25.736   7.881
  807POPC   NC314003  42.093  22.166   9.595
  807POPC   PO414004  42.716  22.002   9.755
  807POPC   GL114005  42.518  22.198   9.308
  807POPC   GL214006  42.250  22.427   9.185
  807POPC   C1A14007  42.454  22.131   8.835
  807POPC   D2A14008  42.260  21.976   8.461
  807POPC   C3A14009  42.470  22.126   8.117
  807POPC   C4A14010  42.370  22.216   7.712
  807POPC   C1B14011  42.188  22.574   8.724
  807POPC   C2B14012  42.137  22.541   8.263
  807POPC   C3B14013  42.084  22.630   7.808
  807POPC   C4B14014  42.094  22.571   7.334
  808POPC   NC314015   6.072   0.593   9.410
  808POPC   PO414016   5.426   0.376   9.588
  808POPC   GL114017   5.674   0.295   9.250
  808POPC   GL214018   5.616   0.626   9.146
  808POPC   C1A14019   5.880   0.284   8.857
  808POPC   D2A14020   5.736   0.398   8.467
  808POPC   C3A14021   5.886   0.189   8.111
  808POPC   C4A14022   5.792   0.306   7.743
  808POPC   C1B14023   5.852   0.816   8.775
  808POPC   C2B14024   6.015   0.837   8.339
  808POPC   C3B14025   5.807   0.835   7.912
  808POPC   C4B14026   5.817   1.078   7.520
  809POPC   NC314027  29.041  31.203   9.403
  809POPC   PO414028  29.336  30.557   9.473
  809POPC   GL114029  29.408  30.779   9.099
  809POPC   GL214030  29.465  31.140   9.101
  809POPC   C1A14031  29.264  30.625   8.698
  809POPC   D2A14032  28.951  30.601   8.367
  809POPC   C3A14033  29.096  30.673   7.953
  809POPC   C4A14034  29.445  30.671   7.686
  809POPC   C1B14035  29.337  31.125   8.684
  809POPC   C2B14036  29.112  31.125   8.289
  809POPC   C3B14037  28.751  31.065   8.011
  809POPC   C4B14038  28.709  30.892   7.584
  810POPC   NC314039  31.231  29.810   9.507
  810POPC   PO414040  31.689  30.322   9.486
  810POPC   GL114041  31.512  30.119   9.170
  810POPC   GL214042  31.636  29.837   9.153
  810POPC   C1A14043  31.348  30.049   8.760
  810POPC   D2A14044  31.384  30.232   8.392
  810POPC   C3A14045  31.239  29.976   8.060
  810POPC   C4A14046  31.414  30.123   7.696
  810POPC   C1B14047  31.724  29.566   8.806
  810POPC   C2B14048  31.578  29.722   8.398
  810POPC   C3B14049  31.659  29.555   7.975
  810POPC   C4B14050  32.058  29.546   7.744
  811POPC   NC314051  19.513  27.579   9.463
  811POPC   PO414052  20.149  27.892   9.647
  811POPC   GL114053  19.952  27.798   9.249
  811POPC   GL214054  19.973  27.431   9.202
  811POPC   C1A14055  19.913  27.752   8.806
  811POPC   D2A14056  19.697  27.887   8.431
  811POPC   C3A14057  19.862  27.703   8.063
  811POPC   C4A14058  19.992  27.883   7.670
  811POPC   C1B14059  19.740  27.267   8.848
  811POPC   C2B14060  19.707  27.359   8.441
  811POPC   C3B14061  19.658  27.246   8.024
  811POPC   C4B14062  19.693  27.479   7.620
  812POPC   NC314063   0.975  27.631   9.506
  812POPC   PO414064   1.670  27.980   9.435
  812POPC   GL114065   1.362  27.710   9.161
  812POPC   GL214066   1.542  27.411   9.015
  812POPC   C1A14067   1.159  27.634   8.750
  812POPC   D2A14068   1.267  27.794   8.333
  812POPC   C3A14069   1.052  27.771   7.939
  812POPC   C4A14070   1.225  27.962   7.556
  812POPC   C1B14071   1.377  27.176   8.648
  812POPC   C2B14072   1.186  27.280   8.220
  812POPC   C3B14073   1.366  27.350   7.801
  812POPC   C4B14074   1.689  27.091   7.558
  813POPC   NC314075   2.510  35.823   9.411
  813POPC   PO414076   2.990  36.325   9.512
  813POPC   GL114077   2.725  36.371   9.151
  813POPC   GL214078   2.821  36.037   9.055
  813POPC   C1A14079   2.770  36.373   8.697
  813POPC   D2A14080   2.992  36.193   8.340
  813POPC   C3A14081   2.931  36.379   7.946
  813POPC   C4A14082   2.612  36.495   7.694
  813POPC   C1B14083   2.652  35.889   8.646
  813POPC   C2B14084   2.698  35.769   8.238
  813POPC   C3B14085   2.631  35.973   7.838
  813POPC   C4B14086   2.623  35.884   7.385
  814POPC   NC314087  30.522  20.463   9.534
  814POPC   PO414088  30.918  20.952   9.498
  814POPC   GL114089  30.749  21.025   9.117
  814POPC   GL214090  30.484  20.862   9.184
  814POPC   C1A14091  30.790  20.894   8.690
  814POPC   D2A14092  30.966  20.692   8.323
  814POPC   C3A14093  30.799  20.701   7.896
  814POPC   C4A14094  30.981  20.888   7.521
  814POPC   C1B14095  30.500  20.516   8.900
  814POPC   C2B14096  30.515  20.460   8.487
  814POPC   C3B14097  30.326  20.282   8.127
  814POPC   C4B14098  30.469  20.335   7.695
  815POPC   NC314099  41.867   9.204   9.468
  815POPC   PO414100  41.550   8.626   9.452
  815POPC   GL114101  41.769   8.781   9.114
  815POPC   GL214102  41.911   9.112   8.979
  815POPC   C1A14103  41.532   8.785   8.742
  815POPC   D2A14104  41.277   8.958   8.449
  815POPC   C3A14105  41.447   8.973   8.063
  815POPC   C4A14106  41.235   9.026   7.699
  815POPC   C1B14107  41.820   9.179   8.549
  815POPC   C2B14108  41.880   9.268   8.115
  815POPC   C3B14109  41.691   9.276   7.704
  815POPC   C4B14110  41.763   9.417   7.301
  816POPC   NC314111  24.496  24.293   9.593
  816POPC   PO414112  24.137  24.841   9.427
  816POPC   GL114113  24.290  24.502   9.138
  816POPC   GL214114  24.631  24.319   9.112
  816POPC   C1A14115  24.182  24.302   8.733
  816POPC   D2A14116  24.170  24.463   8.301
  816POPC   C3A14117  24.369  24.314   7.883
  816POPC   C4A14118  24.398  24.561   7.485
  816POPC   C1B14119  24.655  24.501   8.715
  816POPC   C2B14120  24.700  24.315   8.334
  816POPC   C3B14121  24.893  24.382   7.959
  816POPC   C4B14122  24.820  24.788   7.725
  817POPC   NC314123  40.909  44.196   9.748
  817POPC   PO414124  40.730  44.743   9.372
  817POPC   GL114125  40.727  44.525   8.990
  817POPC   GL214126  40.983  44.325   9.198
  817POPC   C1A14127  40.726  44.586   8.524
  817POPC   D2A14128  40.443  44.813   8.233
  817POPC   C3A14129  40.498  44.666   7.787
  817POPC   C4A14130  40.431  44.869   7.373
  817POPC   C1B14131  41.162  44.372   8.760
  817POPC   C2B14132  41.223  44.496   8.316
  817POPC   C3B14133  40.948  44.499   7.948
  817POPC   C4B14134  40.901  44.630   7.487
  818POPC   NC314135  24.812  21.887   9.338
  818POPC   PO414136  24.164  21.890   9.447
  818POPC   GL114137  24.398  22.236   9.218
  818POPC   GL214138  24.336  22.033   8.972
  818POPC   C1A14139  24.675  22.406   8.834
  818POPC   D2A14140  24.960  22.364   8.427
  818POPC   C3A14141  24.725  22.293   8.000
  818POPC   C4A14142  24.682  22.239   7.504
  818POPC   C1B14143  24.182  21.840   8.606
  818POPC   C2B14144  24.344  21.995   8.191
  818POPC   C3B14145  24.376  21.885   7.722
  818POPC   C4B14146  24.366  21.893   7.240
  819POPC   NC314147  33.135   8.782   9.486
  819POPC   PO414148  32.529   8.992   9.497
  819POPC   GL114149  32.731   9.201   9.148
  819POPC   GL214150  33.086   9.203   9.164
  819POPC   C1A14151  32.812   9.268   8.725
  819POPC   D2A14152  33.045   9.080   8.372
  819POPC   C3A14153  32.929   9.162   7.974
  819POPC   C4A14154  32.947   8.877   7.682
  819POPC   C1B14155  33.266   8.954   8.825
  819POPC   C2B14156  33.336   8.649   8.471
  819POPC   C3B14157  33.280   8.721   8.030
  819POPC   C4B14158  33.400   9.098   7.746
  820POPC   NC314159  23.981  26.077   9.930
  820POPC   PO414160  23.624  25.699   9.401
  820POPC   GL114161  23.479  25.913   9.003
  820POPC   GL214162  23.713  26.183   8.996
  820POPC   C1A14163  23.533  25.895   8.566
  820POPC   D2A14164  23.883  25.642   8.435
  820POPC   C3A14165  23.909  25.622   8.020
  820POPC   C4A14166  23.561  25.904   7.872
  820POPC   C1B14167  23.991  26.171   8.649
  820POPC   C2B14168  23.957  26.430   8.300
  820POPC   C3B14169  23.818  26.356   7.898
  820POPC   C4B14170  23.780  26.624   7.582
  821POPC   NC314171   8.289  42.645   9.729
  821POPC   PO414172   7.979  42.262   9.359
  821POPC   GL114173   8.167  42.456   9.016
  821POPC   GL214174   8.532  42.506   8.858
  821POPC   C1A14175   8.129  42.364   8.610
  821POPC   D2A14176   8.119  42.602   8.271
  821POPC   C3A14177   8.245  42.421   7.910
  821POPC   C4A14178   8.030  42.437   7.538
  821POPC   C1B14179   8.562  42.093   8.674
  821POPC   C2B14180   8.416  41.953   8.257
  821POPC   C3B14181   8.600  42.042   7.901
  821POPC   C4B14182   8.440  42.116   7.513
  822POPC   NC314183  34.159  44.120   9.316
  822POPC   PO414184  33.716  43.644   9.391
  822POPC   GL114185  33.726  43.775   8.970
  822POPC   GL214186  33.712  44.144   9.009
  822POPC   C1A14187  33.626  43.930   8.555
  822POPC   D2A14188  33.352  44.131   8.247
  822POPC   C3A14189  33.594  44.137   7.868
  822POPC   C4A14190  33.745  43.828   7.565
  822POPC   C1B14191  34.048  44.173   8.696
  822POPC   C2B14192  34.090  44.043   8.295
  822POPC   C3B14193  34.194  44.284   7.972
  822POPC   C4B14194  34.028  44.230   7.619
  823POPC   NC314195  40.335  44.972   9.487
  823POPC   PO414196  39.801   0.412   9.542
  823POPC   GL114197  39.980   0.177   9.191
  823POPC   GL214198  39.977   0.484   9.061
  823POPC   C1A14199  40.093   0.106   8.754
  823POPC   D2A14200  39.915   0.329   8.417
  823POPC   C3A14201  40.100   0.409   8.039
  823POPC   C4A14202  39.780   0.298   7.727
  823POPC   C1B14203  40.157   0.666   8.720
  823POPC   C2B14204  40.074   0.836   8.342
  823POPC   C3B14205  40.157   0.929   7.936
  823POPC   C4B14206  40.019   0.726   7.597
  824POPC   NC314207   6.494  24.227   9.472
  824POPC   PO414208   6.583  24.799   9.745
  824POPC   GL114209   6.754  24.666   9.261
  824POPC   GL214210   6.789  24.323   9.064
  824POPC   C1A14211   6.688  24.733   8.785
  824POPC   D2A14212   6.592  24.862   8.351
  824POPC   C3A14213   6.645  24.682   7.945
  824POPC   C4A14214   6.841  24.407   7.660
  824POPC   C1B14215   6.420  24.316   8.717
  824POPC   C2B14216   6.336  24.355   8.256
  824POPC   C3B14217   6.442  24.129   7.860
  824POPC   C4B14218   6.435  24.273   7.405
  825POPC   NC314219  30.726  37.538   9.573
  825POPC   PO414220  31.134  37.266   9.093
  825POPC   GL114221  30.700  37.338   9.097
  825POPC   GL214222  30.618  37.681   9.102
  825POPC   C1A14223  30.461  37.341   8.739
  825POPC   D2A14224  30.750  37.467   8.399
  825POPC   C3A14225  30.619  37.653   8.010
  825POPC   C4A14226  30.881  37.679   7.677
  825POPC   C1B14227  30.522  37.847   8.693
  825POPC   C2B14228  30.789  38.012   8.358
  825POPC   C3B14229  30.962  38.099   7.960
  825POPC   C4B14230  30.598  38.107   7.705
  826POPC   NC314231  25.837  37.901   9.563
  826POPC   PO414232  26.004  37.253   9.553
  826POPC   GL114233  25.848  37.471   9.207
  826POPC   GL214234  26.034  37.780   9.123
  826POPC   C1A14235  25.711  37.607   8.807
  826POPC   D2A14236  25.902  37.822   8.468
  826POPC   C3A14237  25.965  37.557   8.087
  826POPC   C4A14238  25.785  37.599   7.675
  826POPC   C1B14239  26.214  37.529   8.795
  826POPC   C2B14240  26.376  37.649   8.395
  826POPC   C3B14241  26.370  37.877   8.037
  826POPC   C4B14242  26.273  37.679   7.694
  827POPC   NC314243   0.670   2.130   9.459
  827POPC   PO414244   1.129   1.645   9.635
  827POPC   GL114245   1.215   2.007   9.280
  827POPC   GL214246   1.491   1.877   9.097
  827POPC   C1A14247   1.256   2.277   8.830
  827POPC   D2A14248   1.396   2.261   8.338
  827POPC   C3A14249   1.073   2.115   7.987
  827POPC   C4A14250   0.963   2.310   7.557
  827POPC   C1B14251   1.679   2.002   8.706
  827POPC   C2B14252   1.733   1.869   8.320
  827POPC   C3B14253   1.517   1.846   7.962
  827POPC   C4B14254   1.375   1.987   7.569
  828POPC   NC314255  39.327  34.902   9.556
  828POPC   PO414256  39.467  34.307   9.897
  828POPC   GL114257  39.369  34.390   9.361
  828POPC   GL214258  39.364  34.684   9.113
  828POPC   C1A14259  39.158  34.277   8.906
  828POPC   D2A14260  38.974  34.411   8.465
  828POPC   C3A14261  39.142  34.589   8.097
  828POPC   C4A14262  39.274  34.412   7.741
  828POPC   C1B14263  39.019  34.775   8.827
  828POPC   C2B14264  38.895  34.932   8.413
  828POPC   C3B14265  38.810  34.988   7.981
  828POPC   C4B14266  39.090  34.984   7.623
  829POPC   NC314267  10.903  20.519   9.579
  829POPC   PO414268  10.248  20.594   9.426
  829POPC   GL114269  10.208  20.414   9.034
  829POPC   GL214270  10.541  20.479   9.003
  829POPC   C1A14271  10.257  20.405   8.577
  829POPC   D2A14272  10.591  20.345   8.275
  829POPC   C3A14273  10.427  20.475   7.902
  829POPC   C4A14274  10.551  20.707   7.468
  829POPC   C1B14275  10.791  20.596   8.661
  829POPC   C2B14276  10.854  20.787   8.277
  829POPC   C3B14277  10.922  20.545   7.878
  829POPC   C4B14278  11.044  20.568   7.446
  830POPC   NC314279   6.997  23.831  10.077
  830POPC   PO414280   6.483  23.788   9.665
  830POPC   GL114281   6.427  23.598   9.237
  830POPC   GL214282   6.435  23.908   9.050
  830POPC   C1A14283   6.537  23.488   8.793
  830POPC   D2A14284   6.726  23.497   8.363
  830POPC   C3A14285   6.605  23.612   7.957
  830POPC   C4A14286   6.684  23.386   7.559
  830POPC   C1B14287   6.775  23.942   8.722
  830POPC   C2B14288   6.814  24.085   8.296
  830POPC   C3B14289   6.957  23.971   7.890
  830POPC   C4B14290   6.716  23.870   7.495
  831POPC   NC314291  35.497  11.268   9.456
  831POPC   PO414292  35.078  11.751   9.424
  831POPC   GL114293  35.232  11.534   9.052
  831POPC   GL214294  35.580  11.409   8.988
  831POPC   C1A14295  35.193  11.343   8.638
  831POPC   D2A14296  35.306  11.031   8.323
  831POPC   C3A14297  34.991  10.952   8.047
  831POPC   C4A14298  35.153  11.160   7.711
  831POPC   C1B14299  35.694  11.124   8.655
  831POPC   C2B14300  35.797  11.177   8.200
  831POPC   C3B14301  35.756  11.380   7.792
  831POPC   C4B14302  35.448  11.472   7.450
  832POPC   NC314303  39.730  33.511   9.586
  832POPC   PO414304  40.108  34.017   9.575
  832POPC   GL114305  40.138  33.713   9.260
  832POPC   GL214306  39.815  33.863   9.134
  832POPC   C1A14307  40.102  33.552   8.824
  832POPC   D2A14308  39.952  33.741   8.431
  832POPC   C3A14309  40.052  33.561   8.040
  832POPC   C4A14310  40.116  33.641   7.628
  832POPC   C1B14311  39.563  33.875   8.737
  832POPC   C2B14312  39.561  34.053   8.319
  832POPC   C3B14313  39.765  34.011   7.925
  832POPC   C4B14314  39.646  34.149   7.512
  833POPC   NC314315  27.517  33.337   9.526
  833POPC   PO414316  27.790  32.692   9.574
  833POPC   GL114317  27.694  32.906   9.185
  833POPC   GL214318  27.838  33.216   9.145
  833POPC   C1A14319  27.454  32.991   8.819
  833POPC   D2A14320  27.552  32.871   8.395
  833POPC   C3A14321  27.348  32.981   8.024
  833POPC   C4A14322  27.418  33.339   7.819
  833POPC   C1B14323  27.947  33.044   8.733
  833POPC   C2B14324  28.075  32.942   8.342
  833POPC   C3B14325  27.855  32.954   7.973
  833POPC   C4B14326  27.821  33.087   7.556
  834POPC   NC314327  36.441  37.402   9.400
  834POPC   PO414328  35.868  37.731   9.517
  834POPC   GL114329  36.040  37.723   9.158
  834POPC   GL214330  35.984  37.369   9.149
  834POPC   C1A14331  36.052  37.910   8.764
  834POPC   D2A14332  36.136  37.752   8.382
  834POPC   C3A14333  36.096  37.913   7.979
  834POPC   C4A14334  36.211  37.773   7.539
  834POPC   C1B14335  36.154  37.387   8.757
  834POPC   C2B14336  36.011  37.250   8.361
  834POPC   C3B14337  36.207  37.418   7.998
  834POPC   C4B14338  36.289  37.227   7.660
  835POPC   NC314339  34.447   7.031   9.444
  835POPC   PO414340  34.633   7.690   9.592
  835POPC   GL114341  34.739   7.660   9.138
  835POPC   GL214342  34.421   7.514   9.051
  835POPC   C1A14343  34.666   7.650   8.649
  835POPC   D2A14344  34.586   7.391   8.308
  835POPC   C3A14345  34.353   7.515   7.964
  835POPC   C4A14346  34.730   7.450   7.796
  835POPC   C1B14347  34.301   7.244   8.700
  835POPC   C2B14348  34.333   6.945   8.303
  835POPC   C3B14349  34.252   7.015   7.851
  835POPC   C4B14350  34.117   7.116   7.424
  836POPC   NC314351   6.396   6.332   9.493
  836POPC   PO414352   5.801   6.655   9.609
  836POPC   GL114353   5.834   6.342   9.251
  836POPC   GL214354   6.140   6.253   9.062
  836POPC   C1A14355   5.711   6.371   8.804
  836POPC   D2A14356   5.587   6.284   8.389
  836POPC   C3A14357   5.713   6.456   8.012
  836POPC   C4A14358   5.504   6.450   7.636
  836POPC   C1B14359   6.076   6.704   8.932
  836POPC   C2B14360   6.075   6.785   8.468
  836POPC   C3B14361   6.234   6.552   8.096
  836POPC   C4B14362   6.058   6.579   7.677
  837POPC   NC314363  17.883  27.442   9.756
  837POPC   PO414364  17.448  27.832   9.437
  837POPC   GL114365  17.346  27.664   9.060
  837POPC   GL214366  17.459  27.359   8.986
  837POPC   C1A14367  17.153  27.823   8.741
  837POPC   D2A14368  17.356  27.933   8.383
  837POPC   C3A14369  17.317  27.718   8.014
  837POPC   C4A14370  17.570  27.817   7.659
  837POPC   C1B14371  17.528  27.484   8.588
  837POPC   C2B14372  17.841  27.341   8.304
  837POPC   C3B14373  17.997  27.219   7.952
  837POPC   C4B14374  17.665  27.340   7.753
  838POPC   NC314375   5.338  26.455   9.490
  838POPC   PO414376   5.062  27.082   9.482
  838POPC   GL114377   5.047  26.755   9.180
  838POPC   GL214378   5.370  26.613   8.992
  838POPC   C1A14379   4.887  26.705   8.793
  838POPC   D2A14380   5.102  26.759   8.418
  838POPC   C3A14381   4.847  26.789   8.071
  838POPC   C4A14382   5.031  26.778   7.705
  838POPC   C1B14383   5.326  27.028   8.810
  838POPC   C2B14384   5.441  27.163   8.398
  838POPC   C3B14385   5.339  27.028   8.026
  838POPC   C4B14386   5.196  27.259   7.700
  839POPC   NC314387  33.040  32.994   9.547
  839POPC   PO414388  33.508  32.641   9.219
  839POPC   GL114389  33.192  32.946   9.067
  839POPC   GL214390  32.785  32.962   9.104
  839POPC   C1A14391  33.087  33.094   8.686
  839POPC   D2A14392  33.209  33.186   8.297
  839POPC   C3A14393  33.145  32.825   8.037
  839POPC   C4A14394  33.170  32.986   7.639
  839POPC   C1B14395  32.661  33.325   8.824
  839POPC   C2B14396  32.677  33.376   8.339
  839POPC   C3B14397  32.772  33.152   7.928
  839POPC   C4B14398  32.777  33.243   7.440
  840POPC   NC314399   4.106   9.820   9.630
  840POPC   PO414400   4.726   9.627   9.372
  840POPC   GL114401   4.344   9.638   9.189
  840POPC   GL214402   4.284   9.987   9.189
  840POPC   C1A14403   4.211   9.516   8.777
  840POPC   D2A14404   4.119   9.704   8.372
  840POPC   C3A14405   4.225   9.501   7.973
  840POPC   C4A14406   4.134   9.286   7.571
  840POPC   C1B14407   4.374  10.003   8.762
  840POPC   C2B14408   4.381  10.250   8.402
  840POPC   C3B14409   4.453  10.298   7.995
  840POPC   C4B14410   4.677   9.979   7.809
  841POPC   NC314411  34.423  17.905   9.637
  841POPC   PO414412  34.752  18.492   9.600
  841POPC   GL114413  34.725  18.221   9.241
  841POPC   GL214414  34.385  18.338   9.241
  841POPC   C1A14415  34.714  18.242   8.768
  841POPC   D2A14416  34.803  18.500   8.381
  841POPC   C3A14417  34.592  18.362   8.012
  841POPC   C4A14418  34.681  18.359   7.547
  841POPC   C1B14419  34.318  17.994   8.974
  841POPC   C2B14420  34.359  17.955   8.528
  841POPC   C3B14421  34.421  17.886   8.106
  841POPC   C4B14422  34.227  18.094   7.768
  842POPC   NC314423  37.352  11.871   9.379
  842POPC   PO414424  38.007  12.068   9.293
  842POPC   GL114425  37.931  12.284   9.009
  842POPC   GL214426  37.578  12.201   9.044
  842POPC   C1A14427  37.833  12.323   8.644
  842POPC   D2A14428  37.963  12.130   8.317
  842POPC   C3A14429  37.981  12.353   7.975
  842POPC   C4A14430  38.098  12.064   7.684
  842POPC   C1B14431  37.361  12.056   8.727
  842POPC   C2B14432  37.481  11.915   8.349
  842POPC   C3B14433  37.575  12.040   7.952
  842POPC   C4B14434  37.372  11.884   7.623
  843POPC   NC314435  22.531  26.124   9.645
  843POPC   PO414436  22.001  26.420   9.393
  843POPC   GL114437  22.095  26.056   9.130
  843POPC   GL214438  22.459  25.943   9.156
  843POPC   C1A14439  21.941  26.075   8.704
  843POPC   D2A14440  22.131  26.222   8.342
  843POPC   C3A14441  22.141  26.101   7.932
  843POPC   C4A14442  21.819  25.962   7.642
  843POPC   C1B14443  22.480  26.104   8.714
  843POPC   C2B14444  22.615  26.013   8.284
  843POPC   C3B14445  22.592  25.801   7.877
  843POPC   C4B14446  22.322  25.841   7.487
  844POPC   NC314447  18.743  12.631   9.437
  844POPC   PO414448  19.400  12.638   9.409
  844POPC   GL114449  19.108  12.701   9.095
  844POPC   GL214450  18.984  13.032   9.109
  844POPC   C1A14451  19.003  12.697   8.683
  844POPC   D2A14452  19.225  12.714   8.339
  844POPC   C3A14453  19.078  12.502   7.993
  844POPC   C4A14454  19.313  12.605   7.666
  844POPC   C1B14455  19.251  13.140   8.756
  844POPC   C2B14456  19.206  13.268   8.323
  844POPC   C3B14457  19.174  13.046   7.929
  844POPC   C4B14458  19.278  13.074   7.489
  845POPC   NC314459  41.525  37.179   9.519
  845POPC   PO414460  41.596  36.551   9.648
  845POPC   GL114461  41.585  36.770   9.227
  845POPC   GL214462  41.876  37.011   9.133
  845POPC   C1A14463  41.516  36.883   8.794
  845POPC   D2A14464  41.620  37.099   8.416
  845POPC   C3A14465  41.894  36.862   8.167
  845POPC   C4A14466  41.903  36.991   7.772
  845POPC   C1B14467  41.954  37.301   8.765
  845POPC   C2B14468  41.918  37.565   8.416
  845POPC   C3B14469  41.811  37.447   8.006
  845POPC   C4B14470  41.976  37.468   7.594
  846POPC   NC314471  39.372   0.752   9.503
  846POPC   PO414472  39.232   0.071   9.552
  846POPC   GL114473  39.216   0.193   9.154
  846POPC   GL214474  39.523   0.091   9.009
  846POPC   C1A14475  39.082   0.238   8.729
  846POPC   D2A14476  39.423   0.141   8.431
  846POPC   C3A14477  39.341   0.287   8.004
  846POPC   C4A14478  39.033   0.157   7.711
  846POPC   C1B14479  39.536   0.490   8.818
  846POPC   C2B14480  39.559   0.691   8.423
  846POPC   C3B14481  39.677   0.704   8.010
  846POPC   C4B14482  39.445   0.668   7.616
  847POPC   NC314483  44.641  37.449   9.559
  847POPC   PO414484  44.413  38.109   9.436
  847POPC   GL114485  44.638  37.797   9.115
  847POPC   GL214486  44.705  37.403   9.061
  847POPC   C1A14487  44.579  37.697   8.687
  847POPC   D2A14488  44.717  37.718   8.295
  847POPC   C3A14489  44.514  37.599   7.911
  847POPC   C4A14490  44.703  37.730   7.531
  847POPC   C1B14491  44.854  37.282   8.596
  847POPC   C2B14492   0.110  37.419   8.212
  847POPC   C3B14493   0.038  37.415   7.753
  847POPC   C4B14494  44.937  37.380   7.261
  848POPC   NC314495  33.677  19.443   9.336
  848POPC   PO414496  33.994  18.869   9.438
  848POPC   GL114497  33.894  19.075   9.035
  848POPC   GL214498  34.029  18.822   8.818
  848POPC   C1A14499  33.763  19.192   8.580
  848POPC   D2A14500  33.841  18.849   8.317
  848POPC   C3A14501  33.812  18.851   7.881
  848POPC   C4A14502  33.749  19.053   7.514
  848POPC   C1B14503  34.276  19.119   8.580
  848POPC   C2B14504  34.116  19.426   8.294
  848POPC   C3B14505  33.969  19.331   7.912
  848POPC   C4B14506  34.271  19.108   7.657
  849POPC   NC314507  34.796  15.941   9.792
  849POPC   PO414508  35.407  15.787   9.743
  849POPC   GL114509  35.477  15.962   9.274
  849POPC   GL214510  35.482  16.336   9.375
  849POPC   C1A14511  35.338  15.946   8.798
  849POPC   D2A14512  35.100  15.748   8.455
  849POPC   C3A14513  35.339  15.667   8.092
  849POPC   C4A14514  35.488  15.872   7.736
  849POPC   C1B14515  35.517  16.401   8.948
  849POPC   C2B14516  35.564  16.342   8.509
  849POPC   C3B14517  35.329  16.252   8.138
  849POPC   C4B14518  35.333  16.350   7.707
  850POPC   NC314519  26.470  27.293   9.850
  850POPC   PO414520  26.745  27.758   9.453
  850POPC   GL114521  26.864  27.760   9.040
  850POPC   GL214522  26.876  27.427   8.999
  850POPC   C1A14523  27.027  27.702   8.612
  850POPC   D2A14524  27.018  27.341   8.375
  850POPC   C3A14525  26.882  27.474   8.020
  850POPC   C4A14526  26.842  27.490   7.594
  850POPC   C1B14527  26.536  27.388   8.693
  850POPC   C2B14528  26.332  27.551   8.336
  850POPC   C3B14529  26.399  27.457   7.926
  850POPC   C4B14530  26.506  27.108   7.674
  851POPC   NC314531  14.211   4.871   9.828
  851POPC   PO414532  13.644   4.873   9.462
  851POPC   GL114533  13.528   5.231   9.199
  851POPC   GL214534  13.865   5.293   9.193
  851POPC   C1A14535  13.573   5.350   8.757
  851POPC   D2A14536  13.613   5.239   8.327
  851POPC   C3A14537  13.278   4.998   8.140
  851POPC   C4A14538  13.311   4.979   7.695
  851POPC   C1B14539  14.008   5.091   8.787
  851POPC   C2B14540  14.064   4.925   8.351
  851POPC   C3B14541  13.877   4.982   7.929
  851POPC   C4B14542  13.922   5.239   7.570
  852POPC   NC314543  43.576  10.953   9.420
  852POPC   PO414544  43.279  11.510   9.489
  852POPC   GL114545  43.227  11.473   9.083
  852POPC   GL214546  43.163  11.117   9.126
  852POPC   C1A14547  43.086  11.389   8.665
  852POPC   D2A14548  43.103  11.580   8.281
  852POPC   C3A14549  43.059  11.397   7.911
  852POPC   C4A14550  42.755  11.078   7.808
  852POPC   C1B14551  43.160  10.878   8.728
  852POPC   C2B14552  43.014  10.983   8.303
  852POPC   C3B14553  43.264  10.924   7.929
  852POPC   C4B14554  43.556  11.247   7.836
  853POPC   NC314555  38.883  12.148   9.382
  853POPC   PO414556  39.596  12.070   9.487
  853POPC   GL114557  39.328  12.074   9.100
  853POPC   GL214558  39.171  12.397   9.041
  853POPC   C1A14559  39.210  11.846   8.711
  853POPC   D2A14560  39.351  11.737   8.299
  853POPC   C3A14561  39.276  12.036   7.929
  853POPC   C4A14562  39.372  12.456   7.761
  853POPC   C1B14563  38.868  12.230   8.746
  853POPC   C2B14564  38.898  12.117   8.332
  853POPC   C3B14565  38.915  12.403   8.003
  853POPC   C4B14566  38.908  12.309   7.599
  854POPC   NC314567  13.903  19.435   9.429
  854POPC   PO414568  13.441  18.942   9.518
  854POPC   GL114569  13.724  18.984   9.169
  854POPC   GL214570  13.672  19.276   9.027
  854POPC   C1A14571  13.591  18.899   8.731
  854POPC   D2A14572  13.418  19.046   8.382
  854POPC   C3A14573  13.537  18.763   8.077
  854POPC   C4A14574  13.591  18.928   7.701
  854POPC   C1B14575  13.879  19.324   8.677
  854POPC   C2B14576  13.968  19.012   8.416
  854POPC   C3B14577  13.863  19.167   8.063
  854POPC   C4B14578  14.041  19.148   7.675
  855POPC   NC314579  29.806   3.433   9.660
  855POPC   PO414580  30.031   3.901   9.216
  855POPC   GL114581  29.804   3.540   9.155
  855POPC   GL214582  30.028   3.262   9.240
  855POPC   C1A14583  29.708   3.473   8.740
  855POPC   D2A14584  30.043   3.494   8.448
  855POPC   C3A14585  30.033   3.770   8.097
  855POPC   C4A14586  29.672   3.663   7.879
  855POPC   C1B14587  30.093   3.133   8.820
  855POPC   C2B14588  30.220   2.992   8.393
  855POPC   C3B14589  30.265   3.285   8.048
  855POPC   C4B14590  30.086   3.446   7.685
  856POPC   NC314591   0.385  26.671   9.360
  856POPC   PO414592   0.352  27.283   9.540
  856POPC   GL114593   0.250  27.105   9.127
  856POPC   GL214594   0.565  27.119   9.082
  856POPC   C1A14595   0.287  27.238   8.675
  856POPC   D2A14596   0.050  27.115   8.301
  856POPC   C3A14597   0.259  27.149   7.894
  856POPC   C4A14598   0.221  27.001   7.460
  856POPC   C1B14599   0.551  26.803   8.746
  856POPC   C2B14600   0.504  26.902   8.331
  856POPC   C3B14601   0.374  26.674   8.006
  856POPC   C4B14602   0.611  26.634   7.697
  857POPC   NC314603  29.627  30.169   9.475
  857POPC   PO414604  30.221  30.138   9.183
  857POPC   GL114605  29.985  29.769   9.019
  857POPC   GL214606  29.619  29.783   9.069
  857POPC   C1A14607  29.879  29.839   8.580
  857POPC   D2A14608  30.092  30.209   8.373
  857POPC   C3A14609  30.231  30.000   8.019
  857POPC   C4A14610  29.936  29.616   7.956
  857POPC   C1B14611  29.547  30.162   8.820
  857POPC   C2B14612  29.499  30.275   8.408
  857POPC   C3B14613  29.684  30.047   8.111
  857POPC   C4B14614  29.832  30.127   7.717
  858POPC   NC314615  11.469   4.941   9.425
  858POPC   PO414616  11.114   5.546   9.443
  858POPC   GL114617  11.243   5.286   9.103
  858POPC   GL214618  11.625   5.291   9.083
  858POPC   C1A14619  11.272   4.972   8.773
  858POPC   D2A14620  11.306   4.668   8.434
  858POPC   C3A14621  11.385   4.877   8.027
  858POPC   C4A14622  11.074   5.130   7.787
  858POPC   C1B14623  11.463   5.466   8.680
  858POPC   C2B14624  11.285   5.347   8.288
  858POPC   C3B14625  11.463   5.430   7.889
  858POPC   C4B14626  11.449   5.408   7.428
  859POPC   NC314627  30.194  28.238   9.513
  859POPC   PO414628  29.918  28.802   9.497
  859POPC   GL114629  29.904  28.514   9.131
  859POPC   GL214630  29.931  28.118   9.096
  859POPC   C1A14631  29.785  28.615   8.713
  859POPC   D2A14632  30.008  28.691   8.339
  859POPC   C3A14633  29.799  28.626   8.004
  859POPC   C4A14634  30.079  28.620   7.677
  859POPC   C1B14635  29.771  27.939   8.724
  859POPC   C2B14636  29.807  28.209   8.384
  859POPC   C3B14637  29.958  28.148   7.986
  859POPC   C4B14638  29.731  28.230   7.626
  860POPC   NC314639  28.045   6.825   9.505
  860POPC   PO414640  28.676   6.515   9.601
  860POPC   GL114641  28.434   6.636   9.234
  860POPC   GL214642  28.393   7.005   9.197
  860POPC   C1A14643  28.225   6.527   8.854
  860POPC   D2A14644  28.437   6.332   8.496
  860POPC   C3A14645  28.338   6.423   8.062
  860POPC   C4A14646  28.616   6.642   7.802
  860POPC   C1B14647  28.258   7.039   8.797
  860POPC   C2B14648  28.361   7.028   8.353
  860POPC   C3B14649  28.109   6.884   8.021
  860POPC   C4B14650  28.012   6.622   7.675
  861POPC   NC314651  40.438  13.474   9.573
  861POPC   PO414652  41.122  13.728   9.449
  861POPC   GL114653  40.949  13.469   9.145
  861POPC   GL214654  40.611  13.579   9.096
  861POPC   C1A14655  40.887  13.451   8.703
  861POPC   D2A14656  41.015  13.650   8.330
  861POPC   C3A14657  40.884  13.447   7.938
  861POPC   C4A14658  41.027  13.584   7.539
  861POPC   C1B14659  40.600  13.919   8.754
  861POPC   C2B14660  40.709  14.087   8.365
  861POPC   C3B14661  40.768  13.961   7.942
  861POPC   C4B14662  40.551  13.726   7.623
  862POPC   NC314663  37.651   9.298   9.532
  862POPC   PO414664  37.796   9.921   9.483
  862POPC   GL114665  37.496   9.820   9.146
  862POPC   GL214666  37.651   9.547   9.075
  862POPC   C1A14667  37.345   9.727   8.715
  862POPC   D2A14668  37.517   9.534   8.368
  862POPC   C3A14669  37.534   9.726   7.994
  862POPC   C4A14670  37.648   9.556   7.594
  862POPC   C1B14671  37.852   9.848   8.752
  862POPC   C2B14672  37.957   9.793   8.309
  862POPC   C3B14673  38.031   9.761   7.843
  862POPC   C4B14674  38.034   9.839   7.393
  863POPC   NC314675  25.553   1.491   9.457
  863POPC   PO414676  25.216   0.968   9.531
  863POPC   GL114677  25.226   1.185   9.159
  863POPC   GL214678  25.563   1.030   9.124
  863POPC   C1A14679  25.007   1.319   8.745
  863POPC   D2A14680  24.801   1.297   8.291
  863POPC   C3A14681  25.124   1.318   7.934
  863POPC   C4A14682  25.480   1.420   7.637
  863POPC   C1B14683  25.316   0.904   8.753
  863POPC   C2B14684  25.224   0.994   8.345
  863POPC   C3B14685  25.533   1.055   8.027
  863POPC   C4B14686  25.376   0.915   7.659
  864POPC   NC314687  19.386   1.385   9.459
  864POPC   PO414688  18.836   1.168   9.672
  864POPC   GL114689  18.825   1.195   9.206
  864POPC   GL214690  19.036   1.501   9.091
  864POPC   C1A14691  18.954   1.052   8.767
  864POPC   D2A14692  19.366   0.943   8.505
  864POPC   C3A14693  19.429   0.990   8.033
  864POPC   C4A14694  19.236   0.924   7.619
  864POPC   C1B14695  19.256   1.446   8.679
  864POPC   C2B14696  19.066   1.329   8.288
  864POPC   C3B14697  19.095   1.349   7.856
  864POPC   C4B14698  18.849   1.421   7.512
  865POPC   NC314699  20.270  10.758   9.334
  865POPC   PO414700  20.098  10.156   9.664
  865POPC   GL114701  19.988  10.367   9.204
  865POPC   GL214702  19.854  10.733   9.057
  865POPC   C1A14703  20.119  10.418   8.732
  865POPC   D2A14704  20.065  10.503   8.257
  865POPC   C3A14705  19.935  10.250   7.887
  865POPC   C4A14706  19.734  10.018   7.529
  865POPC   C1B14707  20.024  10.919   8.629
  865POPC   C2B14708  19.998  10.987   8.150
  865POPC   C3B14709  19.767  10.770   7.809
  865POPC   C4B14710  19.685  10.840   7.350
  866POPC   NC314711  36.649   0.219   9.494
  866POPC   PO414712  36.992   0.774   9.614
  866POPC   GL114713  37.053   0.576   9.218
  866POPC   GL214714  37.062   0.236   9.230
  866POPC   C1A14715  36.858   0.520   8.821
  866POPC   D2A14716  36.909   0.744   8.445
  866POPC   C3A14717  37.224   0.686   8.171
  866POPC   C4A14718  36.947   0.618   7.869
  866POPC   C1B14719  37.145   0.071   8.847
  866POPC   C2B14720  37.133   0.254   8.446
  866POPC   C3B14721  37.088   0.097   8.054
  866POPC   C4B14722  37.015   0.186   7.641
  867POPC   NC314723  24.279  33.520   9.369
  867POPC   PO414724  24.613  34.105   9.456
  867POPC   GL114725  24.445  33.914   9.100
  867POPC   GL214726  24.664  33.606   9.037
  867POPC   C1A14727  24.216  33.938   8.699
  867POPC   D2A14728  24.495  33.909   8.326
  867POPC   C3A14729  24.374  33.858   7.915
  867POPC   C4A14730  24.330  33.856   7.458
  867POPC   C1B14731  24.474  33.494   8.629
  867POPC   C2B14732  24.445  33.392   8.172
  867POPC   C3B14733  24.673  33.465   7.809
  867POPC   C4B14734  24.944  33.448   7.479
  868POPC   NC314735  25.829  38.578   9.471
  868POPC   PO414736  26.259  38.120   9.520
  868POPC   GL114737  26.111  38.296   9.139
  868POPC   GL214738  25.778  38.214   9.127
  868POPC   C1A14739  26.003  38.382   8.706
  868POPC   D2A14740  26.232  38.229   8.376
  868POPC   C3A14741  26.137  38.479   8.023
  868POPC   C4A14742  25.744  38.606   7.816
  868POPC   C1B14743  25.596  38.104   8.788
  868POPC   C2B14744  25.581  38.261   8.379
  868POPC   C3B14745  25.655  37.994   8.053
  868POPC   C4B14746  25.956  38.071   7.785
  869POPC   NC314747  15.131  41.241   9.495
  869POPC   PO414748  15.347  41.901   9.435
  869POPC   GL114749  15.238  41.787   9.052
  869POPC   GL214750  15.190  41.424   9.031
  869POPC   C1A14751  15.289  41.700   8.617
  869POPC   D2A14752  15.175  41.682   8.171
  869POPC   C3A14753  15.462  41.507   7.897
  869POPC   C4A14754  15.325  41.349   7.521
  869POPC   C1B14755  15.024  41.279   8.623
  869POPC   C2B14756  15.272  41.196   8.285
  869POPC   C3B14757  15.003  41.254   7.928
  869POPC   C4B14758  14.772  40.996   7.683
  870POPC   NC314759  37.335  24.607   9.420
  870POPC   PO414760  36.870  24.166   9.605
  870POPC   GL114761  36.832  24.478   9.275
  870POPC   GL214762  36.783  24.180   9.100
  870POPC   C1A14763  37.022  24.573   8.843
  870POPC   D2A14764  37.101  24.330   8.466
  870POPC   C3A14765  36.890  24.541   8.150
  870POPC   C4A14766  36.846  24.464   7.759
  870POPC   C1B14767  36.624  23.988   8.777
  870POPC   C2B14768  36.614  24.182   8.378
  870POPC   C3B14769  36.863  24.043   8.022
  870POPC   C4B14770  36.908  23.974   7.561
  871POPC   NC314771  34.218   7.845   9.413
  871POPC   PO414772  33.549   7.622   9.565
  871POPC   GL114773  33.498   7.998   9.272
  871POPC   GL214774  33.828   8.005   9.121
  871POPC   C1A14775  33.499   8.304   8.897
  871POPC   D2A14776  33.774   8.260   8.535
  871POPC   C3A14777  33.647   8.327   8.097
  871POPC   C4A14778  33.730   8.136   7.688
  871POPC   C1B14779  34.020   7.732   8.810
  871POPC   C2B14780  34.134   7.652   8.421
  871POPC   C3B14781  34.005   7.922   8.099
  871POPC   C4B14782  34.209   7.978   7.767
  872POPC   NC314783  34.215  10.880   9.322
  872POPC   PO414784  34.538  10.424   9.734
  872POPC   GL114785  34.441  10.429   9.249
  872POPC   GL214786  34.446  10.156   9.011
  872POPC   C1A14787  34.453  10.616   8.781
  872POPC   D2A14788  34.622  10.529   8.348
  872POPC   C3A14789  34.500  10.748   7.959
  872POPC   C4A14790  34.367  10.543   7.570
  872POPC   C1B14791  34.844  10.261   8.753
  872POPC   C2B14792  35.063  10.006   8.418
  872POPC   C3B14793  35.093  10.143   7.973
  872POPC   C4B14794  34.786  10.278   7.660
  873POPC   NC314795  38.405  22.325   9.546
  873POPC   PO414796  38.215  21.709   9.269
  873POPC   GL114797  38.438  22.096   9.096
  873POPC   GL214798  38.807  22.194   9.238
  873POPC   C1A14799  38.268  22.423   8.822
  873POPC   D2A14800  38.037  22.560   8.431
  873POPC   C3A14801  38.112  22.332   8.054
  873POPC   C4A14802  38.164  21.935   7.865
  873POPC   C1B14803  38.824  22.230   8.791
  873POPC   C2B14804  38.559  22.276   8.420
  873POPC   C3B14805  38.659  22.098   8.010
  873POPC   C4B14806  38.596  21.857   7.602
  874POPC   NC314807   5.199  35.612   9.646
  874POPC   PO414808   4.612  35.837   9.393
  874POPC   GL114809   4.884  36.084   9.151
  874POPC   GL214810   5.251  36.037   9.138
  874POPC   C1A14811   4.880  35.912   8.751
  874POPC   D2A14812   4.972  35.781   8.334
  874POPC   C3A14813   4.943  36.095   8.011
  874POPC   C4A14814   4.908  36.005   7.573
  874POPC   C1B14815   5.381  35.912   8.711
  874POPC   C2B14816   5.379  36.095   8.282
  874POPC   C3B14817   5.384  35.950   7.810
  874POPC   C4B14818   5.569  35.850   7.355
  875POPC   NC314819  33.066  34.090   9.567
  875POPC   PO414820  32.656  33.552   9.500
  875POPC   GL114821  32.876  33.692   9.124
  875POPC   GL214822  33.209  33.723   9.247
  875POPC   C1A14823  32.849  33.785   8.657
  875POPC   D2A14824  32.594  34.064   8.376
  875POPC   C3A14825  32.622  33.890   7.952
  875POPC   C4A14826  32.944  33.609   7.756
  875POPC   C1B14827  33.324  33.821   8.819
  875POPC   C2B14828  33.325  33.691   8.380
  875POPC   C3B14829  33.230  33.946   8.004
  875POPC   C4B14830  33.362  33.981   7.546
  876POPC   NC314831   6.339  11.048   9.529
  876POPC   PO414832   5.718  11.412   9.487
  876POPC   GL114833   5.884  11.406   9.124
  876POPC   GL214834   6.025  11.073   9.122
  876POPC   C1A14835   5.764  11.384   8.732
  876POPC   D2A14836   5.849  11.275   8.356
  876POPC   C3A14837   5.796  11.529   8.056
  876POPC   C4A14838   5.914  11.358   7.702
  876POPC   C1B14839   5.758  10.872   8.857
  876POPC   C2B14840   5.769  10.704   8.451
  876POPC   C3B14841   5.931  10.867   8.072
  876POPC   C4B14842   5.577  11.028   7.873
  877POPC   NC314843  10.767   4.448   9.557
  877POPC   PO414844  10.112   4.172   9.565
  877POPC   GL114845  10.274   4.484   9.224
  877POPC   GL214846  10.481   4.261   9.151
  877POPC   C1A14847  10.493   4.651   8.821
  877POPC   D2A14848  10.710   4.464   8.448
  877POPC   C3A14849  10.694   4.543   8.036
  877POPC   C4A14850  10.452   4.393   7.702
  877POPC   C1B14851  10.384   4.165   8.707
  877POPC   C2B14852  10.518   3.988   8.316
  877POPC   C3B14853  10.539   3.917   7.848
  877POPC   C4B14854  10.795   3.750   7.510
  878POPC   NC314855  41.436  32.646   9.426
  878POPC   PO414856  41.618  33.281   9.519
  878POPC   GL114857  41.642  33.104   9.137
  878POPC   GL214858  41.751  32.781   9.023
  878POPC   C1A14859  41.526  33.120   8.700
  878POPC   D2A14860  41.556  33.034   8.267
  878POPC   C3A14861  41.724  33.392   8.014
  878POPC   C4A14862  41.796  33.391   7.551
  878POPC   C1B14863  41.336  32.670   8.788
  878POPC   C2B14864  41.226  32.576   8.349
  878POPC   C3B14865  41.140  32.741   7.919
  878POPC   C4B14866  41.430  33.053   7.762
  879POPC   NC314867  38.338  32.405   9.558
  879POPC   PO414868  38.811  31.982   9.442
  879POPC   GL114869  38.540  32.167   9.161
  879POPC   GL214870  38.208  32.007   9.207
  879POPC   C1A14871  38.591  32.402   8.800
  879POPC   D2A14872  38.636  32.184   8.443
  879POPC   C3A14873  38.809  32.348   8.124
  879POPC   C4A14874  38.609  32.414   7.734
  879POPC   C1B14875  38.111  32.361   8.920
  879POPC   C2B14876  38.187  32.497   8.493
  879POPC   C3B14877  38.265  32.303   8.101
  879POPC   C4B14878  38.095  32.441   7.719
  880POPC   NC314879   4.762  10.732   9.626
  880POPC   PO414880   4.428  10.180   9.646
  880POPC   GL114881   4.510  10.435   9.249
  880POPC   GL214882   4.639  10.748   9.143
  880POPC   C1A14883   4.351  10.527   8.823
  880POPC   D2A14884   4.044  10.652   8.544
  880POPC   C3A14885   4.193  10.841   8.152
  880POPC   C4A14886   4.124  10.666   7.737
  880POPC   C1B14887   4.830  10.759   8.746
  880POPC   C2B14888   4.682  10.651   8.314
  880POPC   C3B14889   4.633  10.765   7.865
  880POPC   C4B14890   4.702  10.896   7.449
  881POPC   NC314891  42.698  26.385   9.353
  881POPC   PO414892  42.285  25.822   9.489
  881POPC   GL114893  42.332  26.006   9.138
  881POPC   GL214894  42.216  26.339   9.127
  881POPC   C1A14895  42.193  25.821   8.773
  881POPC   D2A14896  42.194  26.003   8.408
  881POPC   C3A14897  42.167  25.714   8.098
  881POPC   C4A14898  42.206  25.871   7.703
  881POPC   C1B14899  42.476  26.297   8.741
  881POPC   C2B14900  42.687  26.340   8.347
  881POPC   C3B14901  42.489  26.203   7.976
  881POPC   C4B14902  42.235  26.391   7.658
  882POPC   NC314903  26.668  31.224   9.714
  882POPC   PO414904  26.938  30.582   9.641
  882POPC   GL114905  26.974  30.536   9.179
  882POPC   GL214906  26.913  30.914   9.110
  882POPC   C1A14907  26.839  30.545   8.746
  882POPC   D2A14908  26.912  30.268   8.375
  882POPC   C3A14909  26.850  30.486   8.009
  882POPC   C4A14910  26.609  30.816   7.840
  882POPC   C1B14911  26.667  31.064   8.711
  882POPC   C2B14912  26.643  30.844   8.352
  882POPC   C3B14913  27.017  30.957   8.141
  882POPC   C4B14914  27.130  30.856   7.745
  883POPC   NC314915   6.020   4.539   9.518
  883POPC   PO414916   5.645   4.284  10.069
  883POPC   GL114917   5.711   4.180   9.479
  883POPC   GL214918   6.058   4.068   9.262
  883POPC   C1A14919   5.685   4.210   8.966
  883POPC   D2A14920   5.789   4.518   8.600
  883POPC   C3A14921   5.806   4.461   8.111
  883POPC   C4A14922   5.722   4.274   7.682
  883POPC   C1B14923   6.168   4.230   8.798
  883POPC   C2B14924   6.265   4.507   8.417
  883POPC   C3B14925   6.286   4.388   7.953
  883POPC   C4B14926   6.083   3.989   7.859
  884POPC   NC314927  39.632  19.750   9.401
  884POPC   PO414928  39.015  20.038   9.381
  884POPC   GL114929  39.281  19.947   9.038
  884POPC   GL214930  39.410  19.594   8.973
  884POPC   C1A14931  39.020  19.807   8.700
  884POPC   D2A14932  38.798  19.947   8.355
  884POPC   C3A14933  39.019  20.074   8.011
  884POPC   C4A14934  38.994  19.821   7.702
  884POPC   C1B14935  39.522  19.860   8.591
  884POPC   C2B14936  39.286  19.687   8.269
  884POPC   C3B14937  39.367  19.547   7.895
  884POPC   C4B14938  39.490  19.891   7.623
  885POPC   NC314939  13.073  25.568   9.569
  885POPC   PO414940  12.832  24.951   9.510
  885POPC   GL114941  12.945  25.220   9.163
  885POPC   GL214942  12.720  25.456   9.194
  885POPC   C1A14943  12.938  25.237   8.688
  885POPC   D2A14944  13.120  25.378   8.287
  885POPC   C3A14945  12.893  25.244   7.944
  885POPC   C4A14946  13.003  25.057   7.574
  885POPC   C1B14947  12.631  25.633   8.792
  885POPC   C2B14948  12.714  25.683   8.372
  885POPC   C3B14949  12.596  25.663   7.935
  885POPC   C4B14950  12.728  25.509   7.517
  886POPC   NC314951   8.336  44.070   9.466
  886POPC   PO414952   8.243  43.416   9.435
  886POPC   GL114953   8.166  43.711   9.091
  886POPC   GL214954   8.408  43.996   8.984
  886POPC   C1A14955   8.242  43.656   8.644
  886POPC   D2A14956   8.033  43.790   8.285
  886POPC   C3A14957   8.271  43.803   7.912
  886POPC   C4A14958   8.283  43.830   7.445
  886POPC   C1B14959   8.321  44.195   8.611
  886POPC   C2B14960   8.476  44.200   8.185
  886POPC   C3B14961   8.359  44.261   7.747
  886POPC   C4B14962   8.546  44.284   7.306
  887POPC   NC314963  28.114  26.517   9.336
  887POPC   PO414964  28.478  27.138   9.465
  887POPC   GL114965  28.261  26.965   9.126
  887POPC   GL214966  28.523  26.750   9.079
  887POPC   C1A14967  28.113  26.887   8.711
  887POPC   D2A14968  28.053  27.172   8.368
  887POPC   C3A14969  28.225  27.096   7.982
  887POPC   C4A14970  28.144  26.650   7.920
  887POPC   C1B14971  28.636  26.884   8.682
  887POPC   C2B14972  28.501  26.731   8.295
  887POPC   C3B14973  28.672  26.654   7.898
  887POPC   C4B14974  28.528  26.909   7.605
  888POPC   NC314975  15.183  21.350   9.499
  888POPC   PO414976  15.089  21.923   9.680
  888POPC   GL114977  15.185  21.697   9.134
  888POPC   GL214978  15.212  21.276   9.012
  888POPC   C1A14979  15.069  21.632   8.698
  888POPC   D2A14980  15.295  21.321   8.470
  888POPC   C3A14981  15.277  21.381   8.032
  888POPC   C4A14982  14.944  21.341   7.711
  888POPC   C1B14983  15.553  20.909   8.997
  888POPC   C2B14984  15.712  20.710   8.601
  888POPC   C3B14985  15.534  20.932   8.213
  888POPC   C4B14986  15.311  20.955   7.782
  889POPC   NC314987  13.932   7.213   9.457
  889POPC   PO414988  13.339   7.607   9.511
  889POPC   GL114989  13.540   7.446   9.178
  889POPC   GL214990  13.768   7.688   9.180
  889POPC   C1A14991  13.608   7.217   8.804
  889POPC   D2A14992  13.628   7.323   8.363
  889POPC   C3A14993  13.943   7.265   8.058
  889POPC   C4A14994  13.756   7.252   7.677
  889POPC   C1B14995  13.733   7.706   8.724
  889POPC   C2B14996  13.940   7.748   8.321
  889POPC   C3B14997  13.808   7.753   7.904
  889POPC   C4B14998  13.602   7.712   7.529
  890POPC   NC314999  31.043   0.795   9.769
  890POPC   PO415000  30.611   1.264   9.467
  890POPC   GL115001  30.638   1.029   9.091
  890POPC   GL215002  30.311   0.882   9.080
  890POPC   C1A15003  30.859   1.162   8.691
  890POPC   D2A15004  31.013   1.372   8.313
  890POPC   C3A15005  30.959   1.073   7.992
  890POPC   C4A15006  30.697   1.041   7.633
  890POPC   C1B15007  30.346   1.034   8.673
  890POPC   C2B15008  30.551   1.073   8.296
  890POPC   C3B15009  30.463   1.325   7.991
  890POPC   C4B15010  30.206   1.170   7.711
  891POPC   NC315011  29.265   1.639   9.497
  891POPC   PO415012  28.997   1.058   9.415
  891POPC   GL115013  29.123   1.111   9.040
  891POPC   GL215014  29.385   1.309   9.131
  891POPC   C1A15015  29.292   1.133   8.650
  891POPC   D2A15016  29.118   1.401   8.391
  891POPC   C3A15017  28.892   1.216   8.071
  891POPC   C4A15018  28.749   1.052   7.694
  891POPC   C1B15019  29.462   1.585   8.801
  891POPC   C2B15020  29.613   1.511   8.367
  891POPC   C3B15021  29.429   1.323   8.007
  891POPC   C4B15022  29.174   1.465   7.645
  892POPC   NC315023  31.051   1.236   9.309
  892POPC   PO415024  31.371   1.517   9.782
  892POPC   GL115025  31.541   1.424   9.296
  892POPC   GL215026  31.351   1.646   9.169
  892POPC   C1A15027  31.526   1.117   8.879
  892POPC   D2A15028  31.326   1.016   8.443
  892POPC   C3A15029  31.473   1.061   8.030
  892POPC   C4A15030  31.835   1.208   7.823
  892POPC   C1B15031  31.219   1.539   8.764
  892POPC   C2B15032  31.538   1.469   8.483
  892POPC   C3B15033  31.590   1.548   8.097
  892POPC   C4B15034  31.214   1.504   7.829
  893POPC   NC315035  40.556  36.780   9.496
  893POPC   PO415036  39.903  36.965   9.548
  893POPC   GL115037  40.023  37.133   9.139
  893POPC   GL215038  40.084  36.778   9.068
  893POPC   C1A15039  40.043  37.096   8.662
  893POPC   D2A15040  40.156  36.883   8.260
  893POPC   C3A15041  40.252  37.137   7.943
  893POPC   C4A15042  39.984  37.287   7.729
  893POPC   C1B15043  40.142  36.563   8.662
  893POPC   C2B15044  39.967  36.389   8.264
  893POPC   C3B15045  39.926  36.394   7.797
  893POPC   C4B15046  39.961  36.623   7.395
  894POPC   NC315047  28.836  32.274   9.296
  894POPC   PO415048  29.407  32.438   9.566
  894POPC   GL115049  29.414  32.424   9.120
  894POPC   GL215050  29.269  32.119   9.106
  894POPC   C1A15051  29.147  32.502   8.740
  894POPC   D2A15052  29.006  32.638   8.313
  894POPC   C3A15053  29.380  32.510   8.060
  894POPC   C4A15054  29.390  32.346   7.659
  894POPC   C1B15055  29.041  31.984   8.751
  894POPC   C2B15056  29.147  32.148   8.366
  894POPC   C3B15057  29.155  32.008   7.982
  894POPC   C4B15058  28.961  32.073   7.619
  895POPC   NC315059  31.193  40.109   9.718
  895POPC   PO415060  31.797  40.049   9.513
  895POPC   GL115061  31.559  40.081   9.184
  895POPC   GL215062  31.342  40.374   9.268
  895POPC   C1A15063  31.737  40.030   8.777
  895POPC   D2A15064  31.950  40.109   8.409
  895POPC   C3A15065  31.797  39.882   8.041
  895POPC   C4A15066  31.557  39.867   7.660
  895POPC   C1B15067  31.466  40.463   8.811
  895POPC   C2B15068  31.618  40.510   8.349
  895POPC   C3B15069  31.569  40.352   7.907
  895POPC   C4B15070  31.151  40.132   7.803
  896POPC   NC315071   4.757  41.857   9.349
  896POPC   PO415072   5.058  42.490   9.519
  896POPC   GL115073   5.214  42.438   9.122
  896POPC   GL215074   5.095  42.132   9.091
  896POPC   C1A15075   5.264  42.414   8.687
  896POPC   D2A15076   5.180  42.669   8.348
  896POPC   C3A15077   5.139  42.505   7.961
  896POPC   C4A15078   5.574  42.563   7.888
  896POPC   C1B15079   5.149  41.910   8.727
  896POPC   C2B15080   5.364  42.026   8.339
  896POPC   C3B15081   5.387  42.044   7.893
  896POPC   C4B15082   5.156  42.175   7.538
  897POPC   NC315083  24.357  43.368   9.556
  897POPC   PO415084  24.851  42.986   9.628
  897POPC   GL115085  24.630  43.087   9.225
  897POPC   GL215086  24.771  43.447   9.183
  897POPC   C1A15087  24.409  42.898   8.840
  897POPC   D2A15088  24.641  42.912   8.441
  897POPC   C3A15089  24.504  42.919   8.021
  897POPC   C4A15090  24.137  42.936   7.761
  897POPC   C1B15091  24.671  43.329   8.753
  897POPC   C2B15092  24.831  43.378   8.322
  897POPC   C3B15093  24.911  43.284   7.893
  897POPC   C4B15094  24.762  43.439   7.513
  898POPC   NC315095  35.478  43.047   9.653
  898POPC   PO415096  35.338  43.665   9.549
  898POPC   GL115097  35.385  43.286   9.208
  898POPC   GL215098  35.417  42.861   9.189
  898POPC   C1A15099  35.234  43.152   8.799
  898POPC   D2A15100  34.952  43.257   8.435
  898POPC   C3A15101  35.183  43.339   8.053
  898POPC   C4A15102  35.363  43.192   7.679
  898POPC   C1B15103  35.635  42.753   8.862
  898POPC   C2B15104  35.566  42.938   8.458
  898POPC   C3B15105  35.673  42.750   8.069
  898POPC   C4B15106  35.505  42.711   7.679
  899POPC   NC315107  39.344  22.779   9.527
  899POPC   PO415108  39.055  23.328   9.562
  899POPC   GL115109  39.191  23.091   9.152
  899POPC   GL215110  39.079  22.696   9.108
  899POPC   C1A15111  39.047  23.052   8.717
  899POPC   D2A15112  38.912  22.889   8.319
  899POPC   C3A15113  39.107  23.099   7.970
  899POPC   C4A15114  39.219  23.008   7.550
  899POPC   C1B15115  39.230  22.593   8.725
  899POPC   C2B15116  39.390  22.728   8.308
  899POPC   C3B15117  39.206  22.623   7.904
  899POPC   C4B15118  39.345  22.511   7.528
  900POPC   NC315119  12.943  17.127   9.574
  900POPC   PO415120  13.070  16.534   9.546
  900POPC   GL115121  12.921  16.689   9.196
  900POPC   GL215122  12.568  16.609   9.224
  900POPC   C1A15123  12.924  16.551   8.781
  900POPC   D2A15124  12.801  16.794   8.428
  900POPC   C3A15125  13.028  16.759   8.072
  900POPC   C4A15126  12.866  16.929   7.716
  900POPC   C1B15127  12.452  16.786   8.813
  900POPC   C2B15128  12.281  16.869   8.402
  900POPC   C3B15129  12.454  16.833   8.000
  900POPC   C4B15130  12.671  16.453   7.863
  901POPC   NC315131  34.093  16.533   9.466
  901POPC   PO415132  33.406  16.506   9.493
  901POPC   GL115133  33.668  16.737   9.157
  901POPC   GL215134  33.909  17.015   9.145
  901POPC   C1A15135  33.725  16.750   8.689
  901POPC   D2A15136  33.447  16.668   8.291
  901POPC   C3A15137  33.604  16.416   7.905
  901POPC   C4A15138  33.738  16.369   7.460
  901POPC   C1B15139  34.185  17.037   8.769
  901POPC   C2B15140  34.200  16.953   8.352
  901POPC   C3B15141  33.914  16.768   8.082
  901POPC   C4B15142  33.794  16.851   7.663
  902POPC   NC315143  19.074   2.689   9.504
  902POPC   PO415144  19.660   3.133   9.509
  902POPC   GL115145  19.323   2.945   9.164
  902POPC   GL215146  18.940   2.848   9.068
  902POPC   C1A15147  19.353   2.850   8.739
  902POPC   D2A15148  19.458   3.162   8.436
  902POPC   C3A15149  19.213   3.054   8.107
  902POPC   C4A15150  19.136   2.646   7.942
  902POPC   C1B15151  18.692   2.792   8.734
  902POPC   C2B15152  18.869   2.744   8.365
  902POPC   C3B15153  18.669   2.844   7.984
  902POPC   C4B15154  18.757   2.941   7.574
  903POPC   NC315155  32.918  23.350   9.394
  903POPC   PO415156  33.258  22.824   9.719
  903POPC   GL115157  32.906  22.880   9.278
  903POPC   GL215158  32.695  22.642   9.124
  903POPC   C1A15159  32.978  23.035   8.809
  903POPC   D2A15160  33.249  23.271   8.507
  903POPC   C3A15161  33.206  23.224   8.057
  903POPC   C4A15162  33.109  23.181   7.625
  903POPC   C1B15163  32.978  22.532   8.766
  903POPC   C2B15164  33.247  22.717   8.444
  903POPC   C3B15165  33.169  22.710   8.009
  903POPC   C4B15166  33.298  22.456   7.696
  904POPC   NC315167   9.171  39.888   9.505
  904POPC   PO415168   8.555  40.019   9.689
  904POPC   GL115169   8.773  40.010   9.219
  904POPC   GL215170   9.035  40.254   9.107
  904POPC   C1A15171   8.725  40.001   8.760
  904POPC   D2A15172   8.943  39.860   8.396
  904POPC   C3A15173   8.934  39.951   7.966
  904POPC   C4A15174   8.821  40.276   7.667
  904POPC   C1B15175   9.236  39.887   8.858
  904POPC   C2B15176   9.445  39.834   8.460
  904POPC   C3B15177   9.454  39.734   8.025
  904POPC   C4B15178   9.243  39.705   7.633
  905POPC   NC315179  11.663  19.184   9.359
  905POPC   PO415180  11.045  19.289   9.614
  905POPC   GL115181  11.231  18.961   9.240
  905POPC   GL215182  11.362  18.629   9.314
  905POPC   C1A15183  11.461  18.989   8.785
  905POPC   D2A15184  11.246  19.140   8.418
  905POPC   C3A15185  11.321  19.100   7.975
  905POPC   C4A15186  11.218  19.136   7.523
  905POPC   C1B15187  11.379  18.504   8.896
  905POPC   C2B15188  11.365  18.597   8.469
  905POPC   C3B15189  11.283  18.583   8.044
  905POPC   C4B15190  11.211  18.659   7.625
  906POPC   NC315191  43.439  11.934   9.562
  906POPC   PO415192  43.228  12.587   9.556
  906POPC   GL115193  43.214  12.233   9.214
  906POPC   GL215194  43.028  12.383   8.965
  906POPC   C1A15195  43.173  11.932   8.822
  906POPC   D2A15196  43.264  12.052   8.390
  906POPC   C3A15197  43.041  11.983   7.982
  906POPC   C4A15198  43.318  11.872   7.655
  906POPC   C1B15199  42.994  12.462   8.521
  906POPC   C2B15200  43.158  12.483   8.130
  906POPC   C3B15201  43.183  12.385   7.695
  906POPC   C4B15202  43.190  12.194   7.266
  907POPC   NC315203  34.156   2.111   9.337
  907POPC   PO415204  33.625   1.755   9.377
  907POPC   GL115205  33.736   1.997   9.033
  907POPC   GL215206  33.734   2.354   9.139
  907POPC   C1A15207  33.750   1.838   8.616
  907POPC   D2A15208  33.733   1.840   8.210
  907POPC   C3A15209  33.652   1.520   7.945
  907POPC   C4A15210  33.541   1.666   7.543
  907POPC   C1B15211  33.697   2.399   8.679
  907POPC   C2B15212  33.477   2.284   8.277
  907POPC   C3B15213  33.612   2.168   7.830
  907POPC   C4B15214  33.741   2.413   7.435
  908POPC   NC315215  13.354  25.981   9.410
  908POPC   PO415216  12.654  25.839   9.528
  908POPC   GL115217  12.860  26.149   9.278
  908POPC   GL215218  12.969  25.883   9.093
  908POPC   C1A15219  12.987  26.341   8.874
  908POPC   D2A15220  12.913  26.167   8.471
  908POPC   C3A15221  13.168  26.282   8.133
  908POPC   C4A15222  12.944  26.302   7.763
  908POPC   C1B15223  13.153  25.713   8.742
  908POPC   C2B15224  13.297  25.856   8.400
  908POPC   C3B15225  13.074  25.809   8.021
  908POPC   C4B15226  13.200  25.576   7.706
  909POPC   NC315227  18.440  32.846   9.550
  909POPC   PO415228  18.379  33.502   9.383
  909POPC   GL115229  18.236  33.134   9.131
  909POPC   GL215230  18.533  33.052   9.079
  909POPC   C1A15231  18.124  32.975   8.694
  909POPC   D2A15232  17.819  32.894   8.322
  909POPC   C3A15233  17.962  33.025   7.910
  909POPC   C4A15234  18.038  33.437   7.663
  909POPC   C1B15235  18.475  33.364   8.706
  909POPC   C2B15236  18.328  33.399   8.250
  909POPC   C3B15237  18.430  33.187   7.866
  909POPC   C4B15238  18.392  32.722   7.705
  910POPC   NC315239  40.588  34.021   9.522
  910POPC   PO415240  40.639  33.404   9.543
  910POPC   GL115241  40.704  33.659   9.186
  910POPC   GL215242  41.006  33.580   8.998
  910POPC   C1A15243  40.549  33.849   8.796
  910POPC   D2A15244  40.449  33.628   8.388
  910POPC   C3A15245  40.483  33.818   7.945
  910POPC   C4A15246  40.669  33.533   7.645
  910POPC   C1B15247  41.048  33.863   8.643
  910POPC   C2B15248  40.907  33.835   8.208
  910POPC   C3B15249  41.005  33.934   7.746
  910POPC   C4B15250  41.301  34.101   7.370
  911POPC   NC315251  34.908  38.443   9.480
  911POPC   PO415252  35.453  38.256   9.572
  911POPC   GL115253  35.334  38.219   9.182
  911POPC   GL215254  35.541  37.922   9.127
  911POPC   C1A15255  35.132  38.373   8.799
  911POPC   D2A15256  35.368  38.533   8.457
  911POPC   C3A15257  35.196  38.483   8.097
  911POPC   C4A15258  35.359  38.481   7.693
  911POPC   C1B15259  35.616  38.182   8.763
  911POPC   C2B15260  35.767  38.192   8.361
  911POPC   C3B15261  35.639  38.127   7.955
  911POPC   C4B15262  35.817  38.081   7.559
  912POPC   NC315263  28.516   9.161   9.376
  912POPC   PO415264  27.926   8.811   9.601
  912POPC   GL115265  28.093   8.663   9.165
  912POPC   GL215266  28.483   8.661   9.103
  912POPC   C1A15267  28.156   8.884   8.773
  912POPC   D2A15268  28.298   8.846   8.351
  912POPC   C3A15269  28.194   9.067   7.971
  912POPC   C4A15270  27.973   8.903   7.633
  912POPC   C1B15271  28.683   8.928   8.731
  912POPC   C2B15272  28.788   8.910   8.263
  912POPC   C3B15273  28.574   8.748   7.903
  912POPC   C4B15274  28.476   8.945   7.516
  913POPC   NC315275  32.121   3.041   9.537
  913POPC   PO415276  32.424   2.388   9.371
  913POPC   GL115277  32.131   2.643   9.135
  913POPC   GL215278  32.234   2.970   9.062
  913POPC   C1A15279  32.121   2.644   8.675
  913POPC   D2A15280  31.985   2.539   8.262
  913POPC   C3A15281  32.211   2.712   7.930
  913POPC   C4A15282  32.555   2.557   7.731
  913POPC   C1B15283  32.208   3.172   8.713
  913POPC   C2B15284  32.093   3.051   8.317
  913POPC   C3B15285  32.390   3.194   8.017
  913POPC   C4B15286  32.513   3.038   7.607
  914POPC   NC315287  34.491   6.316   9.562
  914POPC   PO415288  34.897   6.883   9.449
  914POPC   GL115289  34.683   6.639   9.145
  914POPC   GL215290  34.350   6.605   9.167
  914POPC   C1A15291  34.579   6.794   8.732
  914POPC   D2A15292  34.787   6.721   8.340
  914POPC   C3A15293  34.762   6.982   8.001
  914POPC   C4A15294  34.711   6.984   7.556
  914POPC   C1B15295  34.246   6.404   8.787
  914POPC   C2B15296  34.402   6.397   8.373
  914POPC   C3B15297  34.450   6.535   7.964
  914POPC   C4B15298  34.130   6.316   7.814
  915POPC   NC315299  36.505  22.130   9.411
  915POPC   PO415300  35.884  22.410   9.223
  915POPC   GL115301  36.148  22.093   9.052
  915POPC   GL215302  36.392  22.365   8.965
  915POPC   C1A15303  36.154  21.956   8.639
  915POPC   D2A15304  36.190  22.327   8.367
  915POPC   C3A15305  35.922  22.271   8.039
  915POPC   C4A15306  35.895  21.865   7.838
  915POPC   C1B15307  36.633  22.134   8.662
  915POPC   C2B15308  36.527  21.924   8.264
  915POPC   C3B15309  36.378  22.073   7.890
  915POPC   C4B15310  36.309  22.522   7.837
  916POPC   NC315311  17.495  17.827   9.150
  916POPC   PO415312  17.225  17.239   9.427
  916POPC   GL115313  17.435  17.299   9.055
  916POPC   GL215314  17.772  17.380   9.133
  916POPC   C1A15315  17.446  17.401   8.604
  916POPC   D2A15316  17.370  17.295   8.165
  916POPC   C3A15317  17.559  17.589   7.912
  916POPC   C4A15318  17.441  17.990   7.920
  916POPC   C1B15319  17.935  17.309   8.725
  916POPC   C2B15320  18.035  17.278   8.296
  916POPC   C3B15321  17.808  17.141   7.931
  916POPC   C4B15322  17.510  17.223   7.574
  917POPC   NC315323  13.199  44.216   9.500
  917POPC   PO415324  13.623  44.580   9.463
  917POPC   GL115325  13.497  44.369   9.053
  917POPC   GL215326  13.124  44.306   9.011
  917POPC   C1A15327  13.601  44.296   8.582
  917POPC   D2A15328  13.812  44.529   8.254
  917POPC   C3A15329  13.748  44.470   7.801
  917POPC   C4A15330  13.846  44.660   7.411
  917POPC   C1B15331  13.200  44.623   8.714
  917POPC   C2B15332  13.348  44.719   8.327
  917POPC   C3B15333  13.444  44.830   7.942
  917POPC   C4B15334  13.325  44.684   7.542
  918POPC   NC315335  32.771   1.110   9.610
  918POPC   PO415336  33.393   0.863   9.377
  918POPC   GL115337  33.226   1.087   9.027
  918POPC   GL215338  32.893   1.230   9.111
  918POPC   C1A15339  33.114   1.309   8.670
  918POPC   D2A15340  32.877   1.235   8.328
  918POPC   C3A15341  33.175   1.342   8.066
  918POPC   C4A15342  33.274   1.282   7.682
  918POPC   C1B15343  32.618   1.393   8.769
  918POPC   C2B15344  32.534   1.638   8.372
  918POPC   C3B15345  32.680   1.556   7.955
  918POPC   C4B15346  32.801   1.129   7.778
  919POPC   NC315347   2.183  15.532   9.327
  919POPC   PO415348   1.682  15.977   9.459
  919POPC   GL115349   1.798  16.151   9.074
  919POPC   GL215350   2.164  16.214   9.077
  919POPC   C1A15351   1.872  16.070   8.654
  919POPC   D2A15352   2.119  16.245   8.339
  919POPC   C3A15353   1.878  16.028   8.054
  919POPC   C4A15354   1.815  15.722   7.757
  919POPC   C1B15355   2.361  15.957   8.738
  919POPC   C2B15356   2.299  15.748   8.320
  919POPC   C3B15357   2.311  15.843   7.868
  919POPC   C4B15358   2.423  15.614   7.503
  920POPC   NC315359  36.611  16.037   9.493
  920POPC   PO415360  37.246  15.779   9.412
  920POPC   GL115361  36.996  15.939   9.123
  920POPC   GL215362  36.722  15.684   9.121
  920POPC   C1A15363  37.061  16.196   8.752
  920POPC   D2A15364  37.185  16.019   8.356
  920POPC   C3A15365  37.238  16.219   7.974
  920POPC   C4A15366  37.227  16.005   7.628
  920POPC   C1B15367  36.785  15.778   8.678
  920POPC   C2B15368  36.679  16.020   8.344
  920POPC   C3B15369  36.830  15.916   7.964
  920POPC   C4B15370  36.741  15.880   7.548
  921POPC   NC315371  24.890  17.897   9.927
  921POPC   PO415372  25.218  17.409   9.585
  921POPC   GL115373  25.017  17.512   9.193
  921POPC   GL215374  25.145  17.830   9.107
  921POPC   C1A15375  25.202  17.472   8.747
  921POPC   D2A15376  25.220  17.701   8.344
  921POPC   C3A15377  25.322  17.543   7.931
  921POPC   C4A15378  25.393  17.103   7.777
  921POPC   C1B15379  24.871  17.862   8.734
  921POPC   C2B15380  24.713  17.768   8.356
  921POPC   C3B15381  24.868  17.843   7.941
  921POPC   C4B15382  24.998  17.808   7.516
  922POPC   NC315383  41.996  20.891   9.477
  922POPC   PO415384  42.364  20.290   9.446
  922POPC   GL115385  42.285  20.556   9.088
  922POPC   GL215386  42.050  20.835   8.966
  922POPC   C1A15387  42.402  20.559   8.660
  922POPC   D2A15388  42.465  20.242   8.336
  922POPC   C3A15389  42.689  20.388   8.007
  922POPC   C4A15390  42.505  20.555   7.645
  922POPC   C1B15391  42.274  21.067   8.628
  922POPC   C2B15392  42.537  20.986   8.318
  922POPC   C3B15393  42.294  20.709   8.088
  922POPC   C4B15394  42.005  20.745   7.754
  923POPC   NC315395  37.573  39.380   9.579
  923POPC   PO415396  38.012  38.995   9.314
  923POPC   GL115397  37.682  39.098   9.097
  923POPC   GL215398  37.768  39.432   9.103
  923POPC   C1A15399  37.373  38.911   8.809
  923POPC   D2A15400  37.333  38.702   8.414
  923POPC   C3A15401  37.683  38.839   8.143
  923POPC   C4A15402  37.655  39.153   7.821
  923POPC   C1B15403  37.936  39.388   8.707
  923POPC   C2B15404  37.935  39.596   8.337
  923POPC   C3B15405  38.012  39.496   7.908
  923POPC   C4B15406  37.773  39.579   7.560
  924POPC   NC315407  29.820  34.335   9.371
  924POPC   PO415408  30.181  34.830   9.461
  924POPC   GL115409  30.073  34.671   9.039
  924POPC   GL215410  30.046  34.295   8.924
  924POPC   C1A15411  29.899  34.690   8.610
  924POPC   D2A15412  30.019  34.502   8.245
  924POPC   C3A15413  29.952  34.668   7.831
  924POPC   C4A15414  29.744  34.810   7.447
  924POPC   C1B15415  29.657  34.226   8.672
  924POPC   C2B15416  29.451  34.195   8.279
  924POPC   C3B15417  29.730  34.199   7.958
  924POPC   C4B15418  29.692  34.316   7.579
  925POPC   NC315419  24.180   9.438   9.506
  925POPC   PO415420  23.586   9.797   9.540
  925POPC   GL115421  23.809   9.738   9.142
  925POPC   GL215422  24.113   9.949   9.068
  925POPC   C1A15423  23.727   9.878   8.715
  925POPC   D2A15424  23.528   9.953   8.329
  925POPC   C3A15425  23.557   9.752   7.932
  925POPC   C4A15426  23.646   9.953   7.529
  925POPC   C1B15427  24.151   9.596   8.775
  925POPC   C2B15428  24.288   9.526   8.341
  925POPC   C3B15429  24.084   9.772   8.009
  925POPC   C4B15430  24.043   9.629   7.562
  926POPC   NC315431  36.643   8.054   9.599
  926POPC   PO415432  37.354   8.204   9.516
  926POPC   GL115433  37.063   8.100   9.173
  926POPC   GL215434  36.754   8.280   9.165
  926POPC   C1A15435  36.978   8.126   8.722
  926POPC   D2A15436  37.020   8.234   8.319
  926POPC   C3A15437  36.832   8.012   8.037
  926POPC   C4A15438  36.927   8.057   7.661
  926POPC   C1B15439  36.550   8.399   8.783
  926POPC   C2B15440  36.657   8.646   8.460
  926POPC   C3B15441  36.606   8.461   8.096
  926POPC   C4B15442  36.575   8.443   7.687
  927POPC   NC315443  29.427  13.934   9.543
  927POPC   PO415444  29.239  13.263   9.601
  927POPC   GL115445  29.143  13.470   9.222
  927POPC   GL215446  29.494  13.398   9.155
  927POPC   C1A15447  28.953  13.370   8.786
  927POPC   D2A15448  29.068  13.592   8.395
  927POPC   C3A15449  28.950  13.516   7.954
  927POPC   C4A15450  28.997  13.872   7.679
  927POPC   C1B15451  29.404  13.653   8.811
  927POPC   C2B15452  29.566  13.717   8.411
  927POPC   C3B15453  29.388  13.825   8.032
  927POPC   C4B15454  29.415  13.551   7.711
  928POPC   NC315455  35.309  28.429   9.479
  928POPC   PO415456  35.074  27.840   9.718
  928POPC   GL115457  34.934  28.128   9.248
  928POPC   GL215458  35.027  28.463   9.078
  928POPC   C1A15459  35.086  28.112   8.735
  928POPC   D2A15460  35.482  28.036   8.560
  928POPC   C3A15461  35.536  28.115   8.113
  928POPC   C4A15462  35.320  28.192   7.701
  928POPC   C1B15463  35.396  28.523   8.801
  928POPC   C2B15464  35.345  28.535   8.367
  928POPC   C3B15465  35.424  28.619   7.940
  928POPC   C4B15466  35.790  28.672   7.685
  929POPC   NC315467   9.182  41.421   9.550
  929POPC   PO415468   8.818  41.980   9.531
  929POPC   GL115469   9.016  41.753   9.183
  929POPC   GL215470   8.855  41.416   9.175
  929POPC   C1A15471   8.911  41.687   8.743
  929POPC   D2A15472   8.912  41.905   8.346
  929POPC   C3A15473   8.917  41.654   8.003
  929POPC   C4A15474   8.874  41.768   7.560
  929POPC   C1B15475   9.056  41.186   8.866
  929POPC   C2B15476   8.911  41.082   8.473
  929POPC   C3B15477   9.055  41.153   8.064
  929POPC   C4B15478   8.863  41.278   7.680
  930POPC   NC315479  31.108  12.255   9.575
  930POPC   PO415480  30.476  12.086   9.593
  930POPC   GL115481  30.729  12.172   9.219
  930POPC   GL215482  30.803  11.895   9.041
  930POPC   C1A15483  30.536  12.228   8.795
  930POPC   D2A15484  30.429  12.098   8.381
  930POPC   C3A15485  30.696  12.165   8.064
  930POPC   C4A15486  30.673  12.219   7.645
  930POPC   C1B15487  30.850  11.848   8.616
  930POPC   C2B15488  30.718  11.669   8.261
  930POPC   C3B15489  30.715  11.710   7.846
  930POPC   C4B15490  31.101  11.951   7.767
  931POPC   NC315491  22.713  30.472   9.543
  931POPC   PO415492  22.085  30.058   9.518
  931POPC   GL115493  22.083  29.932   9.113
  931POPC   GL215494  21.910  29.619   9.117
  931POPC   C1A15495  22.107  30.146   8.691
  931POPC   D2A15496  21.966  30.017   8.277
  931POPC   C3A15497  22.215  29.988   7.901
  931POPC   C4A15498  22.157  30.117   7.469
  931POPC   C1B15499  22.102  29.628   8.691
  931POPC   C2B15500  22.077  29.512   8.250
  931POPC   C3B15501  22.243  29.487   7.829
  931POPC   C4B15502  22.341  29.282   7.452
  932POPC   NC315503  44.137  16.323   9.784
  932POPC   PO415504  44.578  16.809   9.655
  932POPC   GL115505  44.627  16.741   9.222
  932POPC   GL215506  44.847  16.491   9.145
  932POPC   C1A15507  44.521  16.623   8.790
  932POPC   D2A15508  44.399  16.462   8.402
  932POPC   C3A15509  44.527  16.680   8.036
  932POPC   C4A15510  44.815  16.574   7.724
  932POPC   C1B15511   0.068  16.575   8.773
  932POPC   C2B15512   0.068  16.576   8.334
  932POPC   C3B15513  44.980  16.907   8.062
  932POPC   C4B15514   0.116  16.992   7.652
  933POPC   NC315515  41.912   6.309   9.544
  933POPC   PO415516  42.243   6.943   9.388
  933POPC   GL115517  42.295   6.503   9.251
  933POPC   GL215518  42.618   6.322   9.287
  933POPC   C1A15519  42.222   6.416   8.835
  933POPC   D2A15520  42.397   6.695   8.514
  933POPC   C3A15521  42.244   6.767   8.100
  933POPC   C4A15522  42.224   6.565   7.704
  933POPC   C1B15523  42.729   6.490   8.886
  933POPC   C2B15524  42.860   6.372   8.457
  933POPC   C3B15525  42.644   6.439   8.043
  933POPC   C4B15526  42.661   6.244   7.629
  934POPC   NC315527  34.713  36.693   9.833
  934POPC   PO415528  34.425  37.148   9.485
  934POPC   GL115529  34.403  36.917   9.092
  934POPC   GL215530  34.130  36.681   9.131
  934POPC   C1A15531  34.385  37.021   8.635
  934POPC   D2A15532  34.318  37.092   8.172
  934POPC   C3A15533  34.665  37.005   7.907
  934POPC   C4A15534  35.000  36.805   7.686
  934POPC   C1B15535  34.390  36.509   8.757
  934POPC   C2B15536  34.498  36.546   8.305
  934POPC   C3B15537  34.264  36.630   7.917
  934POPC   C4B15538  34.109  36.873   7.574
  935POPC   NC315539   1.417  13.122   9.542
  935POPC   PO415540   1.030  12.571   9.678
  935POPC   GL115541   0.981  12.838   9.323
  935POPC   GL215542   1.296  12.813   9.174
  935POPC   C1A15543   0.883  12.927   8.891
  935POPC   D2A15544   0.972  12.785   8.500
  935POPC   C3A15545   0.941  12.935   8.077
  935POPC   C4A15546   1.007  12.796   7.622
  935POPC   C1B15547   1.413  12.932   8.761
  935POPC   C2B15548   1.421  12.880   8.299
  935POPC   C3B15549   1.457  12.889   7.852
  935POPC   C4B15550   1.771  12.939   7.554
  936POPC   NC315551   4.129  41.589   9.787
  936POPC   PO415552   4.448  41.559   9.181
  936POPC   GL115553   4.174  41.597   8.880
  936POPC   GL215554   4.331  41.937   8.889
  936POPC   C1A15555   4.247  41.377   8.521
  936POPC   D2A15556   4.454  41.422   8.167
  936POPC   C3A15557   4.226  41.240   7.832
  936POPC   C4A15558   4.168  41.175   7.376
  936POPC   C1B15559   4.524  41.823   8.523
  936POPC   C2B15560   4.175  41.830   8.257
  936POPC   C3B15561   4.241  41.793   7.852
  936POPC   C4B15562   4.239  41.671   7.459
  937POPC   NC315563  21.922   4.853   9.524
  937POPC   PO415564  22.530   5.158   9.532
  937POPC   GL115565  22.243   5.201   9.187
  937POPC   GL215566  22.189   4.885   9.093
  937POPC   C1A15567  22.356   5.211   8.756
  937POPC   D2A15568  22.177   5.142   8.396
  937POPC   C3A15569  22.481   5.228   8.104
  937POPC   C4A15570  22.393   5.066   7.734
  937POPC   C1B15571  22.008   4.715   8.708
  937POPC   C2B15572  21.765   4.849   8.357
  937POPC   C3B15573  21.969   4.727   7.990
  937POPC   C4B15574  21.841   4.813   7.588
  938POPC   NC315575  19.456  38.763   9.440
  938POPC   PO415576  20.080  38.507   9.494
  938POPC   GL115577  19.917  38.476   9.103
  938POPC   GL215578  19.610  38.393   9.139
  938POPC   C1A15579  19.888  38.483   8.685
  938POPC   D2A15580  20.112  38.650   8.347
  938POPC   C3A15581  19.912  38.449   8.022
  938POPC   C4A15582  20.010  38.530   7.589
  938POPC   C1B15583  19.441  38.261   8.805
  938POPC   C2B15584  19.575  38.162   8.432
  938POPC   C3B15585  19.404  38.277   8.073
  938POPC   C4B15586  19.487  38.492   7.729
  939POPC   NC315587  13.589  11.755   9.515
  939POPC   PO415588  13.791  11.080   9.439
  939POPC   GL115589  13.654  11.353   9.161
  939POPC   GL215590  13.923  11.555   9.164
  939POPC   C1A15591  13.471  11.337   8.772
  939POPC   D2A15592  13.566  11.085   8.414
  939POPC   C3A15593  13.561  11.271   8.060
  939POPC   C4A15594  13.819  11.195   7.768
  939POPC   C1B15595  13.851  11.750   8.787
  939POPC   C2B15596  13.667  11.642   8.386
  939POPC   C3B15597  13.869  11.676   7.959
  939POPC   C4B15598  13.776  11.602   7.480
  940POPC   NC315599  12.506  22.552   9.691
  940POPC   PO415600  12.841  23.235   9.588
  940POPC   GL115601  12.996  23.088   9.118
  940POPC   GL215602  13.195  22.776   9.061
  940POPC   C1A15603  12.783  22.793   8.768
  940POPC   D2A15604  12.547  22.911   8.408
  940POPC   C3A15605  12.682  22.781   8.018
  940POPC   C4A15606  12.474  22.910   7.667
  940POPC   C1B15607  13.365  22.597   8.745
  940POPC   C2B15608  13.292  22.443   8.368
  940POPC   C3B15609  13.267  22.618   7.976
  940POPC   C4B15610  13.067  22.815   7.662
  941POPC   NC315611  36.001  26.153   9.500
  941POPC   PO415612  36.576  25.675   9.382
  941POPC   GL115613  36.265  25.874   9.065
  941POPC   GL215614  36.166  26.230   9.035
  941POPC   C1A15615  36.096  25.806   8.667
  941POPC   D2A15616  35.845  25.724   8.312
  941POPC   C3A15617  36.064  25.892   7.974
  941POPC   C4A15618  36.486  25.858   7.852
  941POPC   C1B15619  36.176  26.332   8.634
  941POPC   C2B15620  36.366  26.139   8.322
  941POPC   C3B15621  36.447  26.359   7.986
  941POPC   C4B15622  36.124  26.541   7.751
  942POPC   NC315623   1.925  31.817   9.381
  942POPC   PO415624   1.771  31.208   9.410
  942POPC   GL115625   1.980  31.456   9.055
  942POPC   GL215626   2.120  31.265   8.877
  942POPC   C1A15627   1.940  31.634   8.589
  942POPC   D2A15628   2.136  31.537   8.161
  942POPC   C3A15629   1.957  31.741   7.773
  942POPC   C4A15630   1.704  31.706   7.399
  942POPC   C1B15631   1.594  31.288   8.804
  942POPC   C2B15632   1.407  31.303   8.423
  942POPC   C3B15633   1.617  31.437   8.095
  942POPC   C4B15634   1.527  31.342   7.698
  943POPC   NC315635  27.132   7.623   9.703
  943POPC   PO415636  26.775   7.065   9.462
  943POPC   GL115637  26.985   7.221   9.091
  943POPC   GL215638  27.365   7.166   9.122
  943POPC   C1A15639  26.768   7.349   8.694
  943POPC   D2A15640  26.442   7.144   8.434
  943POPC   C3A15641  26.576   7.203   8.027
  943POPC   C4A15642  26.752   7.053   7.660
  943POPC   C1B15643  27.290   7.221   8.656
  943POPC   C2B15644  27.183   7.575   8.392
  943POPC   C3B15645  27.003   7.520   8.000
  943POPC   C4B15646  27.241   7.301   7.680
  944POPC   NC315647  43.596  26.792   9.525
  944POPC   PO415648  44.226  26.545   9.422
  944POPC   GL115649  43.943  26.687   9.127
  944POPC   GL215650  43.869  27.023   9.175
  944POPC   C1A15651  44.006  26.854   8.717
  944POPC   D2A15652  44.173  26.991   8.346
  944POPC   C3A15653  43.936  26.850   8.006
  944POPC   C4A15654  43.969  26.673   7.638
  944POPC   C1B15655  43.550  27.064   8.815
  944POPC   C2B15656  43.592  26.955   8.367
  944POPC   C3B15657  43.592  27.212   7.975
  944POPC   C4B15658  43.766  27.147   7.528
  945POPC   NC315659   2.168  24.043   9.535
  945POPC   PO415660   1.746  23.491   9.531
  945POPC   GL115661   1.876  23.788   9.179
  945POPC   GL215662   2.271  23.879   9.080
  945POPC   C1A15663   1.920  23.703   8.738
  945POPC   D2A15664   1.887  23.447   8.360
  945POPC   C3A15665   1.959  23.683   7.980
  945POPC   C4A15666   1.765  23.696   7.593
  945POPC   C1B15667   2.403  24.075   8.711
  945POPC   C2B15668   2.224  23.965   8.352
  945POPC   C3B15669   2.309  24.064   7.943
  945POPC   C4B15670   2.233  23.894   7.537
  946POPC   NC315671  44.823  10.285   9.625
  946POPC   PO415672   0.078  10.953   9.582
  946POPC   GL115673  44.758  10.810   9.233
  946POPC   GL215674  44.401  10.717   9.322
  946POPC   C1A15675  44.637  10.491   8.901
  946POPC   D2A15676  44.797  10.339   8.474
  946POPC   C3A15677  44.571  10.388   8.083
  946POPC   C4A15678  44.411  10.193   7.696
  946POPC   C1B15679  44.304  10.868   8.886
  946POPC   C2B15680  44.547  10.874   8.509
  946POPC   C3B15681  44.421  10.917   8.085
  946POPC   C4B15682  44.590  10.734   7.727
  947POPC   NC315683  15.370  18.727   9.343
  947POPC   PO415684  15.333  19.374   9.458
  947POPC   GL115685  15.212  19.154   9.116
  947POPC   GL215686  14.839  19.094   9.146
  947POPC   C1A15687  15.363  18.998   8.720
  947POPC   D2A15688  15.341  19.282   8.391
  947POPC   C3A15689  15.393  19.088   8.007
  947POPC   C4A15690  15.206  18.837   7.710
  947POPC   C1B15691  14.929  19.361   8.754
  947POPC   C2B15692  14.808  19.355   8.305
  947POPC   C3B15693  14.842  18.998   8.051
  947POPC   C4B15694  14.702  18.840   7.677
  948POPC   NC315695  42.756   4.264   9.579
  948POPC   PO415696  43.295   4.636   9.413
  948POPC   GL115697  43.018   4.539   9.095
  948POPC   GL215698  42.907   4.193   9.082
  948POPC   C1A15699  43.092   4.549   8.661
  948POPC   D2A15700  42.931   4.556   8.248
  948POPC   C3A15701  43.180   4.465   7.921
  948POPC   C4A15702  43.315   4.083   7.722
  948POPC   C1B15703  42.980   4.057   8.654
  948POPC   C2B15704  43.047   4.039   8.212
  948POPC   C3B15705  42.812   4.113   7.848
  948POPC   C4B15706  42.849   3.890   7.452
  949POPC   NC315707  26.474  35.424   9.517
  949POPC   PO415708  26.981  34.960   9.321
  949POPC   GL115709  26.820  35.361   9.120
  949POPC   GL215710  27.124  35.461   8.913
  949POPC   C1A15711  26.630  35.651   8.809
  949POPC   D2A15712  26.748  35.768   8.375
  949POPC   C3A15713  26.534  35.708   7.977
  949POPC   C4A15714  26.718  35.521   7.610
  949POPC   C1B15715  27.127  35.069   8.677
  949POPC   C2B15716  26.996  35.054   8.266
  949POPC   C3B15717  27.053  35.400   7.991
  949POPC   C4B15718  27.127  35.173   7.641
  950POPC   NC315719  41.070  22.974   9.425
  950POPC   PO415720  40.446  22.572   9.547
  950POPC   GL115721  40.645  22.804   9.193
  950POPC   GL215722  40.956  22.754   8.992
  950POPC   C1A15723  40.623  23.100   8.834
  950POPC   D2A15724  40.850  22.926   8.452
  950POPC   C3A15725  40.716  23.161   8.112
  950POPC   C4A15726  40.610  23.344   7.739
  950POPC   C1B15727  40.569  22.617   8.749
  950POPC   C2B15728  40.399  22.659   8.366
  950POPC   C3B15729  40.626  22.672   7.978
  950POPC   C4B15730  40.624  22.844   7.553
  951POPC   NC315731  36.839  17.017   9.318
  951POPC   PO415732  36.852  16.407   9.602
  951POPC   GL115733  36.862  16.472   9.158
  951POPC   GL215734  36.619  16.263   9.041
  951POPC   C1A15735  36.892  16.677   8.734
  951POPC   D2A15736  37.113  16.535   8.352
  951POPC   C3A15737  37.069  16.718   7.932
  951POPC   C4A15738  37.310  17.012   7.708
  951POPC   C1B15739  36.461  16.335   8.683
  951POPC   C2B15740  36.597  16.532   8.327
  951POPC   C3B15741  36.666  16.414   7.933
  951POPC   C4B15742  36.582  16.707   7.588
  952POPC   NC315743  11.314  42.690   9.643
  952POPC   PO415744  11.177  43.358   9.733
  952POPC   GL115745  11.328  43.118   9.334
  952POPC   GL215746  11.112  42.828   9.208
  952POPC   C1A15747  11.495  42.946   8.902
  952POPC   D2A15748  11.293  42.878   8.503
  952POPC   C3A15749  11.504  42.972   8.118
  952POPC   C4A15750  11.279  43.133   7.795
  952POPC   C1B15751  11.005  43.197   8.930
  952POPC   C2B15752  10.832  43.204   8.504
  952POPC   C3B15753  10.748  43.257   8.057
  952POPC   C4B15754  10.927  43.529   7.753
  953POPC   NC315755   0.186  19.968   9.378
  953POPC   PO415756   0.824  19.810   9.443
  953POPC   GL115757   0.552  19.794   9.102
  953POPC   GL215758   0.487  19.487   9.077
  953POPC   C1A15759   0.314  19.765   8.683
  953POPC   D2A15760   0.505  19.807   8.267
  953POPC   C3A15761   0.253  20.031   8.001
  953POPC   C4A15762   0.175  20.071   7.565
  953POPC   C1B15763   0.790  19.607   8.714
  953POPC   C2B15764   0.938  19.491   8.337
  953POPC   C3B15765   0.712  19.418   7.985
  953POPC   C4B15766   0.571  19.760   7.702
  954POPC   NC315767  34.020  27.252   9.470
  954POPC   PO415768  33.391  27.554   9.459
  954POPC   GL115769  33.713  27.690   9.147
  954POPC   GL215770  34.043  27.540   9.048
  954POPC   C1A15771  33.787  27.868   8.752
  954POPC   D2A15772  33.955  27.601   8.487
  954POPC   C3A15773  33.933  27.728   8.093
  954POPC   C4A15774  33.865  27.640   7.684
  954POPC   C1B15775  34.228  27.244   8.737
  954POPC   C2B15776  34.121  27.139   8.322
  954POPC   C3B15777  34.108  27.257   7.913
  954POPC   C4B15778  34.164  27.267   7.459
  955POPC   NC315779  15.518  28.351   9.645
  955POPC   PO415780  15.066  28.082   9.272
  955POPC   GL115781  15.382  28.309   9.138
  955POPC   GL215782  15.165  28.584   9.017
  955POPC   C1A15783  15.445  28.239   8.716
  955POPC   D2A15784  15.308  28.548   8.432
  955POPC   C3A15785  15.304  28.446   8.006
  955POPC   C4A15786  15.340  28.120   7.736
  955POPC   C1B15787  14.906  28.785   8.672
  955POPC   C2B15788  14.926  28.766   8.181
  955POPC   C3B15789  14.840  28.535   7.780
  955POPC   C4B15790  14.835  28.722   7.366
  956POPC   NC315791  43.957  21.725   9.980
  956POPC   PO415792  43.671  22.165   9.553
  956POPC   GL115793  43.887  22.263   9.203
  956POPC   GL215794  44.239  22.304   9.265
  956POPC   C1A15795  43.837  22.121   8.796
  956POPC   D2A15796  43.613  22.224   8.424
  956POPC   C3A15797  43.746  22.036   8.071
  956POPC   C4A15798  43.891  22.156   7.671
  956POPC   C1B15799  44.140  22.570   8.897
  956POPC   C2B15800  44.066  22.452   8.474
  956POPC   C3B15801  44.155  22.370   8.056
  956POPC   C4B15802  44.357  22.376   7.651
  957POPC   NC315803   0.574  12.622   9.603
  957POPC   PO415804   0.228  13.138   9.488
  957POPC   GL115805   0.473  12.904   9.176
  957POPC   GL215806   0.430  12.517   9.127
  957POPC   C1A15807   0.388  12.885   8.742
  957POPC   D2A15808   0.309  13.164   8.443
  957POPC   C3A15809   0.442  13.055   8.091
  957POPC   C4A15810   0.577  13.058   7.718
  957POPC   C1B15811   0.646  12.444   8.725
  957POPC   C2B15812   0.558  12.591   8.282
  957POPC   C3B15813   0.618  12.546   7.829
  957POPC   C4B15814   0.730  12.411   7.398
  958POPC   NC315815  13.027   6.010   9.447
  958POPC   PO415816  12.574   5.665   9.550
  958POPC   GL115817  12.723   5.803   9.099
  958POPC   GL215818  12.809   6.179   9.032
  958POPC   C1A15819  12.843   5.820   8.644
  958POPC   D2A15820  13.061   5.873   8.247
  958POPC   C3A15821  12.852   5.773   7.878
  958POPC   C4A15822  13.015   5.783   7.435
  958POPC   C1B15823  12.559   6.274   8.685
  958POPC   C2B15824  12.640   6.147   8.281
  958POPC   C3B15825  12.891   6.269   7.960
  958POPC   C4B15826  12.822   6.583   7.693
  959POPC   NC315827  10.784   7.666   9.894
  959POPC   PO415828  10.458   8.091   9.467
  959POPC   GL115829  10.482   8.158   9.084
  959POPC   GL215830  10.853   8.211   9.054
  959POPC   C1A15831  10.490   8.314   8.698
  959POPC   D2A15832  10.540   8.500   8.355
  959POPC   C3A15833  10.486   8.275   8.011
  959POPC   C4A15834  10.784   8.398   7.714
  959POPC   C1B15835  10.741   7.881   8.711
  959POPC   C2B15836  10.793   7.921   8.266
  959POPC   C3B15837  10.757   7.876   7.824
  959POPC   C4B15838  10.456   7.815   7.481
  960POPC   NC315839  19.725  17.815   9.275
  960POPC   PO415840  19.741  17.146   9.425
  960POPC   GL115841  19.868  17.272   9.028
  960POPC   GL215842  20.140  17.491   9.052
  960POPC   C1A15843  19.805  17.487   8.641
  960POPC   D2A15844  19.961  17.454   8.237
  960POPC   C3A15845  19.686  17.650   7.938
  960POPC   C4A15846  19.668  17.808   7.490
  960POPC   C1B15847  20.292  17.270   8.694
  960POPC   C2B15848  20.410  17.127   8.300
  960POPC   C3B15849  20.198  17.149   7.908
  960POPC   C4B15850  20.008  17.401   7.582
  961POPC   NC315851   5.802  12.557   9.471
  961POPC   PO415852   6.238  13.035   9.569
  961POPC   GL115853   5.937  13.002   9.216
  961POPC   GL215854   5.586  12.997   9.239
  961POPC   C1A15855   5.898  12.812   8.799
  961POPC   D2A15856   5.918  12.932   8.341
  961POPC   C3A15857   5.747  12.665   8.009
  961POPC   C4A15858   5.970  12.824   7.665
  961POPC   C1B15859   5.402  12.937   8.845
  961POPC   C2B15860   5.439  12.851   8.423
  961POPC   C3B15861   5.396  13.012   8.029
  961POPC   C4B15862   5.470  12.951   7.580
  962POPC   NC315863  44.311   0.679   9.654
  962POPC   PO415864  44.870   0.287   9.549
  962POPC   GL115865  44.651   0.397   9.190
  962POPC   GL215866  44.565   0.741   9.223
  962POPC   C1A15867  44.752   0.445   8.763
  962POPC   D2A15868  44.559   0.499   8.362
  962POPC   C3A15869  44.810   0.396   7.994
  962POPC   C4A15870  44.868   0.520   7.570
  962POPC   C1B15871  44.430   0.892   8.848
  962POPC   C2B15872  44.461   1.001   8.446
  962POPC   C3B15873  44.405   0.846   8.029
  962POPC   C4B15874  44.388   0.532   7.751
  963POPC   NC315875   1.533  10.128   9.553
  963POPC   PO415876   0.984  10.536   9.501
  963POPC   GL115877   1.200  10.480   9.120
  963POPC   GL215878   0.951  10.250   9.052
  963POPC   C1A15879   1.496  10.469   8.742
  963POPC   D2A15880   1.355  10.499   8.308
  963POPC   C3A15881   1.561  10.423   7.922
  963POPC   C4A15882   1.341  10.536   7.552
  963POPC   C1B15883   1.030  10.255   8.634
  963POPC   C2B15884   0.845  10.418   8.284
  963POPC   C3B15885   0.945  10.434   7.861
  963POPC   C4B15886   0.895  10.293   7.441
  964POPC   NC315887   5.802  43.420   9.582
  964POPC   PO415888   5.810  42.753   9.478
  964POPC   GL115889   5.742  43.099   9.161
  964POPC   GL215890   6.062  43.297   9.158
  964POPC   C1A15891   5.739  43.237   8.704
  964POPC   D2A15892   5.708  43.376   8.243
  964POPC   C3A15893   5.715  43.086   7.868
  964POPC   C4A15894   5.710  43.023   7.417
  964POPC   C1B15895   6.249  43.270   8.753
  964POPC   C2B15896   6.167  43.153   8.339
  964POPC   C3B15897   6.198  43.243   7.902
  964POPC   C4B15898   6.027  43.452   7.528
  965POPC   NC315899   7.071  42.876   9.914
  965POPC   PO415900   7.435  43.182   9.318
  965POPC   GL115901   7.349  43.241   8.921
  965POPC   GL215902   7.002  43.185   9.068
  965POPC   C1A15903   7.498  43.012   8.545
  965POPC   D2A15904   7.610  42.628   8.305
  965POPC   C3A15905   7.775  42.776   7.902
  965POPC   C4A15906   7.531  43.126   7.847
  965POPC   C1B15907   7.075  42.836   8.780
  965POPC   C2B15908   7.068  42.734   8.334
  965POPC   C3B15909   7.051  42.956   7.940
  965POPC   C4B15910   7.150  43.045   7.507
  966POPC   NC315911   0.118   9.739   9.422
  966POPC   PO415912   0.742   9.630   9.570
  966POPC   GL115913   0.567   9.609   9.167
  966POPC   GL215914   0.548   9.928   9.110
  966POPC   C1A15915   0.293   9.635   8.756
  966POPC   D2A15916   0.106   9.903   8.396
  966POPC   C3A15917   0.236   9.848   7.949
  966POPC   C4A15918   0.328   9.935   7.525
  966POPC   C1B15919   0.573  10.058   8.701
  966POPC   C2B15920   0.619   9.973   8.266
  966POPC   C3B15921   0.753   9.932   7.833
  966POPC   C4B15922   0.856   9.507   7.680
  967POPC   NC315923  41.910  25.466   9.468
  967POPC   PO415924  41.459  24.916   9.405
  967POPC   GL115925  41.606  25.208   9.144
  967POPC   GL215926  41.297  25.403   9.101
  967POPC   C1A15927  41.641  25.109   8.726
  967POPC   D2A15928  41.487  24.917   8.356
  967POPC   C3A15929  41.600  25.133   7.972
  967POPC   C4A15930  41.386  25.313   7.635
  967POPC   C1B15931  41.573  25.625   8.823
  967POPC   C2B15932  41.781  25.688   8.453
  967POPC   C3B15933  41.656  25.751   8.025
  967POPC   C4B15934  41.848  25.536   7.692
  968POPC   NC315935  43.586  17.804   9.396
  968POPC   PO415936  44.058  17.356   9.486
  968POPC   GL115937  43.914  17.472   9.113
  968POPC   GL215938  44.190  17.701   9.112
  968POPC   C1A15939  44.052  17.382   8.694
  968POPC   D2A15940  44.137  17.601   8.325
  968POPC   C3A15941  43.938  17.430   7.957
  968POPC   C4A15942  44.037  17.115   7.655
  968POPC   C1B15943  43.915  17.874   8.794
  968POPC   C2B15944  43.739  17.977   8.412
  968POPC   C3B15945  43.955  17.975   8.037
  968POPC   C4B15946  43.714  17.846   7.727
  969POPC   NC315947  38.178  24.073   9.479
  969POPC   PO415948  38.756  23.809   9.577
  969POPC   GL115949  38.551  23.808   9.154
  969POPC   GL215950  38.198  23.878   9.017
  969POPC   C1A15951  38.577  23.799   8.700
  969POPC   D2A15952  38.818  23.900   8.350
  969POPC   C3A15953  38.533  23.869   7.974
  969POPC   C4A15954  38.567  23.749   7.521
  969POPC   C1B15955  38.071  23.517   8.765
  969POPC   C2B15956  38.220  23.432   8.381
  969POPC   C3B15957  38.166  23.525   7.980
  969POPC   C4B15958  38.074  23.589   7.557
  970POPC   NC315959  42.572  37.521   9.497
  970POPC   PO415960  41.875  37.448   9.393
  970POPC   GL115961  42.150  37.627   9.116
  970POPC   GL215962  42.366  37.339   9.074
  970POPC   C1A15963  42.120  37.918   8.763
  970POPC   D2A15964  42.090  38.105   8.324
  970POPC   C3A15965  42.152  37.834   7.954
  970POPC   C4A15966  42.405  37.834   7.563
  970POPC   C1B15967  42.539  37.620   8.778
  970POPC   C2B15968  42.427  37.712   8.365
  970POPC   C3B15969  42.592  37.584   7.966
  970POPC   C4B15970  42.748  37.454   7.573
  971POPC   NC315971  40.232  31.746   9.367
  971POPC   PO415972  40.012  31.144   9.413
  971POPC   GL115973  40.087  31.370   9.049
  971POPC   GL215974  39.840  31.645   9.080
  971POPC   C1A15975  40.167  31.558   8.651
  971POPC   D2A15976  40.228  31.394   8.244
  971POPC   C3A15977  40.378  31.588   7.852
  971POPC   C4A15978  40.322  31.373   7.397
  971POPC   C1B15979  39.672  31.462   8.749
  971POPC   C2B15980  39.696  31.638   8.352
  971POPC   C3B15981  39.786  31.472   7.968
  971POPC   C4B15982  39.949  31.651   7.629
  972POPC   NC315983  13.148  14.338   9.508
  972POPC   PO415984  12.490  14.327   9.648
  972POPC   GL115985  12.758  14.326   9.204
  972POPC   GL215986  13.073  14.554   9.059
  972POPC   C1A15987  12.657  14.371   8.777
  972POPC   D2A15988  12.874  14.607   8.455
  972POPC   C3A15989  12.724  14.489   8.049
  972POPC   C4A15990  12.898  14.532   7.651
  972POPC   C1B15991  13.132  14.235   8.788
  972POPC   C2B15992  12.969  14.114   8.364
  972POPC   C3B15993  13.082  14.159   7.961
  972POPC   C4B15994  13.226  14.156   7.559
  973POPC   NC315995  21.342   1.776   9.386
  973POPC   PO415996  21.281   2.358   9.740
  973POPC   GL115997  21.420   2.249   9.186
  973POPC   GL215998  21.232   1.965   8.927
  973POPC   C1A15999  21.613   2.192   8.761
  973POPC   D2A16000  21.267   2.211   8.443
  973POPC   C3A16001  21.416   1.993   8.102
  973POPC   C4A16002  21.725   2.224   7.827
  973POPC   C1B16003  21.393   1.730   8.592
  973POPC   C2B16004  21.312   1.468   8.248
  973POPC   C3B16005  21.186   1.591   7.850
  973POPC   C4B16006  21.536   1.769   7.632
  974POPC   NC316007  17.788  35.422   9.571
  974POPC   PO416008  18.328  35.455   9.807
  974POPC   GL116009  18.302  35.374   9.337
  974POPC   GL216010  18.435  35.048   9.221
  974POPC   C1A16011  18.341  35.558   8.897
  974POPC   D2A16012  18.412  35.512   8.433
  974POPC   C3A16013  18.114  35.686   8.101
  974POPC   C4A16014  18.236  35.640   7.666
  974POPC   C1B16015  18.579  35.113   8.768
  974POPC   C2B16016  18.785  35.134   8.339
  974POPC   C3B16017  18.697  34.981   7.867
  974POPC   C4B16018  18.439  35.082   7.495
  975POPC   NC316019  22.690  43.247   9.900
  975POPC   PO416020  22.673  43.087   9.284
  975POPC   GL116021  23.124  43.137   9.188
  975POPC   GL216022  23.269  43.486   9.081
  975POPC   C1A16023  23.296  43.050   8.799
  975POPC   D2A16024  23.215  43.288   8.423
  975POPC   C3A16025  23.196  43.051   8.069
  975POPC   C4A16026  22.897  42.805   7.876
  975POPC   C1B16027  22.946  43.562   8.764
  975POPC   C2B16028  22.863  43.710   8.384
  975POPC   C3B16029  22.925  43.522   8.025
  975POPC   C4B16030  22.994  43.297   7.663
  976POPC   NC316031  30.433  25.891   9.399
  976POPC   PO416032  31.007  26.244   9.533
  976POPC   GL116033  30.802  26.156   9.148
  976POPC   GL216034  30.804  25.794   9.044
  976POPC   C1A16035  30.962  26.219   8.755
  976POPC   D2A16036  30.979  25.965   8.381
  976POPC   C3A16037  31.035  26.156   7.975
  976POPC   C4A16038  30.708  26.105   7.677
  976POPC   C1B16039  30.514  25.940   8.730
  976POPC   C2B16040  30.265  25.978   8.357
  976POPC   C3B16041  30.264  26.166   7.922
  976POPC   C4B16042  30.280  26.120   7.402
  977POPC   NC316043   0.009  27.506   9.734
  977POPC   PO416044   0.591  27.853   9.735
  977POPC   GL116045   0.545  27.702   9.267
  977POPC   GL216046   0.263  27.599   9.134
  977POPC   C1A16047   0.637  27.652   8.805
  977POPC   D2A16048   0.695  27.850   8.382
  977POPC   C3A16049   0.550  27.610   8.008
  977POPC   C4A16050   0.783  27.236   7.868
  977POPC   C1B16051   0.074  27.684   8.741
  977POPC   C2B16052   0.180  27.790   8.352
  977POPC   C3B16053  44.996  27.567   8.057
  977POPC   C4B16054   0.006  27.514   7.647
  978POPC   NC316055  16.394   5.508   9.518
  978POPC   PO416056  15.813   5.530   9.481
  978POPC   GL116057  15.777   5.708   9.081
  978POPC   GL216058  16.133   5.635   9.058
  978POPC   C1A16059  15.849   5.575   8.639
  978POPC   D2A16060  15.926   5.851   8.265
  978POPC   C3A16061  15.836   5.698   7.824
  978POPC   C4A16062  16.001   5.645   7.377
  978POPC   C1B16063  16.113   6.001   8.763
  978POPC   C2B16064  16.262   6.220   8.399
  978POPC   C3B16065  16.163   6.185   7.941
  978POPC   C4B16066  16.303   6.041   7.505
  979POPC   NC316067   3.985  14.616   9.430
  979POPC   PO416068   4.572  14.261   9.606
  979POPC   GL116069   4.335  14.246   9.211
  979POPC   GL216070   4.392  14.600   9.127
  979POPC   C1A16071   4.226  14.181   8.758
  979POPC   D2A16072   4.012  14.299   8.364
  979POPC   C3A16073   4.292  14.268   7.999
  979POPC   C4A16074   4.308  14.394   7.547
  979POPC   C1B16075   4.685  14.406   8.851
  979POPC   C2B16076   4.639  14.271   8.411
  979POPC   C3B16077   4.718  14.513   8.025
  979POPC   C4B16078   4.807  14.487   7.593
  980POPC   NC316079  32.550  37.657   9.385
  980POPC   PO416080  31.970  37.393   9.675
  980POPC   GL116081  32.082  37.508   9.253
  980POPC   GL216082  32.065  37.864   9.200
  980POPC   C1A16083  32.128  37.363   8.827
  980POPC   D2A16084  31.987  37.247   8.401
  980POPC   C3A16085  32.214  37.383   8.076
  980POPC   C4A16086  32.532  37.361   7.753
  980POPC   C1B16087  32.049  37.872   8.729
  980POPC   C2B16088  32.229  37.899   8.307
  980POPC   C3B16089  32.346  37.825   7.866
  980POPC   C4B16090  32.516  37.967   7.455
  981POPC   NC316091  22.586  38.782   9.254
  981POPC   PO416092  23.203  39.015   9.492
  981POPC   GL116093  23.144  39.299   9.130
  981POPC   GL216094  22.817  39.251   9.200
  981POPC   C1A16095  23.225  39.495   8.717
  981POPC   D2A16096  23.313  39.298   8.308
  981POPC   C3A16097  23.227  39.527   7.901
  981POPC   C4A16098  22.951  39.456   7.522
  981POPC   C1B16099  22.743  39.268   8.785
  981POPC   C2B16100  22.615  39.410   8.392
  981POPC   C3B16101  22.801  39.270   8.017
  981POPC   C4B16102  22.782  38.988   7.675
  982POPC   NC316103  20.157  39.407   9.445
  982POPC   PO416104  19.427  39.259   9.405
  982POPC   GL116105  19.789  39.290   9.115
  982POPC   GL216106  20.048  38.989   9.160
  982POPC   C1A16107  19.903  39.485   8.701
  982POPC   D2A16108  19.647  39.594   8.312
  982POPC   C3A16109  19.768  39.405   7.897
  982POPC   C4A16110  19.709  39.157   7.498
  982POPC   C1B16111  19.883  38.976   8.728
  982POPC   C2B16112  19.880  39.117   8.307
  982POPC   C3B16113  20.018  38.940   7.915
  982POPC   C4B16114  20.193  39.029   7.518
  983POPC   NC316115   6.273   3.574   9.444
  983POPC   PO416116   5.684   3.694   9.416
  983POPC   GL116117   5.900   3.529   9.058
  983POPC   GL216118   6.245   3.367   8.970
  983POPC   C1A16119   5.924   3.777   8.709
  983POPC   D2A16120   5.968   4.038   8.359
  983POPC   C3A16121   5.647   3.877   8.074
  983POPC   C4A16122   5.638   3.693   7.708
  983POPC   C1B16123   6.279   3.046   8.631
  983POPC   C2B16124   6.562   3.059   8.247
  983POPC   C3B16125   6.474   3.245   7.833
  983POPC   C4B16126   6.068   3.466   7.854
  984POPC   NC316127  22.733  15.533   9.600
  984POPC   PO416128  23.341  15.377   9.467
  984POPC   GL116129  23.136  15.215   9.151
  984POPC   GL216130  22.792  15.360   9.123
  984POPC   C1A16131  23.106  15.096   8.753
  984POPC   D2A16132  22.984  15.249   8.382
  984POPC   C3A16133  23.245  15.112   8.054
  984POPC   C4A16134  23.116  14.985   7.667
  984POPC   C1B16135  22.587  15.172   8.744
  984POPC   C2B16136  22.499  15.127   8.298
  984POPC   C3B16137  22.751  15.260   7.925
  984POPC   C4B16138  22.853  15.517   7.589
  985POPC   NC316139   9.268  12.969   9.799
  985POPC   PO416140   8.667  13.007   9.649
  985POPC   GL116141   8.806  12.735   9.267
  985POPC   GL216142   9.147  12.558   9.317
  985POPC   C1A16143   8.934  12.807   8.811
  985POPC   D2A16144   9.237  12.900   8.448
  985POPC   C3A16145   8.986  12.928   8.056
  985POPC   C4A16146   8.879  13.010   7.635
  985POPC   C1B16147   9.092  12.346   8.917
  985POPC   C2B16148   9.145  12.397   8.492
  985POPC   C3B16149   9.210  12.487   8.081
  985POPC   C4B16150   9.054  12.524   7.686
  986POPC   NC316151  23.954  37.608   9.297
  986POPC   PO416152  24.587  37.422   9.425
  986POPC   GL116153  24.433  37.681   9.087
  986POPC   GL216154  24.259  37.410   8.961
  986POPC   C1A16155  24.420  37.805   8.634
  986POPC   D2A16156  24.669  37.959   8.274
  986POPC   C3A16157  24.706  37.730   7.856
  986POPC   C4A16158  24.650  37.817   7.417
  986POPC   C1B16159  23.938  37.347   8.708
  986POPC   C2B16160  24.174  37.335   8.365
  986POPC   C3B16161  24.263  37.633   8.077
  986POPC   C4B16162  24.310  37.487   7.641
  987POPC   NC316163  44.665   3.035   9.560
  987POPC   PO416164  44.836   2.492   9.239
  987POPC   GL116165  44.503   2.685   9.074
  987POPC   GL216166  44.531   3.093   9.090
  987POPC   C1A16167  44.494   2.517   8.650
  987POPC   D2A16168  44.221   2.584   8.317
  987POPC   C3A16169  44.439   2.627   7.963
  987POPC   C4A16170  44.852   2.704   7.868
  987POPC   C1B16171  44.547   3.008   8.697
  987POPC   C2B16172  44.747   2.924   8.344
  987POPC   C3B16173  44.601   3.115   8.003
  987POPC   C4B16174  44.383   3.040   7.665
  988POPC   NC316175  41.242   9.977   9.556
  988POPC   PO416176  40.581   9.843   9.678
  988POPC   GL116177  40.778   9.853   9.247
  988POPC   GL216178  41.090   9.675   9.156
  988POPC   C1A16179  40.716  10.003   8.814
  988POPC   D2A16180  40.725   9.818   8.402
  988POPC   C3A16181  40.772   9.930   7.966
  988POPC   C4A16182  40.571   9.857   7.557
  988POPC   C1B16183  41.194   9.812   8.708
  988POPC   C2B16184  41.214   9.900   8.269
  988POPC   C3B16185  41.254  10.040   7.878
  988POPC   C4B16186  41.054   9.916   7.456
  989POPC   NC316187  37.201  22.046   9.514
  989POPC   PO416188  36.720  22.524   9.521
  989POPC   GL116189  36.883  22.281   9.122
  989POPC   GL216190  36.894  21.933   9.129
  989POPC   C1A16191  37.114  22.293   8.746
  989POPC   D2A16192  36.997  22.531   8.371
  989POPC   C3A16193  36.837  22.300   8.017
  989POPC   C4A16194  37.084  22.237   7.673
  989POPC   C1B16195  37.063  21.766   8.759
  989POPC   C2B16196  37.020  21.964   8.366
  989POPC   C3B16197  37.088  21.814   7.970
  989POPC   C4B16198  36.778  21.838   7.686
  990POPC   NC316199  28.033  27.276   9.475
  990POPC   PO416200  28.234  27.890   9.746
  990POPC   GL116201  28.267  27.699   9.269
  990POPC   GL216202  28.623  27.701   9.139
  990POPC   C1A16203  28.331  27.410   8.855
  990POPC   D2A16204  28.547  27.356   8.451
  990POPC   C3A16205  28.394  27.627   8.111
  990POPC   C4A16206  28.204  27.612   7.683
  990POPC   C1B16207  28.586  27.979   8.791
  990POPC   C2B16208  28.645  28.039   8.341
  990POPC   C3B16209  28.709  28.084   7.903
  990POPC   C4B16210  28.567  27.911   7.492
  991POPC   NC316211   4.712  19.033   9.296
  991POPC   PO416212   3.991  19.109   9.433
  991POPC   GL116213   4.253  19.157   9.102
  991POPC   GL216214   4.270  18.791   9.114
  991POPC   C1A16215   4.423  19.053   8.680
  991POPC   D2A16216   4.325  19.144   8.247
  991POPC   C3A16217   4.528  18.937   7.884
  991POPC   C4A16218   4.442  18.819   7.416
  991POPC   C1B16219   3.949  18.913   8.779
  991POPC   C2B16220   3.852  18.924   8.359
  991POPC   C3B16221   4.008  18.740   8.013
  991POPC   C4B16222   4.020  18.879   7.643
  992POPC   NC316223  10.813  41.922   9.321
  992POPC   PO416224  10.904  41.343   9.700
  992POPC   GL116225  10.595  41.283   9.320
  992POPC   GL216226  10.343  41.532   9.183
  992POPC   C1A16227  10.517  41.183   8.867
  992POPC   D2A16228  10.335  41.336   8.469
  992POPC   C3A16229  10.495  41.244   8.033
  992POPC   C4A16230  10.329  41.360   7.615
  992POPC   C1B16231  10.369  41.737   8.788
  992POPC   C2B16232  10.280  41.842   8.346
  992POPC   C3B16233  10.445  41.793   7.945
  992POPC   C4B16234  10.589  41.810   7.526
  993POPC   NC316235  37.617  18.412   9.568
  993POPC   PO416236  37.323  17.746   9.345
  993POPC   GL116237  37.454  18.187   9.121
  993POPC   GL216238  37.818  18.342   9.114
  993POPC   C1A16239  37.647  18.221   8.679
  993POPC   D2A16240  37.780  18.437   8.314
  993POPC   C3A16241  37.680  18.273   7.914
  993POPC   C4A16242  37.488  18.440   7.512
  993POPC   C1B16243  37.970  18.656   8.796
  993POPC   C2B16244  38.200  18.681   8.414
  993POPC   C3B16245  38.062  18.749   7.993
  993POPC   C4B16246  38.033  18.470   7.610
  994POPC   NC316247  27.396  28.756   9.369
  994POPC   PO416248  27.617  29.394   9.546
  994POPC   GL116249  27.668  29.206   9.167
  994POPC   GL216250  28.001  29.362   9.115
  994POPC   C1A16251  27.456  29.154   8.781
  994POPC   D2A16252  27.625  29.211   8.358
  994POPC   C3A16253  27.383  29.082   8.015
  994POPC   C4A16254  27.326  29.200   7.629
  994POPC   C1B16255  27.960  29.049   8.767
  994POPC   C2B16256  27.988  28.837   8.362
  994POPC   C3B16257  27.895  29.006   7.937
  994POPC   C4B16258  27.611  28.777   7.668
  995POPC   NC316259  33.783  34.354   9.755
  995POPC   PO416260  33.178  34.535   9.646
  995POPC   GL116261  33.597  34.617   9.353
  995POPC   GL216262  33.842  34.374   9.240
  995POPC   C1A16263  33.720  34.728   8.889
  995POPC   D2A16264  33.788  34.595   8.429
  995POPC   C3A16265  33.687  34.753   7.996
  995POPC   C4A16266  34.051  34.973   7.794
  995POPC   C1B16267  33.987  34.271   8.807
  995POPC   C2B16268  34.142  34.240   8.355
  995POPC   C3B16269  34.064  34.404   7.923
  995POPC   C4B16270  33.742  34.394   7.592
  996POPC   NC316271  26.044  31.279   9.426
  996POPC   PO416272  26.498  31.728   9.599
  996POPC   GL116273  26.219  31.797   9.234
  996POPC   GL216274  25.843  31.759   9.292
  996POPC   C1A16275  26.108  31.579   8.848
  996POPC   D2A16276  26.262  31.402   8.482
  996POPC   C3A16277  26.172  31.623   8.107
  996POPC   C4A16278  26.252  31.356   7.779
  996POPC   C1B16279  25.614  31.617   8.930
  996POPC   C2B16280  25.720  31.691   8.476
  996POPC   C3B16281  25.576  31.654   8.071
  996POPC   C4B16282  25.799  31.614   7.715
  997POPC   NC316283  38.571  14.145   9.586
  997POPC   PO416284  38.433  13.441   9.526
  997POPC   GL116285  38.297  13.819   9.292
  997POPC   GL216286  38.612  13.827   9.175
  997POPC   C1A16287  38.170  13.863   8.863
  997POPC   D2A16288  38.225  13.467   8.578
  997POPC   C3A16289  38.458  13.414   8.184
  997POPC   C4A16290  38.171  13.421   7.830
  997POPC   C1B16291  38.635  13.705   8.771
  997POPC   C2B16292  38.484  13.903   8.407
  997POPC   C3B16293  38.575  13.882   7.969
  997POPC   C4B16294  38.238  13.901   7.665
  998POPC   NC316295  26.356  10.588   9.452
  998POPC   PO416296  26.940  10.287   9.587
  998POPC   GL116297  26.759  10.431   9.198
  998POPC   GL216298  26.965  10.731   9.077
  998POPC   C1A16299  26.667  10.511   8.756
  998POPC   D2A16300  27.018  10.632   8.463
  998POPC   C3A16301  26.859  10.750   8.062
  998POPC   C4A16302  26.683  10.482   7.723
  998POPC   C1B16303  27.146  10.323   8.887
  998POPC   C2B16304  27.379  10.201   8.524
  998POPC   C3B16305  27.189  10.212   8.114
  998POPC   C4B16306  27.266  10.018   7.724
  999POPC   NC316307  10.796  25.707   9.519
  999POPC   PO416308  10.431  26.304   9.569
  999POPC   GL116309  10.504  25.963   9.204
  999POPC   GL216310  10.433  26.141   8.955
  999POPC   C1A16311  10.797  25.813   8.826
  999POPC   D2A16312  10.966  25.987   8.414
  999POPC   C3A16313  10.701  26.015   8.049
  999POPC   C4A16314  10.695  25.808   7.662
  999POPC   C1B16315  10.455  26.050   8.524
  999POPC   C2B16316  10.416  26.392   8.241
  999POPC   C3B16317  10.600  26.649   7.930
  999POPC   C4B16318  10.714  26.776   7.493
 1000POPC   NC316319  21.694  40.078   9.488
 1000POPC   PO416320  22.368  39.984   9.406
 1000POPC   GL116321  22.342  40.263   9.109
 1000POPC   GL216322  21.997  40.198   9.091
 1000POPC   C1A16323  22.382  40.192   8.716
 1000POPC   D2A16324  22.384  39.904   8.406
 1000POPC   C3A16325  22.400  40.155   8.053
 1000POPC   C4A16326  22.552  40.275   7.667
 1000POPC   C1B16327  21.961  39.906   8.752
 1000POPC   C2B16328  21.801  39.930   8.337
 1000POPC   C3B16329  21.937  39.958   7.919
 1000POPC   C4B16330  21.996  39.669   7.586
 1001POPC   NC316331   5.907  34.091   9.546
 1001POPC   PO416332   5.612  33.525   9.448
 1001POPC   GL116333   5.780  33.819   9.140
 1001POPC   GL216334   5.625  34.160   9.132
 1001POPC   C1A16335   5.970  33.818   8.759
 1001POPC   D2A16336   5.857  33.653   8.352
 1001POPC   C3A16337   6.022  33.838   7.949
 1001POPC   C4A16338   6.082  33.901   7.469
 1001POPC   C1B16339   5.370  34.191   8.812
 1001POPC   C2B16340   5.618  34.100   8.491
 1001POPC   C3B16341   5.665  34.143   8.091
 1001POPC   C4B16342   5.550  34.033   7.685
 1002POPC   NC316343  25.680  18.510   9.905
 1002POPC   PO416344  25.107  18.254   9.685
 1002POPC   GL116345  25.178  18.364   9.202
 1002POPC   GL216346  25.093  18.673   9.010
 1002POPC   C1A16347  25.243  18.202   8.764
 1002POPC   D2A16348  25.039  18.175   8.345
 1002POPC   C3A16349  25.312  18.085   8.008
 1002POPC   C4A16350  25.484  17.968   7.635
 1002POPC   C1B16351  25.114  18.647   8.581
 1002POPC   C2B16352  25.416  18.542   8.283
 1002POPC   C3B16353  25.562  18.508   7.870
 1002POPC   C4B16354  25.280  18.642   7.600
 1003POPC   NC316355  37.486  27.263   9.901
 1003POPC   PO416356  37.915  27.489   9.437
 1003POPC   GL116357  37.772  27.489   9.017
 1003POPC   GL216358  37.660  27.200   8.908
 1003POPC   C1A16359  37.774  27.616   8.595
 1003POPC   D2A16360  37.983  27.538   8.208
 1003POPC   C3A16361  37.807  27.814   7.900
 1003POPC   C4A16362  37.406  27.738   7.658
 1003POPC   C1B16363  37.284  27.288   8.721
 1003POPC   C2B16364  37.202  27.560   8.393
 1003POPC   C3B16365  37.454  27.453   8.059
 1003POPC   C4B16366  37.403  27.204   7.677
 1004POPC   NC316367   0.718   1.398   9.766
 1004POPC   PO416368   1.352   1.181   9.414
 1004POPC   GL116369   1.204   1.460   9.065
 1004POPC   GL216370   0.878   1.643   9.177
 1004POPC   C1A16371   1.137   1.269   8.642
 1004POPC   D2A16372   1.455   0.973   8.406
 1004POPC   C3A16373   1.354   0.916   7.981
 1004POPC   C4A16374   0.986   1.093   7.827
 1004POPC   C1B16375   0.986   1.850   8.817
 1004POPC   C2B16376   1.225   1.787   8.456
 1004POPC   C3B16377   1.212   1.467   8.157
 1004POPC   C4B16378   1.095   1.584   7.753
 1005POPC   NC316379  28.012  29.925   9.383
 1005POPC   PO416380  27.409  30.325   9.421
 1005POPC   GL116381  27.631  30.126   9.111
 1005POPC   GL216382  27.627  29.735   9.113
 1005POPC   C1A16383  27.787  30.348   8.784
 1005POPC   D2A16384  27.617  30.113   8.452
 1005POPC   C3A16385  27.716  30.178   8.047
 1005POPC   C4A16386  27.604  30.002   7.680
 1005POPC   C1B16387  27.776  29.566   8.704
 1005POPC   C2B16388  27.840  29.682   8.244
 1005POPC   C3B16389  27.700  29.510   7.828
 1005POPC   C4B16390  27.546  29.587   7.373
 1006POPC   NC316391  17.752  37.146   9.481
 1006POPC   PO416392  17.341  36.701   9.636
 1006POPC   GL116393  17.542  36.779   9.216
 1006POPC   GL216394  17.896  36.716   9.242
 1006POPC   C1A16395  17.482  37.060   8.850
 1006POPC   D2A16396  17.447  36.934   8.421
 1006POPC   C3A16397  17.673  37.078   8.068
 1006POPC   C4A16398  17.487  36.957   7.718
 1006POPC   C1B16399  17.932  36.833   8.786
 1006POPC   C2B16400  17.920  36.679   8.337
 1006POPC   C3B16401  17.876  36.639   7.863
 1006POPC   C4B16402  17.853  36.805   7.405
 1007POPC   NC316403  24.855  37.790   9.407
 1007POPC   PO416404  25.218  37.292   9.507
 1007POPC   GL116405  25.323  37.464   9.139
 1007POPC   GL216406  25.444  37.812   9.213
 1007POPC   C1A16407  25.284  37.389   8.704
 1007POPC   D2A16408  25.562  37.432   8.363
 1007POPC   C3A16409  25.439  37.512   8.014
 1007POPC   C4A16410  25.094  37.375   7.883
 1007POPC   C1B16411  25.157  37.858   8.846
 1007POPC   C2B16412  25.257  37.855   8.412
 1007POPC   C3B16413  25.146  37.906   7.989
 1007POPC   C4B16414  24.997  38.112   7.633
 1008POPC   NC316415  23.124  24.616   9.498
 1008POPC   PO416416  22.666  24.098   9.457
 1008POPC   GL116417  22.926  24.261   9.131
 1008POPC   GL216418  22.915  24.646   9.046
 1008POPC   C1A16419  22.796  24.304   8.699
 1008POPC   D2A16420  22.625  24.569   8.366
 1008POPC   C3A16421  22.847  24.478   7.976
 1008POPC   C4A16422  23.055  24.612   7.607
 1008POPC   C1B16423  23.197  24.854   8.749
 1008POPC   C2B16424  23.330  24.693   8.367
 1008POPC   C3B16425  23.284  24.869   7.981
 1008POPC   C4B16426  23.475  24.888   7.620
 1009POPC   NC316427   3.270  37.485   9.375
 1009POPC   PO416428   2.681  37.912   9.363
 1009POPC   GL116429   2.716  37.451   9.215
 1009POPC   GL216430   2.399  37.330   9.057
 1009POPC   C1A16431   2.908  37.278   8.832
 1009POPC   D2A16432   2.939  37.181   8.389
 1009POPC   C3A16433   2.697  37.341   8.021
 1009POPC   C4A16434   3.028  37.375   7.717
 1009POPC   C1B16435   2.534  37.617   8.738
 1009POPC   C2B16436   2.807  37.695   8.398
 1009POPC   C3B16437   2.924  37.816   7.992
 1009POPC   C4B16438   2.669  37.729   7.652
 1010POPC   NC316439   6.055  40.251   9.544
 1010POPC   PO416440   6.193  39.721   9.172
 1010POPC   GL116441   6.041  40.066   9.038
 1010POPC   GL216442   6.305  40.299   9.096
 1010POPC   C1A16443   5.911  39.987   8.617
 1010POPC   D2A16444   5.770  39.970   8.220
 1010POPC   C3A16445   5.915  39.855   7.844
 1010POPC   C4A16446   5.745  40.091   7.528
 1010POPC   C1B16447   6.163  40.414   8.699
 1010POPC   C2B16448   6.214  40.281   8.298
 1010POPC   C3B16449   5.977  40.353   7.941
 1010POPC   C4B16450   6.181  40.366   7.558
 1011POPC   NC316451  38.118  40.554   9.591
 1011POPC   PO416452  38.547  41.038   9.572
 1011POPC   GL116453  38.477  40.739   9.257
 1011POPC   GL216454  38.257  40.986   9.116
 1011POPC   C1A16455  38.428  40.597   8.830
 1011POPC   D2A16456  38.310  40.876   8.507
 1011POPC   C3A16457  38.227  40.737   8.118
 1011POPC   C4A16458  38.370  40.758   7.730
 1011POPC   C1B16459  38.656  41.084   8.888
 1011POPC   C2B16460  38.797  41.038   8.471
 1011POPC   C3B16461  38.662  41.054   8.053
 1011POPC   C4B16462  38.813  41.014   7.627
 1012POPC   NC316463  20.611   1.649   9.466
 1012POPC   PO416464  20.397   0.997   9.267
 1012POPC   GL116465  20.593   1.355   9.011
 1012POPC   GL216466  20.913   1.574   9.062
 1012POPC   C1A16467  20.450   1.518   8.598
 1012POPC   D2A16468  20.267   1.441   8.178
 1012POPC   C3A16469  20.418   1.058   8.002
 1012POPC   C4A16470  20.726   0.996   7.685
 1012POPC   C1B16471  20.956   1.415   8.636
 1012POPC   C2B16472  20.807   1.318   8.224
 1012POPC   C3B16473  20.670   1.488   7.844
 1012POPC   C4B16474  20.845   1.591   7.442
 1013POPC   NC316475  17.646  17.043   9.500
 1013POPC   PO416476  17.404  16.396   9.345
 1013POPC   GL116477  17.446  16.762   9.135
 1013POPC   GL216478  17.131  16.840   9.118
 1013POPC   C1A16479  17.518  16.925   8.726
 1013POPC   D2A16480  17.618  16.840   8.290
 1013POPC   C3A16481  17.380  16.847   7.879
 1013POPC   C4A16482  17.329  16.734   7.402
 1013POPC   C1B16483  17.210  16.523   8.751
 1013POPC   C2B16484  17.135  16.444   8.333
 1013POPC   C3B16485  17.468  16.398   8.074
 1013POPC   C4B16486  17.568  16.335   7.644
 1014POPC   NC316487  43.920  31.236   9.982
 1014POPC   PO416488  43.802  30.665   9.698
 1014POPC   GL116489  43.783  30.660   9.236
 1014POPC   GL216490  43.976  30.365   9.126
 1014POPC   C1A16491  43.954  30.920   8.864
 1014POPC   D2A16492  43.767  30.938   8.448
 1014POPC   C3A16493  43.971  30.942   8.059
 1014POPC   C4A16494  43.845  30.831   7.672
 1014POPC   C1B16495  43.879  30.448   8.688
 1014POPC   C2B16496  43.923  30.470   8.226
 1014POPC   C3B16497  43.858  30.318   7.783
 1014POPC   C4B16498  43.956  30.480   7.339
 1015POPC   NC316499  13.816  22.084   9.657
 1015POPC   PO416500  13.187  22.321   9.665
 1015POPC   GL116501  13.456  22.345   9.251
 1015POPC   GL216502  13.809  22.486   9.305
 1015POPC   C1A16503  13.439  22.092   8.829
 1015POPC   D2A16504  13.595  22.008   8.396
 1015POPC   C3A16505  13.335  22.079   8.017
 1015POPC   C4A16506  13.380  22.216   7.580
 1015POPC   C1B16507  13.841  22.386   8.862
 1015POPC   C2B16508  13.860  22.439   8.404
 1015POPC   C3B16509  13.740  22.399   7.961
 1015POPC   C4B16510  13.874  22.314   7.492
 1016POPC   NC316511  13.309   6.568   9.478
 1016POPC   PO416512  12.652   6.477   9.438
 1016POPC   GL116513  12.882   6.729   9.136
 1016POPC   GL216514  13.233   6.817   9.036
 1016POPC   C1A16515  12.786   6.788   8.713
 1016POPC   D2A16516  12.880   6.652   8.316
 1016POPC   C3A16517  12.536   6.639   8.091
 1016POPC   C4A16518  12.368   6.815   7.719
 1016POPC   C1B16519  13.207   6.440   8.770
 1016POPC   C2B16520  13.270   6.326   8.327
 1016POPC   C3B16521  13.329   6.506   7.904
 1016POPC   C4B16522  13.262   6.758   7.535
 1017POPC   NC316523  43.329  24.754   9.439
 1017POPC   PO416524  43.197  25.413   9.525
 1017POPC   GL116525  43.192  25.283   9.122
 1017POPC   GL216526  42.841  25.190   9.106
 1017POPC   C1A16527  43.121  25.502   8.733
 1017POPC   D2A16528  42.960  25.368   8.331
 1017POPC   C3A16529  43.128  25.483   7.937
 1017POPC   C4A16530  43.346  25.302   7.607
 1017POPC   C1B16531  42.611  25.228   8.719
 1017POPC   C2B16532  42.457  25.293   8.307
 1017POPC   C3B16533  42.661  25.092   7.963
 1017POPC   C4B16534  42.834  25.127   7.558
 1018POPC   NC316535  11.525  24.108   9.445
 1018POPC   PO416536  11.114  24.640   9.416
 1018POPC   GL116537  11.223  24.416   9.090
 1018POPC   GL216538  11.185  24.076   8.982
 1018POPC   C1A16539  11.257  24.568   8.710
 1018POPC   D2A16540  11.115  24.782   8.357
 1018POPC   C3A16541  11.210  24.602   7.945
 1018POPC   C4A16542  10.928  24.626   7.615
 1018POPC   C1B16543  11.602  24.189   8.792
 1018POPC   C2B16544  11.779  24.057   8.404
 1018POPC   C3B16545  11.509  24.152   8.064
 1018POPC   C4B16546  11.610  24.338   7.671
 1019POPC   NC316547  27.354  11.855   9.381
 1019POPC   PO416548  27.690  12.458   9.463
 1019POPC   GL116549  27.392  12.335   9.103
 1019POPC   GL216550  27.264  11.990   8.913
 1019POPC   C1A16551  27.230  12.442   8.717
 1019POPC   D2A16552  27.461  12.408   8.377
 1019POPC   C3A16553  27.372  12.126   8.073
 1019POPC   C4A16554  27.312  12.271   7.658
 1019POPC   C1B16555  27.650  12.125   8.738
 1019POPC   C2B16556  27.996  12.333   8.545
 1019POPC   C3B16557  27.874  12.136   8.215
 1019POPC   C4B16558  27.798  12.184   7.787
 1020POPC   NC316559  12.014  38.323   9.400
 1020POPC   PO416560  12.590  38.794   9.463
 1020POPC   GL116561  12.352  38.590   9.109
 1020POPC   GL216562  12.392  38.227   9.029
 1020POPC   C1A16563  12.457  38.566   8.657
 1020POPC   D2A16564  12.559  38.255   8.358
 1020POPC   C3A16565  12.284  38.260   8.025
 1020POPC   C4A16566  12.157  38.570   7.726
 1020POPC   C1B16567  12.109  38.183   8.666
 1020POPC   C2B16568  11.937  37.975   8.309
 1020POPC   C3B16569  11.822  38.088   7.883
 1020POPC   C4B16570  12.103  38.147   7.502
 1021POPC   NC316571  30.072  43.134   9.482
 1021POPC   PO416572  29.646  42.870   9.107
 1021POPC   GL116573  29.785  43.367   9.078
 1021POPC   GL216574  30.122  43.542   9.181
 1021POPC   C1A16575  29.862  43.490   8.628
 1021POPC   D2A16576  29.793  43.164   8.338
 1021POPC   C3A16577  29.620  43.185   7.916
 1021POPC   C4A16578  29.601  42.950   7.509
 1021POPC   C1B16579  30.256  43.252   8.848
 1021POPC   C2B16580  30.307  43.315   8.393
 1021POPC   C3B16581  30.127  43.301   7.986
 1021POPC   C4B16582  30.069  43.163   7.561
 1022POPC   NC316583  41.864  44.811   9.465
 1022POPC   PO416584  41.265  44.484   9.672
 1022POPC   GL116585  41.395  44.672   9.270
 1022POPC   GL216586  41.159  44.776   9.070
 1022POPC   C1A16587  41.602  44.612   8.857
 1022POPC   D2A16588  41.837  44.778   8.519
 1022POPC   C3A16589  41.673  44.743   8.122
 1022POPC   C4A16590  41.795  44.890   7.727
 1022POPC   C1B16591  41.128  44.884   8.659
 1022POPC   C2B16592  41.329   0.041   8.315
 1022POPC   C3B16593  41.274   0.008   7.872
 1022POPC   C4B16594  41.370  44.612   7.697
 1023POPC   NC316595  10.146  12.872   9.330
 1023POPC   PO416596   9.604  12.662   9.694
 1023POPC   GL116597   9.666  12.541   9.235
 1023POPC   GL216598   9.699  12.869   9.056
 1023POPC   C1A16599   9.576  12.474   8.772
 1023POPC   D2A16600   9.744  12.717   8.430
 1023POPC   C3A16601   9.704  12.680   7.999
 1023POPC   C4A16602   9.420  12.860   7.706
 1023POPC   C1B16603   9.755  13.167   8.687
 1023POPC   C2B16604   9.871  13.195   8.247
 1023POPC   C3B16605   9.838  13.160   7.795
 1023POPC   C4B16606  10.070  13.346   7.435
 1024POPC   NC316607  21.113  13.903   9.345
 1024POPC   PO416608  21.535  14.539   9.484
 1024POPC   GL116609  21.489  14.225   9.203
 1024POPC   GL216610  21.179  14.361   9.114
 1024POPC   C1A16611  21.625  14.188   8.792
 1024POPC   D2A16612  21.575  14.494   8.432
 1024POPC   C3A16613  21.476  14.337   8.017
 1024POPC   C4A16614  21.435  14.494   7.616
 1024POPC   C1B16615  21.126  14.191   8.695
 1024POPC   C2B16616  21.073  14.418   8.318
 1024POPC   C3B16617  21.009  14.503   7.877
 1024POPC   C4B16618  21.021  14.271   7.446
 1025POPC   NC316619  22.641  31.267   9.325
 1025POPC   PO416620  22.942  31.797   9.648
 1025POPC   GL116621  23.029  31.597   9.205
 1025POPC   GL216622  23.348  31.400   9.098
 1025POPC   C1A16623  23.069  31.639   8.760
 1025POPC   D2A16624  22.881  31.682   8.354
 1025POPC   C3A16625  23.106  31.691   7.945
 1025POPC   C4A16626  22.709  31.811   7.829
 1025POPC   C1B16627  23.091  31.133   8.797
 1025POPC   C2B16628  22.759  31.186   8.493
 1025POPC   C3B16629  22.962  31.230   8.108
 1025POPC   C4B16630  22.838  31.306   7.696
 1026POPC   NC316631  12.181  17.310   9.944
 1026POPC   PO416632  11.850  17.829   9.705
 1026POPC   GL116633  12.151  17.686   9.297
 1026POPC   GL216634  12.465  17.858   9.140
 1026POPC   C1A16635  12.138  17.631   8.804
 1026POPC   D2A16636  12.088  17.703   8.328
 1026POPC   C3A16637  12.063  17.406   7.967
 1026POPC   C4A16638  12.175  17.109   7.650
 1026POPC   C1B16639  12.579  17.856   8.668
 1026POPC   C2B16640  12.553  17.835   8.175
 1026POPC   C3B16641  12.287  17.874   7.835
 1026POPC   C4B16642  12.237  17.605   7.488
 1027POPC   NC316643  31.807   1.334   9.716
 1027POPC   PO416644  32.361   0.914   9.688
 1027POPC   GL116645  32.366   1.072   9.261
 1027POPC   GL216646  32.053   1.285   9.251
 1027POPC   C1A16647  32.248   1.058   8.819
 1027POPC   D2A16648  32.490   0.934   8.472
 1027POPC   C3A16649  32.389   1.180   8.142
 1027POPC   C4A16650  32.314   1.161   7.723
 1027POPC   C1B16651  31.900   1.467   8.853
 1027POPC   C2B16652  32.049   1.504   8.416
 1027POPC   C3B16653  32.139   1.617   7.979
 1027POPC   C4B16654  31.825   1.754   7.682
 1028POPC   NC316655   2.888  22.518   9.338
 1028POPC   PO416656   2.553  22.942   9.747
 1028POPC   GL116657   2.714  22.970   9.226
 1028POPC   GL216658   2.995  23.109   9.134
 1028POPC   C1A16659   2.580  23.048   8.791
 1028POPC   D2A16660   2.654  22.816   8.395
 1028POPC   C3A16661   2.600  23.063   8.007
 1028POPC   C4A16662   2.446  22.732   7.798
 1028POPC   C1B16663   3.031  22.828   8.766
 1028POPC   C2B16664   3.165  22.865   8.357
 1028POPC   C3B16665   3.099  23.025   7.978
 1028POPC   C4B16666   3.000  22.945   7.547
 1029POPC   NC316667  32.186  26.001   9.643
 1029POPC   PO416668  32.636  25.774   9.199
 1029POPC   GL116669  32.366  26.086   9.058
 1029POPC   GL216670  32.012  26.156   9.188
 1029POPC   C1A16671  32.378  26.040   8.608
 1029POPC   D2A16672  32.297  25.741   8.250
 1029POPC   C3A16673  32.512  25.863   7.908
 1029POPC   C4A16674  32.575  26.267   7.791
 1029POPC   C1B16675  32.044  26.382   8.791
 1029POPC   C2B16676  31.935  26.166   8.411
 1029POPC   C3B16677  31.910  26.316   8.053
 1029POPC   C4B16678  32.063  26.101   7.779
 1030POPC   NC316679  42.766  27.257   9.404
 1030POPC   PO416680  42.124  27.570   9.503
 1030POPC   GL116681  42.347  27.592   9.157
 1030POPC   GL216682  42.001  27.596   8.997
 1030POPC   C1A16683  42.452  27.707   8.749
 1030POPC   D2A16684  42.311  27.519   8.363
 1030POPC   C3A16685  42.371  27.748   8.007
 1030POPC   C4A16686  42.459  27.994   7.677
 1030POPC   C1B16687  42.216  27.229   8.793
 1030POPC   C2B16688  42.151  27.028   8.384
 1030POPC   C3B16689  42.255  27.187   7.961
 1030POPC   C4B16690  42.001  27.505   7.764
 1031POPC   NC316691  41.152  36.639   9.564
 1031POPC   PO416692  40.613  36.433   9.789
 1031POPC   GL116693  40.825  36.503   9.210
 1031POPC   GL216694  41.118  36.633   9.035
 1031POPC   C1A16695  40.633  36.618   8.828
 1031POPC   D2A16696  40.584  36.939   8.526
 1031POPC   C3A16697  40.626  36.759   8.098
 1031POPC   C4A16698  40.348  36.693   7.746
 1031POPC   C1B16699  41.077  36.742   8.560
 1031POPC   C2B16700  41.122  36.914   8.112
 1031POPC   C3B16701  41.226  36.879   7.644
 1031POPC   C4B16702  41.229  36.811   7.174
 1032POPC   NC316703  32.117  37.026   9.452
 1032POPC   PO416704  32.525  36.471   9.535
 1032POPC   GL116705  32.315  36.651   9.161
 1032POPC   GL216706  31.975  36.694   9.108
 1032POPC   C1A16707  32.311  36.804   8.727
 1032POPC   D2A16708  32.369  36.584   8.332
 1032POPC   C3A16709  32.390  36.898   8.010
 1032POPC   C4A16710  32.564  36.834   7.629
 1032POPC   C1B16711  31.801  36.601   8.736
 1032POPC   C2B16712  31.871  36.759   8.336
 1032POPC   C3B16713  31.887  36.880   7.910
 1032POPC   C4B16714  32.078  37.167   7.644
 1033POPC   NC316715   6.122  25.046   9.495
 1033POPC   PO416716   5.323  24.996   9.394
 1033POPC   GL116717   5.593  25.178   9.081
 1033POPC   GL216718   5.964  25.267   9.085
 1033POPC   C1A16719   5.734  25.223   8.641
 1033POPC   D2A16720   5.614  25.049   8.256
 1033POPC   C3A16721   5.722  25.344   7.927
 1033POPC   C4A16722   5.630  25.762   7.815
 1033POPC   C1B16723   6.189  25.004   8.790
 1033POPC   C2B16724   6.116  25.004   8.363
 1033POPC   C3B16725   6.135  25.040   7.931
 1033POPC   C4B16726   5.894  25.019   7.535
 1034POPC   NC316727   6.331  42.725   9.471
 1034POPC   PO416728   6.720  43.167   9.758
 1034POPC   GL116729   6.545  43.164   9.319
 1034POPC   GL216730   6.564  43.469   9.090
 1034POPC   C1A16731   6.590  42.939   8.908
 1034POPC   D2A16732   6.691  43.087   8.501
 1034POPC   C3A16733   6.552  42.851   8.152
 1034POPC   C4A16734   6.558  42.907   7.706
 1034POPC   C1B16735   6.882  43.533   8.740
 1034POPC   C2B16736   7.021  43.429   8.312
 1034POPC   C3B16737   6.698  43.318   7.994
 1034POPC   C4B16738   6.552  43.422   7.562
 1035POPC   NC316739   5.359  44.898   9.309
 1035POPC   PO416740   5.956  44.581   9.572
 1035POPC   GL116741   6.084  44.578   9.161
 1035POPC   GL216742   5.788  44.781   9.071
 1035POPC   C1A16743   6.217  44.878   8.849
 1035POPC   D2A16744   5.878  44.887   8.536
 1035POPC   C3A16745   5.928  44.672   8.141
 1035POPC   C4A16746   5.878  44.795   7.726
 1035POPC   C1B16747   5.560  44.507   8.791
 1035POPC   C2B16748   5.499  44.446   8.352
 1035POPC   C3B16749   5.445  44.583   7.903
 1035POPC   C4B16750   5.539  44.572   7.408
 1036POPC   NC316751  20.601  29.754   9.514
 1036POPC   PO416752  20.405  30.460   9.473
 1036POPC   GL116753  20.540  30.114   9.149
 1036POPC   GL216754  20.846  29.870   9.077
 1036POPC   C1A16755  20.418  29.956   8.751
 1036POPC   D2A16756  20.303  30.025   8.321
 1036POPC   C3A16757  20.624  30.170   8.040
 1036POPC   C4A16758  20.561  30.137   7.622
 1036POPC   C1B16759  20.680  29.530   8.826
 1036POPC   C2B16760  20.507  29.540   8.435
 1036POPC   C3B16761  20.713  29.677   8.065
 1036POPC   C4B16762  20.679  29.567   7.655
 1037POPC   NC316763  26.304  13.834   9.318
 1037POPC   PO416764  26.872  13.678   9.585
 1037POPC   GL116765  26.866  13.503   9.181
 1037POPC   GL216766  26.527  13.424   9.094
 1037POPC   C1A16767  26.856  13.611   8.749
 1037POPC   D2A16768  27.035  13.446   8.392
 1037POPC   C3A16769  26.913  13.683   8.049
 1037POPC   C4A16770  26.929  13.521   7.680
 1037POPC   C1B16771  26.347  13.606   8.721
 1037POPC   C2B16772  26.481  13.738   8.315
 1037POPC   C3B16773  26.388  13.571   7.898
 1037POPC   C4B16774  26.510  13.716   7.481
 1038POPC   NC316775  32.713  42.980   9.645
 1038POPC   PO416776  32.193  43.399   9.699
 1038POPC   GL116777  32.376  43.311   9.287
 1038POPC   GL216778  32.429  42.963   9.211
 1038POPC   C1A16779  32.422  43.432   8.847
 1038POPC   D2A16780  32.412  43.259   8.402
 1038POPC   C3A16781  32.317  43.457   7.994
 1038POPC   C4A16782  32.198  43.207   7.625
 1038POPC   C1B16783  32.448  42.901   8.762
 1038POPC   C2B16784  32.683  42.822   8.365
 1038POPC   C3B16785  32.465  42.889   7.971
 1038POPC   C4B16786  32.405  42.756   7.539
 1039POPC   NC316787   2.610  16.804   9.641
 1039POPC   PO416788   3.044  16.372   9.428
 1039POPC   GL116789   2.935  16.722   9.179
 1039POPC   GL216790   2.569  16.728   9.150
 1039POPC   C1A16791   2.998  16.883   8.754
 1039POPC   D2A16792   2.996  16.649   8.371
 1039POPC   C3A16793   3.068  16.787   7.978
 1039POPC   C4A16794   2.906  16.649   7.598
 1039POPC   C1B16795   2.544  16.639   8.740
 1039POPC   C2B16796   2.549  16.911   8.385
 1039POPC   C3B16797   2.558  16.750   7.976
 1039POPC   C4B16798   2.438  16.395   7.731
 1040POPC   NC316799  25.898   2.049   9.536
 1040POPC   PO416800  26.485   1.958   9.495
 1040POPC   GL116801  26.251   1.833   9.125
 1040POPC   GL216802  26.037   2.085   9.036
 1040POPC   C1A16803  26.084   1.671   8.746
 1040POPC   D2A16804  25.906   1.938   8.451
 1040POPC   C3A16805  26.167   1.963   8.117
 1040POPC   C4A16806  25.980   1.977   7.735
 1040POPC   C1B16807  26.320   2.151   8.669
 1040POPC   C2B16808  26.291   2.425   8.307
 1040POPC   C3B16809  26.077   2.443   7.898
 1040POPC   C4B16810  26.134   2.399   7.421
 1041POPC   NC316811  21.102  32.171   9.292
 1041POPC   PO416812  20.521  32.366   9.507
 1041POPC   GL116813  20.511  32.156   9.154
 1041POPC   GL216814  20.685  31.827   9.206
 1041POPC   C1A16815  20.534  32.400   8.761
 1041POPC   D2A16816  20.370  32.555   8.353
 1041POPC   C3A16817  20.633  32.481   8.007
 1041POPC   C4A16818  20.808  32.346   7.628
 1041POPC   C1B16819  20.624  31.886   8.754
 1041POPC   C2B16820  20.741  32.123   8.376
 1041POPC   C3B16821  20.711  31.959   7.956
 1041POPC   C4B16822  20.818  31.862   7.514
 1042POPC   NC316823  28.867  10.880   9.452
 1042POPC   PO416824  29.142  11.598   9.453
 1042POPC   GL116825  29.105  11.282   9.165
 1042POPC   GL216826  28.725  11.277   9.115
 1042POPC   C1A16827  29.395  11.169   8.797
 1042POPC   D2A16828  29.553  11.019   8.387
 1042POPC   C3A16829  29.368  10.956   7.971
 1042POPC   C4A16830  29.354  11.298   7.647
 1042POPC   C1B16831  28.898  11.192   8.722
 1042POPC   C2B16832  29.120  11.278   8.358
 1042POPC   C3B16833  28.946  11.232   8.011
 1042POPC   C4B16834  28.849  11.364   7.618
 1043POPC   NC316835   1.274  33.618   9.699
 1043POPC   PO416836   0.857  34.068   9.820
 1043POPC   GL116837   1.003  33.836   9.341
 1043POPC   GL216838   1.299  33.643   9.205
 1043POPC   C1A16839   1.161  34.023   8.909
 1043POPC   D2A16840   1.222  34.094   8.499
 1043POPC   C3A16841   0.942  33.936   8.231
 1043POPC   C4A16842   1.199  34.132   7.895
 1043POPC   C1B16843   1.489  33.658   8.811
 1043POPC   C2B16844   1.239  33.550   8.441
 1043POPC   C3B16845   1.304  33.655   8.036
 1043POPC   C4B16846   1.557  33.557   7.735
 1044POPC   NC316847  28.444   2.742   9.468
 1044POPC   PO416848  27.856   3.129   9.577
 1044POPC   GL116849  28.108   2.953   9.164
 1044POPC   GL216850  28.185   2.568   9.082
 1044POPC   C1A16851  28.352   2.970   8.775
 1044POPC   D2A16852  28.210   2.980   8.347
 1044POPC   C3A16853  28.531   2.994   8.078
 1044POPC   C4A16854  28.613   2.772   7.734
 1044POPC   C1B16855  28.518   2.485   8.807
 1044POPC   C2B16856  28.577   2.619   8.399
 1044POPC   C3B16857  28.297   2.535   8.064
 1044POPC   C4B16858  28.336   2.343   7.692
 1045POPC   NC316859  39.917  34.405   9.730
 1045POPC   PO416860  40.116  35.048   9.724
 1045POPC   GL116861  40.148  34.636   9.335
 1045POPC   GL216862  39.880  34.408   9.232
 1045POPC   C1A16863  40.065  34.669   8.833
 1045POPC   D2A16864  39.996  34.348   8.486
 1045POPC   C3A16865  40.222  34.426   8.119
 1045POPC   C4A16866  40.074  34.667   7.805
 1045POPC   C1B16867  39.657  34.356   8.871
 1045POPC   C2B16868  39.484  34.511   8.500
 1045POPC   C3B16869  39.659  34.512   8.080
 1045POPC   C4B16870  39.590  34.802   7.738
 1046POPC   NC316871  36.781  38.342   9.401
 1046POPC   PO416872  36.857  37.591   9.482
 1046POPC   GL116873  36.870  37.724   9.071
 1046POPC   GL216874  36.523  37.689   8.979
 1046POPC   C1A16875  37.084  37.768   8.663
 1046POPC   D2A16876  36.981  37.541   8.284
 1046POPC   C3A16877  37.092  37.583   7.855
 1046POPC   C4A16878  37.168  37.989   7.803
 1046POPC   C1B16879  36.575  37.952   8.622
 1046POPC   C2B16880  36.585  37.885   8.184
 1046POPC   C3B16881  36.650  37.852   7.769
 1046POPC   C4B16882  36.682  37.518   7.511
 1047POPC   NC316883  42.488  32.103   9.455
 1047POPC   PO416884  41.915  32.541   9.450
 1047POPC   GL116885  42.113  32.398   9.110
 1047POPC   GL216886  42.482  32.431   9.070
 1047POPC   C1A16887  42.133  32.163   8.769
 1047POPC   D2A16888  42.423  32.082   8.463
 1047POPC   C3A16889  42.276  32.051   8.066
 1047POPC   C4A16890  42.186  32.361   7.810
 1047POPC   C1B16891  42.372  32.599   8.669
 1047POPC   C2B16892  42.411  32.591   8.248
 1047POPC   C3B16893  42.678  32.347   8.095
 1047POPC   C4B16894  42.690  32.259   7.702
 1048POPC   NC316895  21.307  25.408   9.549
 1048POPC   PO416896  21.834  24.985   9.569
 1048POPC   GL116897  21.723  25.286   9.242
 1048POPC   GL216898  21.680  25.674   9.268
 1048POPC   C1A16899  21.544  25.261   8.849
 1048POPC   D2A16900  21.631  25.142   8.437
 1048POPC   C3A16901  21.394  25.235   8.088
 1048POPC   C4A16902  21.477  25.002   7.735
 1048POPC   C1B16903  21.520  25.771   8.856
 1048POPC   C2B16904  21.442  25.633   8.455
 1048POPC   C3B16905  21.662  25.707   8.097
 1048POPC   C4B16906  21.630  25.500   7.719
 1049POPC   NC316907  28.955  26.895   9.535
 1049POPC   PO416908  28.853  26.230   9.650
 1049POPC   GL116909  28.971  26.478   9.171
 1049POPC   GL216910  29.037  26.856   9.050
 1049POPC   C1A16911  29.220  26.509   8.747
 1049POPC   D2A16912  29.008  26.691   8.356
 1049POPC   C3A16913  29.181  26.789   7.942
 1049POPC   C4A16914  29.028  26.682   7.508
 1049POPC   C1B16915  28.991  27.233   8.816
 1049POPC   C2B16916  29.060  27.211   8.394
 1049POPC   C3B16917  28.805  27.135   8.051
 1049POPC   C4B16918  28.959  27.149   7.647
 1050POPC   NC316919  31.219  11.379   9.580
 1050POPC   PO416920  31.614  10.951   9.429
 1050POPC   GL116921  31.380  11.120   9.143
 1050POPC   GL216922  31.486  11.466   9.142
 1050POPC   C1A16923  31.517  11.087   8.735
 1050POPC   D2A16924  31.865  11.014   8.459
 1050POPC   C3A16925  31.700  11.114   8.076
 1050POPC   C4A16926  31.418  11.109   7.726
 1050POPC   C1B16927  31.775  11.541   8.775
 1050POPC   C2B16928  31.755  11.627   8.336
 1050POPC   C3B16929  31.552  11.573   7.942
 1050POPC   C4B16930  31.621  11.732   7.573
 1051POPC   NC316931  13.237  42.531   9.581
 1051POPC   PO416932  13.416  41.893   9.593
 1051POPC   GL116933  13.559  42.197   9.207
 1051POPC   GL216934  13.433  42.506   9.137
 1051POPC   C1A16935  13.785  42.361   8.805
 1051POPC   D2A16936  13.977  42.405   8.386
 1051POPC   C3A16937  13.744  42.284   8.017
 1051POPC   C4A16938  13.634  42.397   7.591
 1051POPC   C1B16939  13.345  42.622   8.772
 1051POPC   C2B16940  13.454  42.483   8.394
 1051POPC   C3B16941  13.441  42.727   8.043
 1051POPC   C4B16942  13.223  42.712   7.684
 1052POPC   NC316943   6.560  12.624   9.449
 1052POPC   PO416944   6.735  13.273   9.436
 1052POPC   GL116945   6.719  13.025   9.138
 1052POPC   GL216946   6.412  12.951   9.053
 1052POPC   C1A16947   6.865  12.853   8.791
 1052POPC   D2A16948   6.975  12.889   8.397
 1052POPC   C3A16949   6.858  12.612   8.075
 1052POPC   C4A16950   6.978  12.631   7.664
 1052POPC   C1B16951   6.374  12.829   8.615
 1052POPC   C2B16952   6.401  12.823   8.167
 1052POPC   C3B16953   6.490  12.834   7.721
 1052POPC   C4B16954   6.327  13.092   7.348
 1053POPC   NC316955  26.614   9.931   9.578
 1053POPC   PO416956  27.222   9.628   9.575
 1053POPC   GL116957  27.007   9.846   9.264
 1053POPC   GL216958  26.747   9.591   9.206
 1053POPC   C1A16959  26.768   9.997   8.911
 1053POPC   D2A16960  26.847  10.113   8.497
 1053POPC   C3A16961  26.600   9.926   8.183
 1053POPC   C4A16962  26.759   9.971   7.769
 1053POPC   C1B16963  26.784   9.479   8.766
 1053POPC   C2B16964  26.705   9.376   8.313
 1053POPC   C3B16965  26.445   9.501   7.936
 1053POPC   C4B16966  26.523   9.634   7.489
 1054POPC   NC316967  10.931  22.668   9.595
 1054POPC   PO416968  11.282  23.196   9.780
 1054POPC   GL116969  11.189  23.095   9.329
 1054POPC   GL216970  11.290  22.774   9.214
 1054POPC   C1A16971  11.080  23.098   8.860
 1054POPC   D2A16972  11.319  23.187   8.441
 1054POPC   C3A16973  11.145  23.315   8.036
 1054POPC   C4A16974  10.984  23.161   7.645
 1054POPC   C1B16975  11.407  22.710   8.781
 1054POPC   C2B16976  11.190  22.672   8.402
 1054POPC   C3B16977  11.197  22.815   7.992
 1054POPC   C4B16978  11.062  22.588   7.643
 1055POPC   NC316979   8.256  22.394   9.476
 1055POPC   PO416980   8.548  21.797   9.627
 1055POPC   GL116981   8.499  22.033   9.200
 1055POPC   GL216982   8.112  22.063   9.104
 1055POPC   C1A16983   8.472  22.340   8.829
 1055POPC   D2A16984   8.292  22.443   8.428
 1055POPC   C3A16985   8.409  22.361   8.020
 1055POPC   C4A16986   8.498  22.554   7.593
 1055POPC   C1B16987   8.304  21.862   8.740
 1055POPC   C2B16988   8.264  21.935   8.322
 1055POPC   C3B16989   8.184  21.918   7.904
 1055POPC   C4B16990   8.380  21.727   7.627
 1056POPC   NC316991   7.158  21.407   9.527
 1056POPC   PO416992   6.562  21.481   9.830
 1056POPC   GL116993   6.719  21.435   9.317
 1056POPC   GL216994   6.654  21.670   9.099
 1056POPC   C1A16995   6.895  21.339   8.812
 1056POPC   D2A16996   6.733  21.257   8.362
 1056POPC   C3A16997   6.655  21.497   7.957
 1056POPC   C4A16998   6.585  21.293   7.550
 1056POPC   C1B16999   6.465  21.596   8.718
 1056POPC   C2B17000   6.462  21.788   8.323
 1056POPC   C3B17001   6.179  22.037   8.102
 1056POPC   C4B17002   6.241  21.888   7.688
 1057POPC   NC317003   4.059  10.462   9.527
 1057POPC   PO417004   3.499  10.870   9.538
 1057POPC   GL117005   3.652  10.532   9.236
 1057POPC   GL217006   3.868  10.738   9.064
 1057POPC   C1A17007   3.935  10.258   8.928
 1057POPC   D2A17008   3.902  10.134   8.509
 1057POPC   C3A17009   3.944  10.370   8.132
 1057POPC   C4A17010   3.700  10.357   7.774
 1057POPC   C1B17011   3.579  10.559   8.737
 1057POPC   C2B17012   3.465  10.412   8.340
 1057POPC   C3B17013   3.390  10.689   8.004
 1057POPC   C4B17014   3.641  10.871   7.679
 1058POPC   NC317015  28.645   1.284   9.601
 1058POPC   PO417016  28.070   1.587   9.596
 1058POPC   GL117017  28.250   1.354   9.217
 1058POPC   GL217018  28.600   1.245   9.092
 1058POPC   C1A17019  28.210   1.391   8.755
 1058POPC   D2A17020  28.178   1.027   8.443
 1058POPC   C3A17021  28.130   1.105   7.972
 1058POPC   C4A17022  27.981   1.453   7.704
 1058POPC   C1B17023  28.676   1.249   8.618
 1058POPC   C2B17024  28.441   1.438   8.257
 1058POPC   C3B17025  28.485   1.467   7.801
 1058POPC   C4B17026  28.723   1.488   7.389
 1059POPC   NC317027  18.868  38.058   9.485
 1059POPC   PO417028  18.909  37.410   9.512
 1059POPC   GL117029  19.020  37.592   9.093
 1059POPC   GL217030  19.193  37.916   9.113
 1059POPC   C1A17031  18.813  37.613   8.661
 1059POPC   D2A17032  18.494  37.532   8.378
 1059POPC   C3A17033  18.791  37.395   8.122
 1059POPC   C4A17034  18.909  37.497   7.739
 1059POPC   C1B17035  19.285  37.789   8.685
 1059POPC   C2B17036  19.125  37.871   8.274
 1059POPC   C3B17037  19.240  37.866   7.817
 1059POPC   C4B17038  19.334  38.110   7.422
 1060POPC   NC317039   1.511  37.690   9.525
 1060POPC   PO417040   0.846  37.431   9.484
 1060POPC   GL117041   1.117  37.629   9.139
 1060POPC   GL217042   1.451  37.862   9.052
 1060POPC   C1A17043   1.219  37.536   8.736
 1060POPC   D2A17044   1.394  37.577   8.333
 1060POPC   C3A17045   1.268  37.407   7.962
 1060POPC   C4A17046   1.372  37.645   7.628
 1060POPC   C1B17047   1.332  38.017   8.646
 1060POPC   C2B17048   1.333  38.189   8.233
 1060POPC   C3B17049   1.451  38.119   7.809
 1060POPC   C4B17050   1.493  38.085   7.346
 1061POPC   NC317051  44.430  17.641   9.591
 1061POPC   PO417052   0.045  17.392   9.639
 1061POPC   GL117053  44.715  17.252   9.340
 1061POPC   GL217054  44.706  17.566   9.146
 1061POPC   C1A17055  44.488  17.156   8.930
 1061POPC   D2A17056  44.610  17.044   8.499
 1061POPC   C3A17057  44.379  17.176   8.136
 1061POPC   C4A17058  44.624  17.191   7.766
 1061POPC   C1B17059  44.512  17.649   8.739
 1061POPC   C2B17060  44.559  17.883   8.371
 1061POPC   C3B17061  44.600  17.683   7.988
 1061POPC   C4B17062  44.266  17.711   7.719
 1062POPC   NC317063  39.674  44.950   9.527
 1062POPC   PO417064  40.209  44.502   9.614
 1062POPC   GL117065  40.179  44.632   9.165
 1062POPC   GL217066  39.843  44.672   9.131
 1062POPC   C1A17067  40.257  44.626   8.732
 1062POPC   D2A17068  40.255  44.362   8.367
 1062POPC   C3A17069  40.042  44.503   7.990
 1062POPC   C4A17070  40.095  44.928   7.846
 1062POPC   C1B17071  39.731  44.685   8.738
 1062POPC   C2B17072  39.883  44.811   8.373
 1062POPC   C3B17073  39.643  44.880   8.040
 1062POPC   C4B17074  39.649  44.717   7.660
 1063POPC   NC317075  37.269  40.493   9.593
 1063POPC   PO417076  37.522  39.826   9.476
 1063POPC   GL117077  37.644  40.026   9.119
 1063POPC   GL217078  37.870  40.266   9.254
 1063POPC   C1A17079  37.675  39.857   8.732
 1063POPC   D2A17080  37.402  39.799   8.392
 1063POPC   C3A17081  37.549  39.726   7.995
 1063POPC   C4A17082  37.476  39.992   7.616
 1063POPC   C1B17083  37.971  40.337   8.829
 1063POPC   C2B17084  37.948  40.130   8.400
 1063POPC   C3B17085  37.630  40.213   8.133
 1063POPC   C4B17086  37.809  40.337   7.801
 1064POPC   NC317087  24.799  25.721   9.622
 1064POPC   PO417088  24.518  26.345   9.788
 1064POPC   GL117089  24.717  26.216   9.345
 1064POPC   GL217090  24.656  25.880   9.171
 1064POPC   C1A17091  24.641  26.284   8.872
 1064POPC   D2A17092  24.472  25.951   8.586
 1064POPC   C3A17093  24.215  25.990   8.202
 1064POPC   C4A17094  24.187  26.043   7.737
 1064POPC   C1B17095  24.915  25.829   8.812
 1064POPC   C2B17096  24.879  25.687   8.404
 1064POPC   C3B17097  24.676  25.805   8.040
 1064POPC   C4B17098  24.864  25.807   7.656
 1065POPC   NC317099  27.370  32.528   9.820
 1065POPC   PO417100  26.933  32.197   9.430
 1065POPC   GL117101  26.752  32.073   9.066
 1065POPC   GL217102  26.929  32.380   8.949
 1065POPC   C1A17103  26.587  32.196   8.649
 1065POPC   D2A17104  26.795  32.429   8.368
 1065POPC   C3A17105  26.695  32.192   8.048
 1065POPC   C4A17106  26.709  32.231   7.652
 1065POPC   C1B17107  27.237  32.511   8.667
 1065POPC   C2B17108  27.344  32.433   8.255
 1065POPC   C3B17109  27.113  32.474   7.905
 1065POPC   C4B17110  27.030  32.778   7.560
 1066POPC   NC317111  23.443  41.006   9.312
 1066POPC   PO417112  23.833  40.465   9.448
 1066POPC   GL117113  23.857  40.775   9.117
 1066POPC   GL217114  23.904  41.133   9.132
 1066POPC   C1A17115  23.862  40.836   8.691
 1066POPC   D2A17116  23.859  40.543   8.376
 1066POPC   C3A17117  23.712  40.768   8.026
 1066POPC   C4A17118  23.523  40.611   7.672
 1066POPC   C1B17119  23.991  41.330   8.756
 1066POPC   C2B17120  24.116  41.268   8.327
 1066POPC   C3B17121  23.854  41.272   7.972
 1066POPC   C4B17122  23.681  41.080   7.588
 1067POPC   NC317123  33.524  30.156   9.532
 1067POPC   PO417124  34.124  30.225   9.490
 1067POPC   GL117125  33.872  29.989   9.165
 1067POPC   GL217126  33.788  29.624   9.178
 1067POPC   C1A17127  33.766  29.872   8.733
 1067POPC   D2A17128  33.964  30.068   8.403
 1067POPC   C3A17129  33.803  29.981   8.018
 1067POPC   C4A17130  33.693  30.129   7.605
 1067POPC   C1B17131  34.088  29.509   8.851
 1067POPC   C2B17132  34.251  29.558   8.451
 1067POPC   C3B17133  34.074  29.494   8.030
 1067POPC   C4B17134  33.838  29.591   7.673
 1068POPC   NC317135  38.980  29.257   9.719
 1068POPC   PO417136  39.291  28.779   9.570
 1068POPC   GL117137  39.130  29.034   9.144
 1068POPC   GL217138  39.060  29.363   9.233
 1068POPC   C1A17139  39.264  29.004   8.721
 1068POPC   D2A17140  39.402  28.691   8.357
 1068POPC   C3A17141  39.326  28.832   7.937
 1068POPC   C4A17142  39.299  29.170   7.623
 1068POPC   C1B17143  38.940  29.485   8.838
 1068POPC   C2B17144  38.907  29.357   8.425
 1068POPC   C3B17145  38.977  29.223   8.020
 1068POPC   C4B17146  38.782  29.218   7.629
 1069POPC   NC317147  19.188  35.636   9.376
 1069POPC   PO417148  19.026  35.117   9.852
 1069POPC   GL117149  18.990  35.118   9.327
 1069POPC   GL217150  18.799  35.391   9.150
 1069POPC   C1A17151  19.089  35.118   8.816
 1069POPC   D2A17152  19.331  35.261   8.428
 1069POPC   C3A17153  19.230  35.408   7.992
 1069POPC   C4A17154  19.089  35.205   7.621
 1069POPC   C1B17155  18.847  35.562   8.720
 1069POPC   C2B17156  18.917  35.638   8.308
 1069POPC   C3B17157  18.688  35.490   7.955
 1069POPC   C4B17158  18.707  35.514   7.522
 1070POPC   NC317159  42.940  39.720   9.548
 1070POPC   PO417160  43.273  40.309   9.581
 1070POPC   GL117161  43.119  40.154   9.161
 1070POPC   GL217162  42.762  40.060   9.117
 1070POPC   C1A17163  43.019  40.255   8.690
 1070POPC   D2A17164  42.842  40.152   8.274
 1070POPC   C3A17165  43.185  40.123   7.976
 1070POPC   C4A17166  43.485  39.752   7.884
 1070POPC   C1B17167  42.994  39.749   8.833
 1070POPC   C2B17168  43.168  39.748   8.399
 1070POPC   C3B17169  42.998  39.659   7.998
 1070POPC   C4B17170  42.980  39.425   7.624
 1071POPC   NC317171  11.372   8.974   9.525
 1071POPC   PO417172  11.074   8.365   9.518
 1071POPC   GL117173  11.170   8.642   9.216
 1071POPC   GL217174  11.551   8.658   9.183
 1071POPC   C1A17175  11.189   8.909   8.840
 1071POPC   D2A17176  11.263   8.766   8.402
 1071POPC   C3A17177  11.282   9.085   8.065
 1071POPC   C4A17178  11.265   9.347   7.681
 1071POPC   C1B17179  11.685   8.884   8.821
 1071POPC   C2B17180  11.775   8.884   8.411
 1071POPC   C3B17181  11.664   8.723   8.034
 1071POPC   C4B17182  11.669   9.003   7.672
 1072POPC   NC317183  33.428  41.494   9.799
 1072POPC   PO417184  34.029  41.308   9.361
 1072POPC   GL117185  34.036  41.565   9.000
 1072POPC   GL217186  33.720  41.448   8.841
 1072POPC   C1A17187  34.057  41.671   8.542
 1072POPC   D2A17188  33.969  41.721   8.130
 1072POPC   C3A17189  33.800  41.372   7.891
 1072POPC   C4A17190  33.530  41.238   7.582
 1072POPC   C1B17191  33.539  41.576   8.462
 1072POPC   C2B17192  33.507  41.950   8.222
 1072POPC   C3B17193  33.658  41.970   7.807
 1072POPC   C4B17194  33.849  41.689   7.498
 1073POPC   NC317195  17.432   4.075   9.473
 1073POPC   PO417196  17.835   3.362   9.470
 1073POPC   GL117197  17.586   3.466   9.133
 1073POPC   GL217198  17.435   3.757   9.058
 1073POPC   C1A17199  17.519   3.342   8.754
 1073POPC   D2A17200  17.778   3.278   8.413
 1073POPC   C3A17201  17.491   3.365   8.070
 1073POPC   C4A17202  17.624   3.288   7.660
 1073POPC   C1B17203  17.149   3.696   8.755
 1073POPC   C2B17204  17.064   3.612   8.353
 1073POPC   C3B17205  17.092   3.782   7.964
 1073POPC   C4B17206  17.414   3.747   7.696
 1074POPC   NC317207   1.206  37.170   9.358
 1074POPC   PO417208   1.344  36.556   9.511
 1074POPC   GL117209   1.510  36.825   9.141
 1074POPC   GL217210   1.605  36.478   9.094
 1074POPC   C1A17211   1.521  37.115   8.755
 1074POPC   D2A17212   1.157  37.130   8.450
 1074POPC   C3A17213   1.144  36.917   8.073
 1074POPC   C4A17214   1.427  36.938   7.736
 1074POPC   C1B17215   1.438  36.623   8.704
 1074POPC   C2B17216   1.573  36.728   8.324
 1074POPC   C3B17217   1.500  36.491   7.949
 1074POPC   C4B17218   1.064  36.554   7.727
 1075POPC   NC317219   8.470  35.457   9.585
 1075POPC   PO417220   7.941  35.059   9.666
 1075POPC   GL117221   8.154  35.195   9.250
 1075POPC   GL217222   8.398  34.963   9.084
 1075POPC   C1A17223   8.208  35.497   8.902
 1075POPC   D2A17224   8.015  35.510   8.469
 1075POPC   C3A17225   8.274  35.424   8.084
 1075POPC   C4A17226   8.486  35.720   7.783
 1075POPC   C1B17227   8.191  35.038   8.682
 1075POPC   C2B17228   8.018  35.023   8.271
 1075POPC   C3B17229   7.918  35.131   7.844
 1075POPC   C4B17230   8.295  35.224   7.611
 1076POPC   NC317231  38.957  20.474   9.542
 1076POPC   PO417232  39.564  20.775   9.693
 1076POPC   GL117233  39.394  20.730   9.275
 1076POPC   GL217234  39.643  20.483   9.177
 1076POPC   C1A17235  39.195  20.475   8.902
 1076POPC   D2A17236  39.193  20.267   8.490
 1076POPC   C3A17237  39.223  20.537   8.118
 1076POPC   C4A17238  39.225  20.454   7.691
 1076POPC   C1B17239  39.613  20.767   8.803
 1076POPC   C2B17240  39.440  20.907   8.393
 1076POPC   C3B17241  39.605  20.853   7.921
 1076POPC   C4B17242  39.529  20.828   7.440
 1077POPC   NC317243  11.060  11.537   9.436
 1077POPC   PO417244  11.372  10.962   9.508
 1077POPC   GL117245  11.220  11.135   9.150
 1077POPC   GL217246  11.444  11.414   9.122
 1077POPC   C1A17247  10.989  10.948   8.810
 1077POPC   D2A17248  11.140  11.000   8.398
 1077POPC   C3A17249  11.010  11.334   8.141
 1077POPC   C4A17250  10.984  11.133   7.783
 1077POPC   C1B17251  11.320  11.518   8.727
 1077POPC   C2B17252  11.478  11.419   8.323
 1077POPC   C3B17253  11.446  11.103   7.984
 1077POPC   C4B17254  11.386  11.381   7.638
 1078POPC   NC317255  27.733  31.518   9.750
 1078POPC   PO417256  27.120  31.275   9.541
 1078POPC   GL117257  27.380  31.206   9.157
 1078POPC   GL217258  27.673  31.415   9.158
 1078POPC   C1A17259  27.370  31.306   8.699
 1078POPC   D2A17260  27.334  31.579   8.324
 1078POPC   C3A17261  27.333  31.418   7.889
 1078POPC   C4A17262  27.488  31.684   7.536
 1078POPC   C1B17263  27.806  31.596   8.750
 1078POPC   C2B17264  27.800  31.396   8.342
 1078POPC   C3B17265  27.809  31.600   7.946
 1078POPC   C4B17266  28.008  31.735   7.572
 1079POPC   NC317267  14.209  19.784   9.749
 1079POPC   PO417268  14.460  20.212   9.372
 1079POPC   GL117269  14.276  19.798   9.229
 1079POPC   GL217270  14.547  19.561   9.139
 1079POPC   C1A17271  14.208  19.785   8.795
 1079POPC   D2A17272  14.229  20.173   8.510
 1079POPC   C3A17273  14.177  20.062   8.082
 1079POPC   C4A17274  14.081  19.932   7.660
 1079POPC   C1B17275  14.719  19.829   8.802
 1079POPC   C2B17276  14.569  19.826   8.379
 1079POPC   C3B17277  14.645  19.815   7.969
 1079POPC   C4B17278  14.964  19.581   7.803
 1080POPC   NC317279   3.889  17.827   9.530
 1080POPC   PO417280   3.245  17.688   9.455
 1080POPC   GL117281   3.586  17.623   9.176
 1080POPC   GL217282   3.571  17.976   9.146
 1080POPC   C1A17283   3.795  17.602   8.782
 1080POPC   D2A17284   3.569  17.541   8.384
 1080POPC   C3A17285   3.744  17.524   7.969
 1080POPC   C4A17286   3.662  17.445   7.535
 1080POPC   C1B17287   3.276  17.768   8.787
 1080POPC   C2B17288   3.117  17.766   8.336
 1080POPC   C3B17289   3.223  17.543   7.943
 1080POPC   C4B17290   3.165  17.582   7.496
 1081POPC   NC317291   0.800   4.038   9.351
 1081POPC   PO417292   0.457   3.477   9.397
 1081POPC   GL117293   0.646   3.336   9.030
 1081POPC   GL217294   0.384   3.477   8.879
 1081POPC   C1A17295   0.849   3.527   8.677
 1081POPC   D2A17296   0.691   3.663   8.298
 1081POPC   C3A17297   0.593   3.404   7.985
 1081POPC   C4A17298   0.341   3.391   7.644
 1081POPC   C1B17299   0.027   3.747   8.785
 1081POPC   C2B17300   0.064   3.922   8.363
 1081POPC   C3B17301   0.235   3.759   8.000
 1081POPC   C4B17302   0.232   3.870   7.564
 1082POPC   NC317303  39.048  23.665   9.884
 1082POPC   PO417304  39.405  23.935   9.427
 1082POPC   GL117305  39.095  23.739   9.183
 1082POPC   GL217306  38.988  24.018   8.956
 1082POPC   C1A17307  39.016  23.537   8.803
 1082POPC   D2A17308  39.203  23.413   8.375
 1082POPC   C3A17309  38.939  23.560   7.980
 1082POPC   C4A17310  38.972  23.457   7.533
 1082POPC   C1B17311  39.303  23.917   8.622
 1082POPC   C2B17312  39.293  23.866   8.170
 1082POPC   C3B17313  39.364  23.727   7.728
 1082POPC   C4B17314  39.531  24.024   7.451
 1083POPC   NC317315  18.855  42.597   9.594
 1083POPC   PO417316  19.177  42.003   9.359
 1083POPC   GL117317  19.136  42.201   8.991
 1083POPC   GL217318  18.924  42.446   9.092
 1083POPC   C1A17319  19.194  42.288   8.571
 1083POPC   D2A17320  18.969  42.201   8.277
 1083POPC   C3A17321  19.067  42.378   7.937
 1083POPC   C4A17322  18.857  42.532   7.605
 1083POPC   C1B17323  19.246  42.698   8.837
 1083POPC   C2B17324  19.548  42.686   8.514
 1083POPC   C3B17325  19.514  42.794   8.077
 1083POPC   C4B17326  19.349  42.689   7.684
 1084POPC   NC317327  14.184  36.008   9.854
 1084POPC   PO417328  14.684  36.251   9.715
 1084POPC   GL117329  14.359  36.230   9.374
 1084POPC   GL217330  14.470  36.531   9.191
 1084POPC   C1A17331  14.212  36.168   8.920
 1084POPC   D2A17332  14.440  36.228   8.501
 1084POPC   C3A17333  14.377  36.141   8.042
 1084POPC   C4A17334  14.676  36.301   7.736
 1084POPC   C1B17335  14.162  36.675   8.885
 1084POPC   C2B17336  14.102  36.615   8.462
 1084POPC   C3B17337  14.404  36.633   8.139
 1084POPC   C4B17338  14.292  36.646   7.732
 1085POPC   NC317339  13.318  27.751   9.393
 1085POPC   PO417340  12.707  27.822   9.521
 1085POPC   GL117341  12.862  27.597   9.153
 1085POPC   GL217342  13.057  27.278   9.202
 1085POPC   C1A17343  12.820  27.482   8.719
 1085POPC   D2A17344  13.066  27.515   8.362
 1085POPC   C3A17345  12.909  27.561   7.959
 1085POPC   C4A17346  12.538  27.623   7.738
 1085POPC   C1B17347  13.308  27.358   8.819
 1085POPC   C2B17348  13.355  27.125   8.438
 1085POPC   C3B17349  13.380  27.332   7.991
 1085POPC   C4B17350  13.317  27.293   7.517
 1086POPC   NC317351   1.482  28.489   9.431
 1086POPC   PO417352   0.941  28.061   9.321
 1086POPC   GL117353   1.072  28.427   9.104
 1086POPC   GL217354   1.390  28.211   9.009
 1086POPC   C1A17355   1.270  28.612   8.732
 1086POPC   D2A17356   1.494  28.357   8.424
 1086POPC   C3A17357   1.372  28.518   8.014
 1086POPC   C4A17358   1.326  28.499   7.565
 1086POPC   C1B17359   1.073  28.130   8.672
 1086POPC   C2B17360   1.005  28.229   8.238
 1086POPC   C3B17361   0.890  28.329   7.816
 1086POPC   C4B17362   0.858  28.328   7.362
 1087POPC   NC317363   7.579  10.580   9.471
 1087POPC   PO417364   6.906  10.647   9.638
 1087POPC   GL117365   6.989  10.450   9.209
 1087POPC   GL217366   7.265  10.616   9.043
 1087POPC   C1A17367   7.141  10.159   8.841
 1087POPC   D2A17368   7.244  10.083   8.383
 1087POPC   C3A17369   7.182  10.408   8.016
 1087POPC   C4A17370   7.153  10.802   7.771
 1087POPC   C1B17371   7.663  10.553   8.786
 1087POPC   C2B17372   7.853  10.639   8.368
 1087POPC   C3B17373   7.666  10.635   7.942
 1087POPC   C4B17374   7.553  10.239   7.701
 1088POPC   NC317375  17.519  19.660   9.597
 1088POPC   PO417376  16.957  19.297   9.459
 1088POPC   GL117377  17.191  19.577   9.190
 1088POPC   GL217378  17.134  19.936   9.146
 1088POPC   C1A17379  17.475  19.622   8.827
 1088POPC   D2A17380  17.406  19.529   8.359
 1088POPC   C3A17381  17.192  19.726   7.992
 1088POPC   C4A17382  17.478  19.962   7.700
 1088POPC   C1B17383  17.223  20.031   8.687
 1088POPC   C2B17384  17.357  20.148   8.243
 1088POPC   C3B17385  17.593  20.399   7.929
 1088POPC   C4B17386  17.483  20.512   7.497
 1089POPC   NC317387  31.198  32.162   9.448
 1089POPC   PO417388  31.894  32.386   9.464
 1089POPC   GL117389  31.599  32.265   9.108
 1089POPC   GL217390  31.397  31.937   9.043
 1089POPC   C1A17391  31.273  32.391   8.798
 1089POPC   D2A17392  31.256  32.600   8.432
 1089POPC   C3A17393  31.680  32.533   8.247
 1089POPC   C4A17394  31.771  32.276   7.874
 1089POPC   C1B17395  31.089  31.924   8.692
 1089POPC   C2B17396  31.186  32.100   8.285
 1089POPC   C3B17397  31.058  32.196   7.853
 1089POPC   C4B17398  31.101  31.993   7.416
 1090POPC   NC317399  36.519  43.883   9.669
 1090POPC   PO417400  37.216  43.928   9.623
 1090POPC   GL117401  37.035  43.831   9.237
 1090POPC   GL217402  36.724  44.022   9.189
 1090POPC   C1A17403  37.002  43.703   8.814
 1090POPC   D2A17404  36.868  43.945   8.482
 1090POPC   C3A17405  36.771  43.712   8.144
 1090POPC   C4A17406  36.869  43.634   7.739
 1090POPC   C1B17407  36.446  44.036   8.820
 1090POPC   C2B17408  36.362  44.004   8.375
 1090POPC   C3B17409  36.640  44.227   8.080
 1090POPC   C4B17410  36.705  44.224   7.643
 1091POPC   NC317411   2.693  27.301   9.473
 1091POPC   PO417412   2.523  26.738   9.860
 1091POPC   GL117413   2.685  26.811   9.405
 1091POPC   GL217414   3.021  26.933   9.332
 1091POPC   C1A17415   2.670  26.915   8.895
 1091POPC   D2A17416   2.491  26.781   8.449
 1091POPC   C3A17417   2.540  26.839   7.973
 1091POPC   C4A17418   2.912  26.666   7.729
 1091POPC   C1B17419   3.158  27.095   8.933
 1091POPC   C2B17420   2.984  27.164   8.562
 1091POPC   C3B17421   2.967  26.886   8.237
 1091POPC   C4B17422   3.289  26.898   7.975
 1092POPC   NC317423   4.906  39.285   9.451
 1092POPC   PO417424   5.332  39.762   9.390
 1092POPC   GL117425   5.217  39.432   9.078
 1092POPC   GL217426   5.304  39.070   9.174
 1092POPC   C1A17427   4.931  39.203   8.783
 1092POPC   D2A17428   4.753  39.011   8.420
 1092POPC   C3A17429   4.895  39.181   8.048
 1092POPC   C4A17430   5.028  39.030   7.683
 1092POPC   C1B17431   5.437  39.124   8.725
 1092POPC   C2B17432   5.344  39.149   8.265
 1092POPC   C3B17433   5.505  39.082   7.817
 1092POPC   C4B17434   5.410  38.822   7.418
 1093POPC   NC317435  22.457  11.886   9.592
 1093POPC   PO417436  21.930  12.316   9.572
 1093POPC   GL117437  22.215  12.240   9.222
 1093POPC   GL217438  22.121  11.901   9.206
 1093POPC   C1A17439  22.317  12.404   8.781
 1093POPC   D2A17440  22.128  12.463   8.359
 1093POPC   C3A17441  22.150  12.061   8.145
 1093POPC   C4A17442  22.449  12.022   7.816
 1093POPC   C1B17443  21.990  12.014   8.765
 1093POPC   C2B17444  21.674  12.110   8.421
 1093POPC   C3B17445  21.632  12.027   7.975
 1093POPC   C4B17446  21.943  11.894   7.678
 1094POPC   NC317447  42.408  43.602   9.388
 1094POPC   PO417448  42.860  44.056   9.606
 1094POPC   GL117449  42.702  44.111   9.172
 1094POPC   GL217450  42.351  44.026   9.092
 1094POPC   C1A17451  42.698  43.944   8.751
 1094POPC   D2A17452  42.652  43.629   8.453
 1094POPC   C3A17453  42.393  43.709   8.181
 1094POPC   C4A17454  42.439  43.784   7.736
 1094POPC   C1B17455  42.179  43.767   8.757
 1094POPC   C2B17456  41.916  43.787   8.399
 1094POPC   C3B17457  41.951  43.729   7.971
 1094POPC   C4B17458  41.980  43.960   7.602
 1095POPC   NC317459  13.000  23.812   9.502
 1095POPC   PO417460  13.615  23.827   9.364
 1095POPC   GL117461  13.489  23.749   8.985
 1095POPC   GL217462  13.158  23.705   9.036
 1095POPC   C1A17463  13.481  23.916   8.596
 1095POPC   D2A17464  13.519  24.162   8.262
 1095POPC   C3A17465  13.557  23.891   7.946
 1095POPC   C4A17466  13.862  23.954   7.679
 1095POPC   C1B17467  13.109  23.558   8.649
 1095POPC   C2B17468  13.270  23.540   8.265
 1095POPC   C3B17469  13.119  23.634   7.881
 1095POPC   C4B17470  13.364  23.605   7.516
 1096POPC   NC317471   3.079  34.030   9.323
 1096POPC   PO417472   3.476  34.481   9.582
 1096POPC   GL117473   3.406  34.582   9.147
 1096POPC   GL217474   3.478  34.249   9.096
 1096POPC   C1A17475   3.464  34.815   8.741
 1096POPC   D2A17476   3.741  34.702   8.380
 1096POPC   C3A17477   3.605  34.690   7.933
 1096POPC   C4A17478   3.708  34.276   7.748
 1096POPC   C1B17479   3.557  34.293   8.672
 1096POPC   C2B17480   3.332  34.406   8.289
 1096POPC   C3B17481   3.223  34.278   7.885
 1096POPC   C4B17482   3.139  34.239   7.451
 1097POPC   NC317483  34.289  15.632   9.346
 1097POPC   PO417484  34.449  16.238   9.700
 1097POPC   GL117485  34.739  15.934   9.298
 1097POPC   GL217486  35.037  16.200   9.149
 1097POPC   C1A17487  34.754  15.946   8.820
 1097POPC   D2A17488  34.564  15.761   8.473
 1097POPC   C3A17489  34.401  15.998   8.128
 1097POPC   C4A17490  34.482  16.120   7.709
 1097POPC   C1B17491  35.023  16.378   8.703
 1097POPC   C2B17492  34.864  16.177   8.305
 1097POPC   C3B17493  34.944  15.977   7.913
 1097POPC   C4B17494  35.004  16.026   7.458
 1098POPC   NC317495   8.407   7.431   9.454
 1098POPC   PO417496   8.972   6.973   9.291
 1098POPC   GL117497   8.699   7.330   9.044
 1098POPC   GL217498   8.557   7.694   9.063
 1098POPC   C1A17499   8.280   7.367   8.793
 1098POPC   D2A17500   8.163   7.140   8.396
 1098POPC   C3A17501   7.906   7.274   8.054
 1098POPC   C4A17502   7.951   7.503   7.666
 1098POPC   C1B17503   8.565   7.821   8.691
 1098POPC   C2B17504   8.277   7.783   8.395
 1098POPC   C3B17505   8.318   7.609   8.006
 1098POPC   C4B17506   8.371   7.753   7.596
 1099POPC   NC317507  44.443  40.236   9.455
 1099POPC   PO417508  44.826  39.688   9.630
 1099POPC   GL117509  44.835  39.942   9.224
 1099POPC   GL217510  44.500  39.950   9.052
 1099POPC   C1A17511  44.843  40.234   8.844
 1099POPC   D2A17512  44.551  40.115   8.545
 1099POPC   C3A17513  44.650  40.126   8.114
 1099POPC   C4A17514  44.480  40.228   7.717
 1099POPC   C1B17515  44.712  39.670   8.784
 1099POPC   C2B17516  44.915  39.628   8.392
 1099POPC   C3B17517  44.745  39.625   7.997
 1099POPC   C4B17518  44.743  39.791   7.602
 1100POPC   NC317519   5.041  19.112   9.757
 1100POPC   PO417520   5.579  18.921   9.428
 1100POPC   GL117521   5.210  19.047   9.251
 1100POPC   GL217522   5.086  19.347   9.125
 1100POPC   C1A17523   5.109  18.991   8.789
 1100POPC   D2A17524   4.835  18.828   8.504
 1100POPC   C3A17525   4.979  18.765   8.095
 1100POPC   C4A17526   5.099  18.983   7.725
 1100POPC   C1B17527   4.821  19.401   8.712
 1100POPC   C2B17528   4.868  19.291   8.264
 1100POPC   C3B17529   4.825  19.389   7.832
 1100POPC   C4B17530   4.981  19.375   7.412
 1101POPC   NC317531  37.232  15.264   9.401
 1101POPC   PO417532  36.609  14.835   9.483
 1101POPC   GL117533  36.650  15.165   9.191
 1101POPC   GL217534  36.922  15.056   9.039
 1101POPC   C1A17535  36.572  15.311   8.748
 1101POPC   D2A17536  36.477  15.168   8.329
 1101POPC   C3A17537  36.546  15.482   8.010
 1101POPC   C4A17538  36.883  15.442   7.742
 1101POPC   C1B17539  37.087  15.372   8.743
 1101POPC   C2B17540  36.964  15.379   8.303
 1101POPC   C3B17541  37.152  15.092   7.987
 1101POPC   C4B17542  37.325  15.207   7.605
 1102POPC   NC317543  27.320  25.840   9.460
 1102POPC   PO417544  27.912  26.138   9.562
 1102POPC   GL117545  27.701  26.228   9.198
 1102POPC   GL217546  27.662  25.921   9.099
 1102POPC   C1A17547  27.714  26.287   8.743
 1102POPC   D2A17548  27.807  26.032   8.356
 1102POPC   C3A17549  27.533  25.964   8.010
 1102POPC   C4A17550  27.555  26.240   7.667
 1102POPC   C1B17551  27.821  25.743   8.779
 1102POPC   C2B17552  27.720  25.500   8.424
 1102POPC   C3B17553  27.898  25.596   8.068
 1102POPC   C4B17554  28.035  25.959   7.850
 1103POPC   NC317555  37.327  41.138   9.410
 1103POPC   PO417556  37.708  40.729   9.679
 1103POPC   GL117557  37.798  40.806   9.260
 1103POPC   GL217558  37.524  40.653   9.159
 1103POPC   C1A17559  37.872  40.865   8.801
 1103POPC   D2A17560  37.833  40.621   8.419
 1103POPC   C3A17561  37.720  40.782   8.017
 1103POPC   C4A17562  37.875  40.798   7.584
 1103POPC   C1B17563  37.422  40.611   8.742
 1103POPC   C2B17564  37.403  40.896   8.409
 1103POPC   C3B17565  37.233  40.913   7.996
 1103POPC   C4B17566  37.344  40.514   7.748
 1104POPC   NC317567  30.440  30.421   9.481
 1104POPC   PO417568  30.875  30.902   9.521
 1104POPC   GL117569  30.755  30.732   9.180
 1104POPC   GL217570  30.427  30.828   9.184
 1104POPC   C1A17571  30.791  30.832   8.762
 1104POPC   D2A17572  30.703  30.626   8.369
 1104POPC   C3A17573  30.762  30.797   7.956
 1104POPC   C4A17574  30.748  30.696   7.495
 1104POPC   C1B17575  30.304  30.654   8.802
 1104POPC   C2B17576  30.184  30.716   8.401
 1104POPC   C3B17577  30.312  30.550   7.999
 1104POPC   C4B17578  30.403  30.307   7.607
 1105POPC   NC317579  12.981  41.780   9.695
 1105POPC   PO417580  12.500  41.357   9.407
 1105POPC   GL117581  12.717  41.270   9.045
 1105POPC   GL217582  12.985  41.540   8.953
 1105POPC   C1A17583  12.606  41.463   8.649
 1105POPC   D2A17584  12.941  41.615   8.425
 1105POPC   C3A17585  12.929  41.466   8.049
 1105POPC   C4A17586  12.673  41.681   7.827
 1105POPC   C1B17587  13.361  41.509   8.686
 1105POPC   C2B17588  13.439  41.523   8.281
 1105POPC   C3B17589  13.331  41.769   7.978
 1105POPC   C4B17590  13.138  41.668   7.608
 1106POPC   NC317591  36.486   0.973   9.647
 1106POPC   PO417592  36.915   1.514   9.565
 1106POPC   GL117593  37.047   1.160   9.275
 1106POPC   GL217594  36.736   0.978   9.192
 1106POPC   C1A17595  37.133   0.988   8.834
 1106POPC   D2A17596  37.342   1.127   8.415
 1106POPC   C3A17597  37.121   1.185   8.021
 1106POPC   C4A17598  36.858   1.510   7.771
 1106POPC   C1B17599  36.567   0.981   8.767
 1106POPC   C2B17600  36.648   1.173   8.367
 1106POPC   C3B17601  36.651   1.034   7.956
 1106POPC   C4B17602  36.891   1.024   7.586
 1107POPC   NC317603  34.540  19.531   9.461
 1107POPC   PO417604  35.005  19.998   9.289
 1107POPC   GL117605  34.639  19.920   9.058
 1107POPC   GL217606  34.346  20.014   9.202
 1107POPC   C1A17607  34.454  19.635   8.780
 1107POPC   D2A17608  34.608  19.496   8.409
 1107POPC   C3A17609  34.640  19.818   8.141
 1107POPC   C4A17610  34.730  19.705   7.719
 1107POPC   C1B17611  34.231  20.108   8.757
 1107POPC   C2B17612  34.108  19.933   8.320
 1107POPC   C3B17613  34.230  19.769   7.847
 1107POPC   C4B17614  34.435  20.035   7.477
 1108POPC   NC317615  19.097  32.096   9.555
 1108POPC   PO417616  18.648  31.707   9.273
 1108POPC   GL117617  18.915  32.094   9.071
 1108POPC   GL217618  19.236  32.336   9.129
 1108POPC   C1A17619  18.995  32.231   8.645
 1108POPC   D2A17620  18.869  32.597   8.371
 1108POPC   C3A17621  18.794  32.400   7.996
 1108POPC   C4A17622  19.129  32.150   7.856
 1108POPC   C1B17623  19.260  32.621   8.769
 1108POPC   C2B17624  19.369  32.495   8.327
 1108POPC   C3B17625  19.260  32.643   7.905
 1108POPC   C4B17626  19.348  32.494   7.487
 1109POPC   NC317627   9.746  37.287   9.703
 1109POPC   PO417628   9.822  37.878   9.431
 1109POPC   GL117629   9.783  37.483   9.202
 1109POPC   GL217630  10.098  37.310   9.307
 1109POPC   C1A17631   9.683  37.519   8.742
 1109POPC   D2A17632   9.594  37.946   8.528
 1109POPC   C3A17633   9.512  37.943   8.083
 1109POPC   C4A17634   9.637  37.688   7.749
 1109POPC   C1B17635  10.199  37.471   8.897
 1109POPC   C2B17636  10.120  37.402   8.481
 1109POPC   C3B17637  10.041  37.433   8.051
 1109POPC   C4B17638   9.862  37.244   7.682
 1110POPC   NC317639  42.660  39.129   9.425
 1110POPC   PO417640  43.272  39.333   9.510
 1110POPC   GL117641  43.311  39.152   9.128
 1110POPC   GL217642  42.984  39.028   9.026
 1110POPC   C1A17643  43.277  39.295   8.697
 1110POPC   D2A17644  43.027  39.241   8.335
 1110POPC   C3A17645  43.291  39.230   8.003
 1110POPC   C4A17646  43.349  39.054   7.621
 1110POPC   C1B17647  43.103  38.794   8.626
 1110POPC   C2B17648  42.902  38.766   8.204
 1110POPC   C3B17649  42.834  38.996   7.819
 1110POPC   C4B17650  42.923  38.966   7.357
 1111POPC   NC317651  17.587  30.941   9.598
 1111POPC   PO417652  17.680  30.426   9.258
 1111POPC   GL117653  17.555  30.466   8.899
 1111POPC   GL217654  17.330  30.227   8.880
 1111POPC   C1A17655  17.637  30.696   8.525
 1111POPC   D2A17656  17.375  30.781   8.173
 1111POPC   C3A17657  17.419  30.929   7.777
 1111POPC   C4A17658  17.337  30.789   7.368
 1111POPC   C1B17659  17.582  30.187   8.475
 1111POPC   C2B17660  17.525  30.320   8.056
 1111POPC   C3B17661  17.305  30.392   7.698
 1111POPC   C4B17662  17.460  30.301   7.271
 1112POPC   NC317663  33.246   9.605   9.448
 1112POPC   PO417664  33.528   9.022   9.494
 1112POPC   GL117665  33.828   8.942   9.150
 1112POPC   GL217666  34.056   9.216   9.080
 1112POPC   C1A17667  33.741   8.750   8.766
 1112POPC   D2A17668  33.874   8.724   8.355
 1112POPC   C3A17669  33.765   8.857   7.984
 1112POPC   C4A17670  33.671   8.670   7.597
 1112POPC   C1B17671  34.165   9.045   8.685
 1112POPC   C2B17672  34.083   9.170   8.277
 1112POPC   C3B17673  34.247   8.972   7.932
 1112POPC   C4B17674  34.139   8.855   7.499
 1113POPC   NC317675   0.415  20.897   9.495
 1113POPC   PO417676   0.002  20.381   9.442
 1113POPC   GL117677   0.349  20.461   9.176
 1113POPC   GL217678   0.682  20.304   9.222
 1113POPC   C1A17679   0.421  20.707   8.827
 1113POPC   D2A17680   0.325  20.911   8.442
 1113POPC   C3A17681   0.522  20.750   8.063
 1113POPC   C4A17682   0.369  20.544   7.675
 1113POPC   C1B17683   0.588  20.184   8.781
 1113POPC   C2B17684   0.522  20.319   8.348
 1113POPC   C3B17685   0.693  20.243   7.907
 1113POPC   C4B17686   0.694  20.267   7.404
 1114POPC   NC317687  22.675  32.097   9.881
 1114POPC   PO417688  22.934  32.662   9.732
 1114POPC   GL117689  23.126  32.290   9.458
 1114POPC   GL217690  23.161  32.532   9.215
 1114POPC   C1A17691  23.021  32.083   9.027
 1114POPC   D2A17692  23.073  32.111   8.584
 1114POPC   C3A17693  23.029  32.141   8.145
 1114POPC   C4A17694  23.102  32.169   7.712
 1114POPC   C1B17695  22.882  32.542   8.820
 1114POPC   C2B17696  22.664  32.385   8.402
 1114POPC   C3B17697  22.580  32.324   7.929
 1114POPC   C4B17698  22.651  32.189   7.467
 1115POPC   NC317699  21.622   3.365   9.358
 1115POPC   PO417700  21.112   3.736   9.483
 1115POPC   GL117701  21.204   3.419   9.110
 1115POPC   GL217702  21.375   3.679   9.024
 1115POPC   C1A17703  21.167   3.301   8.677
 1115POPC   D2A17704  21.240   3.591   8.331
 1115POPC   C3A17705  21.024   3.534   7.935
 1115POPC   C4A17706  21.340   3.557   7.629
 1115POPC   C1B17707  21.631   3.527   8.698
 1115POPC   C2B17708  21.868   3.734   8.373
 1115POPC   C3B17709  21.780   3.673   7.929
 1115POPC   C4B17710  21.665   3.949   7.594
 1116POPC   NC317711  36.393  44.845   9.925
 1116POPC   PO417712  36.172  44.201   9.685
 1116POPC   GL117713  36.259  44.300   9.225
 1116POPC   GL217714  35.965  44.445   9.087
 1116POPC   C1A17715  36.357  44.561   8.784
 1116POPC   D2A17716  36.215  44.979   8.524
 1116POPC   C3A17717  36.228  44.989   8.040
 1116POPC   C4A17718  36.316  44.621   7.734
 1116POPC   C1B17719  35.855  44.611   8.679
 1116POPC   C2B17720  36.008  44.576   8.257
 1116POPC   C3B17721  35.815  44.556   7.844
 1116POPC   C4B17722  35.911  44.522   7.385
 1117POPC   NC317723  13.897  14.763   9.657
 1117POPC   PO417724  13.604  14.114   9.522
 1117POPC   GL117725  13.722  14.302   9.144
 1117POPC   GL217726  13.999  14.474   9.251
 1117POPC   C1A17727  13.642  14.217   8.703
 1117POPC   D2A17728  13.362  14.434   8.375
 1117POPC   C3A17729  13.483  14.469   7.959
 1117POPC   C4A17730  13.667  14.075   7.825
 1117POPC   C1B17731  14.040  14.578   8.828
 1117POPC   C2B17732  13.872  14.584   8.407
 1117POPC   C3B17733  13.988  14.435   7.997
 1117POPC   C4B17734  14.090  14.723   7.664
 1118POPC   NC317735  36.253  33.956   9.718
 1118POPC   PO417736  35.826  33.497   9.654
 1118POPC   GL117737  36.166  33.653   9.310
 1118POPC   GL217738  36.205  33.998   9.204
 1118POPC   C1A17739  36.223  33.645   8.817
 1118POPC   D2A17740  35.987  33.766   8.418
 1118POPC   C3A17741  36.136  33.679   7.957
 1118POPC   C4A17742  36.407  33.383   7.690
 1118POPC   C1B17743  36.012  34.128   8.808
 1118POPC   C2B17744  36.252  34.200   8.430
 1118POPC   C3B17745  36.346  34.132   7.995
 1118POPC   C4B17746  36.458  34.207   7.592
 1119POPC   NC317747  11.446  23.621   9.874
 1119POPC   PO417748  11.065  23.891   9.441
 1119POPC   GL117749  11.230  23.591   9.197
 1119POPC   GL217750  11.531  23.568   9.362
 1119POPC   C1A17751  11.209  23.579   8.778
 1119POPC   D2A17752  11.305  23.875   8.502
 1119POPC   C3A17753  11.084  23.803   8.142
 1119POPC   C4A17754  11.277  23.815   7.754
 1119POPC   C1B17755  11.675  23.702   8.936
 1119POPC   C2B17756  11.733  23.549   8.535
 1119POPC   C3B17757  11.579  23.618   8.136
 1119POPC   C4B17758  11.595  23.416   7.741
 1120POPC   NC317759  38.838  16.342   9.411
 1120POPC   PO417760  38.333  16.698   9.353
 1120POPC   GL117761  38.639  16.826   9.108
 1120POPC   GL217762  38.695  16.509   8.963
 1120POPC   C1A17763  38.525  16.937   8.730
 1120POPC   D2A17764  38.357  16.811   8.409
 1120POPC   C3A17765  38.580  16.871   8.100
 1120POPC   C4A17766  38.554  16.588   7.811
 1120POPC   C1B17767  38.291  16.368   8.808
 1120POPC   C2B17768  38.140  16.294   8.410
 1120POPC   C3B17769  38.134  16.305   7.979
 1120POPC   C4B17770  38.122  16.498   7.573
 1121POPC   NC317771  20.198  16.147   9.375
 1121POPC   PO417772  19.560  16.185   9.427
 1121POPC   GL117773  19.785  15.898   9.142
 1121POPC   GL217774  19.554  15.653   9.003
 1121POPC   C1A17775  20.073  15.691   8.798
 1121POPC   D2A17776  20.209  15.599   8.336
 1121POPC   C3A17777  19.972  15.840   8.006
 1121POPC   C4A17778  19.979  16.267   7.847
 1121POPC   C1B17779  19.693  16.004   8.676
 1121POPC   C2B17780  19.835  16.277   8.361
 1121POPC   C3B17781  19.526  16.216   8.052
 1121POPC   C4B17782  19.572  15.987   7.683
 1122POPC   NC317783  21.615  43.288   9.865
 1122POPC   PO417784  21.124  43.396   9.497
 1122POPC   GL117785  21.296  43.203   9.119
 1122POPC   GL217786  21.575  43.413   9.082
 1122POPC   C1A17787  21.195  43.297   8.658
 1122POPC   D2A17788  21.073  43.535   8.285
 1122POPC   C3A17789  21.055  43.312   7.888
 1122POPC   C4A17790  21.301  42.946   7.819
 1122POPC   C1B17791  21.678  43.155   8.693
 1122POPC   C2B17792  21.664  43.177   8.214
 1122POPC   C3B17793  21.599  43.383   7.806
 1122POPC   C4B17794  21.740  43.518   7.357
 1123POPC   NC317795   6.447   7.996   9.499
 1123POPC   PO417796   6.928   8.485   9.574
 1123POPC   GL117797   6.640   8.350   9.190
 1123POPC   GL217798   6.641   7.983   9.047
 1123POPC   C1A17799   6.449   8.369   8.773
 1123POPC   D2A17800   6.256   8.205   8.381
 1123POPC   C3A17801   6.511   8.080   8.068
 1123POPC   C4A17802   6.639   8.101   7.653
 1123POPC   C1B17803   6.430   7.656   8.806
 1123POPC   C2B17804   6.138   7.662   8.470
 1123POPC   C3B17805   6.068   7.794   8.091
 1123POPC   C4B17806   6.293   7.770   7.719
 1124POPC   NC317807  39.851  13.392   9.400
 1124POPC   PO417808  40.272  13.925   9.480
 1124POPC   GL117809  40.130  13.744   9.103
 1124POPC   GL217810  39.774  13.800   9.096
 1124POPC   C1A17811  40.296  13.528   8.711
 1124POPC   D2A17812  40.510  13.595   8.303
 1124POPC   C3A17813  40.323  13.405   7.938
 1124POPC   C4A17814  39.874  13.448   7.805
 1124POPC   C1B17815  39.801  13.517   8.743
 1124POPC   C2B17816  39.939  13.558   8.307
 1124POPC   C3B17817  39.722  13.872   8.049
 1124POPC   C4B17818  39.554  13.963   7.650
 1125POPC   NC317819  11.747  12.247   9.592
 1125POPC   PO417820  12.180  11.696   9.573
 1125POPC   GL117821  12.198  11.924   9.171
 1125POPC   GL217822  12.053  12.278   9.193
 1125POPC   C1A17823  12.198  12.113   8.745
 1125POPC   D2A17824  12.262  11.993   8.352
 1125POPC   C3A17825  12.202  12.093   7.933
 1125POPC   C4A17826  11.995  11.807   7.653
 1125POPC   C1B17827  11.665  12.363   8.938
 1125POPC   C2B17828  11.745  12.262   8.514
 1125POPC   C3B17829  11.578  12.233   8.128
 1125POPC   C4B17830  11.764  12.255   7.750
 1126POPC   NC317831  27.261   6.666   9.550
 1126POPC   PO417832  27.914   6.388   9.614
 1126POPC   GL117833  27.661   6.600   9.229
 1126POPC   GL217834  27.315   6.412   9.118
 1126POPC   C1A17835  27.660   6.567   8.763
 1126POPC   D2A17836  27.411   6.741   8.410
 1126POPC   C3A17837  27.600   6.784   7.981
 1126POPC   C4A17838  27.544   6.864   7.541
 1126POPC   C1B17839  27.340   6.160   8.748
 1126POPC   C2B17840  27.554   6.199   8.387
 1126POPC   C3B17841  27.399   6.320   8.023
 1126POPC   C4B17842  27.563   6.372   7.642
 1127POPC   NC317843  22.461   6.274   9.482
 1127POPC   PO417844  22.405   7.025   9.445
 1127POPC   GL117845  22.180   6.754   9.125
 1127POPC   GL217846  22.260   6.383   9.034
 1127POPC   C1A17847  22.144   6.751   8.666
 1127POPC   D2A17848  22.400   6.756   8.299
 1127POPC   C3A17849  22.334   6.935   7.896
 1127POPC   C4A17850  21.878   6.983   7.887
 1127POPC   C1B17851  22.042   6.148   8.705
 1127POPC   C2B17852  21.956   6.393   8.329
 1127POPC   C3B17853  22.090   6.477   7.918
 1127POPC   C4B17854  22.244   6.183   7.641
 1128POPC   NC317855   9.187  42.251   9.533
 1128POPC   PO417856   8.561  42.581   9.344
 1128POPC   GL117857   8.963  42.560   9.179
 1128POPC   GL217858   8.915  42.239   9.081
 1128POPC   C1A17859   9.152  42.639   8.781
 1128POPC   D2A17860   8.929  42.467   8.438
 1128POPC   C3A17861   9.064  42.505   8.026
 1128POPC   C4A17862   8.835  42.415   7.642
 1128POPC   C1B17863   9.155  42.127   8.745
 1128POPC   C2B17864   9.382  42.091   8.361
 1128POPC   C3B17865   9.287  41.997   7.955
 1128POPC   C4B17866   9.247  42.105   7.550
 1129POPC   NC317867  18.963   3.681   9.445
 1129POPC   PO417868  18.996   4.360   9.545
 1129POPC   GL117869  19.182   4.372   9.158
 1129POPC   GL217870  19.224   4.027   9.147
 1129POPC   C1A17871  19.020   4.590   8.818
 1129POPC   D2A17872  19.054   4.492   8.401
 1129POPC   C3A17873  18.810   4.408   8.089
 1129POPC   C4A17874  18.827   4.687   7.776
 1129POPC   C1B17875  19.161   4.083   8.702
 1129POPC   C2B17876  19.397   4.131   8.296
 1129POPC   C3B17877  19.179   4.080   7.904
 1129POPC   C4B17878  18.756   3.993   7.773
 1130POPC   NC317879  31.159  22.796   9.279
 1130POPC   PO417880  31.721  23.123   9.491
 1130POPC   GL117881  31.686  22.976   9.103
 1130POPC   GL217882  31.674  22.622   9.062
 1130POPC   C1A17883  31.861  23.011   8.718
 1130POPC   D2A17884  31.700  23.048   8.307
 1130POPC   C3A17885  31.702  22.754   8.003
 1130POPC   C4A17886  31.774  22.932   7.621
 1130POPC   C1B17887  31.431  22.750   8.669
 1130POPC   C2B17888  31.242  22.813   8.257
 1130POPC   C3B17889  31.231  22.627   7.849
 1130POPC   C4B17890  31.484  22.471   7.535
 1131POPC   NC317891  18.741  43.311   9.456
 1131POPC   PO417892  19.261  42.842   9.571
 1131POPC   GL117893  18.990  42.939   9.217
 1131POPC   GL217894  18.609  42.854   9.216
 1131POPC   C1A17895  18.883  43.029   8.792
 1131POPC   D2A17896  19.164  43.023   8.412
 1131POPC   C3A17897  19.012  42.987   7.990
 1131POPC   C4A17898  19.081  43.102   7.573
 1131POPC   C1B17899  18.560  42.636   8.805
 1131POPC   C2B17900  18.758  42.707   8.385
 1131POPC   C3B17901  18.566  42.743   7.964
 1131POPC   C4B17902  18.583  42.936   7.523
 1132POPC   NC317903   1.146  13.929   9.610
 1132POPC   PO417904   0.643  13.991   9.169
 1132POPC   GL117905   1.069  13.809   9.120
 1132POPC   GL217906   1.097  13.447   9.257
 1132POPC   C1A17907   1.297  13.823   8.730
 1132POPC   D2A17908   1.039  13.614   8.387
 1132POPC   C3A17909   1.103  13.792   7.996
 1132POPC   C4A17910   1.454  13.805   7.758
 1132POPC   C1B17911   1.156  13.357   8.839
 1132POPC   C2B17912   1.473  13.377   8.497
 1132POPC   C3B17913   1.419  13.365   8.051
 1132POPC   C4B17914   1.043  13.328   7.788
 1133POPC   NC317915  32.967   6.333   9.539
 1133POPC   PO417916  33.474   6.757   9.607
 1133POPC   GL117917  33.249   6.637   9.252
 1133POPC   GL217918  33.381   6.320   9.138
 1133POPC   C1A17919  33.036   6.622   8.819
 1133POPC   D2A17920  32.895   6.433   8.395
 1133POPC   C3A17921  32.828   6.698   8.017
 1133POPC   C4A17922  32.831   7.055   7.731
 1133POPC   C1B17923  33.540   6.710   8.868
 1133POPC   C2B17924  33.486   6.886   8.481
 1133POPC   C3B17925  33.340   6.646   8.146
 1133POPC   C4B17926  33.309   6.709   7.702
 1134POPC   NC317927  42.676  18.886   9.379
 1134POPC   PO417928  42.174  19.269   9.416
 1134POPC   GL117929  42.276  19.056   9.074
 1134POPC   GL217930  42.143  18.741   9.105
 1134POPC   C1A17931  42.356  19.138   8.659
 1134POPC   D2A17932  42.143  19.172   8.296
 1134POPC   C3A17933  42.294  19.078   7.873
 1134POPC   C4A17934  42.359  19.294   7.432
 1134POPC   C1B17935  42.489  18.670   8.774
 1134POPC   C2B17936  42.492  18.780   8.306
 1134POPC   C3B17937  42.734  18.832   7.928
 1134POPC   C4B17938  42.623  18.869   7.512
 1135POPC   NC317939   8.733  43.387   9.601
 1135POPC   PO417940   8.865  44.056   9.608
 1135POPC   GL117941   8.795  43.780   9.259
 1135POPC   GL217942   9.104  43.787   9.102
 1135POPC   C1A17943   8.742  43.639   8.808
 1135POPC   D2A17944   8.990  43.771   8.442
 1135POPC   C3A17945   8.774  43.783   8.067
 1135POPC   C4A17946   8.726  43.931   7.650
 1135POPC   C1B17947   9.354  43.664   8.780
 1135POPC   C2B17948   9.451  43.562   8.346
 1135POPC   C3B17949   9.219  43.388   8.001
 1135POPC   C4B17950   8.920  43.474   7.680
 1136POPC   NC317951  12.522  20.797   9.689
 1136POPC   PO417952  12.531  20.238   9.222
 1136POPC   GL117953  12.646  20.704   9.181
 1136POPC   GL217954  13.004  20.848   9.192
 1136POPC   C1A17955  12.675  20.904   8.765
 1136POPC   D2A17956  12.510  20.695   8.391
 1136POPC   C3A17957  12.696  20.491   8.029
 1136POPC   C4A17958  12.661  20.070   7.827
 1136POPC   C1B17959  13.171  20.744   8.768
 1136POPC   C2B17960  13.015  20.837   8.353
 1136POPC   C3B17961  13.138  20.736   7.936
 1136POPC   C4B17962  12.829  20.927   7.693
 1137POPC   NC317963  12.700  38.318   9.445
 1137POPC   PO417964  13.273  38.558   9.366
 1137POPC   GL117965  13.140  38.477   9.004
 1137POPC   GL217966  12.847  38.606   9.050
 1137POPC   C1A17967  13.168  38.479   8.549
 1137POPC   D2A17968  13.329  38.755   8.231
 1137POPC   C3A17969  13.123  38.708   7.835
 1137POPC   C4A17970  12.802  38.420   7.879
 1137POPC   C1B17971  12.870  38.861   8.717
 1137POPC   C2B17972  12.806  38.756   8.313
 1137POPC   C3B17973  12.471  38.713   8.099
 1137POPC   C4B17974  12.596  38.824   7.683
 1138POPC   NC317975   9.756  40.617   9.396
 1138POPC   PO417976   9.637  41.272   9.540
 1138POPC   GL117977   9.752  41.068   9.158
 1138POPC   GL217978  10.096  41.066   9.178
 1138POPC   C1A17979   9.628  40.829   8.783
 1138POPC   D2A17980   9.655  40.771   8.343
 1138POPC   C3A17981   9.925  40.506   8.078
 1138POPC   C4A17982   9.739  40.590   7.688
 1138POPC   C1B17983  10.131  40.889   8.738
 1138POPC   C2B17984  10.155  40.910   8.275
 1138POPC   C3B17985   9.871  41.020   7.928
 1138POPC   C4B17986   9.934  41.049   7.492
 1139POPC   NC317987  38.720  19.681   9.460
 1139POPC   PO417988  38.063  19.734   9.418
 1139POPC   GL117989  38.370  20.001   9.171
 1139POPC   GL217990  38.598  20.310   9.186
 1139POPC   C1A17991  38.504  19.817   8.790
 1139POPC   D2A17992  38.304  19.660   8.431
 1139POPC   C3A17993  38.598  19.543   8.114
 1139POPC   C4A17994  38.503  19.674   7.727
 1139POPC   C1B17995  38.696  20.280   8.745
 1139POPC   C2B17996  38.361  20.176   8.421
 1139POPC   C3B17997  38.349  20.146   7.959
 1139POPC   C4B17998  38.625  20.146   7.588
 1140POPC   NC317999  39.763  26.651   9.563
 1140POPC   PO418000  40.378  26.787   9.399
 1140POPC   GL118001  40.079  26.843   9.107
 1140POPC   GL218002  40.346  27.075   8.961
 1140POPC   C1A18003  39.885  27.030   8.739
 1140POPC   D2A18004  40.050  27.063   8.297
 1140POPC   C3A18005  39.947  26.748   7.951
 1140POPC   C4A18006  39.750  26.971   7.629
 1140POPC   C1B18007  40.475  26.684   8.768
 1140POPC   C2B18008  40.312  26.625   8.376
 1140POPC   C3B18009  40.439  26.852   8.017
 1140POPC   C4B18010  40.286  26.891   7.572
 1141POPC   NC318011   1.087  44.933   9.388
 1141POPC   PO418012   1.552  44.610   9.771
 1141POPC   GL118013   1.522  44.575   9.279
 1141POPC   GL218014   1.174  44.470   9.155
 1141POPC   C1A18015   1.474  44.738   8.834
 1141POPC   D2A18016   1.321  44.765   8.400
 1141POPC   C3A18017   1.416  44.507   8.043
 1141POPC   C4A18018   1.429  44.668   7.634
 1141POPC   C1B18019   0.926  44.633   8.766
 1141POPC   C2B18020   0.817  44.865   8.373
 1141POPC   C3B18021   0.896  44.707   7.952
 1141POPC   C4B18022   0.996  44.292   7.734
 1142POPC   NC318023  24.545  28.949   9.525
 1142POPC   PO418024  24.325  29.584   9.649
 1142POPC   GL118025  24.520  29.362   9.248
 1142POPC   GL218026  24.334  29.028   9.086
 1142POPC   C1A18027  24.553  29.352   8.787
 1142POPC   D2A18028  24.466  29.098   8.432
 1142POPC   C3A18029  24.517  29.435   8.163
 1142POPC   C4A18030  24.529  29.459   7.749
 1142POPC   C1B18031  24.689  28.845   8.832
 1142POPC   C2B18032  24.972  28.908   8.467
 1142POPC   C3B18033  24.860  29.071   8.081
 1142POPC   C4B18034  24.469  28.954   7.873
 1143POPC   NC318035  21.855   7.069   9.479
 1143POPC   PO418036  21.290   6.617   9.429
 1143POPC   GL118037  21.665   6.657   9.217
 1143POPC   GL218038  21.672   6.976   9.028
 1143POPC   C1A18039  21.738   6.504   8.830
 1143POPC   D2A18040  21.491   6.297   8.533
 1143POPC   C3A18041  21.507   6.336   8.076
 1143POPC   C4A18042  21.612   6.585   7.732
 1143POPC   C1B18043  21.342   6.799   8.790
 1143POPC   C2B18044  21.386   6.773   8.370
 1143POPC   C3B18045  21.127   6.777   8.055
 1143POPC   C4B18046  21.177   6.831   7.652
 1144POPC   NC318047  32.857  29.461   9.501
 1144POPC   PO418048  33.129  30.018   9.692
 1144POPC   GL118049  33.010  29.925   9.277
 1144POPC   GL218050  33.280  29.716   9.181
 1144POPC   C1A18051  32.891  29.791   8.833
 1144POPC   D2A18052  32.913  30.000   8.412
 1144POPC   C3A18053  32.850  29.796   8.003
 1144POPC   C4A18054  32.972  30.012   7.623
 1144POPC   C1B18055  33.336  30.098   8.899
 1144POPC   C2B18056  33.442  30.161   8.457
 1144POPC   C3B18057  33.303  30.080   8.029
 1144POPC   C4B18058  33.369  29.639   7.914
 1145POPC   NC318059  44.994  12.789   9.292
 1145POPC   PO418060  44.376  12.772   9.580
 1145POPC   GL118061  44.550  12.832   9.079
 1145POPC   GL218062  44.487  13.143   8.954
 1145POPC   C1A18063  44.401  12.816   8.599
 1145POPC   D2A18064  44.587  13.082   8.249
 1145POPC   C3A18065  44.594  12.814   7.899
 1145POPC   C4A18066  44.343  12.442   7.771
 1145POPC   C1B18067  44.862  13.004   8.687
 1145POPC   C2B18068   0.041  12.715   8.363
 1145POPC   C3B18069   0.127  12.694   7.923
 1145POPC   C4B18070   0.027  13.048   7.682
 1146POPC   NC318071   3.056  32.019   9.590
 1146POPC   PO418072   2.282  32.090   9.607
 1146POPC   GL118073   2.693  32.140   9.252
 1146POPC   GL218074   2.722  32.473   9.033
 1146POPC   C1A18075   2.827  32.047   8.786
 1146POPC   D2A18076   2.849  32.339   8.450
 1146POPC   C3A18077   2.800  32.112   8.077
 1146POPC   C4A18078   2.644  32.324   7.743
 1146POPC   C1B18079   2.941  32.760   8.740
 1146POPC   C2B18080   3.136  32.813   8.360
 1146POPC   C3B18081   2.951  32.650   8.004
 1146POPC   C4B18082   2.997  32.597   7.522
 1147POPC   NC318083  41.854  37.902   9.448
 1147POPC   PO418084  41.302  37.526   9.706
 1147POPC   GL118085  41.337  37.591   9.241
 1147POPC   GL218086  41.324  37.275   9.065
 1147POPC   C1A18087  41.601  37.687   8.853
 1147POPC   D2A18088  41.657  38.033   8.575
 1147POPC   C3A18089  41.628  37.902   8.151
 1147POPC   C4A18090  41.721  37.897   7.715
 1147POPC   C1B18091  41.132  37.502   8.709
 1147POPC   C2B18092  41.293  37.484   8.289
 1147POPC   C3B18093  41.345  37.331   7.882
 1147POPC   C4B18094  41.264  37.718   7.746
 1148POPC   NC318095  44.139  24.262   9.323
 1148POPC   PO418096  43.778  24.867   9.376
 1148POPC   GL118097  43.927  24.682   9.041
 1148POPC   GL218098  44.222  24.811   8.976
 1148POPC   C1A18099  43.796  24.627   8.620
 1148POPC   D2A18100  43.860  24.396   8.234
 1148POPC   C3A18101  43.568  24.542   7.939
 1148POPC   C4A18102  43.643  24.894   7.707
 1148POPC   C1B18103  44.272  24.443   8.687
 1148POPC   C2B18104  44.294  24.138   8.342
 1148POPC   C3B18105  44.170  24.155   7.905
 1148POPC   C4B18106  44.013  24.494   7.711
 1149POPC   NC318107  22.315   5.561   9.545
 1149POPC   PO418108  21.978   6.121   9.423
 1149POPC   GL118109  22.189   5.842   9.141
 1149POPC   GL218110  22.526   5.625   9.070
 1149POPC   C1A18111  22.102   5.644   8.770
 1149POPC   D2A18112  22.382   5.634   8.447
 1149POPC   C3A18113  22.106   5.585   8.153
 1149POPC   C4A18114  22.124   5.548   7.785
 1149POPC   C1B18115  22.515   5.997   8.797
 1149POPC   C2B18116  22.459   6.283   8.475
 1149POPC   C3B18117  22.312   6.056   8.134
 1149POPC   C4B18118  22.560   5.801   7.844
 1150POPC   NC318119  34.452  37.573   9.666
 1150POPC   PO418120  34.517  38.196   9.549
 1150POPC   GL118121  34.489  37.820   9.217
 1150POPC   GL218122  34.643  37.490   9.203
 1150POPC   C1A18123  34.384  37.665   8.805
 1150POPC   D2A18124  34.497  37.805   8.424
 1150POPC   C3A18125  34.402  37.587   8.099
 1150POPC   C4A18126  34.157  37.777   7.867
 1150POPC   C1B18127  34.844  37.382   8.825
 1150POPC   C2B18128  34.745  37.345   8.419
 1150POPC   C3B18129  34.903  37.640   8.163
 1150POPC   C4B18130  34.801  37.691   7.750
 1151POPC   NC318131   7.107   4.667   9.713
 1151POPC   PO418132   6.459   4.343   9.491
 1151POPC   GL118133   6.514   4.435   9.085
 1151POPC   GL218134   6.210   4.663   9.059
 1151POPC   C1A18135   6.691   4.270   8.718
 1151POPC   D2A18136   6.546   4.083   8.355
 1151POPC   C3A18137   6.863   4.074   8.035
 1151POPC   C4A18138   6.668   4.157   7.666
 1151POPC   C1B18139   6.486   4.888   8.811
 1151POPC   C2B18140   6.734   4.773   8.530
 1151POPC   C3B18141   6.721   4.553   8.177
 1151POPC   C4B18142   6.850   4.611   7.793
 1152POPC   NC318143   3.397  36.591   9.483
 1152POPC   PO418144   3.696  37.179   9.289
 1152POPC   GL118145   3.423  37.117   8.998
 1152POPC   GL218146   3.465  36.757   9.023
 1152POPC   C1A18147   3.450  37.008   8.577
 1152POPC   D2A18148   3.276  36.743   8.276
 1152POPC   C3A18149   3.331  37.117   8.046
 1152POPC   C4A18150   3.578  37.239   7.720
 1152POPC   C1B18151   3.652  36.550   8.719
 1152POPC   C2B18152   3.861  36.579   8.346
 1152POPC   C3B18153   3.680  36.664   7.966
 1152POPC   C4B18154   3.770  36.735   7.570
 1153POPC   NC318155  15.674  19.640   9.616
 1153POPC   PO418156  16.243  19.992   9.545
 1153POPC   GL118157  15.945  20.000   9.193
 1153POPC   GL218158  15.846  19.643   9.145
 1153POPC   C1A18159  16.014  19.910   8.735
 1153POPC   D2A18160  16.235  19.822   8.325
 1153POPC   C3A18161  15.960  19.863   7.991
 1153POPC   C4A18162  15.821  20.035   7.597
 1153POPC   C1B18163  15.659  19.414   8.820
 1153POPC   C2B18164  15.771  19.574   8.424
 1153POPC   C3B18165  15.786  19.405   8.041
 1153POPC   C4B18166  15.748  19.516   7.650
 1154POPC   NC318167  20.452  42.731   9.415
 1154POPC   PO418168  20.552  42.070   9.246
 1154POPC   GL118169  20.584  42.421   9.004
 1154POPC   GL218170  20.942  42.346   8.901
 1154POPC   C1A18171  20.613  42.577   8.585
 1154POPC   D2A18172  20.982  42.437   8.385
 1154POPC   C3A18173  20.811  42.254   8.034
 1154POPC   C4A18174  20.470  42.372   7.748
 1154POPC   C1B18175  20.673  42.073   8.603
 1154POPC   C2B18176  20.678  41.817   8.250
 1154POPC   C3B18177  20.436  41.850   7.846
 1154POPC   C4B18178  20.358  41.968   7.395
 1155POPC   NC318179  27.638  24.450   9.397
 1155POPC   PO418180  28.031  23.870   9.349
 1155POPC   GL118181  27.710  24.056   9.029
 1155POPC   GL218182  27.401  24.286   8.977
 1155POPC   C1A18183  27.701  24.222   8.585
 1155POPC   D2A18184  27.854  24.503   8.269
 1155POPC   C3A18185  27.839  24.266   7.922
 1155POPC   C4A18186  27.416  24.158   7.869
 1155POPC   C1B18187  27.310  24.735   8.829
 1155POPC   C2B18188  27.217  24.964   8.445
 1155POPC   C3B18189  27.363  24.928   8.065
 1155POPC   C4B18190  27.605  24.699   7.809
 1156POPC   NC318191   8.718   0.181   9.543
 1156POPC   PO418192   8.634   0.841   9.561
 1156POPC   GL118193   8.968   0.493   9.265
 1156POPC   GL218194   8.934   0.115   9.089
 1156POPC   C1A18195   9.177   0.482   8.859
 1156POPC   D2A18196   8.907   0.577   8.529
 1156POPC   C3A18197   9.139   0.459   8.172
 1156POPC   C4A18198   9.311   0.479   7.762
 1156POPC   C1B18199   8.686   0.040   8.715
 1156POPC   C2B18200   8.704   0.200   8.268
 1156POPC   C3B18201   8.874   0.152   7.840
 1156POPC   C4B18202   8.695   0.091   7.454
 1157POPC   NC318203  19.980  35.678   9.423
 1157POPC   PO418204  19.518  35.193   9.295
 1157POPC   GL118205  19.896  35.315   9.067
 1157POPC   GL218206  20.150  35.063   9.005
 1157POPC   C1A18207  19.870  35.431   8.647
 1157POPC   D2A18208  19.667  35.624   8.306
 1157POPC   C3A18209  19.754  35.397   7.934
 1157POPC   C4A18210  19.542  35.039   7.821
 1157POPC   C1B18211  19.868  34.929   8.718
 1157POPC   C2B18212  19.779  35.013   8.303
 1157POPC   C3B18213  20.041  34.971   7.965
 1157POPC   C4B18214  19.964  35.076   7.549
 1158POPC   NC318215  19.454  20.181   9.247
 1158POPC   PO418216  18.912  20.362   9.680
 1158POPC   GL118217  19.024  20.460   9.270
 1158POPC   GL218218  18.937  20.158   9.141
 1158POPC   C1A18219  19.170  20.576   8.835
 1158POPC   D2A18220  19.430  20.579   8.461
 1158POPC   C3A18221  19.173  20.711   8.140
 1158POPC   C4A18222  19.168  20.605   7.730
 1158POPC   C1B18223  18.704  20.368   8.810
 1158POPC   C2B18224  18.699  20.560   8.387
 1158POPC   C3B18225  18.717  20.501   7.936
 1158POPC   C4B18226  18.747  20.463   7.476
 1159POPC   NC318227  24.125  30.801   9.599
 1159POPC   PO418228  24.671  30.496   9.430
 1159POPC   GL118229  24.484  30.661   9.097
 1159POPC   GL218230  24.318  30.968   9.130
 1159POPC   C1A18231  24.383  30.535   8.690
 1159POPC   D2A18232  24.186  30.595   8.339
 1159POPC   C3A18233  24.451  30.467   8.019
 1159POPC   C4A18234  24.582  30.677   7.673
 1159POPC   C1B18235  24.571  31.002   8.719
 1159POPC   C2B18236  24.688  30.889   8.283
 1159POPC   C3B18237  24.721  31.130   7.879
 1159POPC   C4B18238  24.668  31.097   7.406
 1160POPC   NC318239  41.106  33.433   9.477
 1160POPC   PO418240  40.921  32.757   9.505
 1160POPC   GL118241  40.806  33.085   9.180
 1160POPC   GL218242  41.143  33.077   9.103
 1160POPC   C1A18243  40.602  33.334   8.820
 1160POPC   D2A18244  40.549  33.114   8.455
 1160POPC   C3A18245  40.576  33.232   8.041
 1160POPC   C4A18246  40.686  32.935   7.711
 1160POPC   C1B18247  41.021  33.085   8.685
 1160POPC   C2B18248  41.038  33.107   8.258
 1160POPC   C3B18249  41.089  33.408   7.933
 1160POPC   C4B18250  41.114  33.349   7.496
 1161POPC   NC318251  28.730  31.594   9.721
 1161POPC   PO418252  29.378  31.441   9.636
 1161POPC   GL118253  29.358  31.615   9.232
 1161POPC   GL218254  29.022  31.683   9.178
 1161POPC   C1A18255  29.384  31.617   8.794
 1161POPC   D2A18256  29.158  31.641   8.385
 1161POPC   C3A18257  29.330  31.525   7.981
 1161POPC   C4A18258  29.243  31.158   7.764
 1161POPC   C1B18259  28.897  31.427   8.791
 1161POPC   C2B18260  28.673  31.423   8.386
 1161POPC   C3B18261  28.828  31.589   7.973
 1161POPC   C4B18262  28.824  31.394   7.559
 1162POPC   NC318263  43.056  21.578   9.572
 1162POPC   PO418264  42.849  20.965   9.848
 1162POPC   GL118265  42.922  21.105   9.395
 1162POPC   GL218266  43.269  21.114   9.284
 1162POPC   C1A18267  42.876  21.243   8.928
 1162POPC   D2A18268  43.011  21.499   8.576
 1162POPC   C3A18269  42.950  21.337   8.149
 1162POPC   C4A18270  42.956  21.582   7.769
 1162POPC   C1B18271  43.371  21.142   8.831
 1162POPC   C2B18272  43.432  21.286   8.383
 1162POPC   C3B18273  43.421  21.362   7.935
 1162POPC   C4B18274  43.722  21.146   7.667
 1163POPC   NC318275  29.034  32.689   9.674
 1163POPC   PO418276  29.207  33.271   9.412
 1163POPC   GL118277  28.988  33.092   9.067
 1163POPC   GL218278  28.982  32.747   9.151
 1163POPC   C1A18279  29.138  33.019   8.645
 1163POPC   D2A18280  29.357  33.010   8.247
 1163POPC   C3A18281  29.164  33.300   7.983
 1163POPC   C4A18282  29.299  33.473   7.611
 1163POPC   C1B18283  28.708  32.789   8.771
 1163POPC   C2B18284  28.647  33.087   8.388
 1163POPC   C3B18285  28.709  33.004   7.955
 1163POPC   C4B18286  29.091  32.842   7.785
 1164POPC   NC318287  19.205  44.189   9.337
 1164POPC   PO418288  18.729  43.759   9.401
 1164POPC   GL118289  19.041  43.767   9.093
 1164POPC   GL218290  19.224  43.445   9.128
 1164POPC   C1A18291  19.013  43.969   8.691
 1164POPC   D2A18292  19.151  43.811   8.285
 1164POPC   C3A18293  19.095  44.073   7.880
 1164POPC   C4A18294  18.870  44.252   7.521
 1164POPC   C1B18295  19.066  43.469   8.678
 1164POPC   C2B18296  18.833  43.409   8.291
 1164POPC   C3B18297  19.009  43.526   7.876
 1164POPC   C4B18298  19.099  43.784   7.465
 1165POPC   NC318299  38.911  11.152   9.287
 1165POPC   PO418300  38.316  11.209   9.609
 1165POPC   GL118301  38.179  11.468   9.256
 1165POPC   GL218302  38.480  11.381   9.109
 1165POPC   C1A18303  38.060  11.356   8.814
 1165POPC   D2A18304  38.197  11.046   8.497
 1165POPC   C3A18305  38.353  11.307   8.165
 1165POPC   C4A18306  38.283  11.582   7.787
 1165POPC   C1B18307  38.584  11.342   8.678
 1165POPC   C2B18308  38.750  11.048   8.390
 1165POPC   C3B18309  38.707  10.925   7.977
 1165POPC   C4B18310  38.431  11.099   7.709
 1166POPC   NC318311   4.023  21.558   9.606
 1166POPC   PO418312   4.329  20.934   9.550
 1166POPC   GL118313   4.196  21.215   9.252
 1166POPC   GL218314   3.824  21.199   9.268
 1166POPC   C1A18315   4.259  21.483   8.888
 1166POPC   D2A18316   4.133  21.765   8.538
 1166POPC   C3A18317   4.342  21.604   8.191
 1166POPC   C4A18318   4.312  21.378   7.823
 1166POPC   C1B18319   3.938  21.074   8.846
 1166POPC   C2B18320   4.052  21.254   8.478
 1166POPC   C3B18321   4.060  21.053   8.131
 1166POPC   C4B18322   4.225  20.866   7.790
 1167POPC   NC318323  34.548  42.736   9.522
 1167POPC   PO418324  34.630  42.097   9.491
 1167POPC   GL118325  34.568  42.243   9.118
 1167POPC   GL218326  34.273  42.385   9.171
 1167POPC   C1A18327  34.677  42.060   8.732
 1167POPC   D2A18328  34.460  41.957   8.343
 1167POPC   C3A18329  34.677  42.124   7.980
 1167POPC   C4A18330  34.549  42.351   7.615
 1167POPC   C1B18331  34.185  42.088   8.814
 1167POPC   C2B18332  34.003  42.169   8.384
 1167POPC   C3B18333  34.140  42.206   7.932
 1167POPC   C4B18334  34.118  42.115   7.441
 1168POPC   NC318335  16.398  20.434   9.445
 1168POPC   PO418336  15.858  20.813   9.629
 1168POPC   GL118337  15.989  20.657   9.194
 1168POPC   GL218338  16.071  20.936   8.978
 1168POPC   C1A18339  16.128  20.434   8.789
 1168POPC   D2A18340  15.955  20.287   8.373
 1168POPC   C3A18341  16.067  20.360   7.903
 1168POPC   C4A18342  16.186  20.654   7.566
 1168POPC   C1B18343  16.193  20.909   8.559
 1168POPC   C2B18344  16.042  20.792   8.169
 1168POPC   C3B18345  15.777  20.768   7.809
 1168POPC   C4B18346  15.733  20.952   7.402
 1169POPC   NC318347   5.877  32.441   9.500
 1169POPC   PO418348   6.090  31.893   9.243
 1169POPC   GL118349   5.987  32.211   8.976
 1169POPC   GL218350   5.621  32.140   9.013
 1169POPC   C1A18351   6.212  32.334   8.568
 1169POPC   D2A18352   6.193  32.332   8.108
 1169POPC   C3A18353   5.748  32.379   7.958
 1169POPC   C4A18354   5.751  32.504   7.509
 1169POPC   C1B18355   5.683  32.191   8.545
 1169POPC   C2B18356   5.893  31.931   8.215
 1169POPC   C3B18357   5.962  31.994   7.753
 1169POPC   C4B18358   5.596  32.037   7.444
 1170POPC   NC318359  37.154   8.610   9.344
 1170POPC   PO418360  36.543   8.968   9.345
 1170POPC   GL118361  36.896   9.010   9.065
 1170POPC   GL218362  36.899   8.708   8.935
 1170POPC   C1A18363  36.979   9.054   8.599
 1170POPC   D2A18364  36.652   9.176   8.348
 1170POPC   C3A18365  36.698   8.953   7.980
 1170POPC   C4A18366  37.063   9.027   7.754
 1170POPC   C1B18367  37.209   8.599   8.629
 1170POPC   C2B18368  37.107   8.717   8.198
 1170POPC   C3B18369  37.044   8.529   7.828
 1170POPC   C4B18370  36.946   8.667   7.397
 1171POPC   NC318371  31.093   5.289   9.644
 1171POPC   PO418372  30.494   5.237   9.404
 1171POPC   GL118373  30.562   5.249   8.975
 1171POPC   GL218374  30.740   5.536   9.067
 1171POPC   C1A18375  30.691   5.009   8.581
 1171POPC   D2A18376  30.788   4.842   8.140
 1171POPC   C3A18377  30.573   5.083   7.796
 1171POPC   C4A18378  30.337   5.421   7.856
 1171POPC   C1B18379  30.877   5.497   8.640
 1171POPC   C2B18380  30.904   5.337   8.236
 1171POPC   C3B18381  31.074   5.222   7.866
 1171POPC   C4B18382  30.826   5.506   7.692
 1172POPC   NC318383  14.063   4.724   9.309
 1172POPC   PO418384  14.230   5.295   9.630
 1172POPC   GL118385  14.366   5.320   9.181
 1172POPC   GL218386  14.453   4.991   9.135
 1172POPC   C1A18387  14.481   5.310   8.744
 1172POPC   D2A18388  14.576   5.138   8.345
 1172POPC   C3A18389  14.360   5.237   7.964
 1172POPC   C4A18390  14.631   5.282   7.581
 1172POPC   C1B18391  14.413   4.798   8.731
 1172POPC   C2B18392  14.500   4.643   8.319
 1172POPC   C3B18393  14.315   4.714   7.935
 1172POPC   C4B18394  14.298   4.918   7.559
 1173POPC   NC318395  20.060   2.843   9.485
 1173POPC   PO418396  19.475   2.471   9.597
 1173POPC   GL118397  19.702   2.619   9.202
 1173POPC   GL218398  19.826   2.985   9.046
 1173POPC   C1A18399  19.793   2.562   8.784
 1173POPC   D2A18400  19.896   2.851   8.464
 1173POPC   C3A18401  19.656   2.760   8.155
 1173POPC   C4A18402  19.580   2.752   7.768
 1173POPC   C1B18403  20.242   2.846   8.838
 1173POPC   C2B18404  20.398   2.673   8.444
 1173POPC   C3B18405  20.257   2.650   8.044
 1173POPC   C4B18406  19.947   2.420   7.870
 1174POPC   NC318407  42.589  41.567   9.379
 1174POPC   PO418408  41.954  41.551   9.334
 1174POPC   GL118409  42.258  41.400   9.053
 1174POPC   GL218410  42.103  41.098   9.034
 1174POPC   C1A18411  42.481  41.632   8.701
 1174POPC   D2A18412  42.283  41.786   8.305
 1174POPC   C3A18413  42.466  41.714   7.897
 1174POPC   C4A18414  42.542  41.492   7.486
 1174POPC   C1B18415  41.963  41.386   8.659
 1174POPC   C2B18416  41.824  41.566   8.275
 1174POPC   C3B18417  41.954  41.654   7.846
 1174POPC   C4B18418  42.070  41.345   7.504
 1175POPC   NC318419  20.096  33.205   9.376
 1175POPC   PO418420  19.757  32.675   9.431
 1175POPC   GL118421  19.615  32.839   9.064
 1175POPC   GL218422  19.715  33.198   9.035
 1175POPC   C1A18423  19.692  32.819   8.645
 1175POPC   D2A18424  19.753  33.070   8.341
 1175POPC   C3A18425  19.720  32.813   8.003
 1175POPC   C4A18426  19.580  32.938   7.601
 1175POPC   C1B18427  20.106  33.082   8.747
 1175POPC   C2B18428  20.243  33.088   8.325
 1175POPC   C3B18429  20.094  33.131   7.911
 1175POPC   C4B18430  20.194  32.692   7.836
 1176POPC   NC318431   6.739   5.561   9.483
 1176POPC   PO418432   6.865   6.221   9.437
 1176POPC   GL118433   6.855   5.898   9.122
 1176POPC   GL218434   6.620   5.682   9.011
 1176POPC   C1A18435   6.976   5.799   8.680
 1176POPC   D2A18436   7.053   6.037   8.311
 1176POPC   C3A18437   6.974   5.813   7.961
 1176POPC   C4A18438   6.773   5.831   7.549
 1176POPC   C1B18439   6.528   6.038   8.751
 1176POPC   C2B18440   6.563   6.155   8.323
 1176POPC   C3B18441   6.494   5.938   7.964
 1176POPC   C4B18442   6.372   6.191   7.658
 1177POPC   NC318443   3.472  27.071   9.557
 1177POPC   PO418444   3.608  26.513   9.477
 1177POPC   GL118445   3.545  26.757   9.132
 1177POPC   GL218446   3.258  26.558   9.088
 1177POPC   C1A18447   3.570  26.911   8.694
 1177POPC   D2A18448   3.487  27.198   8.336
 1177POPC   C3A18449   3.780  27.040   8.028
 1177POPC   C4A18450   3.703  26.703   7.754
 1177POPC   C1B18451   3.104  26.647   8.701
 1177POPC   C2B18452   3.351  26.565   8.372
 1177POPC   C3B18453   3.241  26.393   8.021
 1177POPC   C4B18454   3.340  26.350   7.642
 1178POPC   NC318455  10.656  42.589   9.526
 1178POPC   PO418456  10.355  41.963   9.460
 1178POPC   GL118457  10.474  42.247   9.100
 1178POPC   GL218458  10.821  42.385   9.067
 1178POPC   C1A18459  10.294  42.229   8.678
 1178POPC   D2A18460   9.961  42.259   8.348
 1178POPC   C3A18461  10.128  42.367   7.951
 1178POPC   C4A18462  10.517  42.293   7.739
 1178POPC   C1B18463  10.833  42.101   8.692
 1178POPC   C2B18464  10.738  42.132   8.252
 1178POPC   C3B18465  10.984  42.118   7.891
 1178POPC   C4B18466  11.090  41.834   7.587
 1179POPC   NC318467  42.738  17.889   9.427
 1179POPC   PO418468  43.041  17.219   9.447
 1179POPC   GL118469  43.040  17.509   9.157
 1179POPC   GL218470  43.364  17.454   9.112
 1179POPC   C1A18471  42.938  17.554   8.756
 1179POPC   D2A18472  43.105  17.422   8.384
 1179POPC   C3A18473  42.905  17.522   8.014
 1179POPC   C4A18474  43.066  17.639   7.640
 1179POPC   C1B18475  43.495  17.593   8.741
 1179POPC   C2B18476  43.631  17.460   8.376
 1179POPC   C3B18477  43.430  17.530   8.007
 1179POPC   C4B18478  43.494  17.369   7.629
 1180POPC   NC318479  32.787  42.012   9.480
 1180POPC   PO418480  33.269  42.533   9.359
 1180POPC   GL118481  33.019  42.266   9.059
 1180POPC   GL218482  32.770  42.015   8.967
 1180POPC   C1A18483  33.015  42.402   8.638
 1180POPC   D2A18484  33.233  42.706   8.365
 1180POPC   C3A18485  33.031  42.761   7.968
 1180POPC   C4A18486  32.740  42.451   7.815
 1180POPC   C1B18487  32.720  41.930   8.540
 1180POPC   C2B18488  32.974  42.151   8.211
 1180POPC   C3B18489  33.104  42.031   7.831
 1180POPC   C4B18490  32.705  41.976   7.641
 1181POPC   NC318491   1.167  20.160   9.404
 1181POPC   PO418492   0.873  20.817   9.435
 1181POPC   GL118493   1.078  20.843   9.055
 1181POPC   GL218494   1.129  20.503   9.033
 1181POPC   C1A18495   1.331  20.806   8.674
 1181POPC   D2A18496   1.504  20.534   8.375
 1181POPC   C3A18497   1.408  20.805   8.058
 1181POPC   C4A18498   1.363  20.858   7.631
 1181POPC   C1B18499   0.887  20.565   8.658
 1181POPC   C2B18500   1.000  20.523   8.253
 1181POPC   C3B18501   1.171  20.397   7.875
 1181POPC   C4B18502   0.876  20.674   7.685
 1182POPC   NC318503  26.475  32.188   9.530
 1182POPC   PO418504  25.956  32.557   9.521
 1182POPC   GL118505  25.998  32.270   9.193
 1182POPC   GL218506  26.321  32.349   9.061
 1182POPC   C1A18507  25.895  32.062   8.814
 1182POPC   D2A18508  25.761  32.244   8.403
 1182POPC   C3A18509  25.884  32.081   7.983
 1182POPC   C4A18510  25.856  32.230   7.530
 1182POPC   C1B18511  26.141  32.485   8.651
 1182POPC   C2B18512  26.267  32.402   8.229
 1182POPC   C3B18513  26.254  32.409   7.782
 1182POPC   C4B18514  26.331  32.323   7.316
 1183POPC   NC318515   4.990   9.264   9.430
 1183POPC   PO418516   5.440   9.811   9.558
 1183POPC   GL118517   5.312   9.704   9.156
 1183POPC   GL218518   5.018   9.875   9.047
 1183POPC   C1A18519   5.413   9.876   8.742
 1183POPC   D2A18520   5.382   9.732   8.313
 1183POPC   C3A18521   5.279   9.966   7.955
 1183POPC   C4A18522   5.066   9.668   7.717
 1183POPC   C1B18523   4.830   9.737   8.682
 1183POPC   C2B18524   4.599   9.485   8.399
 1183POPC   C3B18525   4.748   9.391   7.995
 1183POPC   C4B18526   4.600   9.495   7.592
 1184POPC   NC318527   9.366   2.317   9.445
 1184POPC   PO418528   9.289   2.980   9.427
 1184POPC   GL118529   9.019   2.660   9.228
 1184POPC   GL218530   8.627   2.680   9.181
 1184POPC   C1A18531   8.986   2.673   8.808
 1184POPC   D2A18532   9.266   2.780   8.535
 1184POPC   C3A18533   9.162   2.835   8.118
 1184POPC   C4A18534   9.210   2.609   7.742
 1184POPC   C1B18535   8.499   2.694   8.711
 1184POPC   C2B18536   8.697   2.691   8.288
 1184POPC   C3B18537   8.741   2.843   7.826
 1184POPC   C4B18538   8.774   2.585   7.422
 1185POPC   NC318539   4.593  27.031   9.556
 1185POPC   PO418540   3.898  27.054   9.740
 1185POPC   GL118541   4.142  26.905   9.350
 1185POPC   GL218542   4.067  26.610   9.174
 1185POPC   C1A18543   4.393  26.930   8.924
 1185POPC   D2A18544   4.260  26.852   8.466
 1185POPC   C3A18545   4.307  27.080   8.065
 1185POPC   C4A18546   4.524  27.005   7.693
 1185POPC   C1B18547   3.906  26.496   8.744
 1185POPC   C2B18548   3.858  26.576   8.277
 1185POPC   C3B18549   4.171  26.579   7.928
 1185POPC   C4B18550   4.131  26.665   7.471
 1186POPC   NC318551  26.545   1.520   9.384
 1186POPC   PO418552  26.728   0.874   9.524
 1186POPC   GL118553  26.865   1.147   9.212
 1186POPC   GL218554  26.579   1.090   9.092
 1186POPC   C1A18555  26.885   1.300   8.762
 1186POPC   D2A18556  26.658   1.126   8.395
 1186POPC   C3A18557  26.924   1.167   7.996
 1186POPC   C4A18558  27.033   1.558   7.761
 1186POPC   C1B18559  26.815   0.788   8.807
 1186POPC   C2B18560  26.836   0.663   8.339
 1186POPC   C3B18561  26.551   0.813   7.975
 1186POPC   C4B18562  26.416   1.285   7.937
 1187POPC   NC318563   9.941  22.269   9.818
 1187POPC   PO418564   9.396  22.249   9.452
 1187POPC   GL118565   9.620  22.316   9.094
 1187POPC   GL218566   9.978  22.198   9.163
 1187POPC   C1A18567   9.804  22.244   8.694
 1187POPC   D2A18568  10.096  22.116   8.400
 1187POPC   C3A18569   9.755  22.038   8.124
 1187POPC   C4A18570   9.798  22.354   7.831
 1187POPC   C1B18571  10.097  21.840   8.855
 1187POPC   C2B18572  10.043  21.617   8.428
 1187POPC   C3B18573  10.152  21.728   8.013
 1187POPC   C4B18574   9.973  21.900   7.667
 1188POPC   NC318575   8.208  34.728   9.479
 1188POPC   PO418576   8.007  34.082   9.509
 1188POPC   GL118577   8.204  34.357   9.153
 1188POPC   GL218578   8.565  34.451   9.094
 1188POPC   C1A18579   8.223  34.531   8.748
 1188POPC   D2A18580   8.027  34.545   8.431
 1188POPC   C3A18581   8.263  34.590   8.101
 1188POPC   C4A18582   8.131  34.692   7.723
 1188POPC   C1B18583   8.677  34.754   8.713
 1188POPC   C2B18584   8.559  34.993   8.323
 1188POPC   C3B18585   8.618  34.898   7.882
 1188POPC   C4B18586   8.638  34.474   7.735
 1189POPC   NC318587  44.793  33.260   9.598
 1189POPC   PO418588  44.424  32.604   9.726
 1189POPC   GL118589  44.521  32.815   9.332
 1189POPC   GL218590  44.587  33.146   9.162
 1189POPC   C1A18591  44.460  32.723   8.896
 1189POPC   D2A18592  44.535  32.803   8.473
 1189POPC   C3A18593  44.327  32.909   8.123
 1189POPC   C4A18594  44.490  32.743   7.728
 1189POPC   C1B18595  44.869  33.080   8.814
 1189POPC   C2B18596  44.798  33.220   8.392
 1189POPC   C3B18597  44.784  33.133   7.948
 1189POPC   C4B18598  44.941  33.425   7.623
 1190POPC   NC318599  21.511   6.134   9.388
 1190POPC   PO418600  20.927   5.912   9.543
 1190POPC   GL118601  21.096   5.570   9.215
 1190POPC   GL218602  21.483   5.606   9.164
 1190POPC   C1A18603  21.200   5.521   8.750
 1190POPC   D2A18604  21.223   5.873   8.454
 1190POPC   C3A18605  21.336   5.829   8.038
 1190POPC   C4A18606  21.312   5.401   7.935
 1190POPC   C1B18607  21.622   5.842   8.785
 1190POPC   C2B18608  21.763   5.905   8.354
 1190POPC   C3B18609  21.837   5.966   7.924
 1190POPC   C4B18610  21.648   5.675   7.628
 1191POPC   NC318611  26.742   6.129   9.477
 1191POPC   PO418612  26.656   5.465   9.426
 1191POPC   GL118613  26.781   5.733   9.090
 1191POPC   GL218614  26.568   6.008   9.020
 1191POPC   C1A18615  26.917   5.840   8.666
 1191POPC   D2A18616  26.627   6.049   8.390
 1191POPC   C3A18617  26.607   5.804   8.042
 1191POPC   C4A18618  26.911   5.770   7.776
 1191POPC   C1B18619  26.820   6.321   8.807
 1191POPC   C2B18620  27.027   6.388   8.395
 1191POPC   C3B18621  26.899   6.242   7.974
 1191POPC   C4B18622  27.031   6.192   7.513
 1192POPC   NC318623  18.324  11.535   9.486
 1192POPC   PO418624  18.520  12.224   9.513
 1192POPC   GL118625  18.247  12.272   9.187
 1192POPC   GL218626  18.189  11.932   9.153
 1192POPC   C1A18627  18.248  12.222   8.748
 1192POPC   D2A18628  18.192  11.953   8.408
 1192POPC   C3A18629  18.087  12.135   8.062
 1192POPC   C4A18630  18.301  12.059   7.676
 1192POPC   C1B18631  18.120  11.652   8.810
 1192POPC   C2B18632  18.339  11.475   8.432
 1192POPC   C3B18633  18.461  11.619   8.000
 1192POPC   C4B18634  18.319  11.576   7.542
 1193POPC   NC318635   6.762  23.264   9.459
 1193POPC   PO418636   6.963  22.571   9.472
 1193POPC   GL118637   6.866  22.899   9.077
 1193POPC   GL218638   6.526  23.042   9.053
 1193POPC   C1A18639   6.758  23.059   8.633
 1193POPC   D2A18640   6.575  22.958   8.262
 1193POPC   C3A18641   6.816  23.107   7.963
 1193POPC   C4A18642   7.056  23.046   7.573
 1193POPC   C1B18643   6.251  23.073   8.679
 1193POPC   C2B18644   6.200  23.311   8.303
 1193POPC   C3B18645   6.290  23.231   7.879
 1193POPC   C4B18646   6.487  22.897   7.655
 1194POPC   NC318647  27.536  42.300   9.482
 1194POPC   PO418648  26.996  42.403   9.271
 1194POPC   GL118649  27.376  42.527   9.034
 1194POPC   GL218650  27.502  42.169   8.985
 1194POPC   C1A18651  27.655  42.486   8.636
 1194POPC   D2A18652  27.744  42.273   8.248
 1194POPC   C3A18653  27.748  42.465   7.835
 1194POPC   C4A18654  27.886  42.505   7.389
 1194POPC   C1B18655  27.814  41.969   8.674
 1194POPC   C2B18656  27.917  41.790   8.253
 1194POPC   C3B18657  27.694  41.918   7.860
 1194POPC   C4B18658  27.379  41.872   7.500
 1195POPC   NC318659  42.753   9.316   9.296
 1195POPC   PO418660  43.162   8.934   9.715
 1195POPC   GL118661  43.272   8.830   9.272
 1195POPC   GL218662  43.182   9.113   9.049
 1195POPC   C1A18663  43.424   8.703   8.858
 1195POPC   D2A18664  43.273   8.903   8.479
 1195POPC   C3A18665  43.440   8.819   8.102
 1195POPC   C4A18666  43.298   8.853   7.710
 1195POPC   C1B18667  42.864   9.080   8.717
 1195POPC   C2B18668  42.756   9.259   8.353
 1195POPC   C3B18669  42.872   8.994   8.031
 1195POPC   C4B18670  42.748   8.997   7.659
 1196POPC   NC318671  10.307  11.916   9.311
 1196POPC   PO418672  10.433  12.560   9.532
 1196POPC   GL118673  10.595  12.328   9.173
 1196POPC   GL218674  10.888  12.113   9.173
 1196POPC   C1A18675  10.540  12.112   8.735
 1196POPC   D2A18676  10.554  11.823   8.394
 1196POPC   C3A18677  10.519  12.045   8.018
 1196POPC   C4A18678  10.357  11.927   7.586
 1196POPC   C1B18679  10.932  12.424   8.808
 1196POPC   C2B18680  10.923  12.307   8.377
 1196POPC   C3B18681  10.823  12.461   7.962
 1196POPC   C4B18682  10.769  12.216   7.601
 1197POPC   NC318683   0.043  16.901   9.637
 1197POPC   PO418684   0.645  17.221   9.366
 1197POPC   GL118685   0.471  16.881   9.083
 1197POPC   GL218686   0.114  16.927   9.147
 1197POPC   C1A18687   0.536  16.753   8.628
 1197POPC   D2A18688   0.578  16.476   8.254
 1197POPC   C3A18689   0.343  16.579   7.867
 1197POPC   C4A18690   0.239  16.484   7.449
 1197POPC   C1B18691   0.058  17.231   8.852
 1197POPC   C2B18692   0.216  17.121   8.456
 1197POPC   C3B18693   0.493  16.995   8.140
 1197POPC   C4B18694   0.584  17.154   7.750
 1198POPC   NC318695  30.200   4.871   9.477
 1198POPC   PO418696  29.561   4.891   9.259
 1198POPC   GL118697  29.940   4.968   9.044
 1198POPC   GL218698  30.068   5.282   9.129
 1198POPC   C1A18699  30.183   5.086   8.672
 1198POPC   D2A18700  30.308   5.055   8.245
 1198POPC   C3A18701  29.992   5.064   7.952
 1198POPC   C4A18702  30.095   5.075   7.519
 1198POPC   C1B18703  29.763   5.383   8.798
 1198POPC   C2B18704  29.723   5.271   8.379
 1198POPC   C3B18705  29.689   5.486   7.990
 1198POPC   C4B18706  29.630   5.259   7.578
 1199POPC   NC318707   2.763  23.315   9.562
 1199POPC   PO418708   2.622  23.968   9.510
 1199POPC   GL118709   2.788  23.712   9.180
 1199POPC   GL218710   2.535  23.439   9.117
 1199POPC   C1A18711   2.918  23.546   8.788
 1199POPC   D2A18712   2.831  23.295   8.428
 1199POPC   C3A18713   2.889  23.540   8.070
 1199POPC   C4A18714   3.029  23.451   7.662
 1199POPC   C1B18715   2.413  23.549   8.686
 1199POPC   C2B18716   2.385  23.489   8.248
 1199POPC   C3B18717   2.447  23.540   7.826
 1199POPC   C4B18718   2.607  23.529   7.417
 1200POPC   NC318719   4.460  32.689   9.573
 1200POPC   PO418720   3.843  32.815   9.313
 1200POPC   GL118721   4.113  32.810   8.969
 1200POPC   GL218722   4.451  32.790   9.081
 1200POPC   C1A18723   4.328  32.922   8.587
 1200POPC   D2A18724   4.317  33.283   8.371
 1200POPC   C3A18725   4.178  33.176   8.002
 1200POPC   C4A18726   4.128  32.959   7.638
 1200POPC   C1B18727   4.705  32.619   8.761
 1200POPC   C2B18728   4.770  32.703   8.364
 1200POPC   C3B18729   4.650  32.987   8.109
 1200POPC   C4B18730   4.618  32.783   7.762
 1201POPC   NC318731   3.244  12.636   9.531
 1201POPC   PO418732   3.425  13.265   9.423
 1201POPC   GL118733   3.265  13.059   9.096
 1201POPC   GL218734   3.436  12.741   9.071
 1201POPC   C1A18735   3.427  13.040   8.664
 1201POPC   D2A18736   3.718  12.952   8.328
 1201POPC   C3A18737   3.544  13.039   7.922
 1201POPC   C4A18738   3.625  12.795   7.546
 1201POPC   C1B18739   3.706  12.562   8.740
 1201POPC   C2B18740   3.924  12.463   8.362
 1201POPC   C3B18741   3.656  12.524   8.009
 1201POPC   C4B18742   3.352  12.380   7.709
 1202POPC   NC318743   0.476  15.884   9.441
 1202POPC   PO418744   0.162  16.418   9.546
 1202POPC   GL118745   0.339  16.306   9.146
 1202POPC   GL218746   0.195  15.976   9.031
 1202POPC   C1A18747   0.486  16.255   8.728
 1202POPC   D2A18748   0.313  15.968   8.449
 1202POPC   C3A18749   0.276  16.103   8.039
 1202POPC   C4A18750   0.498  16.108   7.656
 1202POPC   C1B18751   0.010  15.654   8.767
 1202POPC   C2B18752   0.020  15.496   8.377
 1202POPC   C3B18753   0.334  15.577   8.100
 1202POPC   C4B18754   0.239  15.679   7.703
 1203POPC   NC318755  21.881  10.388   9.859
 1203POPC   PO418756  22.352  10.702   9.514
 1203POPC   GL118757  22.189  10.531   9.178
 1203POPC   GL218758  21.833  10.554   9.201
 1203POPC   C1A18759  22.101  10.327   8.804
 1203POPC   D2A18760  22.316  10.198   8.443
 1203POPC   C3A18761  22.155  10.392   8.067
 1203POPC   C4A18762  22.239  10.286   7.627
 1203POPC   C1B18763  21.969  10.834   8.835
 1203POPC   C2B18764  22.064  10.772   8.419
 1203POPC   C3B18765  21.878  10.876   8.027
 1203POPC   C4B18766  21.795  10.545   7.735
 1204POPC   NC318767  41.169   6.980   9.536
 1204POPC   PO418768  41.451   6.381   9.577
 1204POPC   GL118769  41.662   6.633   9.221
 1204POPC   GL218770  41.747   6.987   9.267
 1204POPC   C1A18771  41.758   6.615   8.763
 1204POPC   D2A18772  41.954   6.450   8.370
 1204POPC   C3A18773  41.763   6.547   7.949
 1204POPC   C4A18774  41.338   6.691   7.794
 1204POPC   C1B18775  41.781   7.121   8.840
 1204POPC   C2B18776  41.901   6.997   8.425
 1204POPC   C3B18777  41.702   7.048   8.022
 1204POPC   C4B18778  41.671   6.977   7.559
 1205POPC   NC318779  32.520  16.026   9.728
 1205POPC   PO418780  33.199  15.735   9.665
 1205POPC   GL118781  33.133  15.932   9.241
 1205POPC   GL218782  32.777  15.996   9.210
 1205POPC   C1A18783  33.097  16.201   8.865
 1205POPC   D2A18784  33.173  16.078   8.450
 1205POPC   C3A18785  33.141  16.274   8.063
 1205POPC   C4A18786  32.940  16.060   7.773
 1205POPC   C1B18787  32.771  15.837   8.739
 1205POPC   C2B18788  32.683  15.974   8.271
 1205POPC   C3B18789  32.568  15.744   7.871
 1205POPC   C4B18790  32.661  15.823   7.392
 1206POPC   NC318791  30.401  37.000   9.334
 1206POPC   PO418792  29.775  36.840   9.652
 1206POPC   GL118793  29.904  36.817   9.204
 1206POPC   GL218794  29.850  37.188   9.251
 1206POPC   C1A18795  29.812  36.647   8.733
 1206POPC   D2A18796  30.018  36.564   8.309
 1206POPC   C3A18797  30.086  36.884   7.998
 1206POPC   C4A18798  29.882  36.883   7.629
 1206POPC   C1B18799  29.703  37.130   8.842
 1206POPC   C2B18800  29.849  37.074   8.427
 1206POPC   C3B18801  29.577  37.079   8.082
 1206POPC   C4B18802  29.561  37.258   7.657
 1207POPC   NC318803  39.150  38.206   9.640
 1207POPC   PO418804  39.562  38.690   9.486
 1207POPC   GL118805  39.393  38.654   9.105
 1207POPC   GL218806  39.172  38.381   9.151
 1207POPC   C1A18807  39.481  38.413   8.749
 1207POPC   D2A18808  39.498  38.260   8.362
 1207POPC   C3A18809  39.522  38.599   8.074
 1207POPC   C4A18810  39.278  38.591   7.717
 1207POPC   C1B18811  39.074  38.120   8.789
 1207POPC   C2B18812  38.992  38.205   8.400
 1207POPC   C3B18813  39.135  38.123   8.002
 1207POPC   C4B18814  38.970  38.167   7.617
 1208POPC   NC318815  23.542  30.968   9.286
 1208POPC   PO418816  23.811  30.456   9.655
 1208POPC   GL118817  23.986  30.544   9.182
 1208POPC   GL218818  24.151  30.261   9.024
 1208POPC   C1A18819  23.961  30.810   8.779
 1208POPC   D2A18820  23.872  31.010   8.360
 1208POPC   C3A18821  23.596  30.842   8.040
 1208POPC   C4A18822  23.651  30.915   7.596
 1208POPC   C1B18823  23.899  30.252   8.662
 1208POPC   C2B18824  23.734  30.369   8.253
 1208POPC   C3B18825  23.945  30.513   7.867
 1208POPC   C4B18826  24.061  30.516   7.447
 1209POPC   NC318827  21.074  43.725   9.191
 1209POPC   PO418828  21.697  43.922   9.519
 1209POPC   GL118829  21.524  43.949   9.076
 1209POPC   GL218830  21.220  44.200   9.088
 1209POPC   C1A18831  21.529  43.700   8.650
 1209POPC   D2A18832  21.809  43.704   8.273
 1209POPC   C3A18833  21.624  43.948   7.952
 1209POPC   C4A18834  21.291  43.768   7.748
 1209POPC   C1B18835  21.202  44.087   8.645
 1209POPC   C2B18836  21.172  44.028   8.215
 1209POPC   C3B18837  21.211  44.269   7.844
 1209POPC   C4B18838  21.378  44.181   7.443
 1210POPC   NC318839   3.928  26.194   9.408
 1210POPC   PO418840   4.461  26.543   9.618
 1210POPC   GL118841   4.568  26.451   9.185
 1210POPC   GL218842   4.380  26.141   9.134
 1210POPC   C1A18843   4.434  26.449   8.743
 1210POPC   D2A18844   4.253  26.263   8.377
 1210POPC   C3A18845   4.421  25.985   8.063
 1210POPC   C4A18846   4.325  26.084   7.651
 1210POPC   C1B18847   4.183  25.913   8.755
 1210POPC   C2B18848   4.153  25.646   8.337
 1210POPC   C3B18849   3.981  25.705   7.900
 1210POPC   C4B18850   3.972  25.772   7.432
 1211POPC   NC318851  38.314  27.695   9.539
 1211POPC   PO418852  38.964  27.743   9.577
 1211POPC   GL118853  38.692  27.653   9.168
 1211POPC   GL218854  38.310  27.602   9.061
 1211POPC   C1A18855  38.711  27.497   8.743
 1211POPC   D2A18856  38.486  27.471   8.362
 1211POPC   C3A18857  38.747  27.553   8.005
 1211POPC   C4A18858  38.790  27.896   7.693
 1211POPC   C1B18859  38.274  27.839   8.709
 1211POPC   C2B18860  38.205  27.993   8.309
 1211POPC   C3B18861  38.319  27.818   7.918
 1211POPC   C4B18862  38.229  27.733   7.490
 1212POPC   NC318863  17.032  20.678   9.280
 1212POPC   PO418864  16.465  20.909   9.315
 1212POPC   GL118865  16.585  20.586   8.997
 1212POPC   GL218866  16.878  20.340   8.907
 1212POPC   C1A18867  16.616  20.599   8.571
 1212POPC   D2A18868  16.426  20.411   8.257
 1212POPC   C3A18869  16.574  20.561   7.896
 1212POPC   C4A18870  16.622  20.395   7.517
 1212POPC   C1B18871  17.154  20.534   8.649
 1212POPC   C2B18872  17.147  20.631   8.264
 1212POPC   C3B18873  17.090  20.501   7.900
 1212POPC   C4B18874  16.998  20.744   7.547
 1213POPC   NC318875  18.878  13.419   9.489
 1213POPC   PO418876  19.566  13.459   9.557
 1213POPC   GL118877  19.303  13.475   9.159
 1213POPC   GL218878  19.039  13.750   9.143
 1213POPC   C1A18879  19.301  13.656   8.721
 1213POPC   D2A18880  19.075  13.856   8.388
 1213POPC   C3A18881  19.328  13.828   8.020
 1213POPC   C4A18882  19.273  13.531   7.684
 1213POPC   C1B18883  18.814  13.463   8.828
 1213POPC   C2B18884  18.543  13.416   8.467
 1213POPC   C3B18885  18.751  13.489   8.086
 1213POPC   C4B18886  18.797  13.319   7.694
 1214POPC   NC318887  34.942  29.387   9.302
 1214POPC   PO418888  35.411  28.872   9.376
 1214POPC   GL118889  35.317  29.086   9.039
 1214POPC   GL218890  35.529  29.384   8.957
 1214POPC   C1A18891  35.441  29.005   8.605
 1214POPC   D2A18892  35.714  29.301   8.471
 1214POPC   C3A18893  35.569  29.413   8.113
 1214POPC   C4A18894  35.417  29.116   7.846
 1214POPC   C1B18895  35.141  29.396   8.675
 1214POPC   C2B18896  35.043  29.220   8.253
 1214POPC   C3B18897  35.067  29.491   7.872
 1214POPC   C4B18898  35.437  29.721   7.714
 1215POPC   NC318899  20.809  38.059   9.489
 1215POPC   PO418900  20.904  37.367   9.458
 1215POPC   GL118901  20.686  37.543   9.084
 1215POPC   GL218902  20.656  37.851   9.068
 1215POPC   C1A18903  20.345  37.582   8.759
 1215POPC   D2A18904  20.193  37.598   8.334
 1215POPC   C3A18905  20.505  37.636   8.061
 1215POPC   C4A18906  20.489  37.642   7.629
 1215POPC   C1B18907  20.635  38.035   8.704
 1215POPC   C2B18908  20.826  38.010   8.322
 1215POPC   C3B18909  20.707  38.073   7.928
 1215POPC   C4B18910  20.901  37.951   7.580
 1216POPC   NC318911  32.886  30.429   9.594
 1216POPC   PO418912  32.928  31.101   9.651
 1216POPC   GL118913  32.832  30.974   9.209
 1216POPC   GL218914  33.135  30.841   9.073
 1216POPC   C1A18915  32.719  30.764   8.779
 1216POPC   D2A18916  32.699  30.509   8.414
 1216POPC   C3A18917  32.772  30.695   8.018
 1216POPC   C4A18918  33.068  30.504   7.769
 1216POPC   C1B18919  33.295  30.609   8.701
 1216POPC   C2B18920  33.272  30.574   8.235
 1216POPC   C3B18921  33.533  30.666   7.875
 1216POPC   C4B18922  33.348  30.856   7.496
 1217POPC   NC318923  29.957   7.844   9.352
 1217POPC   PO418924  29.629   8.487   9.331
 1217POPC   GL118925  29.844   8.186   8.991
 1217POPC   GL218926  30.187   7.949   8.920
 1217POPC   C1A18927  29.844   8.010   8.569
 1217POPC   D2A18928  29.865   7.949   8.138
 1217POPC   C3A18929  29.788   8.306   7.907
 1217POPC   C4A18930  29.717   8.191   7.526
 1217POPC   C1B18931  30.411   7.996   8.572
 1217POPC   C2B18932  30.370   7.861   8.157
 1217POPC   C3B18933  30.213   7.982   7.759
 1217POPC   C4B18934  30.317   8.291   7.468
 1218POPC   NC318935  35.072   7.324   9.411
 1218POPC   PO418936  35.482   7.834   9.592
 1218POPC   GL118937  35.292   7.754   9.173
 1218POPC   GL218938  35.603   7.740   9.018
 1218POPC   C1A18939  35.147   7.564   8.768
 1218POPC   D2A18940  35.092   7.238   8.413
 1218POPC   C3A18941  35.199   7.383   8.012
 1218POPC   C4A18942  35.453   7.689   7.782
 1218POPC   C1B18943  35.629   7.464   8.661
 1218POPC   C2B18944  35.758   7.494   8.245
 1218POPC   C3B18945  35.686   7.255   7.901
 1218POPC   C4B18946  35.772   7.314   7.466
 1219POPC   NC318947  30.384  31.849   9.363
 1219POPC   PO418948  29.870  31.402   9.441
 1219POPC   GL118949  29.871  31.475   9.073
 1219POPC   GL218950  30.202  31.485   9.056
 1219POPC   C1A18951  29.858  31.613   8.659
 1219POPC   D2A18952  29.627  31.394   8.363
 1219POPC   C3A18953  29.841  31.484   7.989
 1219POPC   C4A18954  29.880  31.562   7.546
 1219POPC   C1B18955  30.366  31.648   8.688
 1219POPC   C2B18956  30.218  31.701   8.277
 1219POPC   C3B18957  30.280  31.725   7.878
 1219POPC   C4B18958  30.397  31.510   7.508
 1220POPC   NC318959  14.622  18.066   9.387
 1220POPC   PO418960  14.255  18.573   9.621
 1220POPC   GL118961  14.288  18.438   9.221
 1220POPC   GL218962  13.985  18.251   9.233
 1220POPC   C1A18963  14.417  18.308   8.787
 1220POPC   D2A18964  14.663  18.272   8.381
 1220POPC   C3A18965  14.519  18.446   8.010
 1220POPC   C4A18966  14.609  18.171   7.713
 1220POPC   C1B18967  13.961  18.058   8.806
 1220POPC   C2B18968  14.197  18.063   8.386
 1220POPC   C3B18969  14.165  18.078   7.933
 1220POPC   C4B18970  14.157  18.188   7.461
 1221POPC   NC318971  11.661  22.037   9.543
 1221POPC   PO418972  12.351  21.951   9.647
 1221POPC   GL118973  12.390  22.216   9.282
 1221POPC   GL218974  12.021  22.232   9.160
 1221POPC   C1A18975  12.446  22.358   8.844
 1221POPC   D2A18976  12.331  22.140   8.463
 1221POPC   C3A18977  12.380  22.317   8.067
 1221POPC   C4A18978  12.358  22.081   7.702
 1221POPC   C1B18979  11.651  22.260   8.865
 1221POPC   C2B18980  11.577  22.327   8.435
 1221POPC   C3B18981  11.883  22.228   8.128
 1221POPC   C4B18982  11.841  22.095   7.703
 1222POPC   NC318983  20.570   4.090   9.434
 1222POPC   PO418984  20.559   4.766   9.167
 1222POPC   GL118985  20.650   4.346   9.019
 1222POPC   GL218986  20.984   4.124   9.133
 1222POPC   C1A18987  20.497   4.001   8.773
 1222POPC   D2A18988  20.294   3.885   8.379
 1222POPC   C3A18989  20.433   4.238   8.112
 1222POPC   C4A18990  20.529   4.419   7.692
 1222POPC   C1B18991  21.066   4.335   8.759
 1222POPC   C2B18992  20.825   4.410   8.421
 1222POPC   C3B18993  20.947   4.341   8.006
 1222POPC   C4B18994  21.024   4.545   7.658
 1223POPC   NC318995   1.190  39.475   9.630
 1223POPC   PO418996   1.569  38.831   9.480
 1223POPC   GL118997   1.270  39.010   9.168
 1223POPC   GL218998   0.888  39.007   9.170
 1223POPC   C1A18999   1.209  39.073   8.725
 1223POPC   D2A19000   1.450  39.391   8.465
 1223POPC   C3A19001   1.478  39.322   8.022
 1223POPC   C4A19002   1.337  39.013   7.757
 1223POPC   C1B19003   0.677  39.106   8.782
 1223POPC   C2B19004   0.819  39.072   8.372
 1223POPC   C3B19005   0.840  39.036   7.937
 1223POPC   C4B19006   0.967  39.463   7.947
 1224POPC   NC319007  43.849   1.179   9.571
 1224POPC   PO419008  43.326   1.480   9.172
 1224POPC   GL119009  43.766   1.246   9.046
 1224POPC   GL219010  44.023   0.937   9.167
 1224POPC   C1A19011  44.046   1.284   8.686
 1224POPC   D2A19012  44.103   1.275   8.240
 1224POPC   C3A19013  43.842   1.423   7.925
 1224POPC   C4A19014  44.068   1.735   7.704
 1224POPC   C1B19015  43.920   0.785   8.763
 1224POPC   C2B19016  43.753   0.928   8.380
 1224POPC   C3B19017  43.880   0.882   7.962
 1224POPC   C4B19018  44.042   0.837   7.563
 1225POPC   NC319019   7.114   6.631   9.396
 1225POPC   PO419020   6.529   6.841   9.612
 1225POPC   GL119021   6.619   6.784   9.194
 1225POPC   GL219022   6.639   6.440   9.052
 1225POPC   C1A19023   6.880   6.838   8.830
 1225POPC   D2A19024   7.005   6.488   8.572
 1225POPC   C3A19025   6.986   6.535   8.130
 1225POPC   C4A19026   6.840   6.308   7.800
 1225POPC   C1B19027   6.480   6.541   8.668
 1225POPC   C2B19028   6.621   6.792   8.365
 1225POPC   C3B19029   6.587   6.896   7.940
 1225POPC   C4B19030   6.539   6.670   7.557
 1226POPC   NC319031  42.913  13.455   9.640
 1226POPC   PO419032  43.169  14.065   9.529
 1226POPC   GL119033  43.024  13.743   9.186
 1226POPC   GL219034  42.799  13.449   9.138
 1226POPC   C1A19035  43.054  13.847   8.727
 1226POPC   D2A19036  43.339  13.918   8.397
 1226POPC   C3A19037  43.143  13.797   8.025
 1226POPC   C4A19038  43.089  14.007   7.671
 1226POPC   C1B19039  43.092  13.354   8.804
 1226POPC   C2B19040  43.052  13.409   8.354
 1226POPC   C3B19041  43.318  13.307   7.983
 1226POPC   C4B19042  43.308  13.548   7.579
 1227POPC   NC319043  34.004  37.169   9.311
 1227POPC   PO419044  33.435  36.812   9.446
 1227POPC   GL119045  33.616  36.756   9.083
 1227POPC   GL219046  33.423  37.045   8.974
 1227POPC   C1A19047  33.885  36.899   8.748
 1227POPC   D2A19048  34.014  36.748   8.372
 1227POPC   C3A19049  33.812  36.862   7.986
 1227POPC   C4A19050  33.637  36.651   7.614
 1227POPC   C1B19051  33.412  36.778   8.608
 1227POPC   C2B19052  33.380  36.986   8.220
 1227POPC   C3B19053  33.379  37.041   7.772
 1227POPC   C4B19054  33.351  36.991   7.300
 1228POPC   NC319055  35.770  43.997   9.539
 1228POPC   PO419056  36.256  43.512   9.580
 1228POPC   GL119057  36.284  43.721   9.191
 1228POPC   GL219058  35.982  43.874   9.110
 1228POPC   C1A19059  36.181  43.604   8.742
 1228POPC   D2A19060  35.933  43.705   8.401
 1228POPC   C3A19061  36.088  43.616   8.009
 1228POPC   C4A19062  36.397  43.865   7.818
 1228POPC   C1B19063  35.910  44.090   8.749
 1228POPC   C2B19064  35.707  44.147   8.386
 1228POPC   C3B19065  35.971  44.108   8.045
 1228POPC   C4B19066  35.913  44.007   7.641
 1229POPC   NC319067  39.902  27.896   9.547
 1229POPC   PO419068  40.462  27.626   9.383
 1229POPC   GL119069  40.164  27.545   9.061
 1229POPC   GL219070  39.894  27.763   9.062
 1229POPC   C1A19071  40.164  27.462   8.616
 1229POPC   D2A19072  40.368  27.443   8.214
 1229POPC   C3A19073  40.169  27.331   7.823
 1229POPC   C4A19074  40.063  27.572   7.443
 1229POPC   C1B19075  39.776  27.797   8.651
 1229POPC   C2B19076  39.714  27.484   8.337
 1229POPC   C3B19077  39.727  27.576   7.925
 1229POPC   C4B19078  39.813  27.943   7.654
 1230POPC   NC319079  32.930  42.760   9.163
 1230POPC   PO419080  32.856  43.400   9.466
 1230POPC   GL119081  32.854  43.240   9.090
 1230POPC   GL219082  33.197  43.253   9.062
 1230POPC   C1A19083  32.870  43.237   8.659
 1230POPC   D2A19084  32.844  43.508   8.334
 1230POPC   C3A19085  32.802  43.259   8.026
 1230POPC   C4A19086  32.806  43.085   7.632
 1230POPC   C1B19087  33.395  43.212   8.653
 1230POPC   C2B19088  33.442  43.137   8.211
 1230POPC   C3B19089  33.274  43.214   7.848
 1230POPC   C4B19090  33.461  43.391   7.516
 1231POPC   NC319091   9.303  43.828   9.555
 1231POPC   PO419092   9.900  43.518   9.493
 1231POPC   GL119093   9.817  43.727   9.084
 1231POPC   GL219094   9.582  43.940   9.150
 1231POPC   C1A19095   9.825  43.825   8.667
 1231POPC   D2A19096   9.961  43.637   8.314
 1231POPC   C3A19097   9.832  43.822   7.947
 1231POPC   C4A19098  10.044  43.772   7.549
 1231POPC   C1B19099   9.413  44.177   8.816
 1231POPC   C2B19100   9.478  44.075   8.389
 1231POPC   C3B19101   9.442  44.214   7.974
 1231POPC   C4B19102   9.228  43.878   7.825
 1232POPC   NC319103  17.207  19.098   9.814
 1232POPC   PO419104  17.779  18.834   9.543
 1232POPC   GL119105  17.492  18.750   9.245
 1232POPC   GL219106  17.320  19.067   9.157
 1232POPC   C1A19107  17.451  18.735   8.795
 1232POPC   D2A19108  17.517  19.042   8.480
 1232POPC   C3A19109  17.457  18.945   8.047
 1232POPC   C4A19110  17.736  18.900   7.714
 1232POPC   C1B19111  17.134  19.267   8.766
 1232POPC   C2B19112  17.023  19.193   8.314
 1232POPC   C3B19113  17.043  19.221   7.879
 1232POPC   C4B19114  17.420  19.353   7.682
 1233POPC   NC319115  24.503   4.151   9.365
 1233POPC   PO419116  24.190   4.778   9.502
 1233POPC   GL119117  24.370   4.739   9.064
 1233POPC   GL219118  24.388   4.403   8.945
 1233POPC   C1A19119  24.644   4.718   8.666
 1233POPC   D2A19120  24.578   4.429   8.361
 1233POPC   C3A19121  24.687   4.544   7.972
 1233POPC   C4A19122  24.344   4.575   7.695
 1233POPC   C1B19123  24.354   4.039   8.711
 1233POPC   C2B19124  24.501   3.926   8.320
 1233POPC   C3B19125  24.408   4.088   7.955
 1233POPC   C4B19126  24.655   4.155   7.630
 1234POPC   NC319127  36.177   6.481   9.562
 1234POPC   PO419128  35.746   6.943   9.805
 1234POPC   GL119129  35.922   6.906   9.394
 1234POPC   GL219130  35.714   6.743   9.177
 1234POPC   C1A19131  36.150   6.813   8.960
 1234POPC   D2A19132  35.968   6.674   8.530
 1234POPC   C3A19133  36.222   6.617   8.145
 1234POPC   C4A19134  36.103   6.530   7.717
 1234POPC   C1B19135  35.633   6.956   8.785
 1234POPC   C2B19136  35.596   7.017   8.368
 1234POPC   C3B19137  35.737   6.745   8.049
 1234POPC   C4B19138  35.680   6.832   7.632
 1235POPC   NC319139  36.228  27.123   9.412
 1235POPC   PO419140  36.327  26.501   9.524
 1235POPC   GL119141  35.964  26.634   9.264
 1235POPC   GL219142  36.172  26.802   9.030
 1235POPC   C1A19143  35.777  26.622   8.803
 1235POPC   D2A19144  35.928  26.715   8.351
 1235POPC   C3A19145  35.675  26.829   7.935
 1235POPC   C4A19146  35.810  26.826   7.476
 1235POPC   C1B19147  36.445  27.044   8.747
 1235POPC   C2B19148  36.310  27.212   8.331
 1235POPC   C3B19149  36.137  27.024   7.954
 1235POPC   C4B19150  36.269  27.072   7.548
 1236POPC   NC319151  31.423   3.290   9.478
 1236POPC   PO419152  31.826   2.688   9.574
 1236POPC   GL119153  31.721   2.944   9.221
 1236POPC   GL219154  31.367   2.900   9.130
 1236POPC   C1A19155  31.744   2.977   8.771
 1236POPC   D2A19156  31.529   2.869   8.394
 1236POPC   C3A19157  31.692   2.918   7.981
 1236POPC   C4A19158  31.826   2.696   7.583
 1236POPC   C1B19159  31.123   2.739   8.768
 1236POPC   C2B19160  31.035   2.740   8.334
 1236POPC   C3B19161  31.145   2.719   7.904
 1236POPC   C4B19162  30.999   2.495   7.518
 1237POPC   NC319163  29.798  32.657   9.411
 1237POPC   PO419164  29.922  33.289   9.456
 1237POPC   GL119165  29.809  33.066   9.108
 1237POPC   GL219166  29.477  32.950   9.061
 1237POPC   C1A19167  29.883  32.787   8.755
 1237POPC   D2A19168  30.044  32.940   8.388
 1237POPC   C3A19169  29.877  32.785   8.006
 1237POPC   C4A19170  30.150  32.925   7.685
 1237POPC   C1B19171  29.606  33.215   8.674
 1237POPC   C2B19172  29.762  33.329   8.266
 1237POPC   C3B19173  29.670  33.217   7.833
 1237POPC   C4B19174  29.706  33.270   7.361
 1238POPC   NC319175  27.181   0.539   9.565
 1238POPC   PO419176  27.704   0.095   9.623
 1238POPC   GL119177  27.768   0.286   9.227
 1238POPC   GL219178  27.422   0.319   9.118
 1238POPC   C1A19179  27.774   0.290   8.756
 1238POPC   D2A19180  27.675  44.993   8.446
 1238POPC   C3A19181  27.803   0.142   8.021
 1238POPC   C4A19182  27.817   0.569   7.834
 1238POPC   C1B19183  27.441   0.679   8.768
 1238POPC   C2B19184  27.594   0.799   8.327
 1238POPC   C3B19185  27.341   0.774   7.933
 1238POPC   C4B19186  27.362   0.737   7.472
 1239POPC   NC319187  36.689  10.161   9.586
 1239POPC   PO419188  37.110  10.647   9.442
 1239POPC   GL119189  37.156  10.466   9.045
 1239POPC   GL219190  36.871  10.288   9.136
 1239POPC   C1A19191  36.885  10.518   8.651
 1239POPC   D2A19192  36.537  10.638   8.361
 1239POPC   C3A19193  36.760  10.740   7.978
 1239POPC   C4A19194  37.069  10.496   7.817
 1239POPC   C1B19195  36.507  10.271   8.876
 1239POPC   C2B19196  36.507  10.112   8.477
 1239POPC   C3B19197  36.606  10.218   8.074
 1239POPC   C4B19198  36.676  10.214   7.674
 1240POPC   NC319199  28.111   7.547   9.513
 1240POPC   PO419200  28.690   7.272   9.533
 1240POPC   GL119201  28.720   7.384   9.123
 1240POPC   GL219202  28.541   7.668   9.204
 1240POPC   C1A19203  28.670   7.312   8.686
 1240POPC   D2A19204  28.608   7.614   8.338
 1240POPC   C3A19205  28.560   7.471   7.908
 1240POPC   C4A19206  28.291   7.189   7.679
 1240POPC   C1B19207  28.395   7.722   8.801
 1240POPC   C2B19208  28.156   7.456   8.535
 1240POPC   C3B19209  28.084   7.438   8.098
 1240POPC   C4B19210  27.971   7.769   7.783
 1241POPC   NC319211   7.591  36.100   9.400
 1241POPC   PO419212   7.020  36.394   9.402
 1241POPC   GL119213   7.222  36.224   9.056
 1241POPC   GL219214   7.477  36.462   9.080
 1241POPC   C1A19215   7.454  35.952   8.754
 1241POPC   D2A19216   7.498  35.791   8.330
 1241POPC   C3A19217   7.651  36.110   8.045
 1241POPC   C4A19218   7.487  36.095   7.665
 1241POPC   C1B19219   7.355  36.565   8.694
 1241POPC   C2B19220   7.247  36.266   8.388
 1241POPC   C3B19221   7.153  36.338   7.977
 1241POPC   C4B19222   7.394  36.633   7.769
 1242POPC   NC319223  32.782  26.256   9.344
 1242POPC   PO419224  32.705  25.695   9.707
 1242POPC   GL119225  33.100  25.896   9.288
 1242POPC   GL219226  33.272  26.247   9.215
 1242POPC   C1A19227  33.049  25.953   8.751
 1242POPC   D2A19228  32.798  25.983   8.329
 1242POPC   C3A19229  33.032  26.026   7.921
 1242POPC   C4A19230  33.115  25.946   7.461
 1242POPC   C1B19231  33.309  26.382   8.775
 1242POPC   C2B19232  33.170  26.329   8.342
 1242POPC   C3B19233  33.411  26.447   7.950
 1242POPC   C4B19234  33.511  26.295   7.533
 1243POPC   NC319235  18.568  19.996   9.538
 1243POPC   PO419236  17.963  19.591   9.458
 1243POPC   GL119237  18.412  19.570   9.224
 1243POPC   GL219238  18.514  19.887   9.036
 1243POPC   C1A19239  18.626  19.457   8.798
 1243POPC   D2A19240  18.612  19.596   8.348
 1243POPC   C3A19241  18.235  19.812   8.129
 1243POPC   C4A19242  18.029  19.841   7.696
 1243POPC   C1B19243  18.430  20.011   8.587
 1243POPC   C2B19244  18.670  20.072   8.199
 1243POPC   C3B19245  18.562  20.029   7.765
 1243POPC   C4B19246  18.322  20.176   7.398
 1244POPC   NC319247  24.295  34.438   9.372
 1244POPC   PO419248  24.726  34.984   9.549
 1244POPC   GL119249  24.599  34.769   9.142
 1244POPC   GL219250  24.741  34.440   9.114
 1244POPC   C1A19251  24.367  34.652   8.730
 1244POPC   D2A19252  24.246  34.368   8.376
 1244POPC   C3A19253  24.086  34.527   7.970
 1244POPC   C4A19254  24.275  34.732   7.613
 1244POPC   C1B19255  24.637  34.226   8.754
 1244POPC   C2B19256  24.774  34.346   8.386
 1244POPC   C3B19257  24.855  34.349   7.978
 1244POPC   C4B19258  24.522  34.310   7.708
 1245POPC   NC319259  30.771   9.329   9.387
 1245POPC   PO419260  30.529   8.737   9.570
 1245POPC   GL119261  30.596   8.883   9.151
 1245POPC   GL219262  30.280   9.085   9.153
 1245POPC   C1A19263  30.842   8.920   8.736
 1245POPC   D2A19264  30.972   8.730   8.318
 1245POPC   C3A19265  30.892   8.976   7.970
 1245POPC   C4A19266  30.800   9.162   7.575
 1245POPC   C1B19267  30.316   8.941   8.726
 1245POPC   C2B19268  30.444   8.800   8.322
 1245POPC   C3B19269  30.391   9.055   7.951
 1245POPC   C4B19270  30.255   9.094   7.538
 1246POPC   NC319271   4.822  13.052   9.483
 1246POPC   PO419272   5.338  12.611   9.473
 1246POPC   GL119273   5.061  12.766   9.147
 1246POPC   GL219274   4.765  12.583   9.005
 1246POPC   C1A19275   4.878  13.029   8.831
 1246POPC   D2A19276   4.685  12.778   8.527
 1246POPC   C3A19277   4.928  12.863   8.169
 1246POPC   C4A19278   4.993  13.081   7.751
 1246POPC   C1B19279   5.120  12.548   8.681
 1246POPC   C2B19280   5.244  12.425   8.239
 1246POPC   C3B19281   5.213  12.590   7.803
 1246POPC   C4B19282   5.398  12.448   7.368
 1247POPC   NC319283  21.772  32.909   9.360
 1247POPC   PO419284  21.162  33.267   9.514
 1247POPC   GL119285  21.320  33.036   9.151
 1247POPC   GL219286  21.556  33.206   8.970
 1247POPC   C1A19287  21.283  32.826   8.756
 1247POPC   D2A19288  21.461  33.006   8.401
 1247POPC   C3A19289  21.357  32.888   8.017
 1247POPC   C4A19290  21.320  33.038   7.593
 1247POPC   C1B19291  21.856  32.979   8.702
 1247POPC   C2B19292  21.927  33.091   8.270
 1247POPC   C3B19293  21.654  33.297   7.906
 1247POPC   C4B19294  21.693  33.308   7.416
 1248POPC   NC319295  31.607  34.064   9.435
 1248POPC   PO419296  31.675  33.360   9.528
 1248POPC   GL119297  31.432  33.661   9.170
 1248POPC   GL219298  31.183  34.008   9.132
 1248POPC   C1A19299  31.461  33.853   8.744
 1248POPC   D2A19300  31.693  33.960   8.384
 1248POPC   C3A19301  31.724  33.777   7.986
 1248POPC   C4A19302  31.577  33.546   7.666
 1248POPC   C1B19303  31.137  34.265   8.756
 1248POPC   C2B19304  31.070  34.027   8.396
 1248POPC   C3B19305  31.225  33.879   8.060
 1248POPC   C4B19306  31.290  33.967   7.685
 1249POPC   NC319307  43.629   9.021   9.677
 1249POPC   PO419308  44.277   9.215   9.783
 1249POPC   GL119309  44.028   9.057   9.353
 1249POPC   GL219310  43.692   9.160   9.198
 1249POPC   C1A19311  43.990   8.842   8.918
 1249POPC   D2A19312  43.798   8.779   8.479
 1249POPC   C3A19313  43.979   8.825   8.054
 1249POPC   C4A19314  43.922   8.934   7.595
 1249POPC   C1B19315  43.632   9.178   8.755
 1249POPC   C2B19316  43.720   9.257   8.319
 1249POPC   C3B19317  43.649   9.239   7.885
 1249POPC   C4B19318  43.743   9.463   7.526
 1250POPC   NC319319  13.129  16.122   9.732
 1250POPC   PO419320  12.698  15.623   9.724
 1250POPC   GL119321  12.928  15.864   9.314
 1250POPC   GL219322  12.851  16.174   9.209
 1250POPC   C1A19323  13.125  16.028   8.827
 1250POPC   D2A19324  12.980  16.176   8.399
 1250POPC   C3A19325  13.027  15.849   8.073
 1250POPC   C4A19326  13.263  15.790   7.731
 1250POPC   C1B19327  12.681  15.810   8.883
 1250POPC   C2B19328  12.653  15.770   8.418
 1250POPC   C3B19329  12.546  15.964   7.986
 1250POPC   C4B19330  12.800  16.020   7.595
 1251POPC   NC319331  20.844  19.367   9.580
 1251POPC   PO419332  20.445  19.967   9.632
 1251POPC   GL119333  20.572  19.726   9.304
 1251POPC   GL219334  20.298  19.559   9.147
 1251POPC   C1A19335  20.817  19.884   8.950
 1251POPC   D2A19336  20.701  20.019   8.535
 1251POPC   C3A19337  20.692  19.786   8.163
 1251POPC   C4A19338  20.670  19.938   7.741
 1251POPC   C1B19339  20.347  19.775   8.812
 1251POPC   C2B19340  20.213  19.824   8.409
 1251POPC   C3B19341  20.197  19.867   7.969
 1251POPC   C4B19342  20.014  20.018   7.572
 1252POPC   NC319343  21.594  19.143   9.556
 1252POPC   PO419344  21.017  18.969   9.390
 1252POPC   GL119345  21.365  19.202   9.104
 1252POPC   GL219346  21.737  19.376   9.152
 1252POPC   C1A19347  21.568  18.947   8.767
 1252POPC   D2A19348  21.301  18.791   8.383
 1252POPC   C3A19349  21.391  18.901   7.955
 1252POPC   C4A19350  21.210  19.216   7.677
 1252POPC   C1B19351  21.681  19.456   8.738
 1252POPC   C2B19352  21.552  19.244   8.360
 1252POPC   C3B19353  21.604  19.355   7.972
 1252POPC   C4B19354  21.839  19.348   7.663
 1253POPC   NC319355  22.378  29.683   9.589
 1253POPC   PO419356  23.005  30.056   9.622
 1253POPC   GL119357  22.930  29.947   9.225
 1253POPC   GL219358  22.586  30.040   9.273
 1253POPC   C1A19359  23.031  29.831   8.793
 1253POPC   D2A19360  23.007  29.694   8.363
 1253POPC   C3A19361  23.242  29.880   8.003
 1253POPC   C4A19362  23.062  29.914   7.575
 1253POPC   C1B19363  22.532  29.902   8.852
 1253POPC   C2B19364  22.490  29.884   8.385
 1253POPC   C3B19365  22.699  29.853   7.949
 1253POPC   C4B19366  22.641  30.209   7.630
 1254POPC   NC319367  19.681   1.975   9.635
 1254POPC   PO419368  20.382   2.051   9.638
 1254POPC   GL119369  20.049   2.094   9.249
 1254POPC   GL219370  19.660   2.114   9.165
 1254POPC   C1A19371  19.975   2.080   8.780
 1254POPC   D2A19372  19.962   2.310   8.380
 1254POPC   C3A19373  19.878   1.968   8.113
 1254POPC   C4A19374  19.925   1.954   7.696
 1254POPC   C1B19375  19.449   2.167   8.783
 1254POPC   C2B19376  19.364   2.424   8.419
 1254POPC   C3B19377  19.468   2.267   8.013
 1254POPC   C4B19378  19.280   2.187   7.634
 1255POPC   NC319379  10.353   3.769   9.620
 1255POPC   PO419380  10.961   3.954   9.579
 1255POPC   GL119381  10.686   3.805   9.232
 1255POPC   GL219382  10.572   3.451   9.272
 1255POPC   C1A19383  10.303   3.741   8.950
 1255POPC   D2A19384  10.271   3.516   8.550
 1255POPC   C3A19385  10.225   3.611   8.104
 1255POPC   C4A19386  10.301   3.487   7.655
 1255POPC   C1B19387  10.740   3.496   8.826
 1255POPC   C2B19388  10.772   3.554   8.371
 1255POPC   C3B19389  10.727   3.435   7.930
 1255POPC   C4B19390  10.821   3.237   7.510
 1256POPC   NC319391  16.613   0.873   9.930
 1256POPC   PO419392  16.659   0.283   9.518
 1256POPC   GL119393  16.881   0.197   9.104
 1256POPC   GL219394  16.889   0.551   9.131
 1256POPC   C1A19395  16.942   0.334   8.654
 1256POPC   D2A19396  16.758   0.193   8.239
 1256POPC   C3A19397  16.743   0.383   7.811
 1256POPC   C4A19398  16.339   0.562   7.657
 1256POPC   C1B19399  16.727   0.782   8.827
 1256POPC   C2B19400  16.783   0.814   8.424
 1256POPC   C3B19401  16.604   0.790   8.050
 1256POPC   C4B19402  16.762   0.904   7.645
 1257POPC   NC319403  31.707  17.707   9.660
 1257POPC   PO419404  31.092  17.791   9.576
 1257POPC   GL119405  31.415  17.675   9.210
 1257POPC   GL219406  31.747  17.493   9.198
 1257POPC   C1A19407  31.557  17.665   8.736
 1257POPC   D2A19408  31.501  17.449   8.318
 1257POPC   C3A19409  31.584  17.691   7.924
 1257POPC   C4A19410  31.353  17.938   7.612
 1257POPC   C1B19411  31.829  17.231   8.826
 1257POPC   C2B19412  31.958  17.192   8.376
 1257POPC   C3B19413  31.781  17.232   7.934
 1257POPC   C4B19414  31.657  17.173   7.492
 1258POPC   NC319415  11.538   8.250   9.595
 1258POPC   PO419416  11.176   7.639   9.652
 1258POPC   GL119417  11.247   7.920   9.256
 1258POPC   GL219418  11.417   8.174   9.134
 1258POPC   C1A19419  11.256   7.898   8.759
 1258POPC   D2A19420  11.541   7.803   8.387
 1258POPC   C3A19421  11.252   7.797   8.056
 1258POPC   C4A19422  11.219   8.066   7.714
 1258POPC   C1B19423  11.279   8.408   8.805
 1258POPC   C2B19424  10.990   8.333   8.532
 1258POPC   C3B19425  11.091   8.325   8.124
 1258POPC   C4B19426  11.260   8.588   7.787
 1259POPC   NC319427   3.605  42.936   9.498
 1259POPC   PO419428   3.705  42.172   9.445
 1259POPC   GL119429   3.654  42.434   9.123
 1259POPC   GL219430   3.909  42.678   9.167
 1259POPC   C1A19431   3.449  42.408   8.730
 1259POPC   D2A19432   3.229  42.242   8.384
 1259POPC   C3A19433   3.373  42.375   8.020
 1259POPC   C4A19434   3.478  42.265   7.649
 1259POPC   C1B19435   3.825  42.769   8.737
 1259POPC   C2B19436   3.666  42.665   8.345
 1259POPC   C3B19437   3.764  42.728   7.945
 1259POPC   C4B19438   3.919  42.526   7.608
 1260POPC   NC319439  14.773  27.894   9.604
 1260POPC   PO419440  14.454  27.312   9.450
 1260POPC   GL119441  14.566  27.298   9.078
 1260POPC   GL219442  14.659  27.002   9.022
 1260POPC   C1A19443  14.682  27.411   8.678
 1260POPC   D2A19444  14.915  27.478   8.304
 1260POPC   C3A19445  14.598  27.518   7.956
 1260POPC   C4A19446  14.246  27.752   7.749
 1260POPC   C1B19447  14.293  27.077   8.703
 1260POPC   C2B19448  14.229  27.323   8.309
 1260POPC   C3B19449  14.144  27.258   7.850
 1260POPC   C4B19450  14.429  27.211   7.473
 1261POPC   NC319451  14.086  13.998   9.442
 1261POPC   PO419452  14.415  14.629   9.558
 1261POPC   GL119453  14.522  14.611   9.174
 1261POPC   GL219454  14.437  14.261   9.132
 1261POPC   C1A19455  14.559  14.575   8.767
 1261POPC   D2A19456  14.354  14.390   8.431
 1261POPC   C3A19457  14.429  14.646   8.088
 1261POPC   C4A19458  14.549  14.539   7.679
 1261POPC   C1B19459  14.691  14.067   8.831
 1261POPC   C2B19460  14.699  14.006   8.420
 1261POPC   C3B19461  14.671  14.183   8.039
 1261POPC   C4B19462  14.612  13.964   7.687
 1262POPC   NC319463   4.776  22.292   9.573
 1262POPC   PO419464   5.396  22.620   9.498
 1262POPC   GL119465   5.152  22.883   9.196
 1262POPC   GL219466   4.823  22.774   9.140
 1262POPC   C1A19467   5.226  23.199   8.857
 1262POPC   D2A19468   5.292  23.274   8.428
 1262POPC   C3A19469   5.247  22.927   8.167
 1262POPC   C4A19470   5.260  23.063   7.751
 1262POPC   C1B19471   5.049  22.717   8.725
 1262POPC   C2B19472   4.912  22.535   8.325
 1262POPC   C3B19473   4.897  22.617   7.885
 1262POPC   C4B19474   4.736  22.583   7.438
 1263POPC   NC319475  15.699  14.008   9.557
 1263POPC   PO419476  16.128  14.474   9.583
 1263POPC   GL119477  16.051  14.350   9.188
 1263POPC   GL219478  15.752  14.439   9.078
 1263POPC   C1A19479  16.174  14.136   8.828
 1263POPC   D2A19480  16.383  14.216   8.470
 1263POPC   C3A19481  16.203  14.038   8.072
 1263POPC   C4A19482  16.246  14.244   7.694
 1263POPC   C1B19483  15.900  14.566   8.704
 1263POPC   C2B19484  15.940  14.413   8.293
 1263POPC   C3B19485  15.789  14.313   7.888
 1263POPC   C4B19486  15.811  14.557   7.497
 1264POPC   NC319487  29.413  22.768   9.457
 1264POPC   PO419488  28.782  23.010   9.547
 1264POPC   GL119489  29.066  23.204   9.219
 1264POPC   GL219490  29.064  22.875   9.089
 1264POPC   C1A19491  29.226  23.235   8.753
 1264POPC   D2A19492  29.204  22.978   8.376
 1264POPC   C3A19493  29.191  23.174   7.980
 1264POPC   C4A19494  29.148  23.303   7.563
 1264POPC   C1B19495  29.011  22.623   8.727
 1264POPC   C2B19496  29.210  22.452   8.351
 1264POPC   C3B19497  29.352  22.601   7.969
 1264POPC   C4B19498  29.088  22.777   7.668
 1265POPC   NC319499  32.014  39.660   9.366
 1265POPC   PO419500  32.533  40.080   9.520
 1265POPC   GL119501  32.425  39.912   9.122
 1265POPC   GL219502  32.141  40.117   9.076
 1265POPC   C1A19503  32.309  39.821   8.676
 1265POPC   D2A19504  32.224  39.652   8.267
 1265POPC   C3A19505  32.288  39.840   7.904
 1265POPC   C4A19506  32.029  39.665   7.613
 1265POPC   C1B19507  32.456  40.299   8.751
 1265POPC   C2B19508  32.425  40.223   8.294
 1265POPC   C3B19509  32.116  40.296   7.966
 1265POPC   C4B19510  32.291  40.385   7.590
 1266POPC   NC319511  43.674  33.483   9.433
 1266POPC   PO419512  43.819  34.139   9.545
 1266POPC   GL119513  43.887  33.888   9.195
 1266POPC   GL219514  44.079  34.121   9.070
 1266POPC   C1A19515  43.883  33.739   8.767
 1266POPC   D2A19516  43.659  33.842   8.381
 1266POPC   C3A19517  43.857  33.744   8.000
 1266POPC   C4A19518  43.761  33.468   7.680
 1266POPC   C1B19519  44.316  34.023   8.713
 1266POPC   C2B19520  44.255  33.891   8.285
 1266POPC   C3B19521  44.270  34.023   7.853
 1266POPC   C4B19522  44.218  34.203   7.434
 1267POPC   NC319523  11.350  16.070   9.545
 1267POPC   PO419524  10.859  16.044   9.288
 1267POPC   GL119525  11.260  15.951   9.046
 1267POPC   GL219526  11.543  16.188   9.079
 1267POPC   C1A19527  11.526  15.843   8.674
 1267POPC   D2A19528  11.691  16.057   8.290
 1267POPC   C3A19529  11.512  15.927   7.879
 1267POPC   C4A19530  11.581  15.714   7.447
 1267POPC   C1B19531  11.417  16.340   8.651
 1267POPC   C2B19532  11.267  16.331   8.198
 1267POPC   C3B19533  10.975  16.128   7.922
 1267POPC   C4B19534  10.762  16.118   7.496
 1268POPC   NC319535  30.340  27.473   9.537
 1268POPC   PO419536  30.949  27.781   9.564
 1268POPC   GL119537  30.756  27.867   9.146
 1268POPC   GL219538  30.381  27.767   9.112
 1268POPC   C1A19539  30.699  27.946   8.677
 1268POPC   D2A19540  30.775  27.717   8.258
 1268POPC   C3A19541  30.807  27.841   7.790
 1268POPC   C4A19542  31.049  27.702   7.406
 1268POPC   C1B19543  30.492  27.463   8.776
 1268POPC   C2B19544  30.404  27.290   8.365
 1268POPC   C3B19545  30.470  27.382   7.946
 1268POPC   C4B19546  30.261  27.754   7.853
 1269POPC   NC319547   3.281  39.875   9.450
 1269POPC   PO419548   3.902  39.927   9.680
 1269POPC   GL119549   3.773  40.130   9.246
 1269POPC   GL219550   3.411  40.247   9.124
 1269POPC   C1A19551   3.775  40.127   8.773
 1269POPC   D2A19552   3.802  40.379   8.402
 1269POPC   C3A19553   3.781  40.154   8.037
 1269POPC   C4A19554   3.589  39.870   7.748
 1269POPC   C1B19555   3.277  39.972   8.760
 1269POPC   C2B19556   3.377  39.930   8.293
 1269POPC   C3B19557   3.107  39.946   7.905
 1269POPC   C4B19558   3.203  40.131   7.468
 1270POPC   NC319559   4.980   8.373   9.859
 1270POPC   PO419560   5.294   8.866   9.483
 1270POPC   GL119561   5.304   9.164   9.071
 1270POPC   GL219562   5.170   8.897   8.880
 1270POPC   C1A19563   5.240   9.317   8.616
 1270POPC   D2A19564   5.116   8.941   8.349
 1270POPC   C3A19565   5.013   8.938   7.902
 1270POPC   C4A19566   4.998   9.172   7.505
 1270POPC   C1B19567   4.764   9.071   8.689
 1270POPC   C2B19568   4.603   8.977   8.252
 1270POPC   C3B19569   4.515   8.983   7.786
 1270POPC   C4B19570   4.749   8.696   7.478
 1271POPC   NC319571   5.495  13.811   9.404
 1271POPC   PO419572   4.899  13.509   9.485
 1271POPC   GL119573   5.045  13.749   9.158
 1271POPC   GL219574   4.901  14.085   9.219
 1271POPC   C1A19575   5.297  13.542   8.833
 1271POPC   D2A19576   5.175  13.261   8.499
 1271POPC   C3A19577   5.052  13.392   8.133
 1271POPC   C4A19578   4.786  13.533   7.794
 1271POPC   C1B19579   5.002  14.020   8.729
 1271POPC   C2B19580   5.245  13.789   8.398
 1271POPC   C3B19581   5.172  13.872   7.981
 1271POPC   C4B19582   4.784  14.036   7.800
 1272POPC   NC319583   8.761  21.417   9.780
 1272POPC   PO419584   9.307  21.711   9.632
 1272POPC   GL119585   8.949  21.561   9.334
 1272POPC   GL219586   8.989  21.185   9.338
 1272POPC   C1A19587   8.989  21.563   8.874
 1272POPC   D2A19588   8.767  21.573   8.479
 1272POPC   C3A19589   8.999  21.515   8.094
 1272POPC   C4A19590   8.901  21.655   7.698
 1272POPC   C1B19591   8.937  21.074   8.903
 1272POPC   C2B19592   9.105  21.134   8.466
 1272POPC   C3B19593   9.077  21.027   8.042
 1272POPC   C4B19594   9.117  21.210   7.660
 1273POPC   NC319595  29.740   6.238   9.337
 1273POPC   PO419596  29.848   5.588   9.461
 1273POPC   GL119597  29.962   5.798   9.081
 1273POPC   GL219598  30.205   6.088   9.066
 1273POPC   C1A19599  30.226   5.631   8.758
 1273POPC   D2A19600  30.161   5.534   8.335
 1273POPC   C3A19601  30.103   5.834   8.005
 1273POPC   C4A19602  29.955   5.671   7.606
 1273POPC   C1B19603  29.951   6.090   8.664
 1273POPC   C2B19604  29.712   6.024   8.274
 1273POPC   C3B19605  29.681   6.060   7.822
 1273POPC   C4B19606  29.703   6.110   7.358
 1274POPC   NC319607  44.314   6.522   9.553
 1274POPC   PO419608  44.913   6.740   9.510
 1274POPC   GL119609  44.601   6.606   9.133
 1274POPC   GL219610  44.316   6.336   9.064
 1274POPC   C1A19611  44.555   6.615   8.669
 1274POPC   D2A19612  44.290   6.502   8.301
 1274POPC   C3A19613  44.368   6.803   7.943
 1274POPC   C4A19614  44.691   6.985   7.708
 1274POPC   C1B19615  44.421   6.129   8.653
 1274POPC   C2B19616  44.749   6.247   8.333
 1274POPC   C3B19617  44.778   6.505   7.963
 1274POPC   C4B19618  44.537   6.421   7.595
 1275POPC   NC319619  12.539  10.245   9.525
 1275POPC   PO419620  12.982  10.699   9.353
 1275POPC   GL119621  12.657  10.509   9.102
 1275POPC   GL219622  12.779  10.223   8.938
 1275POPC   C1A19623  12.522  10.610   8.693
 1275POPC   D2A19624  12.775  10.726   8.328
 1275POPC   C3A19625  12.990  10.392   8.112
 1275POPC   C4A19626  13.026  10.293   7.682
 1275POPC   C1B19627  13.071  10.427   8.664
 1275POPC   C2B19628  13.388  10.597   8.376
 1275POPC   C3B19629  13.416  10.558   7.905
 1275POPC   C4B19630  13.122  10.769   7.634
 1276POPC   NC319631  29.345  20.240   9.895
 1276POPC   PO419632  29.162  20.809   9.621
 1276POPC   GL119633  29.250  20.821   9.172
 1276POPC   GL219634  29.505  21.077   9.134
 1276POPC   C1A19635  29.194  20.598   8.747
 1276POPC   D2A19636  29.465  20.376   8.432
 1276POPC   C3A19637  29.302  20.309   7.994
 1276POPC   C4A19638  28.918  20.230   7.757
 1276POPC   C1B19639  29.250  21.119   8.743
 1276POPC   C2B19640  28.903  20.917   8.476
 1276POPC   C3B19641  28.849  20.702   8.075
 1276POPC   C4B19642  29.068  20.933   7.740
 1277POPC   NC319643  32.708   4.351   9.715
 1277POPC   PO419644  32.209   4.094   9.687
 1277POPC   GL119645  32.397   4.227   9.292
 1277POPC   GL219646  32.197   4.443   9.089
 1277POPC   C1A19647  32.537   4.161   8.857
 1277POPC   D2A19648  32.437   4.411   8.482
 1277POPC   C3A19649  32.449   4.246   8.046
 1277POPC   C4A19650  32.390   4.082   7.621
 1277POPC   C1B19651  32.033   4.188   8.755
 1277POPC   C2B19652  32.113   4.015   8.370
 1277POPC   C3B19653  31.938   3.954   7.966
 1277POPC   C4B19654  31.899   4.121   7.546
 1278POPC   NC319655  12.438  33.831   9.579
 1278POPC   PO419656  11.773  33.962   9.375
 1278POPC   GL119657  12.046  33.767   9.123
 1278POPC   GL219658  12.375  33.926   9.062
 1278POPC   C1A19659  11.983  33.838   8.698
 1278POPC   D2A19660  11.922  33.729   8.298
 1278POPC   C3A19661  11.842  34.069   8.022
 1278POPC   C4A19662  11.916  33.970   7.631
 1278POPC   C1B19663  12.340  34.194   8.669
 1278POPC   C2B19664  12.312  34.137   8.218
 1278POPC   C3B19665  12.295  33.793   7.906
 1278POPC   C4B19666  12.512  33.487   7.637
 1279POPC   NC319667   5.570  37.778   9.824
 1279POPC   PO419668   4.981  37.729   9.666
 1279POPC   GL119669   4.944  37.495   9.276
 1279POPC   GL219670   5.064  37.754   9.117
 1279POPC   C1A19671   5.033  37.344   8.829
 1279POPC   D2A19672   5.156  37.596   8.434
 1279POPC   C3A19673   5.302  37.411   8.034
 1279POPC   C4A19674   5.280  37.580   7.626
 1279POPC   C1B19675   5.164  38.059   8.801
 1279POPC   C2B19676   5.334  38.142   8.418
 1279POPC   C3B19677   5.298  37.946   8.047
 1279POPC   C4B19678   5.100  38.055   7.656
 1280POPC   NC319679  38.567  29.447   9.422
 1280POPC   PO419680  38.128  29.071   9.501
 1280POPC   GL119681  38.375  29.116   9.125
 1280POPC   GL219682  38.280  29.473   8.996
 1280POPC   C1A19683  38.563  29.134   8.731
 1280POPC   D2A19684  38.386  28.859   8.410
 1280POPC   C3A19685  38.475  29.069   8.060
 1280POPC   C4A19686  38.372  28.899   7.701
 1280POPC   C1B19687  38.475  29.638   8.619
 1280POPC   C2B19688  38.540  29.577   8.157
 1280POPC   C3B19689  38.355  29.447   7.732
 1280POPC   C4B19690  38.441  29.405   7.284
 1281POPC   NC319691  41.919  39.401   9.485
 1281POPC   PO419692  41.336  39.102   9.462
 1281POPC   GL119693  41.651  39.073   9.159
 1281POPC   GL219694  41.586  39.417   9.086
 1281POPC   C1A19695  41.644  39.053   8.715
 1281POPC   D2A19696  41.398  38.968   8.353
 1281POPC   C3A19697  41.707  39.067   8.031
 1281POPC   C4A19698  41.719  39.482   7.808
 1281POPC   C1B19699  41.368  39.528   8.687
 1281POPC   C2B19700  41.394  39.487   8.226
 1281POPC   C3B19701  41.261  39.205   7.871
 1281POPC   C4B19702  41.158  39.269   7.439
 1282POPC   NC319703   0.976  35.378   9.406
 1282POPC   PO419704   1.610  35.594   9.441
 1282POPC   GL119705   1.427  35.294   9.144
 1282POPC   GL219706   1.248  35.504   8.956
 1282POPC   C1A19707   1.521  35.171   8.695
 1282POPC   D2A19708   1.314  35.313   8.323
 1282POPC   C3A19709   1.338  35.137   7.944
 1282POPC   C4A19710   1.497  35.406   7.606
 1282POPC   C1B19711   1.024  35.182   8.712
 1282POPC   C2B19712   0.763  35.104   8.361
 1282POPC   C3B19713   0.777  35.277   7.949
 1282POPC   C4B19714   0.995  35.217   7.570
 1283POPC   NC319715  35.002  27.480   9.412
 1283POPC   PO419716  34.345  27.601   9.511
 1283POPC   GL119717  34.531  27.749   9.130
 1283POPC   GL219718  34.852  27.684   8.964
 1283POPC   C1A19719  34.414  27.739   8.685
 1283POPC   D2A19720  34.417  27.557   8.273
 1283POPC   C3A19721  34.419  27.707   7.856
 1283POPC   C4A19722  34.611  27.496   7.503
 1283POPC   C1B19723  34.716  27.281   8.770
 1283POPC   C2B19724  34.746  27.174   8.308
 1283POPC   C3B19725  34.873  27.442   7.948
 1283POPC   C4B19726  35.105  27.441   7.511
 1284POPC   NC319727   0.131  40.042   9.645
 1284POPC   PO419728   0.740  40.234   9.398
 1284POPC   GL119729   0.537  40.116   9.070
 1284POPC   GL219730   0.362  39.821   9.226
 1284POPC   C1A19731   0.599  40.096   8.633
 1284POPC   D2A19732   0.453  39.742   8.373
 1284POPC   C3A19733   0.603  39.819   7.970
 1284POPC   C4A19734   0.578  40.177   7.724
 1284POPC   C1B19735   0.178  39.867   8.813
 1284POPC   C2B19736   0.097  40.111   8.422
 1284POPC   C3B19737   0.127  39.987   8.002
 1284POPC   C4B19738  44.986  40.228   7.685
 1285POPC   NC319739  37.468  22.622   9.730
 1285POPC   PO419740  37.612  22.022   9.731
 1285POPC   GL119741  37.701  22.196   9.293
 1285POPC   GL219742  37.437  22.017   9.082
 1285POPC   C1A19743  37.748  22.366   8.865
 1285POPC   D2A19744  37.501  22.550   8.543
 1285POPC   C3A19745  37.406  22.285   8.155
 1285POPC   C4A19746  37.655  22.342   7.777
 1285POPC   C1B19747  37.603  21.848   8.728
 1285POPC   C2B19748  37.459  21.757   8.332
 1285POPC   C3B19749  37.635  21.824   7.958
 1285POPC   C4B19750  37.462  21.902   7.585
 1286POPC   NC319751  17.255  29.872   9.710
 1286POPC   PO419752  17.816  30.158   9.703
 1286POPC   GL119753  17.568  29.948   9.303
 1286POPC   GL219754  17.249  29.829   9.212
 1286POPC   C1A19755  17.663  29.871   8.856
 1286POPC   D2A19756  17.598  29.640   8.470
 1286POPC   C3A19757  17.596  29.829   8.077
 1286POPC   C4A19758  17.528  29.941   7.644
 1286POPC   C1B19759  17.167  29.727   8.792
 1286POPC   C2B19760  17.079  29.641   8.362
 1286POPC   C3B19761  17.108  29.803   7.932
 1286POPC   C4B19762  17.038  29.948   7.500
 1287POPC   NC319763  35.226  17.754   9.584
 1287POPC   PO419764  35.717  17.308   9.488
 1287POPC   GL119765  35.490  17.588   9.173
 1287POPC   GL219766  35.093  17.531   9.160
 1287POPC   C1A19767  35.328  17.781   8.791
 1287POPC   D2A19768  35.379  17.557   8.419
 1287POPC   C3A19769  35.334  17.794   8.056
 1287POPC   C4A19770  35.451  17.894   7.634
 1287POPC   C1B19771  35.086  17.299   8.758
 1287POPC   C2B19772  34.982  17.263   8.320
 1287POPC   C3B19773  35.184  17.254   7.938
 1287POPC   C4B19774  34.916  17.255   7.555
 1288POPC   NC319775  20.125  28.284   9.388
 1288POPC   PO419776  19.450  28.100   9.350
 1288POPC   GL119777  19.645  28.156   8.971
 1288POPC   GL219778  19.693  28.501   9.007
 1288POPC   C1A19779  20.001  28.236   8.665
 1288POPC   D2A19780  20.137  28.104   8.242
 1288POPC   C3A19781  20.092  28.440   7.985
 1288POPC   C4A19782  20.173  28.562   7.591
 1288POPC   C1B19783  19.420  28.493   8.646
 1288POPC   C2B19784  19.659  28.431   8.298
 1288POPC   C3B19785  19.663  28.157   7.979
 1288POPC   C4B19786  19.700  28.325   7.612
 1289POPC   NC319787  24.011  18.577   9.445
 1289POPC   PO419788  23.726  18.016   9.576
 1289POPC   GL119789  23.584  18.133   9.118
 1289POPC   GL219790  23.877  18.313   9.024
 1289POPC   C1A19791  23.584  18.263   8.614
 1289POPC   D2A19792  23.460  18.618   8.325
 1289POPC   C3A19793  23.606  18.598   7.897
 1289POPC   C4A19794  23.650  18.514   7.441
 1289POPC   C1B19795  24.050  18.526   8.658
 1289POPC   C2B19796  23.940  18.427   8.237
 1289POPC   C3B19797  23.956  18.224   7.826
 1289POPC   C4B19798  24.143  18.325   7.423
 1290POPC   NC319799  27.476   2.857   9.593
 1290POPC   PO419800  28.021   2.306   9.529
 1290POPC   GL119801  27.705   2.595   9.217
 1290POPC   GL219802  27.610   3.012   9.135
 1290POPC   C1A19803  27.763   2.704   8.770
 1290POPC   D2A19804  27.901   2.558   8.383
 1290POPC   C3A19805  27.715   2.677   8.002
 1290POPC   C4A19806  27.438   2.623   7.664
 1290POPC   C1B19807  27.313   2.965   8.805
 1290POPC   C2B19808  27.350   2.771   8.362
 1290POPC   C3B19809  27.321   3.044   7.957
 1290POPC   C4B19810  27.124   3.008   7.532
 1291POPC   NC319811  31.501   0.350   9.421
 1291POPC   PO419812  31.377   1.001   9.531
 1291POPC   GL119813  31.242   0.751   9.172
 1291POPC   GL219814  31.513   0.538   8.964
 1291POPC   C1A19815  31.108   0.711   8.757
 1291POPC   D2A19816  31.380   0.517   8.438
 1291POPC   C3A19817  31.248   0.588   8.032
 1291POPC   C4A19818  31.523   0.688   7.680
 1291POPC   C1B19819  31.392   0.129   8.754
 1291POPC   C2B19820  31.366   0.015   8.288
 1291POPC   C3B19821  31.402   0.110   7.826
 1291POPC   C4B19822  31.090  44.988   7.501
 1292POPC   NC319823  16.967  12.472   9.460
 1292POPC   PO419824  16.812  13.158   9.489
 1292POPC   GL119825  16.872  12.914   9.164
 1292POPC   GL219826  17.230  12.805   9.148
 1292POPC   C1A19827  16.807  13.050   8.743
 1292POPC   D2A19828  16.760  13.270   8.349
 1292POPC   C3A19829  16.909  13.018   7.979
 1292POPC   C4A19830  16.821  12.967   7.499
 1292POPC   C1B19831  16.999  12.559   8.827
 1292POPC   C2B19832  16.938  12.570   8.411
 1292POPC   C3B19833  16.976  12.501   7.991
 1292POPC   C4B19834  16.606  12.612   7.805
 1293POPC   NC319835  19.808  18.729   9.300
 1293POPC   PO419836  19.614  18.119   9.619
 1293POPC   GL119837  19.725  18.282   9.122
 1293POPC   GL219838  20.030  18.320   9.017
 1293POPC   C1A19839  19.716  18.134   8.661
 1293POPC   D2A19840  19.941  17.960   8.294
 1293POPC   C3A19841  19.827  18.136   7.858
 1293POPC   C4A19842  19.440  18.270   7.596
 1293POPC   C1B19843  20.340  18.617   8.859
 1293POPC   C2B19844  20.374  18.775   8.456
 1293POPC   C3B19845  20.315  18.578   8.095
 1293POPC   C4B19846  20.108  18.539   7.724
 1294POPC   NC319847  34.304  24.562   9.486
 1294POPC   PO419848  33.671  24.463   9.542
 1294POPC   GL119849  33.841  24.579   9.162
 1294POPC   GL219850  34.050  24.275   9.157
 1294POPC   C1A19851  33.677  24.661   8.742
 1294POPC   D2A19852  33.582  24.824   8.316
 1294POPC   C3A19853  33.747  24.615   8.004
 1294POPC   C4A19854  33.807  24.755   7.615
 1294POPC   C1B19855  34.145  24.439   8.769
 1294POPC   C2B19856  33.926  24.342   8.402
 1294POPC   C3B19857  34.033  24.161   8.031
 1294POPC   C4B19858  33.990  24.289   7.656
 1295POPC   NC319859  32.229  27.061   9.518
 1295POPC   PO419860  32.059  26.451   9.602
 1295POPC   GL119861  32.057  26.673   9.214
 1295POPC   GL219862  32.412  26.601   9.142
 1295POPC   C1A19863  31.930  26.899   8.823
 1295POPC   D2A19864  32.137  26.820   8.412
 1295POPC   C3A19865  31.927  26.819   8.009
 1295POPC   C4A19866  32.083  26.614   7.625
 1295POPC   C1B19867  32.462  26.934   8.831
 1295POPC   C2B19868  32.627  26.976   8.401
 1295POPC   C3B19869  32.470  26.856   7.979
 1295POPC   C4B19870  32.671  27.148   7.695
 1296POPC   NC319871   4.007   4.355   9.568
 1296POPC   PO419872   3.444   4.216   9.692
 1296POPC   GL119873   3.666   4.081   9.289
 1296POPC   GL219874   3.714   4.372   9.114
 1296POPC   C1A19875   3.755   3.946   8.834
 1296POPC   D2A19876   3.723   4.079   8.371
 1296POPC   C3A19877   3.539   3.978   7.941
 1296POPC   C4A19878   3.222   4.160   7.628
 1296POPC   C1B19879   3.546   4.490   8.690
 1296POPC   C2B19880   3.562   4.566   8.225
 1296POPC   C3B19881   3.623   4.461   7.767
 1296POPC   C4B19882   3.521   4.513   7.309
 1297POPC   NC319883  34.499  40.110   9.412
 1297POPC   PO419884  35.086  40.220   9.734
 1297POPC   GL119885  34.975  40.157   9.210
 1297POPC   GL219886  34.892  39.835   8.940
 1297POPC   C1A19887  34.767  40.300   8.799
 1297POPC   D2A19888  34.791  40.101   8.401
 1297POPC   C3A19889  34.816  40.296   8.017
 1297POPC   C4A19890  34.753  40.118   7.554
 1297POPC   C1B19891  34.439  39.875   8.761
 1297POPC   C2B19892  34.282  40.019   8.358
 1297POPC   C3B19893  34.432  39.981   7.962
 1297POPC   C4B19894  34.171  40.000   7.658
 1298POPC   NC319895   5.757   8.713   9.399
 1298POPC   PO419896   6.212   9.175   9.552
 1298POPC   GL119897   6.126   8.995   9.167
 1298POPC   GL219898   5.799   9.176   9.187
 1298POPC   C1A19899   6.061   8.703   8.797
 1298POPC   D2A19900   5.953   8.621   8.347
 1298POPC   C3A19901   6.000   8.943   8.007
 1298POPC   C4A19902   6.036   8.929   7.533
 1298POPC   C1B19903   5.685   9.040   8.787
 1298POPC   C2B19904   5.619   9.048   8.372
 1298POPC   C3B19905   5.364   9.269   8.048
 1298POPC   C4B19906   5.496   9.137   7.650
 1299POPC   NC319907  28.788  12.927   9.551
 1299POPC   PO419908  29.465  12.692   9.529
 1299POPC   GL119909  29.401  12.747   9.090
 1299POPC   GL219910  29.135  12.979   9.119
 1299POPC   C1A19911  29.127  12.672   8.715
 1299POPC   D2A19912  28.939  12.862   8.354
 1299POPC   C3A19913  28.955  12.640   7.938
 1299POPC   C4A19914  29.120  12.704   7.519
 1299POPC   C1B19915  29.390  13.115   8.730
 1299POPC   C2B19916  29.345  13.191   8.278
 1299POPC   C3B19917  29.234  13.090   7.864
 1299POPC   C4B19918  29.374  13.123   7.420
 1300POPC   NC319919  18.356  35.852   9.506
 1300POPC   PO419920  18.780  36.337   9.670
 1300POPC   GL119921  18.544  36.318   9.244
 1300POPC   GL219922  18.724  36.285   8.920
 1300POPC   C1A19923  18.187  36.209   8.957
 1300POPC   D2A19924  17.977  36.183   8.534
 1300POPC   C3A19925  18.149  36.262   8.124
 1300POPC   C4A19926  18.001  36.085   7.760
 1300POPC   C1B19927  18.534  35.995   8.614
 1300POPC   C2B19928  18.541  35.940   8.165
 1300POPC   C3B19929  18.537  36.071   7.749
 1300POPC   C4B19930  18.815  36.405   7.548
 1301POPC   NC319931   9.923   1.527   9.514
 1301POPC   PO419932   9.445   1.173   9.450
 1301POPC   GL119933   9.676   1.195   9.045
 1301POPC   GL219934   9.699   1.530   9.025
 1301POPC   C1A19935   9.687   1.085   8.576
 1301POPC   D2A19936   9.636   0.987   8.115
 1301POPC   C3A19937   9.400   1.270   7.840
 1301POPC   C4A19938   9.472   1.279   7.378
 1301POPC   C1B19939   9.939   1.521   8.630
 1301POPC   C2B19940   9.946   1.386   8.185
 1301POPC   C3B19941   9.890   1.356   7.705
 1301POPC   C4B19942   9.893   1.637   7.336
 1302POPC   NC319943  28.003  29.014   9.509
 1302POPC   PO419944  28.345  29.627   9.572
 1302POPC   GL119945  28.485  29.255   9.253
 1302POPC   GL219946  28.339  28.931   9.134
 1302POPC   C1A19947  28.415  29.316   8.790
 1302POPC   D2A19948  28.186  29.323   8.413
 1302POPC   C3A19949  28.422  29.304   8.046
 1302POPC   C4A19950  28.198  29.432   7.689
 1302POPC   C1B19951  28.415  28.796   8.692
 1302POPC   C2B19952  28.462  28.532   8.317
 1302POPC   C3B19953  28.257  28.645   7.955
 1302POPC   C4B19954  28.424  28.949   7.664
 1303POPC   NC319955  35.664  16.846   9.452
 1303POPC   PO419956  34.969  16.645   9.475
 1303POPC   GL119957  35.240  16.756   9.152
 1303POPC   GL219958  35.344  17.090   9.147
 1303POPC   C1A19959  35.325  16.818   8.712
 1303POPC   D2A19960  35.457  17.035   8.342
 1303POPC   C3A19961  35.410  16.779   7.984
 1303POPC   C4A19962  35.242  16.873   7.580
 1303POPC   C1B19963  35.611  17.246   8.793
 1303POPC   C2B19964  35.937  17.177   8.469
 1303POPC   C3B19965  35.908  16.961   8.056
 1303POPC   C4B19966  35.718  17.037   7.653
 1304POPC   NC319967  12.096  34.277   9.300
 1304POPC   PO419968  11.600  34.643   9.524
 1304POPC   GL119969  11.791  34.806   9.160
 1304POPC   GL219970  12.151  34.815   9.240
 1304POPC   C1A19971  11.700  34.655   8.727
 1304POPC   D2A19972  11.880  34.347   8.456
 1304POPC   C3A19973  12.035  34.541   8.071
 1304POPC   C4A19974  11.919  34.482   7.652
 1304POPC   C1B19975  12.188  34.697   8.797
 1304POPC   C2B19976  12.384  34.653   8.423
 1304POPC   C3B19977  12.544  34.613   8.036
 1304POPC   C4B19978  12.409  34.359   7.734
 1305POPC   NC319979  40.437  26.387   9.608
 1305POPC   PO419980  40.559  25.724   9.476
 1305POPC   GL119981  40.742  26.058   9.281
 1305POPC   GL219982  40.456  26.196   9.138
 1305POPC   C1A19983  40.866  26.127   8.860
 1305POPC   D2A19984  40.643  26.254   8.493
 1305POPC   C3A19985  40.740  26.096   8.073
 1305POPC   C4A19986  40.862  26.137   7.643
 1305POPC   C1B19987  40.405  25.904   8.822
 1305POPC   C2B19988  40.321  25.865   8.375
 1305POPC   C3B19989  40.354  25.612   8.003
 1305POPC   C4B19990  40.610  25.716   7.702
 1306POPC   NC319991  37.760  24.980   9.520
 1306POPC   PO419992  37.651  24.267   9.501
 1306POPC   GL119993  37.823  24.543   9.182
 1306POPC   GL219994  37.598  24.825   9.040
 1306POPC   C1A19995  38.011  24.350   8.820
 1306POPC   D2A19996  37.979  24.451   8.396
 1306POPC   C3A19997  37.627  24.287   8.196
 1306POPC   C4A19998  37.654  24.566   7.869
 1306POPC   C1B19999  37.529  24.560   8.676
 1306POPC   C2B20000  37.358  24.723   8.272
 1306POPC   C3B20001  37.230  24.848   7.870
 1306POPC   C4B20002  37.342  24.668   7.460
 1307POPC   NC320003  10.444  36.325   9.372
 1307POPC   PO420004  10.907  35.824   9.391
 1307POPC   GL120005  10.682  35.981   9.057
 1307POPC   GL220006  10.671  36.355   8.934
 1307POPC   C1A20007  10.410  35.988   8.733
 1307POPC   D2A20008  10.599  36.234   8.415
 1307POPC   C3A20009  10.419  36.100   8.051
 1307POPC   C4A20010  10.574  36.217   7.656
 1307POPC   C1B20011  10.278  36.491   8.741
 1307POPC   C2B20012  10.186  36.494   8.302
 1307POPC   C3B20013  10.316  36.570   7.877
 1307POPC   C4B20014  10.144  36.360   7.442
 1308POPC   NC320015   7.141  36.843   9.474
 1308POPC   PO420016   7.772  36.581   9.515
 1308POPC   GL120017   7.570  36.926   9.222
 1308POPC   GL220018   7.816  36.917   8.994
 1308POPC   C1A20019   7.329  37.086   8.879
 1308POPC   D2A20020   7.175  37.180   8.491
 1308POPC   C3A20021   7.361  37.039   8.126
 1308POPC   C4A20022   7.223  37.163   7.727
 1308POPC   C1B20023   7.898  36.499   8.802
 1308POPC   C2B20024   7.759  36.489   8.377
 1308POPC   C3B20025   7.820  36.784   8.061
 1308POPC   C4B20026   7.715  37.014   7.729
 1309POPC   NC320027  16.119  16.455   9.576
 1309POPC   PO420028  15.805  16.928   9.902
 1309POPC   GL120029  15.833  16.776   9.332
 1309POPC   GL220030  16.099  16.830   9.116
 1309POPC   C1A20031  15.839  16.602   8.785
 1309POPC   D2A20032  15.927  16.682   8.375
 1309POPC   C3A20033  15.657  16.829   8.081
 1309POPC   C4A20034  15.892  16.730   7.734
 1309POPC   C1B20035  16.321  16.693   8.709
 1309POPC   C2B20036  16.518  16.747   8.331
 1309POPC   C3B20037  16.368  16.751   7.923
 1309POPC   C4B20038  16.313  16.784   7.444
 1310POPC   NC320039  22.930  41.239   9.673
 1310POPC   PO420040  23.225  41.819   9.498
 1310POPC   GL120041  22.973  41.609   9.166
 1310POPC   GL220042  22.783  41.286   9.202
 1310POPC   C1A20043  23.039  41.655   8.726
 1310POPC   D2A20044  23.283  41.639   8.350
 1310POPC   C3A20045  23.022  41.612   8.012
 1310POPC   C4A20046  22.989  41.778   7.619
 1310POPC   C1B20047  22.877  41.119   8.825
 1310POPC   C2B20048  23.047  41.170   8.441
 1310POPC   C3B20049  22.843  41.117   8.053
 1310POPC   C4B20050  22.783  41.320   7.668
 1311POPC   NC320051  38.138  26.434   9.223
 1311POPC   PO420052  38.758  26.174   9.463
 1311POPC   GL120053  38.504  26.106   9.057
 1311POPC   GL220054  38.259  25.862   8.978
 1311POPC   C1A20055  38.671  26.116   8.614
 1311POPC   D2A20056  38.896  26.332   8.244
 1311POPC   C3A20057  38.733  26.213   7.861
 1311POPC   C4A20058  38.313  26.306   7.806
 1311POPC   C1B20059  38.268  25.772   8.568
 1311POPC   C2B20060  38.236  25.950   8.180
 1311POPC   C3B20061  38.292  25.802   7.786
 1311POPC   C4B20062  38.181  25.655   7.400
 1312POPC   NC320063  30.059  14.689   9.369
 1312POPC   PO420064  30.424  14.147   9.195
 1312POPC   GL120065  30.100  14.368   8.949
 1312POPC   GL220066  29.747  14.465   8.998
 1312POPC   C1A20067  29.972  14.420   8.518
 1312POPC   D2A20068  29.832  14.130   8.176
 1312POPC   C3A20069  29.891  14.282   7.745
 1312POPC   C4A20070  29.873  14.198   7.273
 1312POPC   C1B20071  29.635  14.795   8.696
 1312POPC   C2B20072  29.829  14.894   8.300
 1312POPC   C3B20073  29.948  14.769   7.884
 1312POPC   C4B20074  29.750  14.706   7.460
 1313POPC   NC320075  11.724  10.732   9.302
 1313POPC   PO420076  12.279  10.602   9.655
 1313POPC   GL120077  12.144  10.413   9.230
 1313POPC   GL220078  12.300  10.112   9.081
 1313POPC   C1A20079  12.024  10.422   8.773
 1313POPC   D2A20080  12.070  10.352   8.311
 1313POPC   C3A20081  11.743  10.591   8.059
 1313POPC   C4A20082  11.848  10.883   7.729
 1313POPC   C1B20083  12.367  10.040   8.665
 1313POPC   C2B20084  12.578  10.226   8.350
 1313POPC   C3B20085  12.513  10.317   7.895
 1313POPC   C4B20086  12.229  10.558   7.620
 1314POPC   NC320087   6.348  44.836   9.511
 1314POPC   PO420088   7.023  44.755   9.449
 1314POPC   GL120089   6.732  44.902   9.150
 1314POPC   GL220090   6.607  44.559   9.072
 1314POPC   C1A20091   6.711  44.924   8.699
 1314POPC   D2A20092   6.386  44.813   8.381
 1314POPC   C3A20093   6.378   0.028   8.028
 1314POPC   C4A20094   6.763  44.924   7.869
 1314POPC   C1B20095   6.721  44.424   8.634
 1314POPC   C2B20096   6.858  44.497   8.205
 1314POPC   C3B20097   6.624  44.290   7.868
 1314POPC   C4B20098   6.140  44.250   7.883
 1315POPC   NC320099  36.566  26.138   9.360
 1315POPC   PO420100  37.150  26.029   9.720
 1315POPC   GL120101  37.094  26.030   9.281
 1315POPC   GL220102  37.303  25.768   9.262
 1315POPC   C1A20103  36.923  26.018   8.844
 1315POPC   D2A20104  36.852  26.277   8.495
 1315POPC   C3A20105  36.847  26.068   8.132
 1315POPC   C4A20106  36.921  26.103   7.709
 1315POPC   C1B20107  37.333  25.700   8.831
 1315POPC   C2B20108  37.167  25.784   8.431
 1315POPC   C3B20109  37.258  25.816   7.988
 1315POPC   C4B20110  37.362  25.785   7.564
 1316POPC   NC320111   3.467  35.933   9.620
 1316POPC   PO420112   3.834  36.499   9.365
 1316POPC   GL120113   3.520  36.208   9.161
 1316POPC   GL220114   3.591  35.829   9.150
 1316POPC   C1A20115   3.293  36.196   8.769
 1316POPC   D2A20116   3.549  36.162   8.386
 1316POPC   C3A20117   3.390  36.193   7.992
 1316POPC   C4A20118   3.504  36.312   7.601
 1316POPC   C1B20119   3.768  35.899   8.780
 1316POPC   C2B20120   3.775  35.679   8.420
 1316POPC   C3B20121   3.630  35.745   8.035
 1316POPC   C4B20122   3.821  35.799   7.651
 1317POPC   NC320123  36.244  15.179   9.527
 1317POPC   PO420124  35.617  14.959   9.455
 1317POPC   GL120125  35.966  15.064   9.121
 1317POPC   GL220126  36.194  15.389   9.075
 1317POPC   C1A20127  36.123  15.041   8.704
 1317POPC   D2A20128  35.967  15.270   8.360
 1317POPC   C3A20129  36.133  15.188   7.938
 1317POPC   C4A20130  36.541  15.030   7.749
 1317POPC   C1B20131  35.874  15.532   8.809
 1317POPC   C2B20132  35.739  15.755   8.437
 1317POPC   C3B20133  35.869  15.642   8.037
 1317POPC   C4B20134  35.772  15.443   7.685
 1318POPC   NC320135  21.573  26.389   9.536
 1318POPC   PO420136  21.183  25.871   9.559
 1318POPC   GL120137  21.226  26.177   9.205
 1318POPC   GL220138  21.591  26.198   9.086
 1318POPC   C1A20139  21.192  26.216   8.753
 1318POPC   D2A20140  21.493  26.142   8.439
 1318POPC   C3A20141  21.281  26.045   8.091
 1318POPC   C4A20142  21.302  25.893   7.694
 1318POPC   C1B20143  21.619  26.497   8.789
 1318POPC   C2B20144  21.778  26.567   8.392
 1318POPC   C3B20145  21.692  26.357   8.001
 1318POPC   C4B20146  21.334  26.403   7.712
 1319POPC   NC320147  30.443  29.748   9.326
 1319POPC   PO420148  30.922  30.172   9.518
 1319POPC   GL120149  30.987  30.026   9.121
 1319POPC   GL220150  31.092  30.379   9.051
 1319POPC   C1A20151  30.774  29.782   8.781
 1319POPC   D2A20152  30.458  29.789   8.459
 1319POPC   C3A20153  30.702  29.756   8.101
 1319POPC   C4A20154  30.647  29.833   7.701
 1319POPC   C1B20155  30.758  30.318   8.786
 1319POPC   C2B20156  30.863  30.136   8.407
 1319POPC   C3B20157  30.737  30.253   8.006
 1319POPC   C4B20158  30.933  30.246   7.624
 1320POPC   NC320159  35.864   7.986   9.393
 1320POPC   PO420160  36.378   8.422   9.518
 1320POPC   GL120161  36.237   8.208   9.145
 1320POPC   GL220162  36.364   7.930   9.172
 1320POPC   C1A20163  36.080   8.186   8.729
 1320POPC   D2A20164  35.928   7.988   8.361
 1320POPC   C3A20165  35.941   8.286   8.056
 1320POPC   C4A20166  36.113   8.272   7.667
 1320POPC   C1B20167  36.532   7.891   8.800
 1320POPC   C2B20168  36.465   8.077   8.399
 1320POPC   C3B20169  36.327   7.955   7.998
 1320POPC   C4B20170  36.461   7.879   7.583
 1321POPC   NC320171  15.198  29.998   9.864
 1321POPC   PO420172  14.865  29.520   9.450
 1321POPC   GL120173  14.992  29.713   9.106
 1321POPC   GL220174  15.334  29.860   9.113
 1321POPC   C1A20175  14.928  29.875   8.706
 1321POPC   D2A20176  14.781  29.824   8.312
 1321POPC   C3A20177  14.943  30.011   7.962
 1321POPC   C4A20178  15.322  29.912   7.793
 1321POPC   C1B20179  15.399  30.069   8.678
 1321POPC   C2B20180  15.386  30.187   8.222
 1321POPC   C3B20181  15.537  30.361   7.804
 1321POPC   C4B20182  15.557  30.324   7.345
 1322POPC   NC320183  24.873  20.943   9.383
 1322POPC   PO420184  25.457  21.282   9.534
 1322POPC   GL120185  25.313  21.427   9.160
 1322POPC   GL220186  25.556  21.232   9.021
 1322POPC   C1A20187  25.135  21.428   8.760
 1322POPC   D2A20188  25.319  21.585   8.408
 1322POPC   C3A20189  25.125  21.487   8.077
 1322POPC   C4A20190  24.870  21.240   7.819
 1322POPC   C1B20191  25.683  21.264   8.615
 1322POPC   C2B20192  25.636  21.252   8.185
 1322POPC   C3B20193  25.416  21.159   7.814
 1322POPC   C4B20194  25.507  21.189   7.369
 1323POPC   NC320195  42.281  38.546   9.574
 1323POPC   PO420196  42.447  37.950   9.393
 1323POPC   GL120197  42.454  38.252   9.108
 1323POPC   GL220198  42.118  38.307   9.137
 1323POPC   C1A20199  42.332  38.392   8.695
 1323POPC   D2A20200  42.489  38.504   8.327
 1323POPC   C3A20201  42.415  38.283   7.960
 1323POPC   C4A20202  42.618  38.316   7.562
 1323POPC   C1B20203  41.954  38.679   8.903
 1323POPC   C2B20204  42.059  38.808   8.473
 1323POPC   C3B20205  41.993  38.573   8.096
 1323POPC   C4B20206  41.917  38.707   7.698
 1324POPC   NC320207  24.227  26.675   9.594
 1324POPC   PO420208  24.736  26.966   9.484
 1324POPC   GL120209  24.573  27.082   9.094
 1324POPC   GL220210  24.245  26.923   9.097
 1324POPC   C1A20211  24.766  27.050   8.689
 1324POPC   D2A20212  24.881  26.695   8.437
 1324POPC   C3A20213  24.855  26.742   7.985
 1324POPC   C4A20214  24.606  27.056   7.790
 1324POPC   C1B20215  24.371  26.729   8.709
 1324POPC   C2B20216  24.455  26.421   8.415
 1324POPC   C3B20217  24.500  26.367   8.011
 1324POPC   C4B20218  24.209  26.689   7.884
 1325POPC   NC320219  34.456   5.607   9.362
 1325POPC   PO420220  34.891   6.055   9.545
 1325POPC   GL120221  34.815   5.928   9.111
 1325POPC   GL220222  34.512   6.098   9.090
 1325POPC   C1A20223  34.687   5.787   8.656
 1325POPC   D2A20224  34.724   5.468   8.299
 1325POPC   C3A20225  34.740   5.617   7.883
 1325POPC   C4A20226  34.702   6.037   7.790
 1325POPC   C1B20227  34.751   6.307   8.747
 1325POPC   C2B20228  34.904   6.207   8.318
 1325POPC   C3B20229  34.963   6.440   7.941
 1325POPC   C4B20230  34.755   6.452   7.531
 1326POPC   NC320231  36.015  23.449   9.520
 1326POPC   PO420232  36.285  24.039   9.460
 1326POPC   GL120233  36.252  23.719   9.144
 1326POPC   GL220234  35.914  23.687   9.079
 1326POPC   C1A20235  36.310  23.590   8.728
 1326POPC   D2A20236  36.240  23.844   8.388
 1326POPC   C3A20237  36.156  23.738   7.989
 1326POPC   C4A20238  36.445  23.859   7.720
 1326POPC   C1B20239  35.902  23.952   8.761
 1326POPC   C2B20240  35.743  23.877   8.373
 1326POPC   C3B20241  35.727  24.048   7.980
 1326POPC   C4B20242  35.660  23.810   7.619
 1327POPC   NC320243  11.763  11.505   9.505
 1327POPC   PO420244  12.132  10.936   9.218
 1327POPC   GL120245  12.295  11.361   9.135
 1327POPC   GL220246  11.966  11.454   9.057
 1327POPC   C1A20247  12.294  11.566   8.715
 1327POPC   D2A20248  12.194  11.489   8.287
 1327POPC   C3A20249  12.290  11.133   8.013
 1327POPC   C4A20250  12.377  11.475   7.743
 1327POPC   C1B20251  11.755  11.214   8.725
 1327POPC   C2B20252  11.858  11.085   8.292
 1327POPC   C3B20253  11.859  11.369   7.911
 1327POPC   C4B20254  11.860  11.329   7.492
 1328POPC   NC320255  29.665  35.980   9.446
 1328POPC   PO420256  30.247  36.257   9.419
 1328POPC   GL120257  30.070  35.971   9.119
 1328POPC   GL220258  29.868  36.290   9.071
 1328POPC   C1A20259  29.781  35.935   8.738
 1328POPC   D2A20260  29.714  36.154   8.337
 1328POPC   C3A20261  29.829  36.054   7.902
 1328POPC   C4A20262  29.643  36.327   7.598
 1328POPC   C1B20263  30.180  36.238   8.705
 1328POPC   C2B20264  30.208  35.976   8.342
 1328POPC   C3B20265  30.326  36.180   7.991
 1328POPC   C4B20266  30.154  36.455   7.687
 1329POPC   NC320267  31.907   4.903   9.482
 1329POPC   PO420268  32.393   5.482   9.518
 1329POPC   GL120269  32.419   5.125   9.216
 1329POPC   GL220270  32.526   4.774   9.359
 1329POPC   C1A20271  32.118   5.090   8.877
 1329POPC   D2A20272  31.991   5.350   8.501
 1329POPC   C3A20273  32.120   5.238   8.082
 1329POPC   C4A20274  31.951   4.936   7.756
 1329POPC   C1B20275  32.545   4.734   8.893
 1329POPC   C2B20276  32.390   4.925   8.490
 1329POPC   C3B20277  32.275   4.741   8.108
 1329POPC   C4B20278  32.513   4.674   7.756
 1330POPC   NC320279   9.743   3.086   9.444
 1330POPC   PO420280   9.833   2.445   9.476
 1330POPC   GL120281   9.609   2.529   9.059
 1330POPC   GL220282   9.500   2.889   8.978
 1330POPC   C1A20283   9.689   2.451   8.622
 1330POPC   D2A20284   9.668   2.714   8.247
 1330POPC   C3A20285   9.685   2.478   7.904
 1330POPC   C4A20286   9.981   2.491   7.593
 1330POPC   C1B20287   9.398   3.254   8.668
 1330POPC   C2B20288   9.422   3.279   8.195
 1330POPC   C3B20289   9.537   3.003   7.809
 1330POPC   C4B20290   9.586   2.817   7.395
 1331POPC   NC320291  37.513  26.332   9.616
 1331POPC   PO420292  38.049  26.013   9.403
 1331POPC   GL120293  37.756  25.935   9.084
 1331POPC   GL220294  37.568  26.235   9.104
 1331POPC   C1A20295  37.763  25.913   8.629
 1331POPC   D2A20296  37.683  25.679   8.233
 1331POPC   C3A20297  37.778  25.888   7.838
 1331POPC   C4A20298  37.838  26.291   7.653
 1331POPC   C1B20299  37.360  26.237   8.695
 1331POPC   C2B20300  37.313  26.249   8.251
 1331POPC   C3B20301  37.369  26.301   7.820
 1331POPC   C4B20302  37.373  26.252   7.384
 1332POPC   NC320303   7.694  41.875   9.388
 1332POPC   PO420304   7.770  41.235   9.676
 1332POPC   GL120305   7.537  41.334   9.254
 1332POPC   GL220306   7.176  41.441   9.227
 1332POPC   C1A20307   7.521  41.579   8.828
 1332POPC   D2A20308   7.635  41.671   8.406
 1332POPC   C3A20309   7.428  41.706   8.016
 1332POPC   C4A20310   7.193  41.763   7.649
 1332POPC   C1B20311   7.070  41.384   8.773
 1332POPC   C2B20312   7.157  41.278   8.310
 1332POPC   C3B20313   7.084  41.321   7.858
 1332POPC   C4B20314   7.147  41.344   7.370
 1333POPC   NC320315  44.274  32.129   9.704
 1333POPC   PO420316  43.561  32.201   9.571
 1333POPC   GL120317  43.839  32.301   9.252
 1333POPC   GL220318  44.174  32.426   9.279
 1333POPC   C1A20319  44.056  32.151   8.860
 1333POPC   D2A20320  43.912  32.059   8.447
 1333POPC   C3A20321  44.170  31.920   8.122
 1333POPC   C4A20322  44.087  32.056   7.715
 1333POPC   C1B20323  43.966  32.643   8.927
 1333POPC   C2B20324  44.099  32.549   8.537
 1333POPC   C3B20325  44.158  32.429   8.125
 1333POPC   C4B20326  44.022  32.548   7.736
 1334POPC   NC320327  21.530  44.421   9.745
 1334POPC   PO420328  21.002  44.913   9.442
 1334POPC   GL120329  21.230  44.712   9.133
 1334POPC   GL220330  21.570  44.580   9.206
 1334POPC   C1A20331  21.238  44.586   8.693
 1334POPC   D2A20332  21.457  44.457   8.315
 1334POPC   C3A20333  21.345  44.755   8.010
 1334POPC   C4A20334  20.978  44.744   7.770
 1334POPC   C1B20335  21.633  44.884   8.846
 1334POPC   C2B20336  21.809  44.876   8.427
 1334POPC   C3B20337  21.931  44.580   8.107
 1334POPC   C4B20338  21.683  44.456   7.769
 1335POPC   NC320339   8.436  10.962   9.598
 1335POPC   PO420340   8.145  11.588   9.572
 1335POPC   GL120341   8.298  11.388   9.166
 1335POPC   GL220342   8.554  11.111   9.107
 1335POPC   C1A20343   8.408  11.394   8.722
 1335POPC   D2A20344   8.527  11.638   8.376
 1335POPC   C3A20345   8.353  11.468   7.998
 1335POPC   C4A20346   8.089  11.430   7.653
 1335POPC   C1B20347   8.521  10.887   8.746
 1335POPC   C2B20348   8.543  10.699   8.396
 1335POPC   C3B20349   8.492  10.973   8.093
 1335POPC   C4B20350   8.393  11.045   7.692
 1336POPC   NC320351  25.045  34.258   9.546
 1336POPC   PO420352  25.384  33.642   9.456
 1336POPC   GL120353  25.329  33.960   9.138
 1336POPC   GL220354  24.991  33.992   9.106
 1336POPC   C1A20355  25.545  33.919   8.734
 1336POPC   D2A20356  25.379  33.633   8.445
 1336POPC   C3A20357  25.476  33.740   8.034
 1336POPC   C4A20358  25.595  33.673   7.628
 1336POPC   C1B20359  25.135  34.233   8.755
 1336POPC   C2B20360  25.214  34.110   8.325
 1336POPC   C3B20361  24.964  33.838   8.072
 1336POPC   C4B20362  24.826  33.914   7.666
 1337POPC   NC320363  30.480  23.943   9.462
 1337POPC   PO420364  30.995  23.625   9.751
 1337POPC   GL120365  30.954  23.645   9.271
 1337POPC   GL220366  30.610  23.521   9.172
 1337POPC   C1A20367  30.912  23.544   8.789
 1337POPC   D2A20368  30.934  23.731   8.394
 1337POPC   C3A20369  30.945  23.600   7.974
 1337POPC   C4A20370  30.986  24.028   7.824
 1337POPC   C1B20371  30.370  23.660   8.831
 1337POPC   C2B20372  30.458  23.934   8.513
 1337POPC   C3B20373  30.505  23.835   8.108
 1337POPC   C4B20374  30.497  23.672   7.715
 1338POPC   NC320375   2.295  19.741   9.574
 1338POPC   PO420376   2.899  20.144   9.630
 1338POPC   GL120377   2.690  19.955   9.259
 1338POPC   GL220378   2.915  19.714   9.043
 1338POPC   C1A20379   2.615  20.084   8.823
 1338POPC   D2A20380   2.657  19.845   8.402
 1338POPC   C3A20381   2.609  20.028   7.972
 1338POPC   C4A20382   2.666  19.843   7.542
 1338POPC   C1B20383   3.085  19.989   8.667
 1338POPC   C2B20384   3.070  20.124   8.237
 1338POPC   C3B20385   3.084  19.867   7.858
 1338POPC   C4B20386   3.166  19.970   7.399
 1339POPC   NC320387  25.884  34.651   9.748
 1339POPC   PO420388  25.862  34.340   9.174
 1339POPC   GL120389  26.052  34.553   8.854
 1339POPC   GL220390  26.153  34.902   8.891
 1339POPC   C1A20391  25.895  34.508   8.450
 1339POPC   D2A20392  25.699  34.195   8.222
 1339POPC   C3A20393  25.774  34.306   7.827
 1339POPC   C4A20394  25.798  34.669   7.607
 1339POPC   C1B20395  26.345  34.761   8.482
 1339POPC   C2B20396  26.419  34.370   8.260
 1339POPC   C3B20397  26.336  34.510   7.847
 1339POPC   C4B20398  26.172  34.948   7.837
 1340POPC   NC320399  36.058  42.238   9.753
 1340POPC   PO420400  36.516  42.592   9.380
 1340POPC   GL120401  36.134  42.647   9.115
 1340POPC   GL220402  35.910  42.344   9.224
 1340POPC   C1A20403  36.091  42.753   8.636
 1340POPC   D2A20404  36.197  42.854   8.166
 1340POPC   C3A20405  36.080  42.488   7.882
 1340POPC   C4A20406  36.232  42.111   7.665
 1340POPC   C1B20407  35.687  42.203   8.842
 1340POPC   C2B20408  35.825  42.059   8.434
 1340POPC   C3B20409  35.802  42.025   7.986
 1340POPC   C4B20410  35.568  42.221   7.727
 1341POPC   NC320411   4.189  30.911   9.551
 1341POPC   PO420412   4.737  30.381   9.516
 1341POPC   GL120413   4.428  30.431   9.182
 1341POPC   GL220414   4.340  30.775   9.088
 1341POPC   C1A20415   4.486  30.462   8.728
 1341POPC   D2A20416   4.228  30.410   8.383
 1341POPC   C3A20417   4.400  30.412   8.025
 1341POPC   C4A20418   4.309  30.377   7.644
 1341POPC   C1B20419   4.215  30.974   8.724
 1341POPC   C2B20420   4.017  30.955   8.323
 1341POPC   C3B20421   3.950  31.147   7.941
 1341POPC   C4B20422   4.252  30.871   7.747
 1342POPC   NC320423  32.569  15.193   9.392
 1342POPC   PO420424  31.903  14.999   9.507
 1342POPC   GL120425  32.211  14.893   9.164
 1342POPC   GL220426  32.194  15.247   9.069
 1342POPC   C1A20427  32.445  14.927   8.751
 1342POPC   D2A20428  32.291  15.060   8.325
 1342POPC   C3A20429  32.222  15.305   7.971
 1342POPC   C4A20430  32.294  14.955   7.671
 1342POPC   C1B20431  32.298  15.409   8.689
 1342POPC   C2B20432  32.577  15.482   8.337
 1342POPC   C3B20433  32.720  15.279   7.969
 1342POPC   C4B20434  32.549  15.360   7.542
 1343POPC   NC320435  15.707  38.947   9.503
 1343POPC   PO420436  16.331  38.569   9.702
 1343POPC   GL120437  16.351  38.348   9.253
 1343POPC   GL220438  16.042  38.459   9.124
 1343POPC   C1A20439  16.381  38.236   8.799
 1343POPC   D2A20440  16.215  38.066   8.380
 1343POPC   C3A20441  16.218  38.323   8.023
 1343POPC   C4A20442  15.941  38.557   7.744
 1343POPC   C1B20443  15.807  38.623   8.778
 1343POPC   C2B20444  15.852  38.452   8.360
 1343POPC   C3B20445  15.571  38.394   8.044
 1343POPC   C4B20446  15.533  38.827   7.879
 1344POPC   NC320447  29.654  13.196   9.795
 1344POPC   PO420448  30.119  12.773   9.536
 1344POPC   GL120449  29.918  12.620   9.098
 1344POPC   GL220450  29.917  12.960   8.887
 1344POPC   C1A20451  29.736  12.545   8.662
 1344POPC   D2A20452  30.040  12.464   8.301
 1344POPC   C3A20453  29.949  12.671   7.932
 1344POPC   C4A20454  29.517  12.666   7.828
 1344POPC   C1B20455  29.827  13.376   8.733
 1344POPC   C2B20456  29.841  13.267   8.324
 1344POPC   C3B20457  29.740  13.148   7.895
 1344POPC   C4B20458  29.827  13.316   7.507
 1345POPC   NC320459  43.918  19.495   9.807
 1345POPC   PO420460  44.329  19.812   9.499
 1345POPC   GL120461  44.116  19.891   9.122
 1345POPC   GL220462  43.791  19.787   9.227
 1345POPC   C1A20463  44.054  19.845   8.666
 1345POPC   D2A20464  43.941  20.101   8.264
 1345POPC   C3A20465  44.030  19.910   7.876
 1345POPC   C4A20466  44.376  19.585   7.767
 1345POPC   C1B20467  43.572  19.874   8.845
 1345POPC   C2B20468  43.618  19.723   8.411
 1345POPC   C3B20469  43.513  19.787   7.964
 1345POPC   C4B20470  43.608  19.839   7.507
 1346POPC   NC320471   0.453  33.847   9.674
 1346POPC   PO420472   0.794  34.288   9.326
 1346POPC   GL120473   0.527  33.940   9.157
 1346POPC   GL220474   0.584  33.563   9.262
 1346POPC   C1A20475   0.384  33.907   8.729
 1346POPC   D2A20476   0.377  34.050   8.281
 1346POPC   C3A20477   0.239  33.738   7.955
 1346POPC   C4A20478   0.444  33.556   7.604
 1346POPC   C1B20479   0.821  33.626   8.866
 1346POPC   C2B20480   0.635  33.555   8.446
 1346POPC   C3B20481   0.734  33.495   8.029
 1346POPC   C4B20482   0.883  33.785   7.724
 1347POPC   NC320483   7.748   0.414   9.555
 1347POPC   PO420484   7.111   0.752   9.445
 1347POPC   GL120485   7.475   0.678   9.175
 1347POPC   GL220486   7.593   0.321   9.084
 1347POPC   C1A20487   7.562   0.659   8.730
 1347POPC   D2A20488   7.480   0.417   8.376
 1347POPC   C3A20489   7.574   0.659   8.011
 1347POPC   C4A20490   7.505   0.457   7.653
 1347POPC   C1B20491   7.301   0.137   8.790
 1347POPC   C2B20492   7.196  44.945   8.387
 1347POPC   C3B20493   7.213   0.170   7.993
 1347POPC   C4B20494   7.144   0.121   7.557
 1348POPC   NC320495  21.883   0.576   9.551
 1348POPC   PO420496  21.902  44.897   9.441
 1348POPC   GL120497  21.919   0.223   9.152
 1348POPC   GL220498  22.171   0.524   9.115
 1348POPC   C1A20499  21.766   0.382   8.785
 1348POPC   D2A20500  22.046   0.488   8.498
 1348POPC   C3A20501  21.891   0.545   8.132
 1348POPC   C4A20502  21.773   0.342   7.769
 1348POPC   C1B20503  22.300   0.826   8.764
 1348POPC   C2B20504  22.261   0.903   8.299
 1348POPC   C3B20505  22.361   0.617   7.926
 1348POPC   C4B20506  22.551   0.693   7.490
 1349POPC   NC320507   1.046  19.388   9.518
 1349POPC   PO420508   1.494  19.831   9.324
 1349POPC   GL120509   1.183  19.679   9.083
 1349POPC   GL220510   1.019  19.971   8.976
 1349POPC   C1A20511   1.294  19.639   8.667
 1349POPC   D2A20512   1.438  19.802   8.302
 1349POPC   C3A20513   1.379  19.522   7.978
 1349POPC   C4A20514   1.461  19.705   7.581
 1349POPC   C1B20515   1.220  20.161   8.656
 1349POPC   C2B20516   0.961  20.026   8.362
 1349POPC   C3B20517   0.997  19.850   7.989
 1349POPC   C4B20518   1.031  19.964   7.606
 1350POPC   NC320519  21.146   9.044   9.447
 1350POPC   PO420520  21.787   9.285   9.488
 1350POPC   GL120521  21.590   9.146   9.090
 1350POPC   GL220522  21.429   8.823   9.087
 1350POPC   C1A20523  21.683   8.917   8.671
 1350POPC   D2A20524  21.910   8.729   8.331
 1350POPC   C3A20525  21.679   8.901   8.018
 1350POPC   C4A20526  21.391   9.171   7.854
 1350POPC   C1B20527  21.193   9.049   8.755
 1350POPC   C2B20528  21.133   9.175   8.304
 1350POPC   C3B20529  20.914   9.002   7.905
 1350POPC   C4B20530  20.640   9.007   7.538
 1351POPC   NC320531  27.482   9.324   9.355
 1351POPC   PO420532  27.998   9.602   9.641
 1351POPC   GL120533  27.801   9.716   9.201
 1351POPC   GL220534  27.620   9.491   8.925
 1351POPC   C1A20535  27.822   9.917   8.784
 1351POPC   D2A20536  27.659   9.696   8.454
 1351POPC   C3A20537  27.564   9.835   8.078
 1351POPC   C4A20538  27.414   9.521   7.754
 1351POPC   C1B20539  27.306   9.794   8.851
 1351POPC   C2B20540  27.138   9.704   8.470
 1351POPC   C3B20541  27.054   9.691   8.074
 1351POPC   C4B20542  26.908   9.424   7.767
 1352POPC   NC320543  32.316   6.678   9.501
 1352POPC   PO420544  31.735   6.261   9.499
 1352POPC   GL120545  32.014   6.329   9.148
 1352POPC   GL220546  32.001   6.698   9.106
 1352POPC   C1A20547  32.223   6.432   8.729
 1352POPC   D2A20548  32.420   6.707   8.424
 1352POPC   C3A20549  32.291   6.663   8.001
 1352POPC   C4A20550  32.196   6.464   7.640
 1352POPC   C1B20551  31.975   6.913   8.719
 1352POPC   C2B20552  32.024   7.033   8.276
 1352POPC   C3B20553  31.855   6.932   7.863
 1352POPC   C4B20554  32.033   6.935   7.445
 1353POPC   NC320555  11.531  31.180   9.575
 1353POPC   PO420556  11.132  31.611   9.475
 1353POPC   GL120557  11.491  31.559   9.196
 1353POPC   GL220558  11.527  31.236   9.051
 1353POPC   C1A20559  11.621  31.691   8.790
 1353POPC   D2A20560  11.570  31.393   8.432
 1353POPC   C3A20561  11.419  31.536   8.031
 1353POPC   C4A20562  10.986  31.694   7.914
 1353POPC   C1B20563  11.193  31.424   8.793
 1353POPC   C2B20564  11.034  31.440   8.361
 1353POPC   C3B20565  11.060  31.185   7.943
 1353POPC   C4B20566  11.163  30.947   7.547
 1354POPC   NC320567   2.429  28.806   9.945
 1354POPC   PO420568   2.747  29.250   9.453
 1354POPC   GL120569   2.788  29.287   9.036
 1354POPC   GL220570   3.118  29.419   9.035
 1354POPC   C1A20571   2.648  29.061   8.669
 1354POPC   D2A20572   2.452  29.060   8.261
 1354POPC   C3A20573   2.603  29.076   7.810
 1354POPC   C4A20574   2.563  29.412   7.485
 1354POPC   C1B20575   3.103  29.255   8.605
 1354POPC   C2B20576   2.953  29.189   8.191
 1354POPC   C3B20577   2.943  29.445   7.833
 1354POPC   C4B20578   3.070  29.327   7.419
 1355POPC   NC320579  20.627  31.461   9.601
 1355POPC   PO420580  21.016  30.928   9.356
 1355POPC   GL120581  20.791  31.298   9.154
 1355POPC   GL220582  20.438  31.383   9.124
 1355POPC   C1A20583  20.778  31.400   8.734
 1355POPC   D2A20584  20.785  31.621   8.353
 1355POPC   C3A20585  21.001  31.513   8.005
 1355POPC   C4A20586  20.678  31.387   7.765
 1355POPC   C1B20587  20.205  31.537   8.776
 1355POPC   C2B20588  20.044  31.525   8.369
 1355POPC   C3B20589  20.329  31.610   8.064
 1355POPC   C4B20590  20.346  31.748   7.661
 1356POPC   NC320591  28.613  11.682   9.419
 1356POPC   PO420592  28.386  11.052   9.448
 1356POPC   GL120593  28.212  11.172   9.092
 1356POPC   GL220594  28.188  11.483   9.021
 1356POPC   C1A20595  28.399  11.150   8.697
 1356POPC   D2A20596  28.626  10.929   8.374
 1356POPC   C3A20597  28.498  10.968   7.941
 1356POPC   C4A20598  28.395  11.190   7.606
 1356POPC   C1B20599  28.531  11.639   8.766
 1356POPC   C2B20600  28.632  11.470   8.376
 1356POPC   C3B20601  28.559  11.546   7.989
 1356POPC   C4B20602  28.470  11.687   7.587
 1357POPC   NC320603  41.717  14.994   9.357
 1357POPC   PO420604  41.582  15.633   9.277
 1357POPC   GL120605  41.420  15.286   9.051
 1357POPC   GL220606  41.251  14.935   9.169
 1357POPC   C1A20607  41.617  15.122   8.722
 1357POPC   D2A20608  41.818  15.177   8.383
 1357POPC   C3A20609  41.510  15.358   8.153
 1357POPC   C4A20610  41.570  15.160   7.808
 1357POPC   C1B20611  41.045  15.013   8.788
 1357POPC   C2B20612  40.957  14.889   8.368
 1357POPC   C3B20613  41.124  14.908   7.952
 1357POPC   C4B20614  41.371  14.716   7.647
 1358POPC   NC320615  38.233  44.299   9.589
 1358POPC   PO420616  38.426  44.982   9.497
 1358POPC   GL120617  38.526  44.737   9.156
 1358POPC   GL220618  38.366  44.545   9.162
 1358POPC   C1A20619  38.713  44.809   8.761
 1358POPC   D2A20620  38.856  44.760   8.350
 1358POPC   C3A20621  38.508  44.740   8.046
 1358POPC   C4A20622  38.261  44.950   7.717
 1358POPC   C1B20623  38.420  44.375   8.766
 1358POPC   C2B20624  38.272  44.222   8.393
 1358POPC   C3B20625  38.247  44.286   7.970
 1358POPC   C4B20626  38.349  44.473   7.584
 1359POPC   NC320627  24.029  20.437   9.367
 1359POPC   PO420628  24.546  20.682   9.656
 1359POPC   GL120629  24.455  20.759   9.173
 1359POPC   GL220630  24.191  20.737   8.952
 1359POPC   C1A20631  24.673  20.729   8.727
 1359POPC   D2A20632  24.607  20.532   8.328
 1359POPC   C3A20633  24.850  20.383   7.985
 1359POPC   C4A20634  24.759  20.575   7.593
 1359POPC   C1B20635  24.325  20.334   8.758
 1359POPC   C2B20636  24.254  20.163   8.322
 1359POPC   C3B20637  24.337  20.375   7.897
 1359POPC   C4B20638  24.197  20.268   7.462
 1360POPC   NC320639  42.175  34.597   9.459
 1360POPC   PO420640  42.872  34.461   9.542
 1360POPC   GL120641  42.651  34.654   9.189
 1360POPC   GL220642  42.613  34.987   9.142
 1360POPC   C1A20643  42.369  34.523   8.850
 1360POPC   D2A20644  42.434  34.450   8.439
 1360POPC   C3A20645  42.189  34.375   8.098
 1360POPC   C4A20646  42.451  34.455   7.727
 1360POPC   C1B20647  42.365  35.031   8.780
 1360POPC   C2B20648  42.280  34.929   8.371
 1360POPC   C3B20649  42.220  34.871   7.964
 1360POPC   C4B20650  41.957  34.647   7.705
 1361POPC   NC320651  35.826  41.431   9.536
 1361POPC   PO420652  36.166  41.802   9.884
 1361POPC   GL120653  36.132  41.805   9.376
 1361POPC   GL220654  36.260  41.465   9.216
 1361POPC   C1A20655  35.948  41.730   8.912
 1361POPC   D2A20656  35.908  41.562   8.459
 1361POPC   C3A20657  36.132  41.664   8.104
 1361POPC   C4A20658  36.046  41.654   7.677
 1361POPC   C1B20659  36.179  41.259   8.790
 1361POPC   C2B20660  36.222  41.193   8.317
 1361POPC   C3B20661  36.444  41.291   7.960
 1361POPC   C4B20662  36.549  41.676   7.754
 1362POPC   NC320663  40.617  29.314   9.414
 1362POPC   PO420664  40.702  28.684   9.411
 1362POPC   GL120665  40.825  29.003   9.088
 1362POPC   GL220666  40.468  29.008   9.041
 1362POPC   C1A20667  41.154  29.185   8.790
 1362POPC   D2A20668  41.362  29.007   8.423
 1362POPC   C3A20669  41.008  29.026   8.136
 1362POPC   C4A20670  40.736  29.067   7.788
 1362POPC   C1B20671  40.651  28.942   8.618
 1362POPC   C2B20672  40.499  29.145   8.258
 1362POPC   C3B20673  40.217  29.153   7.918
 1362POPC   C4B20674  40.288  29.092   7.454
 1363POPC   NC320675  28.639   4.560   9.515
 1363POPC   PO420676  28.507   3.954   9.729
 1363POPC   GL120677  28.603   4.162   9.221
 1363POPC   GL220678  28.367   4.443   9.088
 1363POPC   C1A20679  28.761   4.327   8.792
 1363POPC   D2A20680  28.539   4.307   8.383
 1363POPC   C3A20681  28.528   4.505   7.990
 1363POPC   C4A20682  28.495   4.262   7.607
 1363POPC   C1B20683  28.197   4.200   8.749
 1363POPC   C2B20684  28.122   4.035   8.318
 1363POPC   C3B20685  28.084   4.209   7.913
 1363POPC   C4B20686  27.992   4.250   7.445
 1364POPC   NC320687   4.911  14.578   9.653
 1364POPC   PO420688   5.518  14.293   9.456
 1364POPC   GL120689   5.190  14.516   9.180
 1364POPC   GL220690   5.314  14.280   8.995
 1364POPC   C1A20691   5.143  14.661   8.712
 1364POPC   D2A20692   5.367  14.713   8.302
 1364POPC   C3A20693   5.214  14.467   7.962
 1364POPC   C4A20694   5.308  14.545   7.550
 1364POPC   C1B20695   5.540  14.058   8.725
 1364POPC   C2B20696   5.543  14.198   8.312
 1364POPC   C3B20697   5.620  14.190   7.912
 1364POPC   C4B20698   5.408  14.061   7.582
 1365POPC   NC320699  26.085  24.103   9.457
 1365POPC   PO420700  25.789  24.755   9.542
 1365POPC   GL120701  25.918  24.497   9.178
 1365POPC   GL220702  25.712  24.222   9.100
 1365POPC   C1A20703  26.130  24.617   8.787
 1365POPC   D2A20704  26.196  24.810   8.373
 1365POPC   C3A20705  26.112  24.527   8.042
 1365POPC   C4A20706  26.170  24.318   7.643
 1365POPC   C1B20707  26.077  24.100   8.805
 1365POPC   C2B20708  26.332  24.267   8.443
 1365POPC   C3B20709  26.355  24.073   8.053
 1365POPC   C4B20710  25.933  23.950   7.898
 1366POPC   NC320711  14.270  26.897   9.344
 1366POPC   PO420712  14.887  26.685   9.428
 1366POPC   GL120713  14.774  26.510   9.041
 1366POPC   GL220714  14.418  26.481   9.056
 1366POPC   C1A20715  14.663  26.692   8.628
 1366POPC   D2A20716  14.661  27.042   8.324
 1366POPC   C3A20717  14.539  26.985   7.945
 1366POPC   C4A20718  14.510  26.583   7.955
 1366POPC   C1B20719  14.181  26.575   8.691
 1366POPC   C2B20720  14.185  26.768   8.298
 1366POPC   C3B20721  13.989  26.647   7.921
 1366POPC   C4B20722  14.106  26.835   7.531
 1367POPC   NC320723  30.587   6.618   9.485
 1367POPC   PO420724  30.317   7.242   9.478
 1367POPC   GL120725  30.471   6.990   9.101
 1367POPC   GL220726  30.355   6.649   9.031
 1367POPC   C1A20727  30.649   6.868   8.667
 1367POPC   D2A20728  30.907   6.724   8.314
 1367POPC   C3A20729  30.731   6.812   7.914
 1367POPC   C4A20730  30.321   6.734   7.695
 1367POPC   C1B20731  30.330   6.447   8.659
 1367POPC   C2B20732  30.434   6.492   8.236
 1367POPC   C3B20733  30.123   6.350   7.971
 1367POPC   C4B20734  30.122   6.188   7.602
 1368POPC   NC320735   7.330  22.745   9.221
 1368POPC   PO420736   7.784  22.438   9.549
 1368POPC   GL120737   7.612  22.278   9.148
 1368POPC   GL220738   7.257  22.250   9.084
 1368POPC   C1A20739   7.610  21.949   8.839
 1368POPC   D2A20740   7.884  22.168   8.579
 1368POPC   C3A20741   7.841  22.209   8.152
 1368POPC   C4A20742   7.660  21.901   7.880
 1368POPC   C1B20743   7.267  22.304   8.666
 1368POPC   C2B20744   7.387  22.050   8.341
 1368POPC   C3B20745   7.319  22.291   7.991
 1368POPC   C4B20746   7.276  22.618   7.684
 1369POPC   NC320747  36.682  21.215   9.532
 1369POPC   PO420748  37.288  21.592   9.394
 1369POPC   GL120749  37.088  21.288   9.123
 1369POPC   GL220750  36.776  21.445   9.106
 1369POPC   C1A20751  36.921  21.190   8.697
 1369POPC   D2A20752  37.004  21.436   8.329
 1369POPC   C3A20753  37.054  21.244   7.923
 1369POPC   C4A20754  37.125  21.504   7.550
 1369POPC   C1B20755  36.550  21.646   8.811
 1369POPC   C2B20756  36.492  21.444   8.434
 1369POPC   C3B20757  36.579  21.481   7.999
 1369POPC   C4B20758  36.653  21.345   7.600
 1370POPC   NC320759   0.728  14.376   9.398
 1370POPC   PO420760   1.294  14.659   9.422
 1370POPC   GL120761   1.192  14.787   9.018
 1370POPC   GL220762   0.839  14.694   9.005
 1370POPC   C1A20763   1.218  14.713   8.601
 1370POPC   D2A20764   1.553  14.714   8.300
 1370POPC   C3A20765   1.454  14.774   7.876
 1370POPC   C4A20766   1.477  14.496   7.521
 1370POPC   C1B20767   1.119  14.304   8.869
 1370POPC   C2B20768   1.212  14.230   8.430
 1370POPC   C3B20769   1.278  14.300   8.004
 1370POPC   C4B20770   1.090  14.181   7.632
 1371POPC   NC320771  32.598  24.463   9.431
 1371POPC   PO420772  32.085  24.074   9.596
 1371POPC   GL120773  32.161  24.493   9.204
 1371POPC   GL220774  32.433  24.785   9.082
 1371POPC   C1A20775  32.093  24.552   8.758
 1371POPC   D2A20776  32.380  24.437   8.407
 1371POPC   C3A20777  32.274  24.572   7.982
 1371POPC   C4A20778  32.336  24.351   7.604
 1371POPC   C1B20779  32.472  24.873   8.634
 1371POPC   C2B20780  32.674  24.841   8.208
 1371POPC   C3B20781  32.556  24.937   7.757
 1371POPC   C4B20782  32.581  24.714   7.325
 1372POPC   NC320783  22.474  33.288   9.341
 1372POPC   PO420784  22.240  32.635   9.360
 1372POPC   GL120785  22.236  32.950   9.039
 1372POPC   GL220786  22.421  32.733   8.885
 1372POPC   C1A20787  22.289  33.241   8.648
 1372POPC   D2A20788  22.428  33.176   8.194
 1372POPC   C3A20789  22.156  33.264   7.867
 1372POPC   C4A20790  22.187  33.255   7.429
 1372POPC   C1B20791  22.207  32.563   8.604
 1372POPC   C2B20792  22.277  32.688   8.211
 1372POPC   C3B20793  22.352  32.796   7.803
 1372POPC   C4B20794  22.612  33.118   7.684
 1373POPC   NC320795  24.142  28.283   9.476
 1373POPC   PO420796  24.663  28.521   9.463
 1373POPC   GL120797  24.425  28.521   9.121
 1373POPC   GL220798  24.485  28.187   9.083
 1373POPC   C1A20799  24.098  28.629   8.826
 1373POPC   D2A20800  23.954  28.455   8.456
 1373POPC   C3A20801  24.280  28.598   8.201
 1373POPC   C4A20802  24.411  28.418   7.818
 1373POPC   C1B20803  24.310  28.153   8.681
 1373POPC   C2B20804  24.447  28.097   8.249
 1373POPC   C3B20805  24.749  28.044   7.918
 1373POPC   C4B20806  24.800  28.050   7.462
 1374POPC   NC320807  37.854  31.850   9.544
 1374POPC   PO420808  37.837  32.483   9.518
 1374POPC   GL120809  37.639  32.392   9.112
 1374POPC   GL220810  37.686  32.071   9.107
 1374POPC   C1A20811  37.674  32.401   8.645
 1374POPC   D2A20812  37.781  32.450   8.163
 1374POPC   C3A20813  37.607  32.555   7.734
 1374POPC   C4A20814  37.362  32.176   7.557
 1374POPC   C1B20815  37.889  31.934   8.726
 1374POPC   C2B20816  37.787  31.729   8.335
 1374POPC   C3B20817  37.559  31.921   8.014
 1374POPC   C4B20818  37.837  31.990   7.696
 1375POPC   NC320819   6.543   4.787   9.438
 1375POPC   PO420820   7.033   5.206   9.574
 1375POPC   GL120821   6.711   5.176   9.171
 1375POPC   GL220822   6.374   5.271   9.211
 1375POPC   C1A20823   6.825   5.275   8.738
 1375POPC   D2A20824   6.841   5.418   8.327
 1375POPC   C3A20825   6.772   5.058   8.054
 1375POPC   C4A20826   6.452   4.940   7.763
 1375POPC   C1B20827   6.312   5.383   8.765
 1375POPC   C2B20828   6.384   5.636   8.393
 1375POPC   C3B20829   6.411   5.423   7.989
 1375POPC   C4B20830   6.430   5.402   7.533
 1376POPC   NC320831  36.914  37.143   9.639
 1376POPC   PO420832  37.454  36.795   9.579
 1376POPC   GL120833  37.084  36.837   9.241
 1376POPC   GL220834  36.826  37.142   9.150
 1376POPC   C1A20835  36.940  36.808   8.789
 1376POPC   D2A20836  36.892  36.994   8.376
 1376POPC   C3A20837  36.839  36.742   8.015
 1376POPC   C4A20838  37.112  36.638   7.705
 1376POPC   C1B20839  36.796  37.328   8.750
 1376POPC   C2B20840  36.526  37.353   8.392
 1376POPC   C3B20841  36.700  37.261   7.966
 1376POPC   C4B20842  36.752  37.021   7.588
 1377POPC   NC320843  35.691   1.567   9.519
 1377POPC   PO420844  36.124   2.058   9.284
 1377POPC   GL120845  35.784   1.936   9.029
 1377POPC   GL220846  35.548   2.217   9.008
 1377POPC   C1A20847  35.838   1.789   8.577
 1377POPC   D2A20848  36.239   1.805   8.335
 1377POPC   C3A20849  36.324   1.622   7.916
 1377POPC   C4A20850  36.207   1.744   7.497
 1377POPC   C1B20851  35.872   2.318   8.680
 1377POPC   C2B20852  35.921   2.196   8.252
 1377POPC   C3B20853  35.920   1.989   7.870
 1377POPC   C4B20854  35.834   2.079   7.442
 1378POPC   NC320855  14.461  29.693   9.262
 1378POPC   PO420856  13.988  30.101   9.396
 1378POPC   GL120857  14.085  30.069   8.947
 1378POPC   GL220858  14.447  30.012   8.872
 1378POPC   C1A20859  14.084  30.127   8.480
 1378POPC   D2A20860  14.442  30.218   8.253
 1378POPC   C3A20861  14.451  30.114   7.812
 1378POPC   C4A20862  14.158  30.011   7.498
 1378POPC   C1B20863  14.351  29.684   8.588
 1378POPC   C2B20864  14.314  29.743   8.166
 1378POPC   C3B20865  14.603  29.611   7.851
 1378POPC   C4B20866  14.931  29.696   7.538
 1379POPC   NC320867  13.638  43.131   9.657
 1379POPC   PO420868  13.708  42.561   9.581
 1379POPC   GL120869  13.816  42.847   9.260
 1379POPC   GL220870  13.519  43.038   9.146
 1379POPC   C1A20871  13.915  42.939   8.838
 1379POPC   D2A20872  13.661  42.940   8.492
 1379POPC   C3A20873  13.892  42.984   8.136
 1379POPC   C4A20874  13.803  42.883   7.725
 1379POPC   C1B20875  13.557  43.352   8.789
 1379POPC   C2B20876  13.806  43.468   8.404
 1379POPC   C3B20877  13.748  43.453   7.935
 1379POPC   C4B20878  13.603  43.687   7.555
 1380POPC   NC320879  39.568  12.820   9.569
 1380POPC   PO420880  38.937  12.588   9.499
 1380POPC   GL120881  39.165  12.869   9.237
 1380POPC   GL220882  38.987  13.152   9.204
 1380POPC   C1A20883  39.188  12.860   8.792
 1380POPC   D2A20884  39.127  12.615   8.426
 1380POPC   C3A20885  39.206  12.859   8.065
 1380POPC   C4A20886  39.337  12.964   7.669
 1380POPC   C1B20887  38.821  13.223   8.799
 1380POPC   C2B20888  38.983  13.215   8.368
 1380POPC   C3B20889  38.936  13.290   7.911
 1380POPC   C4B20890  38.980  13.242   7.431
 1381POPC   NC320891  24.110  31.702   9.659
 1381POPC   PO420892  24.674  31.440   9.484
 1381POPC   GL120893  24.684  31.344   9.090
 1381POPC   GL220894  24.339  31.479   9.083
 1381POPC   C1A20895  24.632  31.523   8.675
 1381POPC   D2A20896  24.445  31.793   8.406
 1381POPC   C3A20897  24.581  31.629   8.037
 1381POPC   C4A20898  24.330  31.436   7.776
 1381POPC   C1B20899  24.164  31.297   8.697
 1381POPC   C2B20900  24.317  31.259   8.289
 1381POPC   C3B20901  24.249  30.950   7.976
 1381POPC   C4B20902  24.164  31.007   7.559
 1382POPC   NC320903  10.164  25.933   9.580
 1382POPC   PO420904   9.492  25.963   9.534
 1382POPC   GL120905   9.613  25.811   9.114
 1382POPC   GL220906   9.944  25.956   9.005
 1382POPC   C1A20907   9.538  25.721   8.681
 1382POPC   D2A20908   9.362  25.859   8.269
 1382POPC   C3A20909   9.632  26.107   8.095
 1382POPC   C4A20910   9.831  26.180   7.731
 1382POPC   C1B20911   9.930  26.030   8.533
 1382POPC   C2B20912  10.144  25.987   8.109
 1382POPC   C3B20913  10.333  26.208   7.743
 1382POPC   C4B20914  10.117  26.373   7.354
 1383POPC   NC320915   4.129  12.334   9.556
 1383POPC   PO420916   4.106  11.664   9.504
 1383POPC   GL120917   4.256  11.862   9.134
 1383POPC   GL220918   4.220  12.221   9.091
 1383POPC   C1A20919   4.407  11.892   8.723
 1383POPC   D2A20920   4.512  11.686   8.340
 1383POPC   C3A20921   4.501  11.915   7.956
 1383POPC   C4A20922   4.510  11.928   7.513
 1383POPC   C1B20923   4.341  12.413   8.725
 1383POPC   C2B20924   4.420  12.279   8.324
 1383POPC   C3B20925   4.302  12.435   7.942
 1383POPC   C4B20926   3.994  12.426   7.651
 1384POPC   NC320927   2.527  27.216   9.977
 1384POPC   PO420928   2.525  27.742   9.567
 1384POPC   GL120929   2.546  27.680   9.145
 1384POPC   GL220930   2.736  27.414   8.983
 1384POPC   C1A20931   2.401  27.777   8.766
 1384POPC   D2A20932   2.675  27.737   8.435
 1384POPC   C3A20933   2.614  27.765   8.009
 1384POPC   C4A20934   2.855  27.705   7.627
 1384POPC   C1B20935   2.460  27.301   8.651
 1384POPC   C2B20936   2.585  27.275   8.262
 1384POPC   C3B20937   2.963  27.384   8.084
 1384POPC   C4B20938   2.912  27.173   7.743
 1385POPC   NC320939  20.971  32.839   9.462
 1385POPC   PO420940  20.516  33.337   9.268
 1385POPC   GL120941  20.824  33.176   9.060
 1385POPC   GL220942  21.037  33.461   9.051
 1385POPC   C1A20943  20.631  33.163   8.658
 1385POPC   D2A20944  20.626  33.406   8.288
 1385POPC   C3A20945  20.595  33.074   7.956
 1385POPC   C4A20946  20.892  32.850   7.778
 1385POPC   C1B20947  21.115  33.300   8.656
 1385POPC   C2B20948  20.977  33.049   8.310
 1385POPC   C3B20949  21.048  33.309   7.970
 1385POPC   C4B20950  20.856  33.331   7.561
 1386POPC   NC320951  31.197  10.727   9.534
 1386POPC   PO420952  31.638  10.341   9.954
 1386POPC   GL120953  31.584  10.416   9.377
 1386POPC   GL220954  31.316  10.465   9.142
 1386POPC   C1A20955  31.714  10.607   8.874
 1386POPC   D2A20956  31.478  10.676   8.417
 1386POPC   C3A20957  31.635  10.611   7.960
 1386POPC   C4A20958  31.671  10.448   7.509
 1386POPC   C1B20959  31.135  10.746   8.852
 1386POPC   C2B20960  31.014  10.935   8.469
 1386POPC   C3B20961  31.089  10.887   8.035
 1386POPC   C4B20962  31.205  10.654   7.635
 1387POPC   NC320963  11.333  35.896   9.214
 1387POPC   PO420964  11.558  35.549   9.706
 1387POPC   GL120965  11.499  35.416   9.240
 1387POPC   GL220966  11.167  35.391   9.159
 1387POPC   C1A20967  11.536  35.497   8.770
 1387POPC   D2A20968  11.358  35.694   8.407
 1387POPC   C3A20969  11.433  35.450   8.043
 1387POPC   C4A20970  11.394  35.097   7.783
 1387POPC   C1B20971  11.008  35.472   8.754
 1387POPC   C2B20972  10.999  35.323   8.329
 1387POPC   C3B20973  10.936  35.303   7.875
 1387POPC   C4B20974  11.127  35.651   7.652
 1388POPC   NC320975  16.245  39.644   9.440
 1388POPC   PO420976  15.778  40.136   9.544
 1388POPC   GL120977  15.870  40.257   9.151
 1388POPC   GL220978  16.000  39.943   9.099
 1388POPC   C1A20979  15.749  40.214   8.733
 1388POPC   D2A20980  15.876  40.026   8.372
 1388POPC   C3A20981  15.786  40.187   7.970
 1388POPC   C4A20982  15.822  40.135   7.537
 1388POPC   C1B20983  16.318  40.000   8.815
 1388POPC   C2B20984  16.400  40.019   8.371
 1388POPC   C3B20985  16.300  40.039   7.901
 1388POPC   C4B20986  16.248  39.888   7.454
 1389POPC   NC320987   3.326  39.113   9.489
 1389POPC   PO420988   3.635  39.631   9.241
 1389POPC   GL120989   3.636  39.204   9.071
 1389POPC   GL220990   3.357  38.940   9.022
 1389POPC   C1A20991   3.553  39.290   8.643
 1389POPC   D2A20992   3.646  39.467   8.255
 1389POPC   C3A20993   3.292  39.450   8.061
 1389POPC   C4A20994   3.238  39.501   7.677
 1389POPC   C1B20995   3.602  38.794   8.722
 1389POPC   C2B20996   3.733  38.906   8.351
 1389POPC   C3B20997   3.418  38.832   8.096
 1389POPC   C4B20998   3.592  38.992   7.776
 1390POPC   NC320999  41.110  35.619   9.278
 1390POPC   PO421000  40.677  36.093   9.400
 1390POPC   GL121001  40.804  35.979   9.060
 1390POPC   GL221002  41.127  36.088   9.052
 1390POPC   C1A21003  40.795  35.739   8.690
 1390POPC   D2A21004  40.569  35.811   8.350
 1390POPC   C3A21005  40.777  35.912   7.985
 1390POPC   C4A21006  40.574  35.908   7.593
 1390POPC   C1B21007  40.956  36.242   8.648
 1390POPC   C2B21008  41.003  36.357   8.211
 1390POPC   C3B21009  40.857  36.401   7.802
 1390POPC   C4B21010  40.823  36.567   7.400
 1391POPC   NC321011   2.399  35.057   9.274
 1391POPC   PO421012   1.863  34.627   9.434
 1391POPC   GL121013   2.007  34.448   9.064
 1391POPC   GL221014   2.154  34.746   8.955
 1391POPC   C1A21015   2.138  34.319   8.679
 1391POPC   D2A21016   2.166  34.631   8.378
 1391POPC   C3A21017   2.007  34.522   7.987
 1391POPC   C4A21018   2.232  34.549   7.605
 1391POPC   C1B21019   1.769  34.736   8.704
 1391POPC   C2B21020   1.735  34.928   8.252
 1391POPC   C3B21021   1.728  34.875   7.772
 1391POPC   C4B21022   1.831  34.692   7.342
 1392POPC   NC321023  36.620  12.175   9.418
 1392POPC   PO421024  37.325  12.380   9.427
 1392POPC   GL121025  37.050  12.269   9.122
 1392POPC   GL221026  36.954  11.948   9.068
 1392POPC   C1A21027  36.863  12.299   8.720
 1392POPC   D2A21028  37.074  12.260   8.349
 1392POPC   C3A21029  37.049  11.947   8.033
 1392POPC   C4A21030  36.906  12.045   7.603
 1392POPC   C1B21031  36.610  11.829   8.761
 1392POPC   C2B21032  36.664  11.709   8.310
 1392POPC   C3B21033  36.656  11.683   7.835
 1392POPC   C4B21034  36.655  11.726   7.313
 1393POPC   NC321035  28.055  35.025   9.790
 1393POPC   PO421036  28.373  34.500   9.444
 1393POPC   GL121037  28.376  34.394   9.041
 1393POPC   GL221038  28.062  34.298   9.042
 1393POPC   C1A21039  28.575  34.436   8.658
 1393POPC   D2A21040  28.444  34.608   8.300
 1393POPC   C3A21041  28.389  34.491   7.879
 1393POPC   C4A21042  28.472  34.716   7.505
 1393POPC   C1B21043  28.004  34.413   8.607
 1393POPC   C2B21044  27.974  34.418   8.162
 1393POPC   C3B21045  27.938  34.774   7.861
 1393POPC   C4B21046  27.999  34.770   7.414
 1394POPC   NC321047   3.065  41.517   9.428
 1394POPC   PO421048   2.346  41.361   9.551
 1394POPC   GL121049   2.582  41.486   9.188
 1394POPC   GL221050   2.579  41.834   9.030
 1394POPC   C1A21051   2.696  41.407   8.775
 1394POPC   D2A21052   2.639  41.679   8.437
 1394POPC   C3A21053   2.756  41.600   8.033
 1394POPC   C4A21054   2.561  41.884   7.777
 1394POPC   C1B21055   2.993  41.851   8.780
 1394POPC   C2B21056   3.210  41.731   8.364
 1394POPC   C3B21057   3.247  41.811   7.896
 1394POPC   C4B21058   3.328  41.828   7.424
 1395POPC   NC321059  20.498  33.719   9.509
 1395POPC   PO421060  20.971  34.199   9.493
 1395POPC   GL121061  20.746  34.020   9.140
 1395POPC   GL221062  20.393  34.105   9.176
 1395POPC   C1A21063  20.757  33.771   8.747
 1395POPC   D2A21064  20.997  33.752   8.371
 1395POPC   C3A21065  20.792  33.791   7.984
 1395POPC   C4A21066  20.434  33.547   7.840
 1395POPC   C1B21067  20.266  33.952   8.787
 1395POPC   C2B21068  20.252  33.747   8.387
 1395POPC   C3B21069  20.273  33.979   8.036
 1395POPC   C4B21070  20.486  34.194   7.796
 1396POPC   NC321071   3.857  29.487   9.529
 1396POPC   PO421072   3.447  29.932   9.405
 1396POPC   GL121073   3.477  29.780   9.040
 1396POPC   GL221074   3.805  29.731   8.965
 1396POPC   C1A21075   3.308  29.743   8.640
 1396POPC   D2A21076   3.173  29.657   8.275
 1396POPC   C3A21077   3.463  29.726   7.985
 1396POPC   C4A21078   3.289  29.736   7.624
 1396POPC   C1B21079   3.666  30.099   8.687
 1396POPC   C2B21080   3.468  30.142   8.295
 1396POPC   C3B21081   3.507  30.200   7.841
 1396POPC   C4B21082   3.686  30.327   7.513
 1397POPC   NC321083  22.716  27.083   9.858
 1397POPC   PO421084  23.150  26.955   9.329
 1397POPC   GL121085  22.965  26.630   9.108
 1397POPC   GL221086  23.141  26.310   9.084
 1397POPC   C1A21087  22.798  26.717   8.727
 1397POPC   D2A21088  22.756  27.007   8.392
 1397POPC   C3A21089  22.833  26.801   8.004
 1397POPC   C4A21090  22.884  27.062   7.663
 1397POPC   C1B21091  23.378  26.395   8.685
 1397POPC   C2B21092  23.444  26.326   8.237
 1397POPC   C3B21093  23.312  26.576   7.869
 1397POPC   C4B21094  22.958  26.582   7.516
 1398POPC   NC321095  39.777  15.165   9.642
 1398POPC   PO421096  40.304  14.885   9.476
 1398POPC   GL121097  40.090  15.090   9.142
 1398POPC   GL221098  39.897  15.373   9.178
 1398POPC   C1A21099  39.995  15.042   8.708
 1398POPC   D2A21100  39.797  14.977   8.320
 1398POPC   C3A21101  40.048  15.090   7.972
 1398POPC   C4A21102  39.973  14.803   7.667
 1398POPC   C1B21103  40.181  15.499   8.819
 1398POPC   C2B21104  40.049  15.466   8.376
 1398POPC   C3B21105  40.148  15.609   7.958
 1398POPC   C4B21106  40.404  15.415   7.648
 1399POPC   NC321107  25.254   3.369   9.373
 1399POPC   PO421108  24.741   3.757   9.497
 1399POPC   GL121109  24.915   3.656   9.115
 1399POPC   GL221110  24.870   3.304   9.033
 1399POPC   C1A21111  25.162   3.811   8.788
 1399POPC   D2A21112  25.472   3.735   8.457
 1399POPC   C3A21113  25.263   3.578   8.094
 1399POPC   C4A21114  25.329   3.675   7.694
 1399POPC   C1B21115  25.105   3.323   8.633
 1399POPC   C2B21116  25.064   3.092   8.214
 1399POPC   C3B21117  25.068   3.199   7.775
 1399POPC   C4B21118  25.181   3.313   7.347
 1400POPC   NC321119   8.556  11.763   9.441
 1400POPC   PO421120   9.199  11.832   9.465
 1400POPC   GL121121   8.943  11.931   9.153
 1400POPC   GL221122   8.744  12.212   9.276
 1400POPC   C1A21123   8.854  11.920   8.723
 1400POPC   D2A21124   8.841  12.036   8.296
 1400POPC   C3A21125   9.173  11.971   7.987
 1400POPC   C4A21126   9.185  12.063   7.505
 1400POPC   C1B21127   8.530  12.296   8.890
 1400POPC   C2B21128   8.633  12.502   8.500
 1400POPC   C3B21129   8.697  12.456   8.073
 1400POPC   C4B21130   8.734  12.135   7.747
 1401POPC   NC321131   1.126   4.601   9.589
 1401POPC   PO421132   1.269   4.061   9.368
 1401POPC   GL121133   1.093   4.239   9.007
 1401POPC   GL221134   0.907   4.532   9.100
 1401POPC   C1A21135   0.953   4.135   8.616
 1401POPC   D2A21136   1.225   4.270   8.327
 1401POPC   C3A21137   1.130   4.345   7.924
 1401POPC   C4A21138   1.453   4.456   7.635
 1401POPC   C1B21139   1.038   4.642   8.677
 1401POPC   C2B21140   1.142   4.767   8.254
 1401POPC   C3B21141   1.152   4.846   7.817
 1401POPC   C4B21142   0.979   4.595   7.463
 1402POPC   NC321143  33.702   6.235   9.553
 1402POPC   PO421144  34.154   6.723   9.653
 1402POPC   GL121145  33.886   6.784   9.288
 1402POPC   GL221146  33.873   6.435   9.122
 1402POPC   C1A21147  34.015   6.863   8.849
 1402POPC   D2A21148  33.944   6.647   8.462
 1402POPC   C3A21149  33.829   6.780   8.067
 1402POPC   C4A21150  33.872   6.705   7.663
 1402POPC   C1B21151  33.717   6.248   8.701
 1402POPC   C2B21152  33.823   6.200   8.232
 1402POPC   C3B21153  33.606   6.305   7.847
 1402POPC   C4B21154  33.451   6.317   7.414
 1403POPC   NC321155  39.421  39.132   9.470
 1403POPC   PO421156  38.903  38.672   9.466
 1403POPC   GL121157  39.017  39.019   9.174
 1403POPC   GL221158  38.815  39.326   9.080
 1403POPC   C1A21159  39.287  39.083   8.826
 1403POPC   D2A21160  39.509  38.867   8.521
 1403POPC   C3A21161  39.424  39.106   8.187
 1403POPC   C4A21162  39.343  39.342   7.833
 1403POPC   C1B21163  38.805  39.132   8.633
 1403POPC   C2B21164  38.894  39.164   8.150
 1403POPC   C3B21165  38.927  39.117   7.670
 1403POPC   C4B21166  38.915  39.068   7.195
 1404POPC   NC321167  35.594  27.754   9.776
 1404POPC   PO421168  35.286  27.781   9.218
 1404POPC   GL121169  35.438  27.457   9.029
 1404POPC   GL221170  35.189  27.233   9.020
 1404POPC   C1A21171  35.650  27.528   8.660
 1404POPC   D2A21172  35.462  27.624   8.272
 1404POPC   C3A21173  35.375  27.378   7.951
 1404POPC   C4A21174  35.515  27.715   7.690
 1404POPC   C1B21175  35.155  27.409   8.604
 1404POPC   C2B21176  34.909  27.713   8.429
 1404POPC   C3B21177  35.067  27.910   8.082
 1404POPC   C4B21178  34.931  27.875   7.670
 1405POPC   NC321179  25.598  37.014   9.512
 1405POPC   PO421180  25.060  36.544   9.487
 1405POPC   GL121181  25.194  36.803   9.178
 1405POPC   GL221182  25.526  36.633   9.172
 1405POPC   C1A21183  25.033  36.955   8.767
 1405POPC   D2A21184  25.078  37.142   8.329
 1405POPC   C3A21185  24.985  36.883   7.989
 1405POPC   C4A21186  25.114  36.916   7.614
 1405POPC   C1B21187  25.567  36.958   8.856
 1405POPC   C2B21188  25.513  36.937   8.436
 1405POPC   C3B21189  25.484  37.014   7.995
 1405POPC   C4B21190  25.683  36.757   7.694
 1406POPC   NC321191  34.635  11.626   9.374
 1406POPC   PO421192  34.129  12.063   9.480
 1406POPC   GL121193  34.417  12.064   9.120
 1406POPC   GL221194  34.758  12.097   9.157
 1406POPC   C1A21195  34.534  12.212   8.711
 1406POPC   D2A21196  34.432  12.280   8.281
 1406POPC   C3A21197  34.773  12.413   8.015
 1406POPC   C4A21198  34.926  12.175   7.681
 1406POPC   C1B21199  34.927  11.868   8.800
 1406POPC   C2B21200  34.792  11.645   8.433
 1406POPC   C3B21201  34.869  11.824   8.059
 1406POPC   C4B21202  35.028  11.655   7.697
 1407POPC   NC321203  14.722  12.598   9.141
 1407POPC   PO421204  14.157  12.754   9.475
 1407POPC   GL121205  14.267  12.925   9.103
 1407POPC   GL221206  14.287  12.648   8.916
 1407POPC   C1A21207  14.299  13.108   8.706
 1407POPC   D2A21208  14.521  12.926   8.413
 1407POPC   C3A21209  14.385  13.105   8.036
 1407POPC   C4A21210  14.462  13.065   7.610
 1407POPC   C1B21211  13.998  12.587   8.611
 1407POPC   C2B21212  14.127  12.674   8.262
 1407POPC   C3B21213  14.453  12.598   7.998
 1407POPC   C4B21214  14.251  12.583   7.628
 1408POPC   NC321215  38.348  11.935   9.553
 1408POPC   PO421216  38.931  11.685   9.300
 1408POPC   GL121217  38.570  11.876   9.068
 1408POPC   GL221218  38.456  12.202   9.092
 1408POPC   C1A21219  38.351  11.796   8.691
 1408POPC   D2A21220  38.365  11.824   8.236
 1408POPC   C3A21221  38.634  11.967   7.885
 1408POPC   C4A21222  38.546  12.008   7.424
 1408POPC   C1B21223  38.359  12.298   8.653
 1408POPC   C2B21224  38.450  12.356   8.212
 1408POPC   C3B21225  38.434  12.479   7.771
 1408POPC   C4B21226  38.551  12.532   7.340
 1409POPC   NC321227   2.016  35.710   9.289
 1409POPC   PO421228   1.985  36.304   9.500
 1409POPC   GL121229   2.014  36.190   9.081
 1409POPC   GL221230   2.307  36.039   9.003
 1409POPC   C1A21231   1.768  36.223   8.703
 1409POPC   D2A21232   1.857  36.263   8.295
 1409POPC   C3A21233   1.638  35.975   8.047
 1409POPC   C4A21234   1.752  36.130   7.648
 1409POPC   C1B21235   2.279  36.291   8.637
 1409POPC   C2B21236   2.432  36.351   8.219
 1409POPC   C3B21237   2.157  36.393   7.880
 1409POPC   C4B21238   2.227  36.182   7.472
 1410POPC   NC321239  35.865  35.587   9.530
 1410POPC   PO421240  36.474  35.319   9.409
 1410POPC   GL121241  36.213  35.570   9.165
 1410POPC   GL221242  36.452  35.838   9.161
 1410POPC   C1A21243  36.012  35.438   8.801
 1410POPC   D2A21244  36.087  35.112   8.490
 1410POPC   C3A21245  35.888  35.060   8.105
 1410POPC   C4A21246  35.939  35.119   7.664
 1410POPC   C1B21247  36.540  35.561   8.779
 1410POPC   C2B21248  36.324  35.581   8.394
 1410POPC   C3B21249  36.201  35.481   7.972
 1410POPC   C4B21250  36.382  35.675   7.623
 1411POPC   NC321251  24.030  23.240   9.444
 1411POPC   PO421252  24.398  23.876   9.406
 1411POPC   GL121253  24.488  23.725   9.026
 1411POPC   GL221254  24.487  23.388   9.182
 1411POPC   C1A21255  24.804  23.723   8.708
 1411POPC   D2A21256  24.886  23.488   8.361
 1411POPC   C3A21257  24.797  23.633   7.985
 1411POPC   C4A21258  24.817  23.903   7.679
 1411POPC   C1B21259  24.274  23.309   8.798
 1411POPC   C2B21260  24.354  23.525   8.427
 1411POPC   C3B21261  24.317  23.362   8.011
 1411POPC   C4B21262  24.383  23.615   7.667
 1412POPC   NC321263  39.264  14.547   9.852
 1412POPC   PO421264  38.965  14.143   9.340
 1412POPC   GL121265  39.364  14.120   9.188
 1412POPC   GL221266  39.405  14.472   9.158
 1412POPC   C1A21267  39.524  14.123   8.774
 1412POPC   D2A21268  39.260  14.162   8.406
 1412POPC   C3A21269  39.374  14.272   8.016
 1412POPC   C4A21270  39.512  14.522   7.690
 1412POPC   C1B21271  39.223  14.580   8.766
 1412POPC   C2B21272  39.349  14.693   8.351
 1412POPC   C3B21273  39.141  14.727   7.962
 1412POPC   C4B21274  39.131  14.787   7.518
 1413POPC   NC321275  37.800  20.032   9.635
 1413POPC   PO421276  37.386  19.577   9.423
 1413POPC   GL121277  37.607  19.892   9.170
 1413POPC   GL221278  37.869  20.191   9.173
 1413POPC   C1A21279  37.540  19.809   8.762
 1413POPC   D2A21280  37.314  19.895   8.432
 1413POPC   C3A21281  37.461  19.712   8.082
 1413POPC   C4A21282  37.391  19.865   7.682
 1413POPC   C1B21283  38.010  19.997   8.788
 1413POPC   C2B21284  37.859  19.983   8.380
 1413POPC   C3B21285  37.986  19.760   8.031
 1413POPC   C4B21286  37.926  19.923   7.671
 1414POPC   NC321287  21.592  29.886   9.541
 1414POPC   PO421288  20.961  30.098   9.522
 1414POPC   GL121289  21.244  30.199   9.182
 1414POPC   GL221290  21.373  29.876   9.096
 1414POPC   C1A21291  21.213  30.186   8.718
 1414POPC   D2A21292  21.483  30.189   8.338
 1414POPC   C3A21293  21.241  30.029   8.024
 1414POPC   C4A21294  21.181  29.738   7.729
 1414POPC   C1B21295  21.653  29.896   8.771
 1414POPC   C2B21296  21.602  29.674   8.417
 1414POPC   C3B21297  21.648  29.677   7.997
 1414POPC   C4B21298  21.743  29.937   7.700
 1415POPC   NC321299  21.620  40.899   9.486
 1415POPC   PO421300  21.037  41.217   9.493
 1415POPC   GL121301  21.198  40.753   9.218
 1415POPC   GL221302  21.575  40.519   9.156
 1415POPC   C1A21303  21.289  40.628   8.766
 1415POPC   D2A21304  21.417  40.881   8.430
 1415POPC   C3A21305  21.351  40.761   8.017
 1415POPC   C4A21306  21.561  41.043   7.779
 1415POPC   C1B21307  21.699  40.350   8.719
 1415POPC   C2B21308  21.520  40.366   8.311
 1415POPC   C3B21309  21.498  40.246   7.900
 1415POPC   C4B21310  21.589  40.556   7.591
 1416POPC   NC321311  22.421   3.069   9.380
 1416POPC   PO421312  22.261   2.411   9.551
 1416POPC   GL121313  22.229   2.649   9.189
 1416POPC   GL221314  21.938   2.839   9.274
 1416POPC   C1A21315  22.284   2.828   8.760
 1416POPC   D2A21316  22.504   3.018   8.389
 1416POPC   C3A21317  22.297   2.819   8.052
 1416POPC   C4A21318  22.432   2.747   7.656
 1416POPC   C1B21319  21.847   2.611   8.877
 1416POPC   C2B21320  21.757   2.553   8.422
 1416POPC   C3B21321  21.744   2.791   8.042
 1416POPC   C4B21322  21.922   2.684   7.658
 1417POPC   NC321323  24.296  19.161   9.490
 1417POPC   PO421324  24.950  19.241   9.496
 1417POPC   GL121325  24.663  19.100   9.137
 1417POPC   GL221326  24.384  19.352   9.047
 1417POPC   C1A21327  24.501  18.839   8.740
 1417POPC   D2A21328  24.286  18.841   8.295
 1417POPC   C3A21329  24.534  18.867   7.898
 1417POPC   C4A21330  24.640  19.026   7.490
 1417POPC   C1B21331  24.491  19.354   8.660
 1417POPC   C2B21332  24.490  19.549   8.314
 1417POPC   C3B21333  24.363  19.319   8.023
 1417POPC   C4B21334  24.226  19.235   7.648
 1418POPC   NC321335  32.366  12.939   9.420
 1418POPC   PO421336  31.835  12.589   9.521
 1418POPC   GL121337  32.148  12.565   9.155
 1418POPC   GL221338  32.572  12.561   9.142
 1418POPC   C1A21339  32.262  12.725   8.755
 1418POPC   D2A21340  32.234  13.029   8.430
 1418POPC   C3A21341  32.115  12.785   8.056
 1418POPC   C4A21342  31.919  12.879   7.649
 1418POPC   C1B21343  32.743  12.862   8.820
 1418POPC   C2B21344  32.652  12.737   8.393
 1418POPC   C3B21345  32.604  12.911   8.030
 1418POPC   C4B21346  32.438  12.897   7.660
 1419POPC   NC321347  32.181  33.505   9.500
 1419POPC   PO421348  32.300  32.830   9.414
 1419POPC   GL121349  32.278  33.158   9.124
 1419POPC   GL221350  31.947  33.279   9.108
 1419POPC   C1A21351  32.192  33.163   8.682
 1419POPC   D2A21352  32.014  32.937   8.363
 1419POPC   C3A21353  32.265  33.022   8.009
 1419POPC   C4A21354  32.392  32.970   7.581
 1419POPC   C1B21355  31.727  33.387   8.761
 1419POPC   C2B21356  31.849  33.445   8.376
 1419POPC   C3B21357  31.767  33.228   8.007
 1419POPC   C4B21358  31.967  33.228   7.630
 1420POPC   NC321359   2.597  15.085   9.751
 1420POPC   PO421360   2.530  15.384   9.085
 1420POPC   GL121361   2.897  15.287   8.851
 1420POPC   GL221362   3.135  15.069   8.948
 1420POPC   C1A21363   2.815  14.997   8.522
 1420POPC   D2A21364   2.483  15.092   8.226
 1420POPC   C3A21365   2.628  15.258   7.813
 1420POPC   C4A21366   2.906  15.476   7.480
 1420POPC   C1B21367   3.130  14.649   8.756
 1420POPC   C2B21368   3.125  14.616   8.322
 1420POPC   C3B21369   2.963  14.939   8.035
 1420POPC   C4B21370   3.071  15.019   7.590
 1421POPC   NC321371  21.681  36.197   9.917
 1421POPC   PO421372  21.316  36.547   9.462
 1421POPC   GL121373  21.488  36.858   9.210
 1421POPC   GL221374  21.185  37.059   9.127
 1421POPC   C1A21375  21.498  36.809   8.772
 1421POPC   D2A21376  21.370  36.638   8.378
 1421POPC   C3A21377  21.502  36.933   8.018
 1421POPC   C4A21378  21.470  36.852   7.575
 1421POPC   C1B21379  21.001  36.812   8.786
 1421POPC   C2B21380  20.968  36.941   8.331
 1421POPC   C3B21381  21.035  36.794   7.911
 1421POPC   C4B21382  20.982  36.931   7.501
 1422POPC   NC321383  39.521  29.147   9.420
 1422POPC   PO421384  40.191  29.214   9.542
 1422POPC   GL121385  39.977  29.368   9.206
 1422POPC   GL221386  39.938  29.034   9.099
 1422POPC   C1A21387  39.728  29.403   8.823
 1422POPC   D2A21388  39.669  29.122   8.447
 1422POPC   C3A21389  39.566  29.281   8.048
 1422POPC   C4A21390  39.798  29.255   7.654
 1422POPC   C1B21391  40.122  29.066   8.683
 1422POPC   C2B21392  40.062  28.823   8.317
 1422POPC   C3B21393  39.841  28.813   7.930
 1422POPC   C4B21394  39.889  28.786   7.473
 1423POPC   NC321395  10.827  26.529   9.517
 1423POPC   PO421396  11.388  26.685   9.729
 1423POPC   GL121397  11.304  26.788   9.303
 1423POPC   GL221398  11.257  26.473   9.184
 1423POPC   C1A21399  11.234  26.834   8.827
 1423POPC   D2A21400  11.101  27.021   8.430
 1423POPC   C3A21401  11.298  26.957   8.019
 1423POPC   C4A21402  11.226  26.879   7.564
 1423POPC   C1B21403  11.089  26.348   8.768
 1423POPC   C2B21404  11.241  26.500   8.354
 1423POPC   C3B21405  11.094  26.500   7.915
 1423POPC   C4B21406  10.823  26.305   7.626
 1424POPC   NC321407  25.649  17.565   9.560
 1424POPC   PO421408  26.200  17.589   9.635
 1424POPC   GL121409  26.246  17.548   9.174
 1424POPC   GL221410  26.496  17.773   9.074
 1424POPC   C1A21411  26.031  17.472   8.734
 1424POPC   D2A21412  25.722  17.522   8.367
 1424POPC   C3A21413  25.833  17.375   7.944
 1424POPC   C4A21414  25.910  17.611   7.603
 1424POPC   C1B21415  26.387  17.819   8.629
 1424POPC   C2B21416  26.233  17.679   8.206
 1424POPC   C3B21417  26.390  17.713   7.765
 1424POPC   C4B21418  26.455  18.070   7.488
 1425POPC   NC321419  43.518   7.344   9.423
 1425POPC   PO421420  44.093   7.713   9.349
 1425POPC   GL121421  43.827   7.526   9.042
 1425POPC   GL221422  43.487   7.645   9.018
 1425POPC   C1A21423  43.916   7.329   8.658
 1425POPC   D2A21424  43.731   7.350   8.271
 1425POPC   C3A21425  43.977   7.147   7.979
 1425POPC   C4A21426  44.169   7.156   7.600
 1425POPC   C1B21427  43.645   7.792   8.618
 1425POPC   C2B21428  43.749   7.875   8.181
 1425POPC   C3B21429  43.794   7.604   7.820
 1425POPC   C4B21430  43.974   7.586   7.407
 1426POPC   NC321431  11.359   6.972   9.354
 1426POPC   PO421432  10.868   6.607   9.275
 1426POPC   GL121433  11.071   6.839   8.968
 1426POPC   GL221434  11.343   6.618   9.015
 1426POPC   C1A21435  11.419   6.946   8.656
 1426POPC   D2A21436  11.609   6.879   8.240
 1426POPC   C3A21437  11.316   6.770   7.928
 1426POPC   C4A21438  10.861   6.764   7.944
 1426POPC   C1B21439  11.533   6.439   8.708
 1426POPC   C2B21440  11.754   6.426   8.405
 1426POPC   C3B21441  11.711   6.283   8.063
 1426POPC   C4B21442  11.513   6.323   7.716
 1427POPC   NC321443  35.356   2.482   9.866
 1427POPC   PO421444  35.633   2.856   9.413
 1427POPC   GL121445  35.355   2.713   9.109
 1427POPC   GL221446  35.141   2.466   9.179
 1427POPC   C1A21447  35.439   2.622   8.691
 1427POPC   D2A21448  35.621   2.601   8.274
 1427POPC   C3A21449  35.705   2.528   7.811
 1427POPC   C4A21450  35.597   2.887   7.499
 1427POPC   C1B21451  34.945   2.593   8.787
 1427POPC   C2B21452  35.076   2.488   8.339
 1427POPC   C3B21453  35.239   2.648   7.928
 1427POPC   C4B21454  35.154   2.635   7.455
 1428POPC   NC321455  18.515  41.138   9.914
 1428POPC   PO421456  18.181  40.697   9.482
 1428POPC   GL121457  18.323  40.684   9.081
 1428POPC   GL221458  17.976  40.746   9.029
 1428POPC   C1A21459  18.560  40.697   8.721
 1428POPC   D2A21460  18.573  40.966   8.357
 1428POPC   C3A21461  18.341  40.741   8.077
 1428POPC   C4A21462  18.450  40.710   7.705
 1428POPC   C1B21463  18.114  41.086   8.778
 1428POPC   C2B21464  18.010  40.997   8.374
 1428POPC   C3B21465  17.890  41.004   7.961
 1428POPC   C4B21466  18.040  41.067   7.559
 1429POPC   NC321467  35.434  14.555   9.611
 1429POPC   PO421468  35.229  13.871   9.680
 1429POPC   GL121469  35.309  14.196   9.257
 1429POPC   GL221470  35.091  14.548   9.146
 1429POPC   C1A21471  35.531  14.515   8.935
 1429POPC   D2A21472  35.446  14.515   8.494
 1429POPC   C3A21473  35.443  14.646   8.051
 1429POPC   C4A21474  35.671  14.452   7.697
 1429POPC   C1B21475  35.091  14.236   8.782
 1429POPC   C2B21476  35.087  14.170   8.338
 1429POPC   C3B21477  35.270  14.174   7.935
 1429POPC   C4B21478  35.069  14.238   7.549
 1430POPC   NC321479  41.997  18.153   9.396
 1430POPC   PO421480  42.688  18.412   9.446
 1430POPC   GL121481  42.414  18.317   9.142
 1430POPC   GL221482  42.373  17.979   9.092
 1430POPC   C1A21483  42.184  18.261   8.725
 1430POPC   D2A21484  42.174  17.971   8.365
 1430POPC   C3A21485  42.154  18.192   7.964
 1430POPC   C4A21486  42.294  18.575   7.781
 1430POPC   C1B21487  42.701  18.113   8.795
 1430POPC   C2B21488  42.626  18.315   8.421
 1430POPC   C3B21489  42.677  18.294   7.994
 1430POPC   C4B21490  42.759  18.036   7.643
 1431POPC   NC321491  21.524  20.223   9.333
 1431POPC   PO421492  21.355  19.559   9.553
 1431POPC   GL121493  21.233  19.698   9.160
 1431POPC   GL221494  21.529  19.812   9.075
 1431POPC   C1A21495  21.248  19.699   8.677
 1431POPC   D2A21496  21.518  19.741   8.301
 1431POPC   C3A21497  21.191  19.647   7.975
 1431POPC   C4A21498  21.085  19.682   7.532
 1431POPC   C1B21499  21.701  19.980   8.733
 1431POPC   C2B21500  21.651  20.231   8.393
 1431POPC   C3B21501  21.665  20.135   7.971
 1431POPC   C4B21502  21.583  19.790   7.684
 1432POPC   NC321503   5.144  38.119   9.468
 1432POPC   PO421504   5.068  38.816   9.575
 1432POPC   GL121505   4.877  38.529   9.299
 1432POPC   GL221506   4.846  38.822   9.107
 1432POPC   C1A21507   4.760  38.366   8.890
 1432POPC   D2A21508   4.910  38.520   8.489
 1432POPC   C3A21509   4.943  38.331   8.095
 1432POPC   C4A21510   4.888  38.531   7.701
 1432POPC   C1B21511   5.220  38.643   8.897
 1432POPC   C2B21512   5.419  38.659   8.484
 1432POPC   C3B21513   5.277  38.696   8.068
 1432POPC   C4B21514   5.418  38.446   7.767
 1433POPC   NC321515   4.530  28.023   9.501
 1433POPC   PO421516   3.814  28.027   9.528
 1433POPC   GL121517   4.045  28.275   9.196
 1433POPC   GL221518   4.367  28.223   9.070
 1433POPC   C1A21519   4.039  28.501   8.806
 1433POPC   D2A21520   4.228  28.495   8.426
 1433POPC   C3A21521   4.139  28.507   7.986
 1433POPC   C4A21522   4.509  28.304   7.813
 1433POPC   C1B21523   4.064  28.000   8.760
 1433POPC   C2B21524   4.159  27.978   8.326
 1433POPC   C3B21525   3.987  28.017   7.939
 1433POPC   C4B21526   4.173  28.016   7.550
 1434POPC   NC321527  23.486  15.715   9.740
 1434POPC   PO421528  23.932  16.183   9.502
 1434POPC   GL121529  23.920  16.016   9.132
 1434POPC   GL221530  23.701  15.746   9.213
 1434POPC   C1A21531  23.916  16.168   8.737
 1434POPC   D2A21532  24.031  16.016   8.368
 1434POPC   C3A21533  23.985  16.158   7.950
 1434POPC   C4A21534  23.938  15.753   7.754
 1434POPC   C1B21535  23.547  15.804   8.823
 1434POPC   C2B21536  23.442  16.035   8.501
 1434POPC   C3B21537  23.553  15.932   8.127
 1434POPC   C4B21538  23.436  15.905   7.730
 1435POPC   NC321539  44.231  35.817   9.590
 1435POPC   PO421540  44.733  35.417   9.504
 1435POPC   GL121541  44.852  35.324   9.109
 1435POPC   GL221542  44.537  35.449   9.040
 1435POPC   C1A21543  44.687  35.093   8.735
 1435POPC   D2A21544  44.617  35.312   8.365
 1435POPC   C3A21545  44.802  35.249   7.927
 1435POPC   C4A21546  44.686  35.159   7.465
 1435POPC   C1B21547  44.341  35.676   8.760
 1435POPC   C2B21548  44.425  35.829   8.390
 1435POPC   C3B21549  44.439  35.620   8.000
 1435POPC   C4B21550  44.387  35.562   7.581
 1436POPC   NC321551  10.225  12.705   9.921
 1436POPC   PO421552  10.423  13.206   9.510
 1436POPC   GL121553  10.631  12.878   9.190
 1436POPC   GL221554  10.968  12.915   9.082
 1436POPC   C1A21555  10.434  12.614   8.800
 1436POPC   D2A21556  10.518  12.614   8.353
 1436POPC   C3A21557  10.197  12.822   8.078
 1436POPC   C4A21558  10.296  12.955   7.654
 1436POPC   C1B21559  10.672  13.037   8.718
 1436POPC   C2B21560  10.546  13.119   8.325
 1436POPC   C3B21561  10.683  12.966   7.967
 1436POPC   C4B21562  11.065  12.901   7.834
 1437POPC   NC321563  31.704  25.125   9.608
 1437POPC   PO421564  31.130  25.260   9.510
 1437POPC   GL121565  31.301  25.415   9.157
 1437POPC   GL221566  31.658  25.353   9.158
 1437POPC   C1A21567  31.309  25.215   8.770
 1437POPC   D2A21568  31.590  25.141   8.423
 1437POPC   C3A21569  31.508  25.276   8.020
 1437POPC   C4A21570  31.447  25.448   7.621
 1437POPC   C1B21571  31.708  25.525   8.764
 1437POPC   C2B21572  31.812  25.619   8.335
 1437POPC   C3B21573  31.868  25.632   7.878
 1437POPC   C4B21574  32.041  25.749   7.423
 1438POPC   NC321575  26.450   0.524   9.367
 1438POPC   PO421576  26.923   0.182   9.717
 1438POPC   GL121577  26.911   0.291   9.213
 1438POPC   GL221578  26.605   0.246   8.991
 1438POPC   C1A21579  27.051   0.311   8.755
 1438POPC   D2A21580  27.308   0.362   8.376
 1438POPC   C3A21581  27.022   0.306   8.051
 1438POPC   C4A21582  26.916   0.578   7.689
 1438POPC   C1B21583  26.482   0.445   8.627
 1438POPC   C2B21584  26.540   0.219   8.257
 1438POPC   C3B21585  26.597   0.204   7.819
 1438POPC   C4B21586  26.664   0.190   7.379
 1439POPC   NC321587  22.688  16.297   9.580
 1439POPC   PO421588  22.091  16.108   9.403
 1439POPC   GL121589  22.238  15.902   9.106
 1439POPC   GL221590  22.531  15.815   9.226
 1439POPC   C1A21591  22.098  15.845   8.707
 1439POPC   D2A21592  22.049  16.117   8.377
 1439POPC   C3A21593  22.173  16.048   7.961
 1439POPC   C4A21594  22.549  16.255   7.824
 1439POPC   C1B21595  22.579  15.689   8.795
 1439POPC   C2B21596  22.520  15.628   8.377
 1439POPC   C3B21597  22.639  15.778   7.990
 1439POPC   C4B21598  22.444  15.795   7.576
 1440POPC   NC321599   8.300   0.796   9.233
 1440POPC   PO421600   8.175   0.150   9.459
 1440POPC   GL121601   8.146   0.235   9.062
 1440POPC   GL221602   8.490   0.361   9.065
 1440POPC   C1A21603   7.905   0.292   8.688
 1440POPC   D2A21604   7.972   0.613   8.332
 1440POPC   C3A21605   8.041   0.488   7.864
 1440POPC   C4A21606   8.001   0.145   7.517
 1440POPC   C1B21607   8.381   0.429   8.623
 1440POPC   C2B21608   8.199   0.145   8.292
 1440POPC   C3B21609   8.361   0.103   7.890
 1440POPC   C4B21610   8.562   0.544   7.847
 1441POPC   NC321611  10.715  31.806   9.477
 1441POPC   PO421612  11.212  32.312   9.490
 1441POPC   GL121613  11.306  32.423   9.090
 1441POPC   GL221614  11.659  32.477   9.124
 1441POPC   C1A21615  11.170  32.228   8.702
 1441POPC   D2A21616  11.345  31.889   8.407
 1441POPC   C3A21617  11.349  32.034   7.965
 1441POPC   C4A21618  11.045  32.322   7.811
 1441POPC   C1B21619  11.655  32.235   8.715
 1441POPC   C2B21620  11.440  32.397   8.305
 1441POPC   C3B21621  11.546  32.486   7.843
 1441POPC   C4B21622  11.711  32.582   7.424
 1442POPC   NC321623  32.199  16.867   9.624
 1442POPC   PO421624  31.873  16.300   9.394
 1442POPC   GL121625  32.068  16.693   9.146
 1442POPC   GL221626  32.424  16.790   9.179
 1442POPC   C1A21627  32.261  16.730   8.704
 1442POPC   D2A21628  32.373  16.390   8.408
 1442POPC   C3A21629  32.141  16.482   8.046
 1442POPC   C4A21630  32.088  16.857   7.789
 1442POPC   C1B21631  32.719  17.028   8.971
 1442POPC   C2B21632  32.716  16.993   8.531
 1442POPC   C3B21633  32.469  16.882   8.165
 1442POPC   C4B21634  32.599  17.051   7.746
 1443POPC   NC321635  28.146  34.876   9.294
 1443POPC   PO421636  28.426  35.354   9.751
 1443POPC   GL121637  28.318  35.383   9.286
 1443POPC   GL221638  28.558  35.154   9.107
 1443POPC   C1A21639  28.214  35.444   8.816
 1443POPC   D2A21640  28.475  35.397   8.413
 1443POPC   C3A21641  28.210  35.473   8.036
 1443POPC   C4A21642  28.159  35.674   7.631
 1443POPC   C1B21643  28.404  34.950   8.708
 1443POPC   C2B21644  28.140  35.012   8.337
 1443POPC   C3B21645  28.386  35.000   7.965
 1443POPC   C4B21646  28.367  35.211   7.586
 1444POPC   NC321647  18.246  28.511   9.398
 1444POPC   PO421648  18.151  27.863   9.444
 1444POPC   GL121649  18.415  28.080   9.180
 1444POPC   GL221650  18.129  28.250   8.984
 1444POPC   C1A21651  18.587  28.116   8.784
 1444POPC   D2A21652  18.266  28.186   8.498
 1444POPC   C3A21653  18.270  28.094   8.081
 1444POPC   C4A21654  18.399  28.400   7.787
 1444POPC   C1B21655  17.875  28.592   8.760
 1444POPC   C2B21656  17.976  28.821   8.373
 1444POPC   C3B21657  17.962  28.558   7.998
 1444POPC   C4B21658  17.919  28.197   7.717
 1445POPC   NC321659  42.852  34.934   9.598
 1445POPC   PO421660  43.470  34.712   9.708
 1445POPC   GL121661  43.228  34.731   9.280
 1445POPC   GL221662  43.121  34.428   9.101
 1445POPC   C1A21663  43.178  34.861   8.832
 1445POPC   D2A21664  43.299  34.790   8.408
 1445POPC   C3A21665  43.099  34.800   7.999
 1445POPC   C4A21666  42.715  34.882   7.783
 1445POPC   C1B21667  42.873  34.480   8.732
 1445POPC   C2B21668  42.923  34.418   8.298
 1445POPC   C3B21669  43.099  34.195   7.943
 1445POPC   C4B21670  42.924  34.265   7.562
 1446POPC   NC321671  25.520  32.460   9.411
 1446POPC   PO421672  25.019  32.025   9.323
 1446POPC   GL121673  25.426  32.067   9.102
 1446POPC   GL221674  25.496  32.425   8.920
 1446POPC   C1A21675  25.385  32.004   8.693
 1446POPC   D2A21676  25.242  32.288   8.443
 1446POPC   C3A21677  25.359  32.110   8.099
 1446POPC   C4A21678  25.433  32.038   7.704
 1446POPC   C1B21679  25.116  32.666   8.781
 1446POPC   C2B21680  24.974  32.720   8.367
 1446POPC   C3B21681  24.967  32.412   8.025
 1446POPC   C4B21682  25.082  32.407   7.570
 1447POPC   NC321683  24.661  12.501   9.758
 1447POPC   PO421684  24.440  12.990   9.398
 1447POPC   GL121685  24.120  12.845   9.161
 1447POPC   GL221686  24.276  12.502   9.123
 1447POPC   C1A21687  24.215  12.839   8.744
 1447POPC   D2A21688  24.525  12.846   8.440
 1447POPC   C3A21689  24.329  13.054   8.126
 1447POPC   C4A21690  24.371  13.079   7.709
 1447POPC   C1B21691  24.454  12.357   8.688
 1447POPC   C2B21692  24.474  12.369   8.223
 1447POPC   C3B21693  24.636  12.693   7.938
 1447POPC   C4B21694  24.614  12.720   7.469
 1448POPC   NC321695  22.210  21.882   9.377
 1448POPC   PO421696  22.077  22.584   9.622
 1448POPC   GL121697  22.324  22.394   9.248
 1448POPC   GL221698  22.067  22.231   9.033
 1448POPC   C1A21699  22.413  22.478   8.782
 1448POPC   D2A21700  22.107  22.454   8.440
 1448POPC   C3A21701  22.281  22.357   8.027
 1448POPC   C4A21702  22.670  22.235   7.859
 1448POPC   C1B21703  22.337  21.988   8.727
 1448POPC   C2B21704  22.500  21.910   8.310
 1448POPC   C3B21705  22.380  21.800   7.900
 1448POPC   C4B21706  22.627  21.821   7.515
 1449POPC   NC321707  40.058  18.847   9.430
 1449POPC   PO421708  40.000  19.497   9.316
 1449POPC   GL121709  39.929  19.175   9.074
 1449POPC   GL221710  40.290  19.163   9.097
 1449POPC   C1A21711  40.065  18.844   8.768
 1449POPC   D2A21712  39.979  18.767   8.334
 1449POPC   C3A21713  39.980  19.097   8.004
 1449POPC   C4A21714  40.194  18.932   7.642
 1449POPC   C1B21715  40.322  19.290   8.708
 1449POPC   C2B21716  40.476  18.951   8.464
 1449POPC   C3B21717  40.477  19.026   8.069
 1449POPC   C4B21718  40.356  19.486   8.038
 1450POPC   NC321719  26.346  12.351   9.753
 1450POPC   PO421720  26.035  11.795   9.497
 1450POPC   GL121721  26.084  12.032   9.133
 1450POPC   GL221722  26.268  11.787   9.007
 1450POPC   C1A21723  26.188  12.146   8.678
 1450POPC   D2A21724  26.327  12.291   8.277
 1450POPC   C3A21725  25.980  12.244   7.997
 1450POPC   C4A21726  25.903  11.962   7.661
 1450POPC   C1B21727  26.447  11.659   8.642
 1450POPC   C2B21728  26.376  11.779   8.211
 1450POPC   C3B21729  26.252  11.603   7.816
 1450POPC   C4B21730  26.271  11.753   7.374
 1451POPC   NC321731  20.443  39.685  10.043
 1451POPC   PO421732  20.515  39.146   9.604
 1451POPC   GL121733  20.571  38.979   9.178
 1451POPC   GL221734  20.601  39.305   9.110
 1451POPC   C1A21735  20.404  38.979   8.754
 1451POPC   D2A21736  20.379  39.182   8.367
 1451POPC   C3A21737  20.528  38.945   8.032
 1451POPC   C4A21738  20.754  39.049   7.659
 1451POPC   C1B21739  20.445  39.503   8.775
 1451POPC   C2B21740  20.676  39.635   8.425
 1451POPC   C3B21741  20.719  39.423   8.042
 1451POPC   C4B21742  20.292  39.371   7.880
 1452POPC   NC321743  20.785  44.553   9.671
 1452POPC   PO421744  20.198  44.507   9.742
 1452POPC   GL121745  20.438  44.632   9.307
 1452POPC   GL221746  20.745  44.456   9.161
 1452POPC   C1A21747  20.391  44.717   8.850
 1452POPC   D2A21748  20.361  44.587   8.397
 1452POPC   C3A21749  20.541  44.744   8.025
 1452POPC   C4A21750  20.480  44.700   7.569
 1452POPC   C1B21751  20.763  44.380   8.702
 1452POPC   C2B21752  20.878  44.438   8.254
 1452POPC   C3B21753  20.712  44.300   7.820
 1452POPC   C4B21754  20.915  44.400   7.395
 1453POPC   NC321755  24.996  15.400   9.504
 1453POPC   PO421756  25.389  14.913   9.404
 1453POPC   GL121757  25.072  14.975   9.099
 1453POPC   GL221758  25.013  15.306   8.993
 1453POPC   C1A21759  25.175  14.899   8.666
 1453POPC   D2A21760  24.915  14.882   8.318
 1453POPC   C3A21761  25.179  14.849   7.958
 1453POPC   C4A21762  25.227  14.984   7.547
 1453POPC   C1B21763  24.942  15.354   8.557
 1453POPC   C2B21764  25.238  15.279   8.222
 1453POPC   C3B21765  25.348  15.427   7.798
 1453POPC   C4B21766  25.557  15.355   7.382
 1454POPC   NC321767   7.690  25.132   9.314
 1454POPC   PO421768   7.133  25.545   9.529
 1454POPC   GL121769   7.292  25.443   9.136
 1454POPC   GL221770   6.982  25.548   9.038
 1454POPC   C1A21771   7.468  25.315   8.719
 1454POPC   D2A21772   7.333  25.293   8.284
 1454POPC   C3A21773   7.540  25.166   7.900
 1454POPC   C4A21774   7.449  24.834   7.621
 1454POPC   C1B21775   7.076  25.646   8.592
 1454POPC   C2B21776   7.094  25.708   8.133
 1454POPC   C3B21777   7.087  25.434   7.825
 1454POPC   C4B21778   7.225  25.338   7.422
 1455POPC   NC321779  22.781   6.993   9.716
 1455POPC   PO421780  23.243   7.431   9.393
 1455POPC   GL121781  22.943   7.587   9.087
 1455POPC   GL221782  22.655   7.346   9.028
 1455POPC   C1A21783  23.051   7.489   8.654
 1455POPC   D2A21784  23.180   7.078   8.450
 1455POPC   C3A21785  23.284   7.100   8.005
 1455POPC   C4A21786  23.187   7.486   7.755
 1455POPC   C1B21787  22.679   7.147   8.579
 1455POPC   C2B21788  22.818   7.393   8.188
 1455POPC   C3B21789  22.691   7.335   7.761
 1455POPC   C4B21790  22.526   7.106   7.400
 1456POPC   NC321791  40.358  35.071   9.320
 1456POPC   PO421792  39.747  34.925   9.362
 1456POPC   GL121793  39.940  35.123   9.042
 1456POPC   GL221794  40.075  35.436   9.083
 1456POPC   C1A21795  39.991  35.159   8.623
 1456POPC   D2A21796  39.966  34.857   8.320
 1456POPC   C3A21797  40.092  35.126   8.017
 1456POPC   C4A21798  39.919  35.441   7.782
 1456POPC   C1B21799  40.179  35.677   8.717
 1456POPC   C2B21800  40.105  35.577   8.297
 1456POPC   C3B21801  40.361  35.606   7.928
 1456POPC   C4B21802  40.347  35.482   7.486
 1457POPC   NC321803  18.759  33.786   9.434
 1457POPC   PO421804  19.378  33.489   9.434
 1457POPC   GL121805  19.178  33.649   9.116
 1457POPC   GL221806  18.896  33.423   9.057
 1457POPC   C1A21807  19.374  33.646   8.736
 1457POPC   D2A21808  19.178  33.497   8.402
 1457POPC   C3A21809  19.228  33.811   8.102
 1457POPC   C4A21810  19.411  33.643   7.796
 1457POPC   C1B21811  18.849  33.733   8.712
 1457POPC   C2B21812  18.744  33.717   8.247
 1457POPC   C3B21813  18.813  33.559   7.814
 1457POPC   C4B21814  18.503  33.490   7.462
 1458POPC   NC321815  24.867  17.083   9.500
 1458POPC   PO421816  24.588  17.733   9.610
 1458POPC   GL121817  24.386  17.499   9.237
 1458POPC   GL221818  24.537  17.749   9.075
 1458POPC   C1A21819  24.204  17.542   8.766
 1458POPC   D2A21820  24.371  17.388   8.380
 1458POPC   C3A21821  24.373  17.648   7.998
 1458POPC   C4A21822  24.538  17.598   7.569
 1458POPC   C1B21823  24.684  17.381   8.825
 1458POPC   C2B21824  24.859  17.249   8.432
 1458POPC   C3B21825  24.800  17.342   8.011
 1458POPC   C4B21826  24.959  17.318   7.609
 1459POPC   NC321827  27.929  44.702   9.447
 1459POPC   PO421828  28.509  44.515   9.500
 1459POPC   GL121829  28.598  44.595   9.101
 1459POPC   GL221830  28.214  44.553   9.041
 1459POPC   C1A21831  28.616  44.746   8.681
 1459POPC   D2A21832  28.361  44.674   8.297
 1459POPC   C3A21833  28.540  44.705   7.915
 1459POPC   C4A21834  28.492  44.935   7.500
 1459POPC   C1B21835  28.016  44.548   8.638
 1459POPC   C2B21836  28.042  44.233   8.298
 1459POPC   C3B21837  28.130  44.356   7.876
 1459POPC   C4B21838  28.065  44.754   7.732
 1460POPC   NC321839   8.052  38.640   9.461
 1460POPC   PO421840   8.662  38.313   9.325
 1460POPC   GL121841   8.378  38.494   9.091
 1460POPC   GL221842   8.099  38.239   9.170
 1460POPC   C1A21843   8.320  38.693   8.692
 1460POPC   D2A21844   8.295  38.922   8.329
 1460POPC   C3A21845   8.294  38.614   8.002
 1460POPC   C4A21846   8.022  38.592   7.683
 1460POPC   C1B21847   8.230  38.134   8.775
 1460POPC   C2B21848   8.323  38.278   8.411
 1460POPC   C3B21849   8.635  38.145   8.207
 1460POPC   C4B21850   8.503  38.124   7.822
 1461POPC   NC321851  35.448  26.756   9.661
 1461POPC   PO421852  35.777  27.336   9.512
 1461POPC   GL121853  35.659  27.021   9.144
 1461POPC   GL221854  35.412  26.770   9.151
 1461POPC   C1A21855  35.480  27.021   8.686
 1461POPC   D2A21856  35.206  26.938   8.337
 1461POPC   C3A21857  35.081  26.963   7.893
 1461POPC   C4A21858  35.359  27.024   7.545
 1461POPC   C1B21859  35.267  26.573   8.765
 1461POPC   C2B21860  35.406  26.453   8.426
 1461POPC   C3B21861  35.301  26.517   8.054
 1461POPC   C4B21862  35.245  26.527   7.645
 1462POPC   NC321863  26.583  13.315   9.599
 1462POPC   PO421864  26.684  12.615   9.572
 1462POPC   GL121865  26.893  12.628   9.145
 1462POPC   GL221866  26.705  12.933   9.135
 1462POPC   C1A21867  26.761  12.603   8.708
 1462POPC   D2A21868  26.467  12.754   8.450
 1462POPC   C3A21869  26.591  12.677   8.036
 1462POPC   C4A21870  26.987  12.738   7.805
 1462POPC   C1B21871  26.762  13.115   8.744
 1462POPC   C2B21872  26.562  13.247   8.383
 1462POPC   C3B21873  26.706  13.171   7.973
 1462POPC   C4B21874  26.528  13.183   7.549
 1463POPC   NC321875  14.093  36.630   9.527
 1463POPC   PO421876  14.651  36.933   9.472
 1463POPC   GL121877  14.513  37.033   9.055
 1463POPC   GL221878  14.176  37.165   9.022
 1463POPC   C1A21879  14.524  36.941   8.631
 1463POPC   D2A21880  14.266  37.078   8.327
 1463POPC   C3A21881  14.441  37.117   7.920
 1463POPC   C4A21882  14.767  36.821   7.774
 1463POPC   C1B21883  14.029  37.388   8.665
 1463POPC   C2B21884  14.140  37.541   8.226
 1463POPC   C3B21885  13.922  37.425   7.847
 1463POPC   C4B21886  14.070  37.191   7.482
 1464POPC   NC321887  43.335  30.752   9.645
 1464POPC   PO421888  42.666  30.865   9.506
 1464POPC   GL121889  42.850  30.666   9.147
 1464POPC   GL221890  43.212  30.633   9.167
 1464POPC   C1A21891  42.696  30.455   8.765
 1464POPC   D2A21892  42.748  30.269   8.364
 1464POPC   C3A21893  42.619  30.523   8.019
 1464POPC   C4A21894  43.022  30.540   7.850
 1464POPC   C1B21895  43.146  30.780   8.744
 1464POPC   C2B21896  43.267  30.900   8.339
 1464POPC   C3B21897  43.479  30.735   8.009
 1464POPC   C4B21898  43.261  30.949   7.694
 1465POPC   NC321899  37.059  20.291   9.580
 1465POPC   PO421900  37.073  20.936   9.531
 1465POPC   GL121901  37.001  20.633   9.205
 1465POPC   GL221902  36.658  20.465   9.238
 1465POPC   C1A21903  37.123  20.585   8.763
 1465POPC   D2A21904  37.157  20.840   8.370
 1465POPC   C3A21905  36.979  20.651   8.003
 1465POPC   C4A21906  36.899  20.846   7.605
 1465POPC   C1B21907  36.646  20.789   8.899
 1465POPC   C2B21908  36.659  20.679   8.480
 1465POPC   C3B21909  36.481  20.601   8.104
 1465POPC   C4B21910  36.565  20.466   7.730
 1466POPC   NC321911  27.203  33.920   9.801
 1466POPC   PO421912  27.811  33.698   9.648
 1466POPC   GL121913  27.903  33.735   9.209
 1466POPC   GL221914  27.563  33.713   9.159
 1466POPC   C1A21915  27.849  33.538   8.779
 1466POPC   D2A21916  27.599  33.374   8.459
 1466POPC   C3A21917  27.811  33.466   8.110
 1466POPC   C4A21918  27.888  33.570   7.694
 1466POPC   C1B21919  27.729  34.008   8.805
 1466POPC   C2B21920  27.860  33.912   8.400
 1466POPC   C3B21921  27.764  33.971   7.992
 1466POPC   C4B21922  27.435  33.867   7.736
 1467POPC   NC321923  26.403   6.600   9.826
 1467POPC   PO421924  25.898   6.735   9.446
 1467POPC   GL121925  26.044   6.685   9.073
 1467POPC   GL221926  26.052   6.352   9.076
 1467POPC   C1A21927  25.916   6.623   8.667
 1467POPC   D2A21928  26.091   6.762   8.346
 1467POPC   C3A21929  26.039   6.630   7.957
 1467POPC   C4A21930  26.257   6.855   7.641
 1467POPC   C1B21931  26.264   6.258   8.721
 1467POPC   C2B21932  26.141   6.241   8.310
 1467POPC   C3B21933  26.338   6.223   7.921
 1467POPC   C4B21934  26.186   6.362   7.516
 1468POPC   NC321935  39.402  33.057   9.792
 1468POPC   PO421936  39.374  32.458   9.567
 1468POPC   GL121937  39.447  32.911   9.296
 1468POPC   GL221938  39.166  33.193   9.187
 1468POPC   C1A21939  39.427  32.968   8.813
 1468POPC   D2A21940  39.172  33.036   8.429
 1468POPC   C3A21941  39.319  32.916   8.025
 1468POPC   C4A21942  39.506  32.889   7.631
 1468POPC   C1B21943  39.131  33.438   8.755
 1468POPC   C2B21944  39.057  33.494   8.265
 1468POPC   C3B21945  39.128  33.430   7.804
 1468POPC   C4B21946  38.971  33.611   7.345
 1469POPC   NC321947  35.229  39.831   9.531
 1469POPC   PO421948  35.757  39.374   9.451
 1469POPC   GL121949  35.441  39.509   9.184
 1469POPC   GL221950  35.264  39.203   9.109
 1469POPC   C1A21951  35.314  39.580   8.774
 1469POPC   D2A21952  35.314  39.305   8.437
 1469POPC   C3A21953  35.428  39.547   8.108
 1469POPC   C4A21954  35.437  39.405   7.710
 1469POPC   C1B21955  35.183  38.904   8.762
 1469POPC   C2B21956  34.985  38.914   8.333
 1469POPC   C3B21957  35.165  38.942   7.898
 1469POPC   C4B21958  34.969  38.753   7.539
 1470POPC   NC321959  13.699  41.529   9.541
 1470POPC   PO421960  13.017  41.383   9.460
 1470POPC   GL121961  13.379  41.349   9.194
 1470POPC   GL221962  13.443  41.688   9.139
 1470POPC   C1A21963  13.778  41.339   8.934
 1470POPC   D2A21964  13.885  41.476   8.543
 1470POPC   C3A21965  13.835  41.216   8.189
 1470POPC   C4A21966  13.662  41.387   7.814
 1470POPC   C1B21967  13.718  41.852   8.862
 1470POPC   C2B21968  13.671  41.969   8.449
 1470POPC   C3B21969  13.853  41.786   8.096
 1470POPC   C4B21970  13.717  41.891   7.680
 1471POPC   NC321971  32.079  38.693   9.302
 1471POPC   PO421972  32.508  38.115   9.291
 1471POPC   GL121973  32.325  38.322   8.974
 1471POPC   GL221974  31.964  38.317   8.976
 1471POPC   C1A21975  32.534  38.463   8.619
 1471POPC   D2A21976  32.413  38.604   8.235
 1471POPC   C3A21977  32.092  38.339   8.055
 1471POPC   C4A21978  32.077  38.192   7.662
 1471POPC   C1B21979  32.018  38.468   8.575
 1471POPC   C2B21980  31.922  38.767   8.271
 1471POPC   C3B21981  32.114  38.827   7.875
 1471POPC   C4B21982  32.002  38.669   7.457
 1472POPC   NC321983  20.463  12.392   9.577
 1472POPC   PO421984  21.093  12.379   9.356
 1472POPC   GL121985  20.831  12.049   9.226
 1472POPC   GL221986  20.657  12.276   9.067
 1472POPC   C1A21987  20.628  11.803   8.884
 1472POPC   D2A21988  20.494  11.749   8.475
 1472POPC   C3A21989  20.560  12.042   8.164
 1472POPC   C4A21990  20.615  11.884   7.768
 1472POPC   C1B21991  20.441  12.244   8.676
 1472POPC   C2B21992  20.105  12.289   8.382
 1472POPC   C3B21993  20.171  12.447   7.971
 1472POPC   C4B21994  20.590  12.421   7.785
 1473POPC   NC321995  34.126  38.162   9.304
 1473POPC   PO421996  34.575  38.755   9.460
 1473POPC   GL121997  34.502  38.527   9.130
 1473POPC   GL221998  34.705  38.252   9.071
 1473POPC   C1A21999  34.670  38.685   8.726
 1473POPC   D2A22000  34.448  38.722   8.333
 1473POPC   C3A22001  34.696  38.598   7.981
 1473POPC   C4A22002  34.503  38.603   7.598
 1473POPC   C1B22003  34.477  38.210   8.729
 1473POPC   C2B22004  34.713  38.263   8.372
 1473POPC   C3B22005  34.606  38.089   7.989
 1473POPC   C4B22006  34.808  38.199   7.614
 1474POPC   NC322007  22.372  44.839   9.448
 1474POPC   PO422008  21.972  44.491   9.825
 1474POPC   GL122009  22.097  44.449   9.269
 1474POPC   GL222010  22.095  44.741   9.010
 1474POPC   C1A22011  22.351  44.366   8.832
 1474POPC   D2A22012  22.341  44.624   8.428
 1474POPC   C3A22013  22.448  44.480   7.994
 1474POPC   C4A22014  22.186  44.463   7.630
 1474POPC   C1B22015  22.211   0.056   8.700
 1474POPC   C2B22016  22.226   0.105   8.209
 1474POPC   C3B22017  22.109  44.946   7.783
 1474POPC   C4B22018  21.792  44.979   7.412
 1475POPC   NC322019   1.793  30.752   9.435
 1475POPC   PO422020   2.393  31.047   9.367
 1475POPC   GL122021   2.132  30.809   9.069
 1475POPC   GL222022   2.046  30.482   9.062
 1475POPC   C1A22023   1.835  30.840   8.747
 1475POPC   D2A22024   1.895  31.134   8.435
 1475POPC   C3A22025   1.855  30.988   8.075
 1475POPC   C4A22026   1.926  31.048   7.691
 1475POPC   C1B22027   2.194  30.489   8.636
 1475POPC   C2B22028   1.940  30.508   8.279
 1475POPC   C3B22029   1.738  30.528   7.893
 1475POPC   C4B22030   2.046  30.564   7.635
 1476POPC   NC322031  23.499  26.150   9.450
 1476POPC   PO422032  22.935  25.988   9.464
 1476POPC   GL122033  22.965  25.834   9.056
 1476POPC   GL222034  23.137  25.534   9.032
 1476POPC   C1A22035  22.997  26.047   8.653
 1476POPC   D2A22036  22.961  26.395   8.359
 1476POPC   C3A22037  22.911  26.258   7.943
 1476POPC   C4A22038  22.534  26.406   7.776
 1476POPC   C1B22039  23.128  25.566   8.585
 1476POPC   C2B22040  23.088  25.773   8.175
 1476POPC   C3B22041  23.085  25.751   7.718
 1476POPC   C4B22042  23.392  25.767   7.363
 1477POPC   NC322043   2.497   1.369   9.520
 1477POPC   PO422044   3.078   0.931   9.414
 1477POPC   GL122045   2.822   1.140   9.115
 1477POPC   GL222046   2.514   1.307   9.028
 1477POPC   C1A22047   2.930   1.266   8.734
 1477POPC   D2A22048   3.118   1.398   8.376
 1477POPC   C3A22049   2.972   1.209   8.002
 1477POPC   C4A22050   3.095   1.035   7.623
 1477POPC   C1B22051   2.438   1.077   8.678
 1477POPC   C2B22052   2.374   1.165   8.249
 1477POPC   C3B22053   2.521   1.428   7.910
 1477POPC   C4B22054   2.586   1.043   7.688
 1478POPC   NC322055   6.469  13.414   9.789
 1478POPC   PO422056   5.954  13.754   9.421
 1478POPC   GL122057   5.945  13.647   8.976
 1478POPC   GL222058   6.099  13.332   8.850
 1478POPC   C1A22059   5.884  13.718   8.528
 1478POPC   D2A22060   6.031  13.660   8.108
 1478POPC   C3A22061   5.685  13.710   7.825
 1478POPC   C4A22062   5.358  13.446   7.730
 1478POPC   C1B22063   5.707  13.278   8.660
 1478POPC   C2B22064   5.603  13.402   8.248
 1478POPC   C3B22065   5.833  13.240   7.881
 1478POPC   C4B22066   5.827  13.246   7.395
 1479POPC   NC322067  38.448  38.903   9.495
 1479POPC   PO422068  38.402  39.578   9.471
 1479POPC   GL122069  38.299  39.493   9.060
 1479POPC   GL222070  38.324  39.202   9.003
 1479POPC   C1A22071  38.442  39.493   8.602
 1479POPC   D2A22072  38.370  39.281   8.222
 1479POPC   C3A22073  38.519  39.445   7.821
 1479POPC   C4A22074  38.271  39.579   7.440
 1479POPC   C1B22075  38.290  38.975   8.640
 1479POPC   C2B22076  38.562  38.785   8.329
 1479POPC   C3B22077  38.515  38.899   7.914
 1479POPC   C4B22078  38.123  38.993   7.819
 1480POPC   NC322079  34.699  16.945   9.693
 1480POPC   PO422080  34.777  17.612   9.639
 1480POPC   GL122081  34.507  17.561   9.251
 1480POPC   GL222082  34.652  17.286   9.058
 1480POPC   C1A22083  34.278  17.518   8.838
 1480POPC   D2A22084  34.521  17.350   8.516
 1480POPC   C3A22085  34.418  17.354   8.102
 1480POPC   C4A22086  34.246  17.543   7.751
 1480POPC   C1B22087  34.760  17.702   8.810
 1480POPC   C2B22088  34.876  17.771   8.362
 1480POPC   C3B22089  34.813  17.612   7.917
 1480POPC   C4B22090  34.599  17.843   7.557
 1481POPC   NC322091  21.564   7.985   9.352
 1481POPC   PO422092  21.200   8.575   9.513
 1481POPC   GL122093  21.294   8.347   9.148
 1481POPC   GL222094  21.040   8.132   9.196
 1481POPC   C1A22095  21.531   8.361   8.755
 1481POPC   D2A22096  21.443   8.523   8.355
 1481POPC   C3A22097  21.559   8.398   7.955
 1481POPC   C4A22098  21.344   8.258   7.634
 1481POPC   C1B22099  21.098   8.064   8.749
 1481POPC   C2B22100  21.007   8.157   8.324
 1481POPC   C3B22101  21.006   7.996   7.893
 1481POPC   C4B22102  20.834   8.126   7.469
 1482POPC   NC322103  26.853   3.753   9.401
 1482POPC   PO422104  26.378   3.331   9.459
 1482POPC   GL122105  26.605   3.463   9.080
 1482POPC   GL222106  27.026   3.458   9.028
 1482POPC   C1A22107  26.650   3.719   8.730
 1482POPC   D2A22108  26.657   3.494   8.364
 1482POPC   C3A22109  26.604   3.702   7.996
 1482POPC   C4A22110  26.502   3.566   7.600
 1482POPC   C1B22111  27.159   3.804   8.725
 1482POPC   C2B22112  26.951   3.962   8.333
 1482POPC   C3B22113  27.062   3.943   7.894
 1482POPC   C4B22114  27.209   3.901   7.466
 1483POPC   NC322115  31.041  25.713   9.493
 1483POPC   PO422116  31.730  25.885   9.607
 1483POPC   GL122117  31.574  25.862   9.214
 1483POPC   GL222118  31.294  26.040   9.154
 1483POPC   C1A22119  31.676  26.020   8.822
 1483POPC   D2A22120  31.423  26.158   8.508
 1483POPC   C3A22121  31.514  25.990   8.124
 1483POPC   C4A22122  31.561  25.989   7.702
 1483POPC   C1B22123  31.234  25.757   8.796
 1483POPC   C2B22124  31.310  25.590   8.401
 1483POPC   C3B22125  31.147  25.651   7.985
 1483POPC   C4B22126  31.114  25.817   7.552
 1484POPC   NC322127  35.175  23.327   9.584
 1484POPC   PO422128  35.631  22.836   9.633
 1484POPC   GL122129  35.474  22.835   9.217
 1484POPC   GL222130  35.299  23.148   9.132
 1484POPC   C1A22131  35.565  22.892   8.781
 1484POPC   D2A22132  35.409  23.143   8.432
 1484POPC   C3A22133  35.520  23.027   8.000
 1484POPC   C4A22134  35.490  22.927   7.544
 1484POPC   C1B22135  35.027  23.307   8.828
 1484POPC   C2B22136  34.832  23.417   8.432
 1484POPC   C3B22137  35.046  23.271   8.074
 1484POPC   C4B22138  35.034  22.959   7.755
 1485POPC   NC322139  44.300  34.008   9.519
 1485POPC   PO422140  44.993  33.695   9.618
 1485POPC   GL122141  44.818  33.613   9.207
 1485POPC   GL222142  44.487  33.756   9.122
 1485POPC   C1A22143  44.830  33.597   8.768
 1485POPC   D2A22144   0.067  33.644   8.424
 1485POPC   C3A22145  44.757  33.634   8.087
 1485POPC   C4A22146  44.740  33.882   7.731
 1485POPC   C1B22147  44.336  33.493   8.783
 1485POPC   C2B22148  44.322  33.389   8.328
 1485POPC   C3B22149  44.301  33.501   7.867
 1485POPC   C4B22150  44.365  33.719   7.440
 1486POPC   NC322151  12.098  18.162   9.513
 1486POPC   PO422152  11.850  18.761   9.343
 1486POPC   GL122153  12.047  18.486   9.072
 1486POPC   GL222154  12.030  18.114   9.011
 1486POPC   C1A22155  12.269  18.452   8.726
 1486POPC   D2A22156  12.248  18.170   8.441
 1486POPC   C3A22157  12.287  18.344   8.077
 1486POPC   C4A22158  12.037  18.351   7.738
 1486POPC   C1B22159  11.786  18.286   8.666
 1486POPC   C2B22160  11.794  18.377   8.236
 1486POPC   C3B22161  11.587  18.191   7.898
 1486POPC   C4B22162  11.554  18.329   7.503
 1487POPC   NC322163   5.053  17.042   9.491
 1487POPC   PO422164   5.019  17.731   9.507
 1487POPC   GL122165   4.936  17.587   9.112
 1487POPC   GL222166   5.069  17.261   8.957
 1487POPC   C1A22167   5.119  17.734   8.769
 1487POPC   D2A22168   5.187  17.451   8.440
 1487POPC   C3A22169   5.351  17.625   8.107
 1487POPC   C4A22170   5.130  17.720   7.783
 1487POPC   C1B22171   4.718  17.386   8.656
 1487POPC   C2B22172   4.711  17.376   8.209
 1487POPC   C3B22173   4.960  17.221   7.891
 1487POPC   C4B22174   5.371  17.220   7.783
 1488POPC   NC322175   1.427  26.055   9.319
 1488POPC   PO422176   0.816  26.416   9.369
 1488POPC   GL122177   0.963  26.086   9.077
 1488POPC   GL222178   0.971  25.729   9.128
 1488POPC   C1A22179   1.260  26.055   8.705
 1488POPC   D2A22180   1.570  26.097   8.375
 1488POPC   C3A22181   1.515  25.823   8.036
 1488POPC   C4A22182   1.456  25.816   7.613
 1488POPC   C1B22183   1.112  25.575   8.721
 1488POPC   C2B22184   1.073  25.769   8.317
 1488POPC   C3B22185   1.014  25.877   7.886
 1488POPC   C4B22186   0.969  25.740   7.458
 1489POPC   NC322187  42.383  21.598   9.473
 1489POPC   PO422188  42.405  21.001   9.283
 1489POPC   GL122189  42.239  21.354   9.030
 1489POPC   GL222190  42.175  21.733   9.038
 1489POPC   C1A22191  42.028  21.510   8.602
 1489POPC   D2A22192  41.983  21.540   8.153
 1489POPC   C3A22193  42.232  21.212   7.910
 1489POPC   C4A22194  42.641  21.013   7.819
 1489POPC   C1B22195  42.515  21.601   8.702
 1489POPC   C2B22196  42.482  21.522   8.259
 1489POPC   C3B22197  42.395  21.696   7.832
 1489POPC   C4B22198  42.597  21.843   7.445
 1490POPC   NC322199  33.405  19.957   9.549
 1490POPC   PO422200  34.086  19.630   9.430
 1490POPC   GL122201  33.839  19.903   9.124
 1490POPC   GL222202  33.472  19.825   9.068
 1490POPC   C1A22203  33.732  20.052   8.695
 1490POPC   D2A22204  33.517  19.893   8.355
 1490POPC   C3A22205  33.745  19.898   7.938
 1490POPC   C4A22206  33.966  20.152   7.625
 1490POPC   C1B22207  33.370  19.499   8.772
 1490POPC   C2B22208  33.144  19.512   8.417
 1490POPC   C3B22209  33.161  19.711   8.045
 1490POPC   C4B22210  33.392  19.620   7.684
 1491POPC   NC322211  43.634  28.528   9.445
 1491POPC   PO422212  43.842  27.964   9.509
 1491POPC   GL122213  43.801  28.230   9.085
 1491POPC   GL222214  43.996  28.555   9.064
 1491POPC   C1A22215  43.989  28.222   8.661
 1491POPC   D2A22216  44.137  28.381   8.253
 1491POPC   C3A22217  43.882  28.294   7.907
 1491POPC   C4A22218  43.833  28.028   7.555
 1491POPC   C1B22219  43.609  28.601   8.784
 1491POPC   C2B22220  43.578  28.440   8.363
 1491POPC   C3B22221  43.581  28.679   7.972
 1491POPC   C4B22222  43.762  28.893   7.584
 1492POPC   NC322223   4.046  20.580   9.422
 1492POPC   PO422224   4.310  19.997   9.449
 1492POPC   GL122225   4.353  20.302   9.075
 1492POPC   GL222226   4.455  20.684   9.101
 1492POPC   C1A22227   4.080  20.530   8.757
 1492POPC   D2A22228   3.978  20.567   8.321
 1492POPC   C3A22229   4.343  20.445   8.087
 1492POPC   C4A22230   4.564  20.481   7.699
 1492POPC   C1B22231   4.450  20.971   8.700
 1492POPC   C2B22232   4.552  21.081   8.234
 1492POPC   C3B22233   4.689  21.052   7.790
 1492POPC   C4B22234   4.654  20.858   7.360
 1493POPC   NC322235   7.992   9.812   9.242
 1493POPC   PO422236   8.546   9.606   9.401
 1493POPC   GL122237   8.358   9.551   8.978
 1493POPC   GL222238   8.034   9.392   8.924
 1493POPC   C1A22239   8.149   9.798   8.617
 1493POPC   D2A22240   8.030   9.669   8.209
 1493POPC   C3A22241   8.275   9.762   7.865
 1493POPC   C4A22242   8.380  10.174   7.735
 1493POPC   C1B22243   8.272   9.295   8.533
 1493POPC   C2B22244   8.203   9.208   8.095
 1493POPC   C3B22245   7.921   9.396   7.781
 1493POPC   C4B22246   8.110   9.600   7.417
 1494POPC   NC322247  14.585  29.209   9.654
 1494POPC   PO422248  14.350  28.625   9.471
 1494POPC   GL122249  14.266  28.981   9.180
 1494POPC   GL222250  14.579  29.202   9.142
 1494POPC   C1A22251  14.339  29.083   8.724
 1494POPC   D2A22252  14.478  28.832   8.398
 1494POPC   C3A22253  14.455  28.862   7.950
 1494POPC   C4A22254  14.084  28.997   7.749
 1494POPC   C1B22255  14.785  29.363   8.741
 1494POPC   C2B22256  14.648  29.317   8.314
 1494POPC   C3B22257  14.204  29.260   8.171
 1494POPC   C4B22258  14.071  29.521   7.793
 1495POPC   NC322259  43.922  34.596   9.570
 1495POPC   PO422260  43.605  35.067   9.242
 1495POPC   GL122261  43.792  34.732   9.087
 1495POPC   GL222262  43.648  34.419   9.160
 1495POPC   C1A22263  44.028  34.525   8.782
 1495POPC   D2A22264  43.960  34.302   8.400
 1495POPC   C3A22265  44.173  34.494   8.039
 1495POPC   C4A22266  44.048  34.635   7.620
 1495POPC   C1B22267  43.494  34.439   8.753
 1495POPC   C2B22268  43.424  34.305   8.347
 1495POPC   C3B22269  43.607  34.492   8.005
 1495POPC   C4B22270  43.800  34.198   7.747
 1496POPC   NC322271  12.690  36.638   9.478
 1496POPC   PO422272  13.253  37.057   9.538
 1496POPC   GL122273  12.960  37.000   9.221
 1496POPC   GL222274  13.090  36.684   9.159
 1496POPC   C1A22275  12.741  37.133   8.848
 1496POPC   D2A22276  12.796  36.959   8.420
 1496POPC   C3A22277  12.586  37.032   8.019
 1496POPC   C4A22278  12.884  37.112   7.677
 1496POPC   C1B22279  12.812  36.613   8.809
 1496POPC   C2B22280  12.915  36.458   8.394
 1496POPC   C3B22281  12.924  36.654   8.015
 1496POPC   C4B22282  12.700  36.641   7.637
 1497POPC   NC322283   4.005  41.836   9.298
 1497POPC   PO422284   3.539  41.367   9.549
 1497POPC   GL122285   3.523  41.610   9.167
 1497POPC   GL222286   3.385  41.946   9.113
 1497POPC   C1A22287   3.508  41.476   8.747
 1497POPC   D2A22288   3.712  41.505   8.334
 1497POPC   C3A22289   3.395  41.338   8.038
 1497POPC   C4A22290   3.338  41.344   7.586
 1497POPC   C1B22291   3.684  41.955   8.749
 1497POPC   C2B22292   3.760  42.151   8.359
 1497POPC   C3B22293   3.740  41.944   7.968
 1497POPC   C4B22294   3.801  41.529   7.794
 1498POPC   NC322295  32.009   5.898   9.451
 1498POPC   PO422296  32.564   6.314   9.282
 1498POPC   GL122297  32.359   5.928   9.082
 1498POPC   GL222298  32.134   5.576   9.090
 1498POPC   C1A22299  32.088   5.942   8.748
 1498POPC   D2A22300  32.189   5.798   8.376
 1498POPC   C3A22301  32.166   6.100   8.088
 1498POPC   C4A22302  32.153   5.927   7.712
 1498POPC   C1B22303  32.419   5.495   8.781
 1498POPC   C2B22304  32.553   5.401   8.383
 1498POPC   C3B22305  32.479   5.611   7.994
 1498POPC   C4B22306  32.623   5.726   7.615
 1499POPC   NC322307   2.553  18.791   9.533
 1499POPC   PO422308   2.688  18.110   9.443
 1499POPC   GL122309   2.658  18.460   9.138
 1499POPC   GL222310   2.828  18.227   8.925
 1499POPC   C1A22311   2.650  18.632   8.683
 1499POPC   D2A22312   2.631  18.401   8.275
 1499POPC   C3A22313   2.838  18.594   7.912
 1499POPC   C4A22314   2.795  18.383   7.528
 1499POPC   C1B22315   3.125  18.250   8.587
 1499POPC   C2B22316   3.153  18.270   8.141
 1499POPC   C3B22317   3.041  18.016   7.792
 1499POPC   C4B22318   3.139  18.046   7.344
 1500POPC   NC322319   7.810   1.939   9.439
 1500POPC   PO422320   7.245   2.131   9.655
 1500POPC   GL122321   7.259   1.919   9.246
 1500POPC   GL222322   7.539   1.885   9.031
 1500POPC   C1A22323   7.088   1.781   8.845
 1500POPC   D2A22324   7.368   1.700   8.511
 1500POPC   C3A22325   7.185   1.616   8.100
 1500POPC   C4A22326   7.172   1.921   7.789
 1500POPC   C1B22327   7.718   2.136   8.758
 1500POPC   C2B22328   7.903   1.962   8.402
 1500POPC   C3B22329   7.669   1.798   8.084
 1500POPC   C4B22330   7.682   1.851   7.702
 1501POPC   NC322331   9.153  11.026   9.757
 1501POPC   PO422332   8.713  11.334   9.516
 1501POPC   GL122333   8.974  11.392   9.178
 1501POPC   GL222334   9.188  11.080   9.239
 1501POPC   C1A22335   8.947  11.405   8.716
 1501POPC   D2A22336   9.224  11.214   8.388
 1501POPC   C3A22337   9.303  11.389   7.956
 1501POPC   C4A22338   9.013  11.611   7.663
 1501POPC   C1B22339   9.012  10.922   8.870
 1501POPC   C2B22340   9.075  10.737   8.482
 1501POPC   C3B22341   8.984  10.795   8.080
 1501POPC   C4B22342   8.885  11.121   7.801
 1502POPC   NC322343  42.758  10.551   9.602
 1502POPC   PO422344  43.440  10.524   9.527
 1502POPC   GL122345  43.352  10.588   9.124
 1502POPC   GL222346  42.996  10.632   9.153
 1502POPC   C1A22347  43.429  10.389   8.751
 1502POPC   D2A22348  43.259  10.522   8.365
 1502POPC   C3A22349  43.180  10.227   8.067
 1502POPC   C4A22350  43.186  10.300   7.642
 1502POPC   C1B22351  42.913  10.378   8.790
 1502POPC   C2B22352  42.762  10.355   8.353
 1502POPC   C3B22353  42.860  10.609   7.998
 1502POPC   C4B22354  42.738  10.613   7.587
 1503POPC   NC322355   8.874   3.187   9.423
 1503POPC   PO422356   9.193   3.789   9.469
 1503POPC   GL122357   8.885   3.666   9.193
 1503POPC   GL222358   8.559   3.863   9.240
 1503POPC   C1A22359   8.902   3.408   8.817
 1503POPC   D2A22360   8.890   3.130   8.483
 1503POPC   C3A22361   8.881   3.316   8.082
 1503POPC   C4A22362   9.160   3.353   7.753
 1503POPC   C1B22363   8.628   3.859   8.806
 1503POPC   C2B22364   8.610   3.609   8.448
 1503POPC   C3B22365   8.730   3.839   8.118
 1503POPC   C4B22366   8.766   3.718   7.748
 1504POPC   NC322367   3.669  13.688   9.375
 1504POPC   PO422368   3.012  13.866   9.436
 1504POPC   GL122369   3.252  13.613   9.078
 1504POPC   GL222370   3.602  13.423   8.959
 1504POPC   C1A22371   3.260  13.627   8.636
 1504POPC   D2A22372   3.532  13.451   8.341
 1504POPC   C3A22373   3.467  13.668   7.983
 1504POPC   C4A22374   3.388  13.456   7.594
 1504POPC   C1B22375   3.801  13.737   8.684
 1504POPC   C2B22376   3.917  13.818   8.229
 1504POPC   C3B22377   3.855  14.094   7.870
 1504POPC   C4B22378   3.944  14.093   7.379
 1505POPC   NC322379   2.394  39.229   9.659
 1505POPC   PO422380   3.018  39.476   9.552
 1505POPC   GL122381   2.709  39.300   9.276
 1505POPC   GL222382   2.862  38.982   9.256
 1505POPC   C1A22383   2.486  39.118   8.915
 1505POPC   D2A22384   2.554  39.209   8.469
 1505POPC   C3A22385   2.773  39.527   8.204
 1505POPC   C4A22386   2.736  39.415   7.757
 1505POPC   C1B22387   2.988  39.225   8.862
 1505POPC   C2B22388   3.124  39.039   8.491
 1505POPC   C3B22389   2.951  39.074   8.096
 1505POPC   C4B22390   3.082  39.005   7.699
 1506POPC   NC322391  18.636  16.976   9.378
 1506POPC   PO422392  19.015  16.461   9.478
 1506POPC   GL122393  19.183  16.458   9.083
 1506POPC   GL222394  19.251  16.824   9.024
 1506POPC   C1A22395  19.070  16.526   8.648
 1506POPC   D2A22396  19.068  16.970   8.478
 1506POPC   C3A22397  19.018  16.952   8.042
 1506POPC   C4A22398  18.999  16.611   7.750
 1506POPC   C1B22399  19.532  17.026   8.730
 1506POPC   C2B22400  19.520  17.182   8.300
 1506POPC   C3B22401  19.616  17.157   7.850
 1506POPC   C4B22402  19.289  16.984   7.551
 1507POPC   NC322403  38.420   0.453   9.443
 1507POPC   PO422404  38.910   0.855   9.445
 1507POPC   GL122405  38.814   0.544   9.087
 1507POPC   GL222406  38.707   0.195   9.107
 1507POPC   C1A22407  38.600   0.447   8.673
 1507POPC   D2A22408  38.551   0.171   8.311
 1507POPC   C3A22409  38.576   0.327   7.863
 1507POPC   C4A22410  38.570   0.224   7.406
 1507POPC   C1B22411  38.292   0.083   8.860
 1507POPC   C2B22412  38.087   0.248   8.511
 1507POPC   C3B22413  38.081   0.264   8.068
 1507POPC   C4B22414  38.123   0.462   7.647
 1508POPC   NC322415   1.761  19.361   9.313
 1508POPC   PO422416   1.190  18.883   9.368
 1508POPC   GL122417   1.180  19.154   9.016
 1508POPC   GL222418   1.501  19.256   8.914
 1508POPC   C1A22419   1.171  19.077   8.568
 1508POPC   D2A22420   0.846  19.008   8.275
 1508POPC   C3A22421   1.087  19.072   7.958
 1508POPC   C4A22422   1.202  18.690   7.837
 1508POPC   C1B22423   1.623  18.852   8.748
 1508POPC   C2B22424   1.495  18.735   8.315
 1508POPC   C3B22425   1.588  19.002   7.967
 1508POPC   C4B22426   1.438  19.201   7.583
 1509POPC   NC322427   9.460  20.984   9.486
 1509POPC   PO422428   9.537  20.322   9.364
 1509POPC   GL122429   9.760  20.650   9.171
 1509POPC   GL222430   9.473  20.784   9.003
 1509POPC   C1A22431   9.918  20.742   8.748
 1509POPC   D2A22432   9.845  20.608   8.302
 1509POPC   C3A22433  10.006  20.732   7.876
 1509POPC   C4A22434  10.100  20.437   7.502
 1509POPC   C1B22435   9.522  20.404   8.710
 1509POPC   C2B22436   9.363  20.345   8.288
 1509POPC   C3B22437   9.556  20.465   7.907
 1509POPC   C4B22438   9.540  20.905   7.772
 1510POPC   NC322439   7.746  37.805   9.509
 1510POPC   PO422440   7.283  37.325   9.518
 1510POPC   GL122441   7.137  37.541   9.168
 1510POPC   GL222442   7.356  37.848   9.146
 1510POPC   C1A22443   7.107  37.631   8.741
 1510POPC   D2A22444   7.352  37.916   8.533
 1510POPC   C3A22445   7.436  37.893   8.114
 1510POPC   C4A22446   7.210  37.653   7.794
 1510POPC   C1B22447   7.588  37.536   8.883
 1510POPC   C2B22448   7.605  37.453   8.440
 1510POPC   C3B22449   7.652  37.447   7.991
 1510POPC   C4B22450   7.868  37.741   7.737
 1511POPC   NC322451  14.907  42.208   9.378
 1511POPC   PO422452  15.046  42.796   9.621
 1511POPC   GL122453  15.130  42.655   9.200
 1511POPC   GL222454  15.386  42.361   9.178
 1511POPC   C1A22455  15.019  42.491   8.781
 1511POPC   D2A22456  14.961  42.605   8.351
 1511POPC   C3A22457  15.232  42.528   8.005
 1511POPC   C4A22458  14.941  42.546   7.668
 1511POPC   C1B22459  15.439  42.176   8.750
 1511POPC   C2B22460  15.126  42.135   8.405
 1511POPC   C3B22461  14.955  42.105   7.983
 1511POPC   C4B22462  15.327  41.994   7.757
 1512POPC   NC322463  12.521  23.057   9.313
 1512POPC   PO422464  12.537  23.748   9.553
 1512POPC   GL122465  12.611  23.878   9.160
 1512POPC   GL222466  12.688  23.514   9.125
 1512POPC   C1A22467  12.693  23.829   8.720
 1512POPC   D2A22468  12.895  23.909   8.322
 1512POPC   C3A22469  12.651  23.832   7.958
 1512POPC   C4A22470  12.791  23.798   7.502
 1512POPC   C1B22471  12.667  23.306   8.730
 1512POPC   C2B22472  12.713  23.421   8.306
 1512POPC   C3B22473  12.673  23.332   7.876
 1512POPC   C4B22474  12.968  23.293   7.527
 1513POPC   NC322475  23.339  31.501   9.589
 1513POPC   PO422476  24.024  31.250   9.541
 1513POPC   GL122477  23.875  31.278   9.105
 1513POPC   GL222478  23.846  31.582   9.031
 1513POPC   C1A22479  23.625  31.322   8.683
 1513POPC   D2A22480  23.375  31.523   8.367
 1513POPC   C3A22481  23.473  31.341   8.002
 1513POPC   C4A22482  23.875  31.286   7.912
 1513POPC   C1B22483  24.037  31.779   8.718
 1513POPC   C2B22484  23.940  31.644   8.318
 1513POPC   C3B22485  24.092  31.841   7.958
 1513POPC   C4B22486  23.994  31.849   7.560
 1514POPC   NC322487  16.290  18.863   9.490
 1514POPC   PO422488  15.704  18.449   9.544
 1514POPC   GL122489  15.853  18.815   9.222
 1514POPC   GL222490  16.036  19.146   9.137
 1514POPC   C1A22491  15.882  18.830   8.766
 1514POPC   D2A22492  15.816  19.067   8.415
 1514POPC   C3A22493  15.907  18.932   7.977
 1514POPC   C4A22494  15.692  18.940   7.595
 1514POPC   C1B22495  16.156  19.360   8.741
 1514POPC   C2B22496  16.255  19.304   8.285
 1514POPC   C3B22497  16.261  19.450   7.850
 1514POPC   C4B22498  16.115  19.229   7.489
 1515POPC   NC322499  11.648  37.501   9.313
 1515POPC   PO422500  10.989  37.636   9.414
 1515POPC   GL122501  11.133  37.534   9.052
 1515POPC   GL222502  11.356  37.801   9.023
 1515POPC   C1A22503  11.062  37.661   8.616
 1515POPC   D2A22504  10.927  37.464   8.224
 1515POPC   C3A22505  11.176  37.579   7.889
 1515POPC   C4A22506  11.462  37.450   7.581
 1515POPC   C1B22507  11.507  38.001   8.663
 1515POPC   C2B22508  11.431  37.895   8.246
 1515POPC   C3B22509  11.293  38.098   7.888
 1515POPC   C4B22510  11.341  37.957   7.492
 1516POPC   NC322511  23.666   7.204   9.360
 1516POPC   PO422512  23.837   7.837   9.340
 1516POPC   GL122513  23.982   7.576   9.037
 1516POPC   GL222514  24.137   7.294   9.198
 1516POPC   C1A22515  23.698   7.455   8.694
 1516POPC   D2A22516  23.669   7.190   8.333
 1516POPC   C3A22517  23.700   7.421   7.912
 1516POPC   C4A22518  23.640   7.606   7.478
 1516POPC   C1B22519  24.072   7.128   8.785
 1516POPC   C2B22520  24.142   7.362   8.399
 1516POPC   C3B22521  24.190   7.233   7.956
 1516POPC   C4B22522  24.137   7.460   7.622
 1517POPC   NC322523   5.451  11.715   9.246
 1517POPC   PO422524   5.923  12.119   9.342
 1517POPC   GL122525   5.702  12.114   9.001
 1517POPC   GL222526   5.490  12.426   9.016
 1517POPC   C1A22527   5.933  11.888   8.692
 1517POPC   D2A22528   6.174  11.940   8.328
 1517POPC   C3A22529   5.860  12.039   8.016
 1517POPC   C4A22530   5.768  11.835   7.616
 1517POPC   C1B22531   5.664  12.407   8.579
 1517POPC   C2B22532   6.054  12.441   8.349
 1517POPC   C3B22533   6.190  12.427   7.910
 1517POPC   C4B22534   5.850  12.338   7.582
 1518POPC   NC322535  26.414   2.887   9.639
 1518POPC   PO422536  27.070   2.614   9.552
 1518POPC   GL122537  26.842   2.651   9.150
 1518POPC   GL222538  26.603   2.946   9.158
 1518POPC   C1A22539  26.975   2.621   8.704
 1518POPC   D2A22540  26.810   2.569   8.311
 1518POPC   C3A22541  26.957   2.692   7.919
 1518POPC   C4A22542  26.687   2.741   7.556
 1518POPC   C1B22543  26.782   3.100   8.766
 1518POPC   C2B22544  26.949   3.076   8.346
 1518POPC   C3B22545  26.797   3.194   7.940
 1518POPC   C4B22546  26.983   3.479   7.681
 1519POPC   NC322547  11.204  38.105   9.415
 1519POPC   PO422548  11.668  38.644   9.447
 1519POPC   GL122549  11.361  38.590   9.142
 1519POPC   GL222550  11.538  38.294   9.077
 1519POPC   C1A22551  11.203  38.476   8.710
 1519POPC   D2A22552  11.090  38.684   8.319
 1519POPC   C3A22553  11.218  38.607   7.892
 1519POPC   C4A22554  11.172  38.774   7.472
 1519POPC   C1B22555  11.720  38.497   8.761
 1519POPC   C2B22556  11.618  38.401   8.346
 1519POPC   C3B22557  11.717  38.577   7.983
 1519POPC   C4B22558  11.630  38.452   7.572
 1520POPC   NC322559  42.802  31.306   9.559
 1520POPC   PO422560  42.176  31.735   9.486
 1520POPC   GL122561  42.227  31.391   9.193
 1520POPC   GL222562  42.583  31.390   9.115
 1520POPC   C1A22563  42.231  31.245   8.746
 1520POPC   D2A22564  42.379  31.135   8.333
 1520POPC   C3A22565  42.331  31.408   7.958
 1520POPC   C4A22566  42.024  31.425   7.606
 1520POPC   C1B22567  42.516  31.692   8.804
 1520POPC   C2B22568  42.590  31.606   8.373
 1520POPC   C3B22569  42.714  31.809   8.002
 1520POPC   C4B22570  42.518  31.784   7.644
 1521POPC   NC322571   4.586  29.002   9.489
 1521POPC   PO422572   5.183  28.977   9.701
 1521POPC   GL122573   5.029  28.884   9.279
 1521POPC   GL222574   4.979  29.240   9.145
 1521POPC   C1A22575   4.977  28.867   8.824
 1521POPC   D2A22576   4.917  29.153   8.432
 1521POPC   C3A22577   5.105  28.934   8.068
 1521POPC   C4A22578   5.374  28.796   7.697
 1521POPC   C1B22579   5.178  29.465   8.768
 1521POPC   C2B22580   5.055  29.706   8.392
 1521POPC   C3B22581   4.896  29.515   8.024
 1521POPC   C4B22582   5.219  29.355   7.774
 1522POPC   NC322583  36.390  25.243   9.358
 1522POPC   PO422584  35.947  25.700   9.464
 1522POPC   GL122585  35.976  25.469   9.081
 1522POPC   GL222586  35.883  25.168   9.174
 1522POPC   C1A22587  36.299  25.354   8.752
 1522POPC   D2A22588  36.499  25.231   8.391
 1522POPC   C3A22589  36.310  25.441   8.072
 1522POPC   C4A22590  36.125  25.505   7.655
 1522POPC   C1B22591  35.799  25.132   8.747
 1522POPC   C2B22592  35.966  25.223   8.379
 1522POPC   C3B22593  35.813  25.317   8.005
 1522POPC   C4B22594  35.831  25.094   7.664
 1523POPC   NC322595  41.827  32.052   9.418
 1523POPC   PO422596  41.227  32.228   9.410
 1523POPC   GL122597  41.403  31.994   9.120
 1523POPC   GL222598  41.596  32.280   9.031
 1523POPC   C1A22599  41.508  31.833   8.726
 1523POPC   D2A22600  41.358  31.969   8.307
 1523POPC   C3A22601  41.584  32.106   7.937
 1523POPC   C4A22602  41.518  32.107   7.472
 1523POPC   C1B22603  41.655  32.305   8.605
 1523POPC   C2B22604  41.953  32.400   8.317
 1523POPC   C3B22605  41.886  32.712   8.017
 1523POPC   C4B22606  41.578  32.570   7.726
 1524POPC   NC322607  31.250   5.568   9.173
 1524POPC   PO422608  31.427   4.972   9.536
 1524POPC   GL122609  31.373   5.059   9.158
 1524POPC   GL222610  31.015   5.063   9.139
 1524POPC   C1A22611  31.598   5.197   8.793
 1524POPC   D2A22612  31.383   5.338   8.432
 1524POPC   C3A22613  31.591   5.212   8.092
 1524POPC   C4A22614  31.561   5.292   7.687
 1524POPC   C1B22615  31.173   4.923   8.702
 1524POPC   C2B22616  31.307   4.784   8.272
 1524POPC   C3B22617  31.373   4.813   7.817
 1524POPC   C4B22618  31.279   4.952   7.406
 1525POPC   NC322619  33.215  12.582   9.532
 1525POPC   PO422620  32.766  13.165   9.536
 1525POPC   GL122621  32.980  13.195   9.152
 1525POPC   GL222622  33.166  12.893   9.133
 1525POPC   C1A22623  33.149  13.204   8.733
 1525POPC   D2A22624  33.213  13.399   8.345
 1525POPC   C3A22625  33.085  13.078   8.077
 1525POPC   C4A22626  32.968  13.064   7.671
 1525POPC   C1B22627  33.238  12.698   8.722
 1525POPC   C2B22628  33.123  12.594   8.295
 1525POPC   C3B22629  32.980  12.590   7.874
 1525POPC   C4B22630  33.300  12.677   7.580
 1526POPC   NC322631  35.975  24.346   9.306
 1526POPC   PO422632  35.333  24.549   9.443
 1526POPC   GL122633  35.358  24.490   9.042
 1526POPC   GL222634  35.072  24.257   9.053
 1526POPC   C1A22635  35.627  24.495   8.670
 1526POPC   D2A22636  35.709  24.777   8.344
 1526POPC   C3A22637  35.509  24.570   8.014
 1526POPC   C4A22638  35.614  24.429   7.623
 1526POPC   C1B22639  35.058  24.446   8.634
 1526POPC   C2B22640  34.906  24.458   8.210
 1526POPC   C3B22641  35.032  24.692   7.835
 1526POPC   C4B22642  35.161  24.519   7.451
 1527POPC   NC322643  21.376  12.454   9.764
 1527POPC   PO422644  21.329  11.767   9.715
 1527POPC   GL122645  21.326  11.901   9.268
 1527POPC   GL222646  21.622  11.924   9.104
 1527POPC   C1A22647  21.195  12.032   8.841
 1527POPC   D2A22648  20.913  12.079   8.539
 1527POPC   C3A22649  21.145  12.088   8.158
 1527POPC   C4A22650  21.118  12.060   7.722
 1527POPC   C1B22651  21.580  11.699   8.727
 1527POPC   C2B22652  21.447  11.622   8.317
 1527POPC   C3B22653  21.330  11.619   7.888
 1527POPC   C4B22654  21.511  11.729   7.484
 1528POPC   NC322655  33.459   7.194   9.411
 1528POPC   PO422656  32.815   7.491   9.443
 1528POPC   GL122657  33.127   7.552   9.132
 1528POPC   GL222658  33.037   7.895   9.076
 1528POPC   C1A22659  33.256   7.332   8.742
 1528POPC   D2A22660  33.411   7.367   8.313
 1528POPC   C3A22661  33.282   7.137   7.975
 1528POPC   C4A22662  33.247   7.178   7.495
 1528POPC   C1B22663  32.956   7.784   8.657
 1528POPC   C2B22664  32.962   7.618   8.254
 1528POPC   C3B22665  33.022   7.548   7.835
 1528POPC   C4B22666  32.789   7.528   7.477
 1529POPC   NC322667  17.841  41.057   9.495
 1529POPC   PO422668  17.300  40.576   9.525
 1529POPC   GL122669  17.474  40.801   9.166
 1529POPC   GL222670  17.233  41.008   9.019
 1529POPC   C1A22671  17.603  40.809   8.701
 1529POPC   D2A22672  17.467  41.044   8.327
 1529POPC   C3A22673  17.426  40.807   7.929
 1529POPC   C4A22674  17.543  40.380   7.709
 1529POPC   C1B22675  17.124  40.620   8.749
 1529POPC   C2B22676  17.137  40.436   8.305
 1529POPC   C3B22677  17.077  40.457   7.840
 1529POPC   C4B22678  17.215  40.738   7.466
 1530POPC   NC322679  23.699  24.896   9.555
 1530POPC   PO422680  23.517  24.271   9.447
 1530POPC   GL122681  23.750  24.532   9.163
 1530POPC   GL222682  23.456  24.687   9.122
 1530POPC   C1A22683  23.765  24.635   8.698
 1530POPC   D2A22684  23.683  24.315   8.376
 1530POPC   C3A22685  23.842  24.349   7.930
 1530POPC   C4A22686  23.925  24.651   7.621
 1530POPC   C1B22687  23.310  24.356   8.795
 1530POPC   C2B22688  23.183  24.184   8.361
 1530POPC   C3B22689  23.339  24.346   7.952
 1530POPC   C4B22690  23.512  24.376   7.502
 1531POPC   NC322691  16.258  29.797   9.690
 1531POPC   PO422692  15.574  29.757   9.711
 1531POPC   GL122693  15.799  29.638   9.273
 1531POPC   GL222694  16.160  29.650   9.115
 1531POPC   C1A22695  15.757  29.732   8.809
 1531POPC   D2A22696  15.793  29.862   8.376
 1531POPC   C3A22697  15.735  29.661   7.980
 1531POPC   C4A22698  15.788  29.935   7.597
 1531POPC   C1B22699  16.188  29.438   8.684
 1531POPC   C2B22700  16.239  29.599   8.243
 1531POPC   C3B22701  16.175  29.981   7.970
 1531POPC   C4B22702  16.060  30.365   7.717
 1532POPC   NC322703  24.880  10.151   9.534
 1532POPC   PO422704  24.666   9.447   9.478
 1532POPC   GL122705  24.572   9.668   9.099
 1532POPC   GL222706  24.640  10.047   9.081
 1532POPC   C1A22707  24.638   9.437   8.720
 1532POPC   D2A22708  24.887   9.523   8.377
 1532POPC   C3A22709  24.754   9.357   8.015
 1532POPC   C4A22710  24.484   9.568   7.800
 1532POPC   C1B22711  24.493   9.955   8.645
 1532POPC   C2B22712  24.560   9.930   8.206
 1532POPC   C3B22713  24.587  10.057   7.789
 1532POPC   C4B22714  24.186  10.124   7.664
 1533POPC   NC322715  13.119   7.223   9.367
 1533POPC   PO422716  12.609   7.635   9.504
 1533POPC   GL122717  12.834   7.581   9.118
 1533POPC   GL222718  12.736   7.230   9.010
 1533POPC   C1A22719  12.770   7.584   8.647
 1533POPC   D2A22720  12.686   7.206   8.371
 1533POPC   C3A22721  12.504   7.350   7.978
 1533POPC   C4A22722  12.638   7.677   7.731
 1533POPC   C1B22723  13.104   7.193   8.709
 1533POPC   C2B22724  13.305   6.927   8.401
 1533POPC   C3B22725  13.238   7.033   7.966
 1533POPC   C4B22726  12.861   7.101   7.696
 1534POPC   NC322727  40.730  13.967   9.386
 1534POPC   PO422728  41.019  14.578   9.470
 1534POPC   GL122729  40.645  14.563   9.171
 1534POPC   GL222730  40.426  14.264   9.090
 1534POPC   C1A22731  40.754  14.544   8.733
 1534POPC   D2A22732  41.119  14.399   8.483
 1534POPC   C3A22733  40.957  14.434   8.078
 1534POPC   C4A22734  40.820  14.541   7.691
 1534POPC   C1B22735  40.246  14.594   8.828
 1534POPC   C2B22736  40.205  14.626   8.373
 1534POPC   C3B22737  40.432  14.392   8.035
 1534POPC   C4B22738  40.421  14.229   7.606
 1535POPC   NC322739   1.273  43.329   9.515
 1535POPC   PO422740   0.803  43.409   9.119
 1535POPC   GL122741   1.176  43.144   9.043
 1535POPC   GL222742   1.542  43.075   9.150
 1535POPC   C1A22743   1.311  42.891   8.728
 1535POPC   D2A22744   1.116  42.784   8.379
 1535POPC   C3A22745   1.219  43.028   8.049
 1535POPC   C4A22746   1.204  42.892   7.646
 1535POPC   C1B22747   1.570  43.363   8.834
 1535POPC   C2B22748   1.530  43.288   8.435
 1535POPC   C3B22749   1.518  43.471   8.073
 1535POPC   C4B22750   1.477  43.301   7.692
 1536POPC   NC322751  20.396  37.361   9.446
 1536POPC   PO422752  20.434  36.648   9.391
 1536POPC   GL122753  20.508  36.747   9.002
 1536POPC   GL222754  20.664  37.034   9.119
 1536POPC   C1A22755  20.567  36.713   8.553
 1536POPC   D2A22756  20.865  36.422   8.411
 1536POPC   C3A22757  20.728  36.419   8.012
 1536POPC   C4A22758  20.554  36.715   7.683
 1536POPC   C1B22759  20.670  37.197   8.707
 1536POPC   C2B22760  20.511  37.165   8.288
 1536POPC   C3B22761  20.680  37.194   7.842
 1536POPC   C4B22762  20.613  37.232   7.350
 1537POPC   NC322763  15.053   4.596   9.364
 1537POPC   PO422764  15.276   5.138   9.675
 1537POPC   GL122765  15.320   5.051   9.207
 1537POPC   GL222766  14.958   5.022   9.125
 1537POPC   C1A22767  15.255   5.126   8.732
 1537POPC   D2A22768  15.083   5.299   8.370
 1537POPC   C3A22769  15.213   5.112   7.992
 1537POPC   C4A22770  15.097   5.055   7.548
 1537POPC   C1B22771  14.905   4.755   8.752
 1537POPC   C2B22772  15.005   4.719   8.331
 1537POPC   C3B22773  14.807   4.822   7.921
 1537POPC   C4B22774  14.781   4.669   7.485
 1538POPC   NC322775   3.434  17.244   9.496
 1538POPC   PO422776   3.834  16.635   9.573
 1538POPC   GL122777   3.612  16.818   9.232
 1538POPC   GL222778   3.717  17.125   9.077
 1538POPC   C1A22779   3.420  16.635   8.894
 1538POPC   D2A22780   3.493  16.715   8.470
 1538POPC   C3A22781   3.485  16.456   8.116
 1538POPC   C4A22782   3.428  16.550   7.686
 1538POPC   C1B22783   3.423  17.186   8.733
 1538POPC   C2B22784   3.276  17.137   8.287
 1538POPC   C3B22785   3.496  17.061   7.886
 1538POPC   C4B22786   3.558  16.967   7.432
 1539POPC   NC322787  43.692  40.494   9.477
 1539POPC   PO422788  44.313  40.641   9.615
 1539POPC   GL122789  44.136  40.641   9.193
 1539POPC   GL222790  44.251  40.988   9.087
 1539POPC   C1A22791  43.833  40.732   8.832
 1539POPC   D2A22792  43.752  40.937   8.394
 1539POPC   C3A22793  43.606  40.701   8.022
 1539POPC   C4A22794  43.747  40.643   7.579
 1539POPC   C1B22795  44.220  41.006   8.643
 1539POPC   C2B22796  44.235  40.657   8.343
 1539POPC   C3B22797  44.122  40.660   7.926
 1539POPC   C4B22798  43.905  41.061   7.816
 1540POPC   NC322799  12.208   4.565   9.424
 1540POPC   PO422800  11.960   3.930   9.538
 1540POPC   GL122801  11.885   4.187   9.142
 1540POPC   GL222802  11.737   4.527   9.158
 1540POPC   C1A22803  12.064   4.366   8.748
 1540POPC   D2A22804  12.285   4.641   8.452
 1540POPC   C3A22805  12.230   4.436   8.055
 1540POPC   C4A22806  11.867   4.199   7.948
 1540POPC   C1B22807  11.732   4.739   8.733
 1540POPC   C2B22808  11.799   4.637   8.263
 1540POPC   C3B22809  11.849   4.693   7.805
 1540POPC   C4B22810  11.755   4.566   7.353
 1541POPC   NC322811   5.526  42.353   9.532
 1541POPC   PO422812   6.243  42.268   9.498
 1541POPC   GL122813   5.926  42.367   9.164
 1541POPC   GL222814   5.644  42.131   9.068
 1541POPC   C1A22815   5.725  42.629   8.810
 1541POPC   D2A22816   5.702  42.834   8.363
 1541POPC   C3A22817   6.045  42.738   8.039
 1541POPC   C4A22818   5.993  42.651   7.596
 1541POPC   C1B22819   5.985  42.091   8.740
 1541POPC   C2B22820   6.078  42.314   8.352
 1541POPC   C3B22821   6.014  42.219   7.911
 1541POPC   C4B22822   5.850  41.844   7.744
 1542POPC   NC322823  32.444   0.455   9.738
 1542POPC   PO422824  31.922   0.178   9.372
 1542POPC   GL122825  32.209   0.539   9.261
 1542POPC   GL222826  31.967   0.754   9.109
 1542POPC   C1A22827  32.443   0.579   8.849
 1542POPC   D2A22828  32.306   0.444   8.387
 1542POPC   C3A22829  32.453   0.671   8.008
 1542POPC   C4A22830  32.252   0.655   7.600
 1542POPC   C1B22831  31.976   0.388   8.787
 1542POPC   C2B22832  31.837   0.196   8.433
 1542POPC   C3B22833  31.741   0.398   8.084
 1542POPC   C4B22834  31.872   0.334   7.706
 1543POPC   NC322835   6.640  40.356   9.466
 1543POPC   PO422836   7.018  40.877   9.466
 1543POPC   GL122837   6.890  40.965   9.054
 1543POPC   GL222838   6.660  40.689   9.083
 1543POPC   C1A22839   6.973  40.905   8.639
 1543POPC   D2A22840   6.726  40.972   8.287
 1543POPC   C3A22841   6.881  40.846   7.908
 1543POPC   C4A22842   6.783  41.046   7.510
 1543POPC   C1B22843   6.483  40.780   8.696
 1543POPC   C2B22844   6.218  40.802   8.316
 1543POPC   C3B22845   6.411  40.644   7.923
 1543POPC   C4B22846   6.645  40.575   7.516
 1544POPC   NC322847  35.500  25.669   9.520
 1544POPC   PO422848  35.448  26.309   9.508
 1544POPC   GL122849  35.397  26.050   9.159
 1544POPC   GL222850  35.719  25.928   9.078
 1544POPC   C1A22851  35.234  26.060   8.752
 1544POPC   D2A22852  35.366  25.912   8.361
 1544POPC   C3A22853  35.266  26.037   7.948
 1544POPC   C4A22854  35.321  26.058   7.476
 1544POPC   C1B22855  35.717  26.130   8.686
 1544POPC   C2B22856  35.817  26.231   8.247
 1544POPC   C3B22857  35.700  26.261   7.802
 1544POPC   C4B22858  35.749  26.351   7.356
 1545POPC   NC322859  29.390  43.855   9.609
 1545POPC   PO422860  28.779  43.947   9.710
 1545POPC   GL122861  28.940  44.088   9.272
 1545POPC   GL222862  29.300  44.003   9.117
 1545POPC   C1A22863  28.895  43.966   8.820
 1545POPC   D2A22864  29.148  43.964   8.447
 1545POPC   C3A22865  29.016  44.010   8.025
 1545POPC   C4A22866  29.137  44.188   7.629
 1545POPC   C1B22867  29.391  43.671   8.809
 1545POPC   C2B22868  29.397  43.509   8.368
 1545POPC   C3B22869  29.405  43.674   7.945
 1545POPC   C4B22870  29.353  43.437   7.541
 1546POPC   NC322871  36.422  32.423   9.517
 1546POPC   PO422872  35.897  31.977   9.500
 1546POPC   GL122873  36.117  32.176   9.190
 1546POPC   GL222874  36.413  31.981   9.205
 1546POPC   C1A22875  36.264  32.428   8.814
 1546POPC   D2A22876  36.087  32.326   8.402
 1546POPC   C3A22877  36.148  32.369   7.960
 1546POPC   C4A22878  36.552  32.436   7.748
 1546POPC   C1B22879  36.292  31.926   8.788
 1546POPC   C2B22880  36.496  31.991   8.427
 1546POPC   C3B22881  36.433  31.961   7.976
 1546POPC   C4B22882  36.078  31.877   7.745
 1547POPC   NC322883   5.424  15.391   9.377
 1547POPC   PO422884   5.453  16.029   9.543
 1547POPC   GL122885   5.139  15.870   9.241
 1547POPC   GL222886   4.816  16.032   9.299
 1547POPC   C1A22887   5.142  15.837   8.774
 1547POPC   D2A22888   5.131  15.955   8.311
 1547POPC   C3A22889   5.487  15.812   8.013
 1547POPC   C4A22890   5.554  15.883   7.537
 1547POPC   C1B22891   4.673  15.787   8.971
 1547POPC   C2B22892   4.667  15.779   8.530
 1547POPC   C3B22893   4.827  15.558   8.162
 1547POPC   C4B22894   4.701  15.668   7.763
 1548POPC   NC322895  42.587  17.152   9.510
 1548POPC   PO422896  42.167  17.706   9.466
 1548POPC   GL122897  42.211  17.376   9.167
 1548POPC   GL222898  42.532  17.492   9.121
 1548POPC   C1A22899  42.347  17.162   8.767
 1548POPC   D2A22900  42.590  17.285   8.370
 1548POPC   C3A22901  42.373  17.300   7.963
 1548POPC   C4A22902  42.034  17.627   7.829
 1548POPC   C1B22903  42.446  17.667   8.712
 1548POPC   C2B22904  42.686  17.815   8.367
 1548POPC   C3B22905  42.488  17.801   7.980
 1548POPC   C4B22906  42.543  17.575   7.575
 1549POPC   NC322907  36.235  12.946   9.604
 1549POPC   PO422908  36.358  12.482   9.196
 1549POPC   GL122909  36.087  12.872   9.101
 1549POPC   GL222910  35.791  12.874   9.294
 1549POPC   C1A22911  35.970  13.132   8.730
 1549POPC   D2A22912  35.887  13.147   8.280
 1549POPC   C3A22913  36.155  12.899   7.995
 1549POPC   C4A22914  36.344  12.888   7.567
 1549POPC   C1B22915  35.615  12.775   8.873
 1549POPC   C2B22916  35.526  12.779   8.432
 1549POPC   C3B22917  35.700  12.638   8.042
 1549POPC   C4B22918  35.882  12.643   7.634
 1550POPC   NC322919  38.770  39.897   9.440
 1550POPC   PO422920  39.329  39.571   9.366
 1550POPC   GL122921  39.169  39.866   9.088
 1550POPC   GL222922  39.444  40.071   9.049
 1550POPC   C1A22923  39.214  39.853   8.637
 1550POPC   D2A22924  39.533  39.634   8.363
 1550POPC   C3A22925  39.510  39.810   7.959
 1550POPC   C4A22926  39.126  39.775   7.691
 1550POPC   C1B22927  39.446  40.319   8.711
 1550POPC   C2B22928  39.176  40.317   8.388
 1550POPC   C3B22929  39.008  40.132   8.070
 1550POPC   C4B22930  39.300  40.237   7.777
 1551POPC   NC322931  14.041  28.371   9.698
 1551POPC   PO422932  13.396  28.236   9.492
 1551POPC   GL122933  13.521  28.468   9.126
 1551POPC   GL222934  13.906  28.472   9.156
 1551POPC   C1A22935  13.609  28.342   8.708
 1551POPC   D2A22936  13.749  28.106   8.364
 1551POPC   C3A22937  13.608  28.295   7.998
 1551POPC   C4A22938  13.467  28.246   7.587
 1551POPC   C1B22939  13.976  28.720   8.786
 1551POPC   C2B22940  13.855  28.675   8.385
 1551POPC   C3B22941  13.695  28.804   8.002
 1551POPC   C4B22942  13.714  28.675   7.614
 1552POPC   NC322943  41.398   1.840   9.469
 1552POPC   PO422944  41.771   2.362   9.447
 1552POPC   GL122945  41.827   1.944   9.169
 1552POPC   GL222946  41.495   1.843   8.974
 1552POPC   C1A22947  41.923   1.690   8.757
 1552POPC   D2A22948  41.746   1.639   8.297
 1552POPC   C3A22949  41.755   1.996   7.959
 1552POPC   C4A22950  41.686   2.467   7.834
 1552POPC   C1B22951  41.130   1.584   8.798
 1552POPC   C2B22952  41.148   1.453   8.347
 1552POPC   C3B22953  41.332   1.685   7.954
 1552POPC   C4B22954  41.347   1.712   7.469
 1553POPC   NC322955  26.502  34.666   9.380
 1553POPC   PO422956  26.948  34.189   9.524
 1553POPC   GL122957  26.789  34.323   9.098
 1553POPC   GL222958  26.586  34.581   8.896
 1553POPC   C1A22959  26.871  34.240   8.651
 1553POPC   D2A22960  27.060  34.562   8.412
 1553POPC   C3A22961  26.837  34.610   8.042
 1553POPC   C4A22962  27.071  34.603   7.715
 1553POPC   C1B22963  26.620  35.047   8.788
 1553POPC   C2B22964  26.572  35.282   8.424
 1553POPC   C3B22965  26.579  35.199   7.990
 1553POPC   C4B22966  26.675  34.934   7.647
 1554POPC   NC322967  24.785  30.947   9.498
 1554POPC   PO422968  25.337  30.745   9.761
 1554POPC   GL122969  25.223  30.751   9.285
 1554POPC   GL222970  24.953  30.868   9.039
 1554POPC   C1A22971  25.328  30.584   8.856
 1554POPC   D2A22972  25.193  30.529   8.424
 1554POPC   C3A22973  25.516  30.539   8.109
 1554POPC   C4A22974  25.467  30.596   7.671
 1554POPC   C1B22975  25.085  31.030   8.642
 1554POPC   C2B22976  25.221  30.997   8.228
 1554POPC   C3B22977  25.053  30.744   7.917
 1554POPC   C4B22978  25.137  31.015   7.580
 1555POPC   NC322979  37.081   1.171   9.829
 1555POPC   PO422980  37.540   1.301   9.469
 1555POPC   GL122981  37.537   1.244   9.048
 1555POPC   GL222982  37.878   1.343   8.971
 1555POPC   C1A22983  37.669   0.931   8.745
 1555POPC   D2A22984  37.825   0.906   8.325
 1555POPC   C3A22985  37.619   1.082   7.956
 1555POPC   C4A22986  37.794   1.366   7.648
 1555POPC   C1B22987  37.825   1.395   8.514
 1555POPC   C2B22988  37.620   1.562   8.141
 1555POPC   C3B22989  37.360   1.565   7.776
 1555POPC   C4B22990  37.381   1.598   7.300
 1556POPC   NC322991  36.567  13.417   9.398
 1556POPC   PO422992  35.931  13.309   9.562
 1556POPC   GL122993  35.926  13.422   9.156
 1556POPC   GL222994  36.173  13.663   9.187
 1556POPC   C1A22995  35.882  13.655   8.759
 1556POPC   D2A22996  35.679  13.615   8.384
 1556POPC   C3A22997  35.874  13.565   7.966
 1556POPC   C4A22998  36.111  13.813   7.647
 1556POPC   C1B22999  36.343  13.484   8.803
 1556POPC   C2B23000  36.207  13.575   8.390
 1556POPC   C3B23001  36.392  13.638   8.048
 1556POPC   C4B23002  36.299  13.349   7.757
 1557POPC   NC323003  32.407   9.466   9.432
 1557POPC   PO423004  31.891   9.935   9.457
 1557POPC   GL123005  32.147   9.798   9.113
 1557POPC   GL223006  32.466   9.986   9.174
 1557POPC   C1A23007  32.167   9.505   8.745
 1557POPC   D2A23008  31.949   9.458   8.341
 1557POPC   C3A23009  32.045   9.775   8.027
 1557POPC   C4A23010  32.268   9.706   7.604
 1557POPC   C1B23011  32.498   9.903   8.734
 1557POPC   C2B23012  32.526   9.830   8.293
 1557POPC   C3B23013  32.447  10.064   7.925
 1557POPC   C4B23014  32.649  10.084   7.516
 1558POPC   NC323015  24.040  29.276   9.417
 1558POPC   PO423016  23.321  29.121   9.461
 1558POPC   GL123017  23.486  29.149   9.068
 1558POPC   GL223018  23.792  28.966   9.087
 1558POPC   C1A23019  23.523  28.980   8.644
 1558POPC   D2A23020  23.813  28.936   8.308
 1558POPC   C3A23021  23.592  28.994   7.935
 1558POPC   C4A23022  23.635  28.829   7.505
 1558POPC   C1B23023  24.003  29.164   8.738
 1558POPC   C2B23024  24.040  29.393   8.366
 1558POPC   C3B23025  24.068  29.297   7.933
 1558POPC   C4B23026  24.032  29.637   7.635
 1559POPC   NC323027  43.362  15.424   9.799
 1559POPC   PO423028  43.993  15.359   9.491
 1559POPC   GL123029  43.907  15.208   9.054
 1559POPC   GL223030  44.102  14.915   8.937
 1559POPC   C1A23031  43.923  15.240   8.596
 1559POPC   D2A23032  43.575  15.221   8.300
 1559POPC   C3A23033  43.715  15.258   7.894
 1559POPC   C4A23034  44.132  15.489   7.828
 1559POPC   C1B23035  44.433  14.744   8.734
 1559POPC   C2B23036  44.392  14.988   8.411
 1559POPC   C3B23037  44.108  15.091   8.147
 1559POPC   C4B23038  43.997  14.824   7.789
 1560POPC   NC323039  20.393  16.859   9.808
 1560POPC   PO423040  20.391  17.497   9.512
 1560POPC   GL123041  20.675  17.508   9.187
 1560POPC   GL223042  20.623  17.196   9.074
 1560POPC   C1A23043  20.693  17.619   8.750
 1560POPC   D2A23044  20.445  17.665   8.364
 1560POPC   C3A23045  20.698  17.674   7.984
 1560POPC   C4A23046  20.506  17.512   7.594
 1560POPC   C1B23047  20.823  17.115   8.681
 1560POPC   C2B23048  20.869  17.318   8.296
 1560POPC   C3B23049  20.726  17.165   7.875
 1560POPC   C4B23050  20.823  17.170   7.404
 1561POPC   NC323051  35.378  20.190   9.476
 1561POPC   PO423052  35.066  20.682   9.304
 1561POPC   GL123053  35.455  20.701   9.080
 1561POPC   GL223054  35.729  20.522   9.269
 1561POPC   C1A23055  35.415  20.605   8.615
 1561POPC   D2A23056  35.260  20.259   8.322
 1561POPC   C3A23057  35.130  20.495   7.976
 1561POPC   C4A23058  35.341  20.863   7.846
 1561POPC   C1B23059  35.789  20.364   8.867
 1561POPC   C2B23060  35.777  20.285   8.434
 1561POPC   C3B23061  35.650  20.463   8.028
 1561POPC   C4B23062  35.462  20.231   7.695
 1562POPC   NC323063   1.903  41.208   9.573
 1562POPC   PO423064   1.794  41.795   9.432
 1562POPC   GL123065   1.998  41.676   9.089
 1562POPC   GL223066   2.067  41.375   9.129
 1562POPC   C1A23067   2.216  41.650   8.728
 1562POPC   D2A23068   2.120  41.633   8.325
 1562POPC   C3A23069   2.069  41.736   7.934
 1562POPC   C4A23070   1.837  41.542   7.597
 1562POPC   C1B23071   2.268  41.097   8.877
 1562POPC   C2B23072   2.336  41.190   8.475
 1562POPC   C3B23073   2.359  41.241   8.058
 1562POPC   C4B23074   2.225  40.986   7.720
 1563POPC   NC323075  30.323  33.503   9.503
 1563POPC   PO423076  30.972  33.779   9.512
 1563POPC   GL123077  30.657  33.768   9.213
 1563POPC   GL223078  30.477  34.078   9.148
 1563POPC   C1A23079  30.632  33.495   8.854
 1563POPC   D2A23080  30.842  33.556   8.473
 1563POPC   C3A23081  30.704  33.547   8.069
 1563POPC   C4A23082  30.931  33.609   7.701
 1563POPC   C1B23083  30.682  34.000   8.749
 1563POPC   C2B23084  30.541  33.966   8.314
 1563POPC   C3B23085  30.761  34.052   7.918
 1563POPC   C4B23086  31.032  34.408   7.790
 1564POPC   NC323087   4.634  43.363   9.482
 1564POPC   PO423088   4.194  42.903   9.806
 1564POPC   GL123089   4.155  43.088   9.360
 1564POPC   GL223090   4.402  42.886   9.184
 1564POPC   C1A23091   4.079  43.185   8.891
 1564POPC   D2A23092   4.382  43.229   8.521
 1564POPC   C3A23093   4.245  43.243   8.066
 1564POPC   C4A23094   4.491  43.277   7.660
 1564POPC   C1B23095   4.345  42.745   8.746
 1564POPC   C2B23096   4.168  42.774   8.320
 1564POPC   C3B23097   4.286  42.767   7.879
 1564POPC   C4B23098   4.026  43.038   7.610
 1565POPC   NC323099   8.159  19.851   9.536
 1565POPC   PO423100   8.609  20.313   9.396
 1565POPC   GL123101   8.273  20.124   9.090
 1565POPC   GL223102   8.229  19.757   9.044
 1565POPC   C1A23103   8.145  20.000   8.622
 1565POPC   D2A23104   8.446  19.832   8.336
 1565POPC   C3A23105   8.460  19.919   7.924
 1565POPC   C4A23106   8.612  19.588   7.725
 1565POPC   C1B23107   7.798  19.717   8.856
 1565POPC   C2B23108   7.693  19.658   8.387
 1565POPC   C3B23109   7.946  19.614   8.002
 1565POPC   C4B23110   8.121  19.706   7.593
 1566POPC   NC323111  28.072  23.324   9.488
 1566POPC   PO423112  28.405  23.764   9.726
 1566POPC   GL123113  28.384  23.574   9.193
 1566POPC   GL223114  28.008  23.482   9.024
 1566POPC   C1A23115  28.427  23.573   8.750
 1566POPC   D2A23116  28.529  23.873   8.452
 1566POPC   C3A23117  28.557  23.715   8.069
 1566POPC   C4A23118  28.445  23.456   7.742
 1566POPC   C1B23119  27.923  23.746   8.676
 1566POPC   C2B23120  28.030  23.914   8.278
 1566POPC   C3B23121  28.103  23.831   7.856
 1566POPC   C4B23122  27.860  23.976   7.489
 1567POPC   NC323123  24.461  27.391   9.497
 1567POPC   PO423124  23.902  27.875   9.524
 1567POPC   GL123125  24.226  27.763   9.209
 1567POPC   GL223126  24.190  27.435   9.082
 1567POPC   C1A23127  24.541  27.714   8.855
 1567POPC   D2A23128  24.719  27.530   8.487
 1567POPC   C3A23129  24.504  27.575   8.098
 1567POPC   C4A23130  24.674  27.571   7.697
 1567POPC   C1B23131  24.297  27.262   8.684
 1567POPC   C2B23132  24.433  27.067   8.293
 1567POPC   C3B23133  24.166  27.198   7.968
 1567POPC   C4B23134  24.151  27.413   7.552
 1568POPC   NC323135  19.270  40.540   9.478
 1568POPC   PO423136  18.708  40.821   9.639
 1568POPC   GL123137  18.835  40.773   9.206
 1568POPC   GL223138  19.021  40.508   9.020
 1568POPC   C1A23139  19.145  40.978   8.932
 1568POPC   D2A23140  19.053  40.779   8.539
 1568POPC   C3A23141  19.093  40.935   8.131
 1568POPC   C4A23142  18.879  40.978   7.741
 1568POPC   C1B23143  19.335  40.369   8.683
 1568POPC   C2B23144  19.267  40.365   8.216
 1568POPC   C3B23145  19.164  40.532   7.785
 1568POPC   C4B23146  19.248  40.533   7.311
 1569POPC   NC323147   1.294  17.735   9.490
 1569POPC   PO423148   1.421  17.194   9.769
 1569POPC   GL123149   1.239  17.292   9.260
 1569POPC   GL223150   1.442  17.607   9.043
 1569POPC   C1A23151   1.225  17.250   8.776
 1569POPC   D2A23152   1.366  17.620   8.518
 1569POPC   C3A23153   1.307  17.640   8.109
 1569POPC   C4A23154   1.271  17.328   7.787
 1569POPC   C1B23155   1.178  17.940   8.837
 1569POPC   C2B23156   0.987  18.001   8.413
 1569POPC   C3B23157   1.081  18.126   7.997
 1569POPC   C4B23158   1.172  17.870   7.670
 1570POPC   NC323159  14.693  22.008   9.463
 1570POPC   PO423160  14.187  22.354   9.672
 1570POPC   GL123161  14.272  22.250   9.233
 1570POPC   GL223162  14.019  22.010   9.176
 1570POPC   C1A23163  14.321  22.235   8.776
 1570POPC   D2A23164  14.372  22.355   8.339
 1570POPC   C3A23165  14.507  22.073   8.043
 1570POPC   C4A23166  14.726  22.089   7.649
 1570POPC   C1B23167  13.929  21.859   8.772
 1570POPC   C2B23168  14.104  21.909   8.365
 1570POPC   C3B23169  14.005  21.971   7.938
 1570POPC   C4B23170  14.247  21.976   7.575
 1571POPC   NC323171  38.664  38.357   9.238
 1571POPC   PO423172  38.161  38.544   9.594
 1571POPC   GL123173  38.262  38.625   9.098
 1571POPC   GL223174  38.606  38.788   8.998
 1571POPC   C1A23175  38.358  38.463   8.673
 1571POPC   D2A23176  38.492  38.234   8.309
 1571POPC   C3A23177  38.371  38.399   7.922
 1571POPC   C4A23178  38.450  38.178   7.568
 1571POPC   C1B23179  38.989  38.660   8.749
 1571POPC   C2B23180  39.079  38.698   8.320
 1571POPC   C3B23181  38.856  38.536   7.987
 1571POPC   C4B23182  38.766  38.633   7.559
 1572POPC   NC323183  21.998  13.865   9.475
 1572POPC   PO423184  22.322  13.299   9.781
 1572POPC   GL123185  22.424  13.502   9.328
 1572POPC   GL223186  22.469  13.889   9.226
 1572POPC   C1A23187  22.214  13.482   8.897
 1572POPC   D2A23188  22.045  13.647   8.483
 1572POPC   C3A23189  22.187  13.552   8.072
 1572POPC   C4A23190  22.007  13.369   7.715
 1572POPC   C1B23191  22.335  13.978   8.754
 1572POPC   C2B23192  22.460  13.948   8.281
 1572POPC   C3B23193  22.330  13.994   7.804
 1572POPC   C4B23194  22.446  14.046   7.336
 1573POPC   NC323195  19.292  28.544   9.320
 1573POPC   PO423196  18.663  28.400   9.580
 1573POPC   GL123197  18.895  28.247   9.186
 1573POPC   GL223198  18.677  28.537   9.094
 1573POPC   C1A23199  19.115  28.090   8.747
 1573POPC   D2A23200  19.251  28.108   8.281
 1573POPC   C3A23201  19.252  28.473   7.968
 1573POPC   C4A23202  18.882  28.634   7.771
 1573POPC   C1B23203  18.903  28.527   8.748
 1573POPC   C2B23204  18.938  28.515   8.365
 1573POPC   C3B23205  18.771  28.228   8.106
 1573POPC   C4B23206  18.968  28.018   7.815
 1574POPC   NC323207  34.725  20.365   9.322
 1574POPC   PO423208  34.289  20.776   9.601
 1574POPC   GL123209  34.382  20.842   9.189
 1574POPC   GL223210  34.283  20.525   9.104
 1574POPC   C1A23211  34.618  21.021   8.833
 1574POPC   D2A23212  34.922  20.867   8.513
 1574POPC   C3A23213  34.720  20.783   8.117
 1574POPC   C4A23214  34.485  20.635   7.769
 1574POPC   C1B23215  34.482  20.556   8.705
 1574POPC   C2B23216  34.280  20.467   8.338
 1574POPC   C3B23217  34.326  20.235   7.987
 1574POPC   C4B23218  34.740  20.214   7.833
 1575POPC   NC323219   8.059   3.764   9.481
 1575POPC   PO423220   8.399   3.182   9.455
 1575POPC   GL123221   8.266   3.450   9.142
 1575POPC   GL223222   7.892   3.390   9.128
 1575POPC   C1A23223   8.175   3.649   8.768
 1575POPC   D2A23224   8.079   3.483   8.394
 1575POPC   C3A23225   8.302   3.578   8.019
 1575POPC   C4A23226   8.364   3.449   7.597
 1575POPC   C1B23227   7.673   3.676   8.803
 1575POPC   C2B23228   7.737   3.877   8.423
 1575POPC   C3B23229   7.766   3.654   8.035
 1575POPC   C4B23230   7.879   3.379   7.678
 1576POPC   NC323231  42.356   3.763   9.544
 1576POPC   PO423232  41.902   3.332   9.515
 1576POPC   GL123233  42.120   3.522   9.132
 1576POPC   GL223234  42.476   3.604   9.088
 1576POPC   C1A23235  42.187   3.572   8.663
 1576POPC   D2A23236  42.385   3.390   8.314
 1576POPC   C3A23237  42.228   3.318   7.877
 1576POPC   C4A23238  42.436   3.484   7.505
 1576POPC   C1B23239  42.699   3.598   8.725
 1576POPC   C2B23240  42.607   3.837   8.351
 1576POPC   C3B23241  42.438   3.775   7.969
 1576POPC   C4B23242  42.374   3.969   7.606
 1577POPC   NC323243   0.731  37.944   9.464
 1577POPC   PO423244   0.070  37.644   9.496
 1577POPC   GL123245   0.220  37.461   9.112
 1577POPC   GL223246   0.545  37.614   9.116
 1577POPC   C1A23247   0.299  37.521   8.684
 1577POPC   D2A23248   0.441  37.827   8.428
 1577POPC   C3A23249   0.470  37.755   8.011
 1577POPC   C4A23250   0.129  37.906   7.795
 1577POPC   C1B23251   0.803  37.838   8.794
 1577POPC   C2B23252   0.955  37.838   8.354
 1577POPC   C3B23253   0.993  37.862   7.917
 1577POPC   C4B23254   0.825  37.525   7.682
 1578POPC   NC323255   3.326  10.447   9.630
 1578POPC   PO423256   2.760  10.804   9.502
 1578POPC   GL123257   2.918  10.782   9.074
 1578POPC   GL223258   3.279  10.852   9.036
 1578POPC   C1A23259   2.713  10.674   8.686
 1578POPC   D2A23260   2.350  10.752   8.430
 1578POPC   C3A23261   2.335  10.449   8.080
 1578POPC   C4A23262   2.474  10.318   7.638
 1578POPC   C1B23263   3.186  10.863   8.567
 1578POPC   C2B23264   2.900  10.749   8.195
 1578POPC   C3B23265   2.962  10.474   7.819
 1578POPC   C4B23266   3.301  10.467   7.461
 1579POPC   NC323267  25.718  33.993   9.438
 1579POPC   PO423268  26.282  34.317   9.592
 1579POPC   GL123269  26.310  34.170   9.096
 1579POPC   GL223270  26.122  33.846   9.099
 1579POPC   C1A23271  26.088  34.063   8.647
 1579POPC   D2A23272  25.900  33.744   8.343
 1579POPC   C3A23273  25.975  33.854   7.909
 1579POPC   C4A23274  26.098  33.731   7.458
 1579POPC   C1B23275  26.163  33.535   8.724
 1579POPC   C2B23276  26.258  33.356   8.271
 1579POPC   C3B23277  26.364  33.538   7.878
 1579POPC   C4B23278  26.446  33.986   7.772
 1580POPC   NC323279   2.910  44.799   9.554
 1580POPC   PO423280   2.334  44.519   9.621
 1580POPC   GL123281   2.520  44.687   9.153
 1580POPC   GL223282   2.841  44.549   9.123
 1580POPC   C1A23283   2.766  44.805   8.728
 1580POPC   D2A23284   3.018  44.791   8.383
 1580POPC   C3A23285   2.842  44.863   8.011
 1580POPC   C4A23286   2.749  44.629   7.669
 1580POPC   C1B23287   3.175  44.454   8.829
 1580POPC   C2B23288   3.185  44.297   8.456
 1580POPC   C3B23289   2.994  44.388   8.064
 1580POPC   C4B23290   3.149  44.340   7.669
 1581POPC   NC323291   2.620  40.623   9.386
 1581POPC   PO423292   3.096  41.085   9.236
 1581POPC   GL123293   2.767  40.931   8.996
 1581POPC   GL223294   2.858  40.569   8.931
 1581POPC   C1A23295   2.768  40.930   8.561
 1581POPC   D2A23296   2.550  40.772   8.231
 1581POPC   C3A23297   2.725  40.793   7.843
 1581POPC   C4A23298   2.850  41.091   7.552
 1581POPC   C1B23299   2.436  40.556   8.704
 1581POPC   C2B23300   2.265  40.356   8.313
 1581POPC   C3B23301   2.291  40.492   7.888
 1581POPC   C4B23302   2.440  40.610   7.444
 1582POPC   NC323303   5.623  22.216   9.455
 1582POPC   PO423304   5.053  21.984   9.381
 1582POPC   GL123305   5.055  22.318   9.132
 1582POPC   GL223306   5.357  22.417   9.041
 1582POPC   C1A23307   4.979  22.209   8.719
 1582POPC   D2A23308   4.992  21.871   8.438
 1582POPC   C3A23309   4.893  22.076   8.063
 1582POPC   C4A23310   4.927  22.168   7.646
 1582POPC   C1B23311   5.497  22.140   8.724
 1582POPC   C2B23312   5.357  22.231   8.314
 1582POPC   C3B23313   5.362  22.238   7.876
 1582POPC   C4B23314   5.403  22.056   7.444
 1583POPC   NC323315  27.361  10.102   9.612
 1583POPC   PO423316  27.661  10.768   9.516
 1583POPC   GL123317  27.464  10.572   9.193
 1583POPC   GL223318  27.565  10.213   9.141
 1583POPC   C1A23319  27.411  10.739   8.786
 1583POPC   D2A23320  27.602  10.864   8.411
 1583POPC   C3A23321  27.394  10.722   8.076
 1583POPC   C4A23322  27.207  10.565   7.727
 1583POPC   C1B23323  27.811  10.426   8.804
 1583POPC   C2B23324  28.075  10.270   8.470
 1583POPC   C3B23325  28.006  10.204   8.063
 1583POPC   C4B23326  27.645  10.328   7.858
 1584POPC   NC323327  38.970  40.877   9.443
 1584POPC   PO423328  39.169  40.220   9.475
 1584POPC   GL123329  39.234  40.553   9.120
 1584POPC   GL223330  39.559  40.755   8.943
 1584POPC   C1A23331  39.110  40.707   8.709
 1584POPC   D2A23332  39.457  40.756   8.371
 1584POPC   C3A23333  39.279  40.735   7.934
 1584POPC   C4A23334  38.885  40.535   7.759
 1584POPC   C1B23335  39.360  41.150   8.714
 1584POPC   C2B23336  39.250  41.221   8.287
 1584POPC   C3B23337  39.387  41.239   7.860
 1584POPC   C4B23338  39.281  41.093   7.449
 1585POPC   NC323339  21.423  34.641   9.400
 1585POPC   PO423340  21.013  35.151   9.556
 1585POPC   GL123341  21.058  34.907   9.147
 1585POPC   GL223342  20.933  34.544   9.110
 1585POPC   C1A23343  21.253  34.706   8.774
 1585POPC   D2A23344  21.151  34.570   8.391
 1585POPC   C3A23345  21.123  34.824   8.037
 1585POPC   C4A23346  21.310  34.692   7.694
 1585POPC   C1B23347  21.076  34.211   8.777
 1585POPC   C2B23348  21.363  34.116   8.401
 1585POPC   C3B23349  21.428  34.250   7.972
 1585POPC   C4B23350  21.141  34.065   7.644
 1586POPC   NC323351   2.693  36.693   9.575
 1586POPC   PO423352   3.297  37.052   9.630
 1586POPC   GL123353   3.031  36.901   9.239
 1586POPC   GL223354   2.704  36.909   9.120
 1586POPC   C1A23355   3.027  36.792   8.751
 1586POPC   D2A23356   2.764  36.716   8.337
 1586POPC   C3A23357   2.896  36.884   7.924
 1586POPC   C4A23358   3.247  36.762   7.701
 1586POPC   C1B23359   2.468  36.875   8.760
 1586POPC   C2B23360   2.413  37.107   8.390
 1586POPC   C3B23361   2.401  36.874   8.014
 1586POPC   C4B23362   2.432  37.004   7.637
 1587POPC   NC323363  20.196  15.156   9.514
 1587POPC   PO423364  20.876  15.253   9.535
 1587POPC   GL123365  20.868  15.338   9.125
 1587POPC   GL223366  20.519  15.229   9.122
 1587POPC   C1A23367  20.847  15.172   8.715
 1587POPC   D2A23368  20.768  14.787   8.480
 1587POPC   C3A23369  20.843  14.954   8.051
 1587POPC   C4A23370  20.765  15.189   7.653
 1587POPC   C1B23371  20.306  15.229   8.740
 1587POPC   C2B23372  20.468  15.164   8.347
 1587POPC   C3B23373  20.366  15.210   7.958
 1587POPC   C4B23374  20.222  15.506   7.703
 1588POPC   NC323375   5.409  44.971   9.829
 1588POPC   PO423376   5.138  44.512   9.420
 1588POPC   GL123377   5.054  44.597   9.011
 1588POPC   GL223378   4.944  44.934   8.969
 1588POPC   C1A23379   4.906  44.531   8.628
 1588POPC   D2A23380   5.035  44.689   8.293
 1588POPC   C3A23381   4.813  44.619   7.968
 1588POPC   C4A23382   5.044  44.665   7.613
 1588POPC   C1B23383   5.310  44.942   8.672
 1588POPC   C2B23384   5.446  44.982   8.268
 1588POPC   C3B23385   5.183   0.048   7.930
 1588POPC   C4B23386   5.420   0.012   7.578
 1589POPC   NC323387   8.569  40.408   9.451
 1589POPC   PO423388   8.736  41.034   9.518
 1589POPC   GL123389   8.886  40.790   9.170
 1589POPC   GL223390   9.274  40.747   9.170
 1589POPC   C1A23391   8.634  40.740   8.784
 1589POPC   D2A23392   8.522  40.504   8.413
 1589POPC   C3A23393   8.546  40.730   8.024
 1589POPC   C4A23394   8.865  40.781   7.753
 1589POPC   C1B23395   9.135  40.653   8.732
 1589POPC   C2B23396   9.027  40.629   8.270
 1589POPC   C3B23397   9.325  40.717   7.943
 1589POPC   C4B23398   9.353  41.054   7.628
 1590POPC   NC323399  42.939   1.562   9.416
 1590POPC   PO423400  43.272   2.218   9.503
 1590POPC   GL123401  43.223   2.065   9.100
 1590POPC   GL223402  42.916   1.875   9.007
 1590POPC   C1A23403  43.314   2.047   8.674
 1590POPC   D2A23404  43.212   1.853   8.288
 1590POPC   C3A23405  43.193   2.081   7.924
 1590POPC   C4A23406  43.279   1.969   7.550
 1590POPC   C1B23407  42.890   1.624   8.615
 1590POPC   C2B23408  42.742   1.598   8.164
 1590POPC   C3B23409  42.849   1.721   7.720
 1590POPC   C4B23410  42.625   1.586   7.302
 1591POPC   NC323411  31.161   4.601   9.413
 1591POPC   PO423412  31.835   4.444   9.420
 1591POPC   GL123413  31.620   4.211   9.084
 1591POPC   GL223414  31.253   4.138   9.153
 1591POPC   C1A23415  31.562   4.357   8.661
 1591POPC   D2A23416  31.777   4.391   8.249
 1591POPC   C3A23417  31.552   4.336   7.851
 1591POPC   C4A23418  31.613   4.558   7.426
 1591POPC   C1B23419  31.103   4.149   8.721
 1591POPC   C2B23420  31.233   4.251   8.286
 1591POPC   C3B23421  31.039   4.441   7.942
 1591POPC   C4B23422  31.136   4.338   7.522
 1592POPC   NC323423  42.077   8.325   9.505
 1592POPC   PO423424  42.761   8.232   9.617
 1592POPC   GL123425  42.518   8.331   9.192
 1592POPC   GL223426  42.219   8.516   9.061
 1592POPC   C1A23427  42.424   8.169   8.761
 1592POPC   D2A23428  42.661   8.107   8.414
 1592POPC   C3A23429  42.579   8.188   8.005
 1592POPC   C4A23430  42.315   8.060   7.730
 1592POPC   C1B23431  42.031   8.704   8.690
 1592POPC   C2B23432  41.831   8.679   8.280
 1592POPC   C3B23433  41.996   8.471   7.895
 1592POPC   C4B23434  41.992   8.382   7.454
 1593POPC   NC323435  12.796  26.935   9.641
 1593POPC   PO423436  13.249  26.431   9.501
 1593POPC   GL123437  13.031  26.739   9.229
 1593POPC   GL223438  12.672  26.631   9.173
 1593POPC   C1A23439  12.939  26.915   8.810
 1593POPC   D2A23440  12.680  26.622   8.535
 1593POPC   C3A23441  12.822  26.652   8.135
 1593POPC   C4A23442  13.045  26.962   7.922
 1593POPC   C1B23443  12.449  26.909   8.886
 1593POPC   C2B23444  12.534  27.119   8.481
 1593POPC   C3B23445  12.536  27.095   8.018
 1593POPC   C4B23446  12.566  26.750   7.698
 1594POPC   NC323447  30.620  11.675   9.461
 1594POPC   PO423448  30.876  11.071   9.581
 1594POPC   GL123449  30.863  11.101   9.136
 1594POPC   GL223450  30.954  11.428   9.137
 1594POPC   C1A23451  30.699  11.284   8.712
 1594POPC   D2A23452  30.405  11.306   8.370
 1594POPC   C3A23453  30.643  11.166   8.054
 1594POPC   C4A23454  30.736  11.243   7.625
 1594POPC   C1B23455  31.176  11.475   8.758
 1594POPC   C2B23456  31.296  11.360   8.353
 1594POPC   C3B23457  31.087  11.404   7.985
 1594POPC   C4B23458  31.161  11.510   7.559
 1595POPC   NC323459  32.603  21.687   9.555
 1595POPC   PO423460  32.399  22.388   9.450
 1595POPC   GL123461  32.179  22.410   9.085
 1595POPC   GL223462  32.154  22.048   9.062
 1595POPC   C1A23463  32.051  22.357   8.657
 1595POPC   D2A23464  32.179  21.972   8.418
 1595POPC   C3A23465  32.113  22.032   7.973
 1595POPC   C4A23466  32.299  22.294   7.647
 1595POPC   C1B23467  32.447  21.785   8.828
 1595POPC   C2B23468  32.676  21.771   8.439
 1595POPC   C3B23469  32.801  21.750   8.014
 1595POPC   C4B23470  32.494  21.830   7.713
 1596POPC   NC323471  43.271   5.119   9.512
 1596POPC   PO423472  42.658   5.355   9.692
 1596POPC   GL123473  42.864   5.311   9.227
 1596POPC   GL223474  43.204   5.487   9.186
 1596POPC   C1A23475  43.116   5.065   8.844
 1596POPC   D2A23476  43.347   4.913   8.411
 1596POPC   C3A23477  43.130   4.971   8.016
 1596POPC   C4A23478  42.862   5.290   7.825
 1596POPC   C1B23479  43.333   5.532   8.783
 1596POPC   C2B23480  43.128   5.392   8.412
 1596POPC   C3B23481  43.280   5.461   8.034
 1596POPC   C4B23482  43.324   5.237   7.627
 1597POPC   NC323483   9.698  14.427   9.670
 1597POPC   PO423484   9.157  14.161   9.386
 1597POPC   GL123485   9.549  14.350   9.169
 1597POPC   GL223486   9.906  14.239   9.214
 1597POPC   C1A23487   9.670  14.407   8.714
 1597POPC   D2A23488   9.827  14.225   8.306
 1597POPC   C3A23489   9.822  14.455   7.900
 1597POPC   C4A23490   9.982  14.466   7.475
 1597POPC   C1B23491   9.959  13.989   8.818
 1597POPC   C2B23492   9.816  13.735   8.459
 1597POPC   C3B23493   9.922  13.764   8.013
 1597POPC   C4B23494   9.764  14.004   7.644
 1598POPC   NC323495  26.311   6.944   9.427
 1598POPC   PO423496  26.842   6.525   9.701
 1598POPC   GL123497  26.842   6.602   9.244
 1598POPC   GL223498  26.514   6.515   9.213
 1598POPC   C1A23499  27.054   6.771   8.842
 1598POPC   D2A23500  26.904   6.927   8.438
 1598POPC   C3A23501  27.097   6.964   8.053
 1598POPC   C4A23502  27.123   6.665   7.732
 1598POPC   C1B23503  26.492   6.736   8.810
 1598POPC   C2B23504  26.547   6.564   8.412
 1598POPC   C3B23505  26.597   6.686   8.017
 1598POPC   C4B23506  26.653   6.514   7.626
 1599POPC   NC323507  31.228  35.112   9.350
 1599POPC   PO423508  31.620  35.389   9.804
 1599POPC   GL123509  31.596  35.398   9.226
 1599POPC   GL223510  31.310  35.455   8.995
 1599POPC   C1A23511  31.719  35.223   8.834
 1599POPC   D2A23512  31.524  35.212   8.455
 1599POPC   C3A23513  31.684  35.198   8.082
 1599POPC   C4A23514  31.671  35.434   7.732
 1599POPC   C1B23515  31.084  35.262   8.678
 1599POPC   C2B23516  30.983  35.280   8.240
 1599POPC   C3B23517  31.206  35.245   7.862
 1599POPC   C4B23518  31.256  35.359   7.426
 1600POPC   NC323519  32.007  23.656   9.420
 1600POPC   PO423520  32.478  24.083   9.174
 1600POPC   GL123521  32.337  23.662   9.001
 1600POPC   GL223522  32.059  23.366   9.032
 1600POPC   C1A23523  32.344  23.677   8.564
 1600POPC   D2A23524  32.649  23.829   8.289
 1600POPC   C3A23525  32.450  24.089   8.042
 1600POPC   C4A23526  32.159  23.871   7.792
 1600POPC   C1B23527  31.854  23.544   8.700
 1600POPC   C2B23528  31.951  23.485   8.268
 1600POPC   C3B23529  31.868  23.428   7.832
 1600POPC   C4B23530  31.870  23.674   7.422
 1601POPC   NC323531  17.560   0.958   9.625
 1601POPC   PO423532  16.954   0.753   9.600
 1601POPC   GL123533  17.287   1.005   9.221
 1601POPC   GL223534  17.681   0.919   9.148
 1601POPC   C1A23535  17.502   1.236   8.827
 1601POPC   D2A23536  17.656   1.328   8.402
 1601POPC   C3A23537  17.421   1.160   8.062
 1601POPC   C4A23538  17.198   1.202   7.677
 1601POPC   C1B23539  17.741   0.746   8.724
 1601POPC   C2B23540  17.767   0.792   8.266
 1601POPC   C3B23541  17.640   0.786   7.809
 1601POPC   C4B23542  17.606   1.016   7.398
 1602POPC   NC323543  27.139  27.511   9.451
 1602POPC   PO423544  27.767  27.766   9.455
 1602POPC   GL123545  27.609  27.447   9.202
 1602POPC   GL223546  27.376  27.683   9.032
 1602POPC   C1A23547  27.824  27.310   8.834
 1602POPC   D2A23548  27.979  27.631   8.536
 1602POPC   C3A23549  27.885  27.586   8.088
 1602POPC   C4A23550  27.750  27.910   7.790
 1602POPC   C1B23551  27.317  27.305   8.797
 1602POPC   C2B23552  27.524  27.385   8.426
 1602POPC   C3B23553  27.383  27.588   8.063
 1602POPC   C4B23554  27.282  27.295   7.768
 1603POPC   NC323555  10.369  13.794   9.636
 1603POPC   PO423556  10.983  13.795   9.523
 1603POPC   GL123557  10.791  13.678   9.115
 1603POPC   GL223558  10.592  13.389   9.062
 1603POPC   C1A23559  10.494  13.808   8.771
 1603POPC   D2A23560  10.297  14.025   8.416
 1603POPC   C3A23561  10.437  13.857   8.000
 1603POPC   C4A23562  10.255  13.804   7.577
 1603POPC   C1B23563  10.259  13.348   8.755
 1603POPC   C2B23564  10.255  13.522   8.359
 1603POPC   C3B23565  10.273  13.370   7.958
 1603POPC   C4B23566  10.574  13.410   7.682
 1604POPC   NC323567   5.764   7.874   9.490
 1604POPC   PO423568   6.147   8.422   9.451
 1604POPC   GL123569   6.077   8.159   9.172
 1604POPC   GL223570   5.766   8.351   9.025
 1604POPC   C1A23571   6.072   8.020   8.810
 1604POPC   D2A23572   5.756   8.143   8.529
 1604POPC   C3A23573   5.775   8.197   8.093
 1604POPC   C4A23574   6.110   8.280   7.837
 1604POPC   C1B23575   5.534   8.581   8.654
 1604POPC   C2B23576   5.468   8.606   8.178
 1604POPC   C3B23577   5.688   8.615   7.779
 1604POPC   C4B23578   5.647   8.414   7.389
 1605POPC   NC323579   0.278  19.251   9.508
 1605POPC   PO423580   0.808  19.029   9.714
 1605POPC   GL123581   0.715  19.056   9.239
 1605POPC   GL223582   0.372  18.987   9.088
 1605POPC   C1A23583   0.707  19.113   8.765
 1605POPC   D2A23584   0.439  18.817   8.516
 1605POPC   C3A23585   0.380  18.919   8.062
 1605POPC   C4A23586   0.093  18.907   7.711
 1605POPC   C1B23587   0.195  19.211   8.754
 1605POPC   C2B23588   0.371  19.333   8.385
 1605POPC   C3B23589   0.223  19.446   7.976
 1605POPC   C4B23590   0.388  19.308   7.573
 1606POPC   NC323591  36.203  31.610   9.496
 1606POPC   PO423592  35.930  31.038   9.215
 1606POPC   GL123593  35.987  31.446   9.062
 1606POPC   GL223594  36.342  31.471   9.033
 1606POPC   C1A23595  35.991  31.559   8.642
 1606POPC   D2A23596  36.039  31.810   8.299
 1606POPC   C3A23597  35.995  31.482   8.048
 1606POPC   C4A23598  35.880  31.353   7.680
 1606POPC   C1B23599  36.539  31.496   8.651
 1606POPC   C2B23600  36.471  31.526   8.216
 1606POPC   C3B23601  36.431  31.480   7.783
 1606POPC   C4B23602  36.346  31.155   7.545
 1607POPC   NC323603   5.184  18.162   9.479
 1607POPC   PO423604   4.752  18.691   9.592
 1607POPC   GL123605   4.925  18.558   9.184
 1607POPC   GL223606   5.259  18.557   9.099
 1607POPC   C1A23607   4.926  18.258   8.807
 1607POPC   D2A23608   4.821  18.346   8.364
 1607POPC   C3A23609   4.996  18.197   7.976
 1607POPC   C4A23610   4.818  18.051   7.572
 1607POPC   C1B23611   5.291  18.564   8.607
 1607POPC   C2B23612   5.471  18.597   8.180
 1607POPC   C3B23613   5.314  18.525   7.756
 1607POPC   C4B23614   5.472  18.562   7.339
 1608POPC   NC323615  20.747  26.111   9.588
 1608POPC   PO423616  20.190  25.816   9.466
 1608POPC   GL123617  20.369  26.201   9.249
 1608POPC   GL223618  20.323  26.547   9.112
 1608POPC   C1A23619  20.713  26.248   8.960
 1608POPC   D2A23620  20.707  26.079   8.562
 1608POPC   C3A23621  20.860  26.306   8.232
 1608POPC   C4A23622  20.876  26.182   7.788
 1608POPC   C1B23623  20.256  26.344   8.728
 1608POPC   C2B23624  20.099  26.477   8.328
 1608POPC   C3B23625  20.312  26.397   7.932
 1608POPC   C4B23626  20.407  25.989   7.757
 1609POPC   NC323627  11.417   5.919   9.523
 1609POPC   PO423628  11.051   6.457   9.762
 1609POPC   GL123629  11.163   6.226   9.263
 1609POPC   GL223630  10.991   6.258   8.943
 1609POPC   C1A23631  11.427   5.987   8.898
 1609POPC   D2A23632  11.617   5.945   8.486
 1609POPC   C3A23633  11.381   5.901   8.097
 1609POPC   C4A23634  11.314   5.867   7.658
 1609POPC   C1B23635  11.042   6.504   8.595
 1609POPC   C2B23636  11.246   6.394   8.254
 1609POPC   C3B23637  11.051   6.264   7.899
 1609POPC   C4B23638  10.764   6.005   7.734
 1610POPC   NC323639  16.861  18.111   9.670
 1610POPC   PO423640  17.398  18.222   9.362
 1610POPC   GL123641  17.624  18.305   9.007
 1610POPC   GL223642  17.947  18.219   8.969
 1610POPC   C1A23643  17.613  18.218   8.582
 1610POPC   D2A23644  17.622  18.543   8.353
 1610POPC   C3A23645  17.736  18.466   8.016
 1610POPC   C4A23646  17.423  18.479   7.782
 1610POPC   C1B23647  17.960  17.847   8.698
 1610POPC   C2B23648  17.775  17.745   8.339
 1610POPC   C3B23649  17.948  17.938   7.975
 1610POPC   C4B23650  17.817  18.156   7.639
 1611POPC   NC323651  31.833  32.858   9.388
 1611POPC   PO423652  31.137  32.694   9.432
 1611POPC   GL123653  31.411  32.763   9.115
 1611POPC   GL223654  31.444  33.118   9.103
 1611POPC   C1A23655  31.653  32.786   8.737
 1611POPC   D2A23656  31.516  33.043   8.410
 1611POPC   C3A23657  31.382  32.867   7.995
 1611POPC   C4A23658  31.618  32.849   7.603
 1611POPC   C1B23659  31.220  33.390   8.793
 1611POPC   C2B23660  31.343  33.518   8.385
 1611POPC   C3B23661  31.243  33.356   8.004
 1611POPC   C4B23662  31.211  33.187   7.573
 1612POPC   NC323663  13.145  40.928   9.416
 1612POPC   PO423664  13.867  40.898   9.454
 1612POPC   GL123665  13.576  40.896   9.082
 1612POPC   GL223666  13.392  40.613   8.945
 1612POPC   C1A23667  13.671  40.933   8.629
 1612POPC   D2A23668  13.964  40.648   8.423
 1612POPC   C3A23669  13.772  40.492   8.054
 1612POPC   C4A23670  13.770  40.827   7.759
 1612POPC   C1B23671  13.181  41.042   8.793
 1612POPC   C2B23672  13.122  41.124   8.384
 1612POPC   C3B23673  13.383  40.963   8.062
 1612POPC   C4B23674  13.314  40.594   7.782
 1613POPC   NC323675   1.272  26.638   9.342
 1613POPC   PO423676   1.349  27.255   9.477
 1613POPC   GL123677   1.056  27.247   9.100
 1613POPC   GL223678   1.000  26.866   8.989
 1613POPC   C1A23679   0.859  27.217   8.660
 1613POPC   D2A23680   0.993  26.858   8.453
 1613POPC   C3A23681   0.937  26.788   8.058
 1613POPC   C4A23682   1.293  26.849   7.826
 1613POPC   C1B23683   0.953  26.456   8.733
 1613POPC   C2B23684   1.060  26.306   8.275
 1613POPC   C3B23685   1.074  26.368   7.796
 1613POPC   C4B23686   1.002  26.592   7.394
 1614POPC   NC323687  29.798   7.839   9.869
 1614POPC   PO423688  29.633   7.499   9.322
 1614POPC   GL123689  29.834   7.542   8.972
 1614POPC   GL223690  30.167   7.434   9.010
 1614POPC   C1A23691  29.892   7.515   8.570
 1614POPC   D2A23692  30.067   7.455   8.237
 1614POPC   C3A23693  29.776   7.418   7.977
 1614POPC   C4A23694  29.858   7.515   7.582
 1614POPC   C1B23695  30.194   7.100   8.660
 1614POPC   C2B23696  30.340   7.015   8.221
 1614POPC   C3B23697  30.241   7.246   7.805
 1614POPC   C4B23698  30.273   7.420   7.310
 1615POPC   NC323699  28.343   9.914   9.634
 1615POPC   PO423700  28.823   9.531   9.417
 1615POPC   GL123701  28.593   9.841   9.170
 1615POPC   GL223702  28.314   9.615   9.188
 1615POPC   C1A23703  28.341   9.949   8.796
 1615POPC   D2A23704  28.166   9.756   8.412
 1615POPC   C3A23705  28.333   9.813   8.002
 1615POPC   C4A23706  28.404  10.077   7.631
 1615POPC   C1B23707  28.583   9.487   8.794
 1615POPC   C2B23708  28.494   9.329   8.384
 1615POPC   C3B23709  28.609   9.383   7.959
 1615POPC   C4B23710  28.763   9.744   7.717
 1616POPC   NC323711  17.913  43.474   9.507
 1616POPC   PO423712  17.898  44.208   9.279
 1616POPC   GL123713  18.193  43.852   9.141
 1616POPC   GL223714  18.560  43.996   8.989
 1616POPC   C1A23715  18.351  43.578   8.816
 1616POPC   D2A23716  18.546  43.817   8.489
 1616POPC   C3A23717  18.383  43.801   8.089
 1616POPC   C4A23718  18.634  43.843   7.741
 1616POPC   C1B23719  18.370  44.295   8.722
 1616POPC   C2B23720  18.161  44.317   8.359
 1616POPC   C3B23721  18.396  44.311   8.009
 1616POPC   C4B23722  18.387  44.262   7.621
 1617POPC   NC323723  25.032  14.557   9.403
 1617POPC   PO423724  25.594  14.252   9.485
 1617POPC   GL123725  25.314  14.290   9.070
 1617POPC   GL223726  24.994  14.483   8.904
 1617POPC   C1A23727  25.387  14.299   8.631
 1617POPC   D2A23728  25.163  14.437   8.287
 1617POPC   C3A23729  25.332  14.330   7.902
 1617POPC   C4A23730  25.341  14.482   7.489
 1617POPC   C1B23731  24.929  14.109   8.658
 1617POPC   C2B23732  25.044  13.951   8.319
 1617POPC   C3B23733  24.866  14.122   7.953
 1617POPC   C4B23734  24.985  14.112   7.541
 1618POPC   NC323735   6.798  16.531   9.398
 1618POPC   PO423736   6.275  16.398   9.387
 1618POPC   GL123737   6.436  16.657   9.035
 1618POPC   GL223738   6.713  16.910   9.034
 1618POPC   C1A23739   6.575  16.568   8.617
 1618POPC   D2A23740   6.555  16.291   8.258
 1618POPC   C3A23741   6.548  16.464   7.867
 1618POPC   C4A23742   6.803  16.474   7.480
 1618POPC   C1B23743   6.740  17.044   8.575
 1618POPC   C2B23744   6.745  16.833   8.163
 1618POPC   C3B23745   6.686  16.918   7.712
 1618POPC   C4B23746   6.903  17.161   7.401
 1619POPC   NC323747  40.510  32.977   9.607
 1619POPC   PO423748  39.839  33.056   9.640
 1619POPC   GL123749  39.994  32.960   9.238
 1619POPC   GL223750  40.275  33.209   9.200
 1619POPC   C1A23751  39.927  33.056   8.804
 1619POPC   D2A23752  40.059  33.212   8.422
 1619POPC   C3A23753  39.782  33.140   8.086
 1619POPC   C4A23754  39.939  33.134   7.711
 1619POPC   C1B23755  40.393  32.890   8.897
 1619POPC   C2B23756  40.229  32.713   8.511
 1619POPC   C3B23757  40.234  32.848   8.074
 1619POPC   C4B23758  40.217  32.718   7.639
 1620POPC   NC323759   5.907   5.460   9.476
 1620POPC   PO423760   6.391   5.864   9.449
 1620POPC   GL123761   6.119   5.732   9.104
 1620POPC   GL223762   5.771   5.834   9.141
 1620POPC   C1A23763   6.053   5.884   8.701
 1620POPC   D2A23764   6.083   6.235   8.468
 1620POPC   C3A23765   6.029   6.081   8.043
 1620POPC   C4A23766   6.048   5.713   7.775
 1620POPC   C1B23767   5.550   5.888   8.737
 1620POPC   C2B23768   5.680   5.799   8.291
 1620POPC   C3B23769   5.569   5.923   7.842
 1620POPC   C4B23770   5.411   5.991   7.402
 1621POPC   NC323771  36.373  43.007   9.532
 1621POPC   PO423772  35.728  42.663   9.587
 1621POPC   GL123773  35.868  43.061   9.289
 1621POPC   GL223774  36.176  43.206   9.124
 1621POPC   C1A23775  35.769  43.249   8.848
 1621POPC   D2A23776  35.975  43.220   8.448
 1621POPC   C3A23777  35.737  43.255   8.065
 1621POPC   C4A23778  35.878  43.065   7.694
 1621POPC   C1B23779  36.406  43.141   8.745
 1621POPC   C2B23780  36.451  43.368   8.338
 1621POPC   C3B23781  36.486  43.318   7.884
 1621POPC   C4B23782  36.588  43.261   7.442
 1622POPC   NC323783  22.269  23.861   9.592
 1622POPC   PO423784  22.005  23.331   9.249
 1622POPC   GL123785  22.209  23.543   8.983
 1622POPC   GL223786  22.125  23.892   9.063
 1622POPC   C1A23787  22.232  23.401   8.603
 1622POPC   D2A23788  21.891  23.404   8.291
 1622POPC   C3A23789  22.100  23.318   7.896
 1622POPC   C4A23790  22.250  23.514   7.505
 1622POPC   C1B23791  22.020  23.855   8.607
 1622POPC   C2B23792  22.270  23.733   8.200
 1622POPC   C3B23793  22.147  23.918   7.802
 1622POPC   C4B23794  22.253  24.045   7.373
 1623POPC   NC323795  29.593   3.994   9.370
 1623POPC   PO423796  29.809   4.591   9.661
 1623POPC   GL123797  29.851   4.452   9.190
 1623POPC   GL223798  29.726   4.190   8.936
 1623POPC   C1A23799  29.983   4.563   8.748
 1623POPC   D2A23800  29.876   4.788   8.400
 1623POPC   C3A23801  29.906   4.569   8.044
 1623POPC   C4A23802  29.772   4.699   7.662
 1623POPC   C1B23803  29.886   3.989   8.578
 1623POPC   C2B23804  29.574   3.804   8.364
 1623POPC   C3B23805  29.362   4.017   8.077
 1623POPC   C4B23806  29.721   4.156   7.805
 1624POPC   NC323807   9.935  23.963   9.431
 1624POPC   PO423808   9.514  23.509   9.518
 1624POPC   GL123809   9.619  23.688   9.146
 1624POPC   GL223810   9.987  23.610   9.071
 1624POPC   C1A23811   9.504  23.906   8.792
 1624POPC   D2A23812   9.555  23.701   8.407
 1624POPC   C3A23813   9.862  23.847   8.122
 1624POPC   C4A23814   9.686  23.736   7.736
 1624POPC   C1B23815   9.834  23.257   8.852
 1624POPC   C2B23816   9.822  23.162   8.437
 1624POPC   C3B23817   9.802  23.340   8.044
 1624POPC   C4B23818   9.833  23.270   7.602
 1625POPC   NC323819  13.809  15.604   9.507
 1625POPC   PO423820  13.499  15.017   9.653
 1625POPC   GL123821  13.574  15.184   9.258
 1625POPC   GL223822  13.644  14.843   9.175
 1625POPC   C1A23823  13.495  15.246   8.812
 1625POPC   D2A23824  13.722  15.376   8.446
 1625POPC   C3A23825  13.677  15.149   8.036
 1625POPC   C4A23826  13.561  15.378   7.706
 1625POPC   C1B23827  13.510  14.714   8.799
 1625POPC   C2B23828  13.467  14.918   8.422
 1625POPC   C3B23829  13.168  14.887   8.104
 1625POPC   C4B23830  13.281  14.884   7.691
 1626POPC   NC323831  36.415  14.402   9.484
 1626POPC   PO423832  35.789  14.215   9.478
 1626POPC   GL123833  35.959  14.119   9.077
 1626POPC   GL223834  36.348  14.130   9.065
 1626POPC   C1A23835  35.998  14.388   8.717
 1626POPC   D2A23836  36.242  14.610   8.412
 1626POPC   C3A23837  36.107  14.518   7.997
 1626POPC   C4A23838  36.112  14.767   7.662
 1626POPC   C1B23839  36.307  13.984   8.666
 1626POPC   C2B23840  36.239  14.081   8.235
 1626POPC   C3B23841  36.443  14.147   7.820
 1626POPC   C4B23842  36.516  13.997   7.365
 1627POPC   NC323843  11.376  28.854   9.917
 1627POPC   PO423844  11.684  29.184   9.569
 1627POPC   GL123845  11.716  29.235   9.121
 1627POPC   GL223846  11.915  28.964   9.096
 1627POPC   C1A23847  11.511  29.219   8.677
 1627POPC   D2A23848  11.429  29.044   8.221
 1627POPC   C3A23849  11.062  29.137   7.925
 1627POPC   C4A23850  10.920  29.143   7.482
 1627POPC   C1B23851  11.907  28.900   8.636
 1627POPC   C2B23852  11.897  28.819   8.208
 1627POPC   C3B23853  11.724  28.913   7.806
 1627POPC   C4B23854  11.711  28.819   7.352
 1628POPC   NC323855   8.485   1.999   9.396
 1628POPC   PO423856   7.994   1.531   9.373
 1628POPC   GL123857   8.114   1.939   9.029
 1628POPC   GL223858   8.362   2.262   8.983
 1628POPC   C1A23859   8.400   1.879   8.668
 1628POPC   D2A23860   8.367   1.696   8.280
 1628POPC   C3A23861   8.171   1.949   7.951
 1628POPC   C4A23862   8.159   1.825   7.550
 1628POPC   C1B23863   8.159   2.342   8.623
 1628POPC   C2B23864   8.361   2.304   8.257
 1628POPC   C3B23865   8.355   2.492   7.860
 1628POPC   C4B23866   8.477   2.210   7.597
 1629POPC   NC323867  33.700  42.416   9.523
 1629POPC   PO423868  33.692  41.797   9.579
 1629POPC   GL123869  33.856  42.000   9.197
 1629POPC   GL223870  33.778  42.354   9.037
 1629POPC   C1A23871  33.701  41.965   8.754
 1629POPC   D2A23872  33.547  42.346   8.548
 1629POPC   C3A23873  33.665  42.452   8.097
 1629POPC   C4A23874  33.785  42.445   7.650
 1629POPC   C1B23875  34.075  42.576   8.737
 1629POPC   C2B23876  34.226  42.622   8.277
 1629POPC   C3B23877  34.224  42.730   7.830
 1629POPC   C4B23878  34.177  42.618   7.397
 1630POPC   NC323879  19.736  43.365   9.366
 1630POPC   PO423880  19.677  44.066   9.486
 1630POPC   GL123881  19.593  43.839   9.145
 1630POPC   GL223882  19.960  43.757   9.093
 1630POPC   C1A23883  19.500  43.718   8.738
 1630POPC   D2A23884  19.682  43.858   8.359
 1630POPC   C3A23885  19.547  43.839   7.955
 1630POPC   C4A23886  19.859  43.725   7.706
 1630POPC   C1B23887  19.901  44.048   8.776
 1630POPC   C2B23888  20.099  44.153   8.406
 1630POPC   C3B23889  19.958  44.158   8.010
 1630POPC   C4B23890  20.186  44.313   7.725
 1631POPC   NC323891   1.428  32.785   9.347
 1631POPC   PO423892   0.943  33.306   9.578
 1631POPC   GL123893   0.989  33.231   9.179
 1631POPC   GL223894   0.982  32.894   9.093
 1631POPC   C1A23895   1.251  33.208   8.815
 1631POPC   D2A23896   1.443  33.008   8.472
 1631POPC   C3A23897   1.346  33.154   8.061
 1631POPC   C4A23898   1.100  33.306   7.714
 1631POPC   C1B23899   0.910  32.654   8.700
 1631POPC   C2B23900   1.106  32.627   8.300
 1631POPC   C3B23901   1.503  32.669   8.093
 1631POPC   C4B23902   1.185  32.784   7.753
 1632POPC   NC323903  19.707  14.015   9.410
 1632POPC   PO423904  20.070  14.663   9.537
 1632POPC   GL123905  19.911  14.458   9.197
 1632POPC   GL223906  20.149  14.196   9.178
 1632POPC   C1A23907  19.650  14.406   8.820
 1632POPC   D2A23908  19.780  14.503   8.416
 1632POPC   C3A23909  19.632  14.272   8.046
 1632POPC   C4A23910  19.507  14.407   7.663
 1632POPC   C1B23911  20.156  14.299   8.748
 1632POPC   C2B23912  20.144  14.204   8.314
 1632POPC   C3B23913  20.116  14.255   7.879
 1632POPC   C4B23914  20.219  13.894   7.628
 1633POPC   NC323915  34.170  12.415   9.774
 1633POPC   PO423916  33.562  12.198   9.463
 1633POPC   GL123917  33.724  12.093   9.083
 1633POPC   GL223918  33.964  11.831   9.055
 1633POPC   C1A23919  33.591  11.858   8.722
 1633POPC   D2A23920  33.796  11.666   8.390
 1633POPC   C3A23921  33.615  11.805   7.998
 1633POPC   C4A23922  33.766  11.874   7.579
 1633POPC   C1B23923  34.044  12.086   8.679
 1633POPC   C2B23924  33.845  12.169   8.304
 1633POPC   C3B23925  34.059  12.071   7.939
 1633POPC   C4B23926  34.409  12.245   7.738
 1634POPC   NC323927  19.711  13.015   9.386
 1634POPC   PO423928  20.066  12.581   9.676
 1634POPC   GL123929  19.876  12.604   9.144
 1634POPC   GL223930  19.937  12.936   8.907
 1634POPC   C1A23931  19.538  12.691   8.784
 1634POPC   D2A23932  19.655  12.962   8.445
 1634POPC   C3A23933  19.667  12.752   8.051
 1634POPC   C4A23934  19.753  12.882   7.643
 1634POPC   C1B23935  20.115  13.198   8.555
 1634POPC   C2B23936  20.135  13.023   8.128
 1634POPC   C3B23937  20.269  12.892   7.714
 1634POPC   C4B23938  20.213  13.088   7.335
 1635POPC   NC323939  21.543   1.066   9.648
 1635POPC   PO423940  21.045   1.468   9.559
 1635POPC   GL123941  21.337   1.299   9.208
 1635POPC   GL223942  21.300   0.949   9.197
 1635POPC   C1A23943  21.410   1.233   8.747
 1635POPC   D2A23944  21.224   0.976   8.417
 1635POPC   C3A23945  21.177   1.064   7.960
 1635POPC   C4A23946  21.521   1.246   7.699
 1635POPC   C1B23947  21.698   0.869   8.959
 1635POPC   C2B23948  21.790   0.936   8.539
 1635POPC   C3B23949  21.680   1.022   8.130
 1635POPC   C4B23950  21.927   0.900   7.774
 1636POPC   NC323951   5.926  30.874   9.444
 1636POPC   PO423952   5.376  31.234   9.378
 1636POPC   GL123953   5.526  30.935   9.065
 1636POPC   GL223954   5.860  30.942   8.934
 1636POPC   C1A23955   5.471  30.708   8.640
 1636POPC   D2A23956   5.621  30.588   8.212
 1636POPC   C3A23957   5.890  30.870   7.943
 1636POPC   C4A23958   5.918  30.736   7.497
 1636POPC   C1B23959   5.952  30.852   8.494
 1636POPC   C2B23960   6.132  30.509   8.210
 1636POPC   C3B23961   6.287  30.525   7.780
 1636POPC   C4B23962   6.455  30.746   7.408
 1637POPC   NC323963  22.509  22.741   9.631
 1637POPC   PO423964  22.158  23.285   9.742
 1637POPC   GL123965  22.203  22.896   9.264
 1637POPC   GL223966  22.515  22.864   9.127
 1637POPC   C1A23967  22.028  22.820   8.827
 1637POPC   D2A23968  22.108  22.965   8.375
 1637POPC   C3A23969  21.944  22.763   8.009
 1637POPC   C4A23970  21.835  22.971   7.614
 1637POPC   C1B23971  22.502  22.961   8.722
 1637POPC   C2B23972  22.534  22.733   8.331
 1637POPC   C3B23973  22.421  22.907   7.937
 1637POPC   C4B23974  22.625  22.727   7.632
 1638POPC   NC323975   5.091  16.289   9.666
 1638POPC   PO423976   4.713  16.843   9.749
 1638POPC   GL123977   4.849  16.614   9.308
 1638POPC   GL223978   5.134  16.394   9.166
 1638POPC   C1A23979   4.962  16.755   8.864
 1638POPC   D2A23980   4.978  16.983   8.498
 1638POPC   C3A23981   4.788  16.813   8.158
 1638POPC   C4A23982   5.062  16.708   7.821
 1638POPC   C1B23983   5.171  16.333   8.705
 1638POPC   C2B23984   5.195  16.482   8.278
 1638POPC   C3B23985   5.295  16.266   7.889
 1638POPC   C4B23986   5.380  16.372   7.482
 1639POPC   NC323987  23.937  30.059   9.418
 1639POPC   PO423988  23.487  30.523   9.195
 1639POPC   GL123989  23.418  30.109   8.999
 1639POPC   GL223990  23.434  29.756   9.151
 1639POPC   C1A23991  23.453  29.974   8.548
 1639POPC   D2A23992  23.804  29.847   8.301
 1639POPC   C3A23993  23.775  30.007   7.887
 1639POPC   C4A23994  23.489  30.234   7.673
 1639POPC   C1B23995  23.618  29.538   8.764
 1639POPC   C2B23996  23.515  29.409   8.339
 1639POPC   C3B23997  23.617  29.521   7.926
 1639POPC   C4B23998  23.529  29.706   7.526
 1640POPC   NC323999  32.328   8.658   9.243
 1640POPC   PO424000  31.995   8.065   9.442
 1640POPC   GL124001  32.211   8.177   9.110
 1640POPC   GL224002  32.569   8.147   9.155
 1640POPC   C1A24003  32.022   8.286   8.738
 1640POPC   D2A24004  31.909   8.219   8.341
 1640POPC   C3A24005  32.120   7.989   8.026
 1640POPC   C4A24006  31.942   8.083   7.658
 1640POPC   C1B24007  32.534   8.325   8.728
 1640POPC   C2B24008  32.341   8.531   8.378
 1640POPC   C3B24009  32.228   8.468   7.936
 1640POPC   C4B24010  32.411   8.244   7.582
 1641POPC   NC324011  43.146  19.553   9.708
 1641POPC   PO424012  43.131  18.894   9.468
 1641POPC   GL124013  43.117  18.930   9.054
 1641POPC   GL224014  42.819  19.073   8.937
 1641POPC   C1A24015  43.372  18.909   8.697
 1641POPC   D2A24016  43.394  19.163   8.373
 1641POPC   C3A24017  43.395  18.948   8.012
 1641POPC   C4A24018  43.169  18.923   7.663
 1641POPC   C1B24019  42.784  19.395   8.657
 1641POPC   C2B24020  42.692  19.251   8.241
 1641POPC   C3B24021  42.672  19.417   7.828
 1641POPC   C4B24022  42.906  19.292   7.437
 1642POPC   NC324023  40.195  14.431   9.506
 1642POPC   PO424024  39.617  14.730   9.605
 1642POPC   GL124025  39.869  14.644   9.187
 1642POPC   GL224026  39.890  14.295   9.127
 1642POPC   C1A24027  39.745  14.595   8.725
 1642POPC   D2A24028  39.760  14.307   8.365
 1642POPC   C3A24029  39.929  14.351   7.959
 1642POPC   C4A24030  39.919  14.328   7.514
 1642POPC   C1B24031  40.048  14.113   8.765
 1642POPC   C2B24032  40.198  14.012   8.387
 1642POPC   C3B24033  40.234  13.910   7.982
 1642POPC   C4B24034  40.057  13.862   7.585
 1643POPC   NC324035  34.018  43.342   9.536
 1643POPC   PO424036  34.079  42.694   9.528
 1643POPC   GL124037  33.760  42.835   9.236
 1643POPC   GL224038  33.693  43.172   9.182
 1643POPC   C1A24039  33.603  42.791   8.829
 1643POPC   D2A24040  33.782  42.839   8.435
 1643POPC   C3A24041  33.960  43.077   8.118
 1643POPC   C4A24042  33.695  42.929   7.780
 1643POPC   C1B24043  33.918  43.231   8.819
 1643POPC   C2B24044  33.804  43.445   8.451
 1643POPC   C3B24045  33.791  43.595   8.042
 1643POPC   C4B24046  33.937  43.361   7.687
 1644POPC   NC324047  25.072  27.168   9.245
 1644POPC   PO424048  25.403  26.679   9.465
 1644POPC   GL124049  25.593  26.807   9.063
 1644POPC   GL224050  25.522  27.174   8.978
 1644POPC   C1A24051  25.608  26.584   8.677
 1644POPC   D2A24052  25.343  26.516   8.317
 1644POPC   C3A24053  25.367  26.826   8.009
 1644POPC   C4A24054  25.381  26.615   7.630
 1644POPC   C1B24055  25.283  27.020   8.593
 1644POPC   C2B24056  24.993  27.163   8.243
 1644POPC   C3B24057  25.089  27.233   7.830
 1644POPC   C4B24058  25.482  27.400   7.726
 1645POPC   NC324059  40.335  10.095   9.356
 1645POPC   PO424060  39.889  10.557   9.788
 1645POPC   GL124061  39.995  10.501   9.345
 1645POPC   GL224062  39.688  10.588   9.167
 1645POPC   C1A24063  40.093  10.574   8.891
 1645POPC   D2A24064  40.055  10.355   8.483
 1645POPC   C3A24065  40.112  10.592   8.096
 1645POPC   C4A24066  39.817  10.721   7.799
 1645POPC   C1B24067  39.608  10.499   8.770
 1645POPC   C2B24068  39.541  10.462   8.354
 1645POPC   C3B24069  39.730  10.241   8.035
 1645POPC   C4B24070  39.577  10.306   7.642
 1646POPC   NC324071  33.334   2.113   9.386
 1646POPC   PO424072  32.959   1.583   9.464
 1646POPC   GL124073  33.083   1.739   9.100
 1646POPC   GL224074  33.393   1.612   8.947
 1646POPC   C1A24075  32.838   1.850   8.755
 1646POPC   D2A24076  33.031   1.728   8.382
 1646POPC   C3A24077  33.244   1.863   8.050
 1646POPC   C4A24078  33.057   1.768   7.683
 1646POPC   C1B24079  33.306   2.021   8.712
 1646POPC   C2B24080  32.981   2.297   8.536
 1646POPC   C3B24081  32.828   2.427   8.152
 1646POPC   C4B24082  33.104   2.309   7.839
 1647POPC   NC324083   4.776  19.904   9.517
 1647POPC   PO424084   5.298  19.515   9.743
 1647POPC   GL124085   5.238  19.763   9.355
 1647POPC   GL224086   5.281  20.116   9.261
 1647POPC   C1A24087   5.148  19.770   8.866
 1647POPC   D2A24088   4.986  19.799   8.405
 1647POPC   C3A24089   5.202  19.715   7.979
 1647POPC   C4A24090   5.332  19.870   7.545
 1647POPC   C1B24091   5.038  20.266   8.868
 1647POPC   C2B24092   4.809  20.271   8.461
 1647POPC   C3B24093   4.961  20.198   8.033
 1647POPC   C4B24094   4.880  20.079   7.647
 1648POPC   NC324095  34.925   2.208   9.553
 1648POPC   PO424096  34.416   1.773   9.506
 1648POPC   GL124097  34.524   1.818   9.078
 1648POPC   GL224098  34.536   2.147   8.989
 1648POPC   C1A24099  34.563   1.771   8.629
 1648POPC   D2A24100  34.569   1.638   8.216
 1648POPC   C3A24101  34.565   2.023   7.965
 1648POPC   C4A24102  34.944   2.232   7.910
 1648POPC   C1B24103  34.179   2.125   8.679
 1648POPC   C2B24104  34.122   2.164   8.228
 1648POPC   C3B24105  34.116   2.232   7.776
 1648POPC   C4B24106  34.251   2.421   7.367
 1649POPC   NC324107  44.200  12.527   9.231
 1649POPC   PO424108  43.940  12.012   9.597
 1649POPC   GL124109  43.807  12.198   9.205
 1649POPC   GL224110  44.067  11.972   9.091
 1649POPC   C1A24111  43.901  12.267   8.723
 1649POPC   D2A24112  43.771  12.052   8.364
 1649POPC   C3A24113  43.562  12.204   7.988
 1649POPC   C4A24114  43.846  12.388   7.712
 1649POPC   C1B24115  43.672  11.832   8.887
 1649POPC   C2B24116  43.543  11.626   8.527
 1649POPC   C3B24117  43.555  11.694   8.071
 1649POPC   C4B24118  43.881  11.874   7.795
 1650POPC   NC324119  39.818  37.446   9.601
 1650POPC   PO424120  40.376  37.834   9.490
 1650POPC   GL124121  40.153  37.660   9.141
 1650POPC   GL224122  39.828  37.751   9.188
 1650POPC   C1A24123  39.993  37.629   8.708
 1650POPC   D2A24124  39.837  37.865   8.360
 1650POPC   C3A24125  39.960  37.736   7.950
 1650POPC   C4A24126  40.382  37.646   7.854
 1650POPC   C1B24127  39.596  37.423   8.982
 1650POPC   C2B24128  39.583  37.317   8.574
 1650POPC   C3B24129  39.761  37.323   8.186
 1650POPC   C4B24130  39.486  37.300   7.814
 1651POPC   NC324131  30.906   2.468   9.382
 1651POPC   PO424132  30.996   3.083   9.454
 1651POPC   GL124133  30.774   2.896   9.128
 1651POPC   GL224134  30.458   2.708   9.186
 1651POPC   C1A24135  30.600   3.021   8.761
 1651POPC   D2A24136  30.658   3.258   8.425
 1651POPC   C3A24137  30.695   3.011   8.059
 1651POPC   C4A24138  30.763   2.954   7.647
 1651POPC   C1B24139  30.618   2.512   8.780
 1651POPC   C2B24140  30.536   2.584   8.311
 1651POPC   C3B24141  30.572   2.492   7.836
 1651POPC   C4B24142  30.544   2.577   7.358
 1652POPC   NC324143  15.667  13.308   9.848
 1652POPC   PO424144  16.166  13.472   9.510
 1652POPC   GL124145  16.076  13.700   9.119
 1652POPC   GL224146  15.781  13.919   9.084
 1652POPC   C1A24147  15.932  13.673   8.690
 1652POPC   D2A24148  15.756  13.498   8.361
 1652POPC   C3A24149  16.008  13.554   8.051
 1652POPC   C4A24150  16.090  13.364   7.712
 1652POPC   C1B24151  15.666  14.121   8.714
 1652POPC   C2B24152  15.594  13.993   8.346
 1652POPC   C3B24153  15.587  13.841   7.975
 1652POPC   C4B24154  15.856  13.845   7.659
 1653POPC   NC324155   7.647  26.558   9.473
 1653POPC   PO424156   7.377  27.061   9.467
 1653POPC   GL124157   7.440  26.855   9.070
 1653POPC   GL224158   7.792  26.684   9.004
 1653POPC   C1A24159   7.430  26.678   8.632
 1653POPC   D2A24160   7.169  26.597   8.261
 1653POPC   C3A24161   7.393  26.693   7.906
 1653POPC   C4A24162   7.469  27.132   7.863
 1653POPC   C1B24163   7.948  26.738   8.572
 1653POPC   C2B24164   7.846  26.851   8.148
 1653POPC   C3B24165   7.882  26.875   7.700
 1653POPC   C4B24166   7.680  26.662   7.349
 1654POPC   NC324167  32.751  20.700   9.545
 1654POPC   PO424168  32.125  20.617   9.797
 1654POPC   GL124169  32.218  20.703   9.314
 1654POPC   GL224170  31.964  20.933   9.170
 1654POPC   C1A24171  32.234  20.443   8.886
 1654POPC   D2A24172  32.549  20.352   8.565
 1654POPC   C3A24173  32.425  20.292   8.175
 1654POPC   C4A24174  32.329  20.418   7.765
 1654POPC   C1B24175  31.828  20.711   8.770
 1654POPC   C2B24176  31.859  20.417   8.382
 1654POPC   C3B24177  31.832  20.524   7.917
 1654POPC   C4B24178  31.954  20.658   7.472
 1655POPC   NC324179  24.852  44.138   9.327
 1655POPC   PO424180  24.220  43.821   9.506
 1655POPC   GL124181  24.296  43.654   9.111
 1655POPC   GL224182  24.498  43.912   9.050
 1655POPC   C1A24183  24.257  43.631   8.659
 1655POPC   D2A24184  24.329  43.317   8.337
 1655POPC   C3A24185  24.367  43.410   7.894
 1655POPC   C4A24186  23.949  43.430   7.726
 1655POPC   C1B24187  24.778  43.820   8.738
 1655POPC   C2B24188  24.630  43.838   8.344
 1655POPC   C3B24189  24.753  43.767   7.957
 1655POPC   C4B24190  24.734  43.961   7.593
 1656POPC   NC324191  40.887  24.693   9.411
 1656POPC   PO424192  40.966  24.102   9.711
 1656POPC   GL124193  40.785  24.262   9.187
 1656POPC   GL224194  40.664  24.601   8.976
 1656POPC   C1A24195  40.819  24.175   8.748
 1656POPC   D2A24196  40.744  24.436   8.395
 1656POPC   C3A24197  40.744  24.274   7.987
 1656POPC   C4A24198  40.740  24.604   7.670
 1656POPC   C1B24199  41.109  24.595   8.809
 1656POPC   C2B24200  41.251  24.467   8.412
 1656POPC   C3B24201  41.149  24.654   8.001
 1656POPC   C4B24202  41.159  24.851   7.589
 1657POPC   NC324203  14.861  13.507   9.345
 1657POPC   PO424204  15.418  13.677   9.723
 1657POPC   GL124205  15.381  13.676   9.284
 1657POPC   GL224206  15.631  13.436   9.250
 1657POPC   C1A24207  15.393  13.703   8.811
 1657POPC   D2A24208  15.073  13.638   8.497
 1657POPC   C3A24209  15.076  13.845   8.096
 1657POPC   C4A24210  15.207  13.697   7.682
 1657POPC   C1B24211  15.652  13.253   8.820
 1657POPC   C2B24212  15.374  13.194   8.484
 1657POPC   C3B24213  15.330  13.389   8.084
 1657POPC   C4B24214  15.591  13.363   7.728
 1658POPC   NC324215  39.572  16.460   9.194
 1658POPC   PO424216  39.098  16.694   9.605
 1658POPC   GL124217  39.137  16.744   9.140
 1658POPC   GL224218  39.365  16.980   9.047
 1658POPC   C1A24219  39.053  16.678   8.664
 1658POPC   D2A24220  39.021  16.960   8.329
 1658POPC   C3A24221  39.130  16.841   7.931
 1658POPC   C4A24222  39.031  16.524   7.655
 1658POPC   C1B24223  39.459  16.996   8.625
 1658POPC   C2B24224  39.463  16.686   8.305
 1658POPC   C3B24225  39.601  16.653   7.883
 1658POPC   C4B24226  39.501  16.734   7.479
 1659POPC   NC324227  21.394  37.343   9.507
 1659POPC   PO424228  21.259  38.032   9.566
 1659POPC   GL124229  21.485  37.802   9.257
 1659POPC   GL224230  21.205  37.601   9.120
 1659POPC   C1A24231  21.533  37.819   8.803
 1659POPC   D2A24232  21.336  37.889   8.393
 1659POPC   C3A24233  21.546  37.693   8.050
 1659POPC   C4A24234  21.610  37.873   7.662
 1659POPC   C1B24235  21.016  37.690   8.737
 1659POPC   C2B24236  20.915  37.503   8.356
 1659POPC   C3B24237  21.024  37.632   7.955
 1659POPC   C4B24238  21.022  37.449   7.545
 1660POPC   NC324239  35.421  37.795   9.614
 1660POPC   PO424240  34.973  37.315   9.676
 1660POPC   GL124241  35.156  37.505   9.252
 1660POPC   GL224242  35.010  37.837   9.197
 1660POPC   C1A24243  35.308  37.629   8.805
 1660POPC   D2A24244  35.622  37.707   8.489
 1660POPC   C3A24245  35.503  37.651   8.051
 1660POPC   C4A24246  35.780  37.559   7.730
 1660POPC   C1B24247  34.896  37.906   8.745
 1660POPC   C2B24248  35.190  38.018   8.399
 1660POPC   C3B24249  35.143  38.017   7.950
 1660POPC   C4B24250  35.327  37.995   7.571
 1661POPC   NC324251  42.090  12.206   9.518
 1661POPC   PO424252  42.777  12.019   9.453
 1661POPC   GL124253  42.458  12.146   9.156
 1661POPC   GL224254  42.208  11.853   9.147
 1661POPC   C1A24255  42.420  12.167   8.705
 1661POPC   D2A24256  42.649  12.113   8.307
 1661POPC   C3A24257  42.406  12.072   7.926
 1661POPC   C4A24258  42.388  11.866   7.532
 1661POPC   C1B24259  41.994  11.805   8.736
 1661POPC   C2B24260  42.175  11.789   8.304
 1661POPC   C3B24261  42.075  11.630   7.872
 1661POPC   C4B24262  41.965  11.643   7.388
 1662POPC   NC324263   1.870  42.848   9.497
 1662POPC   PO424264   2.450  43.180   9.638
 1662POPC   GL124265   2.154  43.229   9.261
 1662POPC   GL224266   2.127  42.920   9.061
 1662POPC   C1A24267   2.069  43.362   8.837
 1662POPC   D2A24268   2.211  43.198   8.489
 1662POPC   C3A24269   1.945  43.169   8.164
 1662POPC   C4A24270   1.964  43.279   7.749
 1662POPC   C1B24271   1.827  42.933   8.708
 1662POPC   C2B24272   1.625  42.795   8.310
 1662POPC   C3B24273   1.669  42.834   7.885
 1662POPC   C4B24274   2.030  42.760   7.668
 1663POPC   NC324275  24.881  38.674   9.197
 1663POPC   PO424276  24.555  38.135   9.336
 1663POPC   GL124277  24.411  38.386   9.007
 1663POPC   GL224278  24.708  38.320   8.845
 1663POPC   C1A24279  24.309  38.374   8.549
 1663POPC   D2A24280  24.503  38.560   8.190
 1663POPC   C3A24281  24.585  38.282   7.888
 1663POPC   C4A24282  24.289  38.013   7.722
 1663POPC   C1B24283  24.811  38.698   8.572
 1663POPC   C2B24284  24.817  38.988   8.235
 1663POPC   C3B24285  24.673  38.910   7.851
 1663POPC   C4B24286  24.476  38.997   7.470
 1664POPC   NC324287  32.789  11.052   9.539
 1664POPC   PO424288  33.388  11.464   9.448
 1664POPC   GL124289  33.241  11.238   9.110
 1664POPC   GL224290  32.863  11.177   9.064
 1664POPC   C1A24291  33.137  11.368   8.698
 1664POPC   D2A24292  33.290  11.612   8.389
 1664POPC   C3A24293  33.255  11.431   8.043
 1664POPC   C4A24294  32.993  11.484   7.774
 1664POPC   C1B24295  32.711  10.939   8.720
 1664POPC   C2B24296  32.922  10.794   8.347
 1664POPC   C3B24297  32.957  10.998   7.943
 1664POPC   C4B24298  32.783  11.107   7.499
 1665POPC   NC324299  28.763   3.656   9.216
 1665POPC   PO424300  29.363   3.596   9.570
 1665POPC   GL124301  29.286   3.595   9.117
 1665POPC   GL224302  29.121   3.268   9.040
 1665POPC   C1A24303  29.204   3.597   8.651
 1665POPC   D2A24304  29.307   3.380   8.245
 1665POPC   C3A24305  29.163   3.592   7.879
 1665POPC   C4A24306  29.319   3.881   7.581
 1665POPC   C1B24307  28.829   3.252   8.651
 1665POPC   C2B24308  28.784   3.420   8.206
 1665POPC   C3B24309  28.793   3.277   7.755
 1665POPC   C4B24310  28.824   3.049   7.376
 1666POPC   NC324311  41.782  19.007   9.413
 1666POPC   PO424312  41.149  19.188   9.580
 1666POPC   GL124313  41.375  19.224   9.167
 1666POPC   GL224314  41.764  19.342   9.059
 1666POPC   C1A24315  41.325  19.026   8.783
 1666POPC   D2A24316  41.219  19.236   8.421
 1666POPC   C3A24317  41.277  19.000   8.048
 1666POPC   C4A24318  41.368  19.179   7.695
 1666POPC   C1B24319  41.850  19.010   8.758
 1666POPC   C2B24320  41.670  18.969   8.372
 1666POPC   C3B24321  41.725  19.271   8.033
 1666POPC   C4B24322  41.883  19.203   7.618
 1667POPC   NC324323  29.689  31.821   9.556
 1667POPC   PO424324  30.039  32.326   9.212
 1667POPC   GL124325  30.064  31.988   8.984
 1667POPC   GL224326  29.731  31.946   9.051
 1667POPC   C1A24327  30.072  32.077   8.574
 1667POPC   D2A24328  29.884  32.357   8.313
 1667POPC   C3A24329  30.048  32.256   7.929
 1667POPC   C4A24330  29.886  32.446   7.592
 1667POPC   C1B24331  29.563  32.093   8.675
 1667POPC   C2B24332  29.610  31.905   8.269
 1667POPC   C3B24333  29.654  31.937   7.829
 1667POPC   C4B24334  29.644  31.991   7.394
 1668POPC   NC324335  40.239  28.723   9.506
 1668POPC   PO424336  39.764  28.335   9.483
 1668POPC   GL124337  39.908  28.535   9.146
 1668POPC   GL224338  39.989  28.250   9.010
 1668POPC   C1A24339  39.774  28.613   8.721
 1668POPC   D2A24340  39.958  28.266   8.480
 1668POPC   C3A24341  40.051  28.361   8.083
 1668POPC   C4A24342  40.114  28.387   7.689
 1668POPC   C1B24343  40.277  27.997   8.827
 1668POPC   C2B24344  40.390  27.932   8.422
 1668POPC   C3B24345  40.142  27.867   8.069
 1668POPC   C4B24346  40.315  27.931   7.688
 1669POPC   NC324347  38.638   9.150   9.467
 1669POPC   PO424348  37.994   8.943   9.559
 1669POPC   GL124349  38.282   8.942   9.183
 1669POPC   GL224350  38.285   9.252   9.070
 1669POPC   C1A24351  38.569   8.898   8.848
 1669POPC   D2A24352  38.398   9.122   8.556
 1669POPC   C3A24353  38.493   9.056   8.141
 1669POPC   C4A24354  38.661   8.842   7.828
 1669POPC   C1B24355  37.968   9.351   8.733
 1669POPC   C2B24356  37.927   9.211   8.343
 1669POPC   C3B24357  38.021   9.260   7.944
 1669POPC   C4B24358  38.164   8.922   7.757
 1670POPC   NC324359  10.717   7.004   9.458
 1670POPC   PO424360  10.120   6.743   9.538
 1670POPC   GL124361  10.349   6.599   9.150
 1670POPC   GL224362  10.407   6.225   9.084
 1670POPC   C1A24363  10.370   6.597   8.681
 1670POPC   D2A24364  10.132   6.429   8.304
 1670POPC   C3A24365  10.077   6.741   7.952
 1670POPC   C4A24366  10.422   6.906   7.704
 1670POPC   C1B24367  10.592   6.138   8.670
 1670POPC   C2B24368  10.676   6.371   8.263
 1670POPC   C3B24369  10.438   6.376   7.872
 1670POPC   C4B24370  10.349   6.214   7.454
 1671POPC   NC324371  42.630  20.675   9.511
 1671POPC   PO424372  43.299  20.635   9.543
 1671POPC   GL124373  43.035  20.644   9.197
 1671POPC   GL224374  42.794  20.363   9.093
 1671POPC   C1A24375  42.974  20.764   8.803
 1671POPC   D2A24376  42.871  20.602   8.437
 1671POPC   C3A24377  43.011  20.815   8.104
 1671POPC   C4A24378  43.037  20.619   7.737
 1671POPC   C1B24379  43.220  20.305   8.873
 1671POPC   C2B24380  43.476  20.255   8.510
 1671POPC   C3B24381  43.347  20.371   8.108
 1671POPC   C4B24382  43.339  20.216   7.699
 1672POPC   NC324383  36.133  19.349   9.504
 1672POPC   PO424384  35.651  18.841   9.488
 1672POPC   GL124385  36.072  18.901   9.200
 1672POPC   GL224386  36.184  19.231   9.039
 1672POPC   C1A24387  36.335  18.855   8.762
 1672POPC   D2A24388  36.146  18.855   8.351
 1672POPC   C3A24389  36.203  19.067   7.965
 1672POPC   C4A24390  36.325  19.001   7.525
 1672POPC   C1B24391  36.040  19.378   8.680
 1672POPC   C2B24392  35.813  19.234   8.334
 1672POPC   C3B24393  35.685  19.278   7.931
 1672POPC   C4B24394  36.006  19.400   7.633
 1673POPC   NC324395  12.116  20.795   9.159
 1673POPC   PO424396  12.279  20.404   9.666
 1673POPC   GL124397  12.043  20.307   9.232
 1673POPC   GL224398  11.718  20.405   9.240
 1673POPC   C1A24399  12.136  20.366   8.700
 1673POPC   D2A24400  11.995  20.684   8.360
 1673POPC   C3A24401  12.241  20.744   7.958
 1673POPC   C4A24402  12.337  20.420   7.673
 1673POPC   C1B24403  11.708  20.161   8.855
 1673POPC   C2B24404  11.715  20.253   8.382
 1673POPC   C3B24405  11.873  20.386   7.953
 1673POPC   C4B24406  11.888  20.294   7.503
 1674POPC   NC324407  23.262  23.879   9.477
 1674POPC   PO424408  22.892  23.368   9.451
 1674POPC   GL124409  22.897  23.721   9.174
 1674POPC   GL224410  22.627  23.801   9.060
 1674POPC   C1A24411  23.047  23.845   8.759
 1674POPC   D2A24412  22.936  23.640   8.361
 1674POPC   C3A24413  23.092  23.779   7.997
 1674POPC   C4A24414  23.131  23.585   7.598
 1674POPC   C1B24415  22.532  23.853   8.641
 1674POPC   C2B24416  22.676  24.060   8.265
 1674POPC   C3B24417  22.641  23.974   7.858
 1674POPC   C4B24418  22.689  23.775   7.482
 1675POPC   NC324419  39.476  43.250   9.567
 1675POPC   PO424420  39.119  42.628   9.458
 1675POPC   GL124421  39.371  42.873   9.180
 1675POPC   GL224422  39.207  43.213   9.138
 1675POPC   C1A24423  39.293  42.912   8.736
 1675POPC   D2A24424  39.343  42.960   8.330
 1675POPC   C3A24425  38.963  43.083   8.193
 1675POPC   C4A24426  38.970  42.963   7.800
 1675POPC   C1B24427  39.386  43.423   8.770
 1675POPC   C2B24428  39.281  43.521   8.315
 1675POPC   C3B24429  39.355  43.278   7.930
 1675POPC   C4B24430  39.621  43.230   7.597
 1676POPC   NC324431  38.371  28.687   9.432
 1676POPC   PO424432  38.184  28.086   9.337
 1676POPC   GL124433  38.402  28.311   9.039
 1676POPC   GL224434  38.272  28.650   8.929
 1676POPC   C1A24435  38.729  28.121   8.802
 1676POPC   D2A24436  38.718  27.911   8.406
 1676POPC   C3A24437  38.619  28.211   8.064
 1676POPC   C4A24438  38.550  28.409   7.671
 1676POPC   C1B24439  38.684  28.658   8.789
 1676POPC   C2B24440  38.893  28.841   8.421
 1676POPC   C3B24441  38.816  28.705   8.024
 1676POPC   C4B24442  38.930  28.753   7.625
 1677POPC   NC324443  17.009  27.711   9.425
 1677POPC   PO424444  16.607  27.325   9.624
 1677POPC   GL124445  16.612  27.525   9.204
 1677POPC   GL224446  16.557  27.250   9.075
 1677POPC   C1A24447  16.595  27.640   8.747
 1677POPC   D2A24448  16.481  27.398   8.349
 1677POPC   C3A24449  16.508  27.650   7.991
 1677POPC   C4A24450  16.841  27.907   7.853
 1677POPC   C1B24451  16.965  27.311   8.865
 1677POPC   C2B24452  16.997  27.462   8.435
 1677POPC   C3B24453  16.885  27.310   8.052
 1677POPC   C4B24454  17.166  27.279   7.798
 1678POPC   NC324455  35.693  12.214   9.526
 1678POPC   PO424456  36.287  12.155   9.735
 1678POPC   GL124457  36.085  12.089   9.257
 1678POPC   GL224458  35.876  12.379   9.087
 1678POPC   C1A24459  36.123  12.025   8.805
 1678POPC   D2A24460  36.210  11.998   8.367
 1678POPC   C3A24461  36.498  12.129   8.029
 1678POPC   C4A24462  36.367  12.057   7.593
 1678POPC   C1B24463  35.700  12.309   8.657
 1678POPC   C2B24464  35.718  12.101   8.236
 1678POPC   C3B24465  35.892  12.164   7.802
 1678POPC   C4B24466  35.773  12.240   7.333
 1679POPC   NC324467  44.766  28.627   9.411
 1679POPC   PO424468  44.478  28.058   9.263
 1679POPC   GL124469  44.578  28.371   9.014
 1679POPC   GL224470  44.948  28.471   8.955
 1679POPC   C1A24471  44.481  28.492   8.627
 1679POPC   D2A24472  44.749  28.532   8.288
 1679POPC   C3A24473  44.547  28.356   7.933
 1679POPC   C4A24474  44.264  28.327   7.579
 1679POPC   C1B24475  44.857  28.134   8.651
 1679POPC   C2B24476  44.710  27.977   8.251
 1679POPC   C3B24477  44.924  28.013   7.837
 1679POPC   C4B24478  44.714  28.080   7.466
 1680POPC   NC324479   2.283  10.786   9.493
 1680POPC   PO424480   1.935  10.251   9.383
 1680POPC   GL124481   1.937  10.668   9.136
 1680POPC   GL224482   2.288  10.770   8.972
 1680POPC   C1A24483   1.850  10.878   8.754
 1680POPC   D2A24484   1.824  10.707   8.356
 1680POPC   C3A24485   2.039  10.866   8.031
 1680POPC   C4A24486   2.043  10.623   7.682
 1680POPC   C1B24487   2.060  10.411   8.703
 1680POPC   C2B24488   1.857  10.205   8.308
 1680POPC   C3B24489   1.988  10.132   7.852
 1680POPC   C4B24490   2.149   9.972   7.426
 1681POPC   NC324491  41.868  41.094   9.486
 1681POPC   PO424492  42.521  40.833   9.453
 1681POPC   GL124493  42.486  40.768   9.032
 1681POPC   GL224494  42.695  41.078   9.017
 1681POPC   C1A24495  42.314  40.621   8.632
 1681POPC   D2A24496  42.191  40.877   8.265
 1681POPC   C3A24497  42.132  40.670   7.850
 1681POPC   C4A24498  41.960  40.418   7.479
 1681POPC   C1B24499  42.444  41.122   8.656
 1681POPC   C2B24500  42.501  41.313   8.281
 1681POPC   C3B24501  42.413  41.194   7.887
 1681POPC   C4B24502  42.577  40.883   7.663
 1682POPC   NC324503  14.661   3.953   9.529
 1682POPC   PO424504  14.498   4.647   9.522
 1682POPC   GL124505  14.604   4.465   9.130
 1682POPC   GL224506  14.304   4.280   9.124
 1682POPC   C1A24507  14.600   4.322   8.698
 1682POPC   D2A24508  14.769   4.214   8.280
 1682POPC   C3A24509  14.470   4.232   7.910
 1682POPC   C4A24510  14.335   4.428   7.486
 1682POPC   C1B24511  14.091   4.408   8.713
 1682POPC   C2B24512  14.087   4.365   8.262
 1682POPC   C3B24513  13.961   4.355   7.834
 1682POPC   C4B24514  13.714   4.066   7.595
 1683POPC   NC324515  40.842  27.908   9.476
 1683POPC   PO424516  41.215  27.328   9.487
 1683POPC   GL124517  40.919  27.478   9.136
 1683POPC   GL224518  40.985  27.818   9.015
 1683POPC   C1A24519  40.652  27.566   8.743
 1683POPC   D2A24520  40.849  27.674   8.363
 1683POPC   C3A24521  40.690  27.709   7.952
 1683POPC   C4A24522  40.702  27.657   7.515
 1683POPC   C1B24523  41.187  28.002   8.688
 1683POPC   C2B24524  41.347  28.024   8.297
 1683POPC   C3B24525  41.115  27.979   7.937
 1683POPC   C4B24526  41.152  27.891   7.505
 1684POPC   NC324527  31.137  36.638   9.427
 1684POPC   PO424528  31.696  36.907   9.640
 1684POPC   GL124529  31.518  36.876   9.191
 1684POPC   GL224530  31.698  37.172   9.191
 1684POPC   C1A24531  31.275  36.733   8.798
 1684POPC   D2A24532  31.089  36.678   8.361
 1684POPC   C3A24533  31.420  36.688   8.098
 1684POPC   C4A24534  31.429  36.797   7.683
 1684POPC   C1B24535  31.697  37.088   8.782
 1684POPC   C2B24536  31.444  37.065   8.450
 1684POPC   C3B24537  31.530  37.226   8.086
 1684POPC   C4B24538  31.580  37.275   7.688
 1685POPC   NC324539   2.309   2.035   9.472
 1685POPC   PO424540   3.014   1.769   9.498
 1685POPC   GL124541   2.872   1.670   9.116
 1685POPC   GL224542   2.549   1.817   9.087
 1685POPC   C1A24543   3.098   1.739   8.756
 1685POPC   D2A24544   3.155   1.916   8.358
 1685POPC   C3A24545   2.943   1.729   8.021
 1685POPC   C4A24546   2.912   1.885   7.643
 1685POPC   C1B24547   2.600   1.673   8.667
 1685POPC   C2B24548   2.624   1.972   8.337
 1685POPC   C3B24549   2.476   1.997   7.929
 1685POPC   C4B24550   2.676   2.321   7.721
 1686POPC   NC324551   9.213  22.638   9.316
 1686POPC   PO424552   8.957  23.164   9.539
 1686POPC   GL124553   8.968  23.007   9.080
 1686POPC   GL224554   8.910  22.679   8.885
 1686POPC   C1A24555   8.897  23.140   8.697
 1686POPC   D2A24556   8.964  22.850   8.381
 1686POPC   C3A24557   8.888  23.089   8.007
 1686POPC   C4A24558   8.986  23.298   7.612
 1686POPC   C1B24559   9.243  22.408   8.695
 1686POPC   C2B24560   9.229  22.379   8.265
 1686POPC   C3B24561   8.902  22.514   7.986
 1686POPC   C4B24562   8.960  22.769   7.624
 1687POPC   NC324563  32.221  41.279   9.463
 1687POPC   PO424564  32.313  41.923   9.494
 1687POPC   GL124565  32.462  41.666   9.179
 1687POPC   GL224566  32.120  41.633   9.094
 1687POPC   C1A24567  32.470  41.513   8.748
 1687POPC   D2A24568  32.278  41.632   8.354
 1687POPC   C3A24569  32.432  41.706   7.967
 1687POPC   C4A24570  32.383  41.583   7.537
 1687POPC   C1B24571  31.862  41.629   8.731
 1687POPC   C2B24572  31.778  41.558   8.294
 1687POPC   C3B24573  31.970  41.485   7.905
 1687POPC   C4B24574  31.857  41.184   7.607
 1688POPC   NC324575  24.156   8.080   9.578
 1688POPC   PO424576  24.811   8.457   9.492
 1688POPC   GL124577  24.621   8.471   9.117
 1688POPC   GL224578  24.498   8.160   9.186
 1688POPC   C1A24579  24.367   8.410   8.738
 1688POPC   D2A24580  24.265   8.132   8.401
 1688POPC   C3A24581  24.373   8.236   7.999
 1688POPC   C4A24582  24.160   8.354   7.635
 1688POPC   C1B24583  24.366   7.883   8.849
 1688POPC   C2B24584  24.521   7.698   8.452
 1688POPC   C3B24585  24.310   7.723   8.055
 1688POPC   C4B24586  24.429   7.880   7.609
 1689POPC   NC324587  42.478  36.529   9.574
 1689POPC   PO424588  42.701  37.089   9.449
 1689POPC   GL124589  42.400  36.843   9.181
 1689POPC   GL224590  42.515  36.507   9.041
 1689POPC   C1A24591  42.243  36.872   8.773
 1689POPC   D2A24592  42.408  36.930   8.373
 1689POPC   C3A24593  42.260  37.231   8.109
 1689POPC   C4A24594  42.370  37.170   7.684
 1689POPC   C1B24595  42.749  36.626   8.632
 1689POPC   C2B24596  42.795  36.621   8.180
 1689POPC   C3B24597  42.445  36.708   7.908
 1689POPC   C4B24598  42.378  36.681   7.494
 1690POPC   NC324599   4.466  36.270   9.480
 1690POPC   PO424600   3.918  35.996   9.688
 1690POPC   GL124601   4.056  36.076   9.194
 1690POPC   GL224602   4.380  36.069   9.033
 1690POPC   C1A24603   4.083  36.303   8.740
 1690POPC   D2A24604   4.083  36.085   8.373
 1690POPC   C3A24605   3.910  36.200   7.988
 1690POPC   C4A24606   4.024  36.289   7.584
 1690POPC   C1B24607   4.603  36.343   8.778
 1690POPC   C2B24608   4.594  36.126   8.395
 1690POPC   C3B24609   4.438  36.200   8.007
 1690POPC   C4B24610   4.532  36.351   7.613
 1691POPC   NC324611  21.558  12.377   9.303
 1691POPC   PO424612  21.047  12.772   9.691
 1691POPC   GL124613  21.258  12.845   9.183
 1691POPC   GL224614  21.223  12.606   8.935
 1691POPC   C1A24615  21.590  12.964   8.857
 1691POPC   D2A24616  21.650  13.040   8.401
 1691POPC   C3A24617  21.548  12.701   8.096
 1691POPC   C4A24618  21.486  12.770   7.649
 1691POPC   C1B24619  21.095  13.004   8.722
 1691POPC   C2B24620  21.107  12.927   8.299
 1691POPC   C3B24621  21.167  13.064   7.902
 1691POPC   C4B24622  21.180  13.141   7.443
 1692POPC   NC324623  31.232  38.248   9.590
 1692POPC   PO424624  31.645  38.599   9.410
 1692POPC   GL124625  31.464  38.408   9.083
 1692POPC   GL224626  31.566  38.092   9.200
 1692POPC   C1A24627  31.491  38.516   8.620
 1692POPC   D2A24628  31.350  38.419   8.181
 1692POPC   C3A24629  31.636  38.616   7.866
 1692POPC   C4A24630  31.540  38.912   7.543
 1692POPC   C1B24631  31.551  38.035   8.743
 1692POPC   C2B24632  31.728  38.120   8.348
 1692POPC   C3B24633  31.637  38.111   7.891
 1692POPC   C4B24634  31.639  38.319   7.436
 1693POPC   NC324635   3.120  19.258   9.476
 1693POPC   PO424636   2.518  19.227   9.746
 1693POPC   GL124637   2.691  19.195   9.246
 1693POPC   GL224638   2.507  18.972   9.058
 1693POPC   C1A24639   2.854  19.234   8.785
 1693POPC   D2A24640   2.702  19.344   8.327
 1693POPC   C3A24641   2.828  19.115   7.955
 1693POPC   C4A24642   3.066  18.977   7.609
 1693POPC   C1B24643   2.384  19.081   8.614
 1693POPC   C2B24644   2.437  18.883   8.215
 1693POPC   C3B24645   2.326  19.063   7.836
 1693POPC   C4B24646   2.551  19.320   7.564
 1694POPC   NC324647  20.561  27.940   9.862
 1694POPC   PO424648  21.015  27.473   9.599
 1694POPC   GL124649  20.864  27.627   9.242
 1694POPC   GL224650  20.569  27.866   9.313
 1694POPC   C1A24651  20.958  27.491   8.834
 1694POPC   D2A24652  20.900  27.697   8.453
 1694POPC   C3A24653  20.893  27.503   8.064
 1694POPC   C4A24654  20.730  27.683   7.700
 1694POPC   C1B24655  20.436  27.650   8.902
 1694POPC   C2B24656  20.254  27.602   8.466
 1694POPC   C3B24657  20.369  27.656   8.054
 1694POPC   C4B24658  20.290  27.410   7.693
 1695POPC   NC324659  18.060   0.209   9.500
 1695POPC   PO424660  18.500   0.706   9.489
 1695POPC   GL124661  18.357   0.525   9.153
 1695POPC   GL224662  18.030   0.556   9.127
 1695POPC   C1A24663  18.516   0.365   8.786
 1695POPC   D2A24664  18.382   0.155   8.454
 1695POPC   C3A24665  18.605   0.306   8.119
 1695POPC   C4A24666  18.517   0.614   7.821
 1695POPC   C1B24667  17.982   0.273   8.798
 1695POPC   C2B24668  17.863   0.299   8.383
 1695POPC   C3B24669  18.087   0.301   8.023
 1695POPC   C4B24670  18.038   0.523   7.654
 1696POPC   NC324671  28.173   4.197   9.511
 1696POPC   PO424672  27.615   4.390   9.772
 1696POPC   GL124673  27.542   4.393   9.302
 1696POPC   GL224674  27.854   4.449   9.173
 1696POPC   C1A24675  27.465   4.216   8.894
 1696POPC   D2A24676  27.677   4.215   8.503
 1696POPC   C3A24677  27.485   4.027   8.172
 1696POPC   C4A24678  27.562   4.122   7.768
 1696POPC   C1B24679  27.889   4.616   8.752
 1696POPC   C2B24680  28.014   4.561   8.319
 1696POPC   C3B24681  27.694   4.523   8.055
 1696POPC   C4B24682  27.552   4.637   7.662
 1697POPC   NC324683   4.542  11.483   9.554
 1697POPC   PO424684   4.254  10.893   9.435
 1697POPC   GL124685   4.242  11.069   9.030
 1697POPC   GL224686   4.383  11.365   9.083
 1697POPC   C1A24687   4.412  11.008   8.612
 1697POPC   D2A24688   4.732  11.162   8.330
 1697POPC   C3A24689   4.516  11.260   7.962
 1697POPC   C4A24690   4.279  11.130   7.624
 1697POPC   C1B24691   4.192  11.451   8.666
 1697POPC   C2B24692   4.105  11.376   8.253
 1697POPC   C3B24693   4.136  11.586   7.853
 1697POPC   C4B24694   4.122  11.565   7.405
 1698POPC   NC324695  32.683  31.463   9.476
 1698POPC   PO424696  32.146  31.187   9.279
 1698POPC   GL124697  32.276  31.545   9.028
 1698POPC   GL224698  32.033  31.466   8.782
 1698POPC   C1A24699  32.315  31.861   8.696
 1698POPC   D2A24700  32.370  31.647   8.312
 1698POPC   C3A24701  32.102  31.557   7.982
 1698POPC   C4A24702  32.389  31.638   7.652
 1698POPC   C1B24703  32.461  31.268   8.667
 1698POPC   C2B24704  32.528  31.001   8.338
 1698POPC   C3B24705  32.425  31.147   7.917
 1698POPC   C4B24706  32.110  31.218   7.570
 1699POPC   NC324707  42.663  28.113   9.409
 1699POPC   PO424708  43.299  28.275   9.666
 1699POPC   GL124709  43.212  28.308   9.244
 1699POPC   GL224710  43.361  27.975   9.182
 1699POPC   C1A24711  43.065  28.570   8.885
 1699POPC   D2A24712  42.877  28.431   8.479
 1699POPC   C3A24713  43.125  28.410   8.123
 1699POPC   C4A24714  43.102  28.629   7.758
 1699POPC   C1B24715  43.343  28.151   8.764
 1699POPC   C2B24716  43.132  27.971   8.426
 1699POPC   C3B24717  42.853  27.938   8.093
 1699POPC   C4B24718  42.931  27.805   7.693
 1700POPC   NC324719   4.872  37.101   9.591
 1700POPC   PO424720   5.567  36.923   9.581
 1700POPC   GL124721   5.252  36.901   9.245
 1700POPC   GL224722   5.117  36.564   9.164
 1700POPC   C1A24723   5.323  36.865   8.809
 1700POPC   D2A24724   5.275  37.090   8.454
 1700POPC   C3A24725   5.197  36.893   8.089
 1700POPC   C4A24726   5.182  36.948   7.692
 1700POPC   C1B24727   5.121  36.381   8.757
 1700POPC   C2B24728   4.947  36.488   8.375
 1700POPC   C3B24729   4.810  36.582   7.973
 1700POPC   C4B24730   5.105  36.459   7.658
 1701POPC   NC324731  12.918  37.441   9.496
 1701POPC   PO424732  12.389  37.950   9.452
 1701POPC   GL124733  12.697  37.795   9.169
 1701POPC   GL224734  12.964  38.001   9.169
 1701POPC   C1A24735  12.975  37.624   8.825
 1701POPC   D2A24736  12.792  37.465   8.450
 1701POPC   C3A24737  12.890  37.466   8.029
 1701POPC   C4A24738  12.645  37.550   7.666
 1701POPC   C1B24739  12.833  38.144   8.785
 1701POPC   C2B24740  12.982  37.961   8.426
 1701POPC   C3B24741  12.855  37.954   8.043
 1701POPC   C4B24742  13.092  38.049   7.705
 1702POPC   NC324743  41.217  26.867   9.540
 1702POPC   PO424744  41.882  26.658   9.480
 1702POPC   GL124745  41.662  26.656   9.113
 1702POPC   GL224746  41.308  26.570   9.144
 1702POPC   C1A24747  41.537  26.579   8.695
 1702POPC   D2A24748  41.692  26.773   8.384
 1702POPC   C3A24749  41.534  26.563   8.095
 1702POPC   C4A24750  41.493  26.626   7.716
 1702POPC   C1B24751  41.321  26.987   8.900
 1702POPC   C2B24752  41.226  27.020   8.466
 1702POPC   C3B24753  41.309  27.015   8.038
 1702POPC   C4B24754  41.100  26.963   7.673
 1703POPC   NC324755  14.653  18.801   9.592
 1703POPC   PO424756  14.340  19.376   9.577
 1703POPC   GL124757  14.296  19.029   9.289
 1703POPC   GL224758  14.178  19.224   9.063
 1703POPC   C1A24759  14.413  18.821   8.884
 1703POPC   D2A24760  14.390  18.709   8.438
 1703POPC   C3A24761  14.324  18.924   8.036
 1703POPC   C4A24762  14.232  18.674   7.629
 1703POPC   C1B24763  14.414  19.315   8.708
 1703POPC   C2B24764  14.289  19.392   8.322
 1703POPC   C3B24765  14.209  19.545   7.961
 1703POPC   C4B24766  14.516  19.331   7.771
 1704POPC   NC324767  20.764   2.231   9.845
 1704POPC   PO424768  20.967   2.056   9.319
 1704POPC   GL124769  20.593   2.169   9.149
 1704POPC   GL224770  20.448   1.854   9.016
 1704POPC   C1A24771  20.421   2.281   8.749
 1704POPC   D2A24772  20.347   1.977   8.401
 1704POPC   C3A24773  20.359   2.115   7.976
 1704POPC   C4A24774  20.409   1.860   7.582
 1704POPC   C1B24775  20.784   1.916   8.693
 1704POPC   C2B24776  20.913   1.810   8.286
 1704POPC   C3B24777  20.841   1.970   7.891
 1704POPC   C4B24778  21.131   2.204   7.742
 1705POPC   NC324779   1.532   3.693   9.395
 1705POPC   PO424780   1.259   3.091   9.417
 1705POPC   GL124781   1.169   3.325   9.066
 1705POPC   GL224782   1.053   3.648   9.140
 1705POPC   C1A24783   1.275   3.238   8.639
 1705POPC   D2A24784   1.031   3.241   8.265
 1705POPC   C3A24785   1.074   3.517   7.910
 1705POPC   C4A24786   0.855   3.896   7.878
 1705POPC   C1B24787   1.289   3.767   8.758
 1705POPC   C2B24788   1.194   3.767   8.319
 1705POPC   C3B24789   1.384   3.909   7.893
 1705POPC   C4B24790   1.605   3.968   7.485
 1706POPC   NC324791  44.478   0.038   9.533
 1706POPC   PO424792  44.620  44.386   9.610
 1706POPC   GL124793  44.646  44.631   9.208
 1706POPC   GL224794  44.919  44.417   9.032
 1706POPC   C1A24795  44.521  44.968   8.884
 1706POPC   D2A24796  44.666   0.014   8.448
 1706POPC   C3A24797  44.450   0.046   8.048
 1706POPC   C4A24798  44.606   0.101   7.619
 1706POPC   C1B24799  44.582  44.497   8.722
 1706POPC   C2B24800  44.479  44.244   8.383
 1706POPC   C3B24801  44.581  44.364   7.975
 1706POPC   C4B24802  44.402  44.662   7.705
 1707POPC   NC324803   3.848  16.158   9.551
 1707POPC   PO424804   4.466  15.902   9.637
 1707POPC   GL124805   4.285  16.029   9.250
 1707POPC   GL224806   4.393  16.371   9.255
 1707POPC   C1A24807   4.184  15.866   8.832
 1707POPC   D2A24808   4.164  15.662   8.440
 1707POPC   C3A24809   4.385  15.881   8.110
 1707POPC   C4A24810   4.206  16.210   7.878
 1707POPC   C1B24811   4.667  16.317   8.872
 1707POPC   C2B24812   4.727  16.303   8.394
 1707POPC   C3B24813   4.794  16.152   7.946
 1707POPC   C4B24814   4.562  16.108   7.528
 1708POPC   NC324815  40.955  43.421   9.337
 1708POPC   PO424816  40.718  42.919   9.664
 1708POPC   GL124817  40.632  43.042   9.219
 1708POPC   GL224818  40.469  43.395   9.128
 1708POPC   C1A24819  40.837  43.101   8.792
 1708POPC   D2A24820  41.085  43.001   8.413
 1708POPC   C3A24821  40.898  43.152   8.003
 1708POPC   C4A24822  41.037  43.202   7.520
 1708POPC   C1B24823  40.310  43.066   8.828
 1708POPC   C2B24824  40.186  42.989   8.418
 1708POPC   C3B24825  40.361  43.170   8.061
 1708POPC   C4B24826  40.522  43.145   7.681
 1709POPC   NC324827  22.703  27.058   9.324
 1709POPC   PO424828  22.469  26.648   9.816
 1709POPC   GL124829  22.452  26.611   9.294
 1709POPC   GL224830  22.240  26.893   9.162
 1709POPC   C1A24831  22.281  26.548   8.803
 1709POPC   D2A24832  22.468  26.581   8.357
 1709POPC   C3A24833  22.152  26.626   8.026
 1709POPC   C4A24834  22.171  26.850   7.669
 1709POPC   C1B24835  22.372  27.042   8.748
 1709POPC   C2B24836  22.211  27.041   8.317
 1709POPC   C3B24837  22.465  27.166   7.938
 1709POPC   C4B24838  22.461  27.176   7.420
 1710POPC   NC324839   6.216  20.111   9.646
 1710POPC   PO424840   6.726  19.698   9.505
 1710POPC   GL124841   6.782  19.932   9.150
 1710POPC   GL224842   6.400  19.969   9.149
 1710POPC   C1A24843   6.751  19.703   8.770
 1710POPC   D2A24844   6.433  19.568   8.480
 1710POPC   C3A24845   6.675  19.651   8.116
 1710POPC   C4A24846   6.619  19.584   7.714
 1710POPC   C1B24847   6.438  20.121   8.727
 1710POPC   C2B24848   6.392  20.042   8.297
 1710POPC   C3B24849   6.440  20.063   7.862
 1710POPC   C4B24850   6.202  19.855   7.558
 1711POPC   NC324851  21.177  41.638   9.629
 1711POPC   PO424852  21.819  41.325   9.614
 1711POPC   GL124853  21.657  41.627   9.274
 1711POPC   GL224854  21.323  41.495   9.149
 1711POPC   C1A24855  21.591  41.782   8.828
 1711POPC   D2A24856  21.434  41.527   8.466
 1711POPC   C3A24857  21.581  41.648   8.058
 1711POPC   C4A24858  21.532  41.533   7.645
 1711POPC   C1B24859  21.193  41.159   8.833
 1711POPC   C2B24860  20.959  41.136   8.430
 1711POPC   C3B24861  21.183  41.258   8.076
 1711POPC   C4B24862  21.100  41.278   7.654
 1712POPC   NC324863   9.995   9.830   9.308
 1712POPC   PO424864   9.520   9.384   9.366
 1712POPC   GL124865   9.478   9.684   9.051
 1712POPC   GL224866   9.440  10.040   9.122
 1712POPC   C1A24867   9.571   9.566   8.628
 1712POPC   D2A24868   9.420   9.439   8.208
 1712POPC   C3A24869   9.705   9.473   7.849
 1712POPC   C4A24870   9.624   9.539   7.392
 1712POPC   C1B24871   9.687  10.065   8.726
 1712POPC   C2B24872   9.671   9.912   8.273
 1712POPC   C3B24873   9.693   9.987   7.834
 1712POPC   C4B24874  10.002  10.191   7.698
 1713POPC   NC324875  20.157  20.370   9.606
 1713POPC   PO424876  19.512  20.554   9.517
 1713POPC   GL124877  19.867  20.459   9.182
 1713POPC   GL224878  20.161  20.665   9.115
 1713POPC   C1A24879  19.864  20.514   8.723
 1713POPC   D2A24880  19.917  20.697   8.310
 1713POPC   C3A24881  19.670  20.560   7.963
 1713POPC   C4A24882  19.568  20.279   7.654
 1713POPC   C1B24883  20.323  20.767   8.658
 1713POPC   C2B24884  20.399  20.790   8.174
 1713POPC   C3B24885  20.082  20.868   7.832
 1713POPC   C4B24886  19.967  21.039   7.408
 1714POPC   NC324887  40.413  30.877   9.457
 1714POPC   PO424888  39.799  30.474   9.502
 1714POPC   GL124889  39.787  30.639   9.079
 1714POPC   GL224890  40.103  30.833   9.022
 1714POPC   C1A24891  39.942  30.470   8.683
 1714POPC   D2A24892  40.104  30.344   8.278
 1714POPC   C3A24893  40.110  30.603   7.888
 1714POPC   C4A24894  39.730  30.819   7.742
 1714POPC   C1B24895  39.889  31.005   8.650
 1714POPC   C2B24896  39.906  30.995   8.190
 1714POPC   C3B24897  40.146  31.118   7.809
 1714POPC   C4B24898  40.463  30.895   7.554
 1715POPC   NC324899   3.270  11.906   9.277
 1715POPC   PO424900   3.706  12.510   9.473
 1715POPC   GL124901   3.626  12.249   9.117
 1715POPC   GL224902   3.757  11.944   9.137
 1715POPC   C1A24903   3.423  12.115   8.693
 1715POPC   D2A24904   3.568  12.105   8.305
 1715POPC   C3A24905   3.333  11.974   7.995
 1715POPC   C4A24906   3.338  11.759   7.656
 1715POPC   C1B24907   3.925  12.071   8.728
 1715POPC   C2B24908   4.038  11.886   8.365
 1715POPC   C3B24909   3.989  12.051   8.013
 1715POPC   C4B24910   3.768  11.981   7.686
 1716POPC   NC324911   1.494  24.702   9.527
 1716POPC   PO424912   1.134  24.225   9.684
 1716POPC   GL124913   1.142  24.331   9.214
 1716POPC   GL224914   1.460  24.310   9.128
 1716POPC   C1A24915   1.179  24.415   8.737
 1716POPC   D2A24916   1.321  24.267   8.352
 1716POPC   C3A24917   1.196  24.495   8.044
 1716POPC   C4A24918   1.055  24.491   7.682
 1716POPC   C1B24919   1.658  24.638   8.876
 1716POPC   C2B24920   1.601  24.699   8.449
 1716POPC   C3B24921   1.464  24.943   8.103
 1716POPC   C4B24922   1.443  24.857   7.665
 1717POPC   NC324923  30.804  34.231   9.516
 1717POPC   PO424924  30.898  34.917   9.611
 1717POPC   GL124925  30.657  34.693   9.267
 1717POPC   GL224926  30.945  34.538   9.132
 1717POPC   C1A24927  30.521  34.485   8.844
 1717POPC   D2A24928  30.750  34.424   8.435
 1717POPC   C3A24929  30.506  34.484   8.051
 1717POPC   C4A24930  30.455  34.732   7.683
 1717POPC   C1B24931  30.905  34.799   8.786
 1717POPC   C2B24932  30.681  34.918   8.403
 1717POPC   C3B24933  30.849  34.867   7.967
 1717POPC   C4B24934  30.864  35.050   7.539
 1718POPC   NC324935  15.707  42.168   9.588
 1718POPC   PO424936  16.043  42.764   9.688
 1718POPC   GL124937  16.052  42.440   9.340
 1718POPC   GL224938  16.363  42.324   9.236
 1718POPC   C1A24939  15.897  42.371   8.917
 1718POPC   D2A24940  15.935  42.202   8.487
 1718POPC   C3A24941  15.697  42.303   8.116
 1718POPC   C4A24942  15.796  42.272   7.677
 1718POPC   C1B24943  16.341  42.113   8.856
 1718POPC   C2B24944  16.432  42.143   8.446
 1718POPC   C3B24945  16.290  42.197   8.002
 1718POPC   C4B24946  16.308  42.290   7.545
 1719POPC   NC324947   4.805   2.584   9.446
 1719POPC   PO424948   5.435   2.787   9.307
 1719POPC   GL124949   5.093   2.735   9.090
 1719POPC   GL224950   4.902   3.036   9.100
 1719POPC   C1A24951   4.851   2.626   8.774
 1719POPC   D2A24952   5.127   2.577   8.426
 1719POPC   C3A24953   5.244   2.363   8.067
 1719POPC   C4A24954   5.240   2.570   7.680
 1719POPC   C1B24955   5.187   3.024   8.711
 1719POPC   C2B24956   5.203   3.151   8.323
 1719POPC   C3B24957   5.046   2.971   7.963
 1719POPC   C4B24958   5.210   3.064   7.573
 1720POPC   NC324959  44.054   8.136   9.483
 1720POPC   PO424960  43.641   8.584   9.539
 1720POPC   GL124961  43.742   8.401   9.119
 1720POPC   GL224962  43.798   8.045   9.064
 1720POPC   C1A24963  43.721   8.323   8.652
 1720POPC   D2A24964  43.395   8.388   8.394
 1720POPC   C3A24965  43.505   8.309   8.000
 1720POPC   C4A24966  43.689   8.524   7.723
 1720POPC   C1B24967  44.171   8.243   8.848
 1720POPC   C2B24968  44.163   8.411   8.421
 1720POPC   C3B24969  44.025   8.274   8.029
 1720POPC   C4B24970  44.201   7.911   7.790
 1721POPC   NC324971   1.006  40.525   9.660
 1721POPC   PO424972   1.449  41.023   9.503
 1721POPC   GL124973   1.198  40.938   9.137
 1721POPC   GL224974   0.979  40.670   9.182
 1721POPC   C1A24975   1.315  40.785   8.724
 1721POPC   D2A24976   1.516  40.849   8.334
 1721POPC   C3A24977   1.294  40.672   7.996
 1721POPC   C4A24978   1.377  40.678   7.598
 1721POPC   C1B24979   0.817  40.646   8.793
 1721POPC   C2B24980   0.906  40.751   8.384
 1721POPC   C3B24981   0.765  40.564   8.021
 1721POPC   C4B24982   0.848  40.617   7.602
 1722POPC   NC324983  10.766  19.561   9.329
 1722POPC   PO424984  11.068  20.101   9.658
 1722POPC   GL124985  10.748  20.073   9.239
 1722POPC   GL224986  10.379  19.956   9.196
 1722POPC   C1A24987  10.548  20.042   8.758
 1722POPC   D2A24988  10.309  19.934   8.377
 1722POPC   C3A24989  10.459  19.956   7.979
 1722POPC   C4A24990  10.613  19.687   7.693
 1722POPC   C1B24991  10.204  19.667   8.796
 1722POPC   C2B24992   9.915  19.618   8.397
 1722POPC   C3B24993  10.030  19.650   7.923
 1722POPC   C4B24994  10.203  19.438   7.508
 1723POPC   NC324995  20.934  20.931   9.550
 1723POPC   PO424996  21.539  21.233   9.676
 1723POPC   GL124997  21.532  21.330   9.230
 1723POPC   GL224998  21.331  21.046   9.188
 1723POPC   C1A24999  21.384  21.443   8.790
 1723POPC   D2A25000  21.566  21.618   8.383
 1723POPC   C3A25001  21.391  21.561   7.937
 1723POPC   C4A25002  21.053  21.341   7.720
 1723POPC   C1B25003  21.564  20.969   8.810
 1723POPC   C2B25004  21.449  21.106   8.413
 1723POPC   C3B25005  21.386  21.048   8.017
 1723POPC   C4B25006  21.503  21.085   7.630
 1724POPC   NC325007  26.242  29.706   9.413
 1724POPC   PO425008  25.997  30.334   9.412
 1724POPC   GL125009  26.029  30.045   9.081
 1724POPC   GL225010  26.374  30.161   9.041
 1724POPC   C1A25011  25.870  29.915   8.678
 1724POPC   D2A25012  25.879  30.119   8.259
 1724POPC   C3A25013  26.025  29.920   7.887
 1724POPC   C4A25014  26.083  30.065   7.453
 1724POPC   C1B25015  26.376  29.965   8.621
 1724POPC   C2B25016  26.216  29.678   8.329
 1724POPC   C3B25017  26.347  29.525   7.945
 1724POPC   C4B25018  26.478  29.787   7.632
 1725POPC   NC325019  40.388  41.746   9.499
 1725POPC   PO425020  39.808  41.345   9.604
 1725POPC   GL125021  40.025  41.514   9.228
 1725POPC   GL225022  39.855  41.831   9.259
 1725POPC   C1A25023  40.341  41.491   8.850
 1725POPC   D2A25024  40.284  41.258   8.447
 1725POPC   C3A25025  40.045  41.493   8.121
 1725POPC   C4A25026  39.856  41.447   7.715
 1725POPC   C1B25027  40.044  41.933   8.844
 1725POPC   C2B25028  40.299  41.863   8.484
 1725POPC   C3B25029  40.427  41.813   8.072
 1725POPC   C4B25030  40.146  41.898   7.720
 1726POPC   NC325031  37.264  16.262   9.444
 1726POPC   PO425032  37.941  16.257   9.667
 1726POPC   GL125033  37.764  16.137   9.253
 1726POPC   GL225034  37.737  15.770   9.156
 1726POPC   C1A25035  37.827  16.136   8.796
 1726POPC   D2A25036  37.866  15.851   8.424
 1726POPC   C3A25037  37.714  15.939   8.006
 1726POPC   C4A25038  37.793  16.123   7.610
 1726POPC   C1B25039  37.427  15.819   8.778
 1726POPC   C2B25040  37.428  15.583   8.374
 1726POPC   C3B25041  37.306  15.622   7.960
 1726POPC   C4B25042  37.572  15.652   7.592
 1727POPC   NC325043   5.542   3.252   9.349
 1727POPC   PO425044   5.003   3.617   9.660
 1727POPC   GL125045   5.068   3.529   9.185
 1727POPC   GL225046   5.346   3.722   9.027
 1727POPC   C1A25047   4.999   3.484   8.700
 1727POPC   D2A25048   5.233   3.683   8.335
 1727POPC   C3A25049   5.237   3.484   7.928
 1727POPC   C4A25050   5.198   3.561   7.476
 1727POPC   C1B25051   5.521   3.440   8.688
 1727POPC   C2B25052   5.678   3.376   8.244
 1727POPC   C3B25053   5.647   3.180   7.813
 1727POPC   C4B25054   5.634   3.326   7.343
 1728POPC   NC325055  23.433  40.212   9.485
 1728POPC   PO425056  23.893  39.671   9.468
 1728POPC   GL125057  23.756  39.960   9.134
 1728POPC   GL225058  23.969  40.232   9.009
 1728POPC   C1A25059  23.584  39.905   8.710
 1728POPC   D2A25060  23.511  39.786   8.268
 1728POPC   C3A25061  23.833  39.902   7.965
 1728POPC   C4A25062  23.944  39.866   7.532
 1728POPC   C1B25063  23.573  40.403   8.835
 1728POPC   C2B25064  23.305  40.269   8.490
 1728POPC   C3B25065  23.486  40.304   8.108
 1728POPC   C4B25066  23.405  40.119   7.760
 1729POPC   NC325067  10.781  35.334   9.474
 1729POPC   PO425068  10.096  35.259   9.547
 1729POPC   GL125069  10.378  35.138   9.217
 1729POPC   GL225070  10.434  35.484   9.104
 1729POPC   C1A25071  10.680  35.041   8.872
 1729POPC   D2A25072  10.632  34.976   8.420
 1729POPC   C3A25073  10.492  35.329   8.155
 1729POPC   C4A25074  10.386  35.259   7.731
 1729POPC   C1B25075  10.493  35.472   8.667
 1729POPC   C2B25076  10.722  35.741   8.409
 1729POPC   C3B25077  10.798  35.766   8.018
 1729POPC   C4B25078  10.546  35.726   7.694
 1730POPC   NC325079  14.659  23.839   9.332
 1730POPC   PO425080  15.303  23.785   9.552
 1730POPC   GL125081  15.294  23.719   9.086
 1730POPC   GL225082  15.546  23.460   9.044
 1730POPC   C1A25083  15.022  23.722   8.663
 1730POPC   D2A25084  14.846  23.787   8.203
 1730POPC   C3A25085  15.028  23.489   7.844
 1730POPC   C4A25086  15.300  23.250   7.531
 1730POPC   C1B25087  15.547  23.636   8.614
 1730POPC   C2B25088  15.363  23.732   8.178
 1730POPC   C3B25089  15.154  23.983   7.827
 1730POPC   C4B25090  15.345  24.211   7.494
 1731POPC   NC325091  27.196   4.271   9.642
 1731POPC   PO425092  26.517   4.317   9.554
 1731POPC   GL125093  26.599   4.291   9.126
 1731POPC   GL225094  26.958   4.316   9.201
 1731POPC   C1A25095  26.551   4.237   8.658
 1731POPC   D2A25096  26.652   4.527   8.322
 1731POPC   C3A25097  26.663   4.329   7.901
 1731POPC   C4A25098  26.706   4.041   7.553
 1731POPC   C1B25099  26.998   4.438   8.799
 1731POPC   C2B25100  27.205   4.409   8.438
 1731POPC   C3B25101  27.192   4.420   8.017
 1731POPC   C4B25102  27.103   4.402   7.611
 1732POPC   NC325103   5.638  19.387   9.431
 1732POPC   PO425104   6.249  19.053   9.265
 1732POPC   GL125105   5.878  19.126   9.059
 1732POPC   GL225106   5.588  18.937   8.931
 1732POPC   C1A25107   5.922  19.177   8.652
 1732POPC   D2A25108   5.895  19.285   8.276
 1732POPC   C3A25109   5.995  18.897   8.066
 1732POPC   C4A25110   6.177  18.876   7.658
 1732POPC   C1B25111   5.483  19.376   8.805
 1732POPC   C2B25112   5.446  19.535   8.405
 1732POPC   C3B25113   5.408  19.189   8.086
 1732POPC   C4B25114   5.611  18.930   7.741
 1733POPC   NC325115  30.104   1.934   9.327
 1733POPC   PO425116  29.582   2.414   9.409
 1733POPC   GL125117  29.805   2.265   9.042
 1733POPC   GL225118  30.161   2.328   9.016
 1733POPC   C1A25119  29.868   1.899   8.747
 1733POPC   D2A25120  30.064   1.781   8.390
 1733POPC   C3A25121  29.832   2.003   8.081
 1733POPC   C4A25122  29.711   1.903   7.668
 1733POPC   C1B25123  30.233   2.244   8.592
 1733POPC   C2B25124  30.463   2.079   8.246
 1733POPC   C3B25125  30.319   1.865   7.920
 1733POPC   C4B25126  30.148   2.183   7.712
 1734POPC   NC325127  44.604  30.627   9.581
 1734POPC   PO425128  44.951  31.189   9.548
 1734POPC   GL125129  44.882  30.891   9.196
 1734POPC   GL225130  44.549  30.703   9.087
 1734POPC   C1A25131  44.884  30.919   8.748
 1734POPC   D2A25132  44.799  31.204   8.414
 1734POPC   C3A25133  44.951  31.067   8.024
 1734POPC   C4A25134  44.739  30.763   7.777
 1734POPC   C1B25135  44.380  30.589   8.686
 1734POPC   C2B25136  44.443  30.614   8.229
 1734POPC   C3B25137  44.274  30.579   7.826
 1734POPC   C4B25138  44.432  30.581   7.393
 1735POPC   NC325139   4.305  41.138   9.288
 1735POPC   PO425140   4.619  40.456   9.500
 1735POPC   GL125141   4.476  40.656   9.148
 1735POPC   GL225142   4.691  40.881   9.098
 1735POPC   C1A25143   4.365  40.807   8.712
 1735POPC   D2A25144   4.318  40.909   8.284
 1735POPC   C3A25145   4.098  40.620   8.033
 1735POPC   C4A25146   4.142  40.766   7.648
 1735POPC   C1B25147   4.925  40.941   8.742
 1735POPC   C2B25148   4.827  41.110   8.363
 1735POPC   C3B25149   4.721  41.062   7.968
 1735POPC   C4B25150   4.601  40.988   7.562
 1736POPC   NC325151  29.108  21.821   9.616
 1736POPC   PO425152  29.053  22.483   9.560
 1736POPC   GL125153  29.196  22.352   9.153
 1736POPC   GL225154  29.051  22.017   9.162
 1736POPC   C1A25155  29.262  22.130   8.735
 1736POPC   D2A25156  29.115  21.897   8.394
 1736POPC   C3A25157  29.308  22.038   8.010
 1736POPC   C4A25158  29.145  22.239   7.644
 1736POPC   C1B25159  28.758  22.190   8.841
 1736POPC   C2B25160  28.704  22.219   8.379
 1736POPC   C3B25161  28.774  21.993   7.974
 1736POPC   C4B25162  28.664  22.086   7.534
 1737POPC   NC325163  12.557  40.890   9.419
 1737POPC   PO425164  13.167  40.467   9.395
 1737POPC   GL125165  12.900  40.703   9.036
 1737POPC   GL225166  12.537  40.668   8.951
 1737POPC   C1A25167  12.995  40.615   8.572
 1737POPC   D2A25168  12.674  40.516   8.249
 1737POPC   C3A25169  12.779  40.634   7.841
 1737POPC   C4A25170  12.946  41.021   7.813
 1737POPC   C1B25171  12.653  40.962   8.645
 1737POPC   C2B25172  12.625  41.063   8.229
 1737POPC   C3B25173  12.479  41.197   7.834
 1737POPC   C4B25174  12.519  40.974   7.430
 1738POPC   NC325175  43.731   4.549   9.553
 1738POPC   PO425176  43.702   5.211   9.616
 1738POPC   GL125177  43.670   4.967   9.226
 1738POPC   GL225178  43.986   4.805   9.178
 1738POPC   C1A25179  43.648   5.083   8.785
 1738POPC   D2A25180  43.653   5.356   8.389
 1738POPC   C3A25181  43.651   5.112   7.986
 1738POPC   C4A25182  43.829   5.146   7.560
 1738POPC   C1B25183  44.069   4.742   8.737
 1738POPC   C2B25184  43.939   4.903   8.340
 1738POPC   C3B25185  44.168   5.105   7.976
 1738POPC   C4B25186  44.337   5.144   7.553
 1739POPC   NC325187   9.385   7.281   9.380
 1739POPC   PO425188   8.846   7.668   9.466
 1739POPC   GL125189   9.074   7.739   9.087
 1739POPC   GL225190   9.311   7.510   8.949
 1739POPC   C1A25191   9.067   7.851   8.674
 1739POPC   D2A25192   8.955   7.720   8.246
 1739POPC   C3A25193   9.067   7.306   8.117
 1739POPC   C4A25194   9.159   7.165   7.720
 1739POPC   C1B25195   9.030   7.330   8.652
 1739POPC   C2B25196   8.648   7.348   8.445
 1739POPC   C3B25197   8.559   7.164   8.077
 1739POPC   C4B25198   8.659   7.300   7.687
 1740POPC   NC325199   2.954  13.389   9.480
 1740POPC   PO425200   2.784  12.739   9.688
 1740POPC   GL125201   2.834  12.806   9.231
 1740POPC   GL225202   2.638  13.115   9.192
 1740POPC   C1A25203   2.984  12.774   8.768
 1740POPC   D2A25204   3.274  12.578   8.437
 1740POPC   C3A25205   3.136  12.735   8.037
 1740POPC   C4A25206   2.874  12.588   7.673
 1740POPC   C1B25207   2.463  12.918   8.812
 1740POPC   C2B25208   2.340  12.601   8.474
 1740POPC   C3B25209   2.501  12.622   8.042
 1740POPC   C4B25210   2.622  13.009   7.785
 1741POPC   NC325211  30.572  21.252   9.543
 1741POPC   PO425212  31.124  21.689   9.534
 1741POPC   GL125213  30.824  21.551   9.194
 1741POPC   GL225214  30.434  21.500   9.126
 1741POPC   C1A25215  30.825  21.409   8.772
 1741POPC   D2A25216  30.794  21.508   8.349
 1741POPC   C3A25217  30.801  21.237   7.978
 1741POPC   C4A25218  30.814  21.423   7.565
 1741POPC   C1B25219  30.366  21.187   8.814
 1741POPC   C2B25220  30.442  21.140   8.394
 1741POPC   C3B25221  30.321  21.453   8.120
 1741POPC   C4B25222  30.289  21.408   7.709
 1742POPC   NC325223  44.071  37.102   9.812
 1742POPC   PO425224  43.584  36.752   9.389
 1742POPC   GL125225  43.947  36.887   9.096
 1742POPC   GL225226  44.169  37.108   9.256
 1742POPC   C1A25227  43.985  36.990   8.664
 1742POPC   D2A25228  43.623  36.979   8.392
 1742POPC   C3A25229  43.703  36.778   8.005
 1742POPC   C4A25230  43.804  36.906   7.645
 1742POPC   C1B25231  44.217  37.382   8.880
 1742POPC   C2B25232  44.326  37.309   8.451
 1742POPC   C3B25233  44.155  37.004   8.160
 1742POPC   C4B25234  44.162  37.229   7.774
 1743POPC   NC325235  26.875  36.238   9.575
 1743POPC   PO425236  26.900  35.601   9.582
 1743POPC   GL125237  26.972  35.859   9.194
 1743POPC   GL225238  26.783  36.142   9.099
 1743POPC   C1A25239  27.093  35.979   8.733
 1743POPC   D2A25240  26.946  36.229   8.338
 1743POPC   C3A25241  26.962  35.967   7.921
 1743POPC   C4A25242  26.862  35.994   7.468
 1743POPC   C1B25243  26.424  36.157   8.863
 1743POPC   C2B25244  26.389  36.173   8.426
 1743POPC   C3B25245  26.525  36.263   8.014
 1743POPC   C4B25246  26.398  36.086   7.632
 1744POPC   NC325247  24.698  20.126   9.554
 1744POPC   PO425248  24.123  19.800   9.446
 1744POPC   GL125249  24.455  19.861   9.154
 1744POPC   GL225250  24.712  19.658   9.310
 1744POPC   C1A25251  24.543  19.873   8.714
 1744POPC   D2A25252  24.771  20.022   8.362
 1744POPC   C3A25253  24.576  19.920   7.984
 1744POPC   C4A25254  24.668  20.065   7.615
 1744POPC   C1B25255  24.886  19.559   8.920
 1744POPC   C2B25256  24.965  19.547   8.465
 1744POPC   C3B25257  24.908  19.419   8.015
 1744POPC   C4B25258  24.669  19.522   7.656
 1745POPC   NC325259  19.871  34.908   9.431
 1745POPC   PO425260  19.501  34.432   9.743
 1745POPC   GL125261  19.518  34.560   9.302
 1745POPC   GL225262  19.740  34.309   9.159
 1745POPC   C1A25263  19.521  34.590   8.840
 1745POPC   D2A25264  19.740  34.518   8.445
 1745POPC   C3A25265  19.585  34.579   8.039
 1745POPC   C4A25266  19.686  34.617   7.597
 1745POPC   C1B25267  20.062  34.455   8.838
 1745POPC   C2B25268  20.240  34.626   8.448
 1745POPC   C3B25269  20.117  34.477   8.056
 1745POPC   C4B25270  20.189  34.580   7.636
 1746POPC   NC325271   9.510   8.940   9.527
 1746POPC   PO425272  10.109   8.587   9.502
 1746POPC   GL125273   9.879   8.812   9.183
 1746POPC   GL225274   9.545   8.678   9.106
 1746POPC   C1A25275   9.822   9.101   8.844
 1746POPC   D2A25276   9.527   9.056   8.514
 1746POPC   C3A25277   9.740   9.014   8.136
 1746POPC   C4A25278   9.899   8.944   7.740
 1746POPC   C1B25279   9.692   8.621   8.712
 1746POPC   C2B25280   9.552   8.561   8.316
 1746POPC   C3B25281   9.502   8.599   7.891
 1746POPC   C4B25282   9.708   8.504   7.489
 1747POPC   NC325283  37.948  33.773   9.520
 1747POPC   PO425284  38.538  34.031   9.555
 1747POPC   GL125285  38.445  33.904   9.188
 1747POPC   GL225286  38.301  33.599   9.180
 1747POPC   C1A25287  38.363  33.926   8.763
 1747POPC   D2A25288  38.599  34.043   8.416
 1747POPC   C3A25289  38.433  33.872   8.049
 1747POPC   C4A25290  38.693  33.754   7.731
 1747POPC   C1B25291  38.228  33.447   8.780
 1747POPC   C2B25292  38.069  33.594   8.361
 1747POPC   C3B25293  38.154  33.418   7.960
 1747POPC   C4B25294  38.354  33.360   7.558
 1748POPC   NC325295  33.129   7.804   9.583
 1748POPC   PO425296  32.825   8.420   9.539
 1748POPC   GL125297  33.019   8.412   9.150
 1748POPC   GL225298  32.825   8.696   9.075
 1748POPC   C1A25299  33.031   8.291   8.730
 1748POPC   D2A25300  33.268   8.128   8.403
 1748POPC   C3A25301  33.070   8.063   8.008
 1748POPC   C4A25302  33.128   7.964   7.553
 1748POPC   C1B25303  32.796   8.750   8.654
 1748POPC   C2B25304  32.859   8.506   8.290
 1748POPC   C3B25305  32.767   8.436   7.880
 1748POPC   C4B25306  32.931   8.423   7.446
 1749POPC   NC325307  19.627  14.830   9.475
 1749POPC   PO425308  19.927  15.521   9.438
 1749POPC   GL125309  19.861  15.176   9.132
 1749POPC   GL225310  19.531  15.125   9.070
 1749POPC   C1A25311  19.866  14.894   8.764
 1749POPC   D2A25312  19.951  15.109   8.369
 1749POPC   C3A25313  19.866  15.192   7.942
 1749POPC   C4A25314  19.619  15.463   7.732
 1749POPC   C1B25315  19.489  15.225   8.666
 1749POPC   C2B25316  19.455  14.867   8.415
 1749POPC   C3B25317  19.609  14.772   8.018
 1749POPC   C4B25318  19.558  14.938   7.613
 1750POPC   NC325319   7.492  24.305   9.477
 1750POPC   PO425320   7.270  24.927   9.322
 1750POPC   GL125321   7.530  24.708   9.043
 1750POPC   GL225322   7.352  24.399   9.004
 1750POPC   C1A25323   7.624  24.787   8.614
 1750POPC   D2A25324   7.492  24.734   8.194
 1750POPC   C3A25325   7.106  24.479   8.112
 1750POPC   C4A25326   7.318  24.320   7.792
 1750POPC   C1B25327   7.137  24.359   8.635
 1750POPC   C2B25328   7.455  24.235   8.368
 1750POPC   C3B25329   7.709  23.967   8.188
 1750POPC   C4B25330   7.482  23.848   7.827
 1751POPC   NC325331  39.447  30.121   9.528
 1751POPC   PO425332  38.899  29.698   9.613
 1751POPC   GL125333  39.128  29.867   9.220
 1751POPC   GL225334  39.163  30.194   9.122
 1751POPC   C1A25335  39.340  29.807   8.825
 1751POPC   D2A25336  39.373  29.548   8.489
 1751POPC   C3A25337  39.210  29.678   8.130
 1751POPC   C4A25338  39.279  29.667   7.723
 1751POPC   C1B25339  39.466  30.296   8.793
 1751POPC   C2B25340  39.542  30.105   8.361
 1751POPC   C3B25341  39.341  30.155   7.952
 1751POPC   C4B25342  39.379  30.442   7.613
 1752POPC   NC325343  22.440  37.784   9.444
 1752POPC   PO425344  21.927  37.332   9.556
 1752POPC   GL125345  22.048  37.349   9.113
 1752POPC   GL225346  22.094  37.728   9.030
 1752POPC   C1A25347  21.931  37.414   8.662
 1752POPC   D2A25348  21.926  37.838   8.476
 1752POPC   C3A25349  22.051  37.806   8.074
 1752POPC   C4A25350  22.022  37.569   7.685
 1752POPC   C1B25351  22.444  37.523   8.793
 1752POPC   C2B25352  22.575  37.580   8.372
 1752POPC   C3B25353  22.417  37.445   8.019
 1752POPC   C4B25354  22.517  37.599   7.627
 1753POPC   NC325355  10.013   7.150   9.740
 1753POPC   PO425356   9.619   7.716   9.466
 1753POPC   GL125357   9.805   7.475   9.139
 1753POPC   GL225358   9.885   7.147   9.238
 1753POPC   C1A25359   9.750   7.410   8.710
 1753POPC   D2A25360   9.440   7.584   8.432
 1753POPC   C3A25361   9.656   7.542   8.074
 1753POPC   C4A25362   9.529   7.518   7.682
 1753POPC   C1B25363  10.071   7.007   8.841
 1753POPC   C2B25364   9.979   7.052   8.374
 1753POPC   C3B25365  10.083   7.257   7.945
 1753POPC   C4B25366   9.871   7.164   7.534
 1754POPC   NC325367  27.845  28.194   9.265
 1754POPC   PO425368  28.254  28.626   9.614
 1754POPC   GL125369  28.312  28.418   9.178
 1754POPC   GL225370  28.649  28.488   9.034
 1754POPC   C1A25371  28.212  28.324   8.712
 1754POPC   D2A25372  28.129  28.064   8.320
 1754POPC   C3A25373  28.217  28.103   7.898
 1754POPC   C4A25374  28.413  28.376   7.574
 1754POPC   C1B25375  28.914  28.379   8.668
 1754POPC   C2B25376  28.970  28.414   8.211
 1754POPC   C3B25377  28.794  28.584   7.833
 1754POPC   C4B25378  28.781  28.682   7.375
 1755POPC   NC325379  12.328  14.690   9.428
 1755POPC   PO425380  11.805  14.284   9.558
 1755POPC   GL125381  12.009  14.317   9.179
 1755POPC   GL225382  12.294  14.165   9.184
 1755POPC   C1A25383  12.159  14.513   8.790
 1755POPC   D2A25384  12.361  14.577   8.384
 1755POPC   C3A25385  12.190  14.507   7.947
 1755POPC   C4A25386  11.940  14.170   7.739
 1755POPC   C1B25387  12.282  14.010   8.791
 1755POPC   C2B25388  12.459  14.065   8.404
 1755POPC   C3B25389  12.360  14.023   8.012
 1755POPC   C4B25390  12.505  14.198   7.657
 1756POPC   NC325391  25.749  40.356   9.626
 1756POPC   PO425392  25.275  40.035   9.391
 1756POPC   GL125393  25.538  40.383   9.128
 1756POPC   GL225394  25.931  40.423   9.118
 1756POPC   C1A25395  25.682  40.591   8.697
 1756POPC   D2A25396  25.917  40.832   8.355
 1756POPC   C3A25397  25.833  40.760   7.900
 1756POPC   C4A25398  25.689  40.505   7.592
 1756POPC   C1B25399  26.185  40.492   8.680
 1756POPC   C2B25400  26.318  40.549   8.202
 1756POPC   C3B25401  26.278  40.577   7.729
 1756POPC   C4B25402  26.411  40.546   7.292
 1757POPC   NC325403  38.720  35.126   9.480
 1757POPC   PO425404  38.541  35.762   9.523
 1757POPC   GL125405  38.561  35.526   9.155
 1757POPC   GL225406  38.299  35.263   9.168
 1757POPC   C1A25407  38.691  35.535   8.726
 1757POPC   D2A25408  38.579  35.342   8.332
 1757POPC   C3A25409  38.643  35.555   7.924
 1757POPC   C4A25410  38.670  35.286   7.576
 1757POPC   C1B25411  38.181  35.440   8.759
 1757POPC   C2B25412  38.077  35.476   8.308
 1757POPC   C3B25413  38.248  35.252   7.936
 1757POPC   C4B25414  38.203  35.477   7.575
 1758POPC   NC325415  24.099  42.645   9.418
 1758POPC   PO425416  23.461  42.335   9.471
 1758POPC   GL125417  23.597  42.121   9.116
 1758POPC   GL225418  23.950  42.176   9.197
 1758POPC   C1A25419  23.482  41.981   8.711
 1758POPC   D2A25420  23.386  42.159   8.325
 1758POPC   C3A25421  23.386  41.982   7.908
 1758POPC   C4A25422  23.429  42.273   7.531
 1758POPC   C1B25423  23.899  42.389   8.805
 1758POPC   C2B25424  23.909  42.220   8.400
 1758POPC   C3B25425  23.780  42.278   7.997
 1758POPC   C4B25426  23.901  42.481   7.652
 1759POPC   NC325427   4.736   1.436   9.369
 1759POPC   PO425428   5.351   1.375   9.478
 1759POPC   GL125429   5.186   1.083   9.124
 1759POPC   GL225430   4.855   1.147   8.970
 1759POPC   C1A25431   5.216   0.939   8.679
 1759POPC   D2A25432   4.928   1.165   8.421
 1759POPC   C3A25433   5.106   1.420   8.146
 1759POPC   C4A25434   5.096   1.441   7.720
 1759POPC   C1B25435   4.719   1.521   8.714
 1759POPC   C2B25436   4.643   1.633   8.270
 1759POPC   C3B25437   4.651   1.342   7.918
 1759POPC   C4B25438   4.856   0.994   7.831
 1760POPC   NC325439  12.209   9.303   9.460
 1760POPC   PO425440  12.139   9.988   9.535
 1760POPC   GL125441  11.995   9.715   9.195
 1760POPC   GL225442  11.673   9.877   9.129
 1760POPC   C1A25443  11.952   9.695   8.729
 1760POPC   D2A25444  12.084   9.788   8.310
 1760POPC   C3A25445  11.887   9.775   7.911
 1760POPC   C4A25446  11.941  10.184   7.790
 1760POPC   C1B25447  11.596  10.119   8.737
 1760POPC   C2B25448  11.626  10.095   8.280
 1760POPC   C3B25449  11.429  10.187   7.890
 1760POPC   C4B25450  11.555   9.976   7.498
 1761POPC   NC325451  30.891  24.854   9.448
 1761POPC   PO425452  30.607  25.479   9.416
 1761POPC   GL125453  30.799  25.248   9.109
 1761POPC   GL225454  30.495  25.040   9.085
 1761POPC   C1A25455  30.828  25.083   8.686
 1761POPC   D2A25456  31.070  25.153   8.305
 1761POPC   C3A25457  30.806  25.272   8.011
 1761POPC   C4A25458  30.785  25.459   7.666
 1761POPC   C1B25459  30.449  25.422   8.782
 1761POPC   C2B25460  30.693  25.543   8.437
 1761POPC   C3B25461  30.629  25.769   8.056
 1761POPC   C4B25462  30.364  25.713   7.699
 1762POPC   NC325463  36.933  38.829   9.952
 1762POPC   PO425464  37.233  38.393   9.492
 1762POPC   GL125465  37.100  38.602   9.101
 1762POPC   GL225466  36.792  38.828   9.181
 1762POPC   C1A25467  36.919  38.361   8.735
 1762POPC   D2A25468  37.002  38.156   8.323
 1762POPC   C3A25469  36.788  38.304   7.941
 1762POPC   C4A25470  36.957  38.404   7.526
 1762POPC   C1B25471  36.563  38.717   8.797
 1762POPC   C2B25472  36.686  38.609   8.356
 1762POPC   C3B25473  36.813  38.799   7.965
 1762POPC   C4B25474  36.566  38.698   7.613
 1763POPC   NC325475  37.127   6.753   9.410
 1763POPC   PO425476  37.577   6.323   9.332
 1763POPC   GL125477  37.542   6.742   9.096
 1763POPC   GL225478  37.850   6.947   9.078
 1763POPC   C1A25479  37.529   6.924   8.671
 1763POPC   D2A25480  37.755   6.913   8.261
 1763POPC   C3A25481  37.597   6.720   7.859
 1763POPC   C4A25482  37.404   6.542   7.450
 1763POPC   C1B25483  37.939   6.605   8.773
 1763POPC   C2B25484  38.020   6.470   8.350
 1763POPC   C3B25485  38.124   6.657   7.948
 1763POPC   C4B25486  38.251   6.785   7.513
 1764POPC   NC325487   1.371  18.483   9.530
 1764POPC   PO425488   1.704  17.933   9.401
 1764POPC   GL125489   1.459  18.233   9.110
 1764POPC   GL225490   1.084  18.414   9.114
 1764POPC   C1A25491   1.348  18.397   8.691
 1764POPC   D2A25492   1.475  18.173   8.345
 1764POPC   C3A25493   1.553  18.358   7.948
 1764POPC   C4A25494   1.350  18.319   7.508
 1764POPC   C1B25495   0.913  18.648   8.757
 1764POPC   C2B25496   1.009  18.535   8.324
 1764POPC   C3B25497   0.736  18.515   7.968
 1764POPC   C4B25498   0.867  18.456   7.520
 1765POPC   NC325499  27.796   9.228   9.828
 1765POPC   PO425500  27.266   8.940   9.483
 1765POPC   GL125501  27.645   8.912   9.159
 1765POPC   GL225502  27.956   9.178   9.205
 1765POPC   C1A25503  27.662   9.016   8.721
 1765POPC   D2A25504  27.450   9.225   8.364
 1765POPC   C3A25505  27.621   9.067   7.976
 1765POPC   C4A25506  27.447   9.024   7.564
 1765POPC   C1B25507  28.081   9.388   8.796
 1765POPC   C2B25508  27.970   9.279   8.383
 1765POPC   C3B25509  27.914   9.478   7.981
 1765POPC   C4B25510  27.829   9.386   7.508
 1766POPC   NC325511  36.231  11.723   9.556
 1766POPC   PO425512  35.921  11.120   9.339
 1766POPC   GL125513  36.257  11.378   9.176
 1766POPC   GL225514  36.036  11.617   9.093
 1766POPC   C1A25515  36.408  11.333   8.765
 1766POPC   D2A25516  36.194  11.009   8.505
 1766POPC   C3A25517  36.328  11.043   8.089
 1766POPC   C4A25518  36.167  11.075   7.692
 1766POPC   C1B25519  35.958  11.562   8.661
 1766POPC   C2B25520  36.187  11.497   8.302
 1766POPC   C3B25521  36.140  11.713   7.932
 1766POPC   C4B25522  36.260  11.556   7.563
 1767POPC   NC325523  25.566   7.055   9.482
 1767POPC   PO425524  25.027   7.483   9.438
 1767POPC   GL125525  25.337   7.438   9.107
 1767POPC   GL225526  25.631   7.558   9.278
 1767POPC   C1A25527  25.350   7.357   8.650
 1767POPC   D2A25528  25.032   7.132   8.475
 1767POPC   C3A25529  25.113   7.138   8.041
 1767POPC   C4A25530  25.153   7.555   7.867
 1767POPC   C1B25531  25.771   7.551   8.827
 1767POPC   C2B25532  25.682   7.686   8.404
 1767POPC   C3B25533  25.630   7.463   8.027
 1767POPC   C4B25534  25.566   7.632   7.614
 1768POPC   NC325535   6.096  37.112   9.296
 1768POPC   PO425536   6.699  36.918   9.582
 1768POPC   GL125537   6.554  36.902   9.185
 1768POPC   GL225538   6.759  36.657   9.064
 1768POPC   C1A25539   6.513  37.142   8.787
 1768POPC   D2A25540   6.676  37.167   8.384
 1768POPC   C3A25541   6.460  36.944   8.098
 1768POPC   C4A25542   6.512  36.931   7.664
 1768POPC   C1B25543   6.904  36.813   8.722
 1768POPC   C2B25544   6.995  36.719   8.317
 1768POPC   C3B25545   6.933  36.807   7.908
 1768POPC   C4B25546   6.964  36.565   7.515
 1769POPC   NC325547  42.935   2.558   9.510
 1769POPC   PO425548  43.407   2.988   9.521
 1769POPC   GL125549  43.289   2.689   9.179
 1769POPC   GL225550  42.986   2.891   9.112
 1769POPC   C1A25551  43.102   2.527   8.768
 1769POPC   D2A25552  43.226   2.412   8.318
 1769POPC   C3A25553  42.960   2.546   7.943
 1769POPC   C4A25554  42.958   2.482   7.472
 1769POPC   C1B25555  42.951   3.105   8.710
 1769POPC   C2B25556  43.062   2.897   8.325
 1769POPC   C3B25557  43.390   2.819   8.023
 1769POPC   C4B25558  43.206   2.905   7.605
 1770POPC   NC325559   3.629   0.621   9.541
 1770POPC   PO425560   3.148   0.186   9.482
 1770POPC   GL125561   3.472   0.289   9.188
 1770POPC   GL225562   3.301   0.588   9.113
 1770POPC   C1A25563   3.614   0.392   8.758
 1770POPC   D2A25564   3.291   0.491   8.432
 1770POPC   C3A25565   3.286   0.252   8.043
 1770POPC   C4A25566   3.692   0.280   7.842
 1770POPC   C1B25567   3.321   0.878   8.771
 1770POPC   C2B25568   3.434   0.993   8.353
 1770POPC   C3B25569   3.509   0.751   7.999
 1770POPC   C4B25570   3.344   0.585   7.629
 1771POPC   NC325571   2.995  22.870   9.842
 1771POPC   PO425572   3.433  22.538   9.513
 1771POPC   GL125573   3.383  22.747   9.132
 1771POPC   GL225574   3.544  23.072   9.077
 1771POPC   C1A25575   3.522  22.746   8.703
 1771POPC   D2A25576   3.642  23.058   8.395
 1771POPC   C3A25577   3.604  22.852   8.056
 1771POPC   C4A25578   3.418  22.711   7.705
 1771POPC   C1B25579   3.321  23.235   8.771
 1771POPC   C2B25580   3.308  23.441   8.425
 1771POPC   C3B25581   3.387  23.457   8.042
 1771POPC   C4B25582   3.478  23.229   7.710
 1772POPC   NC325583  34.123  44.828   9.616
 1772POPC   PO425584  33.749  44.238   9.514
 1772POPC   GL125585  33.889  44.572   9.242
 1772POPC   GL225586  33.640  44.850   9.263
 1772POPC   C1A25587  33.862  44.639   8.800
 1772POPC   D2A25588  33.712  44.443   8.414
 1772POPC   C3A25589  33.795  44.599   8.008
 1772POPC   C4A25590  34.057  44.733   7.705
 1772POPC   C1B25591  33.586   0.058   8.848
 1772POPC   C2B25592  33.670  44.984   8.423
 1772POPC   C3B25593  33.455  44.965   8.041
 1772POPC   C4B25594  33.629  44.967   7.620
 1773POPC   NC325595  23.471  28.632   9.580
 1773POPC   PO425596  24.077  28.765   9.483
 1773POPC   GL125597  23.771  28.464   9.187
 1773POPC   GL225598  23.514  28.184   9.290
 1773POPC   C1A25599  23.541  28.464   8.774
 1773POPC   D2A25600  23.461  28.533   8.296
 1773POPC   C3A25601  23.830  28.543   7.960
 1773POPC   C4A25602  23.797  28.316   7.579
 1773POPC   C1B25603  23.359  27.981   8.894
 1773POPC   C2B25604  23.574  27.954   8.486
 1773POPC   C3B25605  23.633  28.083   8.060
 1773POPC   C4B25606  23.378  28.015   7.716
 1774POPC   NC325607  23.186  22.390   9.316
 1774POPC   PO425608  22.672  21.972   9.390
 1774POPC   GL125609  22.754  22.200   9.029
 1774POPC   GL225610  22.892  22.546   8.936
 1774POPC   C1A25611  22.848  22.157   8.611
 1774POPC   D2A25612  23.230  22.104   8.430
 1774POPC   C3A25613  23.156  22.200   8.050
 1774POPC   C4A25614  23.083  21.919   7.769
 1774POPC   C1B25615  23.339  22.542   8.717
 1774POPC   C2B25616  23.529  22.527   8.309
 1774POPC   C3B25617  23.361  22.647   7.919
 1774POPC   C4B25618  23.055  22.455   7.601
 1775POPC   NC325619   7.571  40.422   9.386
 1775POPC   PO425620   7.573  39.828   9.695
 1775POPC   GL125621   7.364  39.932   9.298
 1775POPC   GL225622   7.101  39.692   9.272
 1775POPC   C1A25623   7.348  40.060   8.862
 1775POPC   D2A25624   7.464  39.774   8.516
 1775POPC   C3A25625   7.402  39.962   8.120
 1775POPC   C4A25626   7.554  40.171   7.775
 1775POPC   C1B25627   6.956  39.716   8.843
 1775POPC   C2B25628   6.993  39.993   8.480
 1775POPC   C3B25629   6.888  39.887   8.085
 1775POPC   C4B25630   7.088  39.900   7.687
 1776POPC   NC325631   0.437  26.101   9.460
 1776POPC   PO425632   0.535  25.472   9.467
 1776POPC   GL125633   0.477  25.746   9.113
 1776POPC   GL225634   0.196  25.920   9.030
 1776POPC   C1A25635   0.622  25.930   8.716
 1776POPC   D2A25636   0.241  25.955   8.445
 1776POPC   C3A25637   0.278  25.728   8.067
 1776POPC   C4A25638   0.537  25.788   7.733
 1776POPC   C1B25639   0.298  26.321   8.809
 1776POPC   C2B25640   0.565  26.383   8.425
 1776POPC   C3B25641   0.612  26.210   8.024
 1776POPC   C4B25642   0.253  26.222   7.775
 1777POPC   NC325643  17.661  44.365   9.665
 1777POPC   PO425644  17.100  44.770   9.706
 1777POPC   GL125645  17.279  44.795   9.250
 1777POPC   GL225646  17.621  44.679   9.125
 1777POPC   C1A25647  17.266  44.833   8.785
 1777POPC   D2A25648  17.574  44.862   8.435
 1777POPC   C3A25649  17.502  44.767   7.976
 1777POPC   C4A25650  17.402  44.850   7.498
 1777POPC   C1B25651  17.664  44.444   8.709
 1777POPC   C2B25652  17.644  44.340   8.286
 1777POPC   C3B25653  17.501  44.251   7.889
 1777POPC   C4B25654  17.690  44.445   7.573
 1778POPC   NC325655  15.637  41.535   9.331
 1778POPC   PO425656  16.119  41.949   9.514
 1778POPC   GL125657  16.062  41.768   9.127
 1778POPC   GL225658  16.044  41.386   9.090
 1778POPC   C1A25659  15.815  41.790   8.746
 1778POPC   D2A25660  15.656  41.815   8.305
 1778POPC   C3A25661  15.894  41.844   7.947
 1778POPC   C4A25662  15.738  41.755   7.544
 1778POPC   C1B25663  15.839  41.284   8.673
 1778POPC   C2B25664  15.834  41.325   8.204
 1778POPC   C3B25665  16.028  41.379   7.785
 1778POPC   C4B25666  16.227  41.299   7.356
 1779POPC   NC325667  16.414  37.475   9.384
 1779POPC   PO425668  16.723  38.056   9.462
 1779POPC   GL125669  16.612  37.853   9.092
 1779POPC   GL225670  16.889  37.664   8.927
 1779POPC   C1A25671  16.375  37.721   8.727
 1779POPC   D2A25672  16.592  37.703   8.337
 1779POPC   C3A25673  16.484  37.827   7.917
 1779POPC   C4A25674  16.937  37.730   7.815
 1779POPC   C1B25675  16.660  37.300   8.755
 1779POPC   C2B25676  16.431  37.230   8.391
 1779POPC   C3B25677  16.556  37.313   7.968
 1779POPC   C4B25678  16.661  37.379   7.550
 1780POPC   NC325679  20.844   0.369   9.488
 1780POPC   PO425680  20.208   0.498   9.612
 1780POPC   GL125681  20.435   0.477   9.189
 1780POPC   GL225682  20.489   0.127   9.211
 1780POPC   C1A25683  20.749   0.640   8.838
 1780POPC   D2A25684  20.722   0.855   8.423
 1780POPC   C3A25685  20.694   0.599   8.041
 1780POPC   C4A25686  20.348   0.624   7.729
 1780POPC   C1B25687  20.662   0.142   8.810
 1780POPC   C2B25688  20.448   0.102   8.439
 1780POPC   C3B25689  20.342   0.199   8.037
 1780POPC   C4B25690  20.649   0.168   7.717
 1781POPC   NC325691  42.916  23.958   9.402
 1781POPC   PO425692  43.326  23.461   9.536
 1781POPC   GL125693  43.121  23.531   9.145
 1781POPC   GL225694  43.210  23.857   9.011
 1781POPC   C1A25695  43.148  23.464   8.689
 1781POPC   D2A25696  42.908  23.435   8.304
 1781POPC   C3A25697  43.065  23.651   7.929
 1781POPC   C4A25698  43.494  23.599   7.832
 1781POPC   C1B25699  42.897  23.947   8.719
 1781POPC   C2B25700  43.014  24.002   8.312
 1781POPC   C3B25701  42.769  24.092   7.955
 1781POPC   C4B25702  42.675  23.887   7.619
 1782POPC   NC325703  40.937  31.836   9.303
 1782POPC   PO425704  40.748  31.215   9.519
 1782POPC   GL125705  40.631  31.369   9.140
 1782POPC   GL225706  40.980  31.393   9.076
 1782POPC   C1A25707  40.643  31.267   8.688
 1782POPC   D2A25708  40.749  31.464   8.278
 1782POPC   C3A25709  40.743  31.243   7.861
 1782POPC   C4A25710  40.769  31.570   7.522
 1782POPC   C1B25711  41.086  31.560   8.698
 1782POPC   C2B25712  41.376  31.458   8.378
 1782POPC   C3B25713  41.183  31.477   7.982
 1782POPC   C4B25714  41.185  31.293   7.560
 1783POPC   NC325715  30.471  35.174   9.524
 1783POPC   PO425716  31.050  35.563   9.410
 1783POPC   GL125717  30.787  35.536   9.052
 1783POPC   GL225718  30.777  35.186   9.104
 1783POPC   C1A25719  30.607  35.392   8.631
 1783POPC   D2A25720  30.357  35.465   8.240
 1783POPC   C3A25721  30.574  35.296   7.883
 1783POPC   C4A25722  30.518  35.385   7.441
 1783POPC   C1B25723  30.451  34.990   8.885
 1783POPC   C2B25724  30.215  35.074   8.546
 1783POPC   C3B25725  30.252  34.972   8.104
 1783POPC   C4B25726  30.124  35.136   7.680
 1784POPC   NC325727   3.472  40.924   9.433
 1784POPC   PO425728   4.147  40.772   9.514
 1784POPC   GL125729   3.927  40.810   9.127
 1784POPC   GL225730   3.818  41.183   9.132
 1784POPC   C1A25731   3.613  40.636   8.813
 1784POPC   D2A25732   3.298  40.419   8.513
 1784POPC   C3A25733   3.382  40.511   8.066
 1784POPC   C4A25734   3.262  40.872   7.780
 1784POPC   C1B25735   3.875  41.090   8.703
 1784POPC   C2B25736   3.760  40.900   8.320
 1784POPC   C3B25737   3.756  41.002   7.887
 1784POPC   C4B25738   3.698  40.986   7.449
 1785POPC   NC325739  27.968   0.645   9.559
 1785POPC   PO425740  28.537   0.673   9.589
 1785POPC   GL125741  28.302   0.380   9.264
 1785POPC   GL225742  28.299   0.009   9.278
 1785POPC   C1A25743  28.239   0.510   8.838
 1785POPC   D2A25744  28.493   0.571   8.477
 1785POPC   C3A25745  28.240   0.623   8.125
 1785POPC   C4A25746  28.386   0.670   7.712
 1785POPC   C1B25747  28.198   0.003   8.826
 1785POPC   C2B25748  28.183   0.153   8.397
 1785POPC   C3B25749  28.316   0.158   7.951
 1785POPC   C4B25750  28.088   0.235   7.559
 1786POPC   NC325751  13.739  28.895   9.366
 1786POPC   PO425752  14.169  29.407   9.470
 1786POPC   GL125753  13.940  29.366   9.062
 1786POPC   GL225754  13.677  29.121   8.933
 1786POPC   C1A25755  13.944  29.373   8.621
 1786POPC   D2A25756  13.663  29.157   8.361
 1786POPC   C3A25757  13.636  29.311   7.933
 1786POPC   C4A25758  13.775  29.284   7.470
 1786POPC   C1B25759  13.447  28.824   8.728
 1786POPC   C2B25760  13.334  28.667   8.339
 1786POPC   C3B25761  13.217  28.936   8.006
 1786POPC   C4B25762  13.357  29.035   7.589
 1787POPC   NC325763  41.471  14.012   9.340
 1787POPC   PO425764  41.714  13.383   9.510
 1787POPC   GL125765  41.524  13.526   9.131
 1787POPC   GL225766  41.845  13.619   9.068
 1787POPC   C1A25767  41.427  13.592   8.679
 1787POPC   D2A25768  41.490  13.933   8.330
 1787POPC   C3A25769  41.319  13.765   7.935
 1787POPC   C4A25770  41.420  13.354   7.754
 1787POPC   C1B25771  41.871  13.832   8.690
 1787POPC   C2B25772  42.003  13.715   8.312
 1787POPC   C3B25773  41.812  13.650   7.945
 1787POPC   C4B25774  41.687  13.825   7.555
 1788POPC   NC325775  18.557   5.446   9.522
 1788POPC   PO425776  18.313   4.792   9.515
 1788POPC   GL125777  18.180   4.935   9.114
 1788POPC   GL225778  18.426   5.162   9.096
 1788POPC   C1A25779  18.092   5.089   8.687
 1788POPC   D2A25780  18.312   5.287   8.350
 1788POPC   C3A25781  18.201   5.168   7.922
 1788POPC   C4A25782  18.318   5.360   7.541
 1788POPC   C1B25783  18.570   4.908   8.726
 1788POPC   C2B25784  18.611   4.850   8.292
 1788POPC   C3B25785  18.695   5.136   8.014
 1788POPC   C4B25786  18.802   5.166   7.608
 1789POPC   NC325787   2.026   0.263   9.488
 1789POPC   PO425788   1.755   0.813   9.665
 1789POPC   GL125789   1.789   0.656   9.217
 1789POPC   GL225790   1.930   0.357   9.009
 1789POPC   C1A25791   1.623   0.695   8.803
 1789POPC   D2A25792   1.681   0.421   8.463
 1789POPC   C3A25793   1.671   0.505   8.046
 1789POPC   C4A25794   1.609   0.132   7.744
 1789POPC   C1B25795   2.165   0.426   8.636
 1789POPC   C2B25796   2.463   0.651   8.370
 1789POPC   C3B25797   2.307   0.709   7.962
 1789POPC   C4B25798   2.083   0.315   7.847
 1790POPC   NC325799  23.831  43.605   9.342
 1790POPC   PO425800  23.221  43.828   9.466
 1790POPC   GL125801  23.589  44.121   9.284
 1790POPC   GL225802  23.949  44.059   9.140
 1790POPC   C1A25803  23.609  44.304   8.852
 1790POPC   D2A25804  23.701  44.091   8.470
 1790POPC   C3A25805  23.707  44.228   8.049
 1790POPC   C4A25806  23.762  43.892   7.794
 1790POPC   C1B25807  24.151  44.136   8.736
 1790POPC   C2B25808  24.162  44.017   8.282
 1790POPC   C3B25809  24.266  43.926   7.870
 1790POPC   C4B25810  24.254  44.208   7.534
 1791POPC   NC325811  41.107   8.562   9.561
 1791POPC   PO425812  41.728   8.168   9.778
 1791POPC   GL125813  41.650   8.148   9.279
 1791POPC   GL225814  41.278   8.218   9.214
 1791POPC   C1A25815  41.590   8.223   8.824
 1791POPC   D2A25816  41.475   7.940   8.482
 1791POPC   C3A25817  41.633   8.144   8.097
 1791POPC   C4A25818  41.828   7.974   7.736
 1791POPC   C1B25819  41.076   7.952   8.865
 1791POPC   C2B25820  40.894   7.959   8.459
 1791POPC   C3B25821  41.120   8.033   8.115
 1791POPC   C4B25822  41.335   7.875   7.783
 1792POPC   NC325823  42.407  44.178   9.608
 1792POPC   PO425824  42.339  44.862   9.520
 1792POPC   GL125825  42.334  44.529   9.194
 1792POPC   GL225826  41.968  44.354   9.218
 1792POPC   C1A25827  42.565  44.476   8.761
 1792POPC   D2A25828  42.524  44.560   8.267
 1792POPC   C3A25829  42.197  44.797   8.053
 1792POPC   C4A25830  42.248   0.122   7.725
 1792POPC   C1B25831  42.072  44.339   8.776
 1792POPC   C2B25832  42.313  44.139   8.444
 1792POPC   C3B25833  42.241  44.187   8.005
 1792POPC   C4B25834  41.874  44.379   7.854
 1793POPC   NC325835  11.771  42.174   9.455
 1793POPC   PO425836  11.036  42.315   9.546
 1793POPC   GL125837  11.312  42.339   9.246
 1793POPC   GL225838  11.413  42.017   9.110
 1793POPC   C1A25839  11.281  42.454   8.823
 1793POPC   D2A25840  11.266  42.286   8.398
 1793POPC   C3A25841  11.163  42.582   8.068
 1793POPC   C4A25842  11.043  42.646   7.654
 1793POPC   C1B25843  11.644  41.900   8.726
 1793POPC   C2B25844  11.724  41.979   8.291
 1793POPC   C3B25845  11.509  42.201   7.941
 1793POPC   C4B25846  11.356  42.269   7.526
 1794POPC   NC325847   7.264  44.354   9.499
 1794POPC   PO425848   7.494   0.032   9.470
 1794POPC   GL125849   7.420  44.677   9.143
 1794POPC   GL225850   7.129  44.661   8.909
 1794POPC   C1A25851   7.442  44.260   8.886
 1794POPC   D2A25852   7.267  44.312   8.488
 1794POPC   C3A25853   7.447  44.534   8.152
 1794POPC   C4A25854   7.183  44.663   7.830
 1794POPC   C1B25855   7.560  44.698   8.671
 1794POPC   C2B25856   7.747  44.920   8.395
 1794POPC   C3B25857   7.736   0.121   8.025
 1794POPC   C4B25858   7.598  44.901   7.696
 1795POPC   NC325859  22.993  42.217   9.475
 1795POPC   PO425860  22.954  42.900   9.728
 1795POPC   GL125861  22.920  42.662   9.227
 1795POPC   GL225862  23.211  42.490   9.060
 1795POPC   C1A25863  22.929  42.716   8.716
 1795POPC   D2A25864  23.341  42.694   8.420
 1795POPC   C3A25865  23.316  42.530   7.972
 1795POPC   C4A25866  22.979  42.266   7.803
 1795POPC   C1B25867  23.020  42.194   8.737
 1795POPC   C2B25868  22.893  42.008   8.321
 1795POPC   C3B25869  22.593  41.964   7.971
 1795POPC   C4B25870  22.557  42.033   7.524
 1796POPC   NC325871   8.965   4.183   9.435
 1796POPC   PO425872   8.781   4.814   9.331
 1796POPC   GL125873   8.930   4.536   9.052
 1796POPC   GL225874   8.600   4.363   9.141
 1796POPC   C1A25875   9.182   4.528   8.656
 1796POPC   D2A25876   9.163   4.586   8.180
 1796POPC   C3A25877   9.154   4.283   7.839
 1796POPC   C4A25878   9.333   4.226   7.386
 1796POPC   C1B25879   8.576   4.357   8.725
 1796POPC   C2B25880   8.828   4.244   8.409
 1796POPC   C3B25881   8.697   4.388   8.039
 1796POPC   C4B25882   8.456   4.150   7.786
 1797POPC   NC325883   7.598  32.889   9.594
 1797POPC   PO425884   7.207  33.412   9.488
 1797POPC   GL125885   7.385  33.071   9.183
 1797POPC   GL225886   7.216  33.171   8.959
 1797POPC   C1A25887   7.557  32.849   8.795
 1797POPC   D2A25888   7.463  33.133   8.437
 1797POPC   C3A25889   7.277  32.953   8.063
 1797POPC   C4A25890   7.267  32.754   7.648
 1797POPC   C1B25891   7.254  33.505   8.749
 1797POPC   C2B25892   7.144  33.571   8.365
 1797POPC   C3B25893   7.246  33.451   7.999
 1797POPC   C4B25894   7.241  33.267   7.611
 1798POPC   NC325895  27.288  36.690   9.429
 1798POPC   PO425896  27.762  37.046   9.731
 1798POPC   GL125897  27.712  36.907   9.243
 1798POPC   GL225898  27.378  36.980   9.029
 1798POPC   C1A25899  27.769  36.741   8.799
 1798POPC   D2A25900  27.764  36.699   8.321
 1798POPC   C3A25901  27.736  36.829   7.863
 1798POPC   C4A25902  27.891  37.055   7.451
 1798POPC   C1B25903  27.280  36.726   8.646
 1798POPC   C2B25904  27.273  36.606   8.217
 1798POPC   C3B25905  27.222  36.684   7.766
 1798POPC   C4B25906  27.388  36.997   7.489
 1799POPC   NC325907  41.771  43.468   9.520
 1799POPC   PO425908  41.187  43.029   9.366
 1799POPC   GL125909  41.424  43.065   9.028
 1799POPC   GL225910  41.756  43.154   9.109
 1799POPC   C1A25911  41.536  42.851   8.663
 1799POPC   D2A25912  41.712  42.874   8.258
 1799POPC   C3A25913  41.386  43.011   7.985
 1799POPC   C4A25914  41.484  42.954   7.584
 1799POPC   C1B25915  41.785  43.368   8.706
 1799POPC   C2B25916  41.607  43.392   8.264
 1799POPC   C3B25917  41.816  43.237   7.864
 1799POPC   C4B25918  41.967  43.453   7.481
 1800POPC   NC325919  26.681  14.330   9.676
 1800POPC   PO425920  27.075  14.639   9.397
 1800POPC   GL125921  26.715  14.375   9.162
 1800POPC   GL225922  26.759  14.033   9.246
 1800POPC   C1A25923  26.538  14.118   8.790
 1800POPC   D2A25924  26.345  14.210   8.405
 1800POPC   C3A25925  26.663  14.184   8.073
 1800POPC   C4A25926  26.945  14.520   7.857
 1800POPC   C1B25927  27.050  14.049   8.910
 1800POPC   C2B25928  27.004  14.002   8.448
 1800POPC   C3B25929  27.191  14.126   8.038
 1800POPC   C4B25930  27.357  14.202   7.603
 1801POPC   NC325931   3.835  34.019   9.583
 1801POPC   PO425932   3.258  33.616   9.445
 1801POPC   GL125933   3.539  33.710   9.126
 1801POPC   GL225934   3.851  33.912   9.050
 1801POPC   C1A25935   3.490  33.687   8.711
 1801POPC   D2A25936   3.278  33.912   8.416
 1801POPC   C3A25937   3.516  33.870   8.065
 1801POPC   C4A25938   3.428  33.831   7.653
 1801POPC   C1B25939   4.031  33.647   8.688
 1801POPC   C2B25940   3.992  33.639   8.205
 1801POPC   C3B25941   3.972  33.849   7.794
 1801POPC   C4B25942   3.836  33.698   7.368
 1802POPC   NC325943  23.676  41.895   9.559
 1802POPC   PO425944  23.661  41.219   9.645
 1802POPC   GL125945  23.567  41.501   9.256
 1802POPC   GL225946  23.876  41.659   9.154
 1802POPC   C1A25947  23.511  41.475   8.801
 1802POPC   D2A25948  23.601  41.212   8.430
 1802POPC   C3A25949  23.365  41.215   8.045
 1802POPC   C4A25950  23.448  41.513   7.724
 1802POPC   C1B25951  23.958  41.843   8.773
 1802POPC   C2B25952  23.801  41.698   8.383
 1802POPC   C3B25953  23.904  41.777   7.968
 1802POPC   C4B25954  23.807  41.954   7.574
 1803POPC   NC325955  21.187  17.203   9.548
 1803POPC   PO425956  21.536  17.691   9.358
 1803POPC   GL125957  21.192  17.577   9.071
 1803POPC   GL225958  21.140  17.253   9.060
 1803POPC   C1A25959  21.226  17.501   8.619
 1803POPC   D2A25960  21.622  17.325   8.413
 1803POPC   C3A25961  21.717  17.452   8.022
 1803POPC   C4A25962  21.454  17.621   7.716
 1803POPC   C1B25963  21.353  17.035   8.763
 1803POPC   C2B25964  21.244  16.981   8.356
 1803POPC   C3B25965  21.230  17.242   7.939
 1803POPC   C4B25966  21.308  17.241   7.410
 1804POPC   NC325967  25.931   7.981   9.575
 1804POPC   PO425968  26.519   7.935   9.406
 1804POPC   GL125969  26.132   8.163   9.142
 1804POPC   GL225970  25.803   8.000   9.055
 1804POPC   C1A25971  25.835   8.447   8.840
 1804POPC   D2A25972  26.037   8.530   8.450
 1804POPC   C3A25973  25.788   8.419   8.100
 1804POPC   C4A25974  26.076   8.323   7.803
 1804POPC   C1B25975  26.004   8.005   8.655
 1804POPC   C2B25976  26.173   8.071   8.259
 1804POPC   C3B25977  25.933   7.872   7.973
 1804POPC   C4B25978  26.022   7.841   7.585
 1805POPC   NC325979  42.381   5.106   9.968
 1805POPC   PO425980  42.133   4.978   9.357
 1805POPC   GL125981  42.450   5.067   8.995
 1805POPC   GL225982  42.342   5.398   8.877
 1805POPC   C1A25983  42.685   5.172   8.581
 1805POPC   D2A25984  42.637   4.971   8.186
 1805POPC   C3A25985  42.418   5.075   7.814
 1805POPC   C4A25986  42.458   4.890   7.408
 1805POPC   C1B25987  42.191   5.137   8.501
 1805POPC   C2B25988  42.014   5.229   8.093
 1805POPC   C3B25989  41.943   5.180   7.620
 1805POPC   C4B25990  42.021   5.145   7.179
 1806POPC   NC325991  20.066  26.640   9.537
 1806POPC   PO425992  19.655  27.130   9.475
 1806POPC   GL125993  19.759  26.841   9.158
 1806POPC   GL225994  19.466  26.645   9.077
 1806POPC   C1A25995  20.020  26.819   8.774
 1806POPC   D2A25996  20.144  27.062   8.414
 1806POPC   C3A25997  20.074  26.878   8.009
 1806POPC   C4A25998  19.917  27.038   7.641
 1806POPC   C1B25999  19.499  26.832   8.707
 1806POPC   C2B26000  19.682  26.817   8.326
 1806POPC   C3B26001  19.533  26.757   7.895
 1806POPC   C4B26002  19.662  26.663   7.432
 1807POPC   NC326003  36.474  24.331   9.759
 1807POPC   PO426004  36.108  24.793   9.444
 1807POPC   GL126005  36.327  24.654   9.089
 1807POPC   GL226006  35.984  24.709   8.946
 1807POPC   C1A26007  36.269  24.348   8.729
 1807POPC   D2A26008  36.021  24.329   8.364
 1807POPC   C3A26009  36.266  24.257   8.013
 1807POPC   C4A26010  36.067  24.226   7.650
 1807POPC   C1B26011  36.245  24.851   8.621
 1807POPC   C2B26012  36.304  24.770   8.193
 1807POPC   C3B26013  35.989  24.676   7.887
 1807POPC   C4B26014  35.994  24.700   7.388
 1808POPC   NC326015   8.434  42.138   9.326
 1808POPC   PO426016   8.016  41.546   9.276
 1808POPC   GL126017   8.130  41.864   9.028
 1808POPC   GL226018   8.481  41.740   9.041
 1808POPC   C1A26019   8.145  41.759   8.628
 1808POPC   D2A26020   8.086  41.417   8.360
 1808POPC   C3A26021   7.938  41.556   7.986
 1808POPC   C4A26022   8.080  41.927   7.800
 1808POPC   C1B26023   8.492  41.375   8.796
 1808POPC   C2B26024   8.596  41.471   8.407
 1808POPC   C3B26025   8.545  41.273   8.080
 1808POPC   C4B26026   8.431  41.561   7.801
 1809POPC   NC326027  24.978  18.789   9.483
 1809POPC   PO426028  25.672  19.031   9.596
 1809POPC   GL126029  25.582  19.156   9.150
 1809POPC   GL226030  25.222  19.182   9.088
 1809POPC   C1A26031  25.499  18.957   8.743
 1809POPC   D2A26032  25.293  19.065   8.381
 1809POPC   C3A26033  25.530  19.022   8.044
 1809POPC   C4A26034  25.622  19.020   7.654
 1809POPC   C1B26035  24.952  19.098   8.743
 1809POPC   C2B26036  24.777  19.058   8.341
 1809POPC   C3B26037  25.026  18.898   7.979
 1809POPC   C4B26038  25.121  19.111   7.596
 1810POPC   NC326039  11.391  34.237   9.449
 1810POPC   PO426040  11.023  34.892   9.471
 1810POPC   GL126041  11.005  34.704   9.075
 1810POPC   GL226042  11.314  34.592   9.080
 1810POPC   C1A26043  11.069  34.757   8.611
 1810POPC   D2A26044  11.088  34.866   8.156
 1810POPC   C3A26045  11.075  34.564   7.845
 1810POPC   C4A26046  11.078  34.388   7.415
 1810POPC   C1B26047  11.395  35.021   8.885
 1810POPC   C2B26048  11.503  35.030   8.409
 1810POPC   C3B26049  11.560  34.697   8.030
 1810POPC   C4B26050  11.469  34.650   7.545
 1811POPC   NC326051  15.245  16.458   9.805
 1811POPC   PO426052  15.350  16.951   9.372
 1811POPC   GL126053  15.461  16.801   9.004
 1811POPC   GL226054  15.546  16.415   9.122
 1811POPC   C1A26055  15.452  16.896   8.578
 1811POPC   D2A26056  15.053  16.837   8.424
 1811POPC   C3A26057  15.098  16.872   8.023
 1811POPC   C4A26058  14.894  16.856   7.687
 1811POPC   C1B26059  15.368  16.397   8.670
 1811POPC   C2B26060  15.284  16.404   8.204
 1811POPC   C3B26061  15.368  16.524   7.760
 1811POPC   C4B26062  15.621  16.584   7.355
 1812POPC   NC326063   9.931  20.105   9.417
 1812POPC   PO426064   9.261  19.771   9.498
 1812POPC   GL126065   9.571  19.887   9.108
 1812POPC   GL226066   9.687  19.623   8.897
 1812POPC   C1A26067   9.905  20.071   8.777
 1812POPC   D2A26068   9.826  20.118   8.354
 1812POPC   C3A26069  10.006  20.193   7.985
 1812POPC   C4A26070   9.745  20.057   7.667
 1812POPC   C1B26071   9.447  19.885   8.590
 1812POPC   C2B26072   9.402  19.860   8.130
 1812POPC   C3B26073   9.507  19.610   7.763
 1812POPC   C4B26074   9.369  19.362   7.379
 1813POPC   NC326075  23.247   6.294   9.524
 1813POPC   PO426076  22.696   5.827   9.509
 1813POPC   GL126077  22.986   5.856   9.196
 1813POPC   GL226078  22.840   6.146   9.140
 1813POPC   C1A26079  22.953   5.744   8.759
 1813POPC   D2A26080  23.192   5.725   8.378
 1813POPC   C3A26081  23.088   5.827   7.911
 1813POPC   C4A26082  23.004   5.837   7.447
 1813POPC   C1B26083  22.953   6.244   8.722
 1813POPC   C2B26084  22.913   6.159   8.288
 1813POPC   C3B26085  22.650   6.410   7.996
 1813POPC   C4B26086  22.771   6.231   7.653
 1814POPC   NC326087  33.400   1.343   9.402
 1814POPC   PO426088  33.898   0.940   9.702
 1814POPC   GL126089  33.887   1.068   9.247
 1814POPC   GL226090  33.880   1.397   9.146
 1814POPC   C1A26091  33.676   1.065   8.807
 1814POPC   D2A26092  33.580   1.274   8.413
 1814POPC   C3A26093  33.580   0.978   8.058
 1814POPC   C4A26094  33.734   1.082   7.652
 1814POPC   C1B26095  34.121   1.604   8.843
 1814POPC   C2B26096  34.116   1.539   8.400
 1814POPC   C3B26097  34.147   1.701   7.939
 1814POPC   C4B26098  34.022   1.511   7.561
 1815POPC   NC326099  40.357  40.065   9.435
 1815POPC   PO426100  41.018  40.029   9.454
 1815POPC   GL126101  40.945  39.983   9.030
 1815POPC   GL226102  40.630  39.848   9.041
 1815POPC   C1A26103  40.918  39.856   8.593
 1815POPC   D2A26104  40.554  39.732   8.380
 1815POPC   C3A26105  40.490  39.868   8.005
 1815POPC   C4A26106  40.799  39.995   7.740
 1815POPC   C1B26107  40.494  40.121   8.722
 1815POPC   C2B26108  40.345  40.252   8.334
 1815POPC   C3B26109  40.477  40.378   7.918
 1815POPC   C4B26110  40.314  40.168   7.594
 1816POPC   NC326111  32.993  36.547   9.503
 1816POPC   PO426112  32.584  37.119   9.345
 1816POPC   GL126113  32.783  36.806   9.076
 1816POPC   GL226114  33.103  36.629   9.026
 1816POPC   C1A26115  32.958  37.006   8.710
 1816POPC   D2A26116  32.693  37.073   8.371
 1816POPC   C3A26117  32.901  37.004   7.983
 1816POPC   C4A26118  32.939  37.149   7.564
 1816POPC   C1B26119  32.770  36.534   8.677
 1816POPC   C2B26120  32.996  36.631   8.333
 1816POPC   C3B26121  33.231  36.571   7.961
 1816POPC   C4B26122  33.046  36.643   7.569
 1817POPC   NC326123   4.936  12.386   9.447
 1817POPC   PO426124   5.000  11.714   9.331
 1817POPC   GL126125   5.084  12.067   9.072
 1817POPC   GL226126   4.718  12.091   9.087
 1817POPC   C1A26127   5.301  12.049   8.676
 1817POPC   D2A26128   5.507  11.737   8.441
 1817POPC   C3A26129   5.357  11.841   8.065
 1817POPC   C4A26130   5.365  12.124   7.774
 1817POPC   C1B26131   4.804  12.170   8.659
 1817POPC   C2B26132   4.905  12.042   8.269
 1817POPC   C3B26133   4.813  12.315   7.952
 1817POPC   C4B26134   4.683  12.697   7.757
 1818POPC   NC326135  12.788  29.204   9.355
 1818POPC   PO426136  13.458  29.254   9.362
 1818POPC   GL126137  13.155  29.209   9.005
 1818POPC   GL226138  13.021  28.886   9.004
 1818POPC   C1A26139  12.830  29.189   8.653
 1818POPC   D2A26140  12.778  28.950   8.269
 1818POPC   C3A26141  12.777  29.190   7.917
 1818POPC   C4A26142  13.141  29.430   7.828
 1818POPC   C1B26143  12.676  28.693   8.717
 1818POPC   C2B26144  12.385  28.640   8.342
 1818POPC   C3B26145  12.560  28.618   7.912
 1818POPC   C4B26146  12.912  28.749   7.645
 1819POPC   NC326147  22.968  25.526   9.517
 1819POPC   PO426148  22.724  24.878   9.494
 1819POPC   GL126149  22.839  25.142   9.176
 1819POPC   GL226150  22.646  25.439   9.148
 1819POPC   C1A26151  22.815  25.171   8.723
 1819POPC   D2A26152  23.047  25.140   8.327
 1819POPC   C3A26153  22.945  25.269   7.881
 1819POPC   C4A26154  22.792  25.010   7.494
 1819POPC   C1B26155  22.614  25.630   8.746
 1819POPC   C2B26156  22.660  25.487   8.332
 1819POPC   C3B26157  22.534  25.109   8.135
 1819POPC   C4B26158  22.422  25.248   7.741
 1820POPC   NC326159  15.500  17.365   9.539
 1820POPC   PO426160  14.967  17.773   9.535
 1820POPC   GL126161  15.146  17.528   9.193
 1820POPC   GL226162  15.441  17.732   9.182
 1820POPC   C1A26163  14.962  17.369   8.745
 1820POPC   D2A26164  14.743  17.260   8.313
 1820POPC   C3A26165  14.991  17.375   7.954
 1820POPC   C4A26166  15.423  17.277   8.027
 1820POPC   C1B26167  15.245  17.800   8.784
 1820POPC   C2B26168  15.317  17.628   8.398
 1820POPC   C3B26169  15.417  17.782   8.009
 1820POPC   C4B26170  15.042  17.900   7.811
 1821POPC   NC326171  23.577   2.003   9.576
 1821POPC   PO426172  24.198   2.070   9.302
 1821POPC   GL126173  23.856   1.828   9.121
 1821POPC   GL226174  23.440   1.812   9.120
 1821POPC   C1A26175  23.866   1.840   8.684
 1821POPC   D2A26176  23.958   2.060   8.316
 1821POPC   C3A26177  23.875   1.787   8.008
 1821POPC   C4A26178  23.964   1.871   7.586
 1821POPC   C1B26179  23.530   2.178   8.899
 1821POPC   C2B26180  23.521   2.265   8.488
 1821POPC   C3B26181  23.450   2.073   8.113
 1821POPC   C4B26182  23.604   2.164   7.755
 1822POPC   NC326183  14.318  10.279   9.486
 1822POPC   PO426184  14.532  10.893   9.691
 1822POPC   GL126185  14.418  10.739   9.266
 1822POPC   GL226186  14.609  10.850   8.989
 1822POPC   C1A26187  14.208  10.566   8.869
 1822POPC   D2A26188  14.337  10.374   8.454
 1822POPC   C3A26189  14.273  10.537   8.038
 1822POPC   C4A26190  14.267  10.398   7.599
 1822POPC   C1B26191  14.501  10.847   8.566
 1822POPC   C2B26192  14.698  10.782   8.208
 1822POPC   C3B26193  14.739  10.976   7.832
 1822POPC   C4B26194  14.732  10.827   7.423
 1823POPC   NC326195   0.219  13.559   9.668
 1823POPC   PO426196   0.679  14.006   9.698
 1823POPC   GL126197   0.612  13.551   9.367
 1823POPC   GL226198   0.283  13.637   9.175
 1823POPC   C1A26199   0.594  13.396   8.868
 1823POPC   D2A26200   0.420  13.660   8.476
 1823POPC   C3A26201   0.618  13.571   8.067
 1823POPC   C4A26202   0.617  13.577   7.623
 1823POPC   C1B26203   0.096  13.949   8.837
 1823POPC   C2B26204  44.908  14.009   8.477
 1823POPC   C3B26205   0.038  13.908   8.099
 1823POPC   C4B26206   0.275  13.914   7.761
 1824POPC   NC326207   2.303  43.620   9.571
 1824POPC   PO426208   1.731  43.295   9.555
 1824POPC   GL126209   1.827  43.645   9.239
 1824POPC   GL226210   2.205  43.741   9.102
 1824POPC   C1A26211   1.793  43.821   8.821
 1824POPC   D2A26212   1.929  43.646   8.421
 1824POPC   C3A26213   1.828  43.920   8.078
 1824POPC   C4A26214   1.744  43.745   7.710
 1824POPC   C1B26215   2.329  43.895   8.702
 1824POPC   C2B26216   2.317  43.962   8.261
 1824POPC   C3B26217   2.267  43.768   7.864
 1824POPC   C4B26218   2.129  44.041   7.560
 1825POPC   NC326219  25.387  19.401   9.555
 1825POPC   PO426220  25.090  19.940   9.715
 1825POPC   GL126221  25.119  19.964   9.235
 1825POPC   GL226222  25.331  19.690   9.132
 1825POPC   C1A26223  25.116  19.980   8.759
 1825POPC   D2A26224  25.305  19.991   8.341
 1825POPC   C3A26225  25.087  19.889   7.938
 1825POPC   C4A26226  25.092  19.755   7.479
 1825POPC   C1B26227  25.412  19.498   8.707
 1825POPC   C2B26228  25.407  19.514   8.223
 1825POPC   C3B26229  25.381  19.480   7.797
 1825POPC   C4B26230  25.459  19.407   7.334
 1826POPC   NC326231  25.545  30.417   9.510
 1826POPC   PO426232  25.189  29.783   9.532
 1826POPC   GL126233  25.181  29.653   9.133
 1826POPC   GL226234  25.540  29.754   9.088
 1826POPC   C1A26235  25.111  29.897   8.771
 1826POPC   D2A26236  25.398  30.036   8.443
 1826POPC   C3A26237  25.295  30.083   8.001
 1826POPC   C4A26238  25.592  30.094   7.652
 1826POPC   C1B26239  25.486  29.556   8.695
 1826POPC   C2B26240  25.685  29.605   8.305
 1826POPC   C3B26241  25.556  29.647   7.898
 1826POPC   C4B26242  25.567  29.550   7.471
 1827POPC   NC326243  11.382  14.080   9.592
 1827POPC   PO426244  11.867  13.608   9.743
 1827POPC   GL126245  11.659  13.681   9.276
 1827POPC   GL226246  11.321  13.871   9.136
 1827POPC   C1A26247  11.527  13.574   8.805
 1827POPC   D2A26248  11.318  13.498   8.415
 1827POPC   C3A26249  11.276  13.799   8.109
 1827POPC   C4A26250  11.482  13.929   7.724
 1827POPC   C1B26251  11.059  13.823   8.726
 1827POPC   C2B26252  10.804  13.545   8.435
 1827POPC   C3B26253  10.956  13.393   8.031
 1827POPC   C4B26254  11.047  13.665   7.669
 1828POPC   NC326255   2.441  39.966   9.355
 1828POPC   PO426256   2.989  40.329   9.442
 1828POPC   GL126257   2.891  40.075   9.120
 1828POPC   GL226258   2.952  39.720   9.089
 1828POPC   C1A26259   2.686  40.104   8.753
 1828POPC   D2A26260   2.887  40.011   8.405
 1828POPC   C3A26261   2.869  40.353   8.145
 1828POPC   C4A26262   2.742  40.278   7.744
 1828POPC   C1B26263   2.616  39.601   8.809
 1828POPC   C2B26264   2.410  39.772   8.460
 1828POPC   C3B26265   2.508  39.953   8.068
 1828POPC   C4B26266   2.423  39.827   7.653
 1829POPC   NC326267  42.021  27.105   9.507
 1829POPC   PO426268  42.580  26.775   9.560
 1829POPC   GL126269  42.596  26.849   9.125
 1829POPC   GL226270  42.244  26.848   9.125
 1829POPC   C1A26271  42.529  26.816   8.675
 1829POPC   D2A26272  42.644  26.993   8.297
 1829POPC   C3A26273  42.533  26.741   7.940
 1829POPC   C4A26274  42.421  26.941   7.526
 1829POPC   C1B26275  42.053  26.666   8.766
 1829POPC   C2B26276  42.166  26.515   8.360
 1829POPC   C3B26277  42.019  26.710   7.985
 1829POPC   C4B26278  41.932  26.828   7.574
 1830POPC   NC326279  32.021  29.200   9.451
 1830POPC   PO426280  32.287  28.572   9.501
 1830POPC   GL126281  32.192  28.869   9.095
 1830POPC   GL226282  32.477  29.069   9.060
 1830POPC   C1A26283  32.227  29.073   8.643
 1830POPC   D2A26284  32.549  28.988   8.351
 1830POPC   C3A26285  32.278  28.912   8.022
 1830POPC   C4A26286  32.170  29.039   7.628
 1830POPC   C1B26287  32.672  29.312   8.777
 1830POPC   C2B26288  32.633  29.528   8.409
 1830POPC   C3B26289  32.453  29.399   8.045
 1830POPC   C4B26290  32.549  29.364   7.657
 1831POPC   NC326291  22.262  37.004   9.684
 1831POPC   PO426292  22.033  36.373   9.662
 1831POPC   GL126293  22.046  36.695   9.295
 1831POPC   GL226294  22.380  36.855   9.217
 1831POPC   C1A26295  21.988  36.893   8.857
 1831POPC   D2A26296  21.841  36.902   8.404
 1831POPC   C3A26297  21.913  37.248   8.092
 1831POPC   C4A26298  21.942  37.047   7.668
 1831POPC   C1B26299  22.491  36.915   8.801
 1831POPC   C2B26300  22.306  37.115   8.447
 1831POPC   C3B26301  22.312  36.936   8.052
 1831POPC   C4B26302  22.442  37.085   7.662
 1832POPC   NC326303   0.782  10.097   9.540
 1832POPC   PO426304   1.333   9.752   9.725
 1832POPC   GL126305   1.159   9.842   9.302
 1832POPC   GL226306   1.409  10.011   9.064
 1832POPC   C1A26307   0.986   9.775   8.882
 1832POPC   D2A26308   1.001   9.701   8.445
 1832POPC   C3A26309   1.162  10.024   8.158
 1832POPC   C4A26310   1.250  10.045   7.718
 1832POPC   C1B26311   1.447   9.953   8.605
 1832POPC   C2B26312   1.478   9.618   8.287
 1832POPC   C3B26313   1.412   9.555   7.852
 1832POPC   C4B26314   1.674   9.817   7.582
 1833POPC   NC326315  43.868  10.569   9.709
 1833POPC   PO426316  44.368  10.209   9.724
 1833POPC   GL126317  44.099  10.279   9.323
 1833POPC   GL226318  43.880  10.607   9.216
 1833POPC   C1A26319  44.127  10.372   8.881
 1833POPC   D2A26320  44.278  10.429   8.494
 1833POPC   C3A26321  44.078  10.243   8.125
 1833POPC   C4A26322  44.089  10.551   7.826
 1833POPC   C1B26323  43.789  10.749   8.791
 1833POPC   C2B26324  43.778  10.539   8.406
 1833POPC   C3B26325  43.620  10.459   7.995
 1833POPC   C4B26326  43.567  10.639   7.624
 1834POPC   NC326327  21.019  16.477   9.558
 1834POPC   PO426328  21.574  16.964   9.425
 1834POPC   GL126329  21.465  16.701   9.110
 1834POPC   GL226330  21.399  16.403   9.199
 1834POPC   C1A26331  21.565  16.517   8.707
 1834POPC   D2A26332  21.759  16.524   8.299
 1834POPC   C3A26333  21.619  16.875   8.041
 1834POPC   C4A26334  21.345  16.835   7.698
 1834POPC   C1B26335  21.202  16.185   8.895
 1834POPC   C2B26336  21.153  16.189   8.447
 1834POPC   C3B26337  21.327  16.384   8.061
 1834POPC   C4B26338  21.229  16.366   7.627
 1835POPC   NC326339   9.987   4.699   9.579
 1835POPC   PO426340   9.371   4.414   9.439
 1835POPC   GL126341   9.706   4.400   9.148
 1835POPC   GL226342   9.958   4.116   9.074
 1835POPC   C1A26343   9.598   4.201   8.728
 1835POPC   D2A26344   9.389   4.143   8.329
 1835POPC   C3A26345   9.638   4.245   7.960
 1835POPC   C4A26346   9.898   4.454   7.684
 1835POPC   C1B26347  10.009   4.505   8.778
 1835POPC   C2B26348   9.952   4.460   8.357
 1835POPC   C3B26349  10.143   4.206   8.060
 1835POPC   C4B26350  10.030   3.933   7.743
 1836POPC   NC326351  34.450  14.734   9.379
 1836POPC   PO426352  34.796  14.212   9.355
 1836POPC   GL126353  34.587  14.336   9.011
 1836POPC   GL226354  34.339  14.076   8.948
 1836POPC   C1A26355  34.720  14.563   8.652
 1836POPC   D2A26356  34.998  14.681   8.333
 1836POPC   C3A26357  34.891  14.543   7.934
 1836POPC   C4A26358  34.441  14.627   7.766
 1836POPC   C1B26359  34.616  14.073   8.565
 1836POPC   C2B26360  34.566  14.250   8.177
 1836POPC   C3B26361  34.598  14.140   7.748
 1836POPC   C4B26362  34.646  13.905   7.361
 1837POPC   NC326363  12.563  10.912   9.419
 1837POPC   PO426364  12.964  11.526   9.593
 1837POPC   GL126365  12.838  11.347   9.240
 1837POPC   GL226366  13.151  11.168   9.173
 1837POPC   C1A26367  12.784  11.349   8.816
 1837POPC   D2A26368  12.567  11.190   8.469
 1837POPC   C3A26369  12.751  11.322   8.082
 1837POPC   C4A26370  12.723  11.078   7.721
 1837POPC   C1B26371  13.152  10.939   8.780
 1837POPC   C2B26372  13.075  11.144   8.439
 1837POPC   C3B26373  13.144  10.989   8.078
 1837POPC   C4B26374  13.179  11.264   7.742
 1838POPC   NC326375  31.598   7.809   9.539
 1838POPC   PO426376  31.194   7.247   9.622
 1838POPC   GL126377  31.374   7.335   9.220
 1838POPC   GL226378  31.450   7.676   9.089
 1838POPC   C1A26379  31.477   7.038   8.885
 1838POPC   D2A26380  31.544   6.933   8.452
 1838POPC   C3A26381  31.594   7.295   8.193
 1838POPC   C4A26382  31.528   7.324   7.764
 1838POPC   C1B26383  31.218   7.567   8.778
 1838POPC   C2B26384  31.008   7.604   8.415
 1838POPC   C3B26385  31.232   7.635   8.056
 1838POPC   C4B26386  31.313   7.792   7.657
 1839POPC   NC326387   9.536  36.346   9.435
 1839POPC   PO426388   9.887  36.868   9.791
 1839POPC   GL126389   9.753  36.920   9.322
 1839POPC   GL226390   9.556  36.699   9.059
 1839POPC   C1A26391   9.890  37.054   8.896
 1839POPC   D2A26392   9.847  36.802   8.540
 1839POPC   C3A26393   9.959  36.907   8.099
 1839POPC   C4A26394   9.921  36.758   7.650
 1839POPC   C1B26395   9.400  36.992   8.718
 1839POPC   C2B26396   9.482  37.057   8.262
 1839POPC   C3B26397   9.478  36.792   7.886
 1839POPC   C4B26398   9.502  36.939   7.440
 1840POPC   NC326399   9.944  24.736   9.294
 1840POPC   PO426400   9.533  24.217   9.408
 1840POPC   GL126401   9.750  24.325   9.047
 1840POPC   GL226402   9.572  24.649   8.961
 1840POPC   C1A26403   9.828  24.262   8.613
 1840POPC   D2A26404   9.508  24.209   8.322
 1840POPC   C3A26405   9.587  24.213   7.876
 1840POPC   C4A26406   9.999  24.115   7.643
 1840POPC   C1B26407   9.907  24.767   8.669
 1840POPC   C2B26408   9.982  24.641   8.265
 1840POPC   C3B26409   9.748  24.707   7.911
 1840POPC   C4B26410  10.062  24.830   7.627
 1841POPC   NC326411  20.342   4.744   9.575
 1841POPC   PO426412  19.587   4.807   9.511
 1841POPC   GL126413  19.768   5.020   9.150
 1841POPC   GL226414  20.048   4.800   9.127
 1841POPC   C1A26415  19.796   5.240   8.736
 1841POPC   D2A26416  19.494   5.238   8.368
 1841POPC   C3A26417  19.610   5.293   7.948
 1841POPC   C4A26418  19.995   5.366   7.722
 1841POPC   C1B26419  19.910   4.747   8.704
 1841POPC   C2B26420  19.947   4.986   8.298
 1841POPC   C3B26421  20.114   4.901   7.889
 1841POPC   C4B26422  20.125   4.658   7.502
 1842POPC   NC326423   9.199  33.956   9.530
 1842POPC   PO426424   8.757  33.435   9.434
 1842POPC   GL126425   8.788  33.695   9.143
 1842POPC   GL226426   9.127  33.625   9.089
 1842POPC   C1A26427   8.703  33.669   8.730
 1842POPC   D2A26428   8.957  33.566   8.404
 1842POPC   C3A26429   8.726  33.666   8.074
 1842POPC   C4A26430   8.947  33.639   7.719
 1842POPC   C1B26431   9.055  34.014   8.854
 1842POPC   C2B26432   8.987  34.098   8.420
 1842POPC   C3B26433   9.022  34.097   7.968
 1842POPC   C4B26434   8.930  34.103   7.531
 1843POPC   NC326435  20.554  28.773   9.327
 1843POPC   PO426436  20.844  29.321   9.557
 1843POPC   GL126437  20.823  29.194   9.182
 1843POPC   GL226438  20.449  29.273   9.197
 1843POPC   C1A26439  20.838  29.027   8.786
 1843POPC   D2A26440  20.652  29.038   8.383
 1843POPC   C3A26441  20.803  29.186   7.990
 1843POPC   C4A26442  20.854  29.015   7.565
 1843POPC   C1B26443  20.299  29.178   8.777
 1843POPC   C2B26444  20.142  29.105   8.368
 1843POPC   C3B26445  20.321  29.301   8.030
 1843POPC   C4B26446  20.352  29.158   7.647
 1844POPC   NC326447  23.938   0.075   9.606
 1844POPC   PO426448  23.437   0.508   9.560
 1844POPC   GL126449  23.669   0.332   9.215
 1844POPC   GL226450  24.055   0.356   9.191
 1844POPC   C1A26451  23.556   0.344   8.793
 1844POPC   D2A26452  23.634   0.584   8.431
 1844POPC   C3A26453  23.592   0.317   8.092
 1844POPC   C4A26454  23.712   0.447   7.668
 1844POPC   C1B26455  24.058   0.229   8.762
 1844POPC   C2B26456  23.885   0.017   8.423
 1844POPC   C3B26457  24.063   0.003   8.015
 1844POPC   C4B26458  24.202   0.348   7.767
 1845POPC   NC326459  32.466   8.596   9.768
 1845POPC   PO426460  31.929   8.838   9.390
 1845POPC   GL126461  32.136   9.070   9.046
 1845POPC   GL226462  31.974   8.773   8.886
 1845POPC   C1A26463  32.349   9.027   8.625
 1845POPC   D2A26464  32.531   9.309   8.302
 1845POPC   C3A26465  32.282   9.336   7.945
 1845POPC   C4A26466  32.087   9.041   7.655
 1845POPC   C1B26467  31.859   8.735   8.487
 1845POPC   C2B26468  32.074   8.928   8.170
 1845POPC   C3B26469  32.501   8.882   8.000
 1845POPC   C4B26470  32.489   8.742   7.580
 1846POPC   NC326471  30.086  12.327   9.555
 1846POPC   PO426472  29.699  11.887   9.327
 1846POPC   GL126473  30.035  12.097   9.111
 1846POPC   GL226474  30.291  11.896   9.144
 1846POPC   C1A26475  30.034  12.134   8.703
 1846POPC   D2A26476  29.677  12.058   8.421
 1846POPC   C3A26477  29.776  12.145   8.001
 1846POPC   C4A26478  30.206  12.224   7.875
 1846POPC   C1B26479  30.361  11.715   8.754
 1846POPC   C2B26480  30.112  11.715   8.411
 1846POPC   C3B26481  30.216  11.739   8.037
 1846POPC   C4B26482  29.881  11.688   7.764
 1847POPC   NC326483  37.872  31.212   9.471
 1847POPC   PO426484  37.403  31.835   9.508
 1847POPC   GL126485  37.533  31.580   9.177
 1847POPC   GL226486  37.883  31.588   9.107
 1847POPC   C1A26487  37.548  31.531   8.734
 1847POPC   D2A26488  37.697  31.203   8.420
 1847POPC   C3A26489  37.660  31.341   7.985
 1847POPC   C4A26490  37.444  31.558   7.673
 1847POPC   C1B26491  38.057  31.442   8.720
 1847POPC   C2B26492  38.161  31.331   8.304
 1847POPC   C3B26493  38.110  31.591   7.921
 1847POPC   C4B26494  37.950  31.497   7.522
 1848POPC   NC326495  36.749   7.301   9.543
 1848POPC   PO426496  36.651   6.672   9.475
 1848POPC   GL126497  36.699   7.040   9.107
 1848POPC   GL226498  36.929   7.369   9.068
 1848POPC   C1A26499  36.541   7.363   8.752
 1848POPC   D2A26500  36.762   7.651   8.417
 1848POPC   C3A26501  36.930   7.518   7.995
 1848POPC   C4A26502  36.785   7.383   7.575
 1848POPC   C1B26503  37.194   7.684   8.855
 1848POPC   C2B26504  37.247   7.784   8.411
 1848POPC   C3B26505  37.326   7.867   7.973
 1848POPC   C4B26506  37.240   7.669   7.551
 1849POPC   NC326507   2.433  31.511   9.314
 1849POPC   PO426508   3.105  31.584   9.467
 1849POPC   GL126509   2.900  31.624   9.080
 1849POPC   GL226510   2.718  31.284   8.974
 1849POPC   C1A26511   2.995  31.561   8.655
 1849POPC   D2A26512   3.132  31.380   8.307
 1849POPC   C3A26513   3.156  31.636   7.997
 1849POPC   C4A26514   2.863  31.699   7.728
 1849POPC   C1B26515   2.492  31.512   8.626
 1849POPC   C2B26516   2.659  31.604   8.224
 1849POPC   C3B26517   2.556  31.332   7.881
 1849POPC   C4B26518   2.305  31.427   7.536
 1850POPC   NC326519  24.103  44.262   9.614
 1850POPC   PO426520  23.683  44.693   9.661
 1850POPC   GL126521  23.656  44.811   9.232
 1850POPC   GL226522  23.870  44.564   9.200
 1850POPC   C1A26523  23.553  44.815   8.783
 1850POPC   D2A26524  23.489  44.552   8.411
 1850POPC   C3A26525  23.627  44.732   8.075
 1850POPC   C4A26526  23.627  44.959   7.748
 1850POPC   C1B26527  24.030  44.642   8.815
 1850POPC   C2B26528  24.011  44.510   8.403
 1850POPC   C3B26529  24.158  44.489   8.007
 1850POPC   C4B26530  23.966  44.613   7.655
 1851POPC   NC326531  30.973   1.754   9.668
 1851POPC   PO426532  30.444   2.249   9.449
 1851POPC   GL126533  30.649   2.099   9.110
 1851POPC   GL226534  30.868   1.791   9.134
 1851POPC   C1A26535  30.580   1.902   8.723
 1851POPC   D2A26536  30.555   1.589   8.421
 1851POPC   C3A26537  30.787   1.724   8.044
 1851POPC   C4A26538  30.661   1.583   7.616
 1851POPC   C1B26539  31.056   2.090   8.800
 1851POPC   C2B26540  30.909   2.251   8.441
 1851POPC   C3B26541  30.992   2.246   8.022
 1851POPC   C4B26542  30.968   1.991   7.658
 1852POPC   NC326543  15.443  26.463   9.466
 1852POPC   PO426544  15.426  27.149   9.279
 1852POPC   GL126545  15.163  26.896   9.040
 1852POPC   GL226546  15.298  26.605   9.009
 1852POPC   C1A26547  15.038  27.028   8.656
 1852POPC   D2A26548  15.207  26.965   8.258
 1852POPC   C3A26549  15.009  26.827   7.906
 1852POPC   C4A26550  15.131  26.835   7.473
 1852POPC   C1B26551  15.508  26.836   8.673
 1852POPC   C2B26552  15.674  26.697   8.277
 1852POPC   C3B26553  15.508  26.695   7.858
 1852POPC   C4B26554  15.633  26.911   7.491
 1853POPC   NC326555  17.888   3.808   9.406
 1853POPC   PO426556  18.516   3.731   9.556
 1853POPC   GL126557  18.479   3.645   9.136
 1853POPC   GL226558  18.131   3.497   9.056
 1853POPC   C1A26559  18.402   3.774   8.710
 1853POPC   D2A26560  18.181   3.638   8.345
 1853POPC   C3A26561  18.403   3.627   7.979
 1853POPC   C4A26562  18.524   3.565   7.588
 1853POPC   C1B26563  17.855   3.735   8.739
 1853POPC   C2B26564  17.696   3.775   8.300
 1853POPC   C3B26565  17.888   3.661   7.888
 1853POPC   C4B26566  18.030   3.551   7.465
 1854POPC   NC326567  14.811  44.540   9.737
 1854POPC   PO426568  15.428  44.264   9.513
 1854POPC   GL126569  15.281  44.327   9.154
 1854POPC   GL226570  14.944  44.309   9.255
 1854POPC   C1A26571  15.376  44.408   8.746
 1854POPC   D2A26572  15.154  44.575   8.436
 1854POPC   C3A26573  15.157  44.487   8.028
 1854POPC   C4A26574  15.193  44.877   7.834
 1854POPC   C1B26575  14.878  44.502   8.876
 1854POPC   C2B26576  14.674  44.703   8.555
 1854POPC   C3B26577  14.720  44.765   8.138
 1854POPC   C4B26578  14.725  44.689   7.729
 1855POPC   NC326579  34.425  26.771   9.818
 1855POPC   PO426580  35.020  26.863   9.512
 1855POPC   GL126581  34.885  26.835   9.058
 1855POPC   GL226582  34.608  26.582   9.066
 1855POPC   C1A26583  34.819  26.758   8.616
 1855POPC   D2A26584  34.426  26.765   8.458
 1855POPC   C3A26585  34.321  26.753   8.013
 1855POPC   C4A26586  34.563  27.070   7.789
 1855POPC   C1B26587  34.756  26.259   8.771
 1855POPC   C2B26588  34.927  26.232   8.353
 1855POPC   C3B26589  34.793  26.545   8.081
 1855POPC   C4B26590  34.736  26.605   7.655
 1856POPC   NC326591  19.371  42.427   9.383
 1856POPC   PO426592  20.037  42.434   9.632
 1856POPC   GL126593  19.831  42.221   9.271
 1856POPC   GL226594  20.084  42.121   9.072
 1856POPC   C1A26595  19.627  42.183   8.839
 1856POPC   D2A26596  19.573  41.935   8.466
 1856POPC   C3A26597  19.518  42.242   8.153
 1856POPC   C4A26598  19.711  42.356   7.766
 1856POPC   C1B26599  20.038  41.907   8.704
 1856POPC   C2B26600  20.164  41.929   8.281
 1856POPC   C3B26601  19.908  41.905   7.912
 1856POPC   C4B26602  19.854  41.963   7.486
 1857POPC   NC326603  24.650   4.874   9.516
 1857POPC   PO426604  24.403   5.478   9.556
 1857POPC   GL126605  24.491   5.237   9.139
 1857POPC   GL226606  24.802   5.020   9.066
 1857POPC   C1A26607  24.356   5.134   8.691
 1857POPC   D2A26608  24.280   4.863   8.293
 1857POPC   C3A26609  24.408   5.050   7.882
 1857POPC   C4A26610  24.520   5.496   7.814
 1857POPC   C1B26611  24.912   5.148   8.678
 1857POPC   C2B26612  24.745   5.163   8.271
 1857POPC   C3B26613  24.910   5.005   7.876
 1857POPC   C4B26614  24.817   5.220   7.501
 1858POPC   NC326615  19.981   0.874   9.447
 1858POPC   PO426616  19.772   1.519   9.675
 1858POPC   GL126617  19.808   1.615   9.264
 1858POPC   GL226618  19.787   1.266   9.149
 1858POPC   C1A26619  19.669   1.681   8.860
 1858POPC   D2A26620  19.920   1.635   8.501
 1858POPC   C3A26621  19.748   1.436   8.118
 1858POPC   C4A26622  19.926   1.444   7.699
 1858POPC   C1B26623  19.908   1.150   8.726
 1858POPC   C2B26624  19.878   0.965   8.312
 1858POPC   C3B26625  19.936   0.956   7.875
 1858POPC   C4B26626  19.724   1.002   7.506
 1859POPC   NC326627   5.960  35.038   9.635
 1859POPC   PO426628   5.588  34.436   9.556
 1859POPC   GL126629   5.600  34.689   9.189
 1859POPC   GL226630   5.973  34.671   9.154
 1859POPC   C1A26631   5.676  34.618   8.748
 1859POPC   D2A26632   5.954  34.650   8.375
 1859POPC   C3A26633   5.741  34.627   7.967
 1859POPC   C4A26634   5.667  34.812   7.557
 1859POPC   C1B26635   6.086  34.335   8.799
 1859POPC   C2B26636   6.112  34.160   8.364
 1859POPC   C3B26637   6.164  34.330   7.933
 1859POPC   C4B26638   5.905  34.364   7.540
 1860POPC   NC326639  32.685  28.532   9.788
 1860POPC   PO426640  33.260  28.263   9.584
 1860POPC   GL126641  33.134  28.462   9.212
 1860POPC   GL226642  32.884  28.228   9.179
 1860POPC   C1A26643  33.048  28.540   8.760
 1860POPC   D2A26644  33.224  28.446   8.353
 1860POPC   C3A26645  32.981  28.483   7.973
 1860POPC   C4A26646  33.249  28.244   7.744
 1860POPC   C1B26647  32.803  28.062   8.779
 1860POPC   C2B26648  33.030  27.969   8.416
 1860POPC   C3B26649  32.918  27.967   8.007
 1860POPC   C4B26650  32.732  28.120   7.645
 1861POPC   NC326651   0.127   2.301   9.532
 1861POPC   PO426652   0.496   1.690   9.502
 1861POPC   GL126653   0.369   1.812   9.178
 1861POPC   GL226654   0.098   1.618   9.154
 1861POPC   C1A26655   0.490   1.981   8.793
 1861POPC   D2A26656   0.712   2.065   8.391
 1861POPC   C3A26657   0.519   1.946   7.989
 1861POPC   C4A26658   0.532   2.041   7.540
 1861POPC   C1B26659   0.057   1.652   8.762
 1861POPC   C2B26660   0.249   1.751   8.402
 1861POPC   C3B26661   0.100   1.625   8.033
 1861POPC   C4B26662   0.055   1.878   7.709
 1862POPC   NC326663  27.627  23.663   9.365
 1862POPC   PO426664  27.220  24.220   9.440
 1862POPC   GL126665  27.160  23.847   9.146
 1862POPC   GL226666  27.220  23.454   9.101
 1862POPC   C1A26667  27.331  23.830   8.741
 1862POPC   D2A26668  27.280  23.969   8.347
 1862POPC   C3A26669  27.257  23.678   8.035
 1862POPC   C4A26670  27.624  23.670   7.838
 1862POPC   C1B26671  27.554  23.376   8.758
 1862POPC   C2B26672  27.725  23.400   8.326
 1862POPC   C3B26673  28.005  23.327   7.979
 1862POPC   C4B26674  27.957  23.466   7.526
 1863POPC   NC326675  31.768  14.613   9.261
 1863POPC   PO426676  31.295  14.321   9.653
 1863POPC   GL126677  31.272  14.518   9.235
 1863POPC   GL226678  31.411  14.195   9.162
 1863POPC   C1A26679  31.383  14.616   8.777
 1863POPC   D2A26680  31.690  14.506   8.443
 1863POPC   C3A26681  31.451  14.609   8.078
 1863POPC   C4A26682  31.425  14.770   7.681
 1863POPC   C1B26683  31.503  14.123   8.751
 1863POPC   C2B26684  31.544  13.984   8.330
 1863POPC   C3B26685  31.614  14.141   7.914
 1863POPC   C4B26686  31.446  14.278   7.521
 1864POPC   NC326687   4.007  31.845   9.860
 1864POPC   PO426688   4.489  32.318   9.840
 1864POPC   GL126689   4.325  32.242   9.376
 1864POPC   GL226690   4.028  32.042   9.358
 1864POPC   C1A26691   4.258  32.330   8.927
 1864POPC   D2A26692   4.341  32.394   8.476
 1864POPC   C3A26693   4.245  32.651   8.110
 1864POPC   C4A26694   4.354  32.363   7.765
 1864POPC   C1B26695   3.836  32.040   8.940
 1864POPC   C2B26696   3.876  32.005   8.484
 1864POPC   C3B26697   3.963  32.212   8.091
 1864POPC   C4B26698   3.879  32.489   7.741
 1865POPC   NC326699  37.435  37.977   9.457
 1865POPC   PO426700  37.839  37.622   9.809
 1865POPC   GL126701  37.718  37.527   9.326
 1865POPC   GL226702  38.040  37.436   9.143
 1865POPC   C1A26703  37.571  37.638   8.869
 1865POPC   D2A26704  37.785  37.663   8.463
 1865POPC   C3A26705  37.541  37.647   8.096
 1865POPC   C4A26706  37.661  37.966   7.789
 1865POPC   C1B26707  37.837  37.221   8.747
 1865POPC   C2B26708  37.802  37.150   8.282
 1865POPC   C3B26709  37.965  37.407   7.926
 1865POPC   C4B26710  37.656  37.497   7.605
 1866POPC   NC326711  37.341  32.345   9.518
 1866POPC   PO426712  36.731  32.058   9.597
 1866POPC   GL126713  36.871  32.253   9.248
 1866POPC   GL226714  37.168  32.078   9.107
 1866POPC   C1A26715  36.741  32.181   8.846
 1866POPC   D2A26716  36.981  32.220   8.506
 1866POPC   C3A26717  36.804  32.253   8.141
 1866POPC   C4A26718  36.933  32.012   7.807
 1866POPC   C1B26719  37.194  32.498   8.873
 1866POPC   C2B26720  37.284  32.613   8.414
 1866POPC   C3B26721  37.264  32.398   8.049
 1866POPC   C4B26722  37.080  32.578   7.687
 1867POPC   NC326723  42.641  35.595   9.438
 1867POPC   PO426724  42.243  35.079   9.478
 1867POPC   GL126725  42.101  35.429   9.223
 1867POPC   GL226726  42.401  35.476   9.020
 1867POPC   C1A26727  41.953  35.512   8.803
 1867POPC   D2A26728  42.287  35.451   8.491
 1867POPC   C3A26729  42.140  35.387   8.089
 1867POPC   C4A26730  42.367  35.291   7.724
 1867POPC   C1B26731  42.668  35.697   8.755
 1867POPC   C2B26732  42.766  35.659   8.324
 1867POPC   C3B26733  42.511  35.744   7.946
 1867POPC   C4B26734  42.532  35.699   7.469
 1868POPC   NC326735  27.315   1.347   9.309
 1868POPC   PO426736  27.558   0.751   9.399
 1868POPC   GL126737  27.761   1.112   9.131
 1868POPC   GL226738  27.776   1.517   9.137
 1868POPC   C1A26739  27.735   1.210   8.683
 1868POPC   D2A26740  27.874   1.429   8.294
 1868POPC   C3A26741  27.613   1.229   7.991
 1868POPC   C4A26742  27.732   1.022   7.625
 1868POPC   C1B26743  27.811   1.722   8.716
 1868POPC   C2B26744  27.516   1.808   8.346
 1868POPC   C3B26745  27.609   1.745   7.905
 1868POPC   C4B26746  27.494   1.479   7.543
 1869POPC   NC326747  41.083  28.533   9.681
 1869POPC   PO426748  41.725  28.358   9.972
 1869POPC   GL126749  41.724  28.362   9.396
 1869POPC   GL226750  41.850  28.682   9.186
 1869POPC   C1A26751  41.598  28.343   8.873
 1869POPC   D2A26752  41.230  28.503   8.586
 1869POPC   C3A26753  41.181  28.515   8.115
 1869POPC   C4A26754  41.182  28.397   7.663
 1869POPC   C1B26755  42.009  28.585   8.751
 1869POPC   C2B26756  41.799  28.323   8.404
 1869POPC   C3B26757  41.626  28.301   7.973
 1869POPC   C4B26758  41.800  28.533   7.644
 1870POPC   NC326759  20.522  38.651   9.552
 1870POPC   PO426760  20.355  37.953   9.464
 1870POPC   GL126761  20.393  38.282   9.155
 1870POPC   GL226762  20.710  38.413   9.126
 1870POPC   C1A26763  20.393  38.472   8.736
 1870POPC   D2A26764  20.633  38.489   8.325
 1870POPC   C3A26765  20.414  38.480   7.901
 1870POPC   C4A26766  20.512  38.651   7.456
 1870POPC   C1B26767  20.847  38.712   8.819
 1870POPC   C2B26768  20.872  38.928   8.434
 1870POPC   C3B26769  21.015  38.774   8.025
 1870POPC   C4B26770  20.914  38.485   7.703
 1871POPC   NC326771  24.837  37.007   9.504
 1871POPC   PO426772  24.344  36.545   9.604
 1871POPC   GL126773  24.348  36.866   9.213
 1871POPC   GL226774  24.635  37.084   9.062
 1871POPC   C1A26775  24.520  36.729   8.761
 1871POPC   D2A26776  24.649  36.900   8.391
 1871POPC   C3A26777  24.510  36.691   8.022
 1871POPC   C4A26778  24.539  36.840   7.664
 1871POPC   C1B26779  24.767  37.412   8.771
 1871POPC   C2B26780  24.689  37.457   8.337
 1871POPC   C3B26781  24.603  37.233   7.977
 1871POPC   C4B26782  24.759  37.283   7.534
 1872POPC   NC326783  34.178   1.347   9.581
 1872POPC   PO426784  34.584   0.861   9.411
 1872POPC   GL126785  34.674   1.116   9.075
 1872POPC   GL226786  34.409   1.317   9.134
 1872POPC   C1A26787  34.629   1.269   8.665
 1872POPC   D2A26788  34.507   1.118   8.284
 1872POPC   C3A26789  34.776   1.235   7.939
 1872POPC   C4A26790  34.696   1.440   7.528
 1872POPC   C1B26791  34.176   1.092   8.817
 1872POPC   C2B26792  34.024   0.973   8.411
 1872POPC   C3B26793  34.061   1.193   8.028
 1872POPC   C4B26794  34.324   1.143   7.682
 1873POPC   NC326795   6.887  35.509   9.398
 1873POPC   PO426796   6.313  35.089   9.347
 1873POPC   GL126797   6.642  35.173   9.097
 1873POPC   GL226798   6.561  35.544   9.010
 1873POPC   C1A26799   6.794  35.196   8.697
 1873POPC   D2A26800   6.560  35.395   8.383
 1873POPC   C3A26801   6.698  35.384   7.971
 1873POPC   C4A26802   6.460  35.144   7.717
 1873POPC   C1B26803   6.200  35.524   8.746
 1873POPC   C2B26804   6.102  35.684   8.355
 1873POPC   C3B26805   6.209  35.514   8.009
 1873POPC   C4B26806   6.390  35.681   7.686
 1874POPC   NC326807  35.470  30.063   9.483
 1874POPC   PO426808  35.344  29.384   9.529
 1874POPC   GL126809  35.251  29.756   9.145
 1874POPC   GL226810  35.526  29.978   8.995
 1874POPC   C1A26811  35.159  29.911   8.687
 1874POPC   D2A26812  35.305  29.829   8.251
 1874POPC   C3A26813  35.249  30.146   7.944
 1874POPC   C4A26814  34.950  30.241   7.639
 1874POPC   C1B26815  35.666  29.796   8.631
 1874POPC   C2B26816  35.767  30.077   8.293
 1874POPC   C3B26817  35.742  30.105   7.867
 1874POPC   C4B26818  35.867  29.989   7.487
 1875POPC   NC326819  39.441  10.506   9.599
 1875POPC   PO426820  38.871  10.691   9.387
 1875POPC   GL126821  39.171  10.594   9.107
 1875POPC   GL226822  39.297  10.270   9.169
 1875POPC   C1A26823  39.141  10.664   8.673
 1875POPC   D2A26824  39.055  10.660   8.247
 1875POPC   C3A26825  39.283  10.682   7.878
 1875POPC   C4A26826  39.068  10.699   7.480
 1875POPC   C1B26827  39.243  10.140   8.780
 1875POPC   C2B26828  39.036  10.185   8.424
 1875POPC   C3B26829  39.212  10.196   8.033
 1875POPC   C4B26830  39.018  10.223   7.671
 1876POPC   NC326831  21.624   9.731   9.595
 1876POPC   PO426832  21.026   9.803   9.545
 1876POPC   GL126833  21.300   9.575   9.202
 1876POPC   GL226834  21.613   9.760   9.086
 1876POPC   C1A26835  21.380   9.517   8.724
 1876POPC   D2A26836  21.412   9.814   8.382
 1876POPC   C3A26837  21.314   9.669   7.964
 1876POPC   C4A26838  21.042   9.618   7.591
 1876POPC   C1B26839  21.596  10.159   8.834
 1876POPC   C2B26840  21.752  10.352   8.439
 1876POPC   C3B26841  21.643  10.163   8.061
 1876POPC   C4B26842  21.647   9.955   7.691
 1877POPC   NC326843  25.826  13.955   9.737
 1877POPC   PO426844  26.145  13.419   9.436
 1877POPC   GL126845  25.883  13.572   9.121
 1877POPC   GL226846  25.826  13.895   9.192
 1877POPC   C1A26847  25.827  13.446   8.708
 1877POPC   D2A26848  26.058  13.443   8.335
 1877POPC   C3A26849  25.822  13.542   8.010
 1877POPC   C4A26850  25.929  13.687   7.629
 1877POPC   C1B26851  25.976  13.987   8.753
 1877POPC   C2B26852  25.833  14.258   8.406
 1877POPC   C3B26853  25.820  14.084   7.991
 1877POPC   C4B26854  26.230  14.052   7.777
 1878POPC   NC326855  15.400  18.074   9.578
 1878POPC   PO426856  14.950  18.513   9.385
 1878POPC   GL126857  15.065  18.151   9.149
 1878POPC   GL226858  15.376  18.252   9.097
 1878POPC   C1A26859  15.043  18.246   8.706
 1878POPC   D2A26860  15.195  18.159   8.286
 1878POPC   C3A26861  15.026  18.411   7.955
 1878POPC   C4A26862  14.974  18.432   7.507
 1878POPC   C1B26863  15.521  18.443   8.733
 1878POPC   C2B26864  15.638  18.594   8.340
 1878POPC   C3B26865  15.538  18.547   7.945
 1878POPC   C4B26866  15.420  18.202   7.683
 1879POPC   NC326867  17.331  28.913   9.438
 1879POPC   PO426868  17.603  29.534   9.582
 1879POPC   GL126869  17.608  29.458   9.115
 1879POPC   GL226870  17.352  29.253   9.059
 1879POPC   C1A26871  17.707  29.206   8.717
 1879POPC   D2A26872  17.341  29.176   8.409
 1879POPC   C3A26873  17.379  29.379   8.018
 1879POPC   C4A26874  17.678  29.426   7.667
 1879POPC   C1B26875  17.375  28.834   8.797
 1879POPC   C2B26876  17.483  28.677   8.374
 1879POPC   C3B26877  17.575  28.901   8.010
 1879POPC   C4B26878  17.334  29.040   7.651
 1880POPC   NC326879  34.498  18.888   9.471
 1880POPC   PO426880  34.987  19.464   9.581
 1880POPC   GL126881  34.869  19.463   9.099
 1880POPC   GL226882  34.555  19.201   9.014
 1880POPC   C1A26883  34.975  19.324   8.723
 1880POPC   D2A26884  34.798  19.016   8.478
 1880POPC   C3A26885  34.740  19.133   8.060
 1880POPC   C4A26886  34.729  18.803   7.798
 1880POPC   C1B26887  34.532  18.734   8.831
 1880POPC   C2B26888  34.308  18.582   8.462
 1880POPC   C3B26889  34.301  18.804   8.090
 1880POPC   C4B26890  34.254  18.603   7.701
 1881POPC   NC326891  26.296  11.411   9.345
 1881POPC   PO426892  25.720  10.944   9.492
 1881POPC   GL126893  25.867  11.147   9.122
 1881POPC   GL226894  25.842  11.513   9.110
 1881POPC   C1A26895  26.123  11.080   8.752
 1881POPC   D2A26896  26.279  11.220   8.343
 1881POPC   C3A26897  26.093  11.117   7.929
 1881POPC   C4A26898  26.069  11.260   7.481
 1881POPC   C1B26899  25.943  11.542   8.653
 1881POPC   C2B26900  25.906  11.543   8.207
 1881POPC   C3B26901  25.741  11.485   7.792
 1881POPC   C4B26902  25.694  11.595   7.347
 1882POPC   NC326903  37.376  17.255   9.395
 1882POPC   PO426904  36.762  17.353   9.656
 1882POPC   GL126905  36.847  17.499   9.167
 1882POPC   GL226906  36.535  17.680   9.080
 1882POPC   C1A26907  36.800  17.262   8.727
 1882POPC   D2A26908  36.956  17.038   8.335
 1882POPC   C3A26909  36.869  17.205   7.908
 1882POPC   C4A26910  36.669  17.281   7.536
 1882POPC   C1B26911  36.776  17.772   8.711
 1882POPC   C2B26912  37.099  17.776   8.390
 1882POPC   C3B26913  37.019  17.939   7.990
 1882POPC   C4B26914  36.898  17.779   7.605
 1883POPC   NC326915  31.440   9.213   9.421
 1883POPC   PO426916  31.239   8.571   9.471
 1883POPC   GL126917  31.448   8.808   9.066
 1883POPC   GL226918  31.638   9.163   8.963
 1883POPC   C1A26919  31.368   8.944   8.613
 1883POPC   D2A26920  31.569   9.091   8.248
 1883POPC   C3A26921  31.398   8.883   7.944
 1883POPC   C4A26922  31.612   8.851   7.591
 1883POPC   C1B26923  31.491   9.458   8.598
 1883POPC   C2B26924  31.167   9.409   8.268
 1883POPC   C3B26925  31.213   9.351   7.809
 1883POPC   C4B26926  31.283   9.184   7.396
 1884POPC   NC326927  42.853  44.808   9.611
 1884POPC   PO426928  43.530  44.628   9.613
 1884POPC   GL126929  43.294  44.614   9.188
 1884POPC   GL226930  42.909  44.595   9.139
 1884POPC   C1A26931  43.222  44.725   8.728
 1884POPC   D2A26932  42.966  44.781   8.362
 1884POPC   C3A26933  43.009  44.613   7.925
 1884POPC   C4A26934  43.169  44.793   7.485
 1884POPC   C1B26935  42.758  44.966   8.871
 1884POPC   C2B26936  42.685   0.187   8.450
 1884POPC   C3B26937  42.680   0.026   7.980
 1884POPC   C4B26938  42.691   0.053   7.474
 1885POPC   NC326939  25.103  28.577   9.385
 1885POPC   PO426940  25.519  28.138   9.565
 1885POPC   GL126941  25.339  28.179   9.142
 1885POPC   GL226942  24.993  28.287   8.984
 1885POPC   C1A26943  25.461  28.409   8.775
 1885POPC   D2A26944  25.359  28.568   8.387
 1885POPC   C3A26945  25.224  28.255   8.071
 1885POPC   C4A26946  25.350  28.225   7.646
 1885POPC   C1B26947  24.804  28.384   8.571
 1885POPC   C2B26948  24.805  28.544   8.144
 1885POPC   C3B26949  24.915  28.488   7.722
 1885POPC   C4B26950  24.655  28.544   7.390
 1886POPC   NC326951  34.102  10.113   9.539
 1886POPC   PO426952  34.736   9.928   9.367
 1886POPC   GL126953  34.606   9.667   9.060
 1886POPC   GL226954  34.284   9.667   9.179
 1886POPC   C1A26955  34.663   9.794   8.684
 1886POPC   D2A26956  34.429  10.046   8.437
 1886POPC   C3A26957  34.577   9.969   8.023
 1886POPC   C4A26958  34.527   9.811   7.588
 1886POPC   C1B26959  34.206   9.563   8.735
 1886POPC   C2B26960  34.445   9.502   8.351
 1886POPC   C3B26961  34.430   9.451   7.939
 1886POPC   C4B26962  34.401   9.300   7.550
 1887POPC   NC326963  28.334   6.260   9.792
 1887POPC   PO426964  28.251   5.666   9.672
 1887POPC   GL126965  28.378   5.789   9.275
 1887POPC   GL226966  28.063   5.736   9.067
 1887POPC   C1A26967  28.473   5.962   8.861
 1887POPC   D2A26968  28.560   5.805   8.458
 1887POPC   C3A26969  28.650   6.018   8.107
 1887POPC   C4A26970  28.326   5.933   7.834
 1887POPC   C1B26971  28.106   5.629   8.614
 1887POPC   C2B26972  28.143   5.557   8.149
 1887POPC   C3B26973  27.926   5.530   7.730
 1887POPC   C4B26974  28.061   5.559   7.248
 1888POPC   NC326975  41.919   0.421   9.996
 1888POPC   PO426976  41.484   0.399   9.409
 1888POPC   GL126977  41.569   0.136   9.062
 1888POPC   GL226978  41.278   0.245   8.966
 1888POPC   C1A26979  41.664   0.283   8.619
 1888POPC   D2A26980  41.809   0.662   8.377
 1888POPC   C3A26981  41.589   0.710   7.940
 1888POPC   C4A26982  41.582   0.362   7.629
 1888POPC   C1B26983  41.100   0.418   8.661
 1888POPC   C2B26984  41.298   0.538   8.312
 1888POPC   C3B26985  41.092   0.505   7.949
 1888POPC   C4B26986  41.084   0.454   7.535
 1889POPC   NC326987  40.327  24.998   9.571
 1889POPC   PO426988  39.795  25.358   9.479
 1889POPC   GL126989  39.971  25.410   9.106
 1889POPC   GL226990  40.318  25.358   9.186
 1889POPC   C1A26991  40.134  25.490   8.725
 1889POPC   D2A26992  39.993  25.478   8.344
 1889POPC   C3A26993  40.130  25.136   8.143
 1889POPC   C4A26994  40.018  25.239   7.763
 1889POPC   C1B26995  40.291  24.994   8.898
 1889POPC   C2B26996  40.444  24.839   8.494
 1889POPC   C3B26997  40.412  24.713   8.049
 1889POPC   C4B26998  40.449  25.020   7.693
 1890POPC   NC326999  25.282  43.256   9.518
 1890POPC   PO427000  25.693  42.661   9.614
 1890POPC   GL127001  25.640  42.958   9.200
 1890POPC   GL227002  25.470  43.277   9.058
 1890POPC   C1A27003  25.450  42.884   8.753
 1890POPC   D2A27004  25.354  42.683   8.358
 1890POPC   C3A27005  25.085  42.822   8.017
 1890POPC   C4A27006  25.166  42.931   7.587
 1890POPC   C1B27007  25.195  43.340   8.705
 1890POPC   C2B27008  25.294  43.190   8.296
 1890POPC   C3B27009  25.441  43.262   7.870
 1890POPC   C4B27010  25.285  43.408   7.459
 1891POPC   NC327011  16.895  18.859   9.359
 1891POPC   PO427012  16.329  19.315   9.526
 1891POPC   GL127013  16.564  19.244   9.120
 1891POPC   GL227014  16.533  18.904   8.990
 1891POPC   C1A27015  16.637  19.245   8.642
 1891POPC   D2A27016  16.622  18.875   8.340
 1891POPC   C3A27017  16.440  18.931   7.950
 1891POPC   C4A27018  16.596  19.133   7.600
 1891POPC   C1B27019  16.929  18.821   8.736
 1891POPC   C2B27020  17.131  18.708   8.382
 1891POPC   C3B27021  16.998  18.713   7.974
 1891POPC   C4B27022  16.763  18.677   7.616
 1892POPC   NC327023  26.237  20.053   9.434
 1892POPC   PO427024  25.778  20.534   9.598
 1892POPC   GL127025  26.040  20.523   9.239
 1892POPC   GL227026  25.784  20.328   9.105
 1892POPC   C1A27027  26.135  20.487   8.769
 1892POPC   D2A27028  25.903  20.350   8.391
 1892POPC   C3A27029  26.076  20.552   8.018
 1892POPC   C4A27030  26.259  20.707   7.643
 1892POPC   C1B27031  25.730  20.759   8.893
 1892POPC   C2B27032  25.633  20.786   8.466
 1892POPC   C3B27033  25.607  20.754   8.042
 1892POPC   C4B27034  25.743  20.782   7.611
 1893POPC   NC327035   5.181  34.194   9.492
 1893POPC   PO427036   4.826  34.826   9.406
 1893POPC   GL127037   5.003  34.544   9.149
 1893POPC   GL227038   4.739  34.263   9.220
 1893POPC   C1A27039   5.174  34.664   8.743
 1893POPC   D2A27040   5.388  34.524   8.345
 1893POPC   C3A27041   5.207  34.321   7.995
 1893POPC   C4A27042   5.243  34.526   7.611
 1893POPC   C1B27043   4.858  34.243   8.772
 1893POPC   C2B27044   4.886  34.461   8.380
 1893POPC   C3B27045   4.894  34.717   8.003
 1893POPC   C4B27046   4.746  34.407   7.724
 1894POPC   NC327047  16.280  26.245   9.613
 1894POPC   PO427048  15.648  26.041   9.361
 1894POPC   GL127049  15.744  26.318   9.078
 1894POPC   GL227050  16.106  26.346   9.133
 1894POPC   C1A27051  15.604  26.327   8.675
 1894POPC   D2A27052  15.408  26.049   8.417
 1894POPC   C3A27053  15.616  26.067   8.060
 1894POPC   C4A27054  15.533  26.175   7.695
 1894POPC   C1B27055  16.037  26.012   8.815
 1894POPC   C2B27056  15.940  25.874   8.405
 1894POPC   C3B27057  16.072  25.825   7.978
 1894POPC   C4B27058  16.054  26.021   7.609
 1895POPC   NC327059  17.091  41.006   9.557
 1895POPC   PO427060  16.563  40.657   9.881
 1895POPC   GL127061  16.619  40.764   9.407
 1895POPC   GL227062  16.390  41.044   9.279
 1895POPC   C1A27063  16.750  40.884   8.965
 1895POPC   D2A27064  16.698  40.907   8.517
 1895POPC   C3A27065  16.971  40.983   8.184
 1895POPC   C4A27066  16.856  40.914   7.768
 1895POPC   C1B27067  16.310  41.087   8.790
 1895POPC   C2B27068  16.343  41.225   8.325
 1895POPC   C3B27069  16.317  40.931   7.959
 1895POPC   C4B27070  16.426  40.850   7.507
 1896POPC   NC327071  36.968  25.608   9.636
 1896POPC   PO427072  37.305  25.062   9.519
 1896POPC   GL127073  37.018  25.007   9.195
 1896POPC   GL227074  36.970  25.363   9.169
 1896POPC   C1A27075  36.740  25.009   8.819
 1896POPC   D2A27076  36.936  24.973   8.414
 1896POPC   C3A27077  36.748  25.011   7.994
 1896POPC   C4A27078  36.553  25.236   7.678
 1896POPC   C1B27079  36.828  25.515   8.778
 1896POPC   C2B27080  36.638  25.717   8.446
 1896POPC   C3B27081  36.826  25.532   8.084
 1896POPC   C4B27082  36.934  25.561   7.664
 1897POPC   NC327083  18.021  29.767   9.626
 1897POPC   PO427084  18.550  30.097   9.423
 1897POPC   GL127085  18.343  30.090   9.052
 1897POPC   GL227086  18.038  30.031   9.172
 1897POPC   C1A27087  18.089  30.110   8.670
 1897POPC   D2A27088  18.057  29.910   8.280
 1897POPC   C3A27089  18.423  29.910   8.015
 1897POPC   C4A27090  18.430  30.133   7.635
 1897POPC   C1B27091  18.097  29.634   8.932
 1897POPC   C2B27092  18.096  29.445   8.503
 1897POPC   C3B27093  17.944  29.442   8.088
 1897POPC   C4B27094  18.001  29.802   7.760
 1898POPC   NC327095  12.041  32.721   9.530
 1898POPC   PO427096  12.190  33.442   9.544
 1898POPC   GL127097  12.040  33.244   9.148
 1898POPC   GL227098  11.959  32.898   9.045
 1898POPC   C1A27099  11.809  33.349   8.783
 1898POPC   D2A27100  11.930  33.207   8.390
 1898POPC   C3A27101  12.035  33.323   7.976
 1898POPC   C4A27102  12.402  33.062   7.860
 1898POPC   C1B27103  11.695  32.803   8.686
 1898POPC   C2B27104  11.617  32.862   8.229
 1898POPC   C3B27105  11.928  32.816   7.901
 1898POPC   C4B27106  12.188  32.748   7.540
 1899POPC   NC327107  28.442  24.201   9.579
 1899POPC   PO427108  28.046  24.737   9.448
 1899POPC   GL127109  28.280  24.472   9.158
 1899POPC   GL227110  28.540  24.633   8.937
 1899POPC   C1A27111  28.283  24.226   8.770
 1899POPC   D2A27112  28.531  24.388   8.421
 1899POPC   C3A27113  28.394  24.236   8.041
 1899POPC   C4A27114  28.276  24.241   7.626
 1899POPC   C1B27115  28.195  24.760   8.685
 1899POPC   C2B27116  28.272  24.782   8.254
 1899POPC   C3B27117  28.167  24.691   7.859
 1899POPC   C4B27118  28.013  24.959   7.577
 1900POPC   NC327119  18.575  40.389   9.489
 1900POPC   PO427120  18.076  39.959   9.654
 1900POPC   GL127121  18.181  39.922   9.238
 1900POPC   GL227122  18.122  40.244   9.215
 1900POPC   C1A27123  18.311  39.850   8.819
 1900POPC   D2A27124  18.440  40.038   8.424
 1900POPC   C3A27125  18.428  39.799   8.058
 1900POPC   C4A27126  18.533  39.846   7.633
 1900POPC   C1B27127  18.125  40.324   8.782
 1900POPC   C2B27128  18.081  40.405   8.371
 1900POPC   C3B27129  18.156  40.265   7.953
 1900POPC   C4B27130  17.988  40.566   7.683
 1901POPC   NC327131  20.520  17.939   9.640
 1901POPC   PO427132  20.156  18.469   9.480
 1901POPC   GL127133  20.487  18.256   9.229
 1901POPC   GL227134  20.356  17.929   9.171
 1901POPC   C1A27135  20.703  18.142   8.843
 1901POPC   D2A27136  20.832  18.011   8.414
 1901POPC   C3A27137  20.843  18.359   8.121
 1901POPC   C4A27138  20.646  18.478   7.737
 1901POPC   C1B27139  20.223  17.925   8.760
 1901POPC   C2B27140  20.343  18.230   8.468
 1901POPC   C3B27141  20.397  18.093   8.054
 1901POPC   C4B27142  20.191  17.757   7.893
 1902POPC   NC327143   4.074  29.175   9.940
 1902POPC   PO427144   4.257  29.301   9.400
 1902POPC   GL127145   4.373  29.090   9.053
 1902POPC   GL227146   4.215  28.786   9.182
 1902POPC   C1A27147   4.421  29.119   8.652
 1902POPC   D2A27148   4.130  29.312   8.387
 1902POPC   C3A27149   4.371  29.253   8.077
 1902POPC   C4A27150   4.454  29.442   7.761
 1902POPC   C1B27151   4.520  28.652   8.855
 1902POPC   C2B27152   4.679  28.707   8.438
 1902POPC   C3B27153   4.570  28.788   8.030
 1902POPC   C4B27154   4.332  28.915   7.667
 1903POPC   NC327155  29.032   6.952   9.605
 1903POPC   PO427156  29.317   6.418   9.291
 1903POPC   GL127157  29.108   6.602   8.990
 1903POPC   GL227158  28.886   6.862   9.133
 1903POPC   C1A27159  29.253   6.615   8.560
 1903POPC   D2A27160  29.288   6.909   8.234
 1903POPC   C3A27161  29.150   6.734   7.836
 1903POPC   C4A27162  29.299   6.364   7.612
 1903POPC   C1B27163  28.685   6.760   8.752
 1903POPC   C2B27164  28.783   6.722   8.325
 1903POPC   C3B27165  28.806   7.058   8.056
 1903POPC   C4B27166  28.801   7.092   7.610
 1904POPC   NC327167  43.615  13.974   9.402
 1904POPC   PO427168  44.041  13.591   9.655
 1904POPC   GL127169  43.852  13.422   9.288
 1904POPC   GL227170  44.113  13.473   9.038
 1904POPC   C1A27171  43.613  13.453   8.907
 1904POPC   D2A27172  43.527  13.430   8.485
 1904POPC   C3A27173  43.723  13.652   8.153
 1904POPC   C4A27174  43.617  13.898   7.800
 1904POPC   C1B27175  44.110  13.316   8.592
 1904POPC   C2B27176  44.173  13.373   8.134
 1904POPC   C3B27177  44.299  13.222   7.726
 1904POPC   C4B27178  44.169  13.249   7.274
 1905POPC   NC327179   7.790   6.967   9.573
 1905POPC   PO427180   7.499   6.356   9.410
 1905POPC   GL127181   7.587   6.727   9.155
 1905POPC   GL227182   7.962   6.690   9.200
 1905POPC   C1A27183   7.394   6.977   8.796
 1905POPC   D2A27184   7.129   6.992   8.416
 1905POPC   C3A27185   7.383   6.917   8.065
 1905POPC   C4A27186   7.323   6.634   7.753
 1905POPC   C1B27187   7.998   6.910   8.830
 1905POPC   C2B27188   7.763   6.838   8.461
 1905POPC   C3B27189   7.877   6.754   8.063
 1905POPC   C4B27190   7.749   6.902   7.673
 1906POPC   NC327191  16.867  36.701   9.608
 1906POPC   PO427192  16.879  37.414   9.374
 1906POPC   GL127193  16.739  37.007   9.195
 1906POPC   GL227194  17.037  36.770   9.142
 1906POPC   C1A27195  16.473  36.819   8.876
 1906POPC   D2A27196  16.263  36.768   8.479
 1906POPC   C3A27197  16.583  36.793   8.134
 1906POPC   C4A27198  16.605  36.851   7.678
 1906POPC   C1B27199  16.983  36.891   8.712
 1906POPC   C2B27200  16.940  37.134   8.333
 1906POPC   C3B27201  17.016  37.062   7.901
 1906POPC   C4B27202  17.054  37.033   7.456
 1907POPC   NC327203  35.072  44.038   9.634
 1907POPC   PO427204  35.586  44.416   9.400
 1907POPC   GL127205  35.480  44.091   9.115
 1907POPC   GL227206  35.149  43.930   9.144
 1907POPC   C1A27207  35.543  43.723   8.839
 1907POPC   D2A27208  35.480  43.476   8.455
 1907POPC   C3A27209  35.542  43.749   8.068
 1907POPC   C4A27210  35.485  44.177   7.897
 1907POPC   C1B27211  35.056  44.021   8.730
 1907POPC   C2B27212  35.129  44.192   8.313
 1907POPC   C3B27213  35.056  43.947   7.963
 1907POPC   C4B27214  35.201  43.677   7.673
 1908POPC   NC327215  12.278  25.567   9.450
 1908POPC   PO427216  12.073  24.907   9.411
 1908POPC   GL127217  11.960  25.116   9.022
 1908POPC   GL227218  12.283  25.258   9.032
 1908POPC   C1A27219  12.150  25.059   8.579
 1908POPC   D2A27220  12.536  25.131   8.301
 1908POPC   C3A27221  12.375  25.191   7.847
 1908POPC   C4A27222  11.931  25.217   7.650
 1908POPC   C1B27223  12.125  25.568   8.746
 1908POPC   C2B27224  12.218  25.530   8.311
 1908POPC   C3B27225  12.091  25.626   7.920
 1908POPC   C4B27226  12.240  25.607   7.543
 1909POPC   NC327227  10.867  13.333   9.481
 1909POPC   PO427228  11.373  12.880   9.414
 1909POPC   GL127229  11.495  13.140   9.106
 1909POPC   GL227230  11.264  13.368   9.188
 1909POPC   C1A27231  11.479  12.996   8.722
 1909POPC   D2A27232  11.348  12.595   8.576
 1909POPC   C3A27233  11.280  12.611   8.165
 1909POPC   C4A27234  11.560  12.734   7.810
 1909POPC   C1B27235  11.069  13.316   8.810
 1909POPC   C2B27236  11.074  13.045   8.412
 1909POPC   C3B27237  11.424  13.093   8.146
 1909POPC   C4B27238  11.402  13.263   7.762
 1910POPC   NC327239  26.903  22.445   9.641
 1910POPC   PO427240  26.898  21.798   9.685
 1910POPC   GL127241  26.912  21.995   9.261
 1910POPC   GL227242  26.619  21.902   9.076
 1910POPC   C1A27243  26.931  22.172   8.809
 1910POPC   D2A27244  26.781  22.211   8.384
 1910POPC   C3A27245  27.052  22.187   8.041
 1910POPC   C4A27246  26.969  22.384   7.691
 1910POPC   C1B27247  26.433  21.953   8.668
 1910POPC   C2B27248  26.400  21.864   8.232
 1910POPC   C3B27249  26.644  21.909   7.849
 1910POPC   C4B27250  26.496  21.786   7.464
 1911POPC   NC327251   5.409  11.041   9.573
 1911POPC   PO427252   4.781  11.158   9.787
 1911POPC   GL127253   4.860  11.174   9.307
 1911POPC   GL227254   5.093  10.945   9.175
 1911POPC   C1A27255   4.821  11.279   8.837
 1911POPC   D2A27256   5.004  11.592   8.514
 1911POPC   C3A27257   4.903  11.571   8.052
 1911POPC   C4A27258   4.966  11.242   7.724
 1911POPC   C1B27259   5.321  11.146   8.884
 1911POPC   C2B27260   5.397  11.085   8.474
 1911POPC   C3B27261   5.325  11.341   8.151
 1911POPC   C4B27262   5.404  11.487   7.707
 1912POPC   NC327263  11.836  20.280   9.724
 1912POPC   PO427264  11.341  20.671   9.510
 1912POPC   GL127265  11.299  20.682   9.093
 1912POPC   GL227266  10.974  20.722   9.107
 1912POPC   C1A27267  11.352  20.536   8.681
 1912POPC   D2A27268  11.136  20.354   8.337
 1912POPC   C3A27269  11.371  20.306   7.986
 1912POPC   C4A27270  11.497  20.594   7.673
 1912POPC   C1B27271  11.066  21.019   8.761
 1912POPC   C2B27272  11.328  21.013   8.427
 1912POPC   C3B27273  11.292  20.866   8.041
 1912POPC   C4B27274  11.028  21.024   7.699
 1913POPC   NC327275  34.125  31.723   9.506
 1913POPC   PO427276  33.825  31.179   9.481
 1913POPC   GL127277  33.728  31.407   9.148
 1913POPC   GL227278  33.519  31.695   9.271
 1913POPC   C1A27279  33.900  31.341   8.729
 1913POPC   D2A27280  33.741  31.508   8.365
 1913POPC   C3A27281  33.787  31.716   7.989
 1913POPC   C4A27282  33.840  31.547   7.652
 1913POPC   C1B27283  33.497  31.694   8.807
 1913POPC   C2B27284  33.261  31.511   8.482
 1913POPC   C3B27285  33.295  31.535   8.027
 1913POPC   C4B27286  33.356  31.352   7.607
 1914POPC   NC327287   7.255  34.574   9.462
 1914POPC   PO427288   7.840  34.785   9.183
 1914POPC   GL127289   7.505  34.569   9.044
 1914POPC   GL227290   7.574  34.237   9.220
 1914POPC   C1A27291   7.355  34.499   8.650
 1914POPC   D2A27292   7.591  34.376   8.270
 1914POPC   C3A27293   7.705  34.698   8.036
 1914POPC   C4A27294   7.360  34.936   7.894
 1914POPC   C1B27295   7.798  34.232   8.821
 1914POPC   C2B27296   7.930  34.044   8.478
 1914POPC   C3B27297   8.008  34.134   8.061
 1914POPC   C4B27298   7.730  34.243   7.763
 1915POPC   NC327299   0.678  36.326   9.451
 1915POPC   PO427300   0.007  36.123   9.537
 1915POPC   GL127301   0.258  36.177   9.154
 1915POPC   GL227302   0.405  35.921   9.195
 1915POPC   C1A27303   0.260  36.429   8.758
 1915POPC   D2A27304   0.375  36.518   8.355
 1915POPC   C3A27305   0.112  36.337   8.047
 1915POPC   C4A27306   0.250  36.055   7.773
 1915POPC   C1B27307   0.586  36.034   8.766
 1915POPC   C2B27308   0.525  35.991   8.291
 1915POPC   C3B27309   0.741  35.901   7.899
 1915POPC   C4B27310   0.746  36.098   7.496
 1916POPC   NC327311   3.741  43.116  10.166
 1916POPC   PO427312   3.421  43.420   9.619
 1916POPC   GL127313   3.449  43.436   9.151
 1916POPC   GL227314   3.573  43.111   9.022
 1916POPC   C1A27315   3.678  43.502   8.729
 1916POPC   D2A27316   3.839  43.189   8.404
 1916POPC   C3A27317   3.647  43.238   7.977
 1916POPC   C4A27318   3.232  43.412   7.779
 1916POPC   C1B27319   3.364  42.967   8.643
 1916POPC   C2B27320   3.160  42.778   8.317
 1916POPC   C3B27321   3.264  42.878   7.909
 1916POPC   C4B27322   3.061  42.616   7.660
 1917POPC   NC327323  22.267  25.118   9.610
 1917POPC   PO427324  22.529  25.663   9.654
 1917POPC   GL127325  22.180  25.530   9.300
 1917POPC   GL227326  22.214  25.181   9.104
 1917POPC   C1A27327  22.035  25.591   8.841
 1917POPC   D2A27328  22.203  25.732   8.398
 1917POPC   C3A27329  22.119  25.606   7.916
 1917POPC   C4A27330  22.046  25.426   7.462
 1917POPC   C1B27331  22.314  25.211   8.648
 1917POPC   C2B27332  22.081  25.265   8.290
 1917POPC   C3B27333  21.941  25.133   7.910
 1917POPC   C4B27334  21.964  24.931   7.514
 1918POPC   NC327335  40.469  43.312   9.658
 1918POPC   PO427336  39.854  42.981   9.603
 1918POPC   GL127337  39.964  43.174   9.214
 1918POPC   GL227338  39.735  43.426   9.161
 1918POPC   C1A27339  39.790  43.057   8.791
 1918POPC   D2A27340  39.722  43.275   8.417
 1918POPC   C3A27341  39.799  43.067   8.067
 1918POPC   C4A27342  40.058  42.879   7.803
 1918POPC   C1B27343  40.023  43.508   8.809
 1918POPC   C2B27344  40.134  43.546   8.362
 1918POPC   C3B27345  40.004  43.504   7.916
 1918POPC   C4B27346  40.289  43.658   7.630
 1919POPC   NC327347  37.958  37.215   9.642
 1919POPC   PO427348  38.134  36.580   9.725
 1919POPC   GL127349  37.892  36.681   9.292
 1919POPC   GL227350  37.750  37.016   9.230
 1919POPC   C1A27351  37.621  36.747   8.837
 1919POPC   D2A27352  37.353  36.754   8.442
 1919POPC   C3A27353  37.551  36.705   8.017
 1919POPC   C4A27354  37.801  36.956   7.746
 1919POPC   C1B27355  37.371  37.176   8.990
 1919POPC   C2B27356  37.330  37.281   8.553
 1919POPC   C3B27357  37.300  37.167   8.119
 1919POPC   C4B27358  37.318  37.107   7.707
 1920POPC   NC327359  13.813  18.632   9.546
 1920POPC   PO427360  13.372  18.120   9.494
 1920POPC   GL127361  13.504  18.176   9.102
 1920POPC   GL227362  13.522  18.521   9.139
 1920POPC   C1A27363  13.505  18.290   8.680
 1920POPC   D2A27364  13.697  18.045   8.358
 1920POPC   C3A27365  13.587  18.050   7.959
 1920POPC   C4A27366  13.254  18.284   7.819
 1920POPC   C1B27367  13.928  18.580   8.881
 1920POPC   C2B27368  13.925  18.501   8.476
 1920POPC   C3B27369  13.997  18.533   8.073
 1920POPC   C4B27370  13.783  18.459   7.700
 1921POPC   NC327371   5.809   2.486   9.361
 1921POPC   PO427372   6.072   3.157   9.389
 1921POPC   GL127373   5.994   2.906   9.069
 1921POPC   GL227374   6.253   2.629   9.081
 1921POPC   C1A27375   5.705   2.957   8.720
 1921POPC   D2A27376   5.624   2.861   8.303
 1921POPC   C3A27377   6.031   2.983   8.116
 1921POPC   C4A27378   6.118   2.912   7.686
 1921POPC   C1B27379   5.969   2.519   8.723
 1921POPC   C2B27380   5.961   2.475   8.285
 1921POPC   C3B27381   5.796   2.579   7.895
 1921POPC   C4B27382   5.976   2.453   7.490
 1922POPC   NC327383   5.771  25.977   9.570
 1922POPC   PO427384   5.730  25.294   9.580
 1922POPC   GL127385   5.681  25.669   9.197
 1922POPC   GL227386   5.535  26.034   9.102
 1922POPC   C1A27387   5.638  25.708   8.741
 1922POPC   D2A27388   5.645  25.851   8.316
 1922POPC   C3A27389   6.057  25.826   8.091
 1922POPC   C4A27390   6.205  25.962   7.687
 1922POPC   C1B27391   5.690  26.242   8.756
 1922POPC   C2B27392   5.907  26.303   8.352
 1922POPC   C3B27393   5.768  26.232   7.934
 1922POPC   C4B27394   5.811  26.224   7.487
 1923POPC   NC327395  40.953  17.113   9.948
 1923POPC   PO427396  40.543  17.148   9.485
 1923POPC   GL127397  40.562  16.851   9.116
 1923POPC   GL227398  40.915  16.814   9.056
 1923POPC   C1A27399  40.609  16.689   8.681
 1923POPC   D2A27400  40.922  16.846   8.397
 1923POPC   C3A27401  40.785  16.743   7.979
 1923POPC   C4A27402  40.844  16.730   7.544
 1923POPC   C1B27403  41.062  16.458   8.759
 1923POPC   C2B27404  41.099  16.346   8.302
 1923POPC   C3B27405  41.200  16.424   7.861
 1923POPC   C4B27406  41.268  16.472   7.404
 1924POPC   NC327407   9.680  38.281   9.628
 1924POPC   PO427408  10.000  38.803   9.764
 1924POPC   GL127409   9.927  38.613   9.330
 1924POPC   GL227410   9.577  38.588   9.221
 1924POPC   C1A27411  10.000  38.394   8.924
 1924POPC   D2A27412  10.164  38.401   8.474
 1924POPC   C3A27413   9.874  38.335   8.110
 1924POPC   C4A27414   9.909  38.448   7.629
 1924POPC   C1B27415   9.645  38.762   8.803
 1924POPC   C2B27416   9.521  38.615   8.392
 1924POPC   C3B27417   9.691  38.782   8.023
 1924POPC   C4B27418   9.756  38.946   7.645
 1925POPC   NC327419  44.816  36.435   9.817
 1925POPC   PO427420  44.502  37.020   9.656
 1925POPC   GL127421  44.637  36.923   9.266
 1925POPC   GL227422  44.419  36.627   9.201
 1925POPC   C1A27423  44.507  36.978   8.843
 1925POPC   D2A27424  44.590  36.855   8.444
 1925POPC   C3A27425  44.645  37.128   8.058
 1925POPC   C4A27426  44.654  37.080   7.590
 1925POPC   C1B27427  44.252  36.532   8.801
 1925POPC   C2B27428  44.396  36.361   8.394
 1925POPC   C3B27429  44.510  36.593   8.035
 1925POPC   C4B27430  44.270  36.725   7.726
 1926POPC   NC327431  19.275  44.899   9.348
 1926POPC   PO427432  18.824  44.459   9.320
 1926POPC   GL127433  19.104  44.557   8.992
 1926POPC   GL227434  19.101  44.914   8.882
 1926POPC   C1A27435  18.993  44.477   8.591
 1926POPC   D2A27436  18.820  44.234   8.281
 1926POPC   C3A27437  18.868  44.540   7.952
 1926POPC   C4A27438  19.153  44.677   7.640
 1926POPC   C1B27439  19.453  44.730   8.659
 1926POPC   C2B27440  19.292  44.743   8.250
 1926POPC   C3B27441  19.149   0.061   8.021
 1926POPC   C4B27442  18.854   0.092   7.739
 1927POPC   NC327443  13.959  42.186   9.499
 1927POPC   PO427444  14.558  42.509   9.345
 1927POPC   GL127445  14.501  42.132   9.079
 1927POPC   GL227446  14.149  42.077   9.030
 1927POPC   C1A27447  14.598  42.196   8.655
 1927POPC   D2A27448  14.474  42.539   8.424
 1927POPC   C3A27449  14.544  42.458   7.999
 1927POPC   C4A27450  14.150  42.531   7.819
 1927POPC   C1B27451  14.177  41.904   8.610
 1927POPC   C2B27452  14.303  42.041   8.201
 1927POPC   C3B27453  14.208  42.016   7.770
 1927POPC   C4B27454  14.034  42.142   7.350
 1928POPC   NC327455  22.304   1.935   9.615
 1928POPC   PO427456  21.756   1.961   9.423
 1928POPC   GL127457  22.041   1.840   9.129
 1928POPC   GL227458  22.113   2.174   9.064
 1928POPC   C1A27459  22.126   1.822   8.680
 1928POPC   D2A27460  21.886   2.012   8.358
 1928POPC   C3A27461  21.879   1.778   8.002
 1928POPC   C4A27462  22.038   1.853   7.585
 1928POPC   C1B27463  22.495   2.338   8.838
 1928POPC   C2B27464  22.596   2.521   8.422
 1928POPC   C3B27465  22.598   2.369   7.978
 1928POPC   C4B27466  22.242   2.293   7.680
 1929POPC   NC327467  28.740  20.909   9.435
 1929POPC   PO427468  28.156  20.662   9.579
 1929POPC   GL127469  28.340  20.649   9.202
 1929POPC   GL227470  28.239  20.980   9.168
 1929POPC   C1A27471  28.517  20.743   8.788
 1929POPC   D2A27472  28.392  20.735   8.364
 1929POPC   C3A27473  28.369  20.403   8.084
 1929POPC   C4A27474  28.505  20.515   7.729
 1929POPC   C1B27475  27.904  21.056   8.875
 1929POPC   C2B27476  27.922  20.998   8.419
 1929POPC   C3B27477  28.064  20.865   8.001
 1929POPC   C4B27478  27.832  20.862   7.632
 1930POPC   NC327479   5.008  43.787   9.475
 1930POPC   PO427480   4.698  43.293   9.035
 1930POPC   GL127481   4.833  43.680   9.025
 1930POPC   GL227482   5.199  43.727   8.999
 1930POPC   C1A27483   4.849  44.067   8.829
 1930POPC   D2A27484   5.149  44.053   8.493
 1930POPC   C3A27485   5.126  44.197   8.103
 1930POPC   C4A27486   4.958  44.178   7.749
 1930POPC   C1B27487   5.322  43.544   8.630
 1930POPC   C2B27488   5.223  43.571   8.220
 1930POPC   C3B27489   5.256  43.735   7.853
 1930POPC   C4B27490   5.536  43.504   7.614
 1931POPC   NC327491  27.317  13.573   9.529
 1931POPC   PO427492  27.827  13.955   9.471
 1931POPC   GL127493  27.748  13.523   9.209
 1931POPC   GL227494  27.391  13.396   9.062
 1931POPC   C1A27495  27.826  13.392   8.773
 1931POPC   D2A27496  27.604  13.260   8.386
 1931POPC   C3A27497  27.798  13.489   8.019
 1931POPC   C4A27498  27.749  13.485   7.550
 1931POPC   C1B27499  27.378  13.674   8.714
 1931POPC   C2B27500  27.434  13.748   8.268
 1931POPC   C3B27501  27.379  13.713   7.803
 1931POPC   C4B27502  27.302  13.748   7.340
 1932POPC   NC327503  22.239   9.388   9.634
 1932POPC   PO427504  21.985   9.942   9.790
 1932POPC   GL127505  22.084   9.751   9.312
 1932POPC   GL227506  22.433   9.595   9.207
 1932POPC   C1A27507  22.162   9.821   8.842
 1932POPC   D2A27508  21.914   9.852   8.465
 1932POPC   C3A27509  22.111   9.887   8.057
 1932POPC   C4A27510  22.109   9.787   7.644
 1932POPC   C1B27511  22.434   9.371   8.782
 1932POPC   C2B27512  22.349   9.557   8.364
 1932POPC   C3B27513  22.424   9.456   7.896
 1932POPC   C4B27514  22.401   9.483   7.397
 1933POPC   NC327515   1.890  22.475   9.384
 1933POPC   PO427516   2.257  21.935   9.559
 1933POPC   GL127517   2.110  22.087   9.123
 1933POPC   GL227518   2.152  22.427   8.976
 1933POPC   C1A27519   1.827  22.125   8.735
 1933POPC   D2A27520   1.870  22.051   8.291
 1933POPC   C3A27521   1.666  22.197   7.909
 1933POPC   C4A27522   1.849  22.054   7.463
 1933POPC   C1B27523   2.241  22.672   8.672
 1933POPC   C2B27524   2.058  22.525   8.361
 1933POPC   C3B27525   2.280  22.313   8.095
 1933POPC   C4B27526   2.104  22.376   7.734
 1934POPC   NC327527  36.721  18.556   9.664
 1934POPC   PO427528  36.574  19.220   9.558
 1934POPC   GL127529  36.867  18.942   9.320
 1934POPC   GL227530  36.587  18.811   9.198
 1934POPC   C1A27531  36.966  18.759   8.878
 1934POPC   D2A27532  36.768  18.718   8.441
 1934POPC   C3A27533  37.069  18.908   8.159
 1934POPC   C4A27534  37.208  19.261   7.924
 1934POPC   C1B27535  36.685  19.193   8.902
 1934POPC   C2B27536  36.527  19.258   8.501
 1934POPC   C3B27537  36.665  19.241   8.099
 1934POPC   C4B27538  36.483  19.498   7.786
 1935POPC   NC327539  36.743  29.320   9.449
 1935POPC   PO427540  37.378  29.381   9.686
 1935POPC   GL127541  37.176  29.022   9.312
 1935POPC   GL227542  36.823  28.925   9.154
 1935POPC   C1A27543  37.143  28.973   8.787
 1935POPC   D2A27544  37.159  29.302   8.443
 1935POPC   C3A27545  36.979  29.297   8.033
 1935POPC   C4A27546  36.714  29.003   7.819
 1935POPC   C1B27547  36.730  29.276   8.813
 1935POPC   C2B27548  36.624  29.293   8.387
 1935POPC   C3B27549  36.367  28.973   8.209
 1935POPC   C4B27550  36.279  28.685   7.867
 1936POPC   NC327551  44.396  38.589   9.469
 1936POPC   PO427552  43.676  38.418   9.520
 1936POPC   GL127553  44.011  38.432   9.189
 1936POPC   GL227554  43.799  38.603   9.018
 1936POPC   C1A27555  44.228  38.408   8.780
 1936POPC   D2A27556  44.062  38.335   8.377
 1936POPC   C3A27557  44.227  38.402   7.972
 1936POPC   C4A27558  43.919  38.314   7.677
 1936POPC   C1B27559  43.577  38.876   8.815
 1936POPC   C2B27560  43.645  39.019   8.423
 1936POPC   C3B27561  43.902  38.793   8.139
 1936POPC   C4B27562  43.767  38.797   7.728
 1937POPC   NC327563  21.820  28.250   9.439
 1937POPC   PO427564  21.226  28.523   9.542
 1937POPC   GL127565  21.378  28.313   9.196
 1937POPC   GL227566  21.606  28.589   9.125
 1937POPC   C1A27567  21.232  28.344   8.786
 1937POPC   D2A27568  21.039  28.186   8.463
 1937POPC   C3A27569  21.230  28.309   8.145
 1937POPC   C4A27570  21.147  28.313   7.756
 1937POPC   C1B27571  21.737  28.303   8.801
 1937POPC   C2B27572  21.662  28.502   8.415
 1937POPC   C3B27573  21.685  28.454   7.987
 1937POPC   C4B27574  21.622  28.102   7.748
 1938POPC   NC327575  27.201  10.951   9.470
 1938POPC   PO427576  26.512  11.017   9.378
 1938POPC   GL127577  26.672  11.201   9.036
 1938POPC   GL227578  27.017  11.256   9.099
 1938POPC   C1A27579  26.748  11.149   8.623
 1938POPC   D2A27580  26.738  11.430   8.287
 1938POPC   C3A27581  26.614  11.219   7.901
 1938POPC   C4A27582  26.879  10.981   7.601
 1938POPC   C1B27583  27.282  11.222   8.734
 1938POPC   C2B27584  27.162  11.131   8.304
 1938POPC   C3B27585  27.096  11.389   7.942
 1938POPC   C4B27586  27.325  11.717   7.773
 1939POPC   NC327587   7.549  12.481   9.427
 1939POPC   PO427588   6.894  12.345   9.264
 1939POPC   GL127589   7.206  12.563   9.056
 1939POPC   GL227590   7.224  12.904   9.190
 1939POPC   C1A27591   7.452  12.449   8.708
 1939POPC   D2A27592   7.345  12.356   8.280
 1939POPC   C3A27593   7.646  12.524   7.957
 1939POPC   C4A27594   7.449  12.452   7.570
 1939POPC   C1B27595   7.379  12.963   8.758
 1939POPC   C2B27596   7.492  12.824   8.361
 1939POPC   C3B27597   7.291  12.863   7.984
 1939POPC   C4B27598   7.513  12.945   7.649
 1940POPC   NC327599  28.121  31.590   9.349
 1940POPC   PO427600  28.572  31.191   9.594
 1940POPC   GL127601  28.592  31.438   9.215
 1940POPC   GL227602  28.439  31.282   9.040
 1940POPC   C1A27603  28.477  31.722   8.790
 1940POPC   D2A27604  28.202  31.694   8.394
 1940POPC   C3A27605  28.329  31.587   7.978
 1940POPC   C4A27606  28.505  31.796   7.606
 1940POPC   C1B27607  28.227  31.277   8.663
 1940POPC   C2B27608  28.225  31.130   8.243
 1940POPC   C3B27609  28.061  31.160   7.828
 1940POPC   C4B27610  28.318  31.306   7.492
 1941POPC   NC327611  30.241  43.966   9.473
 1941POPC   PO427612  29.768  43.575   9.604
 1941POPC   GL127613  29.775  43.909   9.273
 1941POPC   GL227614  29.927  44.250   9.219
 1941POPC   C1A27615  29.827  43.935   8.843
 1941POPC   D2A27616  29.662  43.938   8.418
 1941POPC   C3A27617  29.921  43.768   8.091
 1941POPC   C4A27618  29.827  43.583   7.682
 1941POPC   C1B27619  30.113  44.348   8.845
 1941POPC   C2B27620  30.118  44.140   8.460
 1941POPC   C3B27621  30.023  44.290   8.052
 1941POPC   C4B27622  30.019  44.079   7.648
 1942POPC   NC327623   9.623   3.998   9.472
 1942POPC   PO427624  10.070   3.419   9.523
 1942POPC   GL127625   9.766   3.571   9.210
 1942POPC   GL227626   9.415   3.428   9.166
 1942POPC   C1A27627   9.809   3.697   8.795
 1942POPC   D2A27628   9.968   3.942   8.467
 1942POPC   C3A27629   9.730   3.773   8.136
 1942POPC   C4A27630   9.790   3.448   7.831
 1942POPC   C1B27631   9.296   3.744   8.825
 1942POPC   C2B27632   9.138   3.677   8.399
 1942POPC   C3B27633   9.236   3.799   7.968
 1942POPC   C4B27634   9.549   3.840   7.640
 1943POPC   NC327635  40.108  29.687   9.621
 1943POPC   PO427636  39.481  29.617   9.485
 1943POPC   GL127637  39.741  29.855   9.166
 1943POPC   GL227638  40.134  29.861   9.151
 1943POPC   C1A27639  39.852  29.897   8.714
 1943POPC   D2A27640  39.864  29.594   8.353
 1943POPC   C3A27641  39.716  29.768   7.978
 1943POPC   C4A27642  39.874  30.149   7.873
 1943POPC   C1B27643  40.358  29.740   8.784
 1943POPC   C2B27644  40.283  29.879   8.380
 1943POPC   C3B27645  40.234  29.719   7.978
 1943POPC   C4B27646  40.481  29.504   7.685
 1944POPC   NC327647  29.079  21.203   9.863
 1944POPC   PO427648  29.558  21.698   9.673
 1944POPC   GL127649  29.335  21.534   9.279
 1944POPC   GL227650  29.054  21.297   9.245
 1944POPC   C1A27651  29.212  21.625   8.859
 1944POPC   D2A27652  29.486  21.532   8.518
 1944POPC   C3A27653  29.316  21.299   8.190
 1944POPC   C4A27654  29.162  21.460   7.785
 1944POPC   C1B27655  28.799  21.297   8.866
 1944POPC   C2B27656  28.901  21.430   8.455
 1944POPC   C3B27657  28.804  21.230   8.074
 1944POPC   C4B27658  28.550  21.014   7.762
 1945POPC   NC327659   2.182  18.000   9.528
 1945POPC   PO427660   2.091  18.676   9.661
 1945POPC   GL127661   1.956  18.381   9.226
 1945POPC   GL227662   2.078  18.025   9.043
 1945POPC   C1A27663   1.837  18.335   8.744
 1945POPC   D2A27664   2.137  18.162   8.421
 1945POPC   C3A27665   2.039  18.165   7.977
 1945POPC   C4A27666   1.867  18.304   7.556
 1945POPC   C1B27667   1.800  17.840   8.708
 1945POPC   C2B27668   1.789  17.788   8.256
 1945POPC   C3B27669   1.659  17.872   7.813
 1945POPC   C4B27670   1.597  17.911   7.336
 1946POPC   NC327671  30.346   4.063   9.498
 1946POPC   PO427672  30.706   4.586   9.490
 1946POPC   GL127673  30.753   4.306   9.163
 1946POPC   GL227674  30.922   4.553   8.962
 1946POPC   C1A27675  30.598   4.083   8.782
 1946POPC   D2A27676  30.731   4.209   8.370
 1946POPC   C3A27677  30.489   4.126   8.022
 1946POPC   C4A27678  30.643   4.280   7.652
 1946POPC   C1B27679  30.498   4.591   8.796
 1946POPC   C2B27680  30.349   4.561   8.359
 1946POPC   C3B27681  30.377   4.636   7.901
 1946POPC   C4B27682  30.245   4.570   7.472
 1947POPC   NC327683  22.775  13.297   9.749
 1947POPC   PO427684  23.130  13.840   9.550
 1947POPC   GL127685  22.952  13.579   9.234
 1947POPC   GL227686  23.282  13.615   9.079
 1947POPC   C1A27687  22.707  13.648   8.860
 1947POPC   D2A27688  22.541  13.381   8.509
 1947POPC   C3A27689  22.690  13.406   8.092
 1947POPC   C4A27690  22.558  13.569   7.701
 1947POPC   C1B27691  23.220  13.777   8.747
 1947POPC   C2B27692  22.980  13.678   8.426
 1947POPC   C3B27693  22.944  13.860   8.058
 1947POPC   C4B27694  23.160  13.773   7.713
 1948POPC   NC327695  31.803  28.224   9.473
 1948POPC   PO427696  31.293  28.656   9.563
 1948POPC   GL127697  31.400  28.565   9.161
 1948POPC   GL227698  31.754  28.575   9.084
 1948POPC   C1A27699  31.377  28.597   8.730
 1948POPC   D2A27700  31.597  28.612   8.342
 1948POPC   C3A27701  31.393  28.426   8.000
 1948POPC   C4A27702  31.568  28.551   7.621
 1948POPC   C1B27703  31.819  28.305   8.702
 1948POPC   C2B27704  31.733  28.095   8.289
 1948POPC   C3B27705  31.715  28.056   7.828
 1948POPC   C4B27706  31.767  28.166   7.364
 1949POPC   NC327707  37.518  27.215   9.378
 1949POPC   PO427708  37.882  26.646   9.561
 1949POPC   GL127709  37.744  26.755   9.169
 1949POPC   GL227710  37.388  26.723   9.240
 1949POPC   C1A27711  37.917  26.831   8.720
 1949POPC   D2A27712  37.685  27.143   8.403
 1949POPC   C3A27713  37.819  27.107   7.964
 1949POPC   C4A27714  38.025  26.724   7.910
 1949POPC   C1B27715  37.416  26.752   8.790
 1949POPC   C2B27716  37.578  26.647   8.394
 1949POPC   C3B27717  37.440  26.778   8.017
 1949POPC   C4B27718  37.610  26.734   7.615
 1950POPC   NC327719   2.275   2.494   9.943
 1950POPC   PO427720   1.799   2.374   9.503
 1950POPC   GL127721   2.018   2.613   9.190
 1950POPC   GL227722   2.338   2.416   9.071
 1950POPC   C1A27723   1.872   2.930   8.833
 1950POPC   D2A27724   1.760   3.132   8.410
 1950POPC   C3A27725   2.069   3.071   8.035
 1950POPC   C4A27726   2.132   2.938   7.576
 1950POPC   C1B27727   1.968   2.443   8.730
 1950POPC   C2B27728   1.978   2.664   8.359
 1950POPC   C3B27729   1.913   2.601   7.935
 1950POPC   C4B27730   1.516   2.403   7.807
 1951POPC   NC327731  20.862  36.499   9.429
 1951POPC   PO427732  20.404  35.935   9.436
 1951POPC   GL127733  20.569  36.177   9.135
 1951POPC   GL227734  20.783  35.897   9.076
 1951POPC   C1A27735  20.428  36.272   8.731
 1951POPC   D2A27736  20.434  36.088   8.304
 1951POPC   C3A27737  20.308  36.205   7.859
 1951POPC   C4A27738  20.649  36.237   7.544
 1951POPC   C1B27739  20.855  35.944   8.650
 1951POPC   C2B27740  20.876  35.810   8.226
 1951POPC   C3B27741  20.692  35.812   7.809
 1951POPC   C4B27742  20.893  35.842   7.335
 1952POPC   NC327743   3.023  15.922   9.415
 1952POPC   PO427744   2.530  15.547   9.659
 1952POPC   GL127745   2.577  15.861   9.203
 1952POPC   GL227746   2.686  16.212   9.101
 1952POPC   C1A27747   2.862  15.820   8.760
 1952POPC   D2A27748   2.838  15.495   8.391
 1952POPC   C3A27749   3.002  15.584   7.989
 1952POPC   C4A27750   2.790  15.889   7.726
 1952POPC   C1B27751   2.996  16.323   8.771
 1952POPC   C2B27752   3.124  16.144   8.349
 1952POPC   C3B27753   3.074  16.256   7.888
 1952POPC   C4B27754   3.000  16.207   7.394
 1953POPC   NC327755  16.469  39.190   9.767
 1953POPC   PO427756  15.860  39.423   9.593
 1953POPC   GL127757  15.858  39.428   9.145
 1953POPC   GL227758  16.186  39.489   8.956
 1953POPC   C1A27759  15.718  39.191   8.773
 1953POPC   D2A27760  15.734  38.964   8.379
 1953POPC   C3A27761  15.877  39.189   8.027
 1953POPC   C4A27762  15.546  39.328   7.791
 1953POPC   C1B27763  16.131  39.591   8.557
 1953POPC   C2B27764  16.112  39.640   8.152
 1953POPC   C3B27765  15.936  39.667   7.793
 1953POPC   C4B27766  16.233  39.373   7.647
 1954POPC   NC327767  21.445   7.883   9.892
 1954POPC   PO427768  21.475   7.392   9.454
 1954POPC   GL127769  21.414   7.415   9.073
 1954POPC   GL227770  21.252   7.686   9.060
 1954POPC   C1A27771  21.327   7.301   8.669
 1954POPC   D2A27772  21.467   7.460   8.286
 1954POPC   C3A27773  21.417   7.231   7.894
 1954POPC   C4A27774  21.646   7.282   7.514
 1954POPC   C1B27775  21.540   7.820   8.737
 1954POPC   C2B27776  21.472   7.982   8.371
 1954POPC   C3B27777  21.516   7.880   7.966
 1954POPC   C4B27778  21.322   7.692   7.618
 1955POPC   NC327779  30.893  19.778   9.522
 1955POPC   PO427780  31.548  19.841   9.541
 1955POPC   GL127781  31.658  20.187   9.242
 1955POPC   GL227782  31.605  19.888   9.036
 1955POPC   C1A27783  31.530  20.309   8.806
 1955POPC   D2A27784  31.637  19.954   8.511
 1955POPC   C3A27785  31.567  19.909   8.086
 1955POPC   C4A27786  31.573  20.086   7.699
 1955POPC   C1B27787  31.797  19.556   8.830
 1955POPC   C2B27788  31.700  19.432   8.428
 1955POPC   C3B27789  31.716  19.371   8.004
 1955POPC   C4B27790  31.441  19.551   7.701
 1956POPC   NC327791  10.641   5.442   9.436
 1956POPC   PO427792  10.451   4.808   9.572
 1956POPC   GL127793  10.415   5.013   9.186
 1956POPC   GL227794  10.211   5.318   9.143
 1956POPC   C1A27795  10.646   5.152   8.817
 1956POPC   D2A27796  10.855   4.954   8.462
 1956POPC   C3A27797  10.655   5.051   8.085
 1956POPC   C4A27798  10.599   5.334   7.769
 1956POPC   C1B27799  10.114   5.041   8.774
 1956POPC   C2B27800  10.295   4.849   8.399
 1956POPC   C3B27801  10.206   4.739   7.981
 1956POPC   C4B27802  10.198   4.839   7.533
 1957POPC   NC327803  40.582  42.507   9.502
 1957POPC   PO427804  40.789  41.921   9.665
 1957POPC   GL127805  40.715  42.111   9.222
 1957POPC   GL227806  40.950  42.399   9.157
 1957POPC   C1A27807  40.563  42.225   8.794
 1957POPC   D2A27808  40.709  42.162   8.359
 1957POPC   C3A27809  40.494  42.285   7.948
 1957POPC   C4A27810  40.494  42.623   7.698
 1957POPC   C1B27811  40.958  42.600   8.782
 1957POPC   C2B27812  40.653  42.713   8.489
 1957POPC   C3B27813  40.813  42.657   8.101
 1957POPC   C4B27814  41.007  42.743   7.715
 1958POPC   NC327815  16.541  11.795   9.489
 1958POPC   PO427816  16.481  12.525   9.451
 1958POPC   GL127817  16.601  12.256   9.122
 1958POPC   GL227818  16.907  12.089   9.065
 1958POPC   C1A27819  16.587  12.243   8.668
 1958POPC   D2A27820  16.263  12.248   8.329
 1958POPC   C3A27821  16.485  12.130   7.967
 1958POPC   C4A27822  16.772  12.131   7.638
 1958POPC   C1B27823  17.180  12.088   8.703
 1958POPC   C2B27824  17.084  12.076   8.271
 1958POPC   C3B27825  16.941  11.778   7.957
 1958POPC   C4B27826  16.969  11.645   7.524
 1959POPC   NC327827  22.246   3.931   9.315
 1959POPC   PO427828  21.859   4.392   9.595
 1959POPC   GL127829  21.938   4.416   9.164
 1959POPC   GL227830  22.288   4.393   9.114
 1959POPC   C1A27831  21.976   4.180   8.773
 1959POPC   D2A27832  22.248   4.244   8.408
 1959POPC   C3A27833  22.057   4.131   8.006
 1959POPC   C4A27834  22.004   4.334   7.606
 1959POPC   C1B27835  22.573   4.219   8.820
 1959POPC   C2B27836  22.753   4.015   8.491
 1959POPC   C3B27837  22.590   4.026   8.080
 1959POPC   C4B27838  22.426   4.040   7.658
 1960POPC   NC327839   2.787  17.664   9.569
 1960POPC   PO427840   3.054  16.994   9.636
 1960POPC   GL127841   2.757  17.204   9.307
 1960POPC   GL227842   2.910  17.501   9.093
 1960POPC   C1A27843   2.591  17.180   8.869
 1960POPC   D2A27844   2.854  17.318   8.505
 1960POPC   C3A27845   2.787  17.239   8.055
 1960POPC   C4A27846   2.707  17.554   7.749
 1960POPC   C1B27847   2.750  17.767   8.723
 1960POPC   C2B27848   2.588  17.849   8.269
 1960POPC   C3B27849   2.528  18.036   7.832
 1960POPC   C4B27850   2.639  17.913   7.386
 1961POPC   NC327851  37.628  44.008   9.811
 1961POPC   PO427852  38.219  43.782   9.581
 1961POPC   GL127853  37.849  43.829   9.265
 1961POPC   GL227854  37.529  44.023   9.233
 1961POPC   C1A27855  37.626  43.701   8.864
 1961POPC   D2A27856  37.415  43.789   8.501
 1961POPC   C3A27857  37.519  43.632   8.115
 1961POPC   C4A27858  37.378  43.516   7.718
 1961POPC   C1B27859  37.692  44.187   8.788
 1961POPC   C2B27860  37.780  44.397   8.422
 1961POPC   C3B27861  37.745  44.245   8.014
 1961POPC   C4B27862  37.568  43.985   7.745
 1962POPC   NC327863  34.172  29.568   9.520
 1962POPC   PO427864  34.791  29.814   9.408
 1962POPC   GL127865  34.412  29.877   9.197
 1962POPC   GL227866  34.486  29.554   9.103
 1962POPC   C1A27867  34.267  29.987   8.809
 1962POPC   D2A27868  34.505  30.055   8.450
 1962POPC   C3A27869  34.324  29.923   8.074
 1962POPC   C4A27870  34.180  29.969   7.663
 1962POPC   C1B27871  34.696  29.706   8.769
 1962POPC   C2B27872  34.832  29.675   8.381
 1962POPC   C3B27873  34.824  29.900   8.041
 1962POPC   C4B27874  34.653  29.797   7.690
 1963POPC   NC327875   5.152   0.771   9.527
 1963POPC   PO427876   4.944   0.097   9.469
 1963POPC   GL127877   5.132   0.375   9.178
 1963POPC   GL227878   4.916   0.635   9.084
 1963POPC   C1A27879   5.323   0.443   8.794
 1963POPC   D2A27880   5.183   0.419   8.393
 1963POPC   C3A27881   5.437   0.473   8.058
 1963POPC   C4A27882   5.359   0.501   7.637
 1963POPC   C1B27883   4.764   0.711   8.683
 1963POPC   C2B27884   4.798   0.717   8.249
 1963POPC   C3B27885   4.918   0.501   7.889
 1963POPC   C4B27886   4.588   0.629   7.580
 1964POPC   NC327887   4.419   2.149   9.994
 1964POPC   PO427888   4.374   2.727   9.550
 1964POPC   GL127889   4.397   2.792   9.146
 1964POPC   GL227890   4.073   2.641   9.130
 1964POPC   C1A27891   4.506   3.017   8.779
 1964POPC   D2A27892   4.733   2.941   8.387
 1964POPC   C3A27893   4.489   2.999   8.004
 1964POPC   C4A27894   4.574   2.884   7.573
 1964POPC   C1B27895   4.009   2.853   8.774
 1964POPC   C2B27896   4.222   2.806   8.404
 1964POPC   C3B27897   4.177   2.547   8.073
 1964POPC   C4B27898   4.098   2.715   7.698
 1965POPC   NC327899  37.287  43.350   9.314
 1965POPC   PO427900  36.829  43.053   9.563
 1965POPC   GL127901  36.837  42.957   9.157
 1965POPC   GL227902  37.177  42.850   9.103
 1965POPC   C1A27903  36.912  43.196   8.776
 1965POPC   D2A27904  37.157  43.344   8.426
 1965POPC   C3A27905  36.993  43.246   8.048
 1965POPC   C4A27906  37.045  43.152   7.634
 1965POPC   C1B27907  37.187  42.794   8.642
 1965POPC   C2B27908  37.178  42.769   8.197
 1965POPC   C3B27909  37.157  42.667   7.790
 1965POPC   C4B27910  36.847  42.750   7.440
 1966POPC   NC327911  14.402  39.837   9.507
 1966POPC   PO427912  14.616  40.358   9.838
 1966POPC   GL127913  14.359  40.318   9.341
 1966POPC   GL227914  14.484  40.092   9.091
 1966POPC   C1A27915  14.151  40.362   8.852
 1966POPC   D2A27916  14.095  40.158   8.389
 1966POPC   C3A27917  14.246  40.305   7.994
 1966POPC   C4A27918  14.382  40.066   7.646
 1966POPC   C1B27919  14.440  39.953   8.702
 1966POPC   C2B27920  14.244  39.662   8.422
 1966POPC   C3B27921  14.398  39.772   8.066
 1966POPC   C4B27922  14.586  39.606   7.728
 1967POPC   NC327923  11.046  32.748   9.428
 1967POPC   PO427924  11.682  33.016   9.462
 1967POPC   GL127925  11.420  32.950   9.135
 1967POPC   GL227926  11.167  33.220   9.205
 1967POPC   C1A27927  11.199  32.795   8.762
 1967POPC   D2A27928  11.134  33.001   8.377
 1967POPC   C3A27929  11.164  32.785   8.016
 1967POPC   C4A27930  10.910  32.798   7.706
 1967POPC   C1B27931  11.294  33.291   8.783
 1967POPC   C2B27932  11.452  33.389   8.371
 1967POPC   C3B27933  11.240  33.308   7.983
 1967POPC   C4B27934  11.488  33.084   7.707
 1968POPC   NC327935  43.224  43.274   9.473
 1968POPC   PO427936  43.732  42.952   9.556
 1968POPC   GL127937  43.329  42.894   9.171
 1968POPC   GL227938  42.960  43.026   9.104
 1968POPC   C1A27939  43.319  43.135   8.737
 1968POPC   D2A27940  43.122  43.324   8.350
 1968POPC   C3A27941  43.162  43.105   7.933
 1968POPC   C4A27942  43.426  43.205   7.576
 1968POPC   C1B27943  42.786  43.033   8.654
 1968POPC   C2B27944  42.645  43.146   8.249
 1968POPC   C3B27945  42.790  43.474   7.970
 1968POPC   C4B27946  42.984  43.470   7.581
 1969POPC   NC327947  43.893  38.018   9.455
 1969POPC   PO427948  43.876  37.519   9.908
 1969POPC   GL127949  43.891  37.488   9.451
 1969POPC   GL227950  44.196  37.636   9.304
 1969POPC   C1A27951  43.722  37.442   9.014
 1969POPC   D2A27952  43.734  37.641   8.590
 1969POPC   C3A27953  43.850  37.429   8.194
 1969POPC   C4A27954  43.663  37.405   7.773
 1969POPC   C1B27955  44.141  37.883   8.863
 1969POPC   C2B27956  44.188  37.822   8.388
 1969POPC   C3B27957  44.081  37.885   7.953
 1969POPC   C4B27958  44.316  38.027   7.590
 1970POPC   NC327959  29.178   9.215   9.426
 1970POPC   PO427960  29.407   9.852   9.402
 1970POPC   GL127961  29.123   9.767   9.037
 1970POPC   GL227962  29.074   9.426   8.985
 1970POPC   C1A27963  28.980   9.801   8.597
 1970POPC   D2A27964  29.342   9.809   8.266
 1970POPC   C3A27965  29.267   9.979   7.841
 1970POPC   C4A27966  28.876  10.203   7.889
 1970POPC   C1B27967  29.318   9.426   8.642
 1970POPC   C2B27968  29.049   9.360   8.287
 1970POPC   C3B27969  29.145   9.494   7.906
 1970POPC   C4B27970  29.535   9.494   7.720
 1971POPC   NC327971  27.228  12.555   9.521
 1971POPC   PO427972  27.521  13.159   9.526
 1971POPC   GL127973  27.419  12.887   9.184
 1971POPC   GL227974  27.702  12.985   9.046
 1971POPC   C1A27975  27.267  12.961   8.747
 1971POPC   D2A27976  27.115  12.817   8.329
 1971POPC   C3A27977  27.457  12.716   7.992
 1971POPC   C4A27978  27.598  13.070   7.813
 1971POPC   C1B27979  27.699  12.664   8.789
 1971POPC   C2B27980  27.817  12.772   8.378
 1971POPC   C3B27981  28.033  12.584   8.056
 1971POPC   C4B27982  27.913  12.685   7.676
 1972POPC   NC327983   5.205  35.063   9.484
 1972POPC   PO427984   4.777  35.496   9.803
 1972POPC   GL127985   4.862  35.403   9.292
 1972POPC   GL227986   5.233  35.470   9.157
 1972POPC   C1A27987   4.901  35.397   8.793
 1972POPC   D2A27988   5.189  35.331   8.414
 1972POPC   C3A27989   4.995  35.345   8.013
 1972POPC   C4A27990   4.719  35.664   7.877
 1972POPC   C1B27991   5.389  35.127   8.843
 1972POPC   C2B27992   5.564  35.000   8.416
 1972POPC   C3B27993   5.355  34.947   8.019
 1972POPC   C4B27994   5.227  35.060   7.608
 1973POPC   NC327995  37.478  21.148   9.452
 1973POPC   PO427996  37.528  20.419   9.569
 1973POPC   GL127997  37.510  20.706   9.168
 1973POPC   GL227998  37.818  20.688   9.049
 1973POPC   C1A27999  37.568  20.886   8.687
 1973POPC   D2A28000  37.925  21.030   8.403
 1973POPC   C3A28001  37.847  20.940   7.967
 1973POPC   C4A28002  37.461  20.776   7.917
 1973POPC   C1B28003  37.619  20.367   8.768
 1973POPC   C2B28004  37.436  20.390   8.363
 1973POPC   C3B28005  37.593  20.230   7.990
 1973POPC   C4B28006  37.911  20.425   7.865
 1974POPC   NC328007  36.806  26.534   9.977
 1974POPC   PO428008  37.178  27.025   9.640
 1974POPC   GL128009  36.952  27.020   9.236
 1974POPC   GL228010  36.644  26.814   9.236
 1974POPC   C1A28011  36.935  26.899   8.803
 1974POPC   D2A28012  37.071  26.743   8.398
 1974POPC   C3A28013  36.964  26.552   8.008
 1974POPC   C4A28014  37.102  26.764   7.632
 1974POPC   C1B28015  36.580  26.548   8.852
 1974POPC   C2B28016  36.519  26.665   8.412
 1974POPC   C3B28017  36.600  26.882   8.047
 1974POPC   C4B28018  36.604  26.701   7.643
 1975POPC   NC328019  22.665  40.318   9.500
 1975POPC   PO428020  23.047  40.836   9.464
 1975POPC   GL128021  22.924  40.657   9.156
 1975POPC   GL228022  22.578  40.733   9.208
 1975POPC   C1A28023  23.146  40.683   8.775
 1975POPC   D2A28024  23.384  40.760   8.422
 1975POPC   C3A28025  23.185  40.731   8.036
 1975POPC   C4A28026  23.150  40.970   7.644
 1975POPC   C1B28027  22.625  40.643   8.764
 1975POPC   C2B28028  22.820  40.710   8.389
 1975POPC   C3B28029  22.655  40.633   8.014
 1975POPC   C4B28030  22.636  40.823   7.627
 1976POPC   NC328031   5.591  38.805   9.588
 1976POPC   PO428032   5.587  38.178   9.595
 1976POPC   GL128033   5.585  38.428   9.232
 1976POPC   GL228034   5.941  38.583   9.188
 1976POPC   C1A28035   5.619  38.314   8.824
 1976POPC   D2A28036   5.908  38.345   8.503
 1976POPC   C3A28037   5.766  38.210   8.118
 1976POPC   C4A28038   6.007  38.325   7.757
 1976POPC   C1B28039   5.836  38.791   8.789
 1976POPC   C2B28040   5.808  38.991   8.384
 1976POPC   C3B28041   5.804  38.732   8.038
 1976POPC   C4B28042   5.899  38.798   7.613
 1977POPC   NC328043  21.714   2.393   9.576
 1977POPC   PO428044  21.326   2.985   9.409
 1977POPC   GL128045  21.450   2.768   9.128
 1977POPC   GL228046  21.560   3.054   8.951
 1977POPC   C1A28047  21.347   2.643   8.736
 1977POPC   D2A28048  21.333   2.871   8.367
 1977POPC   C3A28049  21.227   2.684   7.949
 1977POPC   C4A28050  21.436   2.540   7.551
 1977POPC   C1B28051  21.784   3.046   8.588
 1977POPC   C2B28052  21.626   3.274   8.253
 1977POPC   C3B28053  21.392   3.176   7.951
 1977POPC   C4B28054  21.550   3.045   7.581
 1978POPC   NC328055  28.905   6.195   9.348
 1978POPC   PO428056  28.924   5.549   9.481
 1978POPC   GL128057  28.902   5.730   9.083
 1978POPC   GL228058  29.217   5.955   9.007
 1978POPC   C1A28059  28.986   5.602   8.666
 1978POPC   D2A28060  29.325   5.586   8.364
 1978POPC   C3A28061  29.164   5.481   7.962
 1978POPC   C4A28062  28.826   5.701   7.746
 1978POPC   C1B28063  29.265   6.082   8.546
 1978POPC   C2B28064  29.211   6.016   8.059
 1978POPC   C3B28065  29.271   5.866   7.605
 1978POPC   C4B28066  29.249   6.062   7.163
 1979POPC   NC328067   8.374  32.388   9.553
 1979POPC   PO428068   7.972  31.800   9.499
 1979POPC   GL128069   7.968  32.185   9.275
 1979POPC   GL228070   8.278  32.218   9.086
 1979POPC   C1A28071   7.856  32.452   8.936
 1979POPC   D2A28072   7.891  32.390   8.507
 1979POPC   C3A28073   7.826  32.200   8.120
 1979POPC   C4A28074   8.182  32.112   7.855
 1979POPC   C1B28075   8.380  32.603   8.874
 1979POPC   C2B28076   8.230  32.774   8.498
 1979POPC   C3B28077   8.183  32.572   8.096
 1979POPC   C4B28078   8.415  32.518   7.696
 1980POPC   NC328079  28.251  29.869   9.954
 1980POPC   PO428080  28.381  30.264   9.462
 1980POPC   GL128081  28.350  30.050   9.056
 1980POPC   GL228082  28.402  29.725   9.075
 1980POPC   C1A28083  28.093  29.956   8.700
 1980POPC   D2A28084  28.126  30.253   8.407
 1980POPC   C3A28085  28.221  30.210   8.009
 1980POPC   C4A28086  28.096  29.962   7.670
 1980POPC   C1B28087  28.567  29.828   8.655
 1980POPC   C2B28088  28.371  29.779   8.265
 1980POPC   C3B28089  28.527  29.804   7.858
 1980POPC   C4B28090  28.584  29.654   7.399
 1981POPC   NC328091   5.909  37.088   9.845
 1981POPC   PO428092   6.053  36.645   9.377
 1981POPC   GL128093   5.767  36.820   9.044
 1981POPC   GL228094   5.665  37.197   9.034
 1981POPC   C1A28095   5.792  36.923   8.600
 1981POPC   D2A28096   5.732  37.207   8.241
 1981POPC   C3A28097   5.658  37.000   7.843
 1981POPC   C4A28098   5.586  36.720   7.469
 1981POPC   C1B28099   5.967  37.404   8.690
 1981POPC   C2B28100   6.205  37.415   8.264
 1981POPC   C3B28101   6.116  37.231   7.836
 1981POPC   C4B28102   5.938  37.103   7.424
 1982POPC   NC328103  44.838  42.709   9.583
 1982POPC   PO428104  44.375  42.188   9.492
 1982POPC   GL128105  44.439  42.386   9.096
 1982POPC   GL228106  44.828  42.432   9.144
 1982POPC   C1A28107  44.332  42.376   8.627
 1982POPC   D2A28108  44.170  42.347   8.204
 1982POPC   C3A28109  44.396  42.582   7.978
 1982POPC   C4A28110  44.584  42.577   7.624
 1982POPC   C1B28111   0.034  42.408   8.729
 1982POPC   C2B28112  44.829  42.415   8.311
 1982POPC   C3B28113  44.990  42.433   7.899
 1982POPC   C4B28114   0.065  42.599   7.488
 1983POPC   NC328115  24.573  31.870   9.309
 1983POPC   PO428116  24.099  32.242   9.649
 1983POPC   GL128117  24.176  32.312   9.214
 1983POPC   GL228118  24.006  32.041   9.156
 1983POPC   C1A28119  24.389  32.190   8.783
 1983POPC   D2A28120  24.696  32.267   8.452
 1983POPC   C3A28121  24.559  32.134   8.047
 1983POPC   C4A28122  24.933  31.947   7.830
 1983POPC   C1B28123  23.897  32.275   8.759
 1983POPC   C2B28124  24.045  32.169   8.334
 1983POPC   C3B28125  24.125  32.378   7.910
 1983POPC   C4B28126  24.195  32.343   7.440
 1984POPC   NC328127  31.199  33.349   9.503
 1984POPC   PO428128  30.576  33.107   9.532
 1984POPC   GL128129  30.644  33.008   9.122
 1984POPC   GL228130  30.285  32.817   9.154
 1984POPC   C1A28131  31.000  32.939   8.807
 1984POPC   D2A28132  31.014  33.065   8.374
 1984POPC   C3A28133  30.866  32.731   8.114
 1984POPC   C4A28134  30.959  32.757   7.700
 1984POPC   C1B28135  30.249  33.146   8.839
 1984POPC   C2B28136  30.530  33.092   8.511
 1984POPC   C3B28137  30.482  33.083   8.073
 1984POPC   C4B28138  30.585  33.227   7.674
 1985POPC   NC328139  43.577  41.431   9.453
 1985POPC   PO428140  42.957  41.825   9.465
 1985POPC   GL128141  43.062  41.729   9.048
 1985POPC   GL228142  43.425  41.639   8.999
 1985POPC   C1A28143  43.081  41.725   8.596
 1985POPC   D2A28144  43.232  41.638   8.188
 1985POPC   C3A28145  42.907  41.441   7.974
 1985POPC   C4A28146  42.913  41.764   7.679
 1985POPC   C1B28147  43.180  41.255   8.838
 1985POPC   C2B28148  43.124  41.133   8.399
 1985POPC   C3B28149  43.399  41.177   8.014
 1985POPC   C4B28150  43.323  41.473   7.691
 1986POPC   NC328151  29.303  25.224   9.509
 1986POPC   PO428152  28.960  24.803   9.194
 1986POPC   GL128153  29.232  25.068   8.977
 1986POPC   GL228154  29.221  25.404   9.041
 1986POPC   C1A28155  29.175  25.224   8.573
 1986POPC   D2A28156  29.183  25.424   8.200
 1986POPC   C3A28157  29.205  25.118   7.875
 1986POPC   C4A28158  29.427  25.124   7.486
 1986POPC   C1B28159  28.851  25.529   8.836
 1986POPC   C2B28160  28.776  25.785   8.457
 1986POPC   C3B28161  28.916  25.811   8.023
 1986POPC   C4B28162  28.777  25.406   7.834
 1987POPC   NC328163  43.123  18.446   9.615
 1987POPC   PO428164  43.157  17.783   9.569
 1987POPC   GL128165  43.173  18.024   9.182
 1987POPC   GL228166  43.100  18.371   9.122
 1987POPC   C1A28167  43.195  18.000   8.756
 1987POPC   D2A28168  43.117  18.196   8.382
 1987POPC   C3A28169  43.151  17.986   8.014
 1987POPC   C4A28170  43.298  18.106   7.615
 1987POPC   C1B28171  42.995  18.547   8.744
 1987POPC   C2B28172  43.019  18.727   8.343
 1987POPC   C3B28173  43.132  18.509   7.963
 1987POPC   C4B28174  42.968  18.477   7.559
 1988POPC   NC328175  26.539  30.661   9.410
 1988POPC   PO428176  26.183  31.040   9.801
 1988POPC   GL128177  26.058  30.811   9.293
 1988POPC   GL228178  26.336  30.765   8.971
 1988POPC   C1A28179  25.863  30.746   8.847
 1988POPC   D2A28180  26.138  30.907   8.477
 1988POPC   C3A28181  26.124  30.775   8.037
 1988POPC   C4A28182  25.943  30.432   7.803
 1988POPC   C1B28183  26.349  30.470   8.616
 1988POPC   C2B28184  26.387  30.297   8.184
 1988POPC   C3B28185  26.433  30.323   7.727
 1988POPC   C4B28186  26.322  30.513   7.291
 1989POPC   NC328187   3.490  31.346   9.555
 1989POPC   PO428188   4.096  31.444   9.633
 1989POPC   GL128189   3.804  31.597   9.236
 1989POPC   GL228190   3.449  31.483   9.082
 1989POPC   C1A28191   3.826  31.550   8.755
 1989POPC   D2A28192   3.591  31.582   8.355
 1989POPC   C3A28193   3.657  31.584   7.887
 1989POPC   C4A28194   3.323  31.651   7.513
 1989POPC   C1B28195   3.373  31.198   8.745
 1989POPC   C2B28196   3.511  31.028   8.355
 1989POPC   C3B28197   3.406  31.138   7.942
 1989POPC   C4B28198   3.032  31.199   7.696
 1990POPC   NC328199  36.937  19.490   9.444
 1990POPC   PO428200  36.567  20.076   9.596
 1990POPC   GL128201  36.759  19.928   9.203
 1990POPC   GL228202  37.066  20.121   9.102
 1990POPC   C1A28203  36.968  19.715   8.805
 1990POPC   D2A28204  37.039  19.455   8.411
 1990POPC   C3A28205  36.933  19.676   8.015
 1990POPC   C4A28206  36.945  19.633   7.569
 1990POPC   C1B28207  36.740  20.211   8.788
 1990POPC   C2B28208  36.916  20.240   8.408
 1990POPC   C3B28209  37.101  20.153   8.038
 1990POPC   C4B28210  36.923  20.117   7.683
 1991POPC   NC328211   8.554  10.301   9.695
 1991POPC   PO428212   8.049  10.594   9.622
 1991POPC   GL128213   8.038  10.511   9.181
 1991POPC   GL228214   8.313  10.672   9.162
 1991POPC   C1A28215   8.179  10.420   8.733
 1991POPC   D2A28216   8.267  10.277   8.302
 1991POPC   C3A28217   8.187  10.587   7.961
 1991POPC   C4A28218   8.003  10.471   7.553
 1991POPC   C1B28219   8.038  10.937   8.881
 1991POPC   C2B28220   8.111  11.071   8.441
 1991POPC   C3B28221   7.958  11.074   7.999
 1991POPC   C4B28222   7.933  10.966   7.530
 1992POPC   NC328223  36.206  40.007   9.647
 1992POPC   PO428224  36.821  40.336   9.657
 1992POPC   GL128225  36.800  40.130   9.283
 1992POPC   GL228226  37.128  40.031   9.200
 1992POPC   C1A28227  36.764  40.207   8.854
 1992POPC   D2A28228  36.903  40.093   8.453
 1992POPC   C3A28229  36.597  40.015   8.179
 1992POPC   C4A28230  36.620  40.016   7.751
 1992POPC   C1B28231  37.063  39.773   8.820
 1992POPC   C2B28232  36.949  39.574   8.414
 1992POPC   C3B28233  37.016  39.754   7.981
 1992POPC   C4B28234  36.999  39.830   7.495
 1993POPC   NC328235  34.942  24.847   9.409
 1993POPC   PO428236  34.643  24.238   9.480
 1993POPC   GL128237  34.588  24.417   9.091
 1993POPC   GL228238  34.562  24.780   9.041
 1993POPC   C1A28239  34.611  24.206   8.741
 1993POPC   D2A28240  34.423  24.245   8.371
 1993POPC   C3A28241  34.562  24.090   8.020
 1993POPC   C4A28242  34.641  24.385   7.770
 1993POPC   C1B28243  34.184  24.971   8.832
 1993POPC   C2B28244  34.072  24.836   8.416
 1993POPC   C3B28245  34.263  24.620   8.051
 1993POPC   C4B28246  34.317  24.733   7.614
 1994POPC   NC328247  16.592  14.569   9.579
 1994POPC   PO428248  17.266  14.562   9.696
 1994POPC   GL128249  17.094  14.417   9.226
 1994POPC   GL228250  16.885  14.687   9.156
 1994POPC   C1A28251  16.944  14.387   8.760
 1994POPC   D2A28252  16.746  14.580   8.385
 1994POPC   C3A28253  16.681  14.246   8.061
 1994POPC   C4A28254  16.752  14.092   7.651
 1994POPC   C1B28255  16.485  14.636   8.871
 1994POPC   C2B28256  16.287  14.765   8.464
 1994POPC   C3B28257  16.320  14.657   8.029
 1994POPC   C4B28258  16.624  14.605   7.704
 1995POPC   NC328259  26.829  20.941   9.507
 1995POPC   PO428260  26.667  20.250   9.443
 1995POPC   GL128261  26.722  20.545   9.127
 1995POPC   GL228262  27.039  20.660   9.118
 1995POPC   C1A28263  26.642  20.495   8.707
 1995POPC   D2A28264  26.440  20.335   8.353
 1995POPC   C3A28265  26.595  20.536   8.022
 1995POPC   C4A28266  26.738  20.535   7.627
 1995POPC   C1B28267  27.032  20.849   8.724
 1995POPC   C2B28268  26.899  20.763   8.352
 1995POPC   C3B28269  27.014  20.831   7.953
 1995POPC   C4B28270  27.155  21.047   7.618
 1996POPC   NC328271  41.875   2.873   9.496
 1996POPC   PO428272  42.484   2.604   9.507
 1996POPC   GL128273  42.339   2.918   9.223
 1996POPC   GL228274  42.130   2.649   9.112
 1996POPC   C1A28275  42.440   3.137   8.818
 1996POPC   D2A28276  42.563   2.933   8.407
 1996POPC   C3A28277  42.706   3.127   8.012
 1996POPC   C4A28278  42.707   2.904   7.672
 1996POPC   C1B28279  42.472   2.608   8.802
 1996POPC   C2B28280  42.440   2.431   8.393
 1996POPC   C3B28281  42.423   2.612   7.976
 1996POPC   C4B28282  42.087   2.815   7.692
 1997POPC   NC328283  36.909  23.002   9.541
 1997POPC   PO428284  37.284  22.464   9.349
 1997POPC   GL128285  37.033  22.777   9.094
 1997POPC   GL228286  36.664  22.925   9.085
 1997POPC   C1A28287  36.992  22.967   8.687
 1997POPC   D2A28288  36.950  23.245   8.326
 1997POPC   C3A28289  37.154  23.117   7.952
 1997POPC   C4A28290  37.206  22.681   7.854
 1997POPC   C1B28291  36.508  23.129   8.659
 1997POPC   C2B28292  36.422  23.304   8.222
 1997POPC   C3B28293  36.572  23.113   7.804
 1997POPC   C4B28294  36.568  23.037   7.349
 1998POPC   NC328295  37.239  44.400   9.630
 1998POPC   PO428296  36.755  44.804   9.655
 1998POPC   GL128297  37.031  44.704   9.253
 1998POPC   GL228298  37.127  44.355   9.164
 1998POPC   C1A28299  36.894  44.620   8.814
 1998POPC   D2A28300  36.738  44.912   8.511
 1998POPC   C3A28301  36.696  44.750   8.103
 1998POPC   C4A28302  36.846  44.716   7.697
 1998POPC   C1B28303  37.193  44.169   8.822
 1998POPC   C2B28304  37.277  44.254   8.415
 1998POPC   C3B28305  37.164  44.048   8.049
 1998POPC   C4B28306  37.184  44.332   7.738
 1999POPC   NC328307  35.037   0.837   9.320
 1999POPC   PO428308  35.630   1.188   9.269
 1999POPC   GL128309  35.225   1.203   9.016
 1999POPC   GL228310  35.090   0.894   8.822
 1999POPC   C1A28311  35.125   1.386   8.627
 1999POPC   D2A28312  35.431   1.535   8.355
 1999POPC   C3A28313  35.335   1.305   8.022
 1999POPC   C4A28314  35.224   1.404   7.639
 1999POPC   C1B28315  35.516   0.917   8.626
 1999POPC   C2B28316  35.748   1.015   8.222
 1999POPC   C3B28317  35.663   1.010   7.768
 1999POPC   C4B28318  35.266   0.901   7.609
 2000POPC   NC328319  35.954  44.600   9.582
 2000POPC   PO428320  35.271  44.631   9.743
 2000POPC   GL128321  35.206  44.592   9.170
 2000POPC   GL228322  35.509  44.759   9.033
 2000POPC   C1A28323  35.386  44.399   8.720
 2000POPC   D2A28324  35.499  44.584   8.292
 2000POPC   C3A28325  35.282  44.697   7.957
 2000POPC   C4A28326  34.926  44.992   7.870
 2000POPC   C1B28327  35.349  44.900   8.681
 2000POPC   C2B28328  35.679   0.043   8.427
 2000POPC   C3B28329  35.667   0.038   8.006
 2000POPC   C4B28330  35.881   0.011   7.641
 2001POPC   NC328331  34.863  44.656   9.543
 2001POPC   PO428332  34.305  44.382   9.683
 2001POPC   GL128333  34.472  44.492   9.232
 2001POPC   GL228334  34.773  44.319   9.130
 2001POPC   C1A28335  34.379  44.597   8.788
 2001POPC   D2A28336  34.174  44.693   8.371
 2001POPC   C3A28337  34.463  44.725   8.025
 2001POPC   C4A28338  34.514  44.881   7.591
 2001POPC   C1B28339  34.895  44.543   8.746
 2001POPC   C2B28340  34.922  44.668   8.311
 2001POPC   C3B28341  34.860  44.435   7.896
 2001POPC   C4B28342  34.914  44.597   7.456
 2002POPC   NC328343  42.900  38.031   9.341
 2002POPC   PO428344  42.727  38.674   9.463
 2002POPC   GL128345  42.896  38.528   9.101
 2002POPC   GL228346  43.246  38.600   9.148
 2002POPC   C1A28347  42.849  38.340   8.711
 2002POPC   D2A28348  43.112  38.323   8.368
 2002POPC   C3A28349  42.908  38.260   8.016
 2002POPC   C4A28350  42.882  37.927   7.748
 2002POPC   C1B28351  43.381  38.369   8.816
 2002POPC   C2B28352  43.580  38.510   8.445
 2002POPC   C3B28353  43.393  38.719   8.087
 2002POPC   C4B28354  43.133  38.603   7.741
 2003POPC   NC328355  19.965  40.339   9.451
 2003POPC   PO428356  19.522  39.858   9.537
 2003POPC   GL128357  19.700  39.938   9.148
 2003POPC   GL228358  20.013  39.781   9.108
 2003POPC   C1A28359  19.677  39.962   8.697
 2003POPC   D2A28360  19.752  40.142   8.290
 2003POPC   C3A28361  19.476  39.943   7.981
 2003POPC   C4A28362  19.595  39.788   7.585
 2003POPC   C1B28363  20.201  39.929   8.690
 2003POPC   C2B28364  20.160  39.677   8.291
 2003POPC   C3B28365  20.014  39.864   7.899
 2003POPC   C4B28366  19.804  40.280   7.769
 2004POPC   NC328367  37.819  25.589   9.477
 2004POPC   PO428368  38.045  25.040   9.173
 2004POPC   GL128369  37.867  25.397   9.022
 2004POPC   GL228370  37.522  25.325   9.135
 2004POPC   C1A28371  37.725  25.398   8.652
 2004POPC   D2A28372  37.698  25.007   8.498
 2004POPC   C3A28373  37.725  25.041   8.056
 2004POPC   C4A28374  37.957  25.403   7.889
 2004POPC   C1B28375  37.271  25.179   8.763
 2004POPC   C2B28376  37.311  25.303   8.301
 2004POPC   C3B28377  37.390  25.351   7.852
 2004POPC   C4B28378  37.279  25.178   7.462
 2005POPC   NC328379  21.616  24.582   9.644
 2005POPC   PO428380  21.139  24.980   9.580
 2005POPC   GL128381  21.454  24.834   9.215
 2005POPC   GL228382  21.523  24.454   9.166
 2005POPC   C1A28383  21.536  24.747   8.746
 2005POPC   D2A28384  21.345  24.743   8.302
 2005POPC   C3A28385  21.396  24.522   7.901
 2005POPC   C4A28386  21.114  24.481   7.554
 2005POPC   C1B28387  21.757  24.293   8.797
 2005POPC   C2B28388  21.728  24.398   8.370
 2005POPC   C3B28389  21.719  24.140   7.986
 2005POPC   C4B28390  21.540  24.146   7.541
 2006POPC   NC328391   2.288  41.842   9.473
 2006POPC   PO428392   1.880  42.389   9.417
 2006POPC   GL128393   1.869  42.168   9.041
 2006POPC   GL228394   2.116  42.413   8.943
 2006POPC   C1A28395   1.950  42.084   8.597
 2006POPC   D2A28396   1.958  42.390   8.287
 2006POPC   C3A28397   1.734  42.318   7.955
 2006POPC   C4A28398   1.707  42.012   7.667
 2006POPC   C1B28399   2.433  42.194   8.687
 2006POPC   C2B28400   2.386  42.098   8.236
 2006POPC   C3B28401   2.206  42.229   7.823
 2006POPC   C4B28402   2.156  41.899   7.456
 2007POPC   NC328403   0.182   4.582   9.918
 2007POPC   PO428404   0.710   4.429   9.569
 2007POPC   GL128405   0.425   4.359   9.200
 2007POPC   GL228406   0.355   4.018   9.084
 2007POPC   C1A28407   0.534   4.418   8.753
 2007POPC   D2A28408   0.628   4.670   8.375
 2007POPC   C3A28409   0.697   4.610   7.929
 2007POPC   C4A28410   0.460   4.688   7.523
 2007POPC   C1B28411   0.497   3.923   8.683
 2007POPC   C2B28412   0.541   4.154   8.292
 2007POPC   C3B28413   0.340   4.249   7.916
 2007POPC   C4B28414   0.611   4.219   7.578
 2008POPC   NC328415  33.821  33.380   9.533
 2008POPC   PO428416  33.516  34.016   9.590
 2008POPC   GL128417  33.729  33.886   9.162
 2008POPC   GL228418  33.673  33.582   9.096
 2008POPC   C1A28419  33.812  33.813   8.663
 2008POPC   D2A28420  33.651  34.079   8.321
 2008POPC   C3A28421  33.733  33.999   7.911
 2008POPC   C4A28422  34.130  33.904   7.818
 2008POPC   C1B28423  33.545  33.352   8.737
 2008POPC   C2B28424  33.821  33.305   8.399
 2008POPC   C3B28425  33.841  33.528   8.056
 2008POPC   C4B28426  33.470  33.525   7.795
 2009POPC   NC328427  32.398  17.682   9.555
 2009POPC   PO428428  31.937  17.270   9.630
 2009POPC   GL128429  32.232  17.285   9.213
 2009POPC   GL228430  32.448  17.597   9.066
 2009POPC   C1A28431  32.326  17.244   8.741
 2009POPC   D2A28432  32.413  17.512   8.378
 2009POPC   C3A28433  32.273  17.335   8.000
 2009POPC   C4A28434  32.151  17.318   7.550
 2009POPC   C1B28435  32.088  17.693   8.770
 2009POPC   C2B28436  31.939  17.720   8.311
 2009POPC   C3B28437  32.097  17.787   7.870
 2009POPC   C4B28438  32.518  17.639   7.675
 2010POPC   NC328439  13.016   7.947   9.565
 2010POPC   PO428440  12.802   8.614   9.562
 2010POPC   GL128441  12.739   8.305   9.278
 2010POPC   GL228442  12.459   8.453   9.133
 2010POPC   C1A28443  12.842   8.057   8.921
 2010POPC   D2A28444  13.032   8.086   8.529
 2010POPC   C3A28445  12.808   7.905   8.184
 2010POPC   C4A28446  12.836   8.160   7.811
 2010POPC   C1B28447  12.644   8.516   8.722
 2010POPC   C2B28448  12.615   8.398   8.272
 2010POPC   C3B28449  12.480   8.523   7.851
 2010POPC   C4B28450  12.644   8.478   7.427
 2011POPC   NC328451  16.104  21.166   9.432
 2011POPC   PO428452  15.655  21.672   9.374
 2011POPC   GL128453  15.719  21.351   9.110
 2011POPC   GL228454  16.006  21.480   8.990
 2011POPC   C1A28455  15.770  21.213   8.654
 2011POPC   D2A28456  16.042  21.478   8.443
 2011POPC   C3A28457  16.086  21.318   8.048
 2011POPC   C4A28458  15.737  21.276   7.798
 2011POPC   C1B28459  15.604  21.686   8.724
 2011POPC   C2B28460  15.387  21.811   8.305
 2011POPC   C3B28461  15.544  21.789   7.846
 2011POPC   C4B28462  15.979  21.715   7.675
 2012POPC   NC328463  17.327  11.592   9.558
 2012POPC   PO428464  17.923  11.744   9.536
 2012POPC   GL128465  17.696  11.630   9.147
 2012POPC   GL228466  17.351  11.773   9.088
 2012POPC   C1A28467  17.702  11.330   8.784
 2012POPC   D2A28468  17.508  11.146   8.414
 2012POPC   C3A28469  17.599  11.281   7.995
 2012POPC   C4A28470  17.443  11.659   7.838
 2012POPC   C1B28471  17.234  11.534   8.730
 2012POPC   C2B28472  17.261  11.566   8.297
 2012POPC   C3B28473  17.085  11.268   7.956
 2012POPC   C4B28474  16.883  11.128   7.547
 2013POPC   NC328475  32.498  43.739   9.569
 2013POPC   PO428476  32.069  44.336   9.479
 2013POPC   GL128477  32.377  44.109   9.235
 2013POPC   GL228478  32.184  43.783   9.179
 2013POPC   C1A28479  32.484  44.013   8.826
 2013POPC   D2A28480  32.396  43.765   8.458
 2013POPC   C3A28481  32.409  43.997   8.140
 2013POPC   C4A28482  32.512  43.895   7.748
 2013POPC   C1B28483  32.006  43.798   8.768
 2013POPC   C2B28484  31.920  44.015   8.336
 2013POPC   C3B28485  31.980  43.943   7.859
 2013POPC   C4B28486  32.122  43.722   7.465
 2014POPC   NC328487  32.535  44.509   9.537
 2014POPC   PO428488  32.234   0.023   9.828
 2014POPC   GL128489  32.337  44.909   9.332
 2014POPC   GL228490  32.497   0.134   9.136
 2014POPC   C1A28491  32.260  44.640   8.920
 2014POPC   D2A28492  32.278  44.367   8.503
 2014POPC   C3A28493  32.145  44.431   8.043
 2014POPC   C4A28494  32.280  44.668   7.664
 2014POPC   C1B28495  32.457   0.055   8.690
 2014POPC   C2B28496  32.332  44.883   8.286
 2014POPC   C3B28497  32.349   0.132   7.906
 2014POPC   C4B28498  32.267   0.149   7.468
 2015POPC   NC328499  12.667  41.770   9.271
 2015POPC   PO428500  12.783  42.350   9.571
 2015POPC   GL128501  12.935  42.341   9.168
 2015POPC   GL228502  13.083  42.044   9.218
 2015POPC   C1A28503  12.875  42.432   8.720
 2015POPC   D2A28504  12.626  42.428   8.351
 2015POPC   C3A28505  12.792  42.560   7.954
 2015POPC   C4A28506  12.740  42.613   7.516
 2015POPC   C1B28507  13.258  42.078   8.800
 2015POPC   C2B28508  13.145  42.086   8.361
 2015POPC   C3B28509  13.216  42.258   7.941
 2015POPC   C4B28510  12.920  42.141   7.622
 2016POPC   NC328511   0.882  25.217   9.319
 2016POPC   PO428512   1.418  25.592   9.291
 2016POPC   GL128513   1.387  25.187   9.054
 2016POPC   GL228514   1.248  24.849   9.085
 2016POPC   C1A28515   1.315  25.100   8.616
 2016POPC   D2A28516   1.461  25.406   8.335
 2016POPC   C3A28517   1.237  25.408   7.942
 2016POPC   C4A28518   1.328  25.339   7.525
 2016POPC   C1B28519   0.905  24.841   8.769
 2016POPC   C2B28520   0.925  24.783   8.345
 2016POPC   C3B28521   0.978  24.970   7.939
 2016POPC   C4B28522   1.007  24.941   7.465
 2017POPC   NC328523  35.477  36.233   9.381
 2017POPC   PO428524  34.993  35.756   9.341
 2017POPC   GL128525  35.179  35.980   9.016
 2017POPC   GL228526  35.141  36.331   9.016
 2017POPC   C1A28527  35.222  36.057   8.593
 2017POPC   D2A28528  35.346  35.817   8.303
 2017POPC   C3A28529  35.612  36.036   8.083
 2017POPC   C4A28530  35.523  35.948   7.695
 2017POPC   C1B28531  34.924  36.469   8.632
 2017POPC   C2B28532  35.095  36.461   8.188
 2017POPC   C3B28533  35.243  36.362   7.741
 2017POPC   C4B28534  35.382  36.573   7.347
 2018POPC   NC328535  40.039   9.979   9.756
 2018POPC   PO428536  40.273   9.639   9.238
 2018POPC   GL128537  40.033   9.804   8.977
 2018POPC   GL228538  39.897  10.124   9.032
 2018POPC   C1A28539  40.222   9.865   8.584
 2018POPC   D2A28540  40.309   9.522   8.310
 2018POPC   C3A28541  40.262   9.669   7.895
 2018POPC   C4A28542  40.049  10.014   7.641
 2018POPC   C1B28543  39.710   9.989   8.637
 2018POPC   C2B28544  39.798   9.635   8.375
 2018POPC   C3B28545  39.760   9.723   7.967
 2018POPC   C4B28546  39.801   9.553   7.575
 2019POPC   NC328547  13.202  12.677   9.514
 2019POPC   PO428548  13.673  12.220   9.467
 2019POPC   GL128549  13.443  12.177   9.124
 2019POPC   GL228550  13.426  11.815   9.030
 2019POPC   C1A28551  13.616  12.208   8.742
 2019POPC   D2A28552  13.817  12.125   8.398
 2019POPC   C3A28553  13.546  12.145   8.050
 2019POPC   C4A28554  13.408  12.439   7.747
 2019POPC   C1B28555  13.157  11.719   8.663
 2019POPC   C2B28556  13.162  11.617   8.200
 2019POPC   C3B28557  13.391  11.723   7.813
 2019POPC   C4B28558  13.415  12.003   7.457
 2020POPC   NC328559  31.666  14.668   9.768
 2020POPC   PO428560  32.162  14.425   9.409
 2020POPC   GL128561  32.183  14.261   9.058
 2020POPC   GL228562  31.906  14.037   9.084
 2020POPC   C1A28563  32.167  14.488   8.697
 2020POPC   D2A28564  32.390  14.565   8.359
 2020POPC   C3A28565  32.122  14.649   8.058
 2020POPC   C4A28566  32.352  14.455   7.763
 2020POPC   C1B28567  31.988  14.017   8.633
 2020POPC   C2B28568  32.047  14.149   8.205
 2020POPC   C3B28569  32.104  14.030   7.751
 2020POPC   C4B28570  31.939  14.091   7.338
 2021POPC   NC328571  24.648   0.770   9.710
 2021POPC   PO428572  24.619   1.316   9.444
 2021POPC   GL128573  24.275   1.235   9.195
 2021POPC   GL228574  24.551   1.170   8.953
 2021POPC   C1A28575  24.109   1.366   8.801
 2021POPC   D2A28576  24.331   1.169   8.471
 2021POPC   C3A28577  24.197   1.273   8.086
 2021POPC   C4A28578  24.381   1.302   7.718
 2021POPC   C1B28579  24.731   0.881   8.665
 2021POPC   C2B28580  24.779   0.695   8.293
 2021POPC   C3B28581  24.792   0.924   7.901
 2021POPC   C4B28582  24.831   1.154   7.518
 2022POPC   NC328583  33.122  34.710   9.220
 2022POPC   PO428584  32.589  35.113   9.533
 2022POPC   GL128585  32.942  35.198   9.208
 2022POPC   GL228586  33.167  35.479   9.235
 2022POPC   C1A28587  33.128  35.216   8.788
 2022POPC   D2A28588  33.101  35.224   8.357
 2022POPC   C3A28589  32.683  35.179   8.196
 2022POPC   C4A28590  32.635  35.099   7.766
 2022POPC   C1B28591  33.187  35.731   8.855
 2022POPC   C2B28592  33.133  35.788   8.423
 2022POPC   C3B28593  33.009  35.617   8.023
 2022POPC   C4B28594  33.225  35.633   7.633
 2023POPC   NC328595   6.914   4.166   9.375
 2023POPC   PO428596   6.725   3.430   9.455
 2023POPC   GL128597   6.835   3.395   9.090
 2023POPC   GL228598   6.783   3.767   9.050
 2023POPC   C1A28599   6.686   3.368   8.696
 2023POPC   D2A28600   6.815   3.645   8.390
 2023POPC   C3A28601   6.900   3.436   8.048
 2023POPC   C4A28602   6.888   3.668   7.676
 2023POPC   C1B28603   6.433   3.798   8.781
 2023POPC   C2B28604   6.299   3.609   8.377
 2023POPC   C3B28605   6.486   3.731   7.987
 2023POPC   C4B28606   6.394   3.751   7.545
 2024POPC   NC328607  40.277   0.746   9.508
 2024POPC   PO428608  39.778   1.212   9.530
 2024POPC   GL128609  40.031   1.330   9.160
 2024POPC   GL228610  40.067   0.987   9.101
 2024POPC   C1A28611  40.237   1.279   8.729
 2024POPC   D2A28612  40.319   1.535   8.354
 2024POPC   C3A28613  40.086   1.428   7.984
 2024POPC   C4A28614  40.135   1.299   7.547
 2024POPC   C1B28615  39.784   1.046   8.721
 2024POPC   C2B28616  39.712   1.179   8.248
 2024POPC   C3B28617  39.696   1.148   7.760
 2024POPC   C4B28618  39.742   1.019   7.312
 2025POPC   NC328619  17.856   4.735   9.466
 2025POPC   PO428620  17.223   4.487   9.425
 2025POPC   GL128621  17.583   4.450   9.119
 2025POPC   GL228622  17.733   4.147   9.033
 2025POPC   C1A28623  17.760   4.584   8.736
 2025POPC   D2A28624  17.443   4.625   8.406
 2025POPC   C3A28625  17.361   4.580   7.955
 2025POPC   C4A28626  17.147   4.253   7.735
 2025POPC   C1B28627  17.467   4.117   8.671
 2025POPC   C2B28628  17.361   4.140   8.222
 2025POPC   C3B28629  17.647   4.164   7.859
 2025POPC   C4B28630  17.800   4.005   7.469
 2026POPC   NC328631  12.601  34.955   9.519
 2026POPC   PO428632  12.524  34.286   9.472
 2026POPC   GL128633  12.539  34.447   9.068
 2026POPC   GL228634  12.627  34.805   9.024
 2026POPC   C1A28635  12.780  34.461   8.678
 2026POPC   D2A28636  12.892  34.785   8.381
 2026POPC   C3A28637  13.047  34.642   7.983
 2026POPC   C4A28638  12.929  34.319   7.684
 2026POPC   C1B28639  12.505  35.094   8.670
 2026POPC   C2B28640  12.533  35.121   8.207
 2026POPC   C3B28641  12.780  35.088   7.849
 2026POPC   C4B28642  12.714  34.769   7.570
 2027POPC   NC328643  23.108  44.276   9.510
 2027POPC   PO428644  22.828  44.884   9.487
 2027POPC   GL128645  23.077  44.672   9.170
 2027POPC   GL228646  22.777  44.479   9.115
 2027POPC   C1A28647  23.113  44.528   8.739
 2027POPC   D2A28648  22.843  44.547   8.384
 2027POPC   C3A28649  23.001  44.504   7.985
 2027POPC   C4A28650  23.358  44.471   7.721
 2027POPC   C1B28651  22.652  44.797   8.824
 2027POPC   C2B28652  22.687   0.060   8.463
 2027POPC   C3B28653  22.683  44.921   8.055
 2027POPC   C4B28654  22.598  44.801   7.617
 2028POPC   NC328655   8.252  23.569   9.652
 2028POPC   PO428656   7.810  23.986   9.355
 2028POPC   GL128657   8.027  23.726   9.054
 2028POPC   GL228658   8.136  23.352   9.049
 2028POPC   C1A28659   8.074  23.796   8.622
 2028POPC   D2A28660   8.366  23.747   8.293
 2028POPC   C3A28661   8.135  23.747   7.984
 2028POPC   C4A28662   7.944  24.027   7.717
 2028POPC   C1B28663   8.461  23.421   8.680
 2028POPC   C2B28664   8.795  23.476   8.324
 2028POPC   C3B28665   8.701  23.629   7.890
 2028POPC   C4B28666   8.344  23.528   7.593
 2029POPC   NC328667  40.982  30.161   9.510
 2029POPC   PO428668  40.547  29.744   9.526
 2029POPC   GL128669  40.688  29.858   9.155
 2029POPC   GL228670  40.831  29.560   9.011
 2029POPC   C1A28671  40.741  30.144   8.808
 2029POPC   D2A28672  40.778  30.005   8.399
 2029POPC   C3A28673  40.565  30.110   8.010
 2029POPC   C4A28674  40.746  29.920   7.646
 2029POPC   C1B28675  40.780  29.490   8.567
 2029POPC   C2B28676  40.989  29.578   8.177
 2029POPC   C3B28677  41.022  29.497   7.729
 2029POPC   C4B28678  41.067  29.666   7.292
 2030POPC   NC328679  26.420   0.156   9.753
 2030POPC   PO428680  26.147   0.806   9.611
 2030POPC   GL128681  25.957   0.586   9.226
 2030POPC   GL228682  26.053   0.249   9.073
 2030POPC   C1A28683  26.044   0.662   8.796
 2030POPC   D2A28684  26.003   0.367   8.425
 2030POPC   C3A28685  26.165   0.445   8.006
 2030POPC   C4A28686  26.255   0.466   7.572
 2030POPC   C1B28687  25.764   0.004   8.747
 2030POPC   C2B28688  25.598   0.041   8.301
 2030POPC   C3B28689  25.807   0.080   7.871
 2030POPC   C4B28690  25.814   0.207   7.423
 2031POPC   NC328691  37.794  19.369   9.341
 2031POPC   PO428692  37.920  18.732   9.436
 2031POPC   GL128693  37.500  18.746   9.191
 2031POPC   GL228694  37.346  19.092   9.164
 2031POPC   C1A28695  37.461  18.713   8.739
 2031POPC   D2A28696  37.702  18.926   8.406
 2031POPC   C3A28697  37.553  18.809   8.007
 2031POPC   C4A28698  37.713  18.887   7.627
 2031POPC   C1B28699  37.494  19.275   8.752
 2031POPC   C2B28700  37.802  19.440   8.428
 2031POPC   C3B28701  37.864  19.258   8.009
 2031POPC   C4B28702  37.620  19.407   7.690
 2032POPC   NC328703  28.705  36.406   9.493
 2032POPC   PO428704  29.212  35.923   9.508
 2032POPC   GL128705  29.298  36.187   9.151
 2032POPC   GL228706  28.953  36.205   9.081
 2032POPC   C1A28707  29.387  36.278   8.731
 2032POPC   D2A28708  29.093  36.310   8.383
 2032POPC   C3A28709  29.286  36.213   7.992
 2032POPC   C4A28710  29.263  35.965   7.577
 2032POPC   C1B28711  28.947  35.963   8.749
 2032POPC   C2B28712  28.802  35.845   8.345
 2032POPC   C3B28713  28.902  35.842   7.909
 2032POPC   C4B28714  28.775  36.076   7.522
 2033POPC   NC328715  43.462  27.753   9.646
 2033POPC   PO428716  42.873  27.703   9.332
 2033POPC   GL128717  43.205  27.459   9.175
 2033POPC   GL228718  43.084  27.134   9.010
 2033POPC   C1A28719  43.271  27.557   8.760
 2033POPC   D2A28720  43.323  27.390   8.392
 2033POPC   C3A28721  43.265  27.624   8.066
 2033POPC   C4A28722  43.467  27.581   7.657
 2033POPC   C1B28723  42.762  27.277   8.752
 2033POPC   C2B28724  42.823  27.527   8.419
 2033POPC   C3B28725  42.767  27.415   8.025
 2033POPC   C4B28726  43.047  27.326   7.731
 2034POPC   NC328727  23.253  38.107   9.419
 2034POPC   PO428728  22.838  37.541   9.506
 2034POPC   GL128729  23.041  37.686   9.158
 2034POPC   GL228730  22.840  37.976   9.148
 2034POPC   C1A28731  22.934  37.705   8.719
 2034POPC   D2A28732  23.129  37.528   8.316
 2034POPC   C3A28733  22.911  37.592   7.945
 2034POPC   C4A28734  23.027  37.752   7.537
 2034POPC   C1B28735  22.556  38.066   8.821
 2034POPC   C2B28736  22.404  38.054   8.402
 2034POPC   C3B28737  22.537  37.968   7.981
 2034POPC   C4B28738  22.651  38.077   7.563
 2035POPC   NC328739   3.079  28.873   9.392
 2035POPC   PO428740   3.737  29.017   9.649
 2035POPC   GL128741   3.564  29.223   9.216
 2035POPC   GL228742   3.885  29.233   9.084
 2035POPC   C1A28743   3.572  29.338   8.735
 2035POPC   D2A28744   3.629  29.356   8.289
 2035POPC   C3A28745   3.406  29.228   7.893
 2035POPC   C4A28746   3.542  29.071   7.489
 2035POPC   C1B28747   3.939  28.980   8.730
 2035POPC   C2B28748   3.873  28.846   8.310
 2035POPC   C3B28749   3.905  29.076   7.932
 2035POPC   C4B28750   3.950  29.527   7.885
 2036POPC   NC328751  26.165   4.561   9.745
 2036POPC   PO428752  25.680   4.104   9.595
 2036POPC   GL128753  25.993   4.342   9.295
 2036POPC   GL228754  26.202   4.662   9.244
 2036POPC   C1A28755  25.969   4.393   8.836
 2036POPC   D2A28756  25.902   4.245   8.392
 2036POPC   C3A28757  26.295   4.095   8.205
 2036POPC   C4A28758  26.249   4.002   7.775
 2036POPC   C1B28759  26.396   4.696   8.833
 2036POPC   C2B28760  26.156   4.696   8.456
 2036POPC   C3B28761  26.181   4.557   8.045
 2036POPC   C4B28762  26.276   4.499   7.589
 2037POPC   NC328763  24.399   2.437   9.483
 2037POPC   PO428764  24.047   3.037   9.506
 2037POPC   GL128765  24.471   2.882   9.235
 2037POPC   GL228766  24.789   2.634   9.231
 2037POPC   C1A28767  24.635   2.907   8.807
 2037POPC   D2A28768  24.573   3.071   8.393
 2037POPC   C3A28769  24.377   2.851   8.034
 2037POPC   C4A28770  24.364   3.086   7.645
 2037POPC   C1B28771  24.871   2.427   8.817
 2037POPC   C2B28772  24.758   2.560   8.356
 2037POPC   C3B28773  24.861   2.712   7.900
 2037POPC   C4B28774  24.858   2.472   7.491
 2038POPC   NC328775  20.071  32.281   9.461
 2038POPC   PO428776  19.523  31.920   9.483
 2038POPC   GL128777  19.738  32.069   9.132
 2038POPC   GL228778  20.070  31.851   9.164
 2038POPC   C1A28779  19.652  32.283   8.733
 2038POPC   D2A28780  19.877  32.420   8.353
 2038POPC   C3A28781  19.694  32.305   7.955
 2038POPC   C4A28782  19.842  32.424   7.558
 2038POPC   C1B28783  20.136  32.079   8.771
 2038POPC   C2B28784  20.239  32.030   8.343
 2038POPC   C3B28785  20.212  32.182   7.925
 2038POPC   C4B28786  20.317  32.272   7.496
 2039POPC   NC328787   4.760  20.812   9.697
 2039POPC   PO428788   5.038  20.247   9.709
 2039POPC   GL128789   4.975  20.534   9.323
 2039POPC   GL228790   5.312  20.661   9.242
 2039POPC   C1A28791   4.933  20.777   8.914
 2039POPC   D2A28792   5.067  20.695   8.492
 2039POPC   C3A28793   4.839  20.676   8.112
 2039POPC   C4A28794   5.019  20.687   7.691
 2039POPC   C1B28795   5.474  20.539   8.822
 2039POPC   C2B28796   5.554  20.698   8.405
 2039POPC   C3B28797   5.411  20.646   8.018
 2039POPC   C4B28798   5.492  20.871   7.640
 2040POPC   NC328799  17.850  16.393   9.200
 2040POPC   PO428800  18.169  16.984   9.473
 2040POPC   GL128801  18.228  16.744   9.111
 2040POPC   GL228802  17.926  16.896   9.029
 2040POPC   C1A28803  18.419  16.495   8.751
 2040POPC   D2A28804  18.648  16.672   8.393
 2040POPC   C3A28805  18.554  16.708   7.960
 2040POPC   C4A28806  18.333  16.503   7.623
 2040POPC   C1B28807  17.976  16.718   8.639
 2040POPC   C2B28808  18.143  16.769   8.260
 2040POPC   C3B28809  17.934  16.613   7.922
 2040POPC   C4B28810  17.799  16.795   7.558
 2041POPC   NC328811  15.097  16.567   9.262
 2041POPC   PO428812  15.460  16.050   9.569
 2041POPC   GL128813  15.215  16.032   9.139
 2041POPC   GL228814  14.935  15.841   9.214
 2041POPC   C1A28815  15.316  15.884   8.678
 2041POPC   D2A28816  15.317  15.706   8.238
 2041POPC   C3A28817  15.417  15.969   7.873
 2041POPC   C4A28818  15.312  16.146   7.444
 2041POPC   C1B28819  14.880  15.659   8.817
 2041POPC   C2B28820  14.836  15.878   8.432
 2041POPC   C3B28821  14.929  16.030   8.028
 2041POPC   C4B28822  14.971  15.828   7.646
 2042POPC   NC328823  37.872  30.496   9.479
 2042POPC   PO428824  37.468  31.005   9.577
 2042POPC   GL128825  37.602  30.842   9.197
 2042POPC   GL228826  37.365  30.598   9.117
 2042POPC   C1A28827  37.871  30.958   8.843
 2042POPC   D2A28828  38.028  30.776   8.463
 2042POPC   C3A28829  37.923  30.901   8.037
 2042POPC   C4A28830  37.946  30.706   7.621
 2042POPC   C1B28831  37.435  30.736   8.701
 2042POPC   C2B28832  37.565  30.565   8.350
 2042POPC   C3B28833  37.475  30.591   7.935
 2042POPC   C4B28834  37.527  30.422   7.554
 2043POPC   NC328835  19.877   8.061   9.594
 2043POPC   PO428836  19.366   7.903   9.450
 2043POPC   GL128837  19.677   8.080   9.099
 2043POPC   GL228838  20.055   8.156   9.120
 2043POPC   C1A28839  19.763   8.163   8.626
 2043POPC   D2A28840  19.641   8.263   8.170
 2043POPC   C3A28841  19.683   7.993   7.781
 2043POPC   C4A28842  19.961   7.806   7.463
 2043POPC   C1B28843  20.155   8.458   8.781
 2043POPC   C2B28844  20.066   8.523   8.317
 2043POPC   C3B28845  20.097   8.307   7.906
 2043POPC   C4B28846  20.284   8.206   7.505
 2044POPC   NC328847  19.213  39.574   9.730
 2044POPC   PO428848  19.016  40.156   9.378
 2044POPC   GL128849  18.721  39.969   9.128
 2044POPC   GL228850  18.585  40.243   8.985
 2044POPC   C1A28851  18.806  39.777   8.723
 2044POPC   D2A28852  19.172  39.876   8.476
 2044POPC   C3A28853  18.956  39.964   8.128
 2044POPC   C4A28854  19.029  39.814   7.740
 2044POPC   C1B28855  18.842  40.280   8.609
 2044POPC   C2B28856  18.757  40.475   8.233
 2044POPC   C3B28857  18.668  40.289   7.865
 2044POPC   C4B28858  18.877  40.222   7.496
 2045POPC   NC328859  22.901  35.426   9.569
 2045POPC   PO428860  23.103  34.996   9.132
 2045POPC   GL128861  23.119  35.430   9.098
 2045POPC   GL228862  22.771  35.496   9.070
 2045POPC   C1A28863  23.235  35.518   8.715
 2045POPC   D2A28864  23.244  35.136   8.465
 2045POPC   C3A28865  23.021  35.263   8.111
 2045POPC   C4A28866  23.017  35.284   7.679
 2045POPC   C1B28867  22.753  35.261   8.653
 2045POPC   C2B28868  22.539  35.109   8.276
 2045POPC   C3B28869  22.617  34.989   7.851
 2045POPC   C4B28870  22.553  35.216   7.508
 2046POPC   NC328871  29.695  20.774   9.503
 2046POPC   PO428872  29.794  20.106   9.724
 2046POPC   GL128873  29.870  20.289   9.228
 2046POPC   GL228874  30.041  20.607   9.162
 2046POPC   C1A28875  30.027  20.348   8.736
 2046POPC   D2A28876  30.107  20.769   8.513
 2046POPC   C3A28877  30.250  20.779   8.055
 2046POPC   C4A28878  30.007  20.515   7.766
 2046POPC   C1B28879  29.678  20.671   8.868
 2046POPC   C2B28880  29.588  20.869   8.478
 2046POPC   C3B28881  29.350  20.799   8.156
 2046POPC   C4B28882  29.562  20.755   7.797
 2047POPC   NC328883  10.775  21.722   9.883
 2047POPC   PO428884  10.362  22.196   9.611
 2047POPC   GL128885  10.500  22.104   9.203
 2047POPC   GL228886  10.699  22.383   9.134
 2047POPC   C1A28887  10.620  21.930   8.798
 2047POPC   D2A28888  10.556  21.757   8.389
 2047POPC   C3A28889  10.533  22.063   8.107
 2047POPC   C4A28890  10.667  22.336   7.820
 2047POPC   C1B28891  10.380  22.391   8.769
 2047POPC   C2B28892  10.464  22.522   8.331
 2047POPC   C3B28893  10.256  22.586   7.932
 2047POPC   C4B28894  10.211  22.492   7.503
 2048POPC   NC328895  39.362  16.072   9.698
 2048POPC   PO428896  39.180  16.223   9.114
 2048POPC   GL128897  39.097  15.823   9.023
 2048POPC   GL228898  38.890  15.532   9.212
 2048POPC   C1A28899  39.189  15.747   8.609
 2048POPC   D2A28900  39.119  16.146   8.396
 2048POPC   C3A28901  39.302  16.256   8.021
 2048POPC   C4A28902  39.429  16.201   7.615
 2048POPC   C1B28903  38.724  15.606   8.784
 2048POPC   C2B28904  38.791  15.743   8.306
 2048POPC   C3B28905  39.133  15.735   8.021
 2048POPC   C4B28906  39.380  15.692   7.654
 2049POPC   NC328907  17.804  25.714   9.246
 2049POPC   PO428908  17.473  26.289   9.475
 2049POPC   GL128909  17.490  26.092   9.115
 2049POPC   GL228910  17.756  26.312   9.009
 2049POPC   C1A28911  17.566  25.955   8.693
 2049POPC   D2A28912  17.336  26.023   8.340
 2049POPC   C3A28913  17.483  25.834   7.952
 2049POPC   C4A28914  17.797  25.835   7.608
 2049POPC   C1B28915  17.397  26.469   8.771
 2049POPC   C2B28916  17.383  26.565   8.336
 2049POPC   C3B28917  17.581  26.344   8.010
 2049POPC   C4B28918  17.787  26.363   7.631
 2050POPC   NC328919  40.678  11.673   9.410
 2050POPC   PO428920  41.269  11.930   9.415
 2050POPC   GL128921  40.954  12.028   9.096
 2050POPC   GL228922  40.731  12.306   9.004
 2050POPC   C1A28923  40.775  11.912   8.700
 2050POPC   D2A28924  40.654  11.752   8.313
 2050POPC   C3A28925  40.891  12.002   8.066
 2050POPC   C4A28926  41.055  12.014   7.677
 2050POPC   C1B28927  40.560  12.462   8.683
 2050POPC   C2B28928  40.542  12.303   8.314
 2050POPC   C3B28929  40.346  12.076   8.033
 2050POPC   C4B28930  40.531  11.978   7.662
 2051POPC   NC328931  22.026  33.975   9.493
 2051POPC   PO428932  22.005  33.318   9.328
 2051POPC   GL128933  22.180  33.682   9.085
 2051POPC   GL228934  21.984  34.002   9.012
 2051POPC   C1A28935  22.267  33.792   8.654
 2051POPC   D2A28936  22.237  33.633   8.290
 2051POPC   C3A28937  22.379  33.915   8.027
 2051POPC   C4A28938  22.313  33.686   7.674
 2051POPC   C1B28939  22.022  34.292   8.758
 2051POPC   C2B28940  22.218  34.271   8.399
 2051POPC   C3B28941  21.986  34.281   8.023
 2051POPC   C4B28942  22.093  34.119   7.636
 2052POPC   NC328943   7.340  22.076   9.534
 2052POPC   PO428944   7.608  21.456   9.615
 2052POPC   GL128945   7.505  21.536   9.164
 2052POPC   GL228946   7.198  21.725   9.123
 2052POPC   C1A28947   7.433  21.440   8.716
 2052POPC   D2A28948   7.637  21.213   8.348
 2052POPC   C3A28949   7.461  21.427   7.977
 2052POPC   C4A28950   7.095  21.318   7.747
 2052POPC   C1B28951   7.025  21.841   8.736
 2052POPC   C2B28952   7.061  21.647   8.328
 2052POPC   C3B28953   7.099  21.797   7.912
 2052POPC   C4B28954   6.872  21.701   7.488
 2053POPC   NC328955  23.094  36.455   9.761
 2053POPC   PO428956  22.899  35.895   9.521
 2053POPC   GL128957  22.924  36.094   9.137
 2053POPC   GL228958  22.580  35.990   9.084
 2053POPC   C1A28959  22.758  36.382   8.787
 2053POPC   D2A28960  22.733  36.584   8.349
 2053POPC   C3A28961  22.842  36.244   8.040
 2053POPC   C4A28962  23.240  36.205   7.805
 2053POPC   C1B28963  22.816  35.844   8.699
 2053POPC   C2B28964  23.133  35.893   8.354
 2053POPC   C3B28965  23.141  35.732   7.923
 2053POPC   C4B28966  22.748  35.718   7.729
 2054POPC   NC328967  18.777  14.303   9.484
 2054POPC   PO428968  19.450  14.389   9.477
 2054POPC   GL128969  19.133  14.546   9.175
 2054POPC   GL228970  18.948  14.242   9.005
 2054POPC   C1A28971  19.110  14.669   8.741
 2054POPC   D2A28972  19.268  14.346   8.432
 2054POPC   C3A28973  19.114  14.329   8.007
 2054POPC   C4A28974  19.134  14.736   7.830
 2054POPC   C1B28975  18.744  14.335   8.604
 2054POPC   C2B28976  18.814  14.664   8.267
 2054POPC   C3B28977  18.657  14.572   7.831
 2054POPC   C4B28978  18.741  14.151   7.638
 2055POPC   NC328979  38.279  36.138   9.585
 2055POPC   PO428980  38.896  36.310   9.577
 2055POPC   GL128981  38.619  36.245   9.209
 2055POPC   GL228982  38.375  36.504   9.230
 2055POPC   C1A28983  38.461  36.014   8.815
 2055POPC   D2A28984  38.562  35.875   8.360
 2055POPC   C3A28985  38.273  35.889   8.003
 2055POPC   C4A28986  38.420  35.937   7.563
 2055POPC   C1B28987  38.459  36.530   8.787
 2055POPC   C2B28988  38.322  36.346   8.411
 2055POPC   C3B28989  38.539  36.326   8.037
 2055POPC   C4B28990  38.416  36.502   7.689
 2056POPC   NC328991  23.721   4.793   9.549
 2056POPC   PO428992  23.481   5.451   9.435
 2056POPC   GL128993  23.583   5.088   9.163
 2056POPC   GL228994  23.919   4.979   9.106
 2056POPC   C1A28995  23.514   4.886   8.764
 2056POPC   D2A28996  23.454   5.181   8.431
 2056POPC   C3A28997  23.565   5.021   8.060
 2056POPC   C4A28998  23.468   5.200   7.713
 2056POPC   C1B28999  23.855   5.294   8.779
 2056POPC   C2B29000  23.959   5.282   8.346
 2056POPC   C3B29001  23.981   5.315   7.918
 2056POPC   C4B29002  23.948   5.029   7.585
 2057POPC   NC329003  13.729  29.663   9.420
 2057POPC   PO429004  13.218  30.159   9.468
 2057POPC   GL129005  13.418  30.038   9.068
 2057POPC   GL229006  13.350  29.694   9.072
 2057POPC   C1A29007  13.662  29.925   8.686
 2057POPC   D2A29008  13.809  29.710   8.293
 2057POPC   C3A29009  13.900  29.966   7.964
 2057POPC   C4A29010  13.712  30.193   7.659
 2057POPC   C1B29011  13.418  29.486   8.690
 2057POPC   C2B29012  13.321  29.529   8.300
 2057POPC   C3B29013  13.402  29.824   8.010
 2057POPC   C4B29014  13.518  29.724   7.638
 2058POPC   NC329015  22.649  32.433   9.433
 2058POPC   PO429016  22.320  31.864   9.703
 2058POPC   GL129017  22.243  32.093   9.249
 2058POPC   GL229018  22.506  32.207   8.999
 2058POPC   C1A29019  22.027  32.123   8.813
 2058POPC   D2A29020  21.712  32.068   8.432
 2058POPC   C3A29021  21.831  31.945   7.980
 2058POPC   C4A29022  22.237  31.941   7.744
 2058POPC   C1B29023  22.466  31.966   8.603
 2058POPC   C2B29024  22.205  32.161   8.261
 2058POPC   C3B29025  22.041  32.396   7.889
 2058POPC   C4B29026  21.815  32.792   7.839
 2059POPC   NC329027  24.069  40.976   9.592
 2059POPC   PO429028  24.512  40.448   9.580
 2059POPC   GL129029  24.310  40.586   9.220
 2059POPC   GL229030  24.372  40.934   9.176
 2059POPC   C1A29031  24.278  40.546   8.766
 2059POPC   D2A29032  24.322  40.757   8.346
 2059POPC   C3A29033  24.367  40.504   7.962
 2059POPC   C4A29034  23.984  40.373   7.756
 2059POPC   C1B29035  24.420  41.062   8.757
 2059POPC   C2B29036  24.627  41.170   8.360
 2059POPC   C3B29037  24.503  41.046   7.945
 2059POPC   C4B29038  24.125  40.901   7.762
 2060POPC   NC329039  14.830   9.968   9.808
 2060POPC   PO429040  14.834  10.412   9.389
 2060POPC   GL129041  15.063  10.605   9.029
 2060POPC   GL229042  15.306  10.884   9.059
 2060POPC   C1A29043  15.000  10.780   8.643
 2060POPC   D2A29044  15.161  10.547   8.326
 2060POPC   C3A29045  15.124  10.675   7.944
 2060POPC   C4A29046  14.741  10.461   7.783
 2060POPC   C1B29047  15.512  10.705   8.661
 2060POPC   C2B29048  15.624  10.699   8.191
 2060POPC   C3B29049  15.588  10.668   7.711
 2060POPC   C4B29050  15.564  10.738   7.243
 2061POPC   NC329051  42.728  30.235   9.380
 2061POPC   PO429052  42.634  29.550   9.320
 2061POPC   GL129053  42.469  29.878   9.039
 2061POPC   GL229054  42.064  29.887   9.001
 2061POPC   C1A29055  42.529  29.840   8.605
 2061POPC   D2A29056  42.426  29.540   8.289
 2061POPC   C3A29057  42.221  29.769   7.986
 2061POPC   C4A29058  42.558  30.054   7.876
 2061POPC   C1B29059  42.176  30.203   8.710
 2061POPC   C2B29060  42.263  30.180   8.287
 2061POPC   C3B29061  42.076  30.247   7.875
 2061POPC   C4B29062  42.245  30.067   7.458
 2062POPC   NC329063  28.187  21.747   9.488
 2062POPC   PO429064  28.786  21.467   9.627
 2062POPC   GL129065  28.527  21.407   9.284
 2062POPC   GL229066  28.632  21.714   9.114
 2062POPC   C1A29067  28.286  21.399   8.890
 2062POPC   D2A29068  28.431  21.211   8.511
 2062POPC   C3A29069  28.304  21.321   8.109
 2062POPC   C4A29070  28.120  21.281   7.701
 2062POPC   C1B29071  28.562  21.757   8.646
 2062POPC   C2B29072  28.325  21.855   8.256
 2062POPC   C3B29073  28.341  21.749   7.823
 2062POPC   C4B29074  28.661  21.524   7.671
 2063POPC   NC329075  34.487  41.001   9.267
 2063POPC   PO429076  35.105  40.675   9.265
 2063POPC   GL129077  34.856  40.787   8.888
 2063POPC   GL229078  34.647  41.082   8.792
 2063POPC   C1A29079  34.809  40.705   8.424
 2063POPC   D2A29080  34.452  40.810   8.141
 2063POPC   C3A29081  34.571  40.970   7.733
 2063POPC   C4A29082  34.706  41.096   7.285
 2063POPC   C1B29083  34.370  40.722   8.664
 2063POPC   C2B29084  34.069  40.517   8.425
 2063POPC   C3B29085  34.139  40.413   8.013
 2063POPC   C4B29086  34.434  40.466   7.712
 2064POPC   NC329087  16.646  44.790   9.596
 2064POPC   PO429088  16.980  44.365   9.284
 2064POPC   GL129089  16.831  44.625   9.009
 2064POPC   GL229090  16.984  44.377   8.759
 2064POPC   C1A29091  16.769  44.828   8.618
 2064POPC   D2A29092  16.622  44.648   8.233
 2064POPC   C3A29093  16.642  44.869   7.853
 2064POPC   C4A29094  17.065  44.994   7.858
 2064POPC   C1B29095  16.522  44.333   8.671
 2064POPC   C2B29096  16.213  44.356   8.309
 2064POPC   C3B29097  16.296  44.435   7.872
 2064POPC   C4B29098  16.695  44.404   7.654
 2065POPC   NC329099   7.669  22.861   9.715
 2065POPC   PO429100   7.214  23.182   9.353
 2065POPC   GL129101   7.370  23.229   9.011
 2065POPC   GL229102   7.675  23.129   9.099
 2065POPC   C1A29103   7.245  23.024   8.656
 2065POPC   D2A29104   7.152  23.202   8.333
 2065POPC   C3A29105   7.314  22.995   8.036
 2065POPC   C4A29106   7.546  23.107   7.730
 2065POPC   C1B29107   7.732  23.033   8.695
 2065POPC   C2B29108   7.557  22.679   8.392
 2065POPC   C3B29109   7.699  22.653   7.940
 2065POPC   C4B29110   7.710  22.729   7.450
 2066POPC   NC329111   8.445  25.151   9.375
 2066POPC   PO429112   7.891  25.556   9.346
 2066POPC   GL129113   8.095  25.217   9.008
 2066POPC   GL229114   8.460  25.102   8.891
 2066POPC   C1A29115   8.070  25.068   8.589
 2066POPC   D2A29116   7.827  25.275   8.336
 2066POPC   C3A29117   7.960  25.533   8.034
 2066POPC   C4A29118   8.044  25.280   7.677
 2066POPC   C1B29119   8.438  25.445   8.594
 2066POPC   C2B29120   8.427  25.391   8.186
 2066POPC   C3B29121   8.425  25.052   7.928
 2066POPC   C4B29122   8.454  24.988   7.475
 2067POPC   NC329123  42.367  14.235   9.408
 2067POPC   PO429124  41.910  14.658   9.605
 2067POPC   GL129125  42.091  14.633   9.173
 2067POPC   GL229126  42.382  14.492   8.992
 2067POPC   C1A29127  42.062  14.821   8.754
 2067POPC   D2A29128  42.180  14.822   8.316
 2067POPC   C3A29129  42.025  14.620   7.950
 2067POPC   C4A29130  42.229  14.446   7.571
 2067POPC   C1B29131  42.419  14.439   8.562
 2067POPC   C2B29132  42.454  14.402   8.127
 2067POPC   C3B29133  42.673  14.281   7.747
 2067POPC   C4B29134  42.629  14.129   7.303
 2068POPC   NC329135  14.766  28.424   9.329
 2068POPC   PO429136  14.315  28.005   9.639
 2068POPC   GL129137  14.329  28.188   9.172
 2068POPC   GL229138  14.427  28.537   8.969
 2068POPC   C1A29139  14.113  28.215   8.747
 2068POPC   D2A29140  14.283  28.377   8.359
 2068POPC   C3A29141  14.079  28.487   7.965
 2068POPC   C4A29142  13.980  28.197   7.627
 2068POPC   C1B29143  14.711  28.307   8.677
 2068POPC   C2B29144  14.809  28.249   8.237
 2068POPC   C3B29145  14.479  28.200   7.912
 2068POPC   C4B29146  14.498  28.112   7.485
 2069POPC   NC329147  32.654  25.337   9.376
 2069POPC   PO429148  32.082  24.969   9.415
 2069POPC   GL129149  32.172  25.245   9.060
 2069POPC   GL229150  32.514  25.300   8.905
 2069POPC   C1A29151  32.071  25.192   8.630
 2069POPC   D2A29152  32.020  24.867   8.330
 2069POPC   C3A29153  32.045  25.091   7.944
 2069POPC   C4A29154  32.302  25.422   7.755
 2069POPC   C1B29155  32.663  25.496   8.529
 2069POPC   C2B29156  32.681  25.349   8.092
 2069POPC   C3B29157  32.794  25.501   7.670
 2069POPC   C4B29158  32.577  25.787   7.400
 2070POPC   NC329159  30.405  13.754   9.441
 2070POPC   PO429160  31.008  13.382   9.464
 2070POPC   GL129161  30.732  13.409   9.126
 2070POPC   GL229162  30.755  13.753   9.077
 2070POPC   C1A29163  30.808  13.353   8.690
 2070POPC   D2A29164  30.583  13.491   8.306
 2070POPC   C3A29165  30.827  13.566   7.954
 2070POPC   C4A29166  31.067  13.310   7.747
 2070POPC   C1B29167  30.651  13.871   8.651
 2070POPC   C2B29168  30.919  14.131   8.387
 2070POPC   C3B29169  31.099  14.044   8.021
 2070POPC   C4B29170  30.721  14.047   7.805
 2071POPC   NC329171   4.151   1.245   9.660
 2071POPC   PO429172   4.719   0.954   9.458
 2071POPC   GL129173   4.403   0.959   9.162
 2071POPC   GL229174   4.268   1.294   9.167
 2071POPC   C1A29175   4.407   1.071   8.729
 2071POPC   D2A29176   4.421   1.182   8.336
 2071POPC   C3A29177   4.366   0.919   7.993
 2071POPC   C4A29178   4.336   1.096   7.579
 2071POPC   C1B29179   4.193   1.556   8.816
 2071POPC   C2B29180   4.144   1.626   8.385
 2071POPC   C3B29181   4.175   1.506   7.948
 2071POPC   C4B29182   3.830   1.477   7.651
 2072POPC   NC329183   6.254   2.224   9.863
 2072POPC   PO429184   5.688   1.902   9.697
 2072POPC   GL129185   5.770   1.976   9.221
 2072POPC   GL229186   6.089   1.780   9.082
 2072POPC   C1A29187   5.690   1.950   8.794
 2072POPC   D2A29188   5.541   2.205   8.472
 2072POPC   C3A29189   5.719   2.067   8.099
 2072POPC   C4A29190   5.577   2.189   7.690
 2072POPC   C1B29191   6.208   2.074   8.735
 2072POPC   C2B29192   6.321   2.092   8.292
 2072POPC   C3B29193   6.152   2.162   7.870
 2072POPC   C4B29194   5.914   1.816   7.657
 2073POPC   NC329195  38.809  42.418   9.739
 2073POPC   PO429196  39.367  42.110   9.542
 2073POPC   GL129197  39.404  42.324   9.161
 2073POPC   GL229198  39.533  42.092   8.964
 2073POPC   C1A29199  39.154  42.391   8.775
 2073POPC   D2A29200  39.306  42.462   8.397
 2073POPC   C3A29201  39.105  42.530   8.029
 2073POPC   C4A29202  39.155  42.499   7.574
 2073POPC   C1B29203  39.670  42.122   8.526
 2073POPC   C2B29204  39.499  42.112   8.091
 2073POPC   C3B29205  39.551  42.196   7.658
 2073POPC   C4B29206  39.294  42.073   7.301
 2074POPC   NC329207  10.338  36.816   9.801
 2074POPC   PO429208  10.851  36.524   9.503
 2074POPC   GL129209  10.711  36.812   9.187
 2074POPC   GL229210  10.929  37.023   8.963
 2074POPC   C1A29211  10.397  36.969   8.931
 2074POPC   D2A29212  10.334  36.943   8.503
 2074POPC   C3A29213  10.488  37.188   8.188
 2074POPC   C4A29214  10.345  37.067   7.795
 2074POPC   C1B29215  10.801  36.752   8.661
 2074POPC   C2B29216  10.734  36.722   8.240
 2074POPC   C3B29217  10.870  36.960   7.899
 2074POPC   C4B29218  10.805  36.665   7.591
 2075POPC   NC329219  42.016  33.020   9.509
 2075POPC   PO429220  42.608  33.291   9.542
 2075POPC   GL129221  42.314  33.290   9.178
 2075POPC   GL229222  42.269  32.909   9.082
 2075POPC   C1A29223  42.002  33.238   8.834
 2075POPC   D2A29224  41.978  32.902   8.554
 2075POPC   C3A29225  42.231  33.066   8.252
 2075POPC   C4A29226  42.134  33.126   7.840
 2075POPC   C1B29227  42.507  33.094   8.721
 2075POPC   C2B29228  42.785  32.936   8.366
 2075POPC   C3B29229  42.882  32.779   7.928
 2075POPC   C4B29230  42.477  32.756   7.731
 2076POPC   NC329231  34.135  43.951   9.799
 2076POPC   PO429232  34.683  43.900   9.398
 2076POPC   GL129233  34.504  43.817   9.054
 2076POPC   GL229234  34.194  43.629   9.136
 2076POPC   C1A29235  34.546  44.104   8.721
 2076POPC   D2A29236  34.551  44.317   8.355
 2076POPC   C3A29237  34.581  43.976   8.094
 2076POPC   C4A29238  34.722  43.568   7.901
 2076POPC   C1B29239  34.198  43.673   8.672
 2076POPC   C2B29240  34.274  43.555   8.221
 2076POPC   C3B29241  34.231  43.761   7.799
 2076POPC   C4B29242  34.285  43.603   7.382
 2077POPC   NC329243  35.920  21.342   9.604
 2077POPC   PO429244  36.502  21.678   9.508
 2077POPC   GL129245  36.262  21.441   9.222
 2077POPC   GL229246  35.944  21.631   9.193
 2077POPC   C1A29247  36.278  21.193   8.847
 2077POPC   D2A29248  36.027  21.214   8.463
 2077POPC   C3A29249  36.071  21.491   8.127
 2077POPC   C4A29250  36.131  21.377   7.690
 2077POPC   C1B29251  35.783  21.415   8.864
 2077POPC   C2B29252  35.583  21.473   8.471
 2077POPC   C3B29253  35.601  21.247   8.091
 2077POPC   C4B29254  35.628  21.438   7.709
 2078POPC   NC329255  42.208   2.240   9.486
 2078POPC   PO429256  42.455   1.634   9.512
 2078POPC   GL129257  42.382   1.870   9.119
 2078POPC   GL229258  42.535   2.223   9.110
 2078POPC   C1A29259  42.498   1.947   8.689
 2078POPC   D2A29260  42.831   2.140   8.537
 2078POPC   C3A29261  42.750   2.111   8.134
 2078POPC   C4A29262  42.643   2.183   7.727
 2078POPC   C1B29263  42.116   2.222   8.844
 2078POPC   C2B29264  42.025   2.077   8.443
 2078POPC   C3B29265  42.247   2.053   8.095
 2078POPC   C4B29266  42.146   2.267   7.733
 2079POPC   NC329267   0.718  24.302   9.504
 2079POPC   PO429268   0.197  24.657   9.568
 2079POPC   GL129269   0.145  24.533   9.130
 2079POPC   GL229270   0.445  24.396   9.101
 2079POPC   C1A29271   0.197  24.515   8.673
 2079POPC   D2A29272   0.436  24.645   8.327
 2079POPC   C3A29273   0.302  24.593   7.963
 2079POPC   C4A29274   0.608  24.737   7.699
 2079POPC   C1B29275   0.708  24.198   8.821
 2079POPC   C2B29276   0.559  24.170   8.432
 2079POPC   C3B29277   0.719  24.303   8.033
 2079POPC   C4B29278   0.550  24.250   7.626
 2080POPC   NC329279  23.162  37.200   9.438
 2080POPC   PO429280  22.690  36.692   9.638
 2080POPC   GL129281  22.904  36.815   9.200
 2080POPC   GL229282  22.827  37.203   9.059
 2080POPC   C1A29283  22.996  36.832   8.744
 2080POPC   D2A29284  22.806  37.150   8.477
 2080POPC   C3A29285  22.809  37.079   8.042
 2080POPC   C4A29286  22.720  36.693   7.819
 2080POPC   C1B29287  23.207  37.289   8.763
 2080POPC   C2B29288  23.264  37.031   8.329
 2080POPC   C3B29289  23.194  36.688   8.006
 2080POPC   C4B29290  23.148  36.634   7.524
 2081POPC   NC329291  25.610  10.389   9.511
 2081POPC   PO429292  26.210  10.136   9.476
 2081POPC   GL129293  26.201  10.326   9.050
 2081POPC   GL229294  25.933  10.592   9.125
 2081POPC   C1A29295  26.157  10.577   8.662
 2081POPC   D2A29296  25.975  10.763   8.297
 2081POPC   C3A29297  26.199  10.578   7.941
 2081POPC   C4A29298  26.266  10.155   7.764
 2081POPC   C1B29299  25.732  10.327   8.781
 2081POPC   C2B29300  25.815  10.256   8.319
 2081POPC   C3B29301  25.694  10.497   7.933
 2081POPC   C4B29302  25.589  10.395   7.486
 2082POPC   NC329303  44.878  43.307   9.350
 2082POPC   PO429304  44.403  42.940   9.626
 2082POPC   GL129305  44.561  42.888   9.198
 2082POPC   GL229306  44.546  43.160   8.993
 2082POPC   C1A29307  44.658  42.734   8.774
 2082POPC   D2A29308  44.573  42.841   8.372
 2082POPC   C3A29309  44.776  42.923   7.966
 2082POPC   C4A29310  44.449  43.048   7.687
 2082POPC   C1B29311  44.376  43.232   8.631
 2082POPC   C2B29312  44.655  43.340   8.308
 2082POPC   C3B29313  44.715  43.447   7.925
 2082POPC   C4B29314   0.074  43.598   7.764
 2083POPC   NC329315   3.827  28.549   9.552
 2083POPC   PO429316   3.245  28.367   9.286
 2083POPC   GL129317   3.587  28.467   9.032
 2083POPC   GL229318   3.702  28.751   9.110
 2083POPC   C1A29319   3.606  28.409   8.581
 2083POPC   D2A29320   3.298  28.398   8.277
 2083POPC   C3A29321   3.472  28.173   7.984
 2083POPC   C4A29322   3.614  28.094   7.603
 2083POPC   C1B29323   3.420  28.858   8.749
 2083POPC   C2B29324   3.366  28.900   8.292
 2083POPC   C3B29325   3.539  28.703   7.894
 2083POPC   C4B29326   3.884  28.699   7.570
 2084POPC   NC329327  23.150  20.204   9.356
 2084POPC   PO429328  23.144  19.561   9.454
 2084POPC   GL129329  22.920  19.782   9.149
 2084POPC   GL229330  22.635  19.983   9.293
 2084POPC   C1A29331  23.064  19.914   8.731
 2084POPC   D2A29332  23.208  20.153   8.375
 2084POPC   C3A29333  23.060  20.042   8.004
 2084POPC   C4A29334  22.864  20.353   7.765
 2084POPC   C1B29335  22.573  20.008   8.844
 2084POPC   C2B29336  22.612  20.248   8.457
 2084POPC   C3B29337  22.488  20.097   8.049
 2084POPC   C4B29338  22.657  19.851   7.734
 2085POPC   NC329339  35.649  34.611   9.558
 2085POPC   PO429340  34.977  34.501   9.552
 2085POPC   GL129341  35.220  34.693   9.210
 2085POPC   GL229342  35.399  34.390   9.087
 2085POPC   C1A29343  35.133  34.728   8.761
 2085POPC   D2A29344  35.250  34.690   8.315
 2085POPC   C3A29345  34.989  34.438   7.996
 2085POPC   C4A29346  35.039  34.300   7.552
 2085POPC   C1B29347  35.454  34.125   8.687
 2085POPC   C2B29348  35.386  34.186   8.234
 2085POPC   C3B29349  35.577  34.494   7.955
 2085POPC   C4B29350  35.359  34.646   7.701
 2086POPC   NC329351  17.651  38.908   9.464
 2086POPC   PO429352  17.408  38.245   9.507
 2086POPC   GL129353  17.498  38.493   9.153
 2086POPC   GL229354  17.821  38.511   9.203
 2086POPC   C1A29355  17.306  38.574   8.718
 2086POPC   D2A29356  17.205  38.285   8.374
 2086POPC   C3A29357  17.284  38.419   7.960
 2086POPC   C4A29358  17.345  38.500   7.506
 2086POPC   C1B29359  17.834  38.612   8.769
 2086POPC   C2B29360  17.692  38.460   8.368
 2086POPC   C3B29361  17.894  38.335   7.998
 2086POPC   C4B29362  18.057  38.510   7.602
 2087POPC   NC329363   1.531  36.121   9.522
 2087POPC   PO429364   0.850  35.875   9.469
 2087POPC   GL129365   1.180  35.965   9.168
 2087POPC   GL229366   1.554  35.926   9.056
 2087POPC   C1A29367   1.186  36.172   8.788
 2087POPC   D2A29368   1.355  36.242   8.393
 2087POPC   C3A29369   1.101  36.197   8.081
 2087POPC   C4A29370   1.251  36.091   7.696
 2087POPC   C1B29371   1.490  35.789   8.614
 2087POPC   C2B29372   1.119  35.772   8.353
 2087POPC   C3B29373   1.162  35.633   7.917
 2087POPC   C4B29374   1.089  35.701   7.446
 2088POPC   NC329375   8.847   5.840   9.410
 2088POPC   PO429376   9.430   6.026   9.456
 2088POPC   GL129377   9.158   6.004   9.054
 2088POPC   GL229378   8.779   6.058   8.959
 2088POPC   C1A29379   9.145   6.092   8.629
 2088POPC   D2A29380   8.951   5.839   8.369
 2088POPC   C3A29381   9.133   5.886   8.025
 2088POPC   C4A29382   8.961   5.933   7.680
 2088POPC   C1B29383   8.746   5.625   8.793
 2088POPC   C2B29384   8.785   5.328   8.423
 2088POPC   C3B29385   8.820   5.463   8.001
 2088POPC   C4B29386   8.520   5.676   7.774
 2089POPC   NC329387  22.864   8.736   9.388
 2089POPC   PO429388  23.469   9.085   9.561
 2089POPC   GL129389  23.104   9.168   9.210
 2089POPC   GL229390  22.752   9.189   9.146
 2089POPC   C1A29391  23.053   9.292   8.761
 2089POPC   D2A29392  22.800   9.261   8.385
 2089POPC   C3A29393  23.030   9.011   8.087
 2089POPC   C4A29394  23.276   9.019   7.706
 2089POPC   C1B29395  22.687   8.911   8.764
 2089POPC   C2B29396  22.676   8.694   8.340
 2089POPC   C3B29397  22.631   8.779   7.882
 2089POPC   C4B29398  22.473   8.516   7.512
 2090POPC   NC329399   8.314   1.211   9.526
 2090POPC   PO429400   8.708   0.884   9.039
 2090POPC   GL129401   8.376   1.200   8.956
 2090POPC   GL229402   8.377   1.520   9.045
 2090POPC   C1A29403   8.215   1.073   8.579
 2090POPC   D2A29404   8.473   0.823   8.305
 2090POPC   C3A29405   8.422   1.038   7.944
 2090POPC   C4A29406   8.062   0.973   7.718
 2090POPC   C1B29407   8.020   1.543   8.728
 2090POPC   C2B29408   7.921   1.429   8.322
 2090POPC   C3B29409   8.068   1.452   7.921
 2090POPC   C4B29410   7.865   1.409   7.546
 2091POPC   NC329411  39.514  23.468   9.387
 2091POPC   PO429412  40.100  23.868   9.440
 2091POPC   GL129413  39.946  23.656   9.103
 2091POPC   GL229414  39.641  23.804   9.004
 2091POPC   C1A29415  39.962  23.541   8.666
 2091POPC   D2A29416  40.072  23.748   8.281
 2091POPC   C3A29417  40.121  23.501   7.906
 2091POPC   C4A29418  40.223  23.530   7.443
 2091POPC   C1B29419  39.869  24.073   8.727
 2091POPC   C2B29420  39.696  24.154   8.334
 2091POPC   C3B29421  39.737  23.962   7.959
 2091POPC   C4B29422  39.990  23.928   7.648
 2092POPC   NC329423  34.181   4.763   9.395
 2092POPC   PO429424  33.542   4.960   9.590
 2092POPC   GL129425  33.715   4.969   9.202
 2092POPC   GL229426  33.933   5.276   9.273
 2092POPC   C1A29427  33.594   4.837   8.766
 2092POPC   D2A29428  33.440   5.014   8.368
 2092POPC   C3A29429  33.488   4.813   7.978
 2092POPC   C4A29430  33.700   4.894   7.622
 2092POPC   C1B29431  33.991   5.187   8.844
 2092POPC   C2B29432  34.008   4.998   8.473
 2092POPC   C3B29433  33.890   5.103   8.076
 2092POPC   C4B29434  34.174   4.963   7.783
 2093POPC   NC329435  38.651  36.710   9.629
 2093POPC   PO429436  38.403  37.364   9.527
 2093POPC   GL129437  38.349  37.014   9.315
 2093POPC   GL229438  38.686  36.920   9.162
 2093POPC   C1A29439  38.176  36.907   8.947
 2093POPC   D2A29440  38.174  36.868   8.514
 2093POPC   C3A29441  38.165  36.743   8.079
 2093POPC   C4A29442  38.294  37.012   7.728
 2093POPC   C1B29443  38.692  36.989   8.723
 2093POPC   C2B29444  38.658  36.758   8.328
 2093POPC   C3B29445  38.740  36.855   7.897
 2093POPC   C4B29446  38.665  36.845   7.420
 2094POPC   NC329447  44.318   9.472   9.388
 2094POPC   PO429448  44.774   9.836   9.711
 2094POPC   GL129449  44.566   9.902   9.251
 2094POPC   GL229450  44.564   9.609   8.978
 2094POPC   C1A29451  44.471  10.028   8.771
 2094POPC   D2A29452  44.430   9.955   8.330
 2094POPC   C3A29453  44.732   9.903   8.003
 2094POPC   C4A29454  44.803   9.915   7.529
 2094POPC   C1B29455  44.723   9.606   8.565
 2094POPC   C2B29456  44.523   9.453   8.179
 2094POPC   C3B29457  44.632   9.465   7.746
 2094POPC   C4B29458   0.046   9.474   7.525
 2095POPC   NC329459  37.835  12.444   9.482
 2095POPC   PO429460  37.628  13.092   9.428
 2095POPC   GL129461  37.796  13.034   9.052
 2095POPC   GL229462  37.651  12.712   9.056
 2095POPC   C1A29463  37.875  13.085   8.600
 2095POPC   D2A29464  37.679  12.938   8.231
 2095POPC   C3A29465  37.794  13.055   7.799
 2095POPC   C4A29466  37.960  12.683   7.586
 2095POPC   C1B29467  37.466  12.675   8.653
 2095POPC   C2B29468  37.538  12.447   8.260
 2095POPC   C3B29469  37.545  12.618   7.864
 2095POPC   C4B29470  37.409  12.879   7.514
 2096POPC   NC329471  29.335   2.857   9.402
 2096POPC   PO429472  28.767   3.068   9.345
 2096POPC   GL129473  28.886   2.732   9.092
 2096POPC   GL229474  29.148   2.478   9.126
 2096POPC   C1A29475  28.974   2.751   8.680
 2096POPC   D2A29476  29.001   2.948   8.266
 2096POPC   C3A29477  29.060   2.645   7.946
 2096POPC   C4A29478  29.246   2.626   7.518
 2096POPC   C1B29479  29.437   2.592   8.803
 2096POPC   C2B29480  29.384   2.644   8.375
 2096POPC   C3B29481  29.563   2.681   7.991
 2096POPC   C4B29482  29.702   2.409   7.710
 2097POPC   NC329483  22.446  23.310   9.375
 2097POPC   PO429484  22.925  22.781   9.418
 2097POPC   GL129485  23.001  23.038   9.038
 2097POPC   GL229486  23.190  23.363   8.986
 2097POPC   C1A29487  22.991  22.932   8.613
 2097POPC   D2A29488  23.014  22.611   8.327
 2097POPC   C3A29489  22.923  22.891   8.013
 2097POPC   C4A29490  23.170  23.091   7.735
 2097POPC   C1B29491  22.762  23.390   8.762
 2097POPC   C2B29492  22.616  23.251   8.316
 2097POPC   C3B29493  22.631  23.439   7.913
 2097POPC   C4B29494  22.734  23.257   7.527
 2098POPC   NC329495   4.350  35.558   9.640
 2098POPC   PO429496   4.024  35.030   9.452
 2098POPC   GL129497   4.359  35.202   9.216
 2098POPC   GL229498   4.288  35.543   9.118
 2098POPC   C1A29499   4.536  35.028   8.847
 2098POPC   D2A29500   4.816  34.960   8.501
 2098POPC   C3A29501   4.571  35.079   8.183
 2098POPC   C4A29502   4.385  35.306   7.893
 2098POPC   C1B29503   4.278  35.709   8.702
 2098POPC   C2B29504   4.443  35.642   8.320
 2098POPC   C3B29505   4.179  35.744   8.006
 2098POPC   C4B29506   4.330  35.891   7.638
 2099POPC   NC329507  40.089  17.505   9.631
 2099POPC   PO429508  39.688  17.027   9.422
 2099POPC   GL129509  39.780  17.307   9.090
 2099POPC   GL229510  40.078  17.475   9.109
 2099POPC   C1A29511  39.852  17.336   8.642
 2099POPC   D2A29512  40.123  17.554   8.377
 2099POPC   C3A29513  39.957  17.639   7.987
 2099POPC   C4A29514  39.865  17.589   7.568
 2099POPC   C1B29515  40.328  17.762   8.815
 2099POPC   C2B29516  40.449  17.957   8.408
 2099POPC   C3B29517  40.460  17.778   8.014
 2099POPC   C4B29518  40.363  17.567   7.662
 2100POPC   NC329519  44.957  24.240   9.509
 2100POPC   PO429520  44.349  24.648   9.433
 2100POPC   GL129521  44.620  24.501   9.160
 2100POPC   GL229522  44.736  24.837   9.152
 2100POPC   C1A29523  44.751  24.281   8.789
 2100POPC   D2A29524  44.786  24.439   8.362
 2100POPC   C3A29525  44.651  24.251   7.983
 2100POPC   C4A29526  44.487  24.397   7.552
 2100POPC   C1B29527  44.953  24.972   8.809
 2100POPC   C2B29528  44.995  24.908   8.341
 2100POPC   C3B29529  44.810  24.774   7.931
 2100POPC   C4B29530  44.777  24.787   7.456
 2101POPC   NC329531  12.786  29.961   9.568
 2101POPC   PO429532  12.570  30.567   9.575
 2101POPC   GL129533  12.773  30.327   9.202
 2101POPC   GL229534  12.684  29.949   9.083
 2101POPC   C1A29535  13.014  30.213   8.818
 2101POPC   D2A29536  13.192  29.997   8.477
 2101POPC   C3A29537  12.984  30.093   8.085
 2101POPC   C4A29538  13.189  30.194   7.703
 2101POPC   C1B29539  12.912  29.683   8.766
 2101POPC   C2B29540  12.822  29.580   8.293
 2101POPC   C3B29541  12.715  29.701   7.848
 2101POPC   C4B29542  12.514  29.665   7.384
 2102POPC   NC329543   1.947  44.748   9.593
 2102POPC   PO429544   2.075  44.084   9.430
 2102POPC   GL129545   2.040  44.460   9.160
 2102POPC   GL229546   2.026  44.856   9.117
 2102POPC   C1A29547   1.937  44.542   8.722
 2102POPC   D2A29548   1.831  44.924   8.469
 2102POPC   C3A29549   1.877  44.814   8.035
 2102POPC   C4A29550   1.911  44.413   7.824
 2102POPC   C1B29551   2.273  44.929   8.739
 2102POPC   C2B29552   2.352  44.957   8.269
 2102POPC   C3B29553   2.330  44.885   7.783
 2102POPC   C4B29554   2.337  44.982   7.294
 2103POPC   NC329555   2.957  28.056   9.530
 2103POPC   PO429556   2.694  28.693   9.594
 2103POPC   GL129557   2.736  28.470   9.234
 2103POPC   GL229558   2.542  28.185   9.230
 2103POPC   C1A29559   2.757  28.585   8.818
 2103POPC   D2A29560   2.522  28.606   8.455
 2103POPC   C3A29561   2.791  28.673   8.120
 2103POPC   C4A29562   2.729  28.584   7.715
 2103POPC   C1B29563   2.787  28.085   8.836
 2103POPC   C2B29564   2.842  28.215   8.403
 2103POPC   C3B29565   2.933  28.171   7.961
 2103POPC   C4B29566   3.118  28.169   7.578
 2104POPC   NC329567  15.442  25.702   9.594
 2104POPC   PO429568  14.966  26.065   9.663
 2104POPC   GL129569  15.089  26.153   9.254
 2104POPC   GL229570  15.187  25.841   9.153
 2104POPC   C1A29571  15.105  26.193   8.802
 2104POPC   D2A29572  15.142  26.519   8.511
 2104POPC   C3A29573  15.186  26.385   8.100
 2104POPC   C4A29574  15.036  26.367   7.680
 2104POPC   C1B29575  14.902  25.713   8.783
 2104POPC   C2B29576  14.861  25.835   8.347
 2104POPC   C3B29577  15.112  25.894   7.976
 2104POPC   C4B29578  15.404  25.657   7.798
 2105POPC   NC329579   8.329  12.708   9.576
 2105POPC   PO429580   7.677  12.938   9.453
 2105POPC   GL129581   8.060  12.905   9.206
 2105POPC   GL229582   8.041  12.549   9.172
 2105POPC   C1A29583   8.359  12.794   8.840
 2105POPC   D2A29584   8.239  12.841   8.378
 2105POPC   C3A29585   8.458  12.894   7.984
 2105POPC   C4A29586   8.541  12.613   7.622
 2105POPC   C1B29587   7.850  12.785   8.777
 2105POPC   C2B29588   7.844  13.153   8.477
 2105POPC   C3B29589   7.821  13.092   8.029
 2105POPC   C4B29590   8.008  12.812   7.712
 2106POPC   NC329591  39.955  19.408   9.762
 2106POPC   PO429592  40.005  20.047   9.519
 2106POPC   GL129593  40.174  19.921   9.074
 2106POPC   GL229594  39.861  19.825   8.965
 2106POPC   C1A29595  40.191  19.848   8.602
 2106POPC   D2A29596  39.975  20.008   8.254
 2106POPC   C3A29597  40.295  20.025   7.957
 2106POPC   C4A29598  40.051  20.141   7.654
 2106POPC   C1B29599  39.829  19.466   8.682
 2106POPC   C2B29600  39.892  19.517   8.275
 2106POPC   C3B29601  39.877  19.651   7.860
 2106POPC   C4B29602  39.677  19.368   7.541
 2107POPC   NC329603  25.831  20.991   9.527
 2107POPC   PO429604  26.447  21.208   9.411
 2107POPC   GL129605  26.258  21.501   9.070
 2107POPC   GL229606  25.890  21.592   9.184
 2107POPC   C1A29607  26.191  21.418   8.617
 2107POPC   D2A29608  26.096  21.002   8.373
 2107POPC   C3A29609  26.037  21.078   7.927
 2107POPC   C4A29610  26.305  21.418   7.752
 2107POPC   C1B29611  25.627  21.722   8.836
 2107POPC   C2B29612  25.806  21.756   8.419
 2107POPC   C3B29613  25.625  21.728   7.996
 2107POPC   C4B29614  25.787  21.469   7.701
 2108POPC   NC329615  34.397  23.568   9.533
 2108POPC   PO429616  34.975  23.683   9.790
 2108POPC   GL129617  34.881  23.632   9.274
 2108POPC   GL229618  34.713  23.887   9.147
 2108POPC   C1A29619  34.561  23.503   8.882
 2108POPC   D2A29620  34.411  23.754   8.513
 2108POPC   C3A29621  34.366  23.610   8.068
 2108POPC   C4A29622  34.269  23.842   7.685
 2108POPC   C1B29623  34.958  23.818   8.793
 2108POPC   C2B29624  34.892  23.964   8.395
 2108POPC   C3B29625  34.969  23.779   8.020
 2108POPC   C4B29626  34.791  23.566   7.713
 2109POPC   NC329627  34.629  27.963   9.620
 2109POPC   PO429628  34.850  28.613   9.563
 2109POPC   GL129629  34.548  28.516   9.216
 2109POPC   GL229630  34.364  28.240   9.261
 2109POPC   C1A29631  34.491  28.655   8.786
 2109POPC   D2A29632  34.187  28.619   8.455
 2109POPC   C3A29633  34.374  28.565   8.128
 2109POPC   C4A29634  34.386  28.584   7.703
 2109POPC   C1B29635  34.611  28.169   8.863
 2109POPC   C2B29636  34.704  28.230   8.421
 2109POPC   C3B29637  34.657  28.185   7.972
 2109POPC   C4B29638  34.529  28.125   7.547
 2110POPC   NC329639  15.750  14.727   9.479
 2110POPC   PO429640  15.913  15.438   9.439
 2110POPC   GL129641  16.081  15.241   9.062
 2110POPC   GL229642  16.070  14.879   9.093
 2110POPC   C1A29643  16.143  15.234   8.605
 2110POPC   D2A29644  16.200  15.173   8.154
 2110POPC   C3A29645  15.912  15.337   7.856
 2110POPC   C4A29646  16.081  15.407   7.448
 2110POPC   C1B29647  15.695  15.013   8.824
 2110POPC   C2B29648  15.723  14.967   8.383
 2110POPC   C3B29649  15.789  14.830   7.969
 2110POPC   C4B29650  15.628  15.028   7.545
 2111POPC   NC329651   5.630  20.918   9.572
 2111POPC   PO429652   5.899  20.360   9.902
 2111POPC   GL129653   5.810  20.320   9.393
 2111POPC   GL229654   5.830  20.643   9.171
 2111POPC   C1A29655   5.968  20.198   8.950
 2111POPC   D2A29656   5.927  20.373   8.536
 2111POPC   C3A29657   5.982  20.295   8.095
 2111POPC   C4A29658   5.821  20.488   7.754
 2111POPC   C1B29659   5.874  20.882   8.761
 2111POPC   C2B29660   6.012  20.869   8.325
 2111POPC   C3B29661   5.900  21.002   7.930
 2111POPC   C4B29662   6.052  20.873   7.530
 2112POPC   NC329663  20.176  11.522   9.477
 2112POPC   PO429664  19.746  10.980   9.529
 2112POPC   GL129665  19.808  11.305   9.190
 2112POPC   GL229666  20.120  11.195   9.061
 2112POPC   C1A29667  19.688  11.561   8.822
 2112POPC   D2A29668  19.707  11.350   8.403
 2112POPC   C3A29669  19.565  11.528   8.000
 2112POPC   C4A29670  19.656  11.315   7.608
 2112POPC   C1B29671  20.155  11.410   8.649
 2112POPC   C2B29672  20.198  11.452   8.185
 2112POPC   C3B29673  20.230  11.509   7.721
 2112POPC   C4B29674  20.006  11.551   7.298
 2113POPC   NC329675  28.126  33.121   9.545
 2113POPC   PO429676  28.599  32.617   9.506
 2113POPC   GL129677  28.498  32.961   9.213
 2113POPC   GL229678  28.196  32.831   9.118
 2113POPC   C1A29679  28.418  33.226   8.818
 2113POPC   D2A29680  28.216  33.444   8.445
 2113POPC   C3A29681  28.273  33.274   8.009
 2113POPC   C4A29682  28.315  33.315   7.558
 2113POPC   C1B29683  28.242  32.619   8.705
 2113POPC   C2B29684  28.487  32.605   8.337
 2113POPC   C3B29685  28.252  32.565   8.007
 2113POPC   C4B29686  28.258  32.821   7.694
 2114POPC   NC329687  15.400  22.060   9.389
 2114POPC   PO429688  14.751  22.457   9.322
 2114POPC   GL129689  14.995  22.177   9.089
 2114POPC   GL229690  14.740  21.970   8.962
 2114POPC   C1A29691  15.170  22.124   8.689
 2114POPC   D2A29692  14.924  22.137   8.318
 2114POPC   C3A29693  15.075  22.320   7.935
 2114POPC   C4A29694  15.332  22.264   7.549
 2114POPC   C1B29695  14.581  21.833   8.571
 2114POPC   C2B29696  14.803  21.624   8.246
 2114POPC   C3B29697  15.029  21.805   7.921
 2114POPC   C4B29698  15.128  21.798   7.486
 2115POPC   NC329699  29.735  37.492   9.702
 2115POPC   PO429700  30.273  37.413   9.482
 2115POPC   GL129701  30.092  37.621   9.127
 2115POPC   GL229702  29.752  37.745   9.233
 2115POPC   C1A29703  29.984  37.531   8.700
 2115POPC   D2A29704  29.906  37.722   8.306
 2115POPC   C3A29705  29.943  37.414   7.982
 2115POPC   C4A29706  30.096  37.379   7.560
 2115POPC   C1B29707  29.808  37.987   8.819
 2115POPC   C2B29708  29.868  38.242   8.420
 2115POPC   C3B29709  29.836  38.104   7.963
 2115POPC   C4B29710  30.164  37.837   7.801
 2116POPC   NC329711  27.187  26.648   9.585
 2116POPC   PO429712  27.779  26.890   9.403
 2116POPC   GL129713  27.512  26.934   9.096
 2116POPC   GL229714  27.381  26.621   9.107
 2116POPC   C1A29715  27.558  26.863   8.663
 2116POPC   D2A29716  27.316  26.907   8.305
 2116POPC   C3A29717  27.646  27.075   8.043
 2116POPC   C4A29718  27.812  26.950   7.683
 2116POPC   C1B29719  27.191  26.512   8.730
 2116POPC   C2B29720  27.373  26.355   8.368
 2116POPC   C3B29721  27.616  26.542   8.064
 2116POPC   C4B29722  27.347  26.735   7.759
 2117POPC   NC329723  31.673  13.069   9.443
 2117POPC   PO429724  31.125  12.679   9.412
 2117POPC   GL129725  31.361  12.822   9.099
 2117POPC   GL229726  31.301  13.179   9.050
 2117POPC   C1A29727  31.366  12.690   8.689
 2117POPC   D2A29728  31.546  12.369   8.427
 2117POPC   C3A29729  31.647  12.572   8.031
 2117POPC   C4A29730  31.435  12.756   7.699
 2117POPC   C1B29731  31.328  13.237   8.582
 2117POPC   C2B29732  31.357  13.085   8.125
 2117POPC   C3B29733  31.566  13.245   7.722
 2117POPC   C4B29734  31.620  13.094   7.280
 2118POPC   NC329735  15.046  38.203   9.358
 2118POPC   PO429736  15.647  38.458   9.442
 2118POPC   GL129737  15.461  38.308   9.047
 2118POPC   GL229738  15.170  38.548   8.975
 2118POPC   C1A29739  15.421  38.325   8.587
 2118POPC   D2A29740  15.302  38.690   8.377
 2118POPC   C3A29741  15.105  38.599   8.009
 2118POPC   C4A29742  15.249  38.475   7.629
 2118POPC   C1B29743  14.930  38.287   8.669
 2118POPC   C2B29744  14.921  38.192   8.251
 2118POPC   C3B29745  14.873  38.176   7.813
 2118POPC   C4B29746  14.974  38.158   7.358
 2119POPC   NC329747   5.051  30.914   9.437
 2119POPC   PO429748   5.580  30.543   9.417
 2119POPC   GL129749   5.208  30.544   9.054
 2119POPC   GL229750   4.856  30.660   9.075
 2119POPC   C1A29751   5.004  30.471   8.646
 2119POPC   D2A29752   5.036  30.723   8.322
 2119POPC   C3A29753   5.183  30.554   7.972
 2119POPC   C4A29754   5.447  30.784   7.728
 2119POPC   C1B29755   4.731  30.917   8.745
 2119POPC   C2B29756   4.541  30.842   8.332
 2119POPC   C3B29757   4.728  30.794   7.903
 2119POPC   C4B29758   4.805  30.384   7.687
 2120POPC   NC329759  24.381  14.214   9.499
 2120POPC   PO429760  24.656  14.829   9.513
 2120POPC   GL129761  24.423  14.630   9.144
 2120POPC   GL229762  24.319  14.251   9.007
 2120POPC   C1A29763  24.464  14.597   8.694
 2120POPC   D2A29764  24.658  14.433   8.348
 2120POPC   C3A29765  24.519  14.507   7.940
 2120POPC   C4A29766  24.864  14.604   7.657
 2120POPC   C1B29767  24.071  14.035   8.674
 2120POPC   C2B29768  24.041  13.903   8.227
 2120POPC   C3B29769  24.334  14.011   7.853
 2120POPC   C4B29770  24.169  13.946   7.419
 2121POPC   NC329771  36.183   8.698   9.200
 2121POPC   PO429772  35.982   9.205   9.638
 2121POPC   GL129773  36.125   9.225   9.220
 2121POPC   GL229774  35.877   9.080   9.053
 2121POPC   C1A29775  36.305   9.193   8.774
 2121POPC   D2A29776  36.059   9.187   8.393
 2121POPC   C3A29777  36.282   9.274   8.024
 2121POPC   C4A29778  36.132   9.235   7.643
 2121POPC   C1B29779  35.795   8.799   8.684
 2121POPC   C2B29780  36.126   8.625   8.407
 2121POPC   C3B29781  36.210   8.750   7.975
 2121POPC   C4B29782  35.970   8.755   7.621
 2122POPC   NC329783  44.482  14.192   9.692
 2122POPC   PO429784  44.500  14.889   9.623
 2122POPC   GL129785  44.686  14.679   9.244
 2122POPC   GL229786  44.376  14.525   9.203
 2122POPC   C1A29787  44.845  14.443   8.845
 2122POPC   D2A29788  44.770  14.488   8.374
 2122POPC   C3A29789  44.623  14.184   8.056
 2122POPC   C4A29790  44.758  14.051   7.659
 2122POPC   C1B29791  44.375  14.222   8.873
 2122POPC   C2B29792  44.304  14.269   8.442
 2122POPC   C3B29793  44.300  14.579   8.129
 2122POPC   C4B29794  44.364  14.470   7.712
 2123POPC   NC329795  14.124  12.291   9.537
 2123POPC   PO429796  14.022  11.702   9.656
 2123POPC   GL129797  14.363  11.771   9.303
 2123POPC   GL229798  14.450  12.129   9.181
 2123POPC   C1A29799  14.407  11.762   8.825
 2123POPC   D2A29800  14.182  11.735   8.398
 2123POPC   C3A29801  14.340  11.877   7.981
 2123POPC   C4A29802  14.534  12.153   7.674
 2123POPC   C1B29803  14.145  12.174   8.840
 2123POPC   C2B29804  14.311  12.224   8.388
 2123POPC   C3B29805  14.046  12.278   7.978
 2123POPC   C4B29806  13.918  12.068   7.631
 2124POPC   NC329807  22.414   7.845   9.341
 2124POPC   PO429808  21.844   7.815   9.691
 2124POPC   GL129809  21.885   7.594   9.228
 2124POPC   GL229810  22.152   7.366   9.147
 2124POPC   C1A29811  21.823   7.416   8.768
 2124POPC   D2A29812  21.920   7.692   8.376
 2124POPC   C3A29813  21.870   7.501   7.958
 2124POPC   C4A29814  22.130   7.327   7.618
 2124POPC   C1B29815  22.310   7.487   8.697
 2124POPC   C2B29816  22.302   7.346   8.246
 2124POPC   C3B29817  22.348   7.670   7.937
 2124POPC   C4B29818  22.488   8.053   7.835
 2125POPC   NC329819  19.222  36.345   9.424
 2125POPC   PO429820  18.799  35.887   9.262
 2125POPC   GL129821  19.160  35.987   9.012
 2125POPC   GL229822  19.338  36.304   8.934
 2125POPC   C1A29823  19.063  36.030   8.603
 2125POPC   D2A29824  19.098  36.365   8.377
 2125POPC   C3A29825  18.946  36.211   8.018
 2125POPC   C4A29826  19.006  35.855   7.772
 2125POPC   C1B29827  19.564  36.102   8.565
 2125POPC   C2B29828  19.423  36.028   8.134
 2125POPC   C3B29829  19.387  36.250   7.765
 2125POPC   C4B29830  19.247  36.148   7.394
 2126POPC   NC329831  12.213  24.090   9.564
 2126POPC   PO429832  12.864  24.299   9.481
 2126POPC   GL129833  12.771  24.397   9.115
 2126POPC   GL229834  12.775  24.744   9.045
 2126POPC   C1A29835  12.596  24.345   8.763
 2126POPC   D2A29836  12.612  24.616   8.462
 2126POPC   C3A29837  12.592  24.338   8.137
 2126POPC   C4A29838  12.605  24.271   7.726
 2126POPC   C1B29839  13.056  24.731   8.728
 2126POPC   C2B29840  13.007  24.883   8.293
 2126POPC   C3B29841  12.932  24.682   7.914
 2126POPC   C4B29842  13.241  24.611   7.600
 2127POPC   NC329843  28.717  28.592   9.549
 2127POPC   PO429844  29.014  27.979   9.550
 2127POPC   GL129845  29.135  28.325   9.220
 2127POPC   GL229846  29.387  28.632   9.246
 2127POPC   C1A29847  29.398  28.276   8.843
 2127POPC   D2A29848  29.308  28.063   8.463
 2127POPC   C3A29849  29.412  28.208   8.043
 2127POPC   C4A29850  29.173  28.006   7.731
 2127POPC   C1B29851  29.293  28.772   8.817
 2127POPC   C2B29852  29.395  28.646   8.373
 2127POPC   C3B29853  29.303  28.716   7.923
 2127POPC   C4B29854  29.252  28.478   7.568
 2128POPC   NC329855  28.734  22.672   9.857
 2128POPC   PO429856  28.212  22.889   9.418
 2128POPC   GL129857  28.294  23.053   9.079
 2128POPC   GL229858  28.592  23.117   9.078
 2128POPC   C1A29859  28.175  23.132   8.688
 2128POPC   D2A29860  28.079  22.928   8.345
 2128POPC   C3A29861  28.289  22.805   8.000
 2128POPC   C4A29862  28.225  23.016   7.635
 2128POPC   C1B29863  28.720  23.137   8.666
 2128POPC   C2B29864  28.521  23.211   8.262
 2128POPC   C3B29865  28.710  23.051   7.885
 2128POPC   C4B29866  28.714  23.046   7.449
 2129POPC   NC329867  43.271  14.428   9.791
 2129POPC   PO429868  42.705  14.539   9.417
 2129POPC   GL129869  42.853  14.227   9.114
 2129POPC   GL229870  43.260  14.171   9.055
 2129POPC   C1A29871  42.922  14.347   8.694
 2129POPC   D2A29872  42.907  14.198   8.296
 2129POPC   C3A29873  42.936  14.565   8.077
 2129POPC   C4A29874  43.066  14.682   7.706
 2129POPC   C1B29875  43.450  14.367   8.750
 2129POPC   C2B29876  43.326  14.529   8.389
 2129POPC   C3B29877  43.357  14.292   8.019
 2129POPC   C4B29878  43.484  14.363   7.611
 2130POPC   NC329879   3.136  26.149   9.586
 2130POPC   PO429880   2.667  26.363   9.174
 2130POPC   GL129881   2.769  25.974   9.022
 2130POPC   GL229882   3.084  26.090   8.988
 2130POPC   C1A29883   2.835  25.903   8.594
 2130POPC   D2A29884   2.880  26.301   8.380
 2130POPC   C3A29885   2.736  26.290   7.981
 2130POPC   C4A29886   2.730  26.174   7.532
 2130POPC   C1B29887   3.250  25.681   8.873
 2130POPC   C2B29888   3.173  25.504   8.470
 2130POPC   C3B29889   2.958  25.712   8.143
 2130POPC   C4B29890   3.066  25.944   7.822
 2131POPC   NC329891  29.553  29.085   9.497
 2131POPC   PO429892  30.147  29.402   9.399
 2131POPC   GL129893  30.055  29.077   9.084
 2131POPC   GL229894  29.714  29.004   9.038
 2131POPC   C1A29895  30.148  29.031   8.679
 2131POPC   D2A29896  30.103  29.310   8.343
 2131POPC   C3A29897  30.085  29.086   7.957
 2131POPC   C4A29898  30.040  29.315   7.552
 2131POPC   C1B29899  29.754  29.346   8.773
 2131POPC   C2B29900  29.664  29.080   8.433
 2131POPC   C3B29901  29.599  29.153   8.035
 2131POPC   C4B29902  29.679  28.970   7.648
 2132POPC   NC329903  22.946   3.490   9.463
 2132POPC   PO429904  22.234   3.473   9.472
 2132POPC   GL129905  22.503   3.491   9.100
 2132POPC   GL229906  22.676   3.773   9.040
 2132POPC   C1A29907  22.787   3.361   8.744
 2132POPC   D2A29908  23.119   3.439   8.416
 2132POPC   C3A29909  22.964   3.334   8.011
 2132POPC   C4A29910  22.572   3.205   7.815
 2132POPC   C1B29911  23.088   3.790   8.849
 2132POPC   C2B29912  23.256   3.934   8.452
 2132POPC   C3B29913  23.097   3.859   8.038
 2132POPC   C4B29914  23.236   3.939   7.609
 2133POPC   NC329915   8.070  39.401   9.300
 2133POPC   PO429916   8.443  38.919   9.470
 2133POPC   GL129917   8.166  38.965   9.069
 2133POPC   GL229918   8.296  39.253   8.876
 2133POPC   C1A29919   7.913  39.064   8.649
 2133POPC   D2A29920   8.029  39.360   8.270
 2133POPC   C3A29921   8.034  39.132   7.859
 2133POPC   C4A29922   7.797  38.990   7.459
 2133POPC   C1B29923   8.471  39.559   8.613
 2133POPC   C2B29924   8.511  39.662   8.192
 2133POPC   C3B29925   8.272  39.621   7.853
 2133POPC   C4B29926   8.477  39.389   7.607
 2134POPC   NC329927  35.673   8.891   9.498
 2134POPC   PO429928  35.025   9.021   9.415
 2134POPC   GL129929  35.361   9.182   9.193
 2134POPC   GL229930  35.428   8.825   9.070
 2134POPC   C1A29931  35.498   9.236   8.785
 2134POPC   D2A29932  35.355   8.989   8.447
 2134POPC   C3A29933  35.281   9.152   8.032
 2134POPC   C4A29934  35.645   9.120   7.768
 2134POPC   C1B29935  35.183   8.605   8.797
 2134POPC   C2B29936  35.273   8.459   8.418
 2134POPC   C3B29937  35.567   8.628   8.140
 2134POPC   C4B29938  35.452   8.650   7.743
 2135POPC   NC329939   4.623  40.901   9.621
 2135POPC   PO429940   5.287  41.151   9.542
 2135POPC   GL129941   5.193  40.820   9.169
 2135POPC   GL229942   5.015  40.502   9.200
 2135POPC   C1A29943   5.270  40.546   8.772
 2135POPC   D2A29944   5.297  40.767   8.391
 2135POPC   C3A29945   5.106  40.720   7.999
 2135POPC   C4A29946   5.107  41.010   7.659
 2135POPC   C1B29947   4.766  40.443   8.783
 2135POPC   C2B29948   4.745  40.601   8.350
 2135POPC   C3B29949   4.602  40.580   7.905
 2135POPC   C4B29950   4.914  40.528   7.547
 2136POPC   NC329951  16.457  28.670   9.519
 2136POPC   PO429952  16.860  28.139   9.542
 2136POPC   GL129953  16.775  28.385   9.186
 2136POPC   GL229954  16.440  28.473   9.042
 2136POPC   C1A29955  16.784  28.177   8.786
 2136POPC   D2A29956  16.766  27.954   8.384
 2136POPC   C3A29957  16.596  28.265   8.125
 2136POPC   C4A29958  16.725  28.407   7.721
 2136POPC   C1B29959  16.462  28.570   8.593
 2136POPC   C2B29960  16.177  28.541   8.275
 2136POPC   C3B29961  16.233  28.534   7.874
 2136POPC   C4B29962  16.370  28.783   7.602
 2137POPC   NC329963  39.027  21.739   9.595
 2137POPC   PO429964  39.279  22.340   9.443
 2137POPC   GL129965  39.309  22.156   9.042
 2137POPC   GL229966  39.654  22.086   8.960
 2137POPC   C1A29967  39.298  22.125   8.589
 2137POPC   D2A29968  39.051  22.338   8.318
 2137POPC   C3A29969  39.219  22.144   8.016
 2137POPC   C4A29970  39.044  22.087   7.634
 2137POPC   C1B29971  39.556  21.724   8.754
 2137POPC   C2B29972  39.380  21.626   8.390
 2137POPC   C3B29973  39.502  21.706   7.980
 2137POPC   C4B29974  39.554  22.004   7.665
 2138POPC   NC329975   6.833  37.402   9.579
 2138POPC   PO429976   6.286  37.543   9.269
 2138POPC   GL129977   6.504  37.831   8.981
 2138POPC   GL229978   6.818  37.973   9.133
 2138POPC   C1A29979   6.647  37.706   8.552
 2138POPC   D2A29980   6.962  37.565   8.234
 2138POPC   C3A29981   6.744  37.361   7.881
 2138POPC   C4A29982   6.629  37.427   7.443
 2138POPC   C1B29983   6.922  38.140   8.730
 2138POPC   C2B29984   6.911  38.067   8.282
 2138POPC   C3B29985   6.766  37.912   7.879
 2138POPC   C4B29986   6.887  37.884   7.419
 2139POPC   NC329987  29.297  24.342   9.422
 2139POPC   PO429988  28.713  24.567   9.657
 2139POPC   GL129989  28.834  24.310   9.213
 2139POPC   GL229990  29.182  24.424   8.954
 2139POPC   C1A29991  28.827  24.159   8.762
 2139POPC   D2A29992  29.063  24.373   8.409
 2139POPC   C3A29993  28.914  24.394   8.000
 2139POPC   C4A29994  28.684  24.518   7.665
 2139POPC   C1B29995  29.482  24.264   8.662
 2139POPC   C2B29996  29.601  24.405   8.269
 2139POPC   C3B29997  29.425  24.615   7.909
 2139POPC   C4B29998  29.159  24.691   7.576
 2140POPC   NC329999  39.092  27.362   9.354
 2140POPC   PO430000  39.497  27.814   9.733
 2140POPC   GL130001  39.416  27.766   9.282
 2140POPC   GL230002  39.531  27.424   9.109
 2140POPC   C1A30003  39.153  27.825   8.899
 2140POPC   D2A30004  39.270  27.695   8.514
 2140POPC   C3A30005  39.147  27.852   8.146
 2140POPC   C4A30006  39.320  27.861   7.769
 2140POPC   C1B30007  39.390  27.223   8.706
 2140POPC   C2B30008  39.093  27.261   8.346
 2140POPC   C3B30009  39.222  27.373   7.928
 2140POPC   C4B30010  39.262  27.104   7.596
 2141POPC   NC330011   6.161  23.459   9.673
 2141POPC   PO430012   5.584  23.480   9.353
 2141POPC   GL130013   5.931  23.714   9.175
 2141POPC   GL230014   6.006  24.071   9.297
 2141POPC   C1A30015   6.034  23.601   8.748
 2141POPC   D2A30016   5.742  23.514   8.393
 2141POPC   C3A30017   5.895  23.620   7.969
 2141POPC   C4A30018   6.027  23.639   7.527
 2141POPC   C1B30019   5.951  24.119   8.838
 2141POPC   C2B30020   5.905  24.013   8.397
 2141POPC   C3B30021   5.920  24.145   7.979
 2141POPC   C4B30022   5.993  24.138   7.542
 2142POPC   NC330023  27.091  30.152   9.696
 2142POPC   PO430024  26.698  29.625   9.479
 2142POPC   GL130025  26.813  30.000   9.277
 2142POPC   GL230026  27.152  29.921   9.227
 2142POPC   C1A30027  26.844  30.037   8.837
 2142POPC   D2A30028  26.831  29.736   8.495
 2142POPC   C3A30029  26.704  29.872   8.094
 2142POPC   C4A30030  26.885  30.067   7.734
 2142POPC   C1B30031  27.200  29.639   8.858
 2142POPC   C2B30032  27.342  29.653   8.444
 2142POPC   C3B30033  27.253  29.919   8.099
 2142POPC   C4B30034  27.219  29.699   7.729
 2143POPC   NC330035  13.263   8.708   9.965
 2143POPC   PO430036  13.716   8.720   9.456
 2143POPC   GL130037  13.687   9.076   9.138
 2143POPC   GL230038  13.362   9.182   9.087
 2143POPC   C1A30039  13.611   8.995   8.658
 2143POPC   D2A30040  13.482   8.620   8.353
 2143POPC   C3A30041  13.497   8.731   7.884
 2143POPC   C4A30042  13.890   8.857   7.679
 2143POPC   C1B30043  13.375   9.470   8.691
 2143POPC   C2B30044  13.411   9.476   8.237
 2143POPC   C3B30045  13.620   9.256   7.903
 2143POPC   C4B30046  13.562   9.220   7.451
 2144POPC   NC330047   5.715  28.145   9.316
 2144POPC   PO430048   5.816  27.452   9.432
 2144POPC   GL130049   5.651  27.512   9.085
 2144POPC   GL230050   5.864  27.758   8.963
 2144POPC   C1A30051   5.484  27.557   8.699
 2144POPC   D2A30052   5.572  27.738   8.313
 2144POPC   C3A30053   5.624  27.484   7.973
 2144POPC   C4A30054   5.965  27.570   7.680
 2144POPC   C1B30055   6.210  27.458   8.803
 2144POPC   C2B30056   6.447  27.322   8.414
 2144POPC   C3B30057   6.476  27.379   7.958
 2144POPC   C4B30058   6.353  27.285   7.531
 2145POPC   NC330059  26.786  28.282   9.541
 2145POPC   PO430060  27.454  28.318   9.502
 2145POPC   GL130061  27.034  28.445   9.148
 2145POPC   GL230062  26.703  28.244   9.056
 2145POPC   C1A30063  26.785  28.688   8.813
 2145POPC   D2A30064  26.931  28.649   8.391
 2145POPC   C3A30065  26.758  28.620   8.022
 2145POPC   C4A30066  26.815  28.389   7.685
 2145POPC   C1B30067  26.966  28.209   8.691
 2145POPC   C2B30068  27.021  28.116   8.242
 2145POPC   C3B30069  26.729  27.953   7.932
 2145POPC   C4B30070  26.702  27.956   7.465
 2146POPC   NC330071   4.593  38.780   9.648
 2146POPC   PO430072   4.311  38.167   9.649
 2146POPC   GL130073   4.260  38.326   9.246
 2146POPC   GL230074   4.373  38.641   9.198
 2146POPC   C1A30075   4.310  38.142   8.860
 2146POPC   D2A30076   4.419  38.329   8.480
 2146POPC   C3A30077   4.268  38.205   8.075
 2146POPC   C4A30078   4.606  38.094   7.814
 2146POPC   C1B30079   4.452  38.814   8.795
 2146POPC   C2B30080   4.272  38.814   8.385
 2146POPC   C3B30081   4.510  38.649   8.062
 2146POPC   C4B30082   4.369  38.506   7.656
 2147POPC   NC330083  33.473  38.893   9.500
 2147POPC   PO430084  33.172  39.496   9.514
 2147POPC   GL130085  33.069  39.342   9.100
 2147POPC   GL230086  33.164  39.040   9.125
 2147POPC   C1A30087  32.993  39.229   8.696
 2147POPC   D2A30088  32.973  39.358   8.310
 2147POPC   C3A30089  32.929  39.118   7.970
 2147POPC   C4A30090  32.840  39.286   7.598
 2147POPC   C1B30091  33.443  39.038   8.793
 2147POPC   C2B30092  33.345  38.978   8.392
 2147POPC   C3B30093  33.413  38.957   8.017
 2147POPC   C4B30094  33.324  39.149   7.627
 2148POPC   NC330095  38.611   7.948   9.433
 2148POPC   PO430096  38.613   8.648   9.449
 2148POPC   GL130097  38.530   8.399   9.085
 2148POPC   GL230098  38.788   8.169   9.009
 2148POPC   C1A30099  38.492   8.451   8.646
 2148POPC   D2A30100  38.265   8.663   8.370
 2148POPC   C3A30101  38.340   8.475   8.005
 2148POPC   C4A30102  38.718   8.356   7.808
 2148POPC   C1B30103  38.513   7.959   8.688
 2148POPC   C2B30104  38.576   8.080   8.244
 2148POPC   C3B30105  38.550   7.881   7.844
 2148POPC   C4B30106  38.542   7.672   7.429
 2149POPC   NC330107  11.108  36.172   9.652
 2149POPC   PO430108  11.729  36.059   9.395
 2149POPC   GL130109  11.522  36.359   9.125
 2149POPC   GL230110  11.147  36.330   9.067
 2149POPC   C1A30111  11.527  36.220   8.693
 2149POPC   D2A30112  11.639  36.108   8.303
 2149POPC   C3A30113  11.515  35.948   7.900
 2149POPC   C4A30114  11.491  36.075   7.458
 2149POPC   C1B30115  11.028  36.087   8.666
 2149POPC   C2B30116  11.111  36.110   8.212
 2149POPC   C3B30117  11.059  36.149   7.755
 2149POPC   C4B30118  10.876  35.964   7.349
 2150POPC   NC330119  39.009  35.850   9.533
 2150POPC   PO430120  39.687  36.173   9.517
 2150POPC   GL130121  39.477  36.371   9.115
 2150POPC   GL230122  39.172  36.589   9.222
 2150POPC   C1A30123  39.312  36.241   8.696
 2150POPC   D2A30124  39.103  35.867   8.458
 2150POPC   C3A30125  39.315  35.846   8.060
 2150POPC   C4A30126  39.460  36.202   7.844
 2150POPC   C1B30127  38.935  36.532   8.887
 2150POPC   C2B30128  38.826  36.300   8.516
 2150POPC   C3B30129  39.038  36.288   8.132
 2150POPC   C4B30130  39.020  36.482   7.725
 2151POPC   NC330131  36.458  16.975   9.674
 2151POPC   PO430132  35.939  16.481   9.586
 2151POPC   GL130133  36.053  16.657   9.176
 2151POPC   GL230134  36.405  16.710   9.218
 2151POPC   C1A30135  35.869  16.739   8.765
 2151POPC   D2A30136  36.104  16.651   8.405
 2151POPC   C3A30137  36.162  16.486   7.997
 2151POPC   C4A30138  36.085  16.687   7.616
 2151POPC   C1B30139  36.404  16.820   8.785
 2151POPC   C2B30140  36.453  17.022   8.417
 2151POPC   C3B30141  36.431  16.941   8.007
 2151POPC   C4B30142  36.214  17.179   7.702
 2152POPC   NC330143   9.044   0.975   9.346
 2152POPC   PO430144   8.649   1.536   9.495
 2152POPC   GL130145   8.853   1.395   9.095
 2152POPC   GL230146   9.194   1.370   9.040
 2152POPC   C1A30147   8.739   1.454   8.647
 2152POPC   D2A30148   8.934   1.390   8.225
 2152POPC   C3A30149   8.754   1.412   7.821
 2152POPC   C4A30150   9.002   1.448   7.434
 2152POPC   C1B30151   9.271   1.372   8.637
 2152POPC   C2B30152   9.197   0.986   8.398
 2152POPC   C3B30153   8.921   0.897   8.058
 2152POPC   C4B30154   9.011   0.986   7.667
 2153POPC   NC330155  25.020  38.711   9.761
 2153POPC   PO430156  25.515  38.246   9.548
 2153POPC   GL130157  25.260  38.299   9.155
 2153POPC   GL230158  25.406  38.601   9.150
 2153POPC   C1A30159  25.168  38.341   8.678
 2153POPC   D2A30160  25.007  38.334   8.247
 2153POPC   C3A30161  25.319  38.369   7.927
 2153POPC   C4A30162  25.301  38.505   7.483
 2153POPC   C1B30163  25.542  38.669   8.738
 2153POPC   C2B30164  25.297  38.735   8.344
 2153POPC   C3B30165  25.219  38.853   7.902
 2153POPC   C4B30166  25.460  38.996   7.535
 2154POPC   NC330167  35.869  10.682   9.446
 2154POPC   PO430168  36.260  10.346   9.874
 2154POPC   GL130169  36.263  10.385   9.329
 2154POPC   GL230170  35.982  10.185   9.177
 2154POPC   C1A30171  36.095  10.580   8.851
 2154POPC   D2A30172  35.752  10.630   8.496
 2154POPC   C3A30173  35.905  10.691   8.052
 2154POPC   C4A30174  36.295  10.593   7.831
 2154POPC   C1B30175  36.033  10.088   8.717
 2154POPC   C2B30176  36.070  10.240   8.255
 2154POPC   C3B30177  36.145  10.125   7.808
 2154POPC   C4B30178  35.984  10.163   7.371
 2155POPC   NC330179  40.235  21.346   9.680
 2155POPC   PO430180  39.574  21.695   9.574
 2155POPC   GL130181  39.791  21.554   9.161
 2155POPC   GL230182  40.138  21.500   9.058
 2155POPC   C1A30183  39.753  21.262   8.753
 2155POPC   D2A30184  39.912  21.057   8.342
 2155POPC   C3A30185  39.875  21.318   7.986
 2155POPC   C4A30186  39.904  21.622   7.675
 2155POPC   C1B30187  40.250  21.230   8.677
 2155POPC   C2B30188  40.357  21.331   8.281
 2155POPC   C3B30189  40.339  21.654   8.003
 2155POPC   C4B30190  40.358  21.393   7.695
 2156POPC   NC330191  12.836  22.013   9.599
 2156POPC   PO430192  12.806  22.703   9.393
 2156POPC   GL130193  12.915  22.329   9.174
 2156POPC   GL230194  13.085  21.992   9.171
 2156POPC   C1A30195  12.955  22.281   8.746
 2156POPC   D2A30196  12.760  22.433   8.397
 2156POPC   C3A30197  12.875  22.295   7.994
 2156POPC   C4A30198  12.724  22.450   7.600
 2156POPC   C1B30199  12.998  21.776   8.779
 2156POPC   C2B30200  12.828  21.902   8.391
 2156POPC   C3B30201  12.868  21.773   7.981
 2156POPC   C4B30202  12.926  21.968   7.591
 2157POPC   NC330203  35.971  17.701   9.435
 2157POPC   PO430204  36.429  17.231   9.288
 2157POPC   GL130205  36.199  17.236   8.953
 2157POPC   GL230206  36.001  17.462   9.012
 2157POPC   C1A30207  36.332  17.478   8.612
 2157POPC   D2A30208  36.658  17.483   8.276
 2157POPC   C3A30209  36.482  17.640   7.876
 2157POPC   C4A30210  36.468  18.061   7.652
 2157POPC   C1B30211  35.840  17.743   8.743
 2157POPC   C2B30212  35.851  17.714   8.324
 2157POPC   C3B30213  35.696  17.428   8.021
 2157POPC   C4B30214  35.862  17.532   7.651
 2158POPC   NC330215   1.841  15.622   9.711
 2158POPC   PO430216   2.176  15.112   9.540
 2158POPC   GL130217   1.950  15.121   9.144
 2158POPC   GL230218   2.161  14.855   9.073
 2158POPC   C1A30219   1.875  15.365   8.732
 2158POPC   D2A30220   1.824  15.533   8.274
 2158POPC   C3A30221   2.137  15.367   7.952
 2158POPC   C4A30222   2.075  15.273   7.500
 2158POPC   C1B30223   1.907  14.833   8.712
 2158POPC   C2B30224   1.948  15.033   8.317
 2158POPC   C3B30225   1.980  14.851   7.925
 2158POPC   C4B30226   2.244  14.814   7.602
 2159POPC   NC330227  28.978  10.046   9.431
 2159POPC   PO430228  29.307  10.698   9.445
 2159POPC   GL130229  29.294  10.363   9.181
 2159POPC   GL230230  28.947  10.435   9.129
 2159POPC   C1A30231  29.270  10.203   8.765
 2159POPC   D2A30232  29.066  10.257   8.383
 2159POPC   C3A30233  29.334  10.396   8.110
 2159POPC   C4A30234  29.260  10.492   7.704
 2159POPC   C1B30235  29.050  10.705   8.812
 2159POPC   C2B30236  29.115  10.767   8.405
 2159POPC   C3B30237  28.920  10.696   8.027
 2159POPC   C4B30238  28.974  10.895   7.643
 2160POPC   NC330239  21.673  11.004   9.414
 2160POPC   PO430240  22.173  11.428   9.705
 2160POPC   GL130241  22.317  11.412   9.270
 2160POPC   GL230242  22.364  11.075   9.116
 2160POPC   C1A30243  22.364  11.625   8.877
 2160POPC   D2A30244  22.197  11.640   8.474
 2160POPC   C3A30245  22.500  11.636   8.153
 2160POPC   C4A30246  22.268  11.523   7.792
 2160POPC   C1B30247  22.337  11.160   8.660
 2160POPC   C2B30248  22.311  11.174   8.227
 2160POPC   C3B30249  22.327  11.029   7.841
 2160POPC   C4B30250  22.048  10.990   7.527
 2161POPC   NC330251  36.189  20.347   9.472
 2161POPC   PO430252  36.238  21.015   9.566
 2161POPC   GL130253  35.955  21.001   9.209
 2161POPC   GL230254  36.181  20.735   9.119
 2161POPC   C1A30255  35.839  20.871   8.778
 2161POPC   D2A30256  36.058  20.701   8.396
 2161POPC   C3A30257  36.135  20.970   8.033
 2161POPC   C4A30258  36.381  20.932   7.660
 2161POPC   C1B30259  36.280  20.457   8.799
 2161POPC   C2B30260  36.318  20.233   8.451
 2161POPC   C3B30261  36.119  20.254   8.056
 2161POPC   C4B30262  36.060  20.539   7.725
 2162POPC   NC330263  36.173  19.885   9.802
 2162POPC   PO430264  35.725  19.553   9.480
 2162POPC   GL130265  36.155  19.775   9.261
 2162POPC   GL230266  36.185  20.057   9.083
 2162POPC   C1A30267  36.438  19.679   8.867
 2162POPC   D2A30268  36.613  19.771   8.433
 2162POPC   C3A30269  36.583  20.043   8.074
 2162POPC   C4A30270  36.429  19.989   7.698
 2162POPC   C1B30271  36.009  19.930   8.717
 2162POPC   C2B30272  36.062  19.760   8.347
 2162POPC   C3B30273  36.064  19.766   7.947
 2162POPC   C4B30274  35.925  20.069   7.616
 2163POPC   NC330275  40.268  39.145   9.511
 2163POPC   PO430276  39.875  39.626   9.647
 2163POPC   GL130277  39.853  39.319   9.274
 2163POPC   GL230278  40.174  39.303   9.062
 2163POPC   C1A30279  39.795  39.023   8.918
 2163POPC   D2A30280  39.868  39.236   8.528
 2163POPC   C3A30281  39.935  38.990   8.187
 2163POPC   C4A30282  39.736  39.030   7.791
 2163POPC   C1B30283  40.305  39.056   8.730
 2163POPC   C2B30284  40.404  39.238   8.353
 2163POPC   C3B30285  40.368  39.227   7.943
 2163POPC   C4B30286  40.209  38.998   7.609
 2164POPC   NC330287  44.889  38.108   9.432
 2164POPC   PO430288  44.835  38.723   9.370
 2164POPC   GL130289  44.646  38.694   9.036
 2164POPC   GL230290  44.640  38.359   9.062
 2164POPC   C1A30291  44.655  38.685   8.637
 2164POPC   D2A30292  44.907  38.613   8.322
 2164POPC   C3A30293  44.709  38.598   7.958
 2164POPC   C4A30294  44.932  38.746   7.637
 2164POPC   C1B30295  44.717  38.179   8.710
 2164POPC   C2B30296  44.557  38.224   8.336
 2164POPC   C3B30297  44.658  38.089   7.957
 2164POPC   C4B30298  44.793  38.231   7.601
 2165POPC   NC330299  26.869  24.948   9.479
 2165POPC   PO430300  26.484  24.337   9.399
 2165POPC   GL130301  26.832  24.298   9.078
 2165POPC   GL230302  26.554  24.319   8.885
 2165POPC   C1A30303  27.033  24.354   8.644
 2165POPC   D2A30304  27.285  24.474   8.263
 2165POPC   C3A30305  27.097  24.558   7.814
 2165POPC   C4A30306  26.929  24.290   7.434
 2165POPC   C1B30307  26.633  24.676   8.645
 2165POPC   C2B30308  26.751  24.603   8.226
 2165POPC   C3B30309  26.597  24.508   7.814
 2165POPC   C4B30310  26.547  24.621   7.370
 2166POPC   NC330311  32.672  28.688   9.289
 2166POPC   PO430312  32.602  28.101   9.592
 2166POPC   GL130313  32.404  28.085   9.097
 2166POPC   GL230314  32.224  28.365   9.040
 2166POPC   C1A30315  32.302  28.142   8.600
 2166POPC   D2A30316  32.129  28.534   8.361
 2166POPC   C3A30317  32.005  28.457   7.946
 2166POPC   C4A30318  32.198  28.131   7.654
 2166POPC   C1B30319  32.487  28.601   8.713
 2166POPC   C2B30320  32.699  28.400   8.398
 2166POPC   C3B30321  32.487  28.254   8.073
 2166POPC   C4B30322  32.491  28.556   7.742
 2167POPC   NC330323  19.478  16.661   9.457
 2167POPC   PO430324  20.169  16.620   9.485
 2167POPC   GL130325  19.900  16.717   9.171
 2167POPC   GL230326  19.847  16.404   9.069
 2167POPC   C1A30327  19.999  16.822   8.783
 2167POPC   D2A30328  19.949  16.974   8.412
 2167POPC   C3A30329  19.943  16.724   8.076
 2167POPC   C4A30330  19.912  16.782   7.636
 2167POPC   C1B30331  19.576  16.504   8.761
 2167POPC   C2B30332  19.490  16.668   8.366
 2167POPC   C3B30333  19.454  16.700   7.952
 2167POPC   C4B30334  19.470  16.480   7.576
 2168POPC   NC330335  44.054  43.284   9.659
 2168POPC   PO430336  43.542  43.558   9.268
 2168POPC   GL130337  43.738  43.158   9.063
 2168POPC   GL230338  44.077  43.051   9.197
 2168POPC   C1A30339  43.831  43.174   8.631
 2168POPC   D2A30340  43.592  43.115   8.246
 2168POPC   C3A30341  43.759  43.392   7.925
 2168POPC   C4A30342  44.188  43.460   7.750
 2168POPC   C1B30343  44.150  42.804   8.852
 2168POPC   C2B30344  44.072  42.787   8.418
 2168POPC   C3B30345  44.038  42.954   8.000
 2168POPC   C4B30346  43.938  43.040   7.557
 2169POPC   NC330347  25.805  14.695   9.416
 2169POPC   PO430348  26.242  14.147   9.644
 2169POPC   GL130349  26.153  14.317   9.197
 2169POPC   GL230350  25.814  14.372   9.029
 2169POPC   C1A30351  26.214  14.553   8.794
 2169POPC   D2A30352  26.069  14.764   8.406
 2169POPC   C3A30353  26.132  14.498   8.043
 2169POPC   C4A30354  26.456  14.497   7.728
 2169POPC   C1B30355  25.679  14.691   8.745
 2169POPC   C2B30356  25.560  14.746   8.308
 2169POPC   C3B30357  25.672  14.699   7.884
 2169POPC   C4B30358  25.853  14.406   7.599
 2170POPC   NC330359  42.918  12.733   9.862
 2170POPC   PO430360  42.339  12.603   9.486
 2170POPC   GL130361  42.208  12.793   9.095
 2170POPC   GL230362  42.251  13.180   9.088
 2170POPC   C1A30363  42.143  12.611   8.685
 2170POPC   D2A30364  42.093  12.325   8.332
 2170POPC   C3A30365  42.186  12.556   7.971
 2170POPC   C4A30366  42.092  12.780   7.608
 2170POPC   C1B30367  42.363  13.068   8.679
 2170POPC   C2B30368  42.210  13.009   8.274
 2170POPC   C3B30369  42.495  12.983   7.960
 2170POPC   C4B30370  42.805  13.346   7.882
 2171POPC   NC330371  23.375  33.309   9.450
 2171POPC   PO430372  23.736  32.797   9.557
 2171POPC   GL130373  23.666  32.725   9.130
 2171POPC   GL230374  23.602  33.077   9.043
 2171POPC   C1A30375  23.795  32.778   8.683
 2171POPC   D2A30376  23.566  32.869   8.319
 2171POPC   C3A30377  23.720  32.747   7.919
 2171POPC   C4A30378  23.727  33.115   7.667
 2171POPC   C1B30379  23.893  33.303   8.760
 2171POPC   C2B30380  24.008  33.563   8.415
 2171POPC   C3B30381  23.939  33.427   8.039
 2171POPC   C4B30382  24.178  33.419   7.705
 2172POPC   NC330383  24.691  24.979   9.460
 2172POPC   PO430384  24.316  25.510   9.630
 2172POPC   GL130385  24.486  25.385   9.222
 2172POPC   GL230386  24.394  25.063   9.059
 2172POPC   C1A30387  24.562  25.457   8.780
 2172POPC   D2A30388  24.379  25.503   8.380
 2172POPC   C3A30389  24.433  25.318   8.013
 2172POPC   C4A30390  24.324  25.559   7.685
 2172POPC   C1B30391  24.276  24.825   8.710
 2172POPC   C2B30392  24.496  24.840   8.316
 2172POPC   C3B30393  24.310  24.828   7.925
 2172POPC   C4B30394  24.389  25.059   7.551
 2173POPC   NC330395  25.616  25.861   9.432
 2173POPC   PO430396  26.162  26.228   9.464
 2173POPC   GL130397  25.989  26.233   9.098
 2173POPC   GL230398  25.901  25.877   8.998
 2173POPC   C1A30399  26.274  26.156   8.781
 2173POPC   D2A30400  26.192  25.844   8.505
 2173POPC   C3A30401  26.143  26.030   8.125
 2173POPC   C4A30402  26.231  25.826   7.767
 2173POPC   C1B30403  25.807  25.545   8.667
 2173POPC   C2B30404  25.792  25.590   8.202
 2173POPC   C3B30405  25.736  25.867   7.858
 2173POPC   C4B30406  25.796  25.757   7.399
 2174POPC   NC330407  20.317  13.328   9.534
 2174POPC   PO430408  20.983  13.459   9.419
 2174POPC   GL130409  20.642  13.531   9.174
 2174POPC   GL230410  20.526  13.857   9.304
 2174POPC   C1A30411  20.567  13.405   8.756
 2174POPC   D2A30412  20.708  13.589   8.396
 2174POPC   C3A30413  20.525  13.397   8.055
 2174POPC   C4A30414  20.732  13.324   7.687
 2174POPC   C1B30415  20.387  13.861   8.863
 2174POPC   C2B30416  20.222  13.719   8.443
 2174POPC   C3B30417  20.464  13.895   8.070
 2174POPC   C4B30418  20.927  14.011   8.032
 2175POPC   NC330419   3.176   2.209   9.615
 2175POPC   PO430420   3.835   2.372   9.483
 2175POPC   GL130421   3.707   2.006   9.237
 2175POPC   GL230422   3.368   1.913   9.162
 2175POPC   C1A30423   3.737   1.824   8.817
 2175POPC   D2A30424   3.668   2.003   8.444
 2175POPC   C3A30425   3.785   1.828   8.055
 2175POPC   C4A30426   3.419   1.879   7.893
 2175POPC   C1B30427   3.299   2.186   8.783
 2175POPC   C2B30428   3.289   2.411   8.390
 2175POPC   C3B30429   3.133   2.293   7.971
 2175POPC   C4B30430   3.285   2.215   7.550
 2176POPC   NC330431  14.771  14.292   9.531
 2176POPC   PO430432  15.428  14.396   9.461
 2176POPC   GL130433  15.288  14.167   9.086
 2176POPC   GL230434  15.001  14.420   9.046
 2176POPC   C1A30435  15.159  14.149   8.618
 2176POPC   D2A30436  14.907  14.481   8.415
 2176POPC   C3A30437  14.935  14.647   7.992
 2176POPC   C4A30438  14.993  14.324   7.620
 2176POPC   C1B30439  15.359  14.594   8.801
 2176POPC   C2B30440  15.463  14.501   8.402
 2176POPC   C3B30441  15.303  14.306   8.063
 2176POPC   C4B30442  15.387  14.590   7.759
 2177POPC   NC330443  32.819   5.314   9.500
 2177POPC   PO430444  33.004   4.697   9.629
 2177POPC   GL130445  33.008   4.943   9.206
 2177POPC   GL230446  33.259   5.227   9.240
 2177POPC   C1A30447  32.823   5.140   8.806
 2177POPC   D2A30448  32.882   4.980   8.377
 2177POPC   C3A30449  32.652   5.107   7.973
 2177POPC   C4A30450  32.844   5.026   7.540
 2177POPC   C1B30451  33.311   5.282   8.799
 2177POPC   C2B30452  33.126   5.432   8.405
 2177POPC   C3B30453  33.136   5.246   8.007
 2177POPC   C4B30454  33.466   5.304   7.790
 2178POPC   NC330455  27.514   7.784   9.246
 2178POPC   PO430456  27.764   7.210   9.500
 2178POPC   GL130457  27.914   7.293   9.110
 2178POPC   GL230458  27.961   7.653   9.029
 2178POPC   C1A30459  27.755   7.065   8.801
 2178POPC   D2A30460  27.818   7.073   8.398
 2178POPC   C3A30461  27.538   7.261   8.127
 2178POPC   C4A30462  27.759   7.283   7.727
 2178POPC   C1B30463  27.686   7.558   8.668
 2178POPC   C2B30464  27.699   7.719   8.274
 2178POPC   C3B30465  27.476   7.718   7.895
 2178POPC   C4B30466  27.577   7.681   7.462
 2179POPC   NC330467  33.857  21.891   9.397
 2179POPC   PO430468  33.747  21.218   9.637
 2179POPC   GL130469  33.655  21.264   9.175
 2179POPC   GL230470  33.794  21.574   9.012
 2179POPC   C1A30471  33.641  21.201   8.699
 2179POPC   D2A30472  33.655  21.311   8.246
 2179POPC   C3A30473  33.741  21.718   8.034
 2179POPC   C4A30474  33.825  21.666   7.610
 2179POPC   C1B30475  33.965  21.577   8.575
 2179POPC   C2B30476  34.141  21.439   8.150
 2179POPC   C3B30477  33.954  21.212   7.763
 2179POPC   C4B30478  34.121  21.328   7.330
 2180POPC   NC330479   8.068  21.393   9.601
 2180POPC   PO430480   8.594  21.012   9.673
 2180POPC   GL130481   8.486  21.267   9.283
 2180POPC   GL230482   8.293  21.565   9.183
 2180POPC   C1A30483   8.431  21.251   8.813
 2180POPC   D2A30484   8.267  21.423   8.436
 2180POPC   C3A30485   8.483  21.421   8.014
 2180POPC   C4A30486   8.338  21.215   7.596
 2180POPC   C1B30487   7.940  21.515   8.856
 2180POPC   C2B30488   7.818  21.681   8.422
 2180POPC   C3B30489   7.965  21.476   8.031
 2180POPC   C4B30490   7.870  21.456   7.613
 2181POPC   NC330491  41.756  30.302   9.415
 2181POPC   PO430492  41.717  30.964   9.532
 2181POPC   GL130493  41.566  30.727   9.161
 2181POPC   GL230494  41.304  30.462   9.228
 2181POPC   C1A30495  41.670  30.637   8.716
 2181POPC   D2A30496  41.646  30.901   8.342
 2181POPC   C3A30497  41.759  30.778   7.914
 2181POPC   C4A30498  41.496  30.860   7.569
 2181POPC   C1B30499  41.205  30.403   8.781
 2181POPC   C2B30500  41.246  30.556   8.342
 2181POPC   C3B30501  41.360  30.468   7.885
 2181POPC   C4B30502  41.207  30.438   7.443
 2182POPC   NC330503  14.649   5.494   9.562
 2182POPC   PO430504  14.232   6.067   9.557
 2182POPC   GL130505  14.346   5.843   9.210
 2182POPC   GL230506  14.071   6.041   9.061
 2182POPC   C1A30507  14.567   5.804   8.820
 2182POPC   D2A30508  14.501   5.665   8.379
 2182POPC   C3A30509  14.616   5.682   7.932
 2182POPC   C4A30510  14.676   5.923   7.579
 2182POPC   C1B30511  14.157   6.025   8.602
 2182POPC   C2B30512  14.093   5.950   8.196
 2182POPC   C3B30513  14.246   6.056   7.816
 2182POPC   C4B30514  14.106   6.093   7.388
 2183POPC   NC330515   0.247  38.814   9.557
 2183POPC   PO430516   0.661  38.412   9.462
 2183POPC   GL130517   0.509  38.653   9.127
 2183POPC   GL230518   0.178  38.504   9.080
 2183POPC   C1A30519   0.667  38.607   8.726
 2183POPC   D2A30520   0.703  38.251   8.495
 2183POPC   C3A30521   0.663  38.244   8.054
 2183POPC   C4A30522   0.630  38.568   7.759
 2183POPC   C1B30523   0.210  38.320   8.666
 2183POPC   C2B30524   0.085  38.147   8.267
 2183POPC   C3B30525   0.178  38.396   7.919
 2183POPC   C4B30526   0.257  38.373   7.471
 2184POPC   NC330527   4.554   3.523   9.659
 2184POPC   PO430528   4.046   3.906   9.627
 2184POPC   GL130529   4.143   3.528   9.308
 2184POPC   GL230530   4.493   3.367   9.187
 2184POPC   C1A30531   4.063   3.356   8.881
 2184POPC   D2A30532   4.026   3.651   8.495
 2184POPC   C3A30533   4.188   3.548   8.052
 2184POPC   C4A30534   4.191   3.275   7.688
 2184POPC   C1B30535   4.496   3.567   8.797
 2184POPC   C2B30536   4.479   3.386   8.430
 2184POPC   C3B30537   4.783   3.396   8.147
 2184POPC   C4B30538   4.786   3.348   7.714
 2185POPC   NC330539  34.166   0.588   9.516
 2185POPC   PO430540  34.530  44.952   9.435
 2185POPC   GL130541  34.452   0.311   9.131
 2185POPC   GL230542  34.304   0.660   9.050
 2185POPC   C1A30543  34.411   0.207   8.697
 2185POPC   D2A30544  34.692   0.139   8.352
 2185POPC   C3A30545  34.472   0.226   7.991
 2185POPC   C4A30546  34.579   0.368   7.623
 2185POPC   C1B30547  34.532   0.749   8.716
 2185POPC   C2B30548  34.427   0.600   8.344
 2185POPC   C3B30549  34.406   0.733   7.956
 2185POPC   C4B30550  34.025   0.722   7.842
 2186POPC   NC330551  20.900   3.253   9.465
 2186POPC   PO430552  20.375   3.643   9.379
 2186POPC   GL130553  20.549   3.400   9.090
 2186POPC   GL230554  20.783   3.669   9.079
 2186POPC   C1A30555  20.561   3.507   8.668
 2186POPC   D2A30556  20.759   3.409   8.350
 2186POPC   C3A30557  20.490   3.522   8.041
 2186POPC   C4A30558  20.544   3.381   7.645
 2186POPC   C1B30559  20.977   3.822   8.696
 2186POPC   C2B30560  20.813   3.909   8.260
 2186POPC   C3B30561  20.705   3.914   7.796
 2186POPC   C4B30562  20.892   3.673   7.428
 2187POPC   NC330563  18.382  44.271   9.375
 2187POPC   PO430564  17.901  44.770   9.551
 2187POPC   GL130565  18.137  44.703   9.168
 2187POPC   GL230566  18.313   0.007   9.096
 2187POPC   C1A30567  18.077  44.740   8.711
 2187POPC   D2A30568  18.044  44.829   8.280
 2187POPC   C3A30569  17.980  44.585   7.953
 2187POPC   C4A30570  18.146  44.676   7.557
 2187POPC   C1B30571  18.585  44.792   8.792
 2187POPC   C2B30572  18.549  44.671   8.361
 2187POPC   C3B30573  18.437  44.841   7.957
 2187POPC   C4B30574  18.364   0.133   7.620
 2188POPC   NC330575  16.384  15.515   9.363
 2188POPC   PO430576  16.986  15.912   9.560
 2188POPC   GL130577  16.742  15.834   9.197
 2188POPC   GL230578  16.516  16.017   9.120
 2188POPC   C1A30579  16.563  15.661   8.756
 2188POPC   D2A30580  16.326  15.748   8.375
 2188POPC   C3A30581  16.533  15.842   8.013
 2188POPC   C4A30582  16.483  15.485   7.754
 2188POPC   C1B30583  16.300  16.126   8.721
 2188POPC   C2B30584  16.159  16.231   8.309
 2188POPC   C3B30585  16.261  16.272   7.860
 2188POPC   C4B30586  16.592  16.355   7.511
 2189POPC   NC330587  31.912  44.772   9.597
 2189POPC   PO430588  31.217  44.536   9.475
 2189POPC   GL130589  31.365  44.596   9.079
 2189POPC   GL230590  31.552  44.879   9.177
 2189POPC   C1A30591  31.497  44.415   8.689
 2189POPC   D2A30592  31.366  44.164   8.337
 2189POPC   C3A30593  31.603  44.309   7.998
 2189POPC   C4A30594  31.416  44.611   7.702
 2189POPC   C1B30595  31.802  44.827   8.797
 2189POPC   C2B30596  31.823  44.681   8.360
 2189POPC   C3B30597  31.868  44.871   7.948
 2189POPC   C4B30598  31.839  44.882   7.491
 2190POPC   NC330599  26.101  22.564   9.665
 2190POPC   PO430600  25.917  21.950   9.557
 2190POPC   GL130601  26.154  22.044   9.217
 2190POPC   GL230602  26.417  22.299   9.327
 2190POPC   C1A30603  25.973  22.099   8.816
 2190POPC   D2A30604  26.034  22.298   8.442
 2190POPC   C3A30605  25.926  22.137   8.082
 2190POPC   C4A30606  26.086  21.917   7.740
 2190POPC   C1B30607  26.375  22.429   8.876
 2190POPC   C2B30608  26.440  22.585   8.424
 2190POPC   C3B30609  26.413  22.335   7.999
 2190POPC   C4B30610  26.468  22.280   7.501
 2191POPC   NC330611   0.167  31.641   9.605
 2191POPC   PO430612   0.782  31.334   9.454
 2191POPC   GL130613   0.640  31.564   9.126
 2191POPC   GL230614   0.315  31.470   9.137
 2191POPC   C1A30615   0.548  31.718   8.714
 2191POPC   D2A30616   0.466  31.851   8.289
 2191POPC   C3A30617   0.660  31.575   8.038
 2191POPC   C4A30618   0.710  31.528   7.605
 2191POPC   C1B30619   0.106  31.434   8.757
 2191POPC   C2B30620   0.009  31.667   8.395
 2191POPC   C3B30621   0.118  31.551   7.985
 2191POPC   C4B30622   0.207  31.409   7.573
 2192POPC   NC330623  18.429  41.070   9.370
 2192POPC   PO430624  18.013  41.494   9.384
 2192POPC   GL130625  18.117  41.637   9.019
 2192POPC   GL230626  18.428  41.493   9.059
 2192POPC   C1A30627  18.104  41.759   8.616
 2192POPC   D2A30628  18.279  41.440   8.351
 2192POPC   C3A30629  18.104  41.461   7.940
 2192POPC   C4A30630  18.415  41.193   7.865
 2192POPC   C1B30631  18.608  41.652   8.708
 2192POPC   C2B30632  18.634  41.812   8.318
 2192POPC   C3B30633  18.247  41.911   8.144
 2192POPC   C4B30634  18.206  41.929   7.737
 2193POPC   NC330635  29.125  38.139   9.676
 2193POPC   PO430636  28.652  37.933   9.416
 2193POPC   GL130637  28.975  38.162   9.136
 2193POPC   GL230638  29.359  38.164   9.172
 2193POPC   C1A30639  28.925  38.391   8.718
 2193POPC   D2A30640  29.002  38.269   8.284
 2193POPC   C3A30641  29.034  38.580   7.917
 2193POPC   C4A30642  29.128  38.670   7.471
 2193POPC   C1B30643  29.310  38.060   8.735
 2193POPC   C2B30644  29.447  38.004   8.322
 2193POPC   C3B30645  29.310  38.116   7.906
 2193POPC   C4B30646  29.482  38.258   7.517
 2194POPC   NC330647  24.807  18.075   9.384
 2194POPC   PO430648  24.465  18.710   9.433
 2194POPC   GL130649  24.626  18.480   9.125
 2194POPC   GL230650  24.366  18.227   9.160
 2194POPC   C1A30651  24.709  18.356   8.706
 2194POPC   D2A30652  24.730  18.565   8.279
 2194POPC   C3A30653  24.908  18.379   7.868
 2194POPC   C4A30654  25.007  18.287   7.392
 2194POPC   C1B30655  24.260  18.059   8.756
 2194POPC   C2B30656  24.379  18.176   8.348
 2194POPC   C3B30657  24.390  18.390   7.975
 2194POPC   C4B30658  24.466  18.084   7.740
 2195POPC   NC330659   0.931  31.921   9.435
 2195POPC   PO430660   1.043  32.581   9.472
 2195POPC   GL130661   1.153  32.411   9.083
 2195POPC   GL230662   1.219  32.088   9.045
 2195POPC   C1A30663   1.387  32.449   8.686
 2195POPC   D2A30664   1.381  32.168   8.310
 2195POPC   C3A30665   1.246  32.302   7.879
 2195POPC   C4A30666   1.201  32.178   7.447
 2195POPC   C1B30667   0.986  32.097   8.667
 2195POPC   C2B30668   0.853  32.183   8.241
 2195POPC   C3B30669   0.866  31.994   7.829
 2195POPC   C4B30670   0.750  31.997   7.398
 2196POPC   NC330671   5.825  16.305   9.446
 2196POPC   PO430672   5.329  16.675   9.554
 2196POPC   GL130673   5.541  16.695   9.130
 2196POPC   GL230674   5.914  16.703   9.119
 2196POPC   C1A30675   5.462  16.765   8.663
 2196POPC   D2A30676   5.403  16.955   8.221
 2196POPC   C3A30677   5.584  16.729   7.847
 2196POPC   C4A30678   5.792  16.646   7.439
 2196POPC   C1B30679   6.055  16.663   8.674
 2196POPC   C2B30680   6.242  16.733   8.244
 2196POPC   C3B30681   6.164  16.813   7.796
 2196POPC   C4B30682   6.285  16.646   7.411
 2197POPC   NC330683  14.418  41.204   9.383
 2197POPC   PO430684  14.098  41.747   9.441
 2197POPC   GL130685  14.390  41.624   9.100
 2197POPC   GL230686  14.745  41.624   9.241
 2197POPC   C1A30687  14.397  41.414   8.691
 2197POPC   D2A30688  14.297  41.514   8.257
 2197POPC   C3A30689  14.166  41.448   7.851
 2197POPC   C4A30690  14.054  41.605   7.448
 2197POPC   C1B30691  14.798  41.740   8.806
 2197POPC   C2B30692  14.717  41.781   8.371
 2197POPC   C3B30693  14.636  41.705   7.920
 2197POPC   C4B30694  14.939  41.662   7.607
 2198POPC   NC330695  23.294  23.140   9.440
 2198POPC   PO430696  23.583  22.629   9.349
 2198POPC   GL130697  23.807  22.857   9.096
 2198POPC   GL230698  23.673  23.173   9.074
 2198POPC   C1A30699  23.856  22.766   8.668
 2198POPC   D2A30700  24.037  23.048   8.377
 2198POPC   C3A30701  23.779  23.028   8.025
 2198POPC   C4A30702  23.842  22.713   7.742
 2198POPC   C1B30703  23.466  23.077   8.670
 2198POPC   C2B30704  23.286  23.216   8.262
 2198POPC   C3B30705  23.489  23.439   7.924
 2198POPC   C4B30706  23.892  23.493   7.734
 2199POPC   NC330707  17.966  38.118   9.520
 2199POPC   PO430708  18.644  38.448   9.618
 2199POPC   GL130709  18.535  38.375   9.190
 2199POPC   GL230710  18.239  38.269   9.101
 2199POPC   C1A30711  18.518  38.492   8.750
 2199POPC   D2A30712  18.213  38.430   8.429
 2199POPC   C3A30713  18.366  38.566   8.037
 2199POPC   C4A30714  18.493  38.305   7.718
 2199POPC   C1B30715  17.966  38.114   8.775
 2199POPC   C2B30716  18.044  37.778   8.481
 2199POPC   C3B30717  18.235  37.915   8.101
 2199POPC   C4B30718  18.067  37.950   7.699
 2200POPC   NC330719   4.069  39.594   9.401
 2200POPC   PO430720   4.184  38.963   9.571
 2200POPC   GL130721   4.165  39.123   9.168
 2200POPC   GL230722   4.494  39.194   9.168
 2200POPC   C1A30723   4.025  39.093   8.747
 2200POPC   D2A30724   4.110  39.311   8.354
 2200POPC   C3A30725   4.117  39.092   7.943
 2200POPC   C4A30726   4.522  39.014   7.720
 2200POPC   C1B30727   4.447  39.391   8.784
 2200POPC   C2B30728   4.591  39.493   8.396
 2200POPC   C3B30729   4.476  39.453   8.003
 2200POPC   C4B30730   4.551  39.677   7.683
 2201POPC   NC330731  35.754  36.868   9.676
 2201POPC   PO430732  36.470  36.969   9.563
 2201POPC   GL130733  36.301  36.959   9.171
 2201POPC   GL230734  35.970  36.826   9.215
 2201POPC   C1A30735  36.430  36.953   8.774
 2201POPC   D2A30736  36.512  36.676   8.479
 2201POPC   C3A30737  36.368  36.905   8.132
 2201POPC   C4A30738  36.358  36.708   7.750
 2201POPC   C1B30739  35.862  36.965   8.818
 2201POPC   C2B30740  36.012  36.739   8.492
 2201POPC   C3B30741  35.931  36.659   8.060
 2201POPC   C4B30742  35.855  37.071   7.883
 2202POPC   NC330743  11.494  25.815   9.499
 2202POPC   PO430744  10.968  26.109   9.386
 2202POPC   GL130745  11.252  25.953   9.062
 2202POPC   GL230746  11.597  26.103   9.095
 2202POPC   C1A30747  11.425  25.953   8.637
 2202POPC   D2A30748  11.419  25.715   8.261
 2202POPC   C3A30749  11.105  25.702   8.002
 2202POPC   C4A30750  11.194  26.014   7.779
 2202POPC   C1B30751  11.596  26.417   8.778
 2202POPC   C2B30752  11.752  26.394   8.357
 2202POPC   C3B30753  11.587  26.380   7.904
 2202POPC   C4B30754  11.677  26.548   7.491
 2203POPC   NC330755  36.244  30.133   9.514
 2203POPC   PO430756  35.783  29.717   9.326
 2203POPC   GL130757  36.026  29.923   9.083
 2203POPC   GL230758  36.326  29.812   9.100
 2203POPC   C1A30759  36.083  30.080   8.702
 2203POPC   D2A30760  36.180  30.387   8.430
 2203POPC   C3A30761  36.338  30.377   8.077
 2203POPC   C4A30762  36.136  30.377   7.709
 2203POPC   C1B30763  36.418  29.683   8.700
 2203POPC   C2B30764  36.408  29.920   8.336
 2203POPC   C3B30765  36.213  29.908   7.960
 2203POPC   C4B30766  36.332  29.829   7.564
 2204POPC   NC330767  44.508  19.313   9.476
 2204POPC   PO430768   0.045  18.855   9.432
 2204POPC   GL130769  44.850  19.092   9.126
 2204POPC   GL230770  44.525  18.947   9.135
 2204POPC   C1A30771  44.681  19.189   8.698
 2204POPC   D2A30772  44.539  19.412   8.311
 2204POPC   C3A30773  44.749  19.273   7.960
 2204POPC   C4A30774  44.641  19.112   7.577
 2204POPC   C1B30775  44.364  18.788   8.760
 2204POPC   C2B30776  44.340  18.930   8.357
 2204POPC   C3B30777  44.241  19.117   7.969
 2204POPC   C4B30778  44.257  18.798   7.684
 2205POPC   NC330779  10.035  32.532   9.581
 2205POPC   PO430780  10.310  32.021   9.461
 2205POPC   GL130781  10.734  32.241   9.227
 2205POPC   GL230782  11.029  31.985   9.122
 2205POPC   C1A30783  10.781  32.519   8.855
 2205POPC   D2A30784  10.921  32.548   8.406
 2205POPC   C3A30785  10.633  32.512   8.096
 2205POPC   C4A30786  10.475  32.536   7.702
 2205POPC   C1B30787  10.881  31.826   8.699
 2205POPC   C2B30788  10.879  32.053   8.273
 2205POPC   C3B30789  10.620  32.044   7.890
 2205POPC   C4B30790  10.522  31.671   7.638
 2206POPC   NC330791   1.079  41.388   9.534
 2206POPC   PO430792   1.018  41.949   9.221
 2206POPC   GL130793   1.386  41.722   9.066
 2206POPC   GL230794   1.213  41.436   9.032
 2206POPC   C1A30795   1.658  41.686   8.701
 2206POPC   D2A30796   1.654  41.857   8.253
 2206POPC   C3A30797   1.444  41.588   8.000
 2206POPC   C4A30798   1.013  41.555   7.901
 2206POPC   C1B30799   1.289  41.332   8.612
 2206POPC   C2B30800   1.125  41.190   8.249
 2206POPC   C3B30801   0.950  41.044   7.881
 2206POPC   C4B30802   1.074  41.056   7.428
 2207POPC   NC330803   2.364  26.357   9.492
 2207POPC   PO430804   1.782  26.105   9.636
 2207POPC   GL130805   1.952  25.991   9.214
 2207POPC   GL230806   2.283  25.821   9.178
 2207POPC   C1A30807   1.814  25.863   8.794
 2207POPC   D2A30808   1.920  25.690   8.400
 2207POPC   C3A30809   1.989  25.971   8.073
 2207POPC   C4A30810   1.798  26.186   7.768
 2207POPC   C1B30811   2.326  25.946   8.730
 2207POPC   C2B30812   2.425  26.052   8.302
 2207POPC   C3B30813   2.438  25.899   7.851
 2207POPC   C4B30814   2.469  25.713   7.435
 2208POPC   NC330815   1.795  36.731   9.525
 2208POPC   PO430816   2.429  37.074   9.512
 2208POPC   GL130817   2.217  36.755   9.218
 2208POPC   GL230818   2.004  37.015   9.154
 2208POPC   C1A30819   1.968  36.677   8.800
 2208POPC   D2A30820   2.087  36.716   8.374
 2208POPC   C3A30821   1.898  36.847   7.956
 2208POPC   C4A30822   1.911  36.687   7.538
 2208POPC   C1B30823   2.029  37.184   8.738
 2208POPC   C2B30824   1.861  37.235   8.320
 2208POPC   C3B30825   2.132  37.319   7.959
 2208POPC   C4B30826   2.250  37.480   7.553
 2209POPC   NC330827  33.280  44.353   9.472
 2209POPC   PO430828  33.081  44.971   9.386
 2209POPC   GL130829  33.172  44.697   9.065
 2209POPC   GL230830  32.864  44.529   9.145
 2209POPC   C1A30831  33.188  44.797   8.625
 2209POPC   D2A30832  32.869  44.968   8.349
 2209POPC   C3A30833  32.955  44.802   7.923
 2209POPC   C4A30834  33.322  44.564   7.750
 2209POPC   C1B30835  32.724  44.586   8.722
 2209POPC   C2B30836  32.754  44.455   8.295
 2209POPC   C3B30837  32.646  44.379   7.879
 2209POPC   C4B30838  32.782  44.528   7.489
 2210POPC   NC330839  42.031  13.042   9.519
 2210POPC   PO430840  41.392  12.772   9.565
 2210POPC   GL130841  41.451  12.873   9.118
 2210POPC   GL230842  41.742  13.054   9.091
 2210POPC   C1A30843  41.454  12.902   8.662
 2210POPC   D2A30844  41.779  12.767   8.368
 2210POPC   C3A30845  41.681  12.655   7.953
 2210POPC   C4A30846  41.466  12.865   7.621
 2210POPC   C1B30847  41.870  13.244   8.704
 2210POPC   C2B30848  41.733  13.275   8.284
 2210POPC   C3B30849  41.882  13.146   7.873
 2210POPC   C4B30850  41.821  13.157   7.408
 2211POPC   NC330851   4.583  17.549   9.487
 2211POPC   PO430852   3.885  17.359   9.529
 2211POPC   GL130853   4.180  17.295   9.214
 2211POPC   GL230854   4.247  17.627   9.111
 2211POPC   C1A30855   4.220  17.281   8.756
 2211POPC   D2A30856   4.279  17.624   8.475
 2211POPC   C3A30857   4.247  17.528   8.049
 2211POPC   C4A30858   4.161  17.522   7.618
 2211POPC   C1B30859   4.587  17.850   8.858
 2211POPC   C2B30860   4.770  17.852   8.436
 2211POPC   C3B30861   4.627  17.869   8.042
 2211POPC   C4B30862   4.649  17.586   7.699
 2212POPC   NC330863  22.135  34.792   9.676
 2212POPC   PO430864  22.423  34.180   9.616
 2212POPC   GL130865  22.252  34.430   9.249
 2212POPC   GL230866  21.944  34.633   9.216
 2212POPC   C1A30867  22.332  34.677   8.853
 2212POPC   D2A30868  22.155  34.797   8.462
 2212POPC   C3A30869  22.336  34.653   8.096
 2212POPC   C4A30870  22.176  34.676   7.719
 2212POPC   C1B30871  21.772  34.751   8.810
 2212POPC   C2B30872  21.692  34.537   8.417
 2212POPC   C3B30873  21.702  34.724   8.027
 2212POPC   C4B30874  21.767  34.956   7.655
 2213POPC   NC330875  29.985  21.531   9.637
 2213POPC   PO430876  30.156  20.904   9.570
 2213POPC   GL130877  30.024  21.146   9.221
 2213POPC   GL230878  29.872  21.487   9.140
 2213POPC   C1A30879  29.870  21.132   8.802
 2213POPC   D2A30880  29.971  21.345   8.473
 2213POPC   C3A30881  29.873  21.130   8.117
 2213POPC   C4A30882  29.645  21.305   7.803
 2213POPC   C1B30883  29.888  21.785   8.750
 2213POPC   C2B30884  30.055  21.899   8.305
 2213POPC   C3B30885  29.927  21.762   7.861
 2213POPC   C4B30886  29.537  21.773   7.595
 2214POPC   NC330887  44.262  27.753   9.523
 2214POPC   PO430888  43.768  27.403   9.806
 2214POPC   GL130889  43.836  27.517   9.282
 2214POPC   GL230890  44.042  27.797   9.076
 2214POPC   C1A30891  43.960  27.375   8.835
 2214POPC   D2A30892  43.833  27.411   8.423
 2214POPC   C3A30893  44.086  27.411   8.074
 2214POPC   C4A30894  43.992  27.548   7.707
 2214POPC   C1B30895  43.709  27.804   8.820
 2214POPC   C2B30896  43.642  27.889   8.421
 2214POPC   C3B30897  43.719  27.836   8.028
 2214POPC   C4B30898  43.374  28.069   7.827
 2215POPC   NC330899  22.100  29.207   9.509
 2215POPC   PO430900  22.563  29.031   9.209
 2215POPC   GL130901  22.209  29.211   9.013
 2215POPC   GL230902  21.850  29.085   9.092
 2215POPC   C1A30903  22.126  29.129   8.614
 2215POPC   D2A30904  22.371  28.925   8.370
 2215POPC   C3A30905  22.180  29.012   8.029
 2215POPC   C4A30906  22.166  28.845   7.653
 2215POPC   C1B30907  21.658  29.289   8.747
 2215POPC   C2B30908  21.675  29.177   8.281
 2215POPC   C3B30909  21.763  29.220   7.819
 2215POPC   C4B30910  21.561  29.492   7.476
 2216POPC   NC330911  43.975  29.156   9.718
 2216POPC   PO430912  43.401  28.928   9.476
 2216POPC   GL130913  43.780  29.015   9.213
 2216POPC   GL230914  44.061  29.256   9.210
 2216POPC   C1A30915  43.935  29.011   8.778
 2216POPC   D2A30916  43.681  28.972   8.412
 2216POPC   C3A30917  43.828  29.142   8.039
 2216POPC   C4A30918  43.651  29.377   7.691
 2216POPC   C1B30919  44.281  29.402   8.832
 2216POPC   C2B30920  44.322  29.253   8.416
 2216POPC   C3B30921  44.245  29.472   8.061
 2216POPC   C4B30922  44.157  29.322   7.668
 2217POPC   NC330923  19.950  10.584   9.739
 2217POPC   PO430924  20.584  10.462   9.498
 2217POPC   GL130925  20.722  10.590   9.139
 2217POPC   GL230926  20.757  10.911   9.156
 2217POPC   C1A30927  20.606  10.601   8.742
 2217POPC   D2A30928  20.472  10.777   8.397
 2217POPC   C3A30929  20.563  10.528   8.082
 2217POPC   C4A30930  20.307  10.600   7.765
 2217POPC   C1B30931  21.026  10.901   8.821
 2217POPC   C2B30932  20.994  10.721   8.423
 2217POPC   C3B30933  20.941  10.871   8.040
 2217POPC   C4B30934  20.793  10.755   7.658
 2218POPC   NC330935  41.724   0.787   9.298
 2218POPC   PO430936  41.485   1.392   9.531
 2218POPC   GL130937  41.686   1.413   9.170
 2218POPC   GL230938  42.061   1.474   9.192
 2218POPC   C1A30939  41.543   1.313   8.751
 2218POPC   D2A30940  41.462   1.032   8.425
 2218POPC   C3A30941  41.523   1.228   8.066
 2218POPC   C4A30942  41.392   1.239   7.692
 2218POPC   C1B30943  42.012   1.179   8.879
 2218POPC   C2B30944  41.963   1.196   8.457
 2218POPC   C3B30945  41.969   1.034   8.074
 2218POPC   C4B30946  41.862   1.042   7.648
 2219POPC   NC330947   6.587  20.910   9.445
 2219POPC   PO430948   6.541  20.375   9.880
 2219POPC   GL130949   6.619  20.369   9.408
 2219POPC   GL230950   6.314  20.479   9.251
 2219POPC   C1A30951   6.773  20.462   8.964
 2219POPC   D2A30952   6.785  20.768   8.579
 2219POPC   C3A30953   6.843  20.622   8.107
 2219POPC   C4A30954   6.972  20.821   7.703
 2219POPC   C1B30955   6.305  20.613   8.808
 2219POPC   C2B30956   6.390  20.542   8.345
 2219POPC   C3B30957   6.346  20.589   7.870
 2219POPC   C4B30958   6.235  20.375   7.458
 2220POPC   NC330959  29.850   7.134   9.518
 2220POPC   PO430960  30.143   6.454   9.443
 2220POPC   GL130961  29.847   6.703   9.191
 2220POPC   GL230962  29.949   6.980   9.068
 2220POPC   C1A30963  29.741   6.598   8.769
 2220POPC   D2A30964  29.888   6.533   8.378
 2220POPC   C3A30965  29.589   6.510   8.049
 2220POPC   C4A30966  29.761   6.561   7.629
 2220POPC   C1B30967  29.653   7.102   8.779
 2220POPC   C2B30968  29.773   7.041   8.369
 2220POPC   C3B30969  29.894   6.912   7.983
 2220POPC   C4B30970  29.556   7.027   7.737
 2221POPC   NC330971  25.770  13.122   9.358
 2221POPC   PO430972  26.009  12.449   9.435
 2221POPC   GL130973  26.185  12.830   9.210
 2221POPC   GL230974  26.117  12.616   8.906
 2221POPC   C1A30975  26.237  13.094   8.821
 2221POPC   D2A30976  25.999  12.953   8.464
 2221POPC   C3A30977  26.201  13.024   8.064
 2221POPC   C4A30978  26.030  13.178   7.704
 2221POPC   C1B30979  25.709  12.433   8.768
 2221POPC   C2B30980  25.529  12.486   8.352
 2221POPC   C3B30981  25.767  12.719   8.055
 2221POPC   C4B30982  26.019  12.660   7.675
 2222POPC   NC330983   0.129   3.803   9.473
 2222POPC   PO430984  44.515   3.481   9.530
 2222POPC   GL130985  44.714   3.571   9.192
 2222POPC   GL230986  44.982   3.350   9.234
 2222POPC   C1A30987  44.549   3.538   8.800
 2222POPC   D2A30988  44.571   3.753   8.446
 2222POPC   C3A30989  44.745   3.606   8.078
 2222POPC   C4A30990  44.582   3.542   7.677
 2222POPC   C1B30991  44.965   3.236   8.815
 2222POPC   C2B30992   0.085   3.394   8.414
 2222POPC   C3B30993   0.090   3.205   8.025
 2222POPC   C4B30994  44.903   3.147   7.570
 2223POPC   NC330995  20.212  17.080   9.363
 2223POPC   PO430996  20.834  16.930   9.683
 2223POPC   GL130997  20.644  16.747   9.320
 2223POPC   GL230998  20.955  16.797   9.170
 2223POPC   C1A30999  20.520  16.718   8.857
 2223POPC   D2A31000  20.310  16.600   8.448
 2223POPC   C3A31001  20.455  16.690   8.029
 2223POPC   C4A31002  20.352  16.518   7.640
 2223POPC   C1B31003  21.034  16.641   8.788
 2223POPC   C2B31004  20.836  16.634   8.417
 2223POPC   C3B31005  20.963  16.732   8.022
 2223POPC   C4B31006  20.816  16.721   7.641
 2224POPC   NC331007  35.307  19.631   9.288
 2224POPC   PO431008  35.822  20.082   9.566
 2224POPC   GL131009  35.677  19.961   9.137
 2224POPC   GL231010  35.737  19.644   8.999
 2224POPC   C1A31011  35.450  19.977   8.722
 2224POPC   D2A31012  35.055  19.774   8.516
 2224POPC   C3A31013  35.072  19.554   8.109
 2224POPC   C4A31014  35.144  19.918   7.922
 2224POPC   C1B31015  35.506  19.444   8.699
 2224POPC   C2B31016  35.523  19.646   8.333
 2224POPC   C3B31017  35.622  19.946   8.091
 2224POPC   C4B31018  35.583  19.726   7.734
 2225POPC   NC331019   2.355  28.977   9.420
 2225POPC   PO431020   1.906  29.547   9.432
 2225POPC   GL131021   1.969  29.187   9.146
 2225POPC   GL231022   1.767  28.891   9.223
 2225POPC   C1A31023   2.140  29.054   8.735
 2225POPC   D2A31024   1.958  29.176   8.346
 2225POPC   C3A31025   2.116  29.202   7.927
 2225POPC   C4A31026   1.807  29.253   7.669
 2225POPC   C1B31027   1.646  28.972   8.788
 2225POPC   C2B31028   1.568  28.861   8.374
 2225POPC   C3B31029   1.796  28.810   7.997
 2225POPC   C4B31030   2.235  28.712   7.879
 2226POPC   NC331031  18.671  16.167   9.610
 2226POPC   PO431032  17.973  16.004   9.427
 2226POPC   GL131033  18.122  15.796   9.110
 2226POPC   GL231034  18.430  15.627   9.251
 2226POPC   C1A31035  18.085  15.991   8.710
 2226POPC   D2A31036  17.952  16.252   8.356
 2226POPC   C3A31037  18.334  16.296   8.140
 2226POPC   C4A31038  18.565  16.082   7.811
 2226POPC   C1B31039  18.462  15.604   8.788
 2226POPC   C2B31040  18.274  15.648   8.400
 2226POPC   C3B31041  18.457  15.627   8.030
 2226POPC   C4B31042  18.296  15.684   7.611
 2227POPC   NC331043  13.276  20.143   9.754
 2227POPC   PO431044  13.810  19.875   9.524
 2227POPC   GL131045  13.599  19.764   9.165
 2227POPC   GL231046  13.337  19.560   9.255
 2227POPC   C1A31047  13.700  19.820   8.749
 2227POPC   D2A31048  13.924  19.732   8.378
 2227POPC   C3A31049  13.722  19.797   8.025
 2227POPC   C4A31050  13.726  19.536   7.734
 2227POPC   C1B31051  13.305  19.497   8.784
 2227POPC   C2B31052  13.320  19.763   8.389
 2227POPC   C3B31053  13.262  19.580   7.970
 2227POPC   C4B31054  13.280  19.550   7.479
 2228POPC   NC331055  37.703  29.595   9.395
 2228POPC   PO431056  37.420  30.255   9.532
 2228POPC   GL131057  37.647  30.160   9.158
 2228POPC   GL231058  37.911  29.913   9.030
 2228POPC   C1A31059  37.817  30.398   8.816
 2228POPC   D2A31060  37.891  30.113   8.504
 2228POPC   C3A31061  37.632  30.070   8.143
 2228POPC   C4A31062  37.766  30.007   7.730
 2228POPC   C1B31063  37.865  29.594   8.699
 2228POPC   C2B31064  37.664  29.516   8.276
 2228POPC   C3B31065  37.575  29.541   7.831
 2228POPC   C4B31066  37.609  29.495   7.379
 2229POPC   NC331067   0.611  28.282   9.549
 2229POPC   PO431068  44.952  28.212   9.501
 2229POPC   GL131069   0.269  28.129   9.180
 2229POPC   GL231070   0.468  28.436   9.089
 2229POPC   C1A31071   0.385  28.094   8.741
 2229POPC   D2A31072   0.280  28.306   8.375
 2229POPC   C3A31073   0.438  28.140   8.003
 2229POPC   C4A31074   0.372  28.249   7.580
 2229POPC   C1B31075   0.730  28.506   8.691
 2229POPC   C2B31076   0.691  28.619   8.243
 2229POPC   C3B31077   0.478  28.667   7.867
 2229POPC   C4B31078   0.048  28.517   7.870
 2230POPC   NC331079  20.779  35.606   9.519
 2230POPC   PO431080  20.193  35.246   9.495
 2230POPC   GL131081  20.430  35.474   9.173
 2230POPC   GL231082  20.801  35.372   9.077
 2230POPC   C1A31083  20.384  35.469   8.755
 2230POPC   D2A31084  20.277  35.142   8.483
 2230POPC   C3A31085  20.457  35.234   8.128
 2230POPC   C4A31086  20.289  35.477   7.806
 2230POPC   C1B31087  20.881  35.383   8.629
 2230POPC   C2B31088  21.027  35.300   8.215
 2230POPC   C3B31089  20.857  35.269   7.827
 2230POPC   C4B31090  20.663  35.419   7.463
 2231POPC   NC331091  10.952  41.777   9.870
 2231POPC   PO431092  11.563  41.682   9.539
 2231POPC   GL131093  11.423  41.484   9.155
 2231POPC   GL231094  11.096  41.361   9.203
 2231POPC   C1A31095  11.336  41.456   8.718
 2231POPC   D2A31096  11.249  41.771   8.391
 2231POPC   C3A31097  11.433  41.689   7.985
 2231POPC   C4A31098  11.321  41.412   7.694
 2231POPC   C1B31099  10.857  41.543   8.824
 2231POPC   C2B31100  10.748  41.641   8.411
 2231POPC   C3B31101  10.911  41.589   8.003
 2231POPC   C4B31102  10.831  41.357   7.614
 2232POPC   NC331103  39.618  21.213   9.516
 2232POPC   PO431104  38.938  21.293   9.483
 2232POPC   GL131105  39.250  21.337   9.191
 2232POPC   GL231106  39.275  21.661   9.161
 2232POPC   C1A31107  39.223  21.268   8.752
 2232POPC   D2A31108  38.959  21.312   8.370
 2232POPC   C3A31109  39.282  21.256   8.052
 2232POPC   C4A31110  39.482  21.310   7.646
 2232POPC   C1B31111  39.041  21.747   8.805
 2232POPC   C2B31112  38.900  21.847   8.394
 2232POPC   C3B31113  38.995  21.699   7.997
 2232POPC   C4B31114  38.935  21.418   7.705
 2233POPC   NC331115  10.640  44.464   9.579
 2233POPC   PO431116  10.107  44.722   9.440
 2233POPC   GL131117  10.388  44.457   9.121
 2233POPC   GL231118  10.761  44.365   9.087
 2233POPC   C1A31119  10.332  44.499   8.675
 2233POPC   D2A31120  10.107  44.707   8.313
 2233POPC   C3A31121  10.198  44.749   7.847
 2233POPC   C4A31122  10.545  44.643   7.583
 2233POPC   C1B31123  10.789  44.677   8.747
 2233POPC   C2B31124  10.658  44.612   8.301
 2233POPC   C3B31125  10.899  44.503   7.947
 2233POPC   C4B31126  11.099  44.668   7.580
 2234POPC   NC331127   8.838   8.503   9.544
 2234POPC   PO431128   9.088   9.100   9.653
 2234POPC   GL131129   9.082   8.859   9.246
 2234POPC   GL231130   8.785   8.737   9.083
 2234POPC   C1A31131   9.175   8.809   8.796
 2234POPC   D2A31132   9.049   8.635   8.415
 2234POPC   C3A31133   9.182   8.947   8.129
 2234POPC   C4A31134   9.389   9.083   7.762
 2234POPC   C1B31135   8.737   9.160   8.907
 2234POPC   C2B31136   8.774   9.423   8.523
 2234POPC   C3B31137   8.695   9.380   8.070
 2234POPC   C4B31138   8.815   9.033   7.780
 2235POPC   NC331139   7.317   1.189   9.454
 2235POPC   PO431140   7.906   0.868   9.471
 2235POPC   GL131141   7.739   1.143   9.114
 2235POPC   GL231142   7.427   1.392   9.013
 2235POPC   C1A31143   7.703   1.138   8.674
 2235POPC   D2A31144   7.404   1.210   8.356
 2235POPC   C3A31145   7.586   1.252   7.950
 2235POPC   C4A31146   7.571   0.987   7.568
 2235POPC   C1B31147   7.222   1.025   8.834
 2235POPC   C2B31148   7.118   0.783   8.492
 2235POPC   C3B31149   7.082   0.744   8.068
 2235POPC   C4B31150   7.126   1.093   7.803
 2236POPC   NC331151  33.361  32.419   9.590
 2236POPC   PO431152  33.980  32.165   9.548
 2236POPC   GL131153  33.740  32.184   9.192
 2236POPC   GL231154  33.910  31.934   9.056
 2236POPC   C1A31155  33.629  32.205   8.734
 2236POPC   D2A31156  33.536  31.985   8.338
 2236POPC   C3A31157  33.625  32.221   7.926
 2236POPC   C4A31158  33.701  32.632   7.713
 2236POPC   C1B31159  34.147  32.273   8.817
 2236POPC   C2B31160  34.304  32.228   8.401
 2236POPC   C3B31161  34.145  32.092   7.994
 2236POPC   C4B31162  34.023  32.222   7.570
 2237POPC   NC331163  14.964  19.642   9.409
 2237POPC   PO431164  15.389  20.013   9.685
 2237POPC   GL131165  15.360  19.959   9.254
 2237POPC   GL231166  15.026  20.153   9.289
 2237POPC   C1A31167  15.290  19.765   8.846
 2237POPC   D2A31168  15.100  19.745   8.443
 2237POPC   C3A31169  15.377  19.694   8.095
 2237POPC   C4A31170  15.375  19.857   7.705
 2237POPC   C1B31171  15.075  20.235   8.868
 2237POPC   C2B31172  14.901  20.220   8.474
 2237POPC   C3B31173  15.066  20.099   8.067
 2237POPC   C4B31174  14.960  20.166   7.643
 2238POPC   NC331175  32.815  39.187   9.502
 2238POPC   PO431176  32.188  39.167   9.303
 2238POPC   GL131177  32.555  39.227   9.021
 2238POPC   GL231178  32.687  38.885   8.946
 2238POPC   C1A31179  32.526  39.361   8.577
 2238POPC   D2A31180  32.459  39.126   8.190
 2238POPC   C3A31181  32.392  39.350   7.816
 2238POPC   C4A31182  32.420  39.427   7.340
 2238POPC   C1B31183  32.301  38.914   8.659
 2238POPC   C2B31184  32.022  39.227   8.438
 2238POPC   C3B31185  31.908  39.300   7.972
 2238POPC   C4B31186  32.015  39.166   7.513
 2239POPC   NC331187   1.489   2.695   9.358
 2239POPC   PO431188   0.829   2.551   9.335
 2239POPC   GL131189   0.861   2.832   8.988
 2239POPC   GL231190   1.199   2.821   8.968
 2239POPC   C1A31191   0.921   2.835   8.556
 2239POPC   D2A31192   0.958   2.509   8.304
 2239POPC   C3A31193   1.070   2.634   7.931
 2239POPC   C4A31194   1.134   3.037   7.816
 2239POPC   C1B31195   1.450   2.717   8.607
 2239POPC   C2B31196   1.486   2.775   8.170
 2239POPC   C3B31197   1.626   2.977   7.772
 2239POPC   C4B31198   1.558   3.147   7.346
 2240POPC   NC331199  24.863  12.737   9.270
 2240POPC   PO431200  25.327  13.291   9.405
 2240POPC   GL131201  25.347  12.959   9.100
 2240POPC   GL231202  25.401  12.604   9.169
 2240POPC   C1A31203  25.544  12.932   8.711
 2240POPC   D2A31204  25.294  12.950   8.360
 2240POPC   C3A31205  25.461  13.147   8.027
 2240POPC   C4A31206  25.538  12.929   7.659
 2240POPC   C1B31207  25.185  12.559   8.740
 2240POPC   C2B31208  24.979  12.546   8.316
 2240POPC   C3B31209  25.135  12.736   7.905
 2240POPC   C4B31210  25.123  12.690   7.441
 2241POPC   NC331211   9.875  42.045   9.448
 2241POPC   PO431212   9.543  42.584   9.498
 2241POPC   GL131213   9.457  42.392   9.117
 2241POPC   GL231214   9.497  42.052   9.089
 2241POPC   C1A31215   9.610  42.372   8.713
 2241POPC   D2A31216   9.492  42.600   8.375
 2241POPC   C3A31217   9.597  42.421   7.999
 2241POPC   C4A31218   9.708  42.309   7.593
 2241POPC   C1B31219   9.857  41.934   8.788
 2241POPC   C2B31220   9.775  41.776   8.377
 2241POPC   C3B31221   9.802  41.936   7.952
 2241POPC   C4B31222  10.108  41.998   7.611
 2242POPC   NC331223   9.769  35.590   9.452
 2242POPC   PO431224  10.000  36.245   9.410
 2242POPC   GL131225   9.998  36.066   9.045
 2242POPC   GL231226   9.675  35.948   9.106
 2242POPC   C1A31227   9.899  36.144   8.614
 2242POPC   D2A31228   9.684  36.391   8.304
 2242POPC   C3A31229   9.844  36.350   7.939
 2242POPC   C4A31230   9.663  36.232   7.594
 2242POPC   C1B31231   9.507  35.813   8.759
 2242POPC   C2B31232   9.652  35.762   8.360
 2242POPC   C3B31233   9.595  35.881   7.973
 2242POPC   C4B31234   9.655  35.695   7.590
 2243POPC   NC331235  42.026   7.301   9.612
 2243POPC   PO431236  42.252   7.922   9.352
 2243POPC   GL131237  42.295   7.656   9.025
 2243POPC   GL231238  42.115   7.376   9.118
 2243POPC   C1A31239  42.485   7.642   8.629
 2243POPC   D2A31240  42.340   7.756   8.226
 2243POPC   C3A31241  42.541   7.600   7.884
 2243POPC   C4A31242  42.155   7.578   7.682
 2243POPC   C1B31243  42.286   7.148   8.775
 2243POPC   C2B31244  42.390   7.198   8.371
 2243POPC   C3B31245  42.160   7.279   8.076
 2243POPC   C4B31246  42.139   7.080   7.709
 2244POPC   NC331247  12.544  42.665   9.858
 2244POPC   PO431248  13.140  42.988   9.613
 2244POPC   GL131249  13.049  42.862   9.185
 2244POPC   GL231250  12.752  42.812   9.042
 2244POPC   C1A31251  13.095  43.058   8.749
 2244POPC   D2A31252  13.033  42.819   8.351
 2244POPC   C3A31253  13.003  43.070   7.966
 2244POPC   C4A31254  13.144  43.510   7.872
 2244POPC   C1B31255  12.607  42.922   8.628
 2244POPC   C2B31256  12.470  42.895   8.199
 2244POPC   C3B31257  12.535  43.012   7.752
 2244POPC   C4B31258  12.503  42.961   7.256
 2245POPC   NC331259  21.928  15.662   9.439
 2245POPC   PO431260  21.328  16.069   9.561
 2245POPC   GL131261  21.409  15.812   9.181
 2245POPC   GL231262  21.711  15.969   9.071
 2245POPC   C1A31263  21.131  15.694   8.813
 2245POPC   D2A31264  21.225  15.617   8.358
 2245POPC   C3A31265  21.109  15.912   7.994
 2245POPC   C4A31266  21.152  15.874   7.515
 2245POPC   C1B31267  21.592  15.968   8.639
 2245POPC   C2B31268  21.599  15.959   8.198
 2245POPC   C3B31269  21.580  16.010   7.763
 2245POPC   C4B31270  21.634  16.193   7.320
 2246POPC   NC331271  41.180  10.810   9.464
 2246POPC   PO431272  40.497  10.525   9.471
 2246POPC   GL131273  40.777  10.605   9.194
 2246POPC   GL231274  40.521  10.784   9.038
 2246POPC   C1A31275  40.994  10.602   8.832
 2246POPC   D2A31276  41.032  10.291   8.533
 2246POPC   C3A31277  41.020  10.438   8.137
 2246POPC   C4A31278  40.700  10.694   7.948
 2246POPC   C1B31279  40.536  10.492   8.670
 2246POPC   C2B31280  40.536  10.296   8.271
 2246POPC   C3B31281  40.433  10.279   7.827
 2246POPC   C4B31282  40.485  10.326   7.364
 2247POPC   NC331283  23.018   7.059   9.211
 2247POPC   PO431284  22.838   6.543   9.610
 2247POPC   GL131285  22.707   6.648   9.216
 2247POPC   GL231286  23.043   6.588   9.078
 2247POPC   C1A31287  22.636   6.661   8.781
 2247POPC   D2A31288  22.888   6.646   8.416
 2247POPC   C3A31289  22.833   6.898   8.103
 2247POPC   C4A31290  22.840   6.849   7.715
 2247POPC   C1B31291  23.298   6.639   8.712
 2247POPC   C2B31292  23.403   6.629   8.274
 2247POPC   C3B31293  23.153   6.489   7.951
 2247POPC   C4B31294  23.155   6.515   7.507
 2248POPC   NC331295  41.293  12.326   9.628
 2248POPC   PO431296  41.805  11.863   9.625
 2248POPC   GL131297  41.712  12.021   9.182
 2248POPC   GL231298  41.581  12.367   9.222
 2248POPC   C1A31299  41.410  12.018   8.808
 2248POPC   D2A31300  41.276  11.841   8.423
 2248POPC   C3A31301  41.657  11.806   8.168
 2248POPC   C4A31302  41.671  11.897   7.730
 2248POPC   C1B31303  41.688  12.462   8.816
 2248POPC   C2B31304  41.570  12.302   8.411
 2248POPC   C3B31305  41.371  12.213   8.036
 2248POPC   C4B31306  41.446  12.340   7.616
 2249POPC   NC331307  26.628   8.354   9.242
 2249POPC   PO431308  27.146   7.994   9.444
 2249POPC   GL131309  27.109   8.219   9.056
 2249POPC   GL231310  27.086   8.601   9.120
 2249POPC   C1A31311  26.976   7.995   8.673
 2249POPC   D2A31312  26.673   7.793   8.367
 2249POPC   C3A31313  26.749   8.046   8.001
 2249POPC   C4A31314  27.180   8.122   7.841
 2249POPC   C1B31315  26.882   8.557   8.708
 2249POPC   C2B31316  26.969   8.402   8.332
 2249POPC   C3B31317  26.904   8.544   7.965
 2249POPC   C4B31318  26.534   8.552   7.751
 2250POPC   NC331319  29.273  12.068   9.382
 2250POPC   PO431320  28.638  12.146   9.396
 2250POPC   GL131321  28.875  12.106   9.014
 2250POPC   GL231322  28.950  11.774   9.032
 2250POPC   C1A31323  29.194  12.174   8.659
 2250POPC   D2A31324  29.317  12.427   8.275
 2250POPC   C3A31325  29.272  12.218   7.853
 2250POPC   C4A31326  29.057  12.194   7.453
 2250POPC   C1B31327  29.031  11.695   8.631
 2250POPC   C2B31328  28.852  11.930   8.284
 2250POPC   C3B31329  28.786  11.992   7.856
 2250POPC   C4B31330  29.120  11.720   7.832
 2251POPC   NC331331  39.953  20.520   9.614
 2251POPC   PO431332  40.032  21.097   9.342
 2251POPC   GL131333  40.099  20.791   9.077
 2251POPC   GL231334  40.153  20.428   9.119
 2251POPC   C1A31335  40.102  20.707   8.667
 2251POPC   D2A31336  40.267  20.375   8.427
 2251POPC   C3A31337  40.114  20.513   8.028
 2251POPC   C4A31338  40.210  20.935   7.922
 2251POPC   C1B31339  39.862  20.277   8.758
 2251POPC   C2B31340  39.703  20.448   8.357
 2251POPC   C3B31341  39.653  20.312   7.907
 2251POPC   C4B31342  39.630  20.320   7.406
 2252POPC   NC331343  11.192  21.089   9.405
 2252POPC   PO431344  11.396  21.657   9.626
 2252POPC   GL131345  11.479  21.467   9.229
 2252POPC   GL231346  11.133  21.467   9.093
 2252POPC   C1A31347  11.510  21.347   8.785
 2252POPC   D2A31348  11.680  21.403   8.383
 2252POPC   C3A31349  11.436  21.388   8.015
 2252POPC   C4A31350  11.543  21.116   7.684
 2252POPC   C1B31351  10.920  21.512   8.749
 2252POPC   C2B31352  11.063  21.505   8.374
 2252POPC   C3B31353  10.971  21.751   8.041
 2252POPC   C4B31354  11.056  21.567   7.686
 2253POPC   NC331355   4.877  24.863   9.429
 2253POPC   PO431356   5.302  24.309   9.474
 2253POPC   GL131357   5.037  24.444   9.146
 2253POPC   GL231358   5.162  24.729   8.997
 2253POPC   C1A31359   4.789  24.342   8.777
 2253POPC   D2A31360   4.949  24.136   8.448
 2253POPC   C3A31361   4.967  24.320   8.098
 2253POPC   C4A31362   5.108  24.031   7.808
 2253POPC   C1B31363   5.090  24.688   8.551
 2253POPC   C2B31364   5.190  24.794   8.127
 2253POPC   C3B31365   5.447  24.913   7.777
 2253POPC   C4B31366   5.456  24.813   7.306
 2254POPC   NC331367  12.418  26.316   9.509
 2254POPC   PO431368  11.943  25.898   9.459
 2254POPC   GL131369  12.111  26.113   9.139
 2254POPC   GL231370  12.399  25.942   9.110
 2254POPC   C1A31371  11.985  26.071   8.726
 2254POPC   D2A31372  11.873  25.879   8.375
 2254POPC   C3A31373  11.978  26.092   8.024
 2254POPC   C4A31374  12.021  26.062   7.585
 2254POPC   C1B31375  12.493  26.185   8.774
 2254POPC   C2B31376  12.389  26.108   8.343
 2254POPC   C3B31377  12.465  26.166   7.896
 2254POPC   C4B31378  12.573  25.999   7.526
 2255POPC   NC331379  39.790  10.918   9.517
 2255POPC   PO431380  40.236  11.454   9.514
 2255POPC   GL131381  40.156  11.133   9.183
 2255POPC   GL231382  39.816  11.083   9.050
 2255POPC   C1A31383  40.199  11.056   8.748
 2255POPC   D2A31384  39.901  10.857   8.487
 2255POPC   C3A31385  39.828  11.129   8.137
 2255POPC   C4A31386  40.147  11.111   7.895
 2255POPC   C1B31387  39.967  11.513   8.890
 2255POPC   C2B31388  39.836  11.717   8.503
 2255POPC   C3B31389  39.812  11.670   8.042
 2255POPC   C4B31390  39.871  11.457   7.647
 2256POPC   NC331391  41.041   0.107   9.421
 2256POPC   PO431392  40.431   0.372   9.300
 2256POPC   GL131393  40.728   0.239   9.051
 2256POPC   GL231394  40.923   0.545   9.156
 2256POPC   C1A31395  40.648   0.101   8.660
 2256POPC   D2A31396  40.847   0.167   8.289
 2256POPC   C3A31397  40.595   0.226   7.974
 2256POPC   C4A31398  40.782   0.081   7.666
 2256POPC   C1B31399  40.668   0.682   8.792
 2256POPC   C2B31400  40.529   0.558   8.381
 2256POPC   C3B31401  40.626   0.730   7.985
 2256POPC   C4B31402  40.545   0.725   7.558
 2257POPC   NC331403  10.794   7.751   9.344
 2257POPC   PO431404  10.472   7.331   9.791
 2257POPC   GL131405  10.347   7.367   9.354
 2257POPC   GL231406  10.247   7.691   9.254
 2257POPC   C1A31407  10.446   7.361   8.894
 2257POPC   D2A31408  10.325   7.428   8.446
 2257POPC   C3A31409  10.588   7.228   8.118
 2257POPC   C4A31410  10.642   7.389   7.718
 2257POPC   C1B31411  10.145   7.768   8.816
 2257POPC   C2B31412  10.304   7.944   8.403
 2257POPC   C3B31413  10.262   7.782   7.981
 2257POPC   C4B31414  10.004   7.669   7.626
 2258POPC   NC331415  25.262   4.340   9.613
 2258POPC   PO431416  24.775   4.505   9.267
 2258POPC   GL131417  25.080   4.289   9.059
 2258POPC   GL231418  25.465   4.311   9.148
 2258POPC   C1A31419  24.967   4.256   8.628
 2258POPC   D2A31420  25.022   3.976   8.296
 2258POPC   C3A31421  25.092   4.120   7.888
 2258POPC   C4A31422  25.166   4.540   7.734
 2258POPC   C1B31423  25.489   4.210   8.733
 2258POPC   C2B31424  25.393   4.383   8.365
 2258POPC   C3B31425  25.547   4.354   7.999
 2258POPC   C4B31426  25.849   4.307   7.752
 2259POPC   NC331427  38.685  43.719   9.422
 2259POPC   PO431428  38.698  44.363   9.515
 2259POPC   GL131429  38.666  44.137   9.142
 2259POPC   GL231430  38.331  44.015   9.140
 2259POPC   C1A31431  38.652  43.914   8.750
 2259POPC   D2A31432  38.769  43.690   8.397
 2259POPC   C3A31433  38.518  43.847   8.056
 2259POPC   C4A31434  38.491  43.992   7.637
 2259POPC   C1B31435  38.115  43.888   8.761
 2259POPC   C2B31436  37.931  43.852   8.327
 2259POPC   C3B31437  38.029  43.761   7.856
 2259POPC   C4B31438  38.138  43.722   7.377
 2260POPC   NC331439  43.971  21.799   9.431
 2260POPC   PO431440  44.584  22.150   9.645
 2260POPC   GL131441  44.758  22.380   9.279
 2260POPC   GL231442  44.729  22.076   9.102
 2260POPC   C1A31443  44.769  22.492   8.803
 2260POPC   D2A31444  44.562  22.453   8.387
 2260POPC   C3A31445  44.629  22.155   8.027
 2260POPC   C4A31446  44.862  22.349   7.691
 2260POPC   C1B31447  44.389  22.132   8.791
 2260POPC   C2B31448  44.189  21.960   8.428
 2260POPC   C3B31449  44.200  21.842   8.019
 2260POPC   C4B31450  44.350  21.878   7.648
 2261POPC   NC331451  10.075  40.230   9.693
 2261POPC   PO431452   9.414  40.300   9.458
 2261POPC   GL131453   9.711  40.033   9.236
 2261POPC   GL231454   9.901  40.289   9.051
 2261POPC   C1A31455   9.818  39.860   8.808
 2261POPC   D2A31456   9.892  40.106   8.424
 2261POPC   C3A31457   9.948  39.928   8.006
 2261POPC   C4A31458   9.702  39.917   7.612
 2261POPC   C1B31459   9.532  40.307   8.814
 2261POPC   C2B31460   9.407  40.334   8.426
 2261POPC   C3B31461   9.514  40.229   8.049
 2261POPC   C4B31462   9.318  40.237   7.707
 2262POPC   NC331463  23.946  24.072   9.327
 2262POPC   PO431464  23.595  23.521   9.463
 2262POPC   GL131465  23.635  23.706   9.120
 2262POPC   GL231466  23.980  23.616   9.080
 2262POPC   C1A31467  23.568  23.917   8.756
 2262POPC   D2A31468  23.429  23.716   8.409
 2262POPC   C3A31469  23.583  23.915   8.083
 2262POPC   C4A31470  23.511  23.910   7.693
 2262POPC   C1B31471  23.807  23.462   8.676
 2262POPC   C2B31472  23.881  23.528   8.248
 2262POPC   C3B31473  24.088  23.874   8.006
 2262POPC   C4B31474  23.983  23.994   7.565
 2263POPC   NC331475  40.539  24.021   9.535
 2263POPC   PO431476  40.755  23.337   9.473
 2263POPC   GL131477  40.530  23.625   9.194
 2263POPC   GL231478  40.830  23.768   9.062
 2263POPC   C1A31479  40.366  23.869   8.827
 2263POPC   D2A31480  40.496  23.993   8.408
 2263POPC   C3A31481  40.605  23.688   8.136
 2263POPC   C4A31482  40.479  23.850   7.766
 2263POPC   C1B31483  41.032  23.396   8.856
 2263POPC   C2B31484  41.139  23.348   8.416
 2263POPC   C3B31485  41.123  23.480   8.007
 2263POPC   C4B31486  40.980  23.800   7.776
 2264POPC   NC331487  17.320  13.284   9.441
 2264POPC   PO431488  17.667  12.679   9.419
 2264POPC   GL131489  17.750  12.890   9.008
 2264POPC   GL231490  17.699  13.234   9.052
 2264POPC   C1A31491  17.693  12.890   8.529
 2264POPC   D2A31492  17.434  12.560   8.275
 2264POPC   C3A31493  17.678  12.460   7.924
 2264POPC   C4A31494  17.558  12.702   7.611
 2264POPC   C1B31495  17.333  13.165   8.802
 2264POPC   C2B31496  17.212  13.025   8.415
 2264POPC   C3B31497  17.448  13.022   8.049
 2264POPC   C4B31498  17.301  13.143   7.676
 2265POPC   NC331499  20.944  10.749   9.581
 2265POPC   PO431500  21.551  10.646   9.676
 2265POPC   GL131501  21.319  10.625   9.257
 2265POPC   GL231502  21.117  10.298   9.295
 2265POPC   C1A31503  21.485  10.674   8.828
 2265POPC   D2A31504  21.553  10.839   8.447
 2265POPC   C3A31505  21.436  10.631   8.110
 2265POPC   C4A31506  21.272  10.621   7.716
 2265POPC   C1B31507  21.079  10.390   8.851
 2265POPC   C2B31508  21.250  10.297   8.459
 2265POPC   C3B31509  21.048  10.323   8.062
 2265POPC   C4B31510  21.162  10.107   7.720
 2266POPC   NC331511  42.258  40.456   9.374
 2266POPC   PO431512  42.491  39.835   9.509
 2266POPC   GL131513  42.243  39.968   9.156
 2266POPC   GL231514  42.044  39.681   9.057
 2266POPC   C1A31515  42.312  40.080   8.697
 2266POPC   D2A31516  42.030  40.276   8.343
 2266POPC   C3A31517  42.203  40.170   7.917
 2266POPC   C4A31518  42.626  39.974   7.819
 2266POPC   C1B31519  42.492  39.605   8.877
 2266POPC   C2B31520  42.659  39.582   8.424
 2266POPC   C3B31521  42.557  39.432   7.974
 2266POPC   C4B31522  42.206  39.668   7.796
 2267POPC   NC331523   6.441  31.627   9.359
 2267POPC   PO431524   7.067  31.843   9.449
 2267POPC   GL131525   6.831  31.730   9.060
 2267POPC   GL231526   6.845  31.381   9.069
 2267POPC   C1A31527   6.490  31.518   8.735
 2267POPC   D2A31528   6.349  31.543   8.278
 2267POPC   C3A31529   6.608  31.477   7.890
 2267POPC   C4A31530   6.815  31.706   7.508
 2267POPC   C1B31531   7.031  31.533   8.645
 2267POPC   C2B31532   6.997  31.607   8.187
 2267POPC   C3B31533   7.114  31.391   7.793
 2267POPC   C4B31534   7.210  31.324   7.363
 2268POPC   NC331535  34.680   3.918   9.587
 2268POPC   PO431536  34.921   4.492   9.466
 2268POPC   GL131537  34.650   4.263   9.151
 2268POPC   GL231538  34.307   4.342   9.118
 2268POPC   C1A31539  34.633   4.394   8.693
 2268POPC   D2A31540  35.012   4.442   8.414
 2268POPC   C3A31541  34.896   4.628   8.018
 2268POPC   C4A31542  34.487   4.559   7.790
 2268POPC   C1B31543  34.320   4.026   8.765
 2268POPC   C2B31544  34.548   3.993   8.358
 2268POPC   C3B31545  34.489   4.040   7.902
 2268POPC   C4B31546  34.164   4.134   7.586
 2269POPC   NC331547  23.638  32.350   9.554
 2269POPC   PO431548  23.704  31.750   9.470
 2269POPC   GL131549  23.467  31.895   9.156
 2269POPC   GL231550  23.527  32.207   9.091
 2269POPC   C1A31551  23.532  31.894   8.698
 2269POPC   D2A31552  23.532  32.214   8.367
 2269POPC   C3A31553  23.565  32.078   7.984
 2269POPC   C4A31554  23.707  32.264   7.625
 2269POPC   C1B31555  23.392  32.466   8.773
 2269POPC   C2B31556  23.150  32.580   8.387
 2269POPC   C3B31557  23.258  32.572   7.983
 2269POPC   C4B31558  23.353  32.654   7.556
 2270POPC   NC331559  42.700  43.143   9.863
 2270POPC   PO431560  42.163  43.214   9.489
 2270POPC   GL131561  42.308  43.085   9.098
 2270POPC   GL231562  42.097  42.798   9.054
 2270POPC   C1A31563  42.345  43.286   8.682
 2270POPC   D2A31564  42.110  43.290   8.290
 2270POPC   C3A31565  42.316  43.303   7.883
 2270POPC   C4A31566  42.675  43.048   7.717
 2270POPC   C1B31567  42.044  42.891   8.663
 2270POPC   C2B31568  42.280  42.791   8.347
 2270POPC   C3B31569  42.159  42.837   7.957
 2270POPC   C4B31570  42.104  42.974   7.495
 2271POPC   NC331571  22.076  26.805   9.637
 2271POPC   PO431572  21.391  26.848   9.597
 2271POPC   GL131573  21.377  26.735   9.199
 2271POPC   GL231574  21.725  26.801   9.190
 2271POPC   C1A31575  21.293  26.900   8.807
 2271POPC   D2A31576  21.237  26.693   8.431
 2271POPC   C3A31577  21.024  26.974   8.169
 2271POPC   C4A31578  21.220  26.901   7.779
 2271POPC   C1B31579  21.858  26.937   8.789
 2271POPC   C2B31580  21.683  27.054   8.399
 2271POPC   C3B31581  21.716  26.916   7.980
 2271POPC   C4B31582  21.639  27.098   7.577
 2272POPC   NC331583  31.392  34.965   9.811
 2272POPC   PO431584  31.251  34.376   9.507
 2272POPC   GL131585  31.455  34.442   9.124
 2272POPC   GL231586  31.507  34.760   9.123
 2272POPC   C1A31587  31.656  34.345   8.731
 2272POPC   D2A31588  31.438  34.392   8.336
 2272POPC   C3A31589  31.586  34.281   7.945
 2272POPC   C4A31590  31.719  34.471   7.556
 2272POPC   C1B31591  31.399  34.794   8.728
 2272POPC   C2B31592  31.195  34.828   8.352
 2272POPC   C3B31593  31.383  34.771   7.960
 2272POPC   C4B31594  31.318  34.812   7.530
 2273POPC   NC331595  27.041  42.826   9.436
 2273POPC   PO431596  26.454  43.175   9.454
 2273POPC   GL131597  26.720  43.058   9.100
 2273POPC   GL231598  26.974  43.295   9.170
 2273POPC   C1A31599  27.108  42.962   8.831
 2273POPC   D2A31600  27.122  43.040   8.452
 2273POPC   C3A31601  26.888  42.917   8.116
 2273POPC   C4A31602  27.069  42.783   7.721
 2273POPC   C1B31603  26.879  43.433   8.752
 2273POPC   C2B31604  26.838  43.433   8.313
 2273POPC   C3B31605  26.734  43.372   7.904
 2273POPC   C4B31606  26.941  43.527   7.599
 2274POPC   NC331607  21.443  14.160   9.716
 2274POPC   PO431608  22.226  14.266   9.545
 2274POPC   GL131609  22.147  14.294   9.135
 2274POPC   GL231610  21.879  14.538   9.074
 2274POPC   C1A31611  22.488  14.449   8.867
 2274POPC   D2A31612  22.489  14.647   8.452
 2274POPC   C3A31613  22.443  14.444   8.034
 2274POPC   C4A31614  22.277  14.459   7.583
 2274POPC   C1B31615  22.028  14.485   8.670
 2274POPC   C2B31616  21.984  14.160   8.398
 2274POPC   C3B31617  21.970  14.278   8.015
 2274POPC   C4B31618  21.843  14.190   7.626
 2275POPC   NC331619  32.002  21.051   9.679
 2275POPC   PO431620  32.704  21.225   9.645
 2275POPC   GL131621  32.360  21.249   9.354
 2275POPC   GL231622  32.544  21.075   9.131
 2275POPC   C1A31623  32.175  21.383   8.938
 2275POPC   D2A31624  32.415  21.303   8.504
 2275POPC   C3A31625  32.325  21.531   8.126
 2275POPC   C4A31626  32.149  21.426   7.729
 2275POPC   C1B31627  32.303  20.922   8.823
 2275POPC   C2B31628  32.253  20.753   8.452
 2275POPC   C3B31629  32.494  20.793   8.120
 2275POPC   C4B31630  32.301  20.924   7.759
 2276POPC   NC331631   8.348   5.503   9.408
 2276POPC   PO431632   7.909   4.895   9.472
 2276POPC   GL131633   8.169   5.062   9.133
 2276POPC   GL231634   7.998   5.334   9.065
 2276POPC   C1A31635   8.474   5.106   8.803
 2276POPC   D2A31636   8.318   5.031   8.387
 2276POPC   C3A31637   8.387   5.235   8.027
 2276POPC   C4A31638   8.324   5.140   7.622
 2276POPC   C1B31639   7.871   5.235   8.670
 2276POPC   C2B31640   7.982   5.394   8.275
 2276POPC   C3B31641   7.891   5.109   7.979
 2276POPC   C4B31642   7.589   5.252   7.714
 2277POPC   NC331643  24.145  13.389   9.406
 2277POPC   PO431644  24.602  13.846   9.686
 2277POPC   GL131645  24.493  13.754   9.244
 2277POPC   GL231646  24.629  13.431   9.150
 2277POPC   C1A31647  24.526  13.808   8.788
 2277POPC   D2A31648  24.528  13.953   8.364
 2277POPC   C3A31649  24.709  13.652   8.078
 2277POPC   C4A31650  24.707  13.689   7.673
 2277POPC   C1B31651  24.378  13.322   8.774
 2277POPC   C2B31652  24.326  13.490   8.358
 2277POPC   C3B31653  24.220  13.524   7.893
 2277POPC   C4B31654  24.321  13.485   7.427
 2278POPC   NC331655  24.165  16.608   9.580
 2278POPC   PO431656  24.850  16.579   9.497
 2278POPC   GL131657  24.652  16.741   9.164
 2278POPC   GL231658  24.367  16.882   9.205
 2278POPC   C1A31659  24.699  16.861   8.763
 2278POPC   D2A31660  24.705  16.600   8.427
 2278POPC   C3A31661  24.588  16.869   8.127
 2278POPC   C4A31662  24.733  16.867   7.704
 2278POPC   C1B31663  24.227  17.044   8.839
 2278POPC   C2B31664  24.082  16.965   8.425
 2278POPC   C3B31665  24.032  17.199   8.062
 2278POPC   C4B31666  24.354  17.182   7.792
 2279POPC   NC331667  32.416   3.740   9.483
 2279POPC   PO431668  31.877   3.439   9.477
 2279POPC   GL131669  32.149   3.481   9.145
 2279POPC   GL231670  32.063   3.841   9.119
 2279POPC   C1A31671  32.413   3.645   8.789
 2279POPC   D2A31672  32.258   3.541   8.372
 2279POPC   C3A31673  32.399   3.726   8.014
 2279POPC   C4A31674  32.425   3.533   7.633
 2279POPC   C1B31675  31.919   3.675   8.730
 2279POPC   C2B31676  31.728   3.399   8.440
 2279POPC   C3B31677  31.903   3.420   8.016
 2279POPC   C4B31678  32.028   3.149   7.678
 2280POPC   NC331679  38.177  43.311   9.442
 2280POPC   PO431680  37.607  43.028   9.339
 2280POPC   GL131681  37.768  43.244   9.036
 2280POPC   GL231682  38.041  43.443   8.993
 2280POPC   C1A31683  37.609  43.245   8.654
 2280POPC   D2A31684  37.599  42.961   8.392
 2280POPC   C3A31685  37.496  43.131   8.049
 2280POPC   C4A31686  37.527  42.998   7.691
 2280POPC   C1B31687  38.117  43.324   8.616
 2280POPC   C2B31688  37.941  43.330   8.240
 2280POPC   C3B31689  37.986  43.140   7.874
 2280POPC   C4B31690  37.860  43.353   7.543
 2281POPC   NC331691  41.853  36.168   9.662
 2281POPC   PO431692  41.558  35.622   9.368
 2281POPC   GL131693  41.647  35.905   9.044
 2281POPC   GL231694  41.599  36.249   9.198
 2281POPC   C1A31695  41.547  35.835   8.606
 2281POPC   D2A31696  41.165  35.861   8.343
 2281POPC   C3A31697  41.276  35.983   7.929
 2281POPC   C4A31698  41.697  36.062   7.866
 2281POPC   C1B31699  41.462  36.346   8.768
 2281POPC   C2B31700  41.505  36.286   8.322
 2281POPC   C3B31701  41.467  36.524   7.943
 2281POPC   C4B31702  41.347  36.391   7.534
 2282POPC   NC331703  12.179  13.979   9.636
 2282POPC   PO431704  12.277  13.257   9.616
 2282POPC   GL131705  12.420  13.396   9.184
 2282POPC   GL231706  12.170  13.651   9.173
 2282POPC   C1A31707  12.381  13.525   8.715
 2282POPC   D2A31708  12.150  13.647   8.354
 2282POPC   C3A31709  12.269  13.525   7.927
 2282POPC   C4A31710  12.224  13.780   7.531
 2282POPC   C1B31711  11.952  13.330   8.875
 2282POPC   C2B31712  11.787  13.291   8.459
 2282POPC   C3B31713  11.722  13.529   8.080
 2282POPC   C4B31714  11.807  13.528   7.655
 2283POPC   NC331715  38.046  14.942   9.403
 2283POPC   PO431716  37.460  14.827   9.632
 2283POPC   GL131717  37.696  15.253   9.265
 2283POPC   GL231718  38.018  15.309   9.049
 2283POPC   C1A31719  37.624  15.359   8.785
 2283POPC   D2A31720  37.914  15.339   8.443
 2283POPC   C3A31721  37.781  15.394   8.014
 2283POPC   C4A31722  37.871  15.235   7.600
 2283POPC   C1B31723  37.992  14.923   8.747
 2283POPC   C2B31724  37.906  14.826   8.290
 2283POPC   C3B31725  38.168  14.908   7.908
 2283POPC   C4B31726  38.176  14.850   7.447
 2284POPC   NC331727  19.068  19.276   9.427
 2284POPC   PO431728  19.498  18.906   9.609
 2284POPC   GL131729  19.275  18.860   9.206
 2284POPC   GL231730  19.293  18.532   9.216
 2284POPC   C1A31731  19.143  19.006   8.758
 2284POPC   D2A31732  19.045  19.337   8.429
 2284POPC   C3A31733  18.830  19.253   8.045
 2284POPC   C4A31734  18.751  19.130   7.647
 2284POPC   C1B31735  19.388  18.539   8.792
 2284POPC   C2B31736  19.360  18.642   8.396
 2284POPC   C3B31737  19.226  18.941   8.109
 2284POPC   C4B31738  19.136  18.803   7.700
 2285POPC   NC331739  35.854  18.421   9.391
 2285POPC   PO431740  36.452  18.200   9.536
 2285POPC   GL131741  36.245  18.103   9.173
 2285POPC   GL231742  36.260  18.434   9.099
 2285POPC   C1A31743  36.295  17.980   8.741
 2285POPC   D2A31744  36.366  17.888   8.319
 2285POPC   C3A31745  36.121  18.028   8.014
 2285POPC   C4A31746  35.954  18.010   7.646
 2285POPC   C1B31747  36.086  18.437   8.715
 2285POPC   C2B31748  36.308  18.389   8.353
 2285POPC   C3B31749  36.223  18.527   7.925
 2285POPC   C4B31750  36.004  18.499   7.552
 2286POPC   NC331751   7.610  20.685   9.490
 2286POPC   PO431752   7.035  21.004   9.337
 2286POPC   GL131753   7.283  20.714   9.093
 2286POPC   GL231754   7.509  21.003   9.032
 2286POPC   C1A31755   7.580  20.553   8.776
 2286POPC   D2A31756   7.681  20.682   8.354
 2286POPC   C3A31757   7.354  20.535   8.096
 2286POPC   C4A31758   7.234  20.379   7.718
 2286POPC   C1B31759   7.270  20.953   8.628
 2286POPC   C2B31760   7.186  21.022   8.182
 2286POPC   C3B31761   7.467  20.944   7.819
 2286POPC   C4B31762   7.420  20.741   7.415
 2287POPC   NC331763  39.107  25.850   9.510
 2287POPC   PO431764  39.500  26.309   9.390
 2287POPC   GL131765  39.256  26.158   9.073
 2287POPC   GL231766  38.975  25.938   9.040
 2287POPC   C1A31767  39.163  26.290   8.676
 2287POPC   D2A31768  39.414  26.289   8.320
 2287POPC   C3A31769  39.286  26.204   7.909
 2287POPC   C4A31770  39.667  26.248   7.701
 2287POPC   C1B31771  39.167  25.779   8.692
 2287POPC   C2B31772  39.110  25.871   8.270
 2287POPC   C3B31773  39.310  25.700   7.902
 2287POPC   C4B31774  39.015  25.660   7.583
 2288POPC   NC331775  34.927  43.485   9.405
 2288POPC   PO431776  34.365  43.543   9.746
 2288POPC   GL131777  34.478  43.247   9.337
 2288POPC   GL231778  34.254  42.976   9.145
 2288POPC   C1A31779  34.515  43.293   8.867
 2288POPC   D2A31780  34.306  43.074   8.521
 2288POPC   C3A31781  34.515  43.093   8.120
 2288POPC   C4A31782  34.419  43.217   7.709
 2288POPC   C1B31783  34.553  42.719   8.852
 2288POPC   C2B31784  34.694  42.494   8.461
 2288POPC   C3B31785  34.712  42.625   8.030
 2288POPC   C4B31786  34.984  42.898   7.846
 2289POPC   NC331787  37.917  16.713   9.532
 2289POPC   PO431788  37.244  16.776   9.341
 2289POPC   GL131789  37.577  16.624   9.128
 2289POPC   GL231790  37.766  16.933   9.090
 2289POPC   C1A31791  37.513  16.534   8.698
 2289POPC   D2A31792  37.614  16.299   8.343
 2289POPC   C3A31793  37.660  16.505   7.941
 2289POPC   C4A31794  37.433  16.517   7.574
 2289POPC   C1B31795  37.981  16.772   8.760
 2289POPC   C2B31796  37.871  16.739   8.339
 2289POPC   C3B31797  38.071  16.844   7.958
 2289POPC   C4B31798  37.793  16.880   7.594
 2290POPC   NC331799  13.587  37.399   9.501
 2290POPC   PO431800  14.149  37.787   9.464
 2290POPC   GL131801  13.839  37.643   9.111
 2290POPC   GL231802  13.450  37.600   9.062
 2290POPC   C1A31803  13.759  37.811   8.697
 2290POPC   D2A31804  13.657  37.642   8.305
 2290POPC   C3A31805  13.361  37.787   8.054
 2290POPC   C4A31806  13.593  37.858   7.678
 2290POPC   C1B31807  13.482  37.375   8.697
 2290POPC   C2B31808  13.270  37.288   8.313
 2290POPC   C3B31809  13.361  37.293   7.863
 2290POPC   C4B31810  13.155  37.575   7.564
 2291POPC   NC331811  36.699  33.235   9.457
 2291POPC   PO431812  37.352  32.833   9.482
 2291POPC   GL131813  36.942  32.780   9.267
 2291POPC   GL231814  36.959  33.090   9.061
 2291POPC   C1A31815  36.713  32.698   8.872
 2291POPC   D2A31816  36.882  32.906   8.523
 2291POPC   C3A31817  36.837  32.757   8.106
 2291POPC   C4A31818  36.721  32.927   7.672
 2291POPC   C1B31819  37.037  33.374   8.746
 2291POPC   C2B31820  36.882  33.431   8.380
 2291POPC   C3B31821  36.784  33.264   8.039
 2291POPC   C4B31822  36.933  33.401   7.644
 2292POPC   NC331823  42.190   1.250   9.621
 2292POPC   PO431824  42.633   0.816   9.463
 2292POPC   GL131825  42.453   1.069   9.129
 2292POPC   GL231826  42.607   1.376   9.091
 2292POPC   C1A31827  42.385   0.923   8.684
 2292POPC   D2A31828  42.456   1.133   8.289
 2292POPC   C3A31829  42.402   0.973   7.874
 2292POPC   C4A31830  42.565   1.308   7.719
 2292POPC   C1B31831  42.412   1.444   8.732
 2292POPC   C2B31832  42.263   1.611   8.383
 2292POPC   C3B31833  42.179   1.509   8.001
 2292POPC   C4B31834  42.321   1.768   7.692
 2293POPC   NC331835   3.865  13.001   9.342
 2293POPC   PO431836   4.515  12.586   9.464
 2293POPC   GL131837   4.265  12.738   9.128
 2293POPC   GL231838   4.404  13.054   9.157
 2293POPC   C1A31839   4.102  12.870   8.699
 2293POPC   D2A31840   4.256  12.841   8.276
 2293POPC   C3A31841   4.038  12.887   7.893
 2293POPC   C4A31842   4.167  12.849   7.467
 2293POPC   C1B31843   4.424  13.248   8.765
 2293POPC   C2B31844   4.604  13.252   8.348
 2293POPC   C3B31845   4.496  13.146   7.941
 2293POPC   C4B31846   4.274  13.353   7.630
 2294POPC   NC331847  44.602  20.185   9.573
 2294POPC   PO431848  44.959  19.585   9.505
 2294POPC   GL131849  44.734  19.835   9.171
 2294POPC   GL231850  44.966  19.589   9.011
 2294POPC   C1A31851  44.510  20.097   8.808
 2294POPC   D2A31852  44.446  19.924   8.351
 2294POPC   C3A31853  44.454  20.143   7.968
 2294POPC   C4A31854  44.527  20.022   7.523
 2294POPC   C1B31855  44.792  19.694   8.667
 2294POPC   C2B31856  44.951  19.746   8.299
 2294POPC   C3B31857  44.819  19.801   7.910
 2294POPC   C4B31858  44.947  19.601   7.574
 2295POPC   NC331859  22.705  19.414   9.533
 2295POPC   PO431860  22.730  18.781   9.553
 2295POPC   GL131861  22.837  19.009   9.182
 2295POPC   GL231862  22.872  18.669   9.037
 2295POPC   C1A31863  22.815  19.092   8.733
 2295POPC   D2A31864  22.466  19.075   8.447
 2295POPC   C3A31865  22.585  19.069   8.019
 2295POPC   C4A31866  22.939  19.068   7.744
 2295POPC   C1B31867  22.636  18.613   8.658
 2295POPC   C2B31868  22.870  18.732   8.288
 2295POPC   C3B31869  23.094  18.618   7.908
 2295POPC   C4B31870  23.098  18.593   7.467
 2296POPC   NC331871   3.576  15.267   9.618
 2296POPC   PO431872   3.124  14.829   9.395
 2296POPC   GL131873   3.560  14.902   9.180
 2296POPC   GL231874   3.646  15.276   9.127
 2296POPC   C1A31875   3.581  15.000   8.710
 2296POPC   D2A31876   3.286  15.146   8.392
 2296POPC   C3A31877   3.398  15.217   7.954
 2296POPC   C4A31878   3.579  14.957   7.652
 2296POPC   C1B31879   3.862  15.428   8.783
 2296POPC   C2B31880   4.016  15.155   8.456
 2296POPC   C3B31881   3.914  15.099   8.019
 2296POPC   C4B31882   3.903  15.336   7.642
 2297POPC   NC331883  11.082  12.536   9.434
 2297POPC   PO431884  11.427  11.886   9.503
 2297POPC   GL131885  11.382  11.940   9.096
 2297POPC   GL231886  11.700  11.875   9.012
 2297POPC   C1A31887  11.293  12.045   8.672
 2297POPC   D2A31888  11.080  11.799   8.353
 2297POPC   C3A31889  11.065  12.003   7.965
 2297POPC   C4A31890  11.263  12.327   7.706
 2297POPC   C1B31891  11.817  11.738   8.603
 2297POPC   C2B31892  11.807  11.800   8.159
 2297POPC   C3B31893  11.513  11.829   7.799
 2297POPC   C4B31894  11.573  11.996   7.353
 2298POPC   NC331895   5.122  41.570   9.664
 2298POPC   PO431896   4.522  41.357   9.664
 2298POPC   GL131897   4.874  41.323   9.254
 2298POPC   GL231898   5.122  41.571   9.156
 2298POPC   C1A31899   4.875  41.457   8.736
 2298POPC   D2A31900   5.010  41.640   8.315
 2298POPC   C3A31901   4.748  41.800   8.004
 2298POPC   C4A31902   4.650  41.482   7.672
 2298POPC   C1B31903   5.332  41.270   8.908
 2298POPC   C2B31904   5.307  41.266   8.501
 2298POPC   C3B31905   5.245  41.216   8.091
 2298POPC   C4B31906   5.150  41.541   7.783
 2299POPC   NC331907  30.982  26.707   9.579
 2299POPC   PO431908  30.341  26.989   9.513
 2299POPC   GL131909  30.572  26.702   9.243
 2299POPC   GL231910  30.370  26.407   9.207
 2299POPC   C1A31911  30.782  26.764   8.851
 2299POPC   D2A31912  30.575  26.822   8.451
 2299POPC   C3A31913  30.792  27.005   8.127
 2299POPC   C4A31914  30.688  26.949   7.723
 2299POPC   C1B31915  30.403  26.440   8.763
 2299POPC   C2B31916  30.632  26.327   8.376
 2299POPC   C3B31917  30.655  26.511   7.991
 2299POPC   C4B31918  30.411  26.550   7.612
 2300POPC   NC331919  43.340  34.296   9.554
 2300POPC   PO431920  43.167  33.640   9.556
 2300POPC   GL131921  43.347  33.780   9.176
 2300POPC   GL231922  43.061  33.920   9.106
 2300POPC   C1A31923  43.393  33.588   8.763
 2300POPC   D2A31924  43.222  33.517   8.337
 2300POPC   C3A31925  43.360  33.689   7.903
 2300POPC   C4A31926  43.327  33.470   7.448
 2300POPC   C1B31927  43.130  34.034   8.687
 2300POPC   C2B31928  42.893  33.906   8.332
 2300POPC   C3B31929  42.869  33.649   7.966
 2300POPC   C4B31930  42.944  33.754   7.567
 2301POPC   NC331931  24.328  21.071   9.618
 2301POPC   PO431932  24.834  21.425   9.371
 2301POPC   GL131933  24.500  21.559   9.105
 2301POPC   GL231934  24.279  21.260   9.102
 2301POPC   C1A31935  24.684  21.764   8.714
 2301POPC   D2A31936  24.847  21.857   8.321
 2301POPC   C3A31937  24.607  21.563   8.103
 2301POPC   C4A31938  24.347  21.367   7.809
 2301POPC   C1B31939  24.612  21.232   8.742
 2301POPC   C2B31940  24.695  21.073   8.307
 2301POPC   C3B31941  24.522  20.877   7.925
 2301POPC   C4B31942  24.521  21.008   7.464
 2302POPC   NC331943  16.570  41.857   9.492
 2302POPC   PO431944  17.074  41.481   9.564
 2302POPC   GL131945  16.828  41.314   9.220
 2302POPC   GL231946  16.555  41.516   9.109
 2302POPC   C1A31947  16.898  41.348   8.761
 2302POPC   D2A31948  16.727  41.570   8.422
 2302POPC   C3A31949  16.892  41.495   8.045
 2302POPC   C4A31950  16.808  41.756   7.701
 2302POPC   C1B31951  16.331  41.606   8.735
 2302POPC   C2B31952  16.169  41.717   8.365
 2302POPC   C3B31953  16.398  41.661   8.015
 2302POPC   C4B31954  16.548  41.319   7.733
 2303POPC   NC331955   2.386  32.505   9.409
 2303POPC   PO431956   2.468  33.144   9.569
 2303POPC   GL131957   2.499  32.954   9.193
 2303POPC   GL231958   2.800  32.971   9.170
 2303POPC   C1A31959   2.400  32.901   8.763
 2303POPC   D2A31960   2.472  32.714   8.375
 2303POPC   C3A31961   2.409  33.015   8.056
 2303POPC   C4A31962   2.573  32.822   7.735
 2303POPC   C1B31963   2.773  33.234   8.842
 2303POPC   C2B31964   2.745  33.172   8.418
 2303POPC   C3B31965   2.851  33.260   7.988
 2303POPC   C4B31966   3.030  33.089   7.621
 2304POPC   NC331967   6.013  18.722   9.472
 2304POPC   PO431968   5.634  18.231   9.487
 2304POPC   GL131969   5.751  18.477   9.124
 2304POPC   GL231970   5.893  18.183   8.986
 2304POPC   C1A31971   5.798  18.568   8.678
 2304POPC   D2A31972   5.774  18.231   8.413
 2304POPC   C3A31973   5.978  18.335   8.045
 2304POPC   C4A31974   5.814  18.464   7.697
 2304POPC   C1B31975   5.454  18.137   8.826
 2304POPC   C2B31976   5.270  18.081   8.401
 2304POPC   C3B31977   5.496  18.106   7.992
 2304POPC   C4B31978   5.816  17.940   7.725
 2305POPC   NC331979  30.879  14.591   9.713
 2305POPC   PO431980  30.717  13.955   9.741
 2305POPC   GL131981  30.900  14.189   9.333
 2305POPC   GL231982  30.754  14.533   9.208
 2305POPC   C1A31983  30.997  14.267   8.866
 2305POPC   D2A31984  30.926  14.632   8.555
 2305POPC   C3A31985  30.887  14.609   8.117
 2305POPC   C4A31986  31.031  14.464   7.759
 2305POPC   C1B31987  30.496  14.645   8.806
 2305POPC   C2B31988  30.411  14.666   8.334
 2305POPC   C3B31989  30.381  14.434   7.903
 2305POPC   C4B31990  30.227  14.557   7.473
 2306POPC   NC331991  23.189   1.514   9.537
 2306POPC   PO431992  22.748   1.979   9.774
 2306POPC   GL131993  22.870   1.989   9.329
 2306POPC   GL231994  22.563   1.940   9.173
 2306POPC   C1A31995  23.035   2.027   8.898
 2306POPC   D2A31996  23.164   1.879   8.492
 2306POPC   C3A31997  22.965   1.859   8.062
 2306POPC   C4A31998  23.013   2.166   7.733
 2306POPC   C1B31999  22.620   1.794   8.771
 2306POPC   C2B32000  22.610   2.011   8.407
 2306POPC   C3B32001  22.379   1.906   8.041
 2306POPC   C4B32002  22.579   1.920   7.666
 2307POPC   NC332003   2.693  14.995   9.236
 2307POPC   PO432004   2.744  14.524   9.677
 2307POPC   GL132005   2.800  14.495   9.173
 2307POPC   GL232006   2.491  14.477   9.104
 2307POPC   C1A32007   2.801  14.222   8.782
 2307POPC   D2A32008   2.992  14.111   8.369
 2307POPC   C3A32009   2.864  14.260   7.951
 2307POPC   C4A32010   3.045  14.284   7.518
 2307POPC   C1B32011   2.500  14.656   8.724
 2307POPC   C2B32012   2.629  14.506   8.368
 2307POPC   C3B32013   2.515  14.646   8.004
 2307POPC   C4B32014   2.726  14.667   7.668
 2308POPC   NC332015   9.098   6.817   9.698
 2308POPC   PO432016   8.928   6.194   9.698
 2308POPC   GL132017   9.145   6.432   9.334
 2308POPC   GL232018   8.935   6.534   9.039
 2308POPC   C1A32019   9.402   6.436   8.926
 2308POPC   D2A32020   9.254   6.619   8.539
 2308POPC   C3A32021   9.108   6.375   8.195
 2308POPC   C4A32022   9.228   6.383   7.766
 2308POPC   C1B32023   8.773   6.473   8.638
 2308POPC   C2B32024   8.814   6.793   8.322
 2308POPC   C3B32025   8.876   6.782   7.892
 2308POPC   C4B32026   8.607   6.728   7.527
 2309POPC   NC332027  36.671  23.760   9.434
 2309POPC   PO432028  37.219  23.388   9.573
 2309POPC   GL132029  36.990  23.392   9.198
 2309POPC   GL232030  37.099  23.746   9.160
 2309POPC   C1A32031  36.858  23.486   8.773
 2309POPC   D2A32032  36.729  23.691   8.375
 2309POPC   C3A32033  36.821  23.546   7.927
 2309POPC   C4A32034  36.876  23.454   7.470
 2309POPC   C1B32035  37.154  23.909   8.750
 2309POPC   C2B32036  37.239  23.761   8.318
 2309POPC   C3B32037  37.290  23.779   7.867
 2309POPC   C4B32038  37.326  24.212   7.710
 2310POPC   NC332039   2.083  33.386   9.520
 2310POPC   PO432040   1.884  32.694   9.449
 2310POPC   GL132041   2.013  32.792   9.088
 2310POPC   GL232042   2.049  33.155   9.059
 2310POPC   C1A32043   1.826  32.752   8.710
 2310POPC   D2A32044   1.984  32.918   8.351
 2310POPC   C3A32045   2.062  32.646   8.013
 2310POPC   C4A32046   1.808  32.668   7.676
 2310POPC   C1B32047   1.834  33.300   8.691
 2310POPC   C2B32048   1.765  33.381   8.252
 2310POPC   C3B32049   1.937  33.163   7.888
 2310POPC   C4B32050   2.006  33.312   7.462
 2311POPC   NC332051   5.786  39.762   9.375
 2311POPC   PO432052   6.034  39.072   9.565
 2311POPC   GL132053   5.977  39.121   9.146
 2311POPC   GL232054   5.735  39.340   9.110
 2311POPC   C1A32055   6.081  39.255   8.726
 2311POPC   D2A32056   6.087  39.533   8.368
 2311POPC   C3A32057   5.892  39.368   8.019
 2311POPC   C4A32058   6.096  39.397   7.626
 2311POPC   C1B32059   5.596  39.617   8.789
 2311POPC   C2B32060   5.592  39.549   8.418
 2311POPC   C3B32061   5.435  39.614   8.034
 2311POPC   C4B32062   5.573  39.546   7.643
 2312POPC   NC332063  28.861  30.426   9.377
 2312POPC   PO432064  29.243  29.819   9.434
 2312POPC   GL132065  29.169  30.100   9.136
 2312POPC   GL232066  28.843  29.981   9.122
 2312POPC   C1A32067  29.030  30.163   8.701
 2312POPC   D2A32068  29.045  29.883   8.386
 2312POPC   C3A32069  29.113  30.124   8.078
 2312POPC   C4A32070  29.329  30.184   7.759
 2312POPC   C1B32071  28.984  29.641   8.841
 2312POPC   C2B32072  28.817  29.417   8.463
 2312POPC   C3B32073  28.908  29.529   8.034
 2312POPC   C4B32074  29.003  29.803   7.678
 2313POPC   NC332075   0.907  30.249   9.415
 2313POPC   PO432076   1.334  30.736   9.453
 2313POPC   GL132077   1.106  30.638   9.118
 2313POPC   GL232078   0.938  30.997   9.072
 2313POPC   C1A32079   1.169  30.371   8.757
 2313POPC   D2A32080   1.084  30.477   8.338
 2313POPC   C3A32081   1.269  30.329   7.986
 2313POPC   C4A32082   1.187  30.450   7.599
 2313POPC   C1B32083   1.249  30.915   8.728
 2313POPC   C2B32084   1.484  30.781   8.361
 2313POPC   C3B32085   1.350  30.867   7.934
 2313POPC   C4B32086   1.464  30.875   7.499
 2314POPC   NC332087  38.460  21.334   9.425
 2314POPC   PO432088  38.605  21.921   9.673
 2314POPC   GL132089  38.728  21.690   9.190
 2314POPC   GL232090  38.765  21.338   9.016
 2314POPC   C1A32091  38.543  21.685   8.728
 2314POPC   D2A32092  38.369  21.801   8.337
 2314POPC   C3A32093  38.510  21.565   8.001
 2314POPC   C4A32094  38.370  21.371   7.605
 2314POPC   C1B32095  38.434  21.163   8.761
 2314POPC   C2B32096  38.400  21.179   8.307
 2314POPC   C3B32097  38.633  21.064   7.921
 2314POPC   C4B32098  38.687  21.021   7.432
 2315POPC   NC332099  10.210  22.590   9.377
 2315POPC   PO432100  10.676  23.011   9.423
 2315POPC   GL132101  10.561  22.873   9.071
 2315POPC   GL232102  10.234  23.029   9.076
 2315POPC   C1A32103  10.769  22.729   8.707
 2315POPC   D2A32104  10.810  23.034   8.369
 2315POPC   C3A32105  10.697  22.862   7.981
 2315POPC   C4A32106  10.598  22.810   7.569
 2315POPC   C1B32107  10.288  22.907   8.644
 2315POPC   C2B32108  10.277  23.016   8.237
 2315POPC   C3B32109  10.248  23.093   7.820
 2315POPC   C4B32110  10.158  22.980   7.375
 2316POPC   NC332111  39.577  39.951   9.522
 2316POPC   PO432112  40.128  40.432   9.664
 2316POPC   GL132113  39.911  40.139   9.232
 2316POPC   GL232114  40.026  39.793   9.171
 2316POPC   C1A32115  39.908  40.083   8.757
 2316POPC   D2A32116  39.742  40.124   8.341
 2316POPC   C3A32117  39.996  40.032   8.004
 2316POPC   C4A32118  39.789  40.148   7.668
 2316POPC   C1B32119  40.224  39.684   8.767
 2316POPC   C2B32120  40.049  39.691   8.382
 2316POPC   C3B32121  39.927  39.494   8.018
 2316POPC   C4B32122  40.167  39.659   7.683
 2317POPC   NC332123  23.480  14.135   9.420
 2317POPC   PO432124  23.925  14.682   9.456
 2317POPC   GL132125  23.640  14.522   9.114
 2317POPC   GL232126  23.494  14.776   8.904
 2317POPC   C1A32127  23.369  14.282   8.794
 2317POPC   D2A32128  23.318  14.147   8.383
 2317POPC   C3A32129  23.517  14.471   8.134
 2317POPC   C4A32130  23.524  14.653   7.725
 2317POPC   C1B32131  23.912  14.574   8.699
 2317POPC   C2B32132  24.126  14.429   8.318
 2317POPC   C3B32133  23.942  14.313   7.925
 2317POPC   C4B32134  23.999  14.394   7.517
 2318POPC   NC332135  43.692  20.885   9.505
 2318POPC   PO432136  43.616  21.577   9.656
 2318POPC   GL132137  43.744  21.351   9.287
 2318POPC   GL232138  44.078  21.257   9.166
 2318POPC   C1A32139  43.750  21.495   8.851
 2318POPC   D2A32140  43.754  21.693   8.463
 2318POPC   C3A32141  43.887  21.454   8.105
 2318POPC   C4A32142  43.820  21.649   7.695
 2318POPC   C1B32143  44.163  21.153   8.741
 2318POPC   C2B32144  44.249  20.947   8.358
 2318POPC   C3B32145  44.190  21.049   7.929
 2318POPC   C4B32146  44.224  21.383   7.635
 2319POPC   NC332147   0.602  21.597   9.289
 2319POPC   PO432148   0.059  21.283   9.496
 2319POPC   GL132149   0.246  21.183   9.090
 2319POPC   GL232150   0.620  21.125   9.091
 2319POPC   C1A32151   0.367  21.377   8.691
 2319POPC   D2A32152   0.567  21.348   8.281
 2319POPC   C3A32153   0.308  21.529   7.944
 2319POPC   C4A32154   0.281  21.572   7.485
 2319POPC   C1B32155   0.786  21.069   8.693
 2319POPC   C2B32156   0.996  21.040   8.311
 2319POPC   C3B32157   0.843  21.124   7.912
 2319POPC   C4B32158   0.465  21.107   7.658
 2320POPC   NC332159  28.237  36.809   9.722
 2320POPC   PO432160  28.844  37.040   9.407
 2320POPC   GL132161  28.627  36.842   9.105
 2320POPC   GL232162  28.264  36.804   9.203
 2320POPC   C1A32163  28.690  36.970   8.677
 2320POPC   D2A32164  28.810  36.739   8.350
 2320POPC   C3A32165  28.674  36.924   7.970
 2320POPC   C4A32166  28.236  37.027   7.864
 2320POPC   C1B32167  28.261  36.708   8.753
 2320POPC   C2B32168  28.299  36.750   8.327
 2320POPC   C3B32169  28.207  36.518   7.983
 2320POPC   C4B32170  28.103  36.616   7.570
 2321POPC   NC332171  40.401   8.409   9.626
 2321POPC   PO432172  40.897   8.057   9.538
 2321POPC   GL132173  40.744   8.185   9.176
 2321POPC   GL232174  40.779   8.506   9.167
 2321POPC   C1A32175  40.600   8.264   8.765
 2321POPC   D2A32176  40.431   8.386   8.401
 2321POPC   C3A32177  40.654   8.247   8.061
 2321POPC   C4A32178  40.478   8.230   7.676
 2321POPC   C1B32179  41.105   8.472   8.817
 2321POPC   C2B32180  41.323   8.447   8.390
 2321POPC   C3B32181  41.253   8.497   7.923
 2321POPC   C4B32182  40.994   8.225   7.649
 2322POPC   NC332183  23.798  21.613   9.366
 2322POPC   PO432184  23.191  21.262   9.581
 2322POPC   GL132185  23.361  21.419   9.175
 2322POPC   GL232186  23.561  21.154   9.182
 2322POPC   C1A32187  23.558  21.579   8.753
 2322POPC   D2A32188  23.456  21.629   8.301
 2322POPC   C3A32189  23.745  21.503   7.983
 2322POPC   C4A32190  23.927  21.662   7.613
 2322POPC   C1B32191  23.506  21.003   8.761
 2322POPC   C2B32192  23.722  21.053   8.371
 2322POPC   C3B32193  23.657  20.993   7.941
 2322POPC   C4B32194  23.949  21.109   7.618
 2323POPC   NC332195   1.979  23.063   9.606
 2323POPC   PO432196   2.429  22.598   9.366
 2323POPC   GL132197   2.220  22.935   9.137
 2323POPC   GL232198   1.909  22.897   9.125
 2323POPC   C1A32199   2.079  23.158   8.730
 2323POPC   D2A32200   2.188  23.019   8.299
 2323POPC   C3A32201   2.077  23.199   7.900
 2323POPC   C4A32202   2.123  23.356   7.468
 2323POPC   C1B32203   1.762  22.744   8.750
 2323POPC   C2B32204   1.690  22.933   8.351
 2323POPC   C3B32205   1.837  22.764   7.950
 2323POPC   C4B32206   1.656  22.593   7.587
 2324POPC   NC332207  31.315  20.293   9.625
 2324POPC   PO432208  31.630  20.827   9.529
 2324POPC   GL132209  31.435  20.717   9.143
 2324POPC   GL232210  31.094  20.634   9.150
 2324POPC   C1A32211  31.319  20.805   8.710
 2324POPC   D2A32212  31.547  20.843   8.333
 2324POPC   C3A32213  31.304  20.868   7.973
 2324POPC   C4A32214  31.455  20.713   7.596
 2324POPC   C1B32215  31.009  20.415   8.766
 2324POPC   C2B32216  31.232  20.261   8.400
 2324POPC   C3B32217  31.289  20.370   8.000
 2324POPC   C4B32218  31.099  20.358   7.593
 2325POPC   NC332219  37.645  33.097   9.751
 2325POPC   PO432220  37.519  33.601   9.487
 2325POPC   GL132221  37.637  33.839   9.119
 2325POPC   GL232222  37.956  34.021   9.068
 2325POPC   C1A32223  37.750  33.686   8.744
 2325POPC   D2A32224  37.536  33.566   8.374
 2325POPC   C3A32225  37.709  33.681   7.954
 2325POPC   C4A32226  37.857  33.508   7.539
 2325POPC   C1B32227  37.686  34.178   8.709
 2325POPC   C2B32228  37.555  34.131   8.276
 2325POPC   C3B32229  37.503  34.154   7.826
 2325POPC   C4B32230  37.756  33.999   7.525
 2326POPC   NC332231   8.863  38.753   9.335
 2326POPC   PO432232   9.233  38.210   9.520
 2326POPC   GL132233   9.105  38.352   9.070
 2326POPC   GL232234   9.153  38.681   8.928
 2326POPC   C1A32235   8.769  38.433   8.701
 2326POPC   D2A32236   8.728  38.662   8.323
 2326POPC   C3A32237   8.790  38.529   7.895
 2326POPC   C4A32238   8.526  38.500   7.490
 2326POPC   C1B32239   9.185  38.973   8.600
 2326POPC   C2B32240   9.139  38.928   8.162
 2326POPC   C3B32241   9.243  38.738   7.807
 2326POPC   C4B32242   9.442  38.343   7.755
 2327POPC   NC332243  26.054  42.951   9.541
 2327POPC   PO432244  25.706  43.474   9.455
 2327POPC   GL132245  25.994  43.335   9.116
 2327POPC   GL232246  26.175  43.018   9.047
 2327POPC   C1A32247  25.853  43.226   8.684
 2327POPC   D2A32248  25.759  42.993   8.297
 2327POPC   C3A32249  25.928  43.107   7.895
 2327POPC   C4A32250  26.221  43.421   7.756
 2327POPC   C1B32251  26.385  43.272   8.711
 2327POPC   C2B32252  26.336  43.284   8.245
 2327POPC   C3B32253  26.419  42.963   7.890
 2327POPC   C4B32254  26.557  42.627   7.611
 2328POPC   NC332255   2.694  12.265   9.649
 2328POPC   PO432256   3.125  12.333   9.218
 2328POPC   GL132257   2.825  12.092   9.086
 2328POPC   GL232258   2.511  12.073   9.210
 2328POPC   C1A32259   2.779  12.204   8.677
 2328POPC   D2A32260   3.009  12.043   8.381
 2328POPC   C3A32261   2.927  12.263   8.049
 2328POPC   C4A32262   2.922  12.072   7.655
 2328POPC   C1B32263   2.430  11.877   8.836
 2328POPC   C2B32264   2.352  12.071   8.439
 2328POPC   C3B32265   2.501  11.994   8.033
 2328POPC   C4B32266   2.448  12.249   7.697
 2329POPC   NC332267  43.438  25.799   9.683
 2329POPC   PO432268  43.093  26.305   9.606
 2329POPC   GL132269  43.159  26.169   9.169
 2329POPC   GL232270  43.248  25.809   9.175
 2329POPC   C1A32271  43.006  26.120   8.729
 2329POPC   D2A32272  43.151  25.867   8.362
 2329POPC   C3A32273  42.979  26.013   7.974
 2329POPC   C4A32274  42.970  26.444   7.867
 2329POPC   C1B32275  43.473  25.929   8.798
 2329POPC   C2B32276  43.632  26.055   8.398
 2329POPC   C3B32277  43.487  26.021   7.991
 2329POPC   C4B32278  43.356  25.836   7.614
 2330POPC   NC332279   2.592  21.771   9.276
 2330POPC   PO432280   2.674  21.109   9.562
 2330POPC   GL132281   2.876  21.261   9.202
 2330POPC   GL232282   2.932  20.939   9.051
 2330POPC   C1A32283   2.960  21.490   8.807
 2330POPC   D2A32284   2.718  21.588   8.459
 2330POPC   C3A32285   2.908  21.509   8.068
 2330POPC   C4A32286   2.869  21.151   7.805
 2330POPC   C1B32287   2.543  21.136   8.826
 2330POPC   C2B32288   2.330  21.232   8.417
 2330POPC   C3B32289   2.394  21.350   7.976
 2330POPC   C4B32290   2.404  21.150   7.535
 2331POPC   NC332291  42.187  30.856   9.523
 2331POPC   PO432292  42.244  30.193   9.396
 2331POPC   GL132293  42.322  30.544   9.094
 2331POPC   GL232294  42.395  30.907   9.084
 2331POPC   C1A32295  42.254  30.714   8.650
 2331POPC   D2A32296  42.126  30.668   8.247
 2331POPC   C3A32297  42.271  30.889   7.890
 2331POPC   C4A32298  42.306  30.593   7.575
 2331POPC   C1B32299  42.674  30.992   8.786
 2331POPC   C2B32300  42.758  30.816   8.413
 2331POPC   C3B32301  42.814  31.006   8.054
 2331POPC   C4B32302  42.736  30.906   7.666
 2332POPC   NC332303  40.385  19.691   9.473
 2332POPC   PO432304  41.004  20.092   9.529
 2332POPC   GL132305  40.721  19.942   9.201
 2332POPC   GL232306  40.748  19.577   9.128
 2332POPC   C1A32307  40.676  19.927   8.763
 2332POPC   D2A32308  40.747  20.122   8.377
 2332POPC   C3A32309  40.785  19.828   8.062
 2332POPC   C4A32310  40.772  20.010   7.695
 2332POPC   C1B32311  41.063  19.571   8.809
 2332POPC   C2B32312  41.149  19.768   8.427
 2332POPC   C3B32313  41.324  19.594   8.063
 2332POPC   C4B32314  41.135  19.636   7.687
 2333POPC   NC332315   9.103  25.618   9.416
 2333POPC   PO432316   8.852  24.945   9.480
 2333POPC   GL132317   9.107  25.130   9.117
 2333POPC   GL232318   9.137  25.497   8.928
 2333POPC   C1A32319   9.375  25.103   8.741
 2333POPC   D2A32320   9.284  25.392   8.393
 2333POPC   C3A32321   9.417  25.397   7.991
 2333POPC   C4A32322   9.328  25.021   7.840
 2333POPC   C1B32323   8.889  25.225   8.638
 2333POPC   C2B32324   8.958  24.991   8.277
 2333POPC   C3B32325   8.892  25.295   7.988
 2333POPC   C4B32326   8.573  25.492   7.688
 2334POPC   NC332327  14.610  25.389   9.719
 2334POPC   PO432328  15.239  25.342   9.802
 2334POPC   GL132329  15.148  25.330   9.350
 2334POPC   GL232330  14.843  25.474   9.250
 2334POPC   C1A32331  15.311  25.412   8.909
 2334POPC   D2A32332  15.280  25.560   8.457
 2334POPC   C3A32333  15.020  25.390   8.115
 2334POPC   C4A32334  15.206  25.170   7.770
 2334POPC   C1B32335  14.851  25.200   8.861
 2334POPC   C2B32336  14.773  25.011   8.414
 2334POPC   C3B32337  14.829  24.840   7.977
 2334POPC   C4B32338  15.123  24.642   7.672
 2335POPC   NC332339  17.846  18.335   9.489
 2335POPC   PO432340  18.572  18.266   9.762
 2335POPC   GL132341  18.365  18.389   9.316
 2335POPC   GL232342  18.370  18.079   9.198
 2335POPC   C1A32343  18.353  18.473   8.822
 2335POPC   D2A32344  18.114  18.300   8.449
 2335POPC   C3A32345  18.240  18.475   8.056
 2335POPC   C4A32346  18.201  18.446   7.593
 2335POPC   C1B32347  18.449  18.008   8.742
 2335POPC   C2B32348  18.611  18.145   8.302
 2335POPC   C3B32349  18.436  18.057   7.857
 2335POPC   C4B32350  18.207  17.915   7.445
 2336POPC   NC332351   4.209  22.354   9.354
 2336POPC   PO432352   4.552  21.897   9.701
 2336POPC   GL132353   4.565  21.994   9.216
 2336POPC   GL232354   4.561  22.338   8.998
 2336POPC   C1A32355   4.577  21.881   8.789
 2336POPC   D2A32356   4.524  22.121   8.423
 2336POPC   C3A32357   4.233  22.094   8.080
 2336POPC   C4A32358   4.439  22.313   7.763
 2336POPC   C1B32359   4.207  22.451   8.677
 2336POPC   C2B32360   3.897  22.476   8.305
 2336POPC   C3B32361   3.922  22.502   7.827
 2336POPC   C4B32362   3.761  22.594   7.370
 2337POPC   NC332363  29.739   9.573   9.555
 2337POPC   PO432364  30.366   9.569   9.372
 2337POPC   GL132365  29.949   9.759   9.129
 2337POPC   GL232366  29.630   9.490   9.064
 2337POPC   C1A32367  29.701   9.856   8.717
 2337POPC   D2A32368  29.757  10.102   8.319
 2337POPC   C3A32369  29.838   9.870   7.956
 2337POPC   C4A32370  30.144   9.968   7.627
 2337POPC   C1B32371  30.025   9.399   8.802
 2337POPC   C2B32372  30.237   9.700   8.539
 2337POPC   C3B32373  30.277   9.622   8.110
 2337POPC   C4B32374  30.010   9.394   7.862
 2338POPC   NC332375  41.056  25.676   9.480
 2338POPC   PO432376  40.770  25.080   9.633
 2338POPC   GL132377  40.819  25.222   9.224
 2338POPC   GL232378  40.782  25.559   9.056
 2338POPC   C1A32379  40.808  25.087   8.807
 2338POPC   D2A32380  40.967  24.905   8.428
 2338POPC   C3A32381  40.811  25.055   8.053
 2338POPC   C4A32382  40.882  25.275   7.677
 2338POPC   C1B32383  40.990  25.649   8.678
 2338POPC   C2B32384  40.866  25.613   8.228
 2338POPC   C3B32385  41.089  25.703   7.848
 2338POPC   C4B32386  41.006  25.726   7.371
 2339POPC   NC332387  23.459  10.952   9.276
 2339POPC   PO432388  23.638  11.538   9.378
 2339POPC   GL132389  23.853  11.549   9.001
 2339POPC   GL232390  24.093  11.325   9.118
 2339POPC   C1A32391  23.703  11.400   8.595
 2339POPC   D2A32392  23.895  11.148   8.253
 2339POPC   C3A32393  23.906  11.434   7.920
 2339POPC   C4A32394  23.512  11.611   7.758
 2339POPC   C1B32395  24.046  11.054   8.760
 2339POPC   C2B32396  24.126  10.715   8.462
 2339POPC   C3B32397  23.928  10.669   8.071
 2339POPC   C4B32398  23.918  10.959   7.744
 2340POPC   NC332399   3.907  24.641   9.530
 2340POPC   PO432400   3.419  24.164   9.565
 2340POPC   GL132401   3.310  24.140   9.142
 2340POPC   GL232402   3.197  24.468   9.100
 2340POPC   C1A32403   3.548  24.268   8.751
 2340POPC   D2A32404   3.771  24.633   8.514
 2340POPC   C3A32405   3.756  24.627   8.049
 2340POPC   C4A32406   3.608  24.820   7.667
 2340POPC   C1B32407   3.166  24.605   8.688
 2340POPC   C2B32408   3.316  24.439   8.309
 2340POPC   C3B32409   3.246  24.573   7.931
 2340POPC   C4B32410   3.093  24.788   7.592
 2341POPC   NC332411   0.175  35.549   9.479
 2341POPC   PO432412   0.644  35.147   9.192
 2341POPC   GL132413   0.418  35.433   9.016
 2341POPC   GL232414   0.759  35.624   9.010
 2341POPC   C1A32415   0.162  35.266   8.686
 2341POPC   D2A32416   0.154  34.984   8.313
 2341POPC   C3A32417   0.289  35.101   7.899
 2341POPC   C4A32418   0.139  35.364   7.526
 2341POPC   C1B32419   0.695  35.563   8.585
 2341POPC   C2B32420   0.398  35.468   8.287
 2341POPC   C3B32421   0.349  35.594   7.909
 2341POPC   C4B32422   0.607  35.580   7.526
 2342POPC   NC332423  26.474  43.650   9.431
 2342POPC   PO432424  27.134  43.611   9.526
 2342POPC   GL132425  26.973  43.930   9.204
 2342POPC   GL232426  26.668  44.160   9.185
 2342POPC   C1A32427  26.796  43.936   8.769
 2342POPC   D2A32428  26.514  43.793   8.485
 2342POPC   C3A32429  26.700  43.889   8.092
 2342POPC   C4A32430  26.526  43.820   7.701
 2342POPC   C1B32431  26.553  44.392   8.783
 2342POPC   C2B32432  26.370  44.278   8.367
 2342POPC   C3B32433  26.491  44.339   7.923
 2342POPC   C4B32434  26.509  44.266   7.452
 2343POPC   NC332435  20.740   8.631   9.625
 2343POPC   PO432436  20.302   8.191   9.610
 2343POPC   GL132437  20.555   8.339   9.191
 2343POPC   GL232438  20.835   8.609   9.130
 2343POPC   C1A32439  20.638   8.296   8.710
 2343POPC   D2A32440  20.551   8.372   8.242
 2343POPC   C3A32441  20.508   8.014   7.931
 2343POPC   C4A32442  20.492   7.737   7.545
 2343POPC   C1B32443  21.064   8.570   8.753
 2343POPC   C2B32444  20.970   8.684   8.346
 2343POPC   C3B32445  21.017   8.507   7.953
 2343POPC   C4B32446  20.629   8.497   7.754
 2344POPC   NC332447  33.552   2.881   9.542
 2344POPC   PO432448  34.152   2.579   9.389
 2344POPC   GL132449  33.933   2.867   9.154
 2344POPC   GL232450  33.583   2.834   9.033
 2344POPC   C1A32451  33.995   2.906   8.735
 2344POPC   D2A32452  33.714   2.867   8.396
 2344POPC   C3A32453  33.845   2.591   8.063
 2344POPC   C4A32454  34.023   2.753   7.687
 2344POPC   C1B32455  33.279   3.152   8.928
 2344POPC   C2B32456  33.220   3.224   8.504
 2344POPC   C3B32457  33.313   3.287   8.106
 2344POPC   C4B32458  33.410   3.142   7.723
 2345POPC   NC332459  32.191  34.870   9.464
 2345POPC   PO432460  32.222  34.187   9.653
 2345POPC   GL132461  32.256  34.360   9.225
 2345POPC   GL232462  31.957  34.489   9.171
 2345POPC   C1A32463  32.398  34.554   8.816
 2345POPC   D2A32464  32.327  34.805   8.452
 2345POPC   C3A32465  32.483  34.664   8.066
 2345POPC   C4A32466  32.288  34.701   7.676
 2345POPC   C1B32467  31.932  34.769   8.820
 2345POPC   C2B32468  31.793  34.777   8.405
 2345POPC   C3B32469  31.890  34.696   8.004
 2345POPC   C4B32470  31.841  34.951   7.662
 2346POPC   NC332471  41.969  26.208   9.546
 2346POPC   PO432472  41.517  25.727   9.481
 2346POPC   GL132473  41.824  25.895   9.167
 2346POPC   GL232474  41.602  26.156   9.190
 2346POPC   C1A32475  41.874  26.190   8.782
 2346POPC   D2A32476  41.699  26.192   8.391
 2346POPC   C3A32477  41.924  26.198   8.030
 2346POPC   C4A32478  41.777  26.168   7.659
 2346POPC   C1B32479  41.362  26.107   8.794
 2346POPC   C2B32480  41.181  26.241   8.370
 2346POPC   C3B32481  41.315  26.151   7.914
 2346POPC   C4B32482  41.307  26.252   7.446
 2347POPC   NC332483  14.652  17.410   9.564
 2347POPC   PO432484  14.205  17.847   9.399
 2347POPC   GL132485  14.342  17.522   9.148
 2347POPC   GL232486  14.665  17.646   9.102
 2347POPC   C1A32487  14.429  17.390   8.729
 2347POPC   D2A32488  14.335  17.570   8.341
 2347POPC   C3A32489  14.258  17.316   7.955
 2347POPC   C4A32490  14.565  17.233   7.635
 2347POPC   C1B32491  14.706  17.847   8.709
 2347POPC   C2B32492  14.819  17.779   8.280
 2347POPC   C3B32493  14.583  17.697   7.894
 2347POPC   C4B32494  14.736  17.681   7.452
 2348POPC   NC332495   2.902  34.283   9.825
 2348POPC   PO432496   2.494  34.655   9.506
 2348POPC   GL132497   2.534  34.411   9.126
 2348POPC   GL232498   2.894  34.454   9.116
 2348POPC   C1A32499   2.611  34.540   8.691
 2348POPC   D2A32500   3.004  34.736   8.509
 2348POPC   C3A32501   2.964  34.753   8.068
 2348POPC   C4A32502   2.511  34.727   7.990
 2348POPC   C1B32503   3.040  34.255   8.730
 2348POPC   C2B32504   2.852  34.203   8.350
 2348POPC   C3B32505   2.732  34.274   7.958
 2348POPC   C4B32506   2.706  34.044   7.613
 2349POPC   NC332507   6.479  34.650   9.291
 2349POPC   PO432508   7.096  34.985   9.333
 2349POPC   GL132509   6.894  34.713   8.984
 2349POPC   GL232510   6.968  34.341   9.063
 2349POPC   C1A32511   6.504  34.775   8.658
 2349POPC   D2A32512   6.450  34.904   8.201
 2349POPC   C3A32513   6.837  34.886   7.950
 2349POPC   C4A32514   6.997  34.694   7.581
 2349POPC   C1B32515   6.622  34.264   8.745
 2349POPC   C2B32516   6.554  34.403   8.307
 2349POPC   C3B32517   6.713  34.378   7.894
 2349POPC   C4B32518   6.488  34.403   7.506
 2350POPC   NC332519  22.261  12.866   9.617
 2350POPC   PO432520  21.603  12.781   9.522
 2350POPC   GL132521  21.941  12.704   9.151
 2350POPC   GL232522  22.320  12.751   9.142
 2350POPC   C1A32523  22.092  12.874   8.701
 2350POPC   D2A32524  22.182  13.071   8.274
 2350POPC   C3A32525  21.993  12.862   7.893
 2350POPC   C4A32526  21.957  12.416   7.818
 2350POPC   C1B32527  22.619  12.846   8.824
 2350POPC   C2B32528  22.662  12.791   8.414
 2350POPC   C3B32529  22.494  12.734   8.028
 2350POPC   C4B32530  22.435  13.092   7.776
 2351POPC   NC332531  25.642  12.144   9.472
 2351POPC   PO432532  25.017  12.345   9.494
 2351POPC   GL132533  25.221  12.117   9.142
 2351POPC   GL232534  25.369  11.789   9.173
 2351POPC   C1A32535  25.227  12.053   8.695
 2351POPC   D2A32536  25.108  11.939   8.292
 2351POPC   C3A32537  25.235  12.241   7.990
 2351POPC   C4A32538  25.549  12.396   7.706
 2351POPC   C1B32539  25.681  11.921   8.857
 2351POPC   C2B32540  25.757  12.022   8.429
 2351POPC   C3B32541  25.587  11.902   8.053
 2351POPC   C4B32542  25.356  11.837   7.676
 2352POPC   NC332543  12.381  39.249   9.488
 2352POPC   PO432544  11.754  39.431   9.529
 2352POPC   GL132545  11.938  39.292   9.182
 2352POPC   GL232546  12.011  38.960   9.239
 2352POPC   C1A32547  12.074  39.400   8.784
 2352POPC   D2A32548  11.962  39.256   8.399
 2352POPC   C3A32549  12.087  39.504   8.057
 2352POPC   C4A32550  11.900  39.438   7.692
 2352POPC   C1B32551  12.062  38.882   8.796
 2352POPC   C2B32552  12.033  38.742   8.361
 2352POPC   C3B32553  12.043  38.993   7.957
 2352POPC   C4B32554  12.003  38.988   7.480
 2353POPC   NC332555   2.796  20.603   9.643
 2353POPC   PO432556   2.275  20.265   9.507
 2353POPC   GL132557   2.529  20.467   9.192
 2353POPC   GL232558   2.883  20.427   9.173
 2353POPC   C1A32559   2.597  20.609   8.760
 2353POPC   D2A32560   2.608  20.347   8.383
 2353POPC   C3A32561   2.665  20.536   7.978
 2353POPC   C4A32562   2.973  20.343   7.712
 2353POPC   C1B32563   3.096  20.505   8.791
 2353POPC   C2B32564   3.007  20.656   8.400
 2353POPC   C3B32565   3.132  20.757   8.011
 2353POPC   C4B32566   3.256  20.792   7.594
 2354POPC   NC332567  33.121  10.299   9.586
 2354POPC   PO432568  32.806   9.712   9.442
 2354POPC   GL132569  32.935   9.717   9.020
 2354POPC   GL232570  33.302   9.833   9.007
 2354POPC   C1A32571  32.992   9.991   8.636
 2354POPC   D2A32572  33.102  10.230   8.278
 2354POPC   C3A32573  32.935   9.981   7.967
 2354POPC   C4A32574  32.719   9.612   7.837
 2354POPC   C1B32575  33.253   9.510   8.688
 2354POPC   C2B32576  33.008   9.576   8.299
 2354POPC   C3B32577  33.238   9.569   7.905
 2354POPC   C4B32578  33.539   9.590   7.547
 2355POPC   NC332579  43.423  31.748   9.472
 2355POPC   PO432580  44.076  31.625   9.756
 2355POPC   GL132581  44.046  31.841   9.315
 2355POPC   GL232582  43.761  31.817   9.120
 2355POPC   C1A32583  44.162  31.658   8.878
 2355POPC   D2A32584  43.943  31.400   8.605
 2355POPC   C3A32585  44.001  31.438   8.153
 2355POPC   C4A32586  44.227  31.544   7.758
 2355POPC   C1B32587  43.558  31.734   8.752
 2355POPC   C2B32588  43.432  31.894   8.376
 2355POPC   C3B32589  43.438  31.751   7.991
 2355POPC   C4B32590  43.748  31.693   7.766
 2356POPC   NC332591  44.853  27.793   9.322
 2356POPC   PO432592  44.502  27.418   9.827
 2356POPC   GL132593  44.333  27.293   9.302
 2356POPC   GL232594  44.477  27.567   9.075
 2356POPC   C1A32595  44.412  27.198   8.774
 2356POPC   D2A32596  44.665  27.412   8.470
 2356POPC   C3A32597  44.588  27.254   8.067
 2356POPC   C4A32598  44.510  27.532   7.738
 2356POPC   C1B32599  44.402  27.809   8.682
 2356POPC   C2B32600  44.164  27.858   8.318
 2356POPC   C3B32601  44.253  27.936   7.895
 2356POPC   C4B32602  44.274  27.845   7.416
 2357POPC   NC332603  24.890  22.779   9.505
 2357POPC   PO432604  24.196  22.817   9.522
 2357POPC   GL132605  24.321  22.900   9.127
 2357POPC   GL232606  24.680  22.917   9.083
 2357POPC   C1A32607  24.353  22.801   8.718
 2357POPC   D2A32608  24.499  22.594   8.360
 2357POPC   C3A32609  24.368  22.795   7.987
 2357POPC   C4A32610  24.720  22.721   7.727
 2357POPC   C1B32611  24.755  23.182   8.766
 2357POPC   C2B32612  24.589  23.087   8.379
 2357POPC   C3B32613  24.768  23.127   8.014
 2357POPC   C4B32614  24.742  23.229   7.625
 2358POPC   NC332615  19.945   3.495   9.406
 2358POPC   PO432616  19.406   3.793   9.578
 2358POPC   GL132617  19.700   3.852   9.118
 2358POPC   GL232618  20.072   3.777   8.996
 2358POPC   C1A32619  19.754   3.779   8.614
 2358POPC   D2A32620  19.869   3.448   8.294
 2358POPC   C3A32621  19.975   3.652   7.920
 2358POPC   C4A32622  19.681   3.992   7.836
 2358POPC   C1B32623  20.089   3.352   8.763
 2358POPC   C2B32624  20.300   3.164   8.378
 2358POPC   C3B32625  20.128   3.139   7.954
 2358POPC   C4B32626  19.692   3.242   7.793
 2359POPC   NC332627  11.719  33.488   9.454
 2359POPC   PO432628  11.047  33.893   9.507
 2359POPC   GL132629  11.298  33.755   9.173
 2359POPC   GL232630  11.170  34.058   9.027
 2359POPC   C1A32631  11.478  33.757   8.739
 2359POPC   D2A32632  11.436  33.888   8.294
 2359POPC   C3A32633  11.594  33.647   7.904
 2359POPC   C4A32634  11.543  33.674   7.456
 2359POPC   C1B32635  11.394  34.256   8.704
 2359POPC   C2B32636  11.265  34.373   8.314
 2359POPC   C3B32637  11.075  34.094   8.006
 2359POPC   C4B32638  11.421  34.131   7.707
 2360POPC   NC332639  23.079  33.082   9.928
 2360POPC   PO432640  22.932  33.358   9.360
 2360POPC   GL132641  23.090  33.024   9.145
 2360POPC   GL232642  22.777  32.879   9.211
 2360POPC   C1A32643  23.228  32.936   8.725
 2360POPC   D2A32644  23.083  33.155   8.347
 2360POPC   C3A32645  23.253  33.129   7.929
 2360POPC   C4A32646  23.047  33.376   7.597
 2360POPC   C1B32647  22.755  33.104   8.786
 2360POPC   C2B32648  22.692  32.872   8.474
 2360POPC   C3B32649  22.800  32.809   8.067
 2360POPC   C4B32650  22.863  32.662   7.663
 2361POPC   NC332651  22.335  42.803   9.432
 2361POPC   PO432652  22.353  42.153   9.444
 2361POPC   GL132653  22.014  42.134   9.150
 2361POPC   GL232654  22.098  42.487   9.092
 2361POPC   C1A32655  22.087  41.925   8.767
 2361POPC   D2A32656  22.387  41.958   8.469
 2361POPC   C3A32657  22.231  42.285   8.208
 2361POPC   C4A32658  22.179  42.288   7.786
 2361POPC   C1B32659  21.993  42.422   8.666
 2361POPC   C2B32660  21.802  42.581   8.296
 2361POPC   C3B32661  21.776  42.678   7.851
 2361POPC   C4B32662  22.148  42.751   7.558
 2362POPC   NC332663  28.679  25.886   9.386
 2362POPC   PO432664  29.331  25.702   9.426
 2362POPC   GL132665  29.209  25.931   9.042
 2362POPC   GL232666  28.868  26.019   8.944
 2362POPC   C1A32667  29.264  25.744   8.639
 2362POPC   D2A32668  29.596  25.694   8.377
 2362POPC   C3A32669  29.453  25.849   8.025
 2362POPC   C4A32670  29.304  25.991   7.665
 2362POPC   C1B32671  28.804  26.268   8.602
 2362POPC   C2B32672  29.154  26.181   8.340
 2362POPC   C3B32673  29.061  26.309   7.967
 2362POPC   C4B32674  28.845  26.209   7.640
 2363POPC   NC332675  39.479   6.922  10.194
 2363POPC   PO432676  39.885   6.818   9.751
 2363POPC   GL132677  40.030   6.690   9.277
 2363POPC   GL232678  40.374   6.815   9.109
 2363POPC   C1A32679  39.926   6.727   8.841
 2363POPC   D2A32680  39.859   6.918   8.458
 2363POPC   C3A32681  39.924   6.767   8.070
 2363POPC   C4A32682  40.097   6.992   7.733
 2363POPC   C1B32683  40.341   6.997   8.657
 2363POPC   C2B32684  40.415   6.866   8.196
 2363POPC   C3B32685  40.527   6.744   7.748
 2363POPC   C4B32686  40.491   6.989   7.338
 2364POPC   NC332687  38.821  15.437   9.745
 2364POPC   PO432688  38.161  15.389   9.518
 2364POPC   GL132689  38.487  15.205   9.231
 2364POPC   GL232690  38.552  14.855   9.233
 2364POPC   C1A32691  38.424  15.219   8.782
 2364POPC   D2A32692  38.359  15.075   8.386
 2364POPC   C3A32693  38.509  15.326   8.040
 2364POPC   C4A32694  38.440  15.287   7.596
 2364POPC   C1B32695  38.569  14.738   8.798
 2364POPC   C2B32696  38.827  14.748   8.452
 2364POPC   C3B32697  38.670  14.834   8.061
 2364POPC   C4B32698  38.636  14.807   7.652
 2365POPC   NC332699   5.315  23.865   9.327
 2365POPC   PO432700   4.706  23.680   9.444
 2365POPC   GL132701   4.904  23.595   9.048
 2365POPC   GL232702   4.750  23.266   9.007
 2365POPC   C1A32703   5.182  23.731   8.675
 2365POPC   D2A32704   5.387  23.868   8.264
 2365POPC   C3A32705   5.357  23.541   7.966
 2365POPC   C4A32706   4.987  23.511   7.701
 2365POPC   C1B32707   4.797  23.362   8.582
 2365POPC   C2B32708   4.903  23.618   8.230
 2365POPC   C3B32709   4.673  23.848   7.938
 2365POPC   C4B32710   4.697  23.951   7.516
 2366POPC   NC332711  23.332  42.775   9.505
 2366POPC   PO432712  23.953  43.148   9.424
 2366POPC   GL132713  23.652  43.136   9.144
 2366POPC   GL232714  23.650  42.757   9.104
 2366POPC   C1A32715  23.663  43.383   8.727
 2366POPC   D2A32716  23.716  43.258   8.283
 2366POPC   C3A32717  23.457  43.497   8.000
 2366POPC   C4A32718  23.441  43.539   7.573
 2366POPC   C1B32719  23.903  42.922   8.759
 2366POPC   C2B32720  24.063  42.866   8.361
 2366POPC   C3B32721  23.754  42.786   8.062
 2366POPC   C4B32722  23.577  43.027   7.734
 2367POPC   NC332723  24.874  23.693   9.369
 2367POPC   PO432724  25.583  23.919   9.513
 2367POPC   GL132725  25.348  23.868   9.148
 2367POPC   GL232726  25.308  23.542   9.130
 2367POPC   C1A32727  25.349  23.889   8.691
 2367POPC   D2A32728  25.091  23.957   8.314
 2367POPC   C3A32729  25.289  23.897   7.912
 2367POPC   C4A32730  25.254  24.015   7.468
 2367POPC   C1B32731  25.220  23.393   8.741
 2367POPC   C2B32732  25.384  23.480   8.331
 2367POPC   C3B32733  25.246  23.353   7.916
 2367POPC   C4B32734  25.148  23.514   7.510
 2368POPC   NC332735  34.687   8.725   9.487
 2368POPC   PO432736  34.385   9.297   9.540
 2368POPC   GL132737  34.548   9.136   9.181
 2368POPC   GL232738  34.371   8.815   9.096
 2368POPC   C1A32739  34.637   9.232   8.780
 2368POPC   D2A32740  34.856   8.985   8.509
 2368POPC   C3A32741  34.723   9.057   8.110
 2368POPC   C4A32742  34.855   9.160   7.715
 2368POPC   C1B32743  34.673   8.597   8.824
 2368POPC   C2B32744  34.760   8.489   8.381
 2368POPC   C3B32745  34.955   8.610   7.978
 2368POPC   C4B32746  34.601   8.712   7.698
 2369POPC   NC332747  44.497   4.525   9.191
 2369POPC   PO432748  44.997   4.247   9.539
 2369POPC   GL132749  44.807   4.079   9.134
 2369POPC   GL232750  44.431   4.005   9.036
 2369POPC   C1A32751  44.767   4.182   8.684
 2369POPC   D2A32752  44.588   4.219   8.255
 2369POPC   C3A32753  44.816   4.083   7.892
 2369POPC   C4A32754  44.651   4.021   7.497
 2369POPC   C1B32755  44.245   4.222   8.662
 2369POPC   C2B32756  44.106   4.426   8.263
 2369POPC   C3B32757  44.394   4.583   7.926
 2369POPC   C4B32758  44.597   4.515   7.519
 2370POPC   NC332759  11.670  40.448   9.551
 2370POPC   PO432760  11.860  41.059   9.615
 2370POPC   GL132761  12.076  41.021   9.230
 2370POPC   GL232762  12.095  40.659   9.244
 2370POPC   C1A32763  12.164  40.997   8.800
 2370POPC   D2A32764  12.226  40.683   8.471
 2370POPC   C3A32765  12.127  40.853   8.056
 2370POPC   C4A32766  12.050  41.018   7.634
 2370POPC   C1B32767  11.865  40.554   8.873
 2370POPC   C2B32768  11.664  40.465   8.477
 2370POPC   C3B32769  11.855  40.379   8.100
 2370POPC   C4B32770  11.812  40.586   7.718
 2371POPC   NC332771  21.202  33.727   9.445
 2371POPC   PO432772  21.656  34.249   9.430
 2371POPC   GL132773  21.476  33.999   9.107
 2371POPC   GL232774  21.636  33.663   9.178
 2371POPC   C1A32775  21.334  33.751   8.758
 2371POPC   D2A32776  21.472  33.530   8.363
 2371POPC   C3A32777  21.345  33.733   7.999
 2371POPC   C4A32778  21.292  33.566   7.601
 2371POPC   C1B32779  21.811  33.595   8.746
 2371POPC   C2B32780  21.829  33.909   8.404
 2371POPC   C3B32781  21.857  33.785   7.967
 2371POPC   C4B32782  21.636  33.930   7.608
 2372POPC   NC332783  43.519   9.957   9.344
 2372POPC   PO432784  42.872   9.756   9.229
 2372POPC   GL132785  43.199   9.867   8.954
 2372POPC   GL232786  43.452   9.590   8.987
 2372POPC   C1A32787  43.173   9.997   8.545
 2372POPC   D2A32788  43.003   9.773   8.236
 2372POPC   C3A32789  43.262   9.765   7.892
 2372POPC   C4A32790  43.035   9.820   7.543
 2372POPC   C1B32791  43.219   9.448   8.595
 2372POPC   C2B32792  43.229   9.319   8.140
 2372POPC   C3B32793  43.214   9.331   7.637
 2372POPC   C4B32794  43.313   9.502   7.234
 2373POPC   NC332795  39.785  24.211   9.373
 2373POPC   PO432796  40.423  24.564   9.440
 2373POPC   GL132797  40.256  24.299   9.135
 2373POPC   GL232798  39.981  24.541   9.038
 2373POPC   C1A32799  40.306  24.371   8.699
 2373POPC   D2A32800  40.057  24.511   8.377
 2373POPC   C3A32801  40.162  24.236   8.064
 2373POPC   C4A32802  40.310  24.328   7.688
 2373POPC   C1B32803  39.652  24.557   8.710
 2373POPC   C2B32804  39.533  24.632   8.288
 2373POPC   C3B32805  39.805  24.755   7.967
 2373POPC   C4B32806  39.770  24.405   7.726
 2374POPC   NC332807  34.727  13.088   9.287
 2374POPC   PO432808  34.516  12.485   9.466
 2374POPC   GL132809  34.575  12.607   9.067
 2374POPC   GL232810  34.313  12.878   9.051
 2374POPC   C1A32811  34.598  12.731   8.646
 2374POPC   D2A32812  34.478  12.801   8.223
 2374POPC   C3A32813  34.725  12.891   7.862
 2374POPC   C4A32814  34.702  12.630   7.505
 2374POPC   C1B32815  34.237  13.126   8.682
 2374POPC   C2B32816  34.316  13.284   8.274
 2374POPC   C3B32817  34.276  13.122   7.849
 2374POPC   C4B32818  34.500  13.111   7.417
 2375POPC   NC332819  33.127  16.194   9.674
 2375POPC   PO432820  32.523  16.464   9.552
 2375POPC   GL132821  32.879  16.509   9.239
 2375POPC   GL232822  33.172  16.676   9.005
 2375POPC   C1A32823  32.722  16.542   8.817
 2375POPC   D2A32824  32.888  16.498   8.445
 2375POPC   C3A32825  32.968  16.793   8.144
 2375POPC   C4A32826  32.791  16.569   7.823
 2375POPC   C1B32827  33.200  17.086   8.750
 2375POPC   C2B32828  33.182  17.275   8.327
 2375POPC   C3B32829  33.392  17.089   7.967
 2375POPC   C4B32830  33.291  16.785   7.769
 2376POPC   NC332831   7.286  38.755   9.419
 2376POPC   PO432832   7.687  38.267   9.523
 2376POPC   GL132833   7.615  38.445   9.154
 2376POPC   GL232834   7.258  38.354   9.102
 2376POPC   C1A32835   7.852  38.551   8.796
 2376POPC   D2A32836   7.893  38.619   8.351
 2376POPC   C3A32837   7.575  38.453   8.077
 2376POPC   C4A32838   7.441  38.643   7.703
 2376POPC   C1B32839   7.380  38.396   8.694
 2376POPC   C2B32840   7.158  38.514   8.361
 2376POPC   C3B32841   7.035  38.450   7.971
 2376POPC   C4B32842   7.216  38.153   7.745
 2377POPC   NC332843  23.044  21.706   9.474
 2377POPC   PO432844  22.406  21.551   9.658
 2377POPC   GL132845  22.622  21.506   9.208
 2377POPC   GL232846  22.876  21.253   9.131
 2377POPC   C1A32847  22.715  21.651   8.756
 2377POPC   D2A32848  22.953  21.660   8.327
 2377POPC   C3A32849  22.790  21.509   7.911
 2377POPC   C4A32850  22.694  21.220   7.550
 2377POPC   C1B32851  23.109  21.341   8.730
 2377POPC   C2B32852  23.219  21.158   8.331
 2377POPC   C3B32853  23.251  21.305   7.897
 2377POPC   C4B32854  23.501  21.349   7.530
 2378POPC   NC332855  42.703   9.049   9.794
 2378POPC   PO432856  42.228   8.925   9.358
 2378POPC   GL132857  42.438   9.003   9.059
 2378POPC   GL232858  42.736   8.802   9.120
 2378POPC   C1A32859  42.345   9.153   8.690
 2378POPC   D2A32860  42.267   9.001   8.333
 2378POPC   C3A32861  42.387   9.197   7.996
 2378POPC   C4A32862  42.189   9.048   7.652
 2378POPC   C1B32863  42.540   8.673   8.699
 2378POPC   C2B32864  42.355   8.507   8.340
 2378POPC   C3B32865  42.458   8.685   7.964
 2378POPC   C4B32866  42.440   8.596   7.554
 2379POPC   NC332867  38.726  18.008   9.613
 2379POPC   PO432868  38.079  18.200   9.540
 2379POPC   GL132869  38.256  18.083   9.169
 2379POPC   GL232870  38.560  18.238   9.181
 2379POPC   C1A32871  38.179  18.205   8.747
 2379POPC   D2A32872  38.423  18.212   8.397
 2379POPC   C3A32873  38.247  18.229   8.011
 2379POPC   C4A32874  38.083  17.908   7.742
 2379POPC   C1B32875  38.728  18.147   8.809
 2379POPC   C2B32876  38.910  18.377   8.500
 2379POPC   C3B32877  38.806  18.348   8.076
 2379POPC   C4B32878  38.753  18.239   7.649
 2380POPC   NC332879  40.567  22.114   9.519
 2380POPC   PO432880  41.035  22.525   9.500
 2380POPC   GL132881  40.769  22.303   9.116
 2380POPC   GL232882  40.965  22.113   8.917
 2380POPC   C1A32883  40.504  22.140   8.741
 2380POPC   D2A32884  40.726  22.267   8.360
 2380POPC   C3A32885  40.535  22.152   7.981
 2380POPC   C4A32886  40.546  22.334   7.581
 2380POPC   C1B32887  41.118  22.476   8.620
 2380POPC   C2B32888  41.143  22.538   8.179
 2380POPC   C3B32889  41.010  22.356   7.800
 2380POPC   C4B32890  41.029  22.591   7.421
 2381POPC   NC332891  37.989  39.766   9.386
 2381POPC   PO432892  38.431  40.241   9.445
 2381POPC   GL132893  38.360  39.998   9.118
 2381POPC   GL232894  38.668  39.838   8.944
 2381POPC   C1A32895  38.190  39.888   8.766
 2381POPC   D2A32896  38.466  40.021   8.463
 2381POPC   C3A32897  38.337  39.828   8.120
 2381POPC   C4A32898  38.134  39.961   7.743
 2381POPC   C1B32899  38.832  40.254   8.782
 2381POPC   C2B32900  38.691  40.506   8.384
 2381POPC   C3B32901  38.496  40.308   8.000
 2381POPC   C4B32902  38.652  39.959   7.740
 2382POPC   NC332903  34.425  39.200   9.505
 2382POPC   PO432904  34.806  39.702   9.405
 2382POPC   GL132905  34.748  39.297   9.131
 2382POPC   GL232906  34.413  39.026   9.045
 2382POPC   C1A32907  34.879  39.305   8.727
 2382POPC   D2A32908  34.909  39.610   8.393
 2382POPC   C3A32909  34.947  39.380   8.020
 2382POPC   C4A32910  34.650  39.076   7.822
 2382POPC   C1B32911  34.376  39.352   8.794
 2382POPC   C2B32912  34.502  39.249   8.394
 2382POPC   C3B32913  34.458  39.493   8.088
 2382POPC   C4B32914  34.255  39.386   7.744
 2383POPC   NC332915  42.055  23.159   9.489
 2383POPC   PO432916  41.506  22.841   9.365
 2383POPC   GL132917  41.713  23.113   9.109
 2383POPC   GL232918  41.945  22.836   9.096
 2383POPC   C1A32919  41.512  23.203   8.751
 2383POPC   D2A32920  41.410  22.899   8.440
 2383POPC   C3A32921  41.385  23.027   8.042
 2383POPC   C4A32922  41.061  22.921   7.810
 2383POPC   C1B32923  41.664  22.620   8.789
 2383POPC   C2B32924  41.638  22.421   8.424
 2383POPC   C3B32925  41.655  22.569   8.060
 2383POPC   C4B32926  41.457  22.596   7.714
 2384POPC   NC332927   7.050  26.749   9.517
 2384POPC   PO432928   6.420  26.844   9.655
 2384POPC   GL132929   6.506  26.776   9.182
 2384POPC   GL232930   6.855  26.838   9.072
 2384POPC   C1A32931   6.423  26.910   8.727
 2384POPC   D2A32932   6.234  26.832   8.300
 2384POPC   C3A32933   6.461  26.864   7.868
 2384POPC   C4A32934   6.353  26.824   7.387
 2384POPC   C1B32935   6.931  26.793   8.665
 2384POPC   C2B32936   6.812  26.983   8.273
 2384POPC   C3B32937   6.944  27.079   7.857
 2384POPC   C4B32938   6.810  27.043   7.432
 2385POPC   NC332939  38.875  44.797   9.519
 2385POPC   PO432940  39.594  44.465   9.519
 2385POPC   GL132941  39.304  44.681   9.220
 2385POPC   GL232942  38.990  44.526   9.114
 2385POPC   C1A32943  39.231  44.762   8.758
 2385POPC   D2A32944  39.348  44.611   8.360
 2385POPC   C3A32945  39.168  44.707   7.934
 2385POPC   C4A32946  39.199  44.647   7.470
 2385POPC   C1B32947  38.946  44.339   8.714
 2385POPC   C2B32948  38.770  44.253   8.306
 2385POPC   C3B32949  38.786  44.364   7.857
 2385POPC   C4B32950  38.737  44.773   7.593
 2386POPC   NC332951   6.382  39.392   9.412
 2386POPC   PO432952   6.980  39.120   9.601
 2386POPC   GL132953   6.747  39.018   9.220
 2386POPC   GL232954   6.415  38.871   9.245
 2386POPC   C1A32955   6.707  39.229   8.808
 2386POPC   D2A32956   6.489  39.189   8.408
 2386POPC   C3A32957   6.673  39.390   8.047
 2386POPC   C4A32958   6.643  39.639   7.682
 2386POPC   C1B32959   6.380  38.805   8.791
 2386POPC   C2B32960   6.240  38.740   8.344
 2386POPC   C3B32961   6.255  39.018   7.970
 2386POPC   C4B32962   6.544  39.143   7.610
 2387POPC   NC332963  29.335   4.685   9.598
 2387POPC   PO432964  29.054   4.025   9.389
 2387POPC   GL132965  29.217   4.117   9.030
 2387POPC   GL232966  29.311   4.440   9.146
 2387POPC   C1A32967  29.205   4.110   8.602
 2387POPC   D2A32968  29.038   4.412   8.309
 2387POPC   C3A32969  28.956   4.255   7.874
 2387POPC   C4A32970  28.883   4.572   7.555
 2387POPC   C1B32971  29.439   4.543   8.742
 2387POPC   C2B32972  29.570   4.377   8.367
 2387POPC   C3B32973  29.396   4.518   7.964
 2387POPC   C4B32974  29.352   4.385   7.536
 2388POPC   NC332975  23.471  16.166   9.365
 2388POPC   PO432976  23.006  15.891   9.739
 2388POPC   GL132977  22.994  16.003   9.298
 2388POPC   GL232978  23.169  15.754   9.183
 2388POPC   C1A32979  22.897  16.096   8.844
 2388POPC   D2A32980  22.681  16.133   8.414
 2388POPC   C3A32981  23.005  16.152   8.061
 2388POPC   C4A32982  22.953  16.005   7.621
 2388POPC   C1B32983  23.083  15.607   8.783
 2388POPC   C2B32984  23.014  15.759   8.388
 2388POPC   C3B32985  23.135  15.611   7.996
 2388POPC   C4B32986  23.358  15.432   7.602
 2389POPC   NC332987   3.693  37.268   9.732
 2389POPC   PO432988   3.527  37.877   9.525
 2389POPC   GL132989   3.732  37.679   9.186
 2389POPC   GL232990   4.030  37.869   9.264
 2389POPC   C1A32991   3.617  37.578   8.725
 2389POPC   D2A32992   3.311  37.560   8.340
 2389POPC   C3A32993   3.411  37.709   7.900
 2389POPC   C4A32994   3.250  38.030   7.602
 2389POPC   C1B32995   3.811  38.063   8.875
 2389POPC   C2B32996   3.585  38.039   8.463
 2389POPC   C3B32997   3.761  38.065   8.060
 2389POPC   C4B32998   3.933  37.687   7.897
 2390POPC   NC332999  22.471  18.145   9.337
 2390POPC   PO433000  21.879  18.453   9.507
 2390POPC   GL133001  22.063  18.398   9.115
 2390POPC   GL233002  21.734  18.353   9.000
 2390POPC   C1A33003  22.290  18.235   8.731
 2390POPC   D2A33004  22.266  17.914   8.439
 2390POPC   C3A33005  22.102  18.159   8.122
 2390POPC   C4A33006  22.209  18.422   7.807
 2390POPC   C1B33007  21.841  17.975   8.782
 2390POPC   C2B33008  21.761  17.831   8.367
 2390POPC   C3B33009  21.679  17.982   7.951
 2390POPC   C4B33010  21.941  18.013   7.605
 2391POPC   NC333011  30.744   7.372   9.638
 2391POPC   PO433012  30.224   7.790   9.732
 2391POPC   GL133013  30.499   7.707   9.311
 2391POPC   GL233014  30.913   7.625   9.240
 2391POPC   C1A33015  30.620   7.629   8.854
 2391POPC   D2A33016  30.504   7.455   8.488
 2391POPC   C3A33017  30.662   7.415   8.086
 2391POPC   C4A33018  30.575   7.607   7.708
 2391POPC   C1B33019  30.921   7.215   8.988
 2391POPC   C2B33020  31.081   7.120   8.570
 2391POPC   C3B33021  31.112   7.145   8.123
 2391POPC   C4B33022  31.019   7.336   7.727
 2392POPC   NC333023  41.091  28.585   9.183
 2392POPC   PO433024  40.708  28.236   9.799
 2392POPC   GL133025  40.546  28.228   9.256
 2392POPC   GL233026  40.416  28.490   9.079
 2392POPC   C1A33027  40.718  28.224   8.775
 2392POPC   D2A33028  40.858  28.180   8.338
 2392POPC   C3A33029  40.653  28.236   7.932
 2392POPC   C4A33030  40.719  28.176   7.475
 2392POPC   C1B33031  40.291  28.571   8.727
 2392POPC   C2B33032  40.460  28.495   8.360
 2392POPC   C3B33033  40.434  28.696   7.981
 2392POPC   C4B33034  40.538  28.645   7.575
 2393POPC   NC333035  23.367  20.769   9.605
 2393POPC   PO433036  23.977  20.910   9.381
 2393POPC   GL133037  23.686  20.670   9.090
 2393POPC   GL233038  23.324  20.646   9.128
 2393POPC   C1A33039  23.814  20.481   8.720
 2393POPC   D2A33040  24.087  20.653   8.431
 2393POPC   C3A33041  23.862  20.529   8.112
 2393POPC   C4A33042  23.878  20.589   7.716
 2393POPC   C1B33043  23.310  20.457   8.761
 2393POPC   C2B33044  23.419  20.643   8.382
 2393POPC   C3B33045  23.340  20.577   7.967
 2393POPC   C4B33046  23.481  20.258   7.731
 2394POPC   NC333047  43.921  44.381   9.705
 2394POPC   PO433048  44.014   0.057   9.607
 2394POPC   GL133049  44.099  44.809   9.237
 2394POPC   GL233050  43.834  44.565   9.201
 2394POPC   C1A33051  44.063  44.757   8.779
 2394POPC   D2A33052  44.247  44.685   8.370
 2394POPC   C3A33053  43.981  44.810   8.050
 2394POPC   C4A33054  43.909  44.659   7.636
 2394POPC   C1B33055  43.632  44.429   8.811
 2394POPC   C2B33056  43.446  44.310   8.381
 2394POPC   C3B33057  43.523  44.527   7.951
 2394POPC   C4B33058  43.549  44.989   7.779
 2395POPC   NC333059  23.048   0.268   9.614
 2395POPC   PO433060  22.406   0.635   9.681
 2395POPC   GL133061  22.702   0.524   9.263
 2395POPC   GL233062  23.093   0.401   9.134
 2395POPC   C1A33063  22.738   0.472   8.789
 2395POPC   D2A33064  23.129   0.476   8.513
 2395POPC   C3A33065  23.056   0.413   8.081
 2395POPC   C4A33066  22.757   0.326   7.771
 2395POPC   C1B33067  23.100   0.056   8.795
 2395POPC   C2B33068  23.179  44.954   8.325
 2395POPC   C3B33069  23.148  44.977   7.851
 2395POPC   C4B33070  23.309   0.215   7.458
 2396POPC   NC333071   7.869  44.838   9.301
 2396POPC   PO433072   7.900  44.191   9.383
 2396POPC   GL133073   8.142  44.451   9.079
 2396POPC   GL233074   8.365  44.755   9.207
 2396POPC   C1A33075   8.169  44.727   8.701
 2396POPC   D2A33076   8.240  44.643   8.272
 2396POPC   C3A33077   7.935  44.643   8.019
 2396POPC   C4A33078   8.065  44.663   7.686
 2396POPC   C1B33079   8.629  44.553   8.965
 2396POPC   C2B33080   8.657  44.567   8.537
 2396POPC   C3B33081   8.768  44.717   8.148
 2396POPC   C4B33082   8.611  44.684   7.736
 2397POPC   NC333083  35.199   4.115   9.475
 2397POPC   PO433084  35.506   4.708   9.468
 2397POPC   GL133085  35.343   4.436   9.112
 2397POPC   GL233086  35.050   4.502   8.936
 2397POPC   C1A33087  35.461   4.344   8.695
 2397POPC   D2A33088  35.671   4.261   8.328
 2397POPC   C3A33089  35.481   4.323   7.970
 2397POPC   C4A33090  35.282   4.542   7.684
 2397POPC   C1B33091  35.012   4.076   8.821
 2397POPC   C2B33092  35.056   3.905   8.408
 2397POPC   C3B33093  35.002   4.106   8.014
 2397POPC   C4B33094  34.889   4.223   7.600
 2398POPC   NC333095   4.923  32.393   9.686
 2398POPC   PO433096   5.539  32.096   9.556
 2398POPC   GL133097   5.184  32.270   9.252
 2398POPC   GL233098   4.818  32.411   9.188
 2398POPC   C1A33099   5.165  32.367   8.802
 2398POPC   D2A33100   5.272  32.529   8.414
 2398POPC   C3A33101   5.302  32.199   8.114
 2398POPC   C4A33102   5.272  32.345   7.684
 2398POPC   C1B33103   4.705  32.117   8.825
 2398POPC   C2B33104   4.834  32.202   8.422
 2398POPC   C3B33105   4.812  32.268   7.994
 2398POPC   C4B33106   5.007  31.901   7.770
 2399POPC   NC333107   5.192  30.309   9.489
 2399POPC   PO433108   5.093  29.670   9.421
 2399POPC   GL133109   4.869  29.790   9.024
 2399POPC   GL233110   4.879  30.147   9.069
 2399POPC   C1A33111   4.712  30.019   8.617
 2399POPC   D2A33112   4.833  30.230   8.215
 2399POPC   C3A33113   5.074  29.993   7.880
 2399POPC   C4A33114   5.007  30.008   7.406
 2399POPC   C1B33115   5.227  30.038   8.766
 2399POPC   C2B33116   5.330  30.168   8.322
 2399POPC   C3B33117   5.598  30.116   7.929
 2399POPC   C4B33118   5.848  30.214   7.533
 2400POPC   NC333119   6.710  42.027   9.476
 2400POPC   PO433120   6.814  42.692   9.476
 2400POPC   GL133121   6.654  42.428   9.136
 2400POPC   GL233122   6.422  42.123   9.054
 2400POPC   C1A33123   6.772  42.428   8.709
 2400POPC   D2A33124   6.875  42.233   8.308
 2400POPC   C3A33125   6.837  42.501   7.916
 2400POPC   C4A33126   6.889  42.607   7.457
 2400POPC   C1B33127   6.562  41.967   8.658
 2400POPC   C2B33128   6.391  41.901   8.286
 2400POPC   C3B33129   6.353  41.808   7.894
 2400POPC   C4B33130   6.296  41.939   7.506
 2401POPC   NC333131  19.510   5.297   9.529
 2401POPC   PO433132  19.942   5.742   9.502
 2401POPC   GL133133  19.777   5.559   9.148
 2401POPC   GL233134  19.424   5.657   9.185
 2401POPC   C1A33135  19.833   5.750   8.744
 2401POPC   D2A33136  20.075   5.896   8.396
 2401POPC   C3A33137  19.901   5.750   8.037
 2401POPC   C4A33138  19.901   5.876   7.605
 2401POPC   C1B33139  19.365   5.540   8.757
 2401POPC   C2B33140  19.466   5.738   8.324
 2401POPC   C3B33141  19.431   5.813   7.851
 2401POPC   C4B33142  19.433   5.948   7.408
 2402POPC   NC333143  13.404  16.405   9.265
 2402POPC   PO433144  13.356  15.750   9.547
 2402POPC   GL133145  13.475  15.882   9.167
 2402POPC   GL233146  13.789  16.082   9.096
 2402POPC   C1A33147  13.570  15.752   8.766
 2402POPC   D2A33148  13.434  15.882   8.375
 2402POPC   C3A33149  13.675  15.729   8.064
 2402POPC   C4A33150  13.787  15.859   7.670
 2402POPC   C1B33151  13.638  16.254   8.678
 2402POPC   C2B33152  13.818  16.220   8.268
 2402POPC   C3B33153  13.635  16.305   7.901
 2402POPC   C4B33154  13.173  16.302   7.845
 2403POPC   NC333155  12.345  19.897   9.483
 2403POPC   PO433156  11.781  19.829   9.822
 2403POPC   GL133157  11.829  19.828   9.288
 2403POPC   GL233158  12.157  19.867   9.021
 2403POPC   C1A33159  11.771  19.627   8.832
 2403POPC   D2A33160  11.903  19.774   8.397
 2403POPC   C3A33161  12.013  19.507   8.016
 2403POPC   C4A33162  11.969  19.596   7.554
 2403POPC   C1B33163  12.371  19.917   8.608
 2403POPC   C2B33164  12.280  20.171   8.220
 2403POPC   C3B33165  12.146  19.977   7.835
 2403POPC   C4B33166  12.309  19.962   7.405
 2404POPC   NC333167  41.385  21.544   9.442
 2404POPC   PO433168  41.989  21.344   9.570
 2404POPC   GL133169  41.769  21.364   9.172
 2404POPC   GL233170  41.603  21.044   9.146
 2404POPC   C1A33171  41.586  21.614   8.814
 2404POPC   D2A33172  41.480  21.455   8.399
 2404POPC   C3A33173  41.485  21.619   8.003
 2404POPC   C4A33174  41.814  21.689   7.699
 2404POPC   C1B33175  41.720  21.107   8.709
 2404POPC   C2B33176  41.852  21.060   8.270
 2404POPC   C3B33177  41.727  21.175   7.827
 2404POPC   C4B33178  41.775  21.260   7.376
 2405POPC   NC333179  43.678  25.317   9.437
 2405POPC   PO433180  44.268  25.633   9.284
 2405POPC   GL133181  43.996  25.340   9.018
 2405POPC   GL233182  43.674  25.150   8.965
 2405POPC   C1A33183  44.053  25.130   8.631
 2405POPC   D2A33184  44.270  25.171   8.262
 2405POPC   C3A33185  43.978  25.188   7.965
 2405POPC   C4A33186  43.945  25.245   7.512
 2405POPC   C1B33187  43.622  25.443   8.638
 2405POPC   C2B33188  43.548  25.560   8.221
 2405POPC   C3B33189  43.721  25.582   7.806
 2405POPC   C4B33190  43.637  25.570   7.285
 2406POPC   NC333191  10.596   6.358   9.556
 2406POPC   PO433192  10.321   5.776   9.376
 2406POPC   GL133193  10.536   5.716   9.014
 2406POPC   GL233194  10.801   5.864   9.182
 2406POPC   C1A33195  10.493   5.634   8.575
 2406POPC   D2A33196  10.465   5.918   8.223
 2406POPC   C3A33197  10.339   5.777   7.884
 2406POPC   C4A33198   9.990   5.868   7.684
 2406POPC   C1B33199  10.985   5.755   8.781
 2406POPC   C2B33200  10.955   5.891   8.357
 2406POPC   C3B33201  10.968   5.617   7.975
 2406POPC   C4B33202  10.955   5.553   7.502
 2407POPC   NC333203  17.369   3.211   9.511
 2407POPC   PO433204  17.609   2.543   9.457
 2407POPC   GL133205  17.587   2.889   9.168
 2407POPC   GL233206  17.239   2.895   9.117
 2407POPC   C1A33207  17.642   2.852   8.726
 2407POPC   D2A33208  17.834   2.669   8.369
 2407POPC   C3A33209  17.775   2.934   8.022
 2407POPC   C4A33210  17.822   2.801   7.628
 2407POPC   C1B33211  17.321   2.486   8.891
 2407POPC   C2B33212  17.316   2.351   8.458
 2407POPC   C3B33213  17.407   2.546   8.055
 2407POPC   C4B33214  17.441   2.423   7.613
 2408POPC   NC333215   4.078  36.897   9.359
 2408POPC   PO433216   4.739  36.656   9.491
 2408POPC   GL133217   4.525  36.734   9.151
 2408POPC   GL233218   4.667  37.062   9.119
 2408POPC   C1A33219   4.314  36.775   8.740
 2408POPC   D2A33220   4.394  36.578   8.343
 2408POPC   C3A33221   4.209  36.674   7.940
 2408POPC   C4A33222   4.083  37.089   7.764
 2408POPC   C1B33223   4.827  36.838   8.754
 2408POPC   C2B33224   4.748  36.962   8.335
 2408POPC   C3B33225   4.623  37.059   7.912
 2408POPC   C4B33226   4.851  37.290   7.579
 2409POPC   NC333227  12.417   5.227   9.567
 2409POPC   PO433228  11.921   4.921   9.412
 2409POPC   GL133229  12.215   5.073   9.115
 2409POPC   GL233230  12.329   5.443   9.119
 2409POPC   C1A33231  12.004   5.195   8.758
 2409POPC   D2A33232  11.747   5.130   8.391
 2409POPC   C3A33233  11.932   5.279   8.027
 2409POPC   C4A33234  11.834   5.168   7.640
 2409POPC   C1B33235  12.530   5.317   8.738
 2409POPC   C2B33236  12.321   5.147   8.370
 2409POPC   C3B33237  12.305   4.936   7.998
 2409POPC   C4B33238  12.373   5.249   7.740
 2410POPC   NC333239   1.761  25.651   9.577
 2410POPC   PO433240   1.847  25.010   9.572
 2410POPC   GL133241   1.906  25.117   9.149
 2410POPC   GL233242   1.900  25.464   9.108
 2410POPC   C1A33243   1.816  25.111   8.731
 2410POPC   D2A33244   1.953  25.186   8.353
 2410POPC   C3A33245   1.962  24.854   8.124
 2410POPC   C4A33246   1.936  24.896   7.711
 2410POPC   C1B33247   2.218  25.449   8.767
 2410POPC   C2B33248   2.433  25.535   8.355
 2410POPC   C3B33249   2.165  25.486   7.990
 2410POPC   C4B33250   1.742  25.347   7.871
 2411POPC   NC333251  25.454  22.654   9.360
 2411POPC   PO433252  25.022  23.224   9.416
 2411POPC   GL133253  25.205  23.012   9.098
 2411POPC   GL233254  25.566  23.095   9.087
 2411POPC   C1A33255  25.093  22.792   8.741
 2411POPC   D2A33256  25.117  23.026   8.373
 2411POPC   C3A33257  25.177  22.837   7.988
 2411POPC   C4A33258  25.144  22.929   7.538
 2411POPC   C1B33259  25.561  23.033   8.649
 2411POPC   C2B33260  25.613  23.025   8.187
 2411POPC   C3B33261  25.617  23.010   7.755
 2411POPC   C4B33262  25.534  23.189   7.349
 2412POPC   NC333263   5.797  10.122   9.500
 2412POPC   PO433264   6.207  10.603   9.603
 2412POPC   GL133265   5.935  10.509   9.216
 2412POPC   GL233266   6.124  10.203   9.091
 2412POPC   C1A33267   5.736  10.323   8.800
 2412POPC   D2A33268   5.503  10.239   8.381
 2412POPC   C3A33269   5.522  10.528   7.997
 2412POPC   C4A33270   5.812  10.659   7.621
 2412POPC   C1B33271   6.197  10.236   8.608
 2412POPC   C2B33272   6.213  10.485   8.271
 2412POPC   C3B33273   6.150  10.376   7.852
 2412POPC   C4B33274   5.755  10.132   7.758
 2413POPC   NC333275  43.354   3.464   9.547
 2413POPC   PO433276  42.797   3.823   9.431
 2413POPC   GL133277  43.157   3.707   9.111
 2413POPC   GL233278  43.274   3.323   9.080
 2413POPC   C1A33279  43.207   3.609   8.655
 2413POPC   D2A33280  42.949   3.452   8.314
 2413POPC   C3A33281  42.916   3.622   7.900
 2413POPC   C4A33282  42.922   3.353   7.546
 2413POPC   C1B33283  43.449   3.049   8.772
 2413POPC   C2B33284  43.417   3.231   8.391
 2413POPC   C3B33285  43.281   3.292   7.949
 2413POPC   C4B33286  43.571   3.239   7.610
 2414POPC   NC333287  10.550  37.823   9.446
 2414POPC   PO433288  10.513  37.167   9.568
 2414POPC   GL133289  10.626  37.382   9.146
 2414POPC   GL233290  10.664  37.750   8.968
 2414POPC   C1A33291  10.650  37.340   8.673
 2414POPC   D2A33292  10.551  37.717   8.455
 2414POPC   C3A33293  10.499  37.725   8.046
 2414POPC   C4A33294  10.661  37.445   7.764
 2414POPC   C1B33295  10.266  37.965   8.782
 2414POPC   C2B33296  10.075  37.906   8.350
 2414POPC   C3B33297  10.054  37.933   7.899
 2414POPC   C4B33298  10.186  37.672   7.620
 2415POPC   NC333299  35.477  32.125   9.386
 2415POPC   PO433300  35.401  32.775   9.259
 2415POPC   GL133301  35.476  32.437   8.975
 2415POPC   GL233302  35.168  32.304   9.030
 2415POPC   C1A33303  35.623  32.198   8.604
 2415POPC   D2A33304  35.689  32.147   8.129
 2415POPC   C3A33305  35.637  32.545   7.889
 2415POPC   C4A33306  35.378  32.535   7.498
 2415POPC   C1B33307  35.137  32.017   8.723
 2415POPC   C2B33308  35.191  32.080   8.307
 2415POPC   C3B33309  35.250  32.162   7.860
 2415POPC   C4B33310  34.942  31.962   7.616
 2416POPC   NC333311  22.048  27.797   9.756
 2416POPC   PO433312  22.333  27.199   9.585
 2416POPC   GL133313  22.187  27.422   9.198
 2416POPC   GL233314  22.306  27.772   9.267
 2416POPC   C1A33315  22.022  27.412   8.743
 2416POPC   D2A33316  21.781  27.549   8.378
 2416POPC   C3A33317  22.075  27.487   8.079
 2416POPC   C4A33318  22.061  27.339   7.682
 2416POPC   C1B33319  22.076  27.882   8.890
 2416POPC   C2B33320  22.172  27.873   8.466
 2416POPC   C3B33321  21.994  28.002   8.096
 2416POPC   C4B33322  22.045  27.844   7.686
 2417POPC   NC333323  19.420  33.038   9.494
 2417POPC   PO433324  18.860  32.642   9.558
 2417POPC   GL133325  19.028  32.873   9.171
 2417POPC   GL233326  18.813  32.630   8.980
 2417POPC   C1A33327  19.264  33.137   8.826
 2417POPC   D2A33328  19.256  32.980   8.398
 2417POPC   C3A33329  19.361  33.188   8.041
 2417POPC   C4A33330  19.152  33.202   7.705
 2417POPC   C1B33331  18.816  32.990   8.682
 2417POPC   C2B33332  18.796  33.161   8.267
 2417POPC   C3B33333  18.826  32.900   7.908
 2417POPC   C4B33334  18.713  33.025   7.458
 2418POPC   NC333335  38.779  42.778   9.182
 2418POPC   PO433336  38.527  43.377   9.161
 2418POPC   GL133337  38.345  43.011   9.013
 2418POPC   GL233338  38.081  42.842   9.193
 2418POPC   C1A33339  38.459  42.902   8.595
 2418POPC   D2A33340  38.455  43.197   8.253
 2418POPC   C3A33341  38.502  43.129   7.843
 2418POPC   C4A33342  38.524  43.485   7.596
 2418POPC   C1B33343  37.955  42.836   8.738
 2418POPC   C2B33344  38.069  42.815   8.282
 2418POPC   C3B33345  38.190  42.663   7.887
 2418POPC   C4B33346  38.236  42.876   7.488
 2419POPC   NC333347  24.580   3.324   9.450
 2419POPC   PO433348  24.085   3.791   9.387
 2419POPC   GL133349  24.407   3.669   9.106
 2419POPC   GL233350  24.338   3.324   9.008
 2419POPC   C1A33351  24.627   3.600   8.692
 2419POPC   D2A33352  24.792   3.514   8.282
 2419POPC   C3A33353  24.778   3.686   7.871
 2419POPC   C4A33354  24.702   3.436   7.485
 2419POPC   C1B33355  24.079   3.586   8.744
 2419POPC   C2B33356  24.147   3.559   8.355
 2419POPC   C3B33357  24.338   3.422   8.022
 2419POPC   C4B33358  24.289   3.671   7.670
 2420POPC   NC333359   3.196   1.366   9.388
 2420POPC   PO433360   3.736   1.069   9.598
 2420POPC   GL133361   3.561   1.061   9.185
 2420POPC   GL233362   3.780   0.793   9.090
 2420POPC   C1A33363   3.466   1.359   8.793
 2420POPC   D2A33364   3.654   1.466   8.394
 2420POPC   C3A33365   3.451   1.377   7.989
 2420POPC   C4A33366   3.246   1.502   7.618
 2420POPC   C1B33367   3.906   1.092   8.807
 2420POPC   C2B33368   3.952   1.026   8.399
 2420POPC   C3B33369   3.870   1.109   7.996
 2420POPC   C4B33370   3.609   1.033   7.577
 2421POPC   NC333371  17.954  13.037   9.464
 2421POPC   PO433372  18.585  13.076   9.416
 2421POPC   GL133373  18.324  12.804   9.145
 2421POPC   GL233374  18.581  12.590   8.966
 2421POPC   C1A33375  18.148  12.730   8.720
 2421POPC   D2A33376  18.205  13.002   8.344
 2421POPC   C3A33377  17.997  12.872   7.966
 2421POPC   C4A33378  18.230  12.543   7.822
 2421POPC   C1B33379  18.606  12.988   8.744
 2421POPC   C2B33380  18.766  12.994   8.321
 2421POPC   C3B33381  18.552  12.947   7.942
 2421POPC   C4B33382  18.764  12.814   7.588
 2422POPC   NC333383   4.065  19.583   9.495
 2422POPC   PO433384   4.778  19.431   9.513
 2422POPC   GL133385   4.603  19.581   9.134
 2422POPC   GL233386   4.260  19.673   9.053
 2422POPC   C1A33387   4.639  19.913   8.820
 2422POPC   D2A33388   4.337  20.078   8.526
 2422POPC   C3A33389   4.516  19.959   8.147
 2422POPC   C4A33390   4.355  20.025   7.760
 2422POPC   C1B33391   4.289  19.547   8.655
 2422POPC   C2B33392   4.127  19.637   8.273
 2422POPC   C3B33393   4.350  19.530   7.915
 2422POPC   C4B33394   4.322  19.283   7.588
 2423POPC   NC333395  31.535   6.933   9.525
 2423POPC   PO433396  31.033   6.547   9.541
 2423POPC   GL133397  31.192   6.486   9.146
 2423POPC   GL233398  31.515   6.575   9.142
 2423POPC   C1A33399  31.230   6.608   8.706
 2423POPC   D2A33400  31.366   6.407   8.327
 2423POPC   C3A33401  31.393   6.713   8.022
 2423POPC   C4A33402  31.208   6.879   7.688
 2423POPC   C1B33403  31.703   6.405   8.748
 2423POPC   C2B33404  31.883   6.520   8.344
 2423POPC   C3B33405  31.784   6.403   7.934
 2423POPC   C4B33406  31.712   6.542   7.508
 2424POPC   NC333407  16.873   1.685   9.637
 2424POPC   PO433408  16.632   2.364   9.572
 2424POPC   GL133409  16.831   2.071   9.249
 2424POPC   GL233410  16.850   1.708   9.132
 2424POPC   C1A33411  16.983   2.116   8.829
 2424POPC   D2A33412  16.816   2.120   8.427
 2424POPC   C3A33413  17.062   2.129   8.055
 2424POPC   C4A33414  16.939   2.351   7.698
 2424POPC   C1B33415  16.667   1.691   8.712
 2424POPC   C2B33416  16.491   1.749   8.259
 2424POPC   C3B33417  16.535   1.951   7.814
 2424POPC   C4B33418  16.381   1.754   7.419
 2425POPC   NC333419  20.106  36.328   9.359
 2425POPC   PO433420  19.563  35.907   9.430
 2425POPC   GL133421  19.795  36.007   9.037
 2425POPC   GL233422  19.896  36.329   8.883
 2425POPC   C1A33423  20.081  35.894   8.678
 2425POPC   D2A33424  20.173  35.651   8.282
 2425POPC   C3A33425  19.935  35.872   7.941
 2425POPC   C4A33426  19.874  36.064   7.546
 2425POPC   C1B33427  19.609  36.620   8.644
 2425POPC   C2B33428  19.560  36.529   8.222
 2425POPC   C3B33429  19.835  36.442   7.896
 2425POPC   C4B33430  19.719  36.532   7.468
 2426POPC   NC333431   6.223  37.981   9.425
 2426POPC   PO433432   5.950  37.535   9.822
 2426POPC   GL133433   5.801  37.677   9.322
 2426POPC   GL233434   5.541  37.894   9.188
 2426POPC   C1A33435   5.921  37.901   8.855
 2426POPC   D2A33436   6.177  37.885   8.489
 2426POPC   C3A33437   6.219  37.948   8.048
 2426POPC   C4A33438   6.257  37.689   7.693
 2426POPC   C1B33439   5.492  37.639   8.814
 2426POPC   C2B33440   5.671  37.713   8.392
 2426POPC   C3B33441   5.766  37.679   7.960
 2426POPC   C4B33442   5.624  37.993   7.672
 2427POPC   NC333443   6.099   6.997   9.676
 2427POPC   PO433444   6.146   7.638   9.545
 2427POPC   GL133445   6.035   7.565   9.126
 2427POPC   GL233446   6.036   7.182   9.174
 2427POPC   C1A33447   5.714   7.661   8.777
 2427POPC   D2A33448   5.575   7.717   8.333
 2427POPC   C3A33449   5.609   7.515   7.954
 2427POPC   C4A33450   5.927   7.442   7.756
 2427POPC   C1B33451   5.970   7.235   8.731
 2427POPC   C2B33452   5.889   7.253   8.292
 2427POPC   C3B33453   6.046   7.002   7.956
 2427POPC   C4B33454   5.968   7.025   7.473
 2428POPC   NC333455  14.545  30.580   9.716
 2428POPC   PO433456  14.396  31.014   9.368
 2428POPC   GL133457  14.362  30.592   9.166
 2428POPC   GL233458  14.028  30.553   9.153
 2428POPC   C1A33459  14.388  30.482   8.713
 2428POPC   D2A33460  14.402  30.731   8.330
 2428POPC   C3A33461  14.606  30.596   7.955
 2428POPC   C4A33462  15.028  30.499   7.820
 2428POPC   C1B33463  13.936  30.713   8.765
 2428POPC   C2B33464  13.902  30.602   8.354
 2428POPC   C3B33465  14.062  30.444   7.978
 2428POPC   C4B33466  14.119  30.533   7.546
 2429POPC   NC333467  34.303  41.770   9.441
 2429POPC   PO433468  34.768  41.299   9.475
 2429POPC   GL133469  34.625  41.515   9.127
 2429POPC   GL233470  34.855  41.781   9.154
 2429POPC   C1A33471  34.507  41.568   8.711
 2429POPC   D2A33472  34.433  41.282   8.367
 2429POPC   C3A33473  34.291  41.342   7.984
 2429POPC   C4A33474  34.295  41.754   7.745
 2429POPC   C1B33475  34.997  41.649   8.764
 2429POPC   C2B33476  34.926  41.747   8.360
 2429POPC   C3B33477  34.701  41.628   8.028
 2429POPC   C4B33478  34.671  41.450   7.634
 2430POPC   NC333479  13.832  25.232   9.181
 2430POPC   PO433480  14.293  25.055   9.650
 2430POPC   GL133481  14.433  25.146   9.226
 2430POPC   GL233482  14.330  25.467   9.207
 2430POPC   C1A33483  14.375  25.152   8.736
 2430POPC   D2A33484  14.530  25.450   8.381
 2430POPC   C3A33485  14.539  25.255   7.972
 2430POPC   C4A33486  14.371  24.960   7.715
 2430POPC   C1B33487  14.307  25.641   8.820
 2430POPC   C2B33488  14.042  25.467   8.501
 2430POPC   C3B33489  14.077  25.541   8.093
 2430POPC   C4B33490  14.062  25.362   7.724
 2431POPC   NC333491  31.156  29.089   9.566
 2431POPC   PO433492  31.697  29.541   9.550
 2431POPC   GL133493  31.418  29.385   9.232
 2431POPC   GL233494  31.566  29.067   9.161
 2431POPC   C1A33495  31.222  29.558   8.855
 2431POPC   D2A33496  31.073  29.573   8.403
 2431POPC   C3A33497  31.033  29.147   8.169
 2431POPC   C4A33498  31.180  28.864   7.812
 2431POPC   C1B33499  31.724  28.999   8.721
 2431POPC   C2B33500  31.833  29.089   8.257
 2431POPC   C3B33501  31.693  29.058   7.798
 2431POPC   C4B33502  31.798  29.280   7.378
 2432POPC   NC333503  28.339   1.967   9.642
 2432POPC   PO433504  28.804   2.441   9.520
 2432POPC   GL133505  28.526   2.164   9.211
 2432POPC   GL233506  28.545   1.762   9.231
 2432POPC   C1A33507  28.433   1.944   8.795
 2432POPC   D2A33508  28.447   2.138   8.410
 2432POPC   C3A33509  28.358   1.915   8.039
 2432POPC   C4A33510  28.224   1.872   7.619
 2432POPC   C1B33511  28.867   1.641   8.908
 2432POPC   C2B33512  28.789   1.764   8.492
 2432POPC   C3B33513  28.849   1.729   8.092
 2432POPC   C4B33514  28.795   1.859   7.722
 2433POPC   NC333515  40.947  17.775   9.804
 2433POPC   PO433516  40.765  18.354   9.524
 2433POPC   GL133517  40.637  18.367   9.131
 2433POPC   GL233518  40.479  18.684   9.072
 2433POPC   C1A33519  40.734  18.116   8.795
 2433POPC   D2A33520  40.844  18.301   8.415
 2433POPC   C3A33521  40.793  18.158   8.004
 2433POPC   C4A33522  41.127  18.140   7.717
 2433POPC   C1B33523  40.398  18.470   8.661
 2433POPC   C2B33524  40.432  18.505   8.207
 2433POPC   C3B33525  40.438  18.501   7.749
 2433POPC   C4B33526  40.420  18.651   7.280
 2434POPC   NC333527  18.515  31.291   9.473
 2434POPC   PO433528  19.113  31.513   9.890
 2434POPC   GL133529  19.028  31.388   9.422
 2434POPC   GL233530  19.150  31.670   9.248
 2434POPC   C1A33531  19.214  31.244   8.972
 2434POPC   D2A33532  19.108  31.079   8.521
 2434POPC   C3A33533  19.109  31.282   8.115
 2434POPC   C4A33534  19.203  31.196   7.696
 2434POPC   C1B33535  19.244  31.773   8.818
 2434POPC   C2B33536  19.236  31.861   8.365
 2434POPC   C3B33537  19.372  31.709   7.965
 2434POPC   C4B33538  19.148  31.681   7.584
 2435POPC   NC333539  17.311  28.242   9.578
 2435POPC   PO433540  17.763  28.764   9.383
 2435POPC   GL133541  17.623  28.331   9.174
 2435POPC   GL233542  17.256  28.189   9.090
 2435POPC   C1A33543  17.664  28.082   8.799
 2435POPC   D2A33544  17.783  28.249   8.382
 2435POPC   C3A33545  17.529  28.266   8.025
 2435POPC   C4A33546  17.240  28.181   7.720
 2435POPC   C1B33547  17.245  28.348   8.675
 2435POPC   C2B33548  17.082  28.349   8.253
 2435POPC   C3B33549  17.157  28.630   7.913
 2435POPC   C4B33550  17.184  28.600   7.419
 2436POPC   NC333551  32.616   2.809   9.367
 2436POPC   PO433552  33.229   2.546   9.484
 2436POPC   GL133553  33.074   2.713   9.104
 2436POPC   GL233554  33.244   2.444   8.964
 2436POPC   C1A33555  32.819   2.943   8.757
 2436POPC   D2A33556  32.566   2.844   8.382
 2436POPC   C3A33557  32.832   2.963   8.032
 2436POPC   C4A33558  32.993   2.809   7.661
 2436POPC   C1B33559  33.272   2.716   8.605
 2436POPC   C2B33560  33.279   2.749   8.144
 2436POPC   C3B33561  33.454   2.651   7.743
 2436POPC   C4B33562  33.291   2.606   7.281
 2437POPC   NC333563  15.828  43.999   9.599
 2437POPC   PO433564  16.405  43.679   9.509
 2437POPC   GL133565  16.137  43.862   9.220
 2437POPC   GL233566  15.926  43.614   9.131
 2437POPC   C1A33567  16.164  43.968   8.783
 2437POPC   D2A33568  15.926  43.947   8.417
 2437POPC   C3A33569  16.018  43.991   8.009
 2437POPC   C4A33570  15.821  44.166   7.659
 2437POPC   C1B33571  15.860  43.530   8.674
 2437POPC   C2B33572  15.695  43.519   8.242
 2437POPC   C3B33573  15.538  43.828   7.922
 2437POPC   C4B33574  15.484  43.836   7.443
 2438POPC   NC333575  31.996  10.354   9.637
 2438POPC   PO433576  32.539  10.696   9.708
 2438POPC   GL133577  32.356  10.501   9.293
 2438POPC   GL233578  32.331  10.774   9.073
 2438POPC   C1A33579  32.135  10.281   8.911
 2438POPC   D2A33580  32.131  10.151   8.449
 2438POPC   C3A33581  32.146  10.447   8.086
 2438POPC   C4A33582  32.178  10.374   7.620
 2438POPC   C1B33583  32.256  10.688   8.633
 2438POPC   C2B33584  32.391  10.877   8.277
 2438POPC   C3B33585  32.157  10.951   7.920
 2438POPC   C4B33586  32.449  10.800   7.677
 2439POPC   NC333587   0.721  32.892   9.551
 2439POPC   PO433588   0.053  32.849   9.571
 2439POPC   GL133589   0.185  33.206   9.271
 2439POPC   GL233590   0.491  33.060   9.137
 2439POPC   C1A33591   0.291  33.416   8.861
 2439POPC   D2A33592   0.300  33.154   8.510
 2439POPC   C3A33593   0.264  33.266   8.127
 2439POPC   C4A33594   0.291  33.093   7.767
 2439POPC   C1B33595   0.732  33.142   8.753
 2439POPC   C2B33596   0.917  33.111   8.362
 2439POPC   C3B33597   0.759  32.969   7.968
 2439POPC   C4B33598   0.724  33.024   7.522
 2440POPC   NC333599  39.376  11.677   9.420
 2440POPC   PO433600  39.347  11.013   9.429
 2440POPC   GL133601  39.310  11.095   8.975
 2440POPC   GL233602  39.447  11.452   8.976
 2440POPC   C1A33603  39.109  11.339   8.609
 2440POPC   D2A33604  38.845  11.596   8.309
 2440POPC   C3A33605  38.776  11.454   7.887
 2440POPC   C4A33606  38.983  11.188   7.580
 2440POPC   C1B33607  39.622  11.263   8.609
 2440POPC   C2B33608  39.411  10.981   8.374
 2440POPC   C3B33609  39.161  11.164   8.084
 2440POPC   C4B33610  39.290  11.526   7.849
 2441POPC   NC333611  27.835   5.848   9.528
 2441POPC   PO433612  27.166   5.970   9.357
 2441POPC   GL133613  27.502   5.870   9.133
 2441POPC   GL233614  27.736   6.120   9.105
 2441POPC   C1A33615  27.619   5.707   8.765
 2441POPC   D2A33616  27.672   5.691   8.342
 2441POPC   C3A33617  27.300   5.804   8.132
 2441POPC   C4A33618  27.391   5.900   7.720
 2441POPC   C1B33619  27.955   6.112   8.723
 2441POPC   C2B33620  28.063   6.043   8.304
 2441POPC   C3B33621  27.833   6.023   7.939
 2441POPC   C4B33622  27.928   6.012   7.492
 2442POPC   NC333623  43.074   0.783   9.578
 2442POPC   PO433624  43.400   1.346   9.669
 2442POPC   GL133625  43.357   1.005   9.226
 2442POPC   GL233626  42.996   0.977   9.110
 2442POPC   C1A33627  43.375   1.115   8.691
 2442POPC   D2A33628  43.523   1.397   8.342
 2442POPC   C3A33629  43.314   1.486   7.937
 2442POPC   C4A33630  43.082   1.265   7.645
 2442POPC   C1B33631  42.853   1.126   8.711
 2442POPC   C2B33632  42.991   1.163   8.288
 2442POPC   C3B33633  42.882   0.893   7.939
 2442POPC   C4B33634  42.756   0.901   7.504
 2443POPC   NC333635  36.790  17.851   9.531
 2443POPC   PO433636  37.153  18.407   9.622
 2443POPC   GL133637  36.884  18.373   9.218
 2443POPC   GL233638  36.937  18.051   9.095
 2443POPC   C1A33639  36.642  18.359   8.798
 2443POPC   D2A33640  36.774  18.173   8.401
 2443POPC   C3A33641  36.691  18.339   8.022
 2443POPC   C4A33642  36.684  18.745   7.869
 2443POPC   C1B33643  37.138  18.269   8.745
 2443POPC   C2B33644  37.284  18.280   8.322
 2443POPC   C3B33645  37.190  18.437   7.947
 2443POPC   C4B33646  36.980  18.321   7.590
 2444POPC   NC333647  36.160  35.008   9.318
 2444POPC   PO433648  36.132  34.389   9.547
 2444POPC   GL133649  36.032  34.521   9.145
 2444POPC   GL233650  35.764  34.763   9.087
 2444POPC   C1A33651  36.153  34.647   8.736
 2444POPC   D2A33652  36.371  34.692   8.372
 2444POPC   C3A33653  36.114  34.582   8.056
 2444POPC   C4A33654  36.189  34.656   7.676
 2444POPC   C1B33655  35.633  34.649   8.701
 2444POPC   C2B33656  35.799  34.405   8.411
 2444POPC   C3B33657  35.855  34.100   8.067
 2444POPC   C4B33658  35.918  34.199   7.636
 2445POPC   NC333659  14.634   6.304   9.517
 2445POPC   PO433660  14.175   6.819   9.483
 2445POPC   GL133661  14.240   6.520   9.137
 2445POPC   GL233662  14.518   6.292   9.033
 2445POPC   C1A33663  14.130   6.518   8.719
 2445POPC   D2A33664  14.240   6.461   8.284
 2445POPC   C3A33665  14.201   6.742   7.965
 2445POPC   C4A33666  14.227   6.535   7.601
 2445POPC   C1B33667  14.604   6.273   8.609
 2445POPC   C2B33668  14.600   6.128   8.194
 2445POPC   C3B33669  14.657   6.371   7.847
 2445POPC   C4B33670  15.036   6.494   7.630
 2446POPC   NC333671  13.169  24.644   9.410
 2446POPC   PO433672  13.811  24.808   9.366
 2446POPC   GL133673  13.621  24.417   9.144
 2446POPC   GL233674  13.288  24.203   9.168
 2446POPC   C1A33675  13.485  24.432   8.711
 2446POPC   D2A33676  13.475  24.780   8.433
 2446POPC   C3A33677  13.452  24.648   8.056
 2446POPC   C4A33678  13.727  24.400   7.838
 2446POPC   C1B33679  13.069  24.167   8.765
 2446POPC   C2B33680  13.073  24.378   8.341
 2446POPC   C3B33681  13.121  24.190   7.896
 2446POPC   C4B33682  13.415  24.124   7.509
 2447POPC   NC333683   1.290  31.199   9.441
 2447POPC   PO433684   1.473  31.933   9.484
 2447POPC   GL133685   1.496  31.668   9.130
 2447POPC   GL233686   1.160  31.570   9.119
 2447POPC   C1A33687   1.395  31.755   8.679
 2447POPC   D2A33688   1.111  31.723   8.305
 2447POPC   C3A33689   1.329  31.800   7.907
 2447POPC   C4A33690   1.189  31.683   7.516
 2447POPC   C1B33691   0.999  31.414   8.752
 2447POPC   C2B33692   0.906  31.245   8.360
 2447POPC   C3B33693   1.080  31.312   7.946
 2447POPC   C4B33694   1.055  31.179   7.517
 2448POPC   NC333695  11.607  24.827   9.390
 2448POPC   PO433696  11.170  25.402   9.506
 2448POPC   GL133697  11.231  25.389   9.082
 2448POPC   GL233698  11.137  25.024   9.064
 2448POPC   C1A33699  11.160  25.489   8.639
 2448POPC   D2A33700  11.195  25.260   8.236
 2448POPC   C3A33701  10.912  25.248   7.846
 2448POPC   C4A33702  11.005  25.073   7.387
 2448POPC   C1B33703  11.437  25.053   8.735
 2448POPC   C2B33704  11.695  25.342   8.524
 2448POPC   C3B33705  11.717  25.338   8.096
 2448POPC   C4B33706  11.601  25.636   7.757
 2449POPC   NC333707  20.683  41.097   9.774
 2449POPC   PO433708  20.384  40.557   9.432
 2449POPC   GL133709  20.662  40.843   9.233
 2449POPC   GL233710  20.433  41.101   9.303
 2449POPC   C1A33711  20.828  40.779   8.805
 2449POPC   D2A33712  20.957  40.638   8.344
 2449POPC   C3A33713  20.835  40.882   7.938
 2449POPC   C4A33714  20.609  40.653   7.563
 2449POPC   C1B33715  20.475  41.133   8.838
 2449POPC   C2B33716  20.491  40.877   8.447
 2449POPC   C3B33717  20.358  40.996   8.055
 2449POPC   C4B33718  20.376  41.134   7.661
 2450POPC   NC333719  10.239  21.055   9.365
 2450POPC   PO433720  10.844  21.389   9.541
 2450POPC   GL133721  10.594  21.471   9.177
 2450POPC   GL233722  10.671  21.136   9.064
 2450POPC   C1A33723  10.413  21.435   8.753
 2450POPC   D2A33724  10.603  21.245   8.371
 2450POPC   C3A33725  10.572  21.451   7.955
 2450POPC   C4A33726  10.584  21.800   7.675
 2450POPC   C1B33727  10.401  20.917   8.737
 2450POPC   C2B33728  10.329  20.820   8.300
 2450POPC   C3B33729  10.523  20.958   7.921
 2450POPC   C4B33730  10.275  21.097   7.603
 2451POPC   NC333731  16.362  12.999   9.471
 2451POPC   PO433732  15.679  12.733   9.602
 2451POPC   GL133733  15.779  12.896   9.167
 2451POPC   GL233734  16.038  13.163   9.130
 2451POPC   C1A33735  16.002  12.871   8.725
 2451POPC   D2A33736  16.106  12.741   8.289
 2451POPC   C3A33737  15.870  13.016   8.038
 2451POPC   C4A33738  15.726  12.880   7.662
 2451POPC   C1B33739  16.303  13.316   8.800
 2451POPC   C2B33740  16.238  13.224   8.366
 2451POPC   C3B33741  16.402  13.073   7.971
 2451POPC   C4B33742  16.241  12.891   7.573
 2452POPC   NC333743  33.475  24.019   9.611
 2452POPC   PO433744  33.935  23.500   9.562
 2452POPC   GL133745  33.742  23.633   9.136
 2452POPC   GL233746  34.033  23.815   8.934
 2452POPC   C1A33747  33.727  23.523   8.663
 2452POPC   D2A33748  33.879  23.803   8.348
 2452POPC   C3A33749  33.841  23.695   7.912
 2452POPC   C4A33750  33.577  23.403   7.722
 2452POPC   C1B33751  33.662  24.063   8.759
 2452POPC   C2B33752  33.436  24.205   8.354
 2452POPC   C3B33753  33.511  24.160   7.897
 2452POPC   C4B33754  33.567  23.901   7.517
 2453POPC   NC333755  40.140  16.960   9.387
 2453POPC   PO433756  39.986  16.305   9.360
 2453POPC   GL133757  40.111  16.562   9.035
 2453POPC   GL233758  39.861  16.819   8.960
 2453POPC   C1A33759  40.123  16.504   8.599
 2453POPC   D2A33760  39.900  16.421   8.224
 2453POPC   C3A33761  40.130  16.672   7.953
 2453POPC   C4A33762  40.393  16.539   7.636
 2453POPC   C1B33763  40.216  17.005   8.747
 2453POPC   C2B33764  40.377  16.978   8.321
 2453POPC   C3B33765  40.179  17.185   7.983
 2453POPC   C4B33766  39.762  17.142   7.820
 2454POPC   NC333767  20.309  14.280   9.656
 2454POPC   PO433768  20.994  14.287   9.595
 2454POPC   GL133769  20.674  14.381   9.294
 2454POPC   GL233770  20.561  14.731   9.336
 2454POPC   C1A33771  20.671  14.392   8.856
 2454POPC   D2A33772  20.631  14.152   8.493
 2454POPC   C3A33773  20.577  14.409   8.146
 2454POPC   C4A33774  20.597  14.256   7.725
 2454POPC   C1B33775  20.330  14.758   8.942
 2454POPC   C2B33776  20.264  14.710   8.492
 2454POPC   C3B33777  20.147  14.731   8.083
 2454POPC   C4B33778  20.458  14.747   7.785
 2455POPC   NC333779  32.162  20.246   9.538
 2455POPC   PO433780  32.295  19.639   9.654
 2455POPC   GL133781  32.388  19.814   9.235
 2455POPC   GL233782  32.070  19.844   9.215
 2455POPC   C1A33783  32.574  19.931   8.831
 2455POPC   D2A33784  32.667  19.782   8.421
 2455POPC   C3A33785  32.474  19.722   8.035
 2455POPC   C4A33786  32.417  19.918   7.670
 2455POPC   C1B33787  32.058  19.989   8.811
 2455POPC   C2B33788  32.147  19.933   8.404
 2455POPC   C3B33789  32.035  20.035   7.989
 2455POPC   C4B33790  31.934  19.721   7.715
 2456POPC   NC333791   3.510  27.996   9.178
 2456POPC   PO433792   3.166  27.410   9.492
 2456POPC   GL133793   3.305  27.522   9.137
 2456POPC   GL233794   3.062  27.776   9.114
 2456POPC   C1A33795   3.574  27.456   8.767
 2456POPC   D2A33796   3.670  27.735   8.392
 2456POPC   C3A33797   3.775  27.550   7.996
 2456POPC   C4A33798   3.800  27.634   7.564
 2456POPC   C1B33799   3.109  27.662   8.679
 2456POPC   C2B33800   3.168  27.830   8.263
 2456POPC   C3B33801   3.309  27.711   7.857
 2456POPC   C4B33802   3.422  27.310   7.701
 2457POPC   NC333803  16.595  44.139   9.414
 2457POPC   PO433804  17.184  43.824   9.391
 2457POPC   GL133805  16.923  43.915   9.051
 2457POPC   GL233806  16.602  43.786   9.049
 2457POPC   C1A33807  16.817  43.881   8.619
 2457POPC   D2A33808  16.477  43.905   8.355
 2457POPC   C3A33809  16.687  44.157   8.114
 2457POPC   C4A33810  17.025  44.066   7.843
 2457POPC   C1B33811  16.379  43.519   8.743
 2457POPC   C2B33812  16.207  43.486   8.302
 2457POPC   C3B33813  16.305  43.571   7.887
 2457POPC   C4B33814  16.437  43.948   7.735
 2458POPC   NC333815  40.319  15.977   9.427
 2458POPC   PO433816  39.685  15.664   9.576
 2458POPC   GL133817  39.649  15.925   9.176
 2458POPC   GL233818  39.960  15.868   9.108
 2458POPC   C1A33819  39.702  15.817   8.693
 2458POPC   D2A33820  39.572  15.875   8.260
 2458POPC   C3A33821  39.806  15.994   7.897
 2458POPC   C4A33822  39.911  16.352   7.622
 2458POPC   C1B33823  40.170  16.018   8.774
 2458POPC   C2B33824  40.107  15.978   8.353
 2458POPC   C3B33825  40.290  16.151   7.996
 2458POPC   C4B33826  40.273  15.984   7.589
 2459POPC   NC333827  30.152   1.180   9.527
 2459POPC   PO433828  29.723   1.723   9.461
 2459POPC   GL133829  29.891   1.435   9.144
 2459POPC   GL233830  29.825   1.052   9.151
 2459POPC   C1A33831  29.936   1.349   8.717
 2459POPC   D2A33832  30.066   1.255   8.296
 2459POPC   C3A33833  29.938   1.511   7.970
 2459POPC   C4A33834  29.751   1.400   7.624
 2459POPC   C1B33835  29.767   0.857   8.747
 2459POPC   C2B33836  29.648   0.958   8.332
 2459POPC   C3B33837  29.771   0.954   7.912
 2459POPC   C4B33838  29.713   0.633   7.609
 2460POPC   NC333839  28.619  22.638   9.310
 2460POPC   PO433840  28.137  22.200   9.421
 2460POPC   GL133841  28.253  22.371   9.051
 2460POPC   GL233842  28.052  22.627   8.899
 2460POPC   C1A33843  28.267  22.197   8.655
 2460POPC   D2A33844  28.179  22.416   8.302
 2460POPC   C3A33845  28.264  22.253   7.900
 2460POPC   C4A33846  28.150  22.098   7.480
 2460POPC   C1B33847  28.457  22.688   8.670
 2460POPC   C2B33848  28.732  22.732   8.310
 2460POPC   C3B33849  28.751  22.508   7.933
 2460POPC   C4B33850  28.500  22.588   7.582
 2461POPC   NC333851  15.721  23.634   9.519
 2461POPC   PO433852  16.260  23.510   9.472
 2461POPC   GL133853  16.040  23.633   9.062
 2461POPC   GL233854  15.795  23.914   9.086
 2461POPC   C1A33855  16.103  23.507   8.599
 2461POPC   D2A33856  16.145  23.344   8.130
 2461POPC   C3A33857  16.314  23.479   7.715
 2461POPC   C4A33858  16.345  23.891   7.512
 2461POPC   C1B33859  15.921  23.988   8.648
 2461POPC   C2B33860  15.883  23.784   8.237
 2461POPC   C3B33861  15.924  23.778   7.808
 2461POPC   C4B33862  15.852  24.149   7.549
 2462POPC   NC333863  18.136  39.509   9.590
 2462POPC   PO433864  18.192  38.843   9.565
 2462POPC   GL133865  18.118  39.075   9.226
 2462POPC   GL233866  18.229  38.799   9.040
 2462POPC   C1A33867  18.138  39.370   8.882
 2462POPC   D2A33868  18.393  39.454   8.497
 2462POPC   C3A33869  18.125  39.375   8.132
 2462POPC   C4A33870  18.183  39.477   7.696
 2462POPC   C1B33871  18.282  38.931   8.617
 2462POPC   C2B33872  18.566  39.001   8.284
 2462POPC   C3B33873  18.444  39.067   7.881
 2462POPC   C4B33874  18.049  39.002   7.700
 2463POPC   NC333875  25.045  35.384   9.599
 2463POPC   PO433876  25.716  35.101   9.593
 2463POPC   GL133877  25.384  35.171   9.273
 2463POPC   GL233878  25.206  35.463   9.119
 2463POPC   C1A33879  25.344  35.095   8.815
 2463POPC   D2A33880  25.121  35.137   8.425
 2463POPC   C3A33881  25.356  35.145   8.015
 2463POPC   C4A33882  25.341  35.045   7.549
 2463POPC   C1B33883  25.188  35.592   8.692
 2463POPC   C2B33884  25.189  35.611   8.260
 2463POPC   C3B33885  25.080  35.559   7.842
 2463POPC   C4B33886  25.170  35.545   7.398
 2464POPC   NC333887   6.824   1.999   9.514
 2464POPC   PO433888   6.189   2.192   9.409
 2464POPC   GL133889   6.531   2.165   9.129
 2464POPC   GL233890   6.630   1.793   9.097
 2464POPC   C1A33891   6.728   2.144   8.728
 2464POPC   D2A33892   6.817   1.847   8.403
 2464POPC   C3A33893   6.770   2.087   8.047
 2464POPC   C4A33894   6.609   2.068   7.664
 2464POPC   C1B33895   6.465   1.637   8.719
 2464POPC   C2B33896   6.435   1.470   8.307
 2464POPC   C3B33897   6.351   1.699   7.925
 2464POPC   C4B33898   6.354   1.596   7.475
 2465POPC   NC333899  33.758  40.461   9.185
 2465POPC   PO433900  34.058  39.955   9.553
 2465POPC   GL133901  34.029  40.019   9.127
 2465POPC   GL233902  33.692  39.889   9.110
 2465POPC   C1A33903  33.902  40.101   8.686
 2465POPC   D2A33904  33.696  39.943   8.350
 2465POPC   C3A33905  33.726  40.150   7.961
 2465POPC   C4A33906  33.521  40.227   7.584
 2465POPC   C1B33907  33.932  39.617   8.836
 2465POPC   C2B33908  34.070  39.554   8.429
 2465POPC   C3B33909  33.985  39.705   8.026
 2465POPC   C4B33910  33.719  39.730   7.657
 2466POPC   NC333911  10.505  38.843   9.571
 2466POPC   PO433912  10.757  38.233   9.446
 2466POPC   GL133913  10.583  38.280   9.049
 2466POPC   GL233914  10.432  38.616   9.109
 2466POPC   C1A33915  10.726  38.194   8.606
 2466POPC   D2A33916  10.809  38.197   8.140
 2466POPC   C3A33917  10.421  38.313   7.932
 2466POPC   C4A33918  10.196  38.713   7.952
 2466POPC   C1B33919  10.703  38.695   8.758
 2466POPC   C2B33920  10.578  38.673   8.326
 2466POPC   C3B33921  10.717  38.741   7.918
 2466POPC   C4B33922  10.721  38.961   7.536
 2467POPC   NC333923  19.840  44.277   9.881
 2467POPC   PO433924  19.707  44.750   9.388
 2467POPC   GL133925  19.838  44.664   9.048
 2467POPC   GL233926  19.616  44.371   9.054
 2467POPC   C1A33927  19.937  44.546   8.684
 2467POPC   D2A33928  19.790  44.555   8.294
 2467POPC   C3A33929  20.027  44.744   7.958
 2467POPC   C4A33930  19.967  44.714   7.504
 2467POPC   C1B33931  19.446  44.229   8.681
 2467POPC   C2B33932  19.373  44.258   8.264
 2467POPC   C3B33933  19.524  44.432   7.881
 2467POPC   C4B33934  19.713  44.258   7.542
 2468POPC   NC333935   3.149  14.370   9.508
 2468POPC   PO433936   3.814  14.174   9.417
 2468POPC   GL133937   3.553  14.371   9.138
 2468POPC   GL233938   3.856  14.465   8.964
 2468POPC   C1A33939   3.322  14.138   8.811
 2468POPC   D2A33940   3.494  14.029   8.393
 2468POPC   C3A33941   3.386  14.245   8.026
 2468POPC   C4A33942   3.270  14.607   7.827
 2468POPC   C1B33943   3.608  14.507   8.612
 2468POPC   C2B33944   3.627  14.737   8.253
 2468POPC   C3B33945   3.833  14.594   7.919
 2468POPC   C4B33946   3.667  14.466   7.543
 2469POPC   NC333947  42.391  24.638   9.755
 2469POPC   PO433948  43.015  24.414   9.480
 2469POPC   GL133949  43.206  24.396   9.061
 2469POPC   GL233950  43.409  24.702   8.951
 2469POPC   C1A33951  43.055  24.501   8.654
 2469POPC   D2A33952  42.922  24.761   8.320
 2469POPC   C3A33953  43.090  24.455   8.072
 2469POPC   C4A33954  43.176  24.262   7.673
 2469POPC   C1B33955  43.288  25.015   8.637
 2469POPC   C2B33956  43.371  25.069   8.191
 2469POPC   C3B33957  43.161  24.899   7.856
 2469POPC   C4B33958  43.179  24.767   7.410
 2470POPC   NC333959   1.007  22.045   9.491
 2470POPC   PO433960   1.445  22.456   9.258
 2470POPC   GL133961   1.278  22.065   9.041
 2470POPC   GL233962   0.970  21.853   9.027
 2470POPC   C1A33963   1.194  22.161   8.627
 2470POPC   D2A33964   1.523  22.413   8.418
 2470POPC   C3A33965   1.372  22.621   8.087
 2470POPC   C4A33966   1.189  22.459   7.760
 2470POPC   C1B33967   0.844  21.604   8.665
 2470POPC   C2B33968   1.032  21.600   8.259
 2470POPC   C3B33969   1.158  21.988   8.022
 2470POPC   C4B33970   0.998  22.020   7.600
 2471POPC   NC333971  12.396   6.104   9.612
 2471POPC   PO433972  11.755   6.238   9.554
 2471POPC   GL133973  11.877   5.956   9.229
 2471POPC   GL233974  12.238   5.958   9.155
 2471POPC   C1A33975  11.876   5.698   8.866
 2471POPC   D2A33976  11.991   5.585   8.438
 2471POPC   C3A33977  11.873   5.794   8.063
 2471POPC   C4A33978  11.854   5.685   7.654
 2471POPC   C1B33979  12.355   5.795   8.743
 2471POPC   C2B33980  12.482   5.644   8.308
 2471POPC   C3B33981  12.347   5.745   7.887
 2471POPC   C4B33982  12.537   6.102   7.643
 2472POPC   NC333983  29.997  26.678   9.420
 2472POPC   PO433984  29.376  26.701   9.414
 2472POPC   GL133985  29.627  26.647   9.054
 2472POPC   GL233986  29.747  26.995   9.043
 2472POPC   C1A33987  29.873  26.578   8.669
 2472POPC   D2A33988  30.165  26.523   8.303
 2472POPC   C3A33989  30.271  26.859   8.012
 2472POPC   C4A33990  30.056  26.922   7.637
 2472POPC   C1B33991  29.441  26.978   8.720
 2472POPC   C2B33992  29.510  26.763   8.351
 2472POPC   C3B33993  29.692  26.843   7.966
 2472POPC   C4B33994  29.500  26.968   7.562
 2473POPC   NC333995   0.429  41.337   9.569
 2473POPC   PO433996   0.831  41.783   9.702
 2473POPC   GL133997   0.555  41.757   9.277
 2473POPC   GL233998   0.213  41.635   9.206
 2473POPC   C1A33999   0.573  41.656   8.799
 2473POPC   D2A34000   0.797  41.581   8.383
 2473POPC   C3A34001   0.521  41.491   7.979
 2473POPC   C4A34002   0.377  41.737   7.609
 2473POPC   C1B34003   0.170  41.312   8.901
 2473POPC   C2B34004   0.096  41.206   8.474
 2473POPC   C3B34005   0.014  41.295   8.061
 2473POPC   C4B34006   0.157  41.293   7.631
 2474POPC   NC334007  37.941  20.645   9.530
 2474POPC   PO434008  38.522  20.469   9.673
 2474POPC   GL134009  38.607  20.813   9.355
 2474POPC   GL234010  38.305  20.809   9.161
 2474POPC   C1A34011  38.756  20.784   8.916
 2474POPC   D2A34012  38.519  20.706   8.519
 2474POPC   C3A34013  38.721  20.463   8.195
 2474POPC   C4A34014  38.738  20.595   7.765
 2474POPC   C1B34015  38.205  20.463   8.843
 2474POPC   C2B34016  38.001  20.519   8.407
 2474POPC   C3B34017  38.282  20.696   8.062
 2474POPC   C4B34018  38.245  20.827   7.618
 2475POPC   NC334019  15.403  43.099   9.497
 2475POPC   PO434020  14.790  43.469   9.503
 2475POPC   GL134021  14.963  43.176   9.236
 2475POPC   GL234022  15.199  43.381   9.140
 2475POPC   C1A34023  14.986  43.014   8.828
 2475POPC   D2A34024  15.192  43.053   8.424
 2475POPC   C3A34025  14.987  42.982   8.008
 2475POPC   C4A34026  15.386  43.013   7.829
 2475POPC   C1B34027  15.260  43.508   8.733
 2475POPC   C2B34028  14.994  43.534   8.422
 2475POPC   C3B34029  15.212  43.442   8.082
 2475POPC   C4B34030  15.159  43.489   7.696
 2476POPC   NC334031  13.929  26.084   9.669
 2476POPC   PO434032  13.512  25.673   9.735
 2476POPC   GL134033  13.815  25.775   9.289
 2476POPC   GL234034  13.772  26.142   9.165
 2476POPC   C1A34035  13.748  25.756   8.800
 2476POPC   D2A34036  13.801  25.891   8.382
 2476POPC   C3A34037  13.593  25.685   8.036
 2476POPC   C4A34038  13.790  25.780   7.683
 2476POPC   C1B34039  13.524  26.209   8.775
 2476POPC   C2B34040  13.688  26.381   8.404
 2476POPC   C3B34041  13.657  26.220   8.007
 2476POPC   C4B34042  13.376  26.052   7.702
 2477POPC   NC334043  13.313  35.924   9.524
 2477POPC   PO434044  13.843  36.259   9.658
 2477POPC   GL134045  13.759  36.330   9.232
 2477POPC   GL234046  13.398  36.273   9.140
 2477POPC   C1A34047  13.748  36.391   8.794
 2477POPC   D2A34048  13.607  36.407   8.388
 2477POPC   C3A34049  13.895  36.343   8.078
 2477POPC   C4A34050  13.796  36.487   7.731
 2477POPC   C1B34051  13.228  36.218   8.717
 2477POPC   C2B34052  13.246  36.047   8.257
 2477POPC   C3B34053  13.225  35.804   7.813
 2477POPC   C4B34054  13.255  35.894   7.327
 2478POPC   NC334055  35.777  29.258   9.385
 2478POPC   PO434056  36.405  28.945   9.458
 2478POPC   GL134057  36.195  28.963   9.075
 2478POPC   GL234058  36.181  29.323   9.072
 2478POPC   C1A34059  35.900  28.836   8.719
 2478POPC   D2A34060  35.797  28.831   8.239
 2478POPC   C3A34061  35.965  29.120   7.924
 2478POPC   C4A34062  35.915  29.552   7.762
 2478POPC   C1B34063  36.193  29.235   8.640
 2478POPC   C2B34064  36.156  29.470   8.259
 2478POPC   C3B34065  36.406  29.419   7.897
 2478POPC   C4B34066  36.272  29.348   7.468
 2479POPC   NC334067   2.060  26.756   9.636
 2479POPC   PO434068   1.671  26.439   9.225
 2479POPC   GL134069   1.921  26.809   9.126
 2479POPC   GL234070   2.260  26.714   9.143
 2479POPC   C1A34071   2.105  26.954   8.733
 2479POPC   D2A34072   2.088  27.143   8.309
 2479POPC   C3A34073   1.726  26.988   8.103
 2479POPC   C4A34074   1.856  26.692   7.821
 2479POPC   C1B34075   2.167  26.448   8.749
 2479POPC   C2B34076   2.078  26.465   8.288
 2479POPC   C3B34077   2.257  26.389   7.883
 2479POPC   C4B34078   2.446  26.578   7.533
 2480POPC   NC334079  28.254   8.382   9.555
 2480POPC   PO434080  28.826   8.073   9.457
 2480POPC   GL134081  28.649   8.157   9.072
 2480POPC   GL234082  28.293   8.118   9.123
 2480POPC   C1A34083  28.608   8.157   8.621
 2480POPC   D2A34084  28.484   8.370   8.255
 2480POPC   C3A34085  28.719   8.275   7.850
 2480POPC   C4A34086  28.516   8.448   7.469
 2480POPC   C1B34087  28.108   8.156   8.722
 2480POPC   C2B34088  28.172   7.924   8.359
 2480POPC   C3B34089  28.383   7.939   8.003
 2480POPC   C4B34090  28.177   8.298   7.824
 2481POPC   NC334091  18.824  11.888   9.557
 2481POPC   PO434092  19.494  11.779   9.503
 2481POPC   GL134093  19.289  12.132   9.245
 2481POPC   GL234094  18.902  12.206   9.173
 2481POPC   C1A34095  19.232  12.281   8.826
 2481POPC   D2A34096  19.031  12.233   8.448
 2481POPC   C3A34097  19.259  12.002   8.167
 2481POPC   C4A34098  19.321  11.996   7.709
 2481POPC   C1B34099  18.696  11.927   8.857
 2481POPC   C2B34100  18.745  11.813   8.404
 2481POPC   C3B34101  18.761  12.046   8.003
 2481POPC   C4B34102  18.767  11.828   7.619
 2482POPC   NC334103  38.774  30.125   9.523
 2482POPC   PO434104  38.225  29.760   9.418
 2482POPC   GL134105  38.405  30.027   9.169
 2482POPC   GL234106  38.647  29.824   9.102
 2482POPC   C1A34107  38.335  30.201   8.786
 2482POPC   D2A34108  38.403  30.076   8.362
 2482POPC   C3A34109  38.090  29.801   8.147
 2482POPC   C4A34110  38.303  29.935   7.809
 2482POPC   C1B34111  38.826  30.007   8.795
 2482POPC   C2B34112  39.031  30.060   8.435
 2482POPC   C3B34113  38.832  30.018   8.049
 2482POPC   C4B34114  38.785  29.723   7.745
 2483POPC   NC334115   9.395  23.093   9.665
 2483POPC   PO434116   9.776  22.589   9.532
 2483POPC   GL134117   9.732  22.824   9.173
 2483POPC   GL234118   9.479  23.077   9.170
 2483POPC   C1A34119   9.833  22.741   8.763
 2483POPC   D2A34120   9.951  22.613   8.337
 2483POPC   C3A34121   9.820  22.845   7.943
 2483POPC   C4A34122   9.691  22.740   7.484
 2483POPC   C1B34123   9.364  22.912   8.764
 2483POPC   C2B34124   9.482  22.789   8.383
 2483POPC   C3B34125   9.321  22.825   8.011
 2483POPC   C4B34126   9.406  23.076   7.731
 2484POPC   NC334127  19.904  38.075   9.452
 2484POPC   PO434128  19.905  37.418   9.431
 2484POPC   GL134129  19.929  37.623   9.044
 2484POPC   GL234130  19.712  37.899   9.022
 2484POPC   C1A34131  19.768  37.665   8.589
 2484POPC   D2A34132  19.624  37.739   8.164
 2484POPC   C3A34133  19.841  37.510   7.873
 2484POPC   C4A34134  20.176  37.251   7.928
 2484POPC   C1B34135  20.099  38.036   8.783
 2484POPC   C2B34136  20.266  38.120   8.346
 2484POPC   C3B34137  20.144  37.988   7.930
 2484POPC   C4B34138  19.726  38.036   7.756
 2485POPC   NC334139  15.706  44.589   9.320
 2485POPC   PO434140  16.217  44.386   9.541
 2485POPC   GL134141  16.176  44.366   9.100
 2485POPC   GL234142  16.188  44.699   9.043
 2485POPC   C1A34143  15.892  44.389   8.710
 2485POPC   D2A34144  15.636  44.349   8.302
 2485POPC   C3A34145  15.792  44.586   7.964
 2485POPC   C4A34146  15.952  44.647   7.552
 2485POPC   C1B34147  16.251  44.776   8.595
 2485POPC   C2B34148  16.181  44.876   8.142
 2485POPC   C3B34149  16.181   0.072   7.733
 2485POPC   C4B34150  16.055   0.098   7.299
 2486POPC   NC334151   9.442  12.206   9.576
 2486POPC   PO434152   9.898  11.702   9.396
 2486POPC   GL134153   9.804  12.037   9.135
 2486POPC   GL234154   9.465  12.049   9.082
 2486POPC   C1A34155  10.010  12.206   8.767
 2486POPC   D2A34156  10.095  12.351   8.343
 2486POPC   C3A34157  10.010  12.135   7.967
 2486POPC   C4A34158   9.946  12.194   7.513
 2486POPC   C1B34159   9.456  11.991   8.636
 2486POPC   C2B34160   9.593  12.227   8.269
 2486POPC   C3B34161   9.546  12.249   7.799
 2486POPC   C4B34162   9.489  12.442   7.380
 2487POPC   NC334163   3.639  33.225   9.373
 2487POPC   PO434164   3.096  32.630   9.393
 2487POPC   GL134165   3.313  32.909   9.074
 2487POPC   GL234166   3.215  33.267   9.086
 2487POPC   C1A34167   3.597  32.873   8.700
 2487POPC   D2A34168   3.782  33.147   8.371
 2487POPC   C3A34169   3.729  32.912   7.997
 2487POPC   C4A34170   3.548  32.919   7.595
 2487POPC   C1B34171   3.239  33.227   8.662
 2487POPC   C2B34172   3.220  33.418   8.302
 2487POPC   C3B34173   3.368  33.371   7.912
 2487POPC   C4B34174   3.777  33.372   7.756
 2488POPC   NC334175  29.664  23.791   9.501
 2488POPC   PO434176  30.204  23.547   9.454
 2488POPC   GL134177  30.029  23.857   9.146
 2488POPC   GL234178  29.829  23.566   9.051
 2488POPC   C1A34179  29.930  23.896   8.681
 2488POPC   D2A34180  30.036  23.653   8.298
 2488POPC   C3A34181  30.040  23.904   7.902
 2488POPC   C4A34182  29.858  24.334   7.825
 2488POPC   C1B34183  29.739  23.347   8.656
 2488POPC   C2B34184  29.518  23.455   8.267
 2488POPC   C3B34185  29.574  23.495   7.794
 2488POPC   C4B34186  29.619  23.407   7.327
 2489POPC   NC334187  33.525  14.910   9.334
 2489POPC   PO434188  33.864  15.473   9.477
 2489POPC   GL134189  33.783  15.313   9.109
 2489POPC   GL234190  33.457  15.441   9.142
 2489POPC   C1A34191  33.931  14.988   8.786
 2489POPC   D2A34192  33.882  14.811   8.385
 2489POPC   C3A34193  34.089  14.940   8.037
 2489POPC   C4A34194  33.997  15.261   7.767
 2489POPC   C1B34195  33.540  15.293   8.678
 2489POPC   C2B34196  33.691  15.273   8.222
 2489POPC   C3B34197  33.521  15.455   7.828
 2489POPC   C4B34198  33.416  15.525   7.373
 2490POPC   NC334199  10.785  24.258   9.366
 2490POPC   PO434200  10.349  24.786   9.508
 2490POPC   GL134201  10.648  24.743   9.168
 2490POPC   GL234202  10.467  24.486   8.987
 2490POPC   C1A34203  10.781  24.840   8.764
 2490POPC   D2A34204  10.519  24.695   8.460
 2490POPC   C3A34205  10.691  24.602   8.079
 2490POPC   C4A34206  10.403  24.462   7.783
 2490POPC   C1B34207  10.810  24.324   8.708
 2490POPC   C2B34208  11.050  24.280   8.314
 2490POPC   C3B34209  10.908  24.182   7.864
 2490POPC   C4B34210  10.684  24.218   7.445
 2491POPC   NC334211  10.810  34.507   9.566
 2491POPC   PO434212  10.205  34.618   9.590
 2491POPC   GL134213  10.466  34.618   9.185
 2491POPC   GL234214  10.684  34.312   9.118
 2491POPC   C1A34215  10.461  34.583   8.726
 2491POPC   D2A34216  10.301  34.350   8.356
 2491POPC   C3A34217  10.260  34.667   8.050
 2491POPC   C4A34218  10.638  34.862   7.905
 2491POPC   C1B34219  10.873  34.290   8.698
 2491POPC   C2B34220  10.776  34.478   8.294
 2491POPC   C3B34221  10.629  34.341   7.928
 2491POPC   C4B34222  10.693  34.079   7.589
 2492POPC   NC334223  37.674  29.019   9.574
 2492POPC   PO434224  37.280  29.510   9.203
 2492POPC   GL134225  37.547  29.214   9.030
 2492POPC   GL234226  37.854  29.196   9.101
 2492POPC   C1A34227  37.602  29.141   8.617
 2492POPC   D2A34228  37.794  28.909   8.320
 2492POPC   C3A34229  37.495  29.062   8.033
 2492POPC   C4A34230  37.214  28.849   7.832
 2492POPC   C1B34231  38.066  29.084   8.740
 2492POPC   C2B34232  38.137  29.312   8.359
 2492POPC   C3B34233  37.977  29.207   7.945
 2492POPC   C4B34234  37.851  28.792   7.767
 2493POPC   NC334235  16.906  40.307   9.620
 2493POPC   PO434236  16.650  39.613   9.668
 2493POPC   GL134237  16.601  39.993   9.315
 2493POPC   GL234238  16.341  40.259   9.380
 2493POPC   C1A34239  16.828  40.037   8.882
 2493POPC   D2A34240  16.940  39.934   8.453
 2493POPC   C3A34241  16.815  40.069   8.072
 2493POPC   C4A34242  16.974  39.978   7.677
 2493POPC   C1B34243  16.546  40.429   9.013
 2493POPC   C2B34244  16.683  40.401   8.555
 2493POPC   C3B34245  16.656  40.559   8.119
 2493POPC   C4B34246  16.611  40.393   7.691
 2494POPC   NC334247  33.643  15.886   9.479
 2494POPC   PO434248  34.236  16.113   9.223
 2494POPC   GL134249  33.895  16.300   8.992
 2494POPC   GL234250  33.549  16.222   9.085
 2494POPC   C1A34251  33.796  16.111   8.585
 2494POPC   D2A34252  33.984  15.700   8.449
 2494POPC   C3A34253  33.979  15.691   8.032
 2494POPC   C4A34254  33.985  16.088   7.813
 2494POPC   C1B34255  33.448  15.829   8.832
 2494POPC   C2B34256  33.484  15.701   8.406
 2494POPC   C3B34257  33.539  15.937   8.083
 2494POPC   C4B34258  33.472  15.952   7.673
 2495POPC   NC334259  24.165  40.129   9.476
 2495POPC   PO434260  24.580  39.649   9.411
 2495POPC   GL134261  24.413  39.925   9.078
 2495POPC   GL234262  24.624  40.193   9.144
 2495POPC   C1A34263  24.274  40.013   8.637
 2495POPC   D2A34264  24.325  39.782   8.226
 2495POPC   C3A34265  24.336  39.993   7.842
 2495POPC   C4A34266  24.463  39.852   7.449
 2495POPC   C1B34267  24.763  40.155   8.720
 2495POPC   C2B34268  24.655  40.184   8.271
 2495POPC   C3B34269  24.812  40.191   7.838
 2495POPC   C4B34270  24.718  40.275   7.394
 2496POPC   NC334271  42.511   9.973   9.390
 2496POPC   PO434272  42.433   9.382   9.628
 2496POPC   GL134273  42.235   9.486   9.209
 2496POPC   GL234274  42.053   9.835   9.179
 2496POPC   C1A34275  42.288   9.640   8.777
 2496POPC   D2A34276  42.157   9.662   8.340
 2496POPC   C3A34277  42.515   9.711   8.086
 2496POPC   C4A34278  42.792   9.485   7.854
 2496POPC   C1B34279  42.035  10.080   8.750
 2496POPC   C2B34280  42.110  10.225   8.305
 2496POPC   C3B34281  42.157  10.014   7.893
 2496POPC   C4B34282  42.127   9.568   7.775
 2497POPC   NC334283  34.827  13.774   9.466
 2497POPC   PO434284  34.329  13.327   9.351
 2497POPC   GL134285  34.516  13.580   9.060
 2497POPC   GL234286  34.780  13.810   8.958
 2497POPC   C1A34287  34.392  13.629   8.653
 2497POPC   D2A34288  34.199  13.854   8.339
 2497POPC   C3A34289  34.537  13.736   8.083
 2497POPC   C4A34290  34.535  13.528   7.709
 2497POPC   C1B34291  34.840  13.382   8.716
 2497POPC   C2B34292  34.815  13.179   8.312
 2497POPC   C3B34293  34.975  13.332   7.911
 2497POPC   C4B34294  34.961  13.782   7.755
 2498POPC   NC334295   4.556  15.452   9.546
 2498POPC   PO434296   3.987  15.069   9.529
 2498POPC   GL134297   4.208  15.130   9.175
 2498POPC   GL234298   4.028  14.952   8.966
 2498POPC   C1A34299   4.386  15.364   8.839
 2498POPC   D2A34300   4.521  15.263   8.451
 2498POPC   C3A34301   4.336  15.369   8.072
 2498POPC   C4A34302   4.400  15.265   7.693
 2498POPC   C1B34303   4.213  14.704   8.662
 2498POPC   C2B34304   4.244  14.739   8.239
 2498POPC   C3B34305   4.302  14.794   7.856
 2498POPC   C4B34306   4.047  14.838   7.501
 2499POPC   NC334307  41.842   4.603   9.356
 2499POPC   PO434308  42.316   4.215   9.703
 2499POPC   GL134309  42.393   4.169   9.236
 2499POPC   GL234310  42.497   4.515   9.170
 2499POPC   C1A34311  42.498   4.057   8.811
 2499POPC   D2A34312  42.540   4.327   8.464
 2499POPC   C3A34313  42.377   4.292   8.041
 2499POPC   C4A34314  42.629   4.595   7.797
 2499POPC   C1B34315  42.198   4.465   8.840
 2499POPC   C2B34316  42.073   4.550   8.450
 2499POPC   C3B34317  42.169   4.747   8.114
 2499POPC   C4B34318  42.106   4.690   7.707
 2500POPC   NC334319  43.088  22.254   9.544
 2500POPC   PO434320  42.771  21.779   9.272
 2500POPC   GL134321  42.992  22.161   9.036
 2500POPC   GL234322  43.371  22.219   9.112
 2500POPC   C1A34323  43.221  22.442   8.696
 2500POPC   D2A34324  43.341  22.641   8.289
 2500POPC   C3A34325  43.317  22.327   7.977
 2500POPC   C4A34326  42.915  22.116   7.794
 2500POPC   C1B34327  43.343  21.905   8.724
 2500POPC   C2B34328  43.298  21.803   8.230
 2500POPC   C3B34329  43.381  21.875   7.755
 2500POPC   C4B34330  43.608  21.926   7.318
 2501POPC   NC334331  36.915  35.238   9.501
 2501POPC   PO434332  37.504  35.278   9.494
 2501POPC   GL134333  37.243  35.131   9.094
 2501POPC   GL234334  36.862  35.017   9.062
 2501POPC   C1A34335  37.018  35.296   8.687
 2501POPC   D2A34336  37.120  35.304   8.254
 2501POPC   C3A34337  36.819  35.337   7.911
 2501POPC   C4A34338  36.947  35.075   7.559
 2501POPC   C1B34339  36.544  35.042   8.756
 2501POPC   C2B34340  36.598  35.165   8.353
 2501POPC   C3B34341  36.404  35.019   7.983
 2501POPC   C4B34342  36.445  35.153   7.590
 2502POPC   NC334343  44.595  26.810   9.528
 2502POPC   PO434344  44.835  27.334   9.335
 2502POPC   GL134345  44.726  26.999   9.088
 2502POPC   GL234346  44.908  26.718   9.136
 2502POPC   C1A34347  44.519  26.706   8.779
 2502POPC   D2A34348  44.650  26.797   8.349
 2502POPC   C3A34349  44.449  26.764   7.937
 2502POPC   C4A34350  44.247  27.092   7.689
 2502POPC   C1B34351   0.035  26.800   8.742
 2502POPC   C2B34352   0.102  26.579   8.419
 2502POPC   C3B34353  44.902  26.418   8.090
 2502POPC   C4B34354  44.929  26.642   7.710
 2503POPC   NC334355  22.470  36.256   9.544
 2503POPC   PO434356  21.860  35.871   9.615
 2503POPC   GL134357  22.033  35.852   9.201
 2503POPC   GL234358  22.103  36.184   9.175
 2503POPC   C1A34359  22.204  35.911   8.758
 2503POPC   D2A34360  22.461  36.124   8.420
 2503POPC   C3A34361  22.367  35.977   7.986
 2503POPC   C4A34362  21.977  36.049   7.771
 2503POPC   C1B34363  22.261  36.445   8.880
 2503POPC   C2B34364  22.239  36.595   8.473
 2503POPC   C3B34365  22.189  36.450   8.055
 2503POPC   C4B34366  22.340  36.405   7.652
 2504POPC   NC334367   7.133   2.534   9.840
 2504POPC   PO434368   7.546   3.084   9.634
 2504POPC   GL134369   7.546   2.843   9.232
 2504POPC   GL234370   7.355   2.510   9.283
 2504POPC   C1A34371   7.560   2.649   8.817
 2504POPC   D2A34372   7.391   2.750   8.420
 2504POPC   C3A34373   7.548   2.771   8.007
 2504POPC   C4A34374   7.379   2.823   7.597
 2504POPC   C1B34375   7.209   2.288   8.898
 2504POPC   C2B34376   7.295   2.227   8.448
 2504POPC   C3B34377   7.199   2.394   8.029
 2504POPC   C4B34378   7.471   2.331   7.695
 2505POPC   NC334379  24.624  41.870   9.485
 2505POPC   PO434380  24.207  41.392   9.457
 2505POPC   GL134381  24.370  41.510   9.077
 2505POPC   GL234382  24.367  41.881   9.054
 2505POPC   C1A34383  24.410  41.581   8.646
 2505POPC   D2A34384  24.290  41.861   8.376
 2505POPC   C3A34385  24.413  41.626   8.052
 2505POPC   C4A34386  24.247  41.426   7.707
 2505POPC   C1B34387  24.745  41.945   8.769
 2505POPC   C2B34388  24.766  42.023   8.312
 2505POPC   C3B34389  24.768  41.976   7.874
 2505POPC   C4B34390  24.727  41.625   7.615
 2506POPC   NC334391   1.610   1.822   9.615
 2506POPC   PO434392   2.145   1.574   9.309
 2506POPC   GL134393   1.991   1.736   9.020
 2506POPC   GL234394   1.968   2.070   9.107
 2506POPC   C1A34395   2.068   1.576   8.628
 2506POPC   D2A34396   2.245   1.656   8.283
 2506POPC   C3A34397   2.028   1.637   7.948
 2506POPC   C4A34398   1.839   1.725   7.574
 2506POPC   C1B34399   2.244   2.036   8.717
 2506POPC   C2B34400   2.129   2.160   8.293
 2506POPC   C3B34401   1.969   2.122   7.873
 2506POPC   C4B34402   2.177   2.344   7.551
 2507POPC   NC334403  27.929  35.924   9.372
 2507POPC   PO434404  27.295  36.236   9.376
 2507POPC   GL134405  27.566  36.360   9.074
 2507POPC   GL234406  27.903  36.424   9.206
 2507POPC   C1A34407  27.553  36.299   8.634
 2507POPC   D2A34408  27.429  36.044   8.319
 2507POPC   C3A34409  27.390  36.222   7.918
 2507POPC   C4A34410  27.351  36.118   7.481
 2507POPC   C1B34411  28.035  36.253   8.823
 2507POPC   C2B34412  28.037  36.299   8.425
 2507POPC   C3B34413  27.903  36.091   8.077
 2507POPC   C4B34414  27.821  36.165   7.692
 2508POPC   NC334415   3.732  44.763   9.536
 2508POPC   PO434416   3.138  44.366   9.467
 2508POPC   GL134417   3.343  44.758   9.193
 2508POPC   GL234418   3.724  44.867   9.061
 2508POPC   C1A34419   3.357  44.922   8.731
 2508POPC   D2A34420   3.516  44.711   8.316
 2508POPC   C3A34421   3.373  44.758   7.866
 2508POPC   C4A34422   3.479  44.626   7.411
 2508POPC   C1B34423   3.879  44.909   8.671
 2508POPC   C2B34424   4.026  44.610   8.355
 2508POPC   C3B34425   3.873  44.549   7.942
 2508POPC   C4B34426   3.849  44.860   7.643
 2509POPC   NC334427  21.729  39.091   9.649
 2509POPC   PO434428  22.431  39.116   9.556
 2509POPC   GL134429  22.296  39.218   9.155
 2509POPC   GL234430  21.936  39.160   9.174
 2509POPC   C1A34431  22.297  39.521   8.816
 2509POPC   D2A34432  22.081  39.488   8.424
 2509POPC   C3A34433  22.286  39.584   8.029
 2509POPC   C4A34434  22.368  39.292   7.736
 2509POPC   C1B34435  21.758  39.109   8.753
 2509POPC   C2B34436  21.893  39.007   8.337
 2509POPC   C3B34437  21.903  39.256   7.965
 2509POPC   C4B34438  21.656  39.169   7.653
 2510POPC   NC334439  21.946  43.554   9.423
 2510POPC   PO434440  21.740  42.926   9.604
 2510POPC   GL134441  21.907  43.021   9.179
 2510POPC   GL234442  22.207  43.236   9.147
 2510POPC   C1A34443  22.123  42.918   8.777
 2510POPC   D2A34444  22.353  42.758   8.444
 2510POPC   C3A34445  22.164  42.891   8.096
 2510POPC   C4A34446  22.062  43.181   7.818
 2510POPC   C1B34447  22.470  43.363   8.767
 2510POPC   C2B34448  22.653  43.217   8.370
 2510POPC   C3B34449  22.560  43.172   7.926
 2510POPC   C4B34450  22.487  43.475   7.605
 2511POPC   NC334451   1.526  12.320   9.649
 2511POPC   PO434452   2.246  12.207   9.678
 2511POPC   GL134453   2.052  12.277   9.284
 2511POPC   GL234454   1.962  11.947   9.173
 2511POPC   C1A34455   2.044  12.279   8.800
 2511POPC   D2A34456   1.818  12.096   8.405
 2511POPC   C3A34457   2.025  12.146   8.032
 2511POPC   C4A34458   1.926  12.116   7.587
 2511POPC   C1B34459   1.968  11.745   8.730
 2511POPC   C2B34460   2.107  11.668   8.271
 2511POPC   C3B34461   2.129  11.702   7.799
 2511POPC   C4B34462   2.217  11.521   7.373
 2512POPC   NC334463  27.802  43.262   9.548
 2512POPC   PO434464  27.493  42.748   9.536
 2512POPC   GL134465  27.464  43.049   9.184
 2512POPC   GL234466  27.478  43.438   9.172
 2512POPC   C1A34467  27.626  42.974   8.766
 2512POPC   D2A34468  27.573  42.880   8.318
 2512POPC   C3A34469  27.771  43.100   8.002
 2512POPC   C4A34470  28.053  42.927   7.693
 2512POPC   C1B34471  27.388  43.415   8.724
 2512POPC   C2B34472  27.386  43.411   8.274
 2512POPC   C3B34473  27.294  43.250   7.876
 2512POPC   C4B34474  27.644  43.373   7.602
 2513POPC   NC334475  31.048  15.282   9.445
 2513POPC   PO434476  30.495  14.892   9.471
 2513POPC   GL134477  30.690  15.042   9.079
 2513POPC   GL234478  30.994  14.929   8.967
 2513POPC   C1A34479  30.618  15.090   8.616
 2513POPC   D2A34480  30.730  15.094   8.186
 2513POPC   C3A34481  30.458  14.931   7.860
 2513POPC   C4A34482  30.158  15.071   7.530
 2513POPC   C1B34483  31.010  15.369   8.767
 2513POPC   C2B34484  31.085  15.521   8.318
 2513POPC   C3B34485  30.965  15.430   7.886
 2513POPC   C4B34486  30.968  14.994   7.727
 2514POPC   NC334487  43.302  32.019   9.912
 2514POPC   PO434488  43.257  31.346   9.656
 2514POPC   GL134489  43.114  31.473   9.207
 2514POPC   GL234490  43.048  31.147   9.098
 2514POPC   C1A34491  43.035  31.608   8.803
 2514POPC   D2A34492  42.979  31.294   8.505
 2514POPC   C3A34493  43.060  31.447   8.119
 2514POPC   C4A34494  42.893  31.407   7.733
 2514POPC   C1B34495  43.412  31.227   8.799
 2514POPC   C2B34496  43.496  31.371   8.371
 2514POPC   C3B34497  43.562  31.252   7.947
 2514POPC   C4B34498  43.373  31.418   7.546
 2515POPC   NC334499   4.528  33.702   9.669
 2515POPC   PO434500   3.915  33.590   9.465
 2515POPC   GL134501   4.287  33.746   9.237
 2515POPC   GL234502   4.519  33.458   9.212
 2515POPC   C1A34503   4.474  33.912   8.878
 2515POPC   D2A34504   4.487  33.777   8.433
 2515POPC   C3A34505   4.573  34.030   8.064
 2515POPC   C4A34506   4.485  33.984   7.621
 2515POPC   C1B34507   4.605  33.388   8.776
 2515POPC   C2B34508   4.823  33.412   8.343
 2515POPC   C3B34509   4.585  33.499   7.953
 2515POPC   C4B34510   4.262  33.488   7.607
 2516POPC   NC334511  28.077  10.740   9.327
 2516POPC   PO434512  28.564  10.296   9.497
 2516POPC   GL134513  28.439  10.411   9.098
 2516POPC   GL234514  28.553  10.767   9.038
 2516POPC   C1A34515  28.666  10.341   8.709
 2516POPC   D2A34516  28.559  10.142   8.324
 2516POPC   C3A34517  28.453  10.452   8.009
 2516POPC   C4A34518  28.622  10.538   7.578
 2516POPC   C1B34519  28.267  10.677   8.691
 2516POPC   C2B34520  28.113  10.839   8.297
 2516POPC   C3B34521  28.035  10.705   7.867
 2516POPC   C4B34522  28.193  10.777   7.421
 2517POPC   NC334523  12.340  31.768   9.591
 2517POPC   PO434524  11.778  31.551   9.652
 2517POPC   GL134525  11.974  31.347   9.288
 2517POPC   GL234526  12.276  31.482   9.144
 2517POPC   C1A34527  11.965  31.314   8.795
 2517POPC   D2A34528  12.041  31.568   8.399
 2517POPC   C3A34529  11.903  31.372   8.018
 2517POPC   C4A34530  11.884  31.628   7.672
 2517POPC   C1B34531  12.446  31.531   8.723
 2517POPC   C2B34532  12.563  31.462   8.288
 2517POPC   C3B34533  12.386  31.446   7.882
 2517POPC   C4B34534  12.500  31.450   7.469
 2518POPC   NC334535   7.240   5.996   9.547
 2518POPC   PO434536   7.627   5.589   9.291
 2518POPC   GL134537   7.349   5.883   9.018
 2518POPC   GL234538   7.210   6.248   9.013
 2518POPC   C1A34539   7.458   5.991   8.604
 2518POPC   D2A34540   7.714   5.829   8.307
 2518POPC   C3A34541   7.575   5.719   7.921
 2518POPC   C4A34542   7.288   5.708   7.586
 2518POPC   C1B34543   7.497   6.476   8.719
 2518POPC   C2B34544   7.470   6.438   8.266
 2518POPC   C3B34545   7.349   6.167   7.917
 2518POPC   C4B34546   7.210   6.199   7.481
 2519POPC   NC334547  39.700  22.150   9.454
 2519POPC   PO434548  40.250  21.777   9.508
 2519POPC   GL134549  40.129  22.020   9.155
 2519POPC   GL234550  40.249  22.358   9.135
 2519POPC   C1A34551  40.063  21.871   8.736
 2519POPC   D2A34552  39.929  21.636   8.385
 2519POPC   C3A34553  39.927  21.967   8.069
 2519POPC   C4A34554  40.111  22.082   7.682
 2519POPC   C1B34555  40.033  22.408   8.737
 2519POPC   C2B34556  39.887  22.584   8.313
 2519POPC   C3B34557  39.740  22.437   7.876
 2519POPC   C4B34558  39.795  22.350   7.384
 2520POPC   NC334559  32.630  23.851   9.535
 2520POPC   PO434560  33.253  23.594   9.584
 2520POPC   GL134561  33.194  23.816   9.228
 2520POPC   GL234562  32.873  23.785   9.094
 2520POPC   C1A34563  33.288  23.664   8.844
 2520POPC   D2A34564  33.138  23.770   8.447
 2520POPC   C3A34565  33.383  23.707   8.132
 2520POPC   C4A34566  33.167  23.701   7.761
 2520POPC   C1B34567  32.794  23.511   8.739
 2520POPC   C2B34568  32.768  23.344   8.317
 2520POPC   C3B34569  32.700  23.499   7.870
 2520POPC   C4B34570  32.674  23.917   7.638
 2521POPC   NC334571  10.055  10.666   9.522
 2521POPC   PO434572   9.733  10.165   9.496
 2521POPC   GL134573   9.762  10.446   9.161
 2521POPC   GL234574   9.542  10.691   9.149
 2521POPC   C1A34575   9.948  10.531   8.789
 2521POPC   D2A34576   9.986  10.304   8.390
 2521POPC   C3A34577   9.769  10.463   8.050
 2521POPC   C4A34578   9.889  10.791   7.761
 2521POPC   C1B34579   9.531  10.929   8.820
 2521POPC   C2B34580   9.619  10.749   8.462
 2521POPC   C3B34581   9.510  10.897   8.119
 2521POPC   C4B34582   9.377  10.877   7.772
 2522POPC   NC334583   3.250  43.869   9.559
 2522POPC   PO434584   3.673  44.365   9.749
 2522POPC   GL134585   3.557  44.167   9.286
 2522POPC   GL234586   3.699  44.367   9.135
 2522POPC   C1A34587   3.440  43.992   8.835
 2522POPC   D2A34588   3.388  43.799   8.387
 2522POPC   C3A34589   3.579  43.753   7.941
 2522POPC   C4A34590   3.511  43.729   7.448
 2522POPC   C1B34591   3.680  44.449   8.742
 2522POPC   C2B34592   3.688  44.224   8.408
 2522POPC   C3B34593   3.483  44.238   8.044
 2522POPC   C4B34594   3.641  44.182   7.648
 2523POPC   NC334595  35.108  12.199   9.501
 2523POPC   PO434596  35.742  11.763   9.519
 2523POPC   GL134597  35.599  11.920   9.121
 2523POPC   GL234598  35.386  12.222   9.079
 2523POPC   C1A34599  35.515  11.836   8.717
 2523POPC   D2A34600  35.267  11.798   8.397
 2523POPC   C3A34601  35.335  11.511   8.093
 2523POPC   C4A34602  35.495  11.830   7.834
 2523POPC   C1B34603  35.037  12.394   8.826
 2523POPC   C2B34604  34.960  12.206   8.426
 2523POPC   C3B34605  35.244  12.212   8.077
 2523POPC   C4B34606  35.421  12.374   7.688
 2524POPC   NC334607  10.879  10.234   9.364
 2524POPC   PO434608  10.494  10.823   9.522
 2524POPC   GL134609  10.669  10.681   9.125
 2524POPC   GL234610  10.420  10.442   9.115
 2524POPC   C1A34611  10.449  10.713   8.690
 2524POPC   D2A34612  10.219  10.761   8.272
 2524POPC   C3A34613  10.544  10.782   7.935
 2524POPC   C4A34614  10.754  10.767   7.559
 2524POPC   C1B34615  10.320  10.177   8.756
 2524POPC   C2B34616  10.478  10.087   8.349
 2524POPC   C3B34617  10.353  10.317   8.032
 2524POPC   C4B34618  10.453  10.387   7.623
 2525POPC   NC334619   6.566   9.483   9.507
 2525POPC   PO434620   6.963   9.964   9.466
 2525POPC   GL134621   6.682   9.875   9.154
 2525POPC   GL234622   6.876   9.568   9.116
 2525POPC   C1A34623   6.748   9.845   8.709
 2525POPC   D2A34624   6.644  10.040   8.382
 2525POPC   C3A34625   6.883   9.990   8.037
 2525POPC   C4A34626   6.523  10.040   7.831
 2525POPC   C1B34627   6.587   9.391   8.876
 2525POPC   C2B34628   6.586   9.409   8.484
 2525POPC   C3B34629   6.572   9.602   8.105
 2525POPC   C4B34630   6.606   9.565   7.688
 2526POPC   NC334631  20.232  30.946   9.568
 2526POPC   PO434632  19.582  30.719   9.502
 2526POPC   GL134633  19.706  30.591   9.092
 2526POPC   GL234634  20.036  30.625   9.166
 2526POPC   C1A34635  19.860  30.768   8.700
 2526POPC   D2A34636  19.973  31.020   8.360
 2526POPC   C3A34637  19.881  30.820   8.025
 2526POPC   C4A34638  19.702  30.510   7.809
 2526POPC   C1B34639  20.101  30.349   8.795
 2526POPC   C2B34640  20.243  30.555   8.392
 2526POPC   C3B34641  20.189  30.414   7.968
 2526POPC   C4B34642  20.063  30.227   7.576
 2527POPC   NC334643  41.482  22.476   9.639
 2527POPC   PO434644  41.781  21.881   9.420
 2527POPC   GL134645  41.497  22.129   9.215
 2527POPC   GL234646  41.741  22.375   9.212
 2527POPC   C1A34647  41.433  22.117   8.780
 2527POPC   D2A34648  41.227  22.024   8.386
 2527POPC   C3A34649  41.425  22.123   8.005
 2527POPC   C4A34650  41.345  21.944   7.609
 2527POPC   C1B34651  41.923  22.140   8.832
 2527POPC   C2B34652  41.760  21.928   8.424
 2527POPC   C3B34653  41.945  22.072   8.034
 2527POPC   C4B34654  41.812  22.221   7.632
 2528POPC   NC334655   3.091  11.145   9.418
 2528POPC   PO434656   2.792  11.802   9.555
 2528POPC   GL134657   2.779  11.565   9.169
 2528POPC   GL234658   2.627  11.205   9.176
 2528POPC   C1A34659   2.897  11.678   8.744
 2528POPC   D2A34660   2.652  11.657   8.392
 2528POPC   C3A34661   2.899  11.674   8.002
 2528POPC   C4A34662   2.622  11.652   7.640
 2528POPC   C1B34663   2.779  11.179   8.744
 2528POPC   C2B34664   2.958  11.261   8.330
 2528POPC   C3B34665   2.787  11.177   7.925
 2528POPC   C4B34666   2.556  10.803   7.774
 2529POPC   NC334667  33.391   4.611   9.890
 2529POPC   PO434668  33.940   4.306   9.521
 2529POPC   GL134669  33.793   4.223   9.140
 2529POPC   GL234670  33.437   4.098   9.191
 2529POPC   C1A34671  33.944   4.427   8.742
 2529POPC   D2A34672  33.751   4.572   8.345
 2529POPC   C3A34673  33.910   4.506   7.920
 2529POPC   C4A34674  33.665   4.392   7.545
 2529POPC   C1B34675  33.446   4.278   8.759
 2529POPC   C2B34676  33.489   4.136   8.362
 2529POPC   C3B34677  33.391   4.301   7.951
 2529POPC   C4B34678  33.261   4.101   7.545
 2530POPC   NC334679  21.440   4.093   9.522
 2530POPC   PO434680  20.908   4.481   9.497
 2530POPC   GL134681  21.315   4.511   9.175
 2530POPC   GL234682  21.500   4.186   9.051
 2530POPC   C1A34683  21.527   4.536   8.712
 2530POPC   D2A34684  21.745   4.346   8.360
 2530POPC   C3A34685  21.577   4.384   7.975
 2530POPC   C4A34686  21.507   4.435   7.573
 2530POPC   C1B34687  21.482   4.016   8.669
 2530POPC   C2B34688  21.279   4.126   8.340
 2530POPC   C3B34689  21.305   3.954   7.972
 2530POPC   C4B34690  21.163   4.058   7.609
 2531POPC   NC334691  42.703  25.532   9.490
 2531POPC   PO434692  42.207  25.003   9.511
 2531POPC   GL134693  42.165  25.186   9.105
 2531POPC   GL234694  42.368  25.479   9.106
 2531POPC   C1A34695  42.098  25.323   8.683
 2531POPC   D2A34696  41.979  25.074   8.325
 2531POPC   C3A34697  42.124  25.192   7.923
 2531POPC   C4A34698  41.947  25.103   7.477
 2531POPC   C1B34699  42.677  25.732   8.836
 2531POPC   C2B34700  42.653  25.798   8.373
 2531POPC   C3B34701  42.637  25.628   7.936
 2531POPC   C4B34702  42.428  25.416   7.589
 2532POPC   NC334703  22.551  38.717   9.786
 2532POPC   PO434704  21.916  38.667   9.601
 2532POPC   GL134705  21.975  38.479   9.191
 2532POPC   GL234706  22.138  38.735   8.975
 2532POPC   C1A34707  22.081  38.268   8.784
 2532POPC   D2A34708  22.236  38.543   8.445
 2532POPC   C3A34709  22.148  38.350   8.064
 2532POPC   C4A34710  22.139  38.110   7.689
 2532POPC   C1B34711  22.303  39.027   8.652
 2532POPC   C2B34712  22.381  38.998   8.198
 2532POPC   C3B34713  22.146  38.831   7.867
 2532POPC   C4B34714  22.329  38.859   7.460
 2533POPC   NC334715  28.226  12.314   9.548
 2533POPC   PO434716  28.144  11.643   9.495
 2533POPC   GL134717  28.251  11.967   9.155
 2533POPC   GL234718  27.985  12.173   9.093
 2533POPC   C1A34719  28.435  12.245   8.792
 2533POPC   D2A34720  28.742  12.383   8.468
 2533POPC   C3A34721  28.514  12.369   8.068
 2533POPC   C4A34722  28.297  12.313   7.678
 2533POPC   C1B34723  28.082  11.870   8.707
 2533POPC   C2B34724  28.342  11.926   8.350
 2533POPC   C3B34725  28.198  11.887   7.943
 2533POPC   C4B34726  27.849  11.672   7.757
 2534POPC   NC334727  38.582  33.375   9.537
 2534POPC   PO434728  38.628  32.727   9.413
 2534POPC   GL134729  38.342  32.999   9.215
 2534POPC   GL234730  38.619  33.182   9.075
 2534POPC   C1A34731  38.249  32.919   8.787
 2534POPC   D2A34732  38.221  33.094   8.387
 2534POPC   C3A34733  38.251  32.824   8.062
 2534POPC   C4A34734  38.401  32.866   7.658
 2534POPC   C1B34735  38.681  33.221   8.664
 2534POPC   C2B34736  38.563  33.478   8.349
 2534POPC   C3B34737  38.652  33.301   7.957
 2534POPC   C4B34738  38.830  33.135   7.537
 2535POPC   NC334739  33.015  34.976   9.667
 2535POPC   PO434740  32.800  34.381   9.287
 2535POPC   GL134741  33.021  34.178   9.030
 2535POPC   GL234742  33.338  34.226   9.150
 2535POPC   C1A34743  32.955  34.314   8.625
 2535POPC   D2A34744  32.869  34.742   8.445
 2535POPC   C3A34745  33.012  34.824   8.014
 2535POPC   C4A34746  32.846  34.655   7.629
 2535POPC   C1B34747  33.457  34.315   8.728
 2535POPC   C2B34748  33.312  34.463   8.285
 2535POPC   C3B34749  33.289  34.426   7.828
 2535POPC   C4B34750  33.272  34.475   7.378
 2536POPC   NC334751  11.432  41.236   9.598
 2536POPC   PO434752  11.173  40.591   9.534
 2536POPC   GL134753  11.353  40.580   9.162
 2536POPC   GL234754  11.565  40.860   9.236
 2536POPC   C1A34755  11.152  40.545   8.789
 2536POPC   D2A34756  11.193  40.756   8.422
 2536POPC   C3A34757  11.067  40.576   8.049
 2536POPC   C4A34758  11.277  40.528   7.679
 2536POPC   C1B34759  11.535  40.963   8.819
 2536POPC   C2B34760  11.774  40.960   8.458
 2536POPC   C3B34761  11.586  40.818   8.107
 2536POPC   C4B34762  11.518  40.972   7.749
 2537POPC   NC334763  15.739   1.313   9.724
 2537POPC   PO434764  16.191   0.939   9.720
 2537POPC   GL134765  16.077   1.102   9.262
 2537POPC   GL234766  16.118   1.467   9.138
 2537POPC   C1A34767  15.991   1.118   8.770
 2537POPC   D2A34768  16.012   0.960   8.314
 2537POPC   C3A34769  15.832   1.103   7.903
 2537POPC   C4A34770  15.903   0.861   7.500
 2537POPC   C1B34771  16.156   1.597   8.677
 2537POPC   C2B34772  16.007   1.502   8.253
 2537POPC   C3B34773  16.115   1.571   7.828
 2537POPC   C4B34774  15.834   1.722   7.497
 2538POPC   NC334775  32.059  35.489   9.972
 2538POPC   PO434776  31.745  34.999   9.493
 2538POPC   GL134777  32.080  35.305   9.253
 2538POPC   GL234778  32.005  35.682   9.255
 2538POPC   C1A34779  32.250  35.195   8.837
 2538POPC   D2A34780  32.053  35.233   8.434
 2538POPC   C3A34781  32.195  35.106   8.017
 2538POPC   C4A34782  32.183  35.336   7.597
 2538POPC   C1B34783  31.986  35.654   8.811
 2538POPC   C2B34784  31.828  35.687   8.379
 2538POPC   C3B34785  32.078  35.596   8.042
 2538POPC   C4B34786  32.512  35.589   7.907
 2539POPC   NC334787   8.640   6.459   9.432
 2539POPC   PO434788   8.264   6.978   9.575
 2539POPC   GL134789   8.462   6.868   9.162
 2539POPC   GL234790   8.400   6.503   8.995
 2539POPC   C1A34791   8.514   6.916   8.723
 2539POPC   D2A34792   8.316   6.633   8.427
 2539POPC   C3A34793   8.381   6.678   8.001
 2539POPC   C4A34794   8.229   7.012   7.723
 2539POPC   C1B34795   8.015   6.417   8.773
 2539POPC   C2B34796   7.936   6.277   8.382
 2539POPC   C3B34797   7.868   6.261   7.953
 2539POPC   C4B34798   8.077   6.477   7.623
 2540POPC   NC334799  12.868  13.275   9.464
 2540POPC   PO434800  13.022  13.905   9.455
 2540POPC   GL134801  12.800  13.764   9.130
 2540POPC   GL234802  13.038  13.510   9.033
 2540POPC   C1A34803  12.788  13.805   8.699
 2540POPC   D2A34804  12.671  13.599   8.276
 2540POPC   C3A34805  12.767  13.761   7.842
 2540POPC   C4A34806  12.972  13.726   7.426
 2540POPC   C1B34807  12.812  13.264   8.700
 2540POPC   C2B34808  12.718  13.069   8.298
 2540POPC   C3B34809  12.792  13.175   7.866
 2540POPC   C4B34810  13.187  13.276   7.645
 2541POPC   NC334811  37.905  11.042   9.468
 2541POPC   PO434812  37.354  11.389   9.401
 2541POPC   GL134813  37.641  11.375   9.113
 2541POPC   GL234814  37.735  11.695   9.094
 2541POPC   C1A34815  37.549  11.409   8.691
 2541POPC   D2A34816  37.548  11.152   8.372
 2541POPC   C3A34817  37.871  11.119   8.109
 2541POPC   C4A34818  37.902  11.139   7.722
 2541POPC   C1B34819  37.843  11.822   8.710
 2541POPC   C2B34820  37.895  11.587   8.342
 2541POPC   C3B34821  37.610  11.532   7.996
 2541POPC   C4B34822  37.803  11.632   7.637
 2542POPC   NC334823   5.397  29.296   9.456
 2542POPC   PO434824   5.644  28.605   9.347
 2542POPC   GL134825   5.465  28.909   9.034
 2542POPC   GL234826   5.597  29.250   8.991
 2542POPC   C1A34827   5.396  29.020   8.584
 2542POPC   D2A34828   5.383  29.322   8.262
 2542POPC   C3A34829   5.635  29.140   7.948
 2542POPC   C4A34830   5.641  29.231   7.512
 2542POPC   C1B34831   5.748  29.444   8.588
 2542POPC   C2B34832   5.953  29.475   8.143
 2542POPC   C3B34833   6.115  29.203   7.765
 2542POPC   C4B34834   6.451  29.123   7.449
 2543POPC   NC334835  29.112  14.880   9.627
 2543POPC   PO434836  29.582  14.599   9.460
 2543POPC   GL134837  29.337  14.844   9.133
 2543POPC   GL234838  28.963  14.910   9.137
 2543POPC   C1A34839  29.271  15.145   8.779
 2543POPC   D2A34840  29.364  15.156   8.344
 2543POPC   C3A34841  29.131  15.126   7.960
 2543POPC   C4A34842  29.325  14.988   7.564
 2543POPC   C1B34843  28.933  14.784   8.676
 2543POPC   C2B34844  29.145  14.693   8.279
 2543POPC   C3B34845  29.044  14.634   7.832
 2543POPC   C4B34846  28.823  14.889   7.502
 2544POPC   NC334847  41.168  39.582   9.496
 2544POPC   PO434848  40.467  39.553   9.417
 2544POPC   GL134849  40.807  39.284   9.245
 2544POPC   GL234850  41.017  39.485   9.041
 2544POPC   C1A34851  40.988  39.005   8.883
 2544POPC   D2A34852  40.773  38.875   8.519
 2544POPC   C3A34853  40.866  38.973   8.112
 2544POPC   C4A34854  40.794  39.068   7.714
 2544POPC   C1B34855  40.691  39.412   8.765
 2544POPC   C2B34856  40.920  39.366   8.413
 2544POPC   C3B34857  40.849  39.496   8.007
 2544POPC   C4B34858  40.643  39.521   7.617
 2545POPC   NC334859  35.809   9.718   9.649
 2545POPC   PO434860  36.384   9.888   9.372
 2545POPC   GL134861  36.189   9.708   9.070
 2545POPC   GL234862  36.456   9.762   8.881
 2545POPC   C1A34863  35.935   9.546   8.761
 2545POPC   D2A34864  35.880   9.766   8.361
 2545POPC   C3A34865  35.856   9.551   8.000
 2545POPC   C4A34866  35.938   9.705   7.608
 2545POPC   C1B34867  36.361   9.614   8.493
 2545POPC   C2B34868  36.337   9.777   8.118
 2545POPC   C3B34869  36.644   9.728   7.853
 2545POPC   C4B34870  36.673   9.371   7.681
 2546POPC   NC334871  24.040   3.453   9.691
 2546POPC   PO434872  23.415   3.431   9.463
 2546POPC   GL134873  23.522   3.387   9.091
 2546POPC   GL234874  23.857   3.385   9.173
 2546POPC   C1A34875  23.560   3.580   8.713
 2546POPC   D2A34876  23.657   3.375   8.359
 2546POPC   C3A34877  23.511   3.538   7.998
 2546POPC   C4A34878  23.774   3.835   7.794
 2546POPC   C1B34879  23.884   3.124   8.809
 2546POPC   C2B34880  24.048   3.045   8.405
 2546POPC   C3B34881  23.907   3.084   7.991
 2546POPC   C4B34882  23.908   3.338   7.646
 2547POPC   NC334883  44.902  36.490   9.280
 2547POPC   PO434884  44.381  36.341   9.648
 2547POPC   GL134885  44.544  36.092   9.263
 2547POPC   GL234886  44.843  35.846   9.149
 2547POPC   C1A34887  44.578  36.126   8.812
 2547POPC   D2A34888  44.866  36.150   8.451
 2547POPC   C3A34889  44.661  36.098   8.024
 2547POPC   C4A34890  44.473  36.260   7.664
 2547POPC   C1B34891  44.859  35.683   8.690
 2547POPC   C2B34892  44.929  35.693   8.204
 2547POPC   C3B34893  44.858  35.732   7.721
 2547POPC   C4B34894  44.834  35.661   7.243
 2548POPC   NC334895  41.594  29.424   9.599
 2548POPC   PO434896  41.224  28.951   9.435
 2548POPC   GL134897  41.526  29.154   9.157
 2548POPC   GL234898  41.329  29.486   9.172
 2548POPC   C1A34899  41.844  29.090   8.798
 2548POPC   D2A34900  42.004  28.932   8.370
 2548POPC   C3A34901  41.737  28.912   8.003
 2548POPC   C4A34902  41.349  28.881   7.769
 2548POPC   C1B34903  41.613  29.564   8.840
 2548POPC   C2B34904  41.484  29.533   8.419
 2548POPC   C3B34905  41.420  29.337   8.032
 2548POPC   C4B34906  41.541  29.501   7.682
 2549POPC   NC334907   9.662  21.872   9.399
 2549POPC   PO434908   9.847  21.271   9.423
 2549POPC   GL134909   9.780  21.480   9.092
 2549POPC   GL234910   9.422  21.462   9.187
 2549POPC   C1A34911   9.932  21.258   8.757
 2549POPC   D2A34912   9.857  21.097   8.375
 2549POPC   C3A34913  10.081  21.226   8.058
 2549POPC   C4A34914   9.876  21.377   7.694
 2549POPC   C1B34915   9.419  21.265   8.827
 2549POPC   C2B34916   9.510  21.463   8.459
 2549POPC   C3B34917   9.498  21.351   8.047
 2549POPC   C4B34918   9.437  21.633   7.724
 2550POPC   NC334919  11.167  43.742   9.446
 2550POPC   PO434920  11.736  43.597   9.208
 2550POPC   GL134921  11.328  43.643   8.976
 2550POPC   GL234922  11.103  43.955   8.986
 2550POPC   C1A34923  11.150  43.605   8.581
 2550POPC   D2A34924  11.227  43.421   8.202
 2550POPC   C3A34925  11.389  43.705   7.891
 2550POPC   C4A34926  11.725  43.864   7.627
 2550POPC   C1B34927  11.337  44.086   8.624
 2550POPC   C2B34928  11.190  44.084   8.176
 2550POPC   C3B34929  11.317  44.231   7.748
 2550POPC   C4B34930  11.348  44.311   7.265
 2551POPC   NC334931   1.656  44.192   9.603
 2551POPC   PO434932   1.131  43.777   9.553
 2551POPC   GL134933   1.348  43.965   9.224
 2551POPC   GL234934   1.242  43.684   9.033
 2551POPC   C1A34935   1.360  44.124   8.793
 2551POPC   D2A34936   1.448  43.854   8.424
 2551POPC   C3A34937   1.315  43.964   8.000
 2551POPC   C4A34938   1.498  44.178   7.635
 2551POPC   C1B34939   1.121  43.528   8.612
 2551POPC   C2B34940   0.934  43.388   8.259
 2551POPC   C3B34941   1.043  43.525   7.862
 2551POPC   C4B34942   1.273  43.734   7.539
 2552POPC   NC334943  23.491  27.632   9.546
 2552POPC   PO434944  24.012  27.156   9.492
 2552POPC   GL134945  23.701  27.373   9.148
 2552POPC   GL234946  23.731  27.725   9.090
 2552POPC   C1A34947  23.478  27.460   8.760
 2552POPC   D2A34948  23.391  27.316   8.372
 2552POPC   C3A34949  23.424  27.604   8.058
 2552POPC   C4A34950  23.544  27.551   7.625
 2552POPC   C1B34951  23.968  27.693   8.719
 2552POPC   C2B34952  23.897  27.470   8.337
 2552POPC   C3B34953  23.938  27.665   7.941
 2552POPC   C4B34954  24.252  27.933   7.767
 2553POPC   NC334955  21.160   7.071   9.380
 2553POPC   PO434956  20.632   6.857   9.403
 2553POPC   GL134957  20.898   6.724   9.049
 2553POPC   GL234958  20.714   6.427   8.998
 2553POPC   C1A34959  20.889   6.733   8.557
 2553POPC   D2A34960  20.639   6.600   8.176
 2553POPC   C3A34961  20.694   6.722   7.735
 2553POPC   C4A34962  20.591   7.096   7.451
 2553POPC   C1B34963  21.026   6.273   8.736
 2553POPC   C2B34964  21.041   6.307   8.274
 2553POPC   C3B34965  21.039   6.332   7.822
 2553POPC   C4B34966  20.797   6.292   7.419
 2554POPC   NC334967  19.405  11.323   9.498
 2554POPC   PO434968  18.771  11.436   9.501
 2554POPC   GL134969  19.069  11.654   9.174
 2554POPC   GL234970  19.235  11.377   9.011
 2554POPC   C1A34971  19.194  11.792   8.733
 2554POPC   D2A34972  19.219  11.526   8.383
 2554POPC   C3A34973  19.031  11.606   7.981
 2554POPC   C4A34974  19.168  11.520   7.566
 2554POPC   C1B34975  18.839  11.411   8.723
 2554POPC   C2B34976  18.792  11.263   8.261
 2554POPC   C3B34977  19.145  11.119   7.930
 2554POPC   C4B34978  19.222  11.029   7.465
 2555POPC   NC334979   4.965  40.036   9.446
 2555POPC   PO434980   5.610  40.332   9.455
 2555POPC   GL134981   5.511  40.125   9.026
 2555POPC   GL234982   5.131  40.061   8.983
 2555POPC   C1A34983   5.374  40.046   8.560
 2555POPC   D2A34984   4.922  40.099   8.411
 2555POPC   C3A34985   4.946  40.209   7.975
 2555POPC   C4A34986   5.289  40.025   7.748
 2555POPC   C1B34987   4.910  39.732   8.800
 2555POPC   C2B34988   5.084  39.574   8.443
 2555POPC   C3B34989   4.932  39.704   8.054
 2555POPC   C4B34990   5.052  39.569   7.670
 2556POPC   NC334991  33.546  22.470   9.598
 2556POPC   PO434992  33.404  21.891   9.390
 2556POPC   GL134993  33.464  22.188   9.101
 2556POPC   GL234994  33.791  22.328   9.131
 2556POPC   C1A34995  33.523  22.357   8.691
 2556POPC   D2A34996  33.606  22.081   8.376
 2556POPC   C3A34997  33.666  22.258   7.997
 2556POPC   C4A34998  33.664  22.137   7.582
 2556POPC   C1B34999  33.963  22.081   8.757
 2556POPC   C2B35000  34.112  21.975   8.302
 2556POPC   C3B35001  34.098  22.059   7.848
 2556POPC   C4B35002  34.103  21.988   7.365
 2557POPC   NC335003  24.025   6.475   9.525
 2557POPC   PO435004  23.382   6.821   9.373
 2557POPC   GL135005  23.642   6.797   9.030
 2557POPC   GL235006  23.961   6.756   9.108
 2557POPC   C1A35007  23.801   6.724   8.607
 2557POPC   D2A35008  24.084   6.867   8.322
 2557POPC   C3A35009  23.819   6.902   7.947
 2557POPC   C4A35010  23.597   6.635   7.741
 2557POPC   C1B35011  23.859   6.328   8.922
 2557POPC   C2B35012  23.939   6.205   8.508
 2557POPC   C3B35013  23.869   6.422   8.147
 2557POPC   C4B35014  24.004   6.276   7.780
 2558POPC   NC335015  25.490  24.397   9.613
 2558POPC   PO435016  24.865  24.552   9.531
 2558POPC   GL135017  25.163  24.374   9.224
 2558POPC   GL235018  25.413  24.653   9.168
 2558POPC   C1A35019  25.136  24.349   8.788
 2558POPC   D2A35020  25.272  24.441   8.370
 2558POPC   C3A35021  25.266  24.746   8.027
 2558POPC   C4A35022  25.273  24.514   7.633
 2558POPC   C1B35023  25.605  24.592   8.764
 2558POPC   C2B35024  25.790  24.344   8.428
 2558POPC   C3B35025  25.628  24.355   8.000
 2558POPC   C4B35026  25.728  24.706   7.725
 2559POPC   NC335027   5.421  31.707   9.320
 2559POPC   PO435028   4.765  32.009   9.453
 2559POPC   GL135029   4.904  31.715   9.132
 2559POPC   GL235030   5.143  31.876   8.927
 2559POPC   C1A35031   5.044  31.378   8.818
 2559POPC   D2A35032   4.936  31.230   8.393
 2559POPC   C3A35033   5.079  31.437   8.034
 2559POPC   C4A35034   5.068  31.183   7.720
 2559POPC   C1B35035   5.467  31.736   8.669
 2559POPC   C2B35036   5.495  31.609   8.268
 2559POPC   C3B35037   5.503  31.766   7.868
 2559POPC   C4B35038   5.336  31.587   7.497
 2560POPC   NC335039   0.235  22.656   9.441
 2560POPC   PO435040   0.549  22.037   9.406
 2560POPC   GL135041   0.464  22.304   9.113
 2560POPC   GL235042   0.822  22.378   9.044
 2560POPC   C1A35043   0.181  22.182   8.776
 2560POPC   D2A35044   0.006  22.130   8.358
 2560POPC   C3A35045   0.245  22.149   7.947
 2560POPC   C4A35046   0.341  22.501   7.603
 2560POPC   C1B35047   0.679  22.099   8.697
 2560POPC   C2B35048   0.492  21.853   8.360
 2560POPC   C3B35049   0.670  21.875   7.959
 2560POPC   C4B35050   0.723  22.338   7.897
 2561POPC   NC335051  32.284  16.223   9.211
 2561POPC   PO435052  32.513  15.640   9.489
 2561POPC   GL135053  32.352  15.735   9.078
 2561POPC   GL235054  31.990  15.733   9.138
 2561POPC   C1A35055  32.277  15.904   8.639
 2561POPC   D2A35056  32.094  15.686   8.305
 2561POPC   C3A35057  32.113  15.942   7.944
 2561POPC   C4A35058  32.429  16.204   7.736
 2561POPC   C1B35059  31.797  15.976   8.793
 2561POPC   C2B35060  31.875  16.147   8.374
 2561POPC   C3B35061  31.690  16.209   7.952
 2561POPC   C4B35062  31.937  16.338   7.594
 2562POPC   NC335063  18.342  41.811   9.449
 2562POPC   PO435064  18.452  42.431   9.479
 2562POPC   GL135065  18.423  42.222   9.121
 2562POPC   GL235066  18.695  41.961   9.116
 2562POPC   C1A35067  18.154  42.317   8.775
 2562POPC   D2A35068  17.951  42.284   8.383
 2562POPC   C3A35069  18.093  42.414   8.007
 2562POPC   C4A35070  17.899  42.625   7.699
 2562POPC   C1B35071  18.700  42.157   8.711
 2562POPC   C2B35072  18.472  42.303   8.366
 2562POPC   C3B35073  18.570  42.239   7.935
 2562POPC   C4B35074  18.360  42.425   7.547
 2563POPC   NC335075  29.793  25.700   9.408
 2563POPC   PO435076  29.734  25.043   9.542
 2563POPC   GL135077  29.714  25.243   9.165
 2563POPC   GL235078  30.060  25.356   9.130
 2563POPC   C1A35079  29.645  25.362   8.756
 2563POPC   D2A35080  29.629  25.173   8.346
 2563POPC   C3A35081  29.646  25.351   7.959
 2563POPC   C4A35082  29.604  25.585   7.597
 2563POPC   C1B35083  30.077  25.077   8.768
 2563POPC   C2B35084  30.384  25.040   8.413
 2563POPC   C3B35085  30.329  25.099   7.981
 2563POPC   C4B35086  30.066  25.271   7.663
 2564POPC   NC335087   2.283  37.601   9.485
 2564POPC   PO435088   1.650  37.242   9.448
 2564POPC   GL135089   1.757  37.457   9.102
 2564POPC   GL235090   1.973  37.729   9.115
 2564POPC   C1A35091   1.737  37.612   8.697
 2564POPC   D2A35092   1.787  37.901   8.391
 2564POPC   C3A35093   1.752  37.703   7.987
 2564POPC   C4A35094   1.853  37.816   7.577
 2564POPC   C1B35095   2.156  37.955   8.777
 2564POPC   C2B35096   2.318  37.929   8.357
 2564POPC   C3B35097   2.256  37.829   7.933
 2564POPC   C4B35098   2.297  38.051   7.526
 2565POPC   NC335099  43.182  42.249   9.478
 2565POPC   PO435100  42.744  42.798   9.553
 2565POPC   GL135101  42.883  42.515   9.172
 2565POPC   GL235102  43.284  42.403   9.022
 2565POPC   C1A35103  42.853  42.214   8.829
 2565POPC   D2A35104  43.136  42.228   8.472
 2565POPC   C3A35105  42.913  42.059   8.122
 2565POPC   C4A35106  42.783  42.245   7.746
 2565POPC   C1B35107  43.112  42.669   8.751
 2565POPC   C2B35108  43.164  42.802   8.351
 2565POPC   C3B35109  43.173  42.510   8.019
 2565POPC   C4B35110  43.227  42.486   7.593
 2566POPC   NC335111  17.250  30.355   9.381
 2566POPC   PO435112  16.795  29.841   9.545
 2566POPC   GL135113  16.751  29.876   9.099
 2566POPC   GL235114  16.859  30.200   9.095
 2566POPC   C1A35115  16.641  29.719   8.679
 2566POPC   D2A35116  16.655  29.911   8.257
 2566POPC   C3A35117  16.613  29.697   7.895
 2566POPC   C4A35118  16.580  29.716   7.474
 2566POPC   C1B35119  16.886  30.160   8.665
 2566POPC   C2B35120  17.098  30.174   8.302
 2566POPC   C3B35121  16.887  30.257   7.932
 2566POPC   C4B35122  16.576  30.173   7.692
 2567POPC   NC335123  19.503   4.297   9.568
 2567POPC   PO435124  20.164   4.252   9.586
 2567POPC   GL135125  20.099   4.277   9.148
 2567POPC   GL235126  19.736   4.380   9.115
 2567POPC   C1A35127  20.030   4.229   8.698
 2567POPC   D2A35128  19.849   4.396   8.320
 2567POPC   C3A35129  19.990   4.396   7.914
 2567POPC   C4A35130  20.179   4.065   7.698
 2567POPC   C1B35131  19.504   4.454   8.738
 2567POPC   C2B35132  19.495   4.737   8.388
 2567POPC   C3B35133  19.621   4.764   7.971
 2567POPC   C4B35134  19.464   4.465   7.726
 2568POPC   NC335135   6.965  33.022   9.437
 2568POPC   PO435136   6.487  33.411   9.463
 2568POPC   GL135137   6.440  33.118   9.120
 2568POPC   GL235138   6.745  33.015   8.988
 2568POPC   C1A35139   6.364  32.945   8.699
 2568POPC   D2A35140   6.573  32.840   8.323
 2568POPC   C3A35141   6.375  32.968   7.933
 2568POPC   C4A35142   6.388  33.322   7.643
 2568POPC   C1B35143   6.818  33.237   8.607
 2568POPC   C2B35144   6.792  33.263   8.155
 2568POPC   C3B35145   6.841  33.032   7.783
 2568POPC   C4B35146   6.745  32.743   7.458
 2569POPC   NC335147   8.281  42.965   9.324
 2569POPC   PO435148   7.683  42.906   9.694
 2569POPC   GL135149   7.805  42.847   9.198
 2569POPC   GL235150   7.894  43.208   9.073
 2569POPC   C1A35151   7.958  42.843   8.729
 2569POPC   D2A35152   8.094  43.151   8.398
 2569POPC   C3A35153   8.221  43.011   7.986
 2569POPC   C4A35154   8.522  42.813   7.729
 2569POPC   C1B35155   7.779  43.441   8.704
 2569POPC   C2B35156   7.673  43.418   8.258
 2569POPC   C3B35157   7.935  43.431   7.852
 2569POPC   C4B35158   8.395  43.377   7.680
 2570POPC   NC335159  13.968   5.680   9.527
 2570POPC   PO435160  13.467   6.132   9.492
 2570POPC   GL135161  13.369   5.998   9.082
 2570POPC   GL235162  13.646   5.758   9.060
 2570POPC   C1A35163  13.340   5.910   8.669
 2570POPC   D2A35164  13.671   5.765   8.465
 2570POPC   C3A35165  13.573   5.908   8.110
 2570POPC   C4A35166  13.316   5.998   7.787
 2570POPC   C1B35167  14.031   5.597   8.826
 2570POPC   C2B35168  14.070   5.437   8.404
 2570POPC   C3B35169  13.907   5.518   7.992
 2570POPC   C4B35170  13.797   5.820   7.668
 2571POPC   NC335171   4.525  13.812   9.489
 2571POPC   PO435172   4.051  13.429   9.306
 2571POPC   GL135173   4.212  13.743   9.023
 2571POPC   GL235174   4.556  13.798   8.986
 2571POPC   C1A35175   4.297  13.696   8.561
 2571POPC   D2A35176   4.092  13.331   8.365
 2571POPC   C3A35177   3.913  13.376   7.980
 2571POPC   C4A35178   3.856  13.655   7.660
 2571POPC   C1B35179   4.802  13.572   8.693
 2571POPC   C2B35180   4.737  13.754   8.290
 2571POPC   C3B35181   4.374  13.688   8.041
 2571POPC   C4B35182   4.315  13.873   7.659
 2572POPC   NC335183  25.059  16.160   9.552
 2572POPC   PO435184  25.596  15.880   9.436
 2572POPC   GL135185  25.405  15.591   9.182
 2572POPC   GL235186  25.103  15.786   9.176
 2572POPC   C1A35187  25.365  15.580   8.724
 2572POPC   D2A35188  25.151  15.766   8.346
 2572POPC   C3A35189  25.424  15.900   8.016
 2572POPC   C4A35190  25.487  16.288   7.760
 2572POPC   C1B35191  24.910  15.923   8.787
 2572POPC   C2B35192  24.699  16.044   8.391
 2572POPC   C3B35193  24.877  16.004   7.970
 2572POPC   C4B35194  24.947  16.372   7.721
 2573POPC   NC335195   6.578  41.037   9.440
 2573POPC   PO435196   6.406  41.664   9.421
 2573POPC   GL135197   6.623  41.443   9.130
 2573POPC   GL235198   6.780  41.733   9.049
 2573POPC   C1A35199   6.584  41.265   8.741
 2573POPC   D2A35200   6.701  41.484   8.400
 2573POPC   C3A35201   6.580  41.354   7.970
 2573POPC   C4A35202   6.680  41.555   7.561
 2573POPC   C1B35203   7.074  41.925   8.799
 2573POPC   C2B35204   7.111  41.773   8.415
 2573POPC   C3B35205   6.878  41.786   8.038
 2573POPC   C4B35206   6.775  42.047   7.703
 2574POPC   NC335207   9.224  24.666   9.434
 2574POPC   PO435208   8.789  24.147   9.476
 2574POPC   GL135209   8.861  24.387   9.136
 2574POPC   GL235210   8.574  24.659   9.160
 2574POPC   C1A35211   9.194  24.347   8.795
 2574POPC   D2A35212   9.366  24.667   8.493
 2574POPC   C3A35213   9.249  24.593   8.088
 2574POPC   C4A35214   9.250  24.541   7.665
 2574POPC   C1B35215   8.863  24.755   8.804
 2574POPC   C2B35216   8.855  24.499   8.436
 2574POPC   C3B35217   8.738  24.502   8.024
 2574POPC   C4B35218   8.849  24.828   7.759
 2575POPC   NC335219  24.690   8.914   9.439
 2575POPC   PO435220  24.072   8.923   9.528
 2575POPC   GL135221  24.257   8.837   9.140
 2575POPC   GL235222  24.357   9.190   9.103
 2575POPC   C1A35223  24.562   8.885   8.771
 2575POPC   D2A35224  24.756   8.985   8.379
 2575POPC   C3A35225  24.634   8.695   8.036
 2575POPC   C4A35226  24.583   8.774   7.604
 2575POPC   C1B35227  24.051   9.107   8.766
 2575POPC   C2B35228  24.068   9.050   8.328
 2575POPC   C3B35229  24.301   9.085   7.949
 2575POPC   C4B35230  24.099   8.877   7.611
 2576POPC   NC335231  19.338  20.177   9.767
 2576POPC   PO435232  18.953  19.729   9.432
 2576POPC   GL135233  19.084  19.552   9.021
 2576POPC   GL235234  19.273  19.817   8.965
 2576POPC   C1A35235  19.435  19.440   8.715
 2576POPC   D2A35236  19.398  19.808   8.426
 2576POPC   C3A35237  19.069  19.755   8.115
 2576POPC   C4A35238  18.946  19.625   7.698
 2576POPC   C1B35239  18.934  19.895   8.678
 2576POPC   C2B35240  19.076  20.219   8.454
 2576POPC   C3B35241  19.281  20.222   8.085
 2576POPC   C4B35242  19.072  20.116   7.725
 2577POPC   NC335243  33.965  32.691   9.317
 2577POPC   PO435244  33.507  33.042   9.627
 2577POPC   GL135245  33.690  33.086   9.145
 2577POPC   GL235246  34.019  33.189   9.071
 2577POPC   C1A35247  33.791  32.894   8.704
 2577POPC   D2A35248  33.570  32.764   8.327
 2577POPC   C3A35249  33.595  33.055   7.987
 2577POPC   C4A35250  33.957  33.094   7.814
 2577POPC   C1B35251  34.241  33.155   8.679
 2577POPC   C2B35252  34.255  32.768   8.427
 2577POPC   C3B35253  34.312  32.590   8.027
 2577POPC   C4B35254  34.203  32.703   7.623
 2578POPC   NC335255   0.403  31.072   9.437
 2578POPC   PO435256   0.451  30.380   9.409
 2578POPC   GL135257   0.599  30.599   9.083
 2578POPC   GL235258   0.374  30.847   8.992
 2578POPC   C1A35259   0.773  30.700   8.683
 2578POPC   D2A35260   0.695  30.801   8.244
 2578POPC   C3A35261   0.320  30.644   8.074
 2578POPC   C4A35262   0.302  30.416   7.721
 2578POPC   C1B35263   0.543  31.168   8.740
 2578POPC   C2B35264   0.380  31.261   8.329
 2578POPC   C3B35265   0.462  31.117   7.893
 2578POPC   C4B35266   0.178  30.905   7.581
 2579POPC   NC335267  15.367   5.542   9.449
 2579POPC   PO435268  14.852   5.902   9.474
 2579POPC   GL135269  15.014   5.861   9.090
 2579POPC   GL235270  14.976   5.520   9.038
 2579POPC   C1A35271  15.034   5.983   8.654
 2579POPC   D2A35272  14.974   5.791   8.268
 2579POPC   C3A35273  15.061   6.027   7.908
 2579POPC   C4A35274  15.494   6.101   7.796
 2579POPC   C1B35275  15.353   5.610   8.772
 2579POPC   C2B35276  15.456   5.679   8.332
 2579POPC   C3B35277  15.340   5.599   7.916
 2579POPC   C4B35278  15.044   5.577   7.587
 2580POPC   NC335279  10.091  11.282   9.524
 2580POPC   PO435280  10.618  11.591   9.367
 2580POPC   GL135281  10.741  11.322   9.073
 2580POPC   GL235282  10.431  11.132   9.095
 2580POPC   C1A35283  10.810  11.382   8.625
 2580POPC   D2A35284  10.623  11.076   8.360
 2580POPC   C3A35285  10.524  11.279   7.976
 2580POPC   C4A35286  10.734  11.636   7.789
 2580POPC   C1B35287  10.326  11.437   8.787
 2580POPC   C2B35288  10.223  11.428   8.375
 2580POPC   C3B35289  10.186  11.654   8.002
 2580POPC   C4B35290  10.173  11.428   7.627
 2581POPC   NC335291  29.135   8.414   9.338
 2581POPC   PO435292  29.486   8.181   9.852
 2581POPC   GL135293  29.461   8.011   9.323
 2581POPC   GL235294  29.174   7.919   9.146
 2581POPC   C1A35295  29.395   8.146   8.790
 2581POPC   D2A35296  29.508   8.364   8.417
 2581POPC   C3A35297  29.332   8.174   8.071
 2581POPC   C4A35298  29.204   8.193   7.649
 2581POPC   C1B35299  28.916   7.779   8.818
 2581POPC   C2B35300  29.023   7.927   8.429
 2581POPC   C3B35301  28.989   7.794   8.026
 2581POPC   C4B35302  28.835   7.819   7.655
 2582POPC   NC335303  11.945  36.654   9.393
 2582POPC   PO435304  12.484  37.139   9.472
 2582POPC   GL135305  12.170  37.074   9.157
 2582POPC   GL235306  12.355  36.765   9.096
 2582POPC   C1A35307  11.841  37.060   8.804
 2582POPC   D2A35308  11.685  36.933   8.402
 2582POPC   C3A35309  12.039  36.976   8.101
 2582POPC   C4A35310  12.194  37.294   7.812
 2582POPC   C1B35311  12.323  36.879   8.688
 2582POPC   C2B35312  12.428  36.594   8.419
 2582POPC   C3B35313  12.400  36.500   8.019
 2582POPC   C4B35314  12.186  36.719   7.690
 2583POPC   NC335315  44.825  16.111   9.460
 2583POPC   PO435316  44.308  15.856   9.791
 2583POPC   GL135317  44.290  15.867   9.267
 2583POPC   GL235318  44.627  15.836   9.090
 2583POPC   C1A35319  44.290  16.063   8.779
 2583POPC   D2A35320  44.258  15.982   8.312
 2583POPC   C3A35321  44.461  16.162   7.956
 2583POPC   C4A35322  44.485  15.839   7.612
 2583POPC   C1B35323  44.792  16.135   8.775
 2583POPC   C2B35324  44.811  16.099   8.351
 2583POPC   C3B35325  44.847  15.834   8.002
 2583POPC   C4B35326  44.937  16.085   7.622
 2584POPC   NC335327  34.526  22.581   9.435
 2584POPC   PO435328  34.718  23.223   9.490
 2584POPC   GL135329  34.750  23.000   9.127
 2584POPC   GL235330  34.961  22.734   9.110
 2584POPC   C1A35331  34.614  23.001   8.700
 2584POPC   D2A35332  34.436  22.701   8.425
 2584POPC   C3A35333  34.323  22.803   8.015
 2584POPC   C4A35334  34.580  23.137   7.911
 2584POPC   C1B35335  35.078  22.781   8.709
 2584POPC   C2B35336  35.033  22.781   8.277
 2584POPC   C3B35337  34.772  22.572   7.995
 2584POPC   C4B35338  34.764  22.562   7.554
 2585POPC   NC335339  23.940  12.504   9.538
 2585POPC   PO435340  23.454  12.956   9.561
 2585POPC   GL135341  23.552  12.742   9.165
 2585POPC   GL235342  23.752  12.488   9.080
 2585POPC   C1A35343  23.700  12.863   8.744
 2585POPC   D2A35344  23.504  12.854   8.365
 2585POPC   C3A35345  23.679  12.880   7.964
 2585POPC   C4A35346  23.453  13.080   7.645
 2585POPC   C1B35347  23.948  12.410   8.726
 2585POPC   C2B35348  24.023  12.638   8.322
 2585POPC   C3B35349  24.146  12.653   7.887
 2585POPC   C4B35350  24.106  12.711   7.446
 2586POPC   NC335351  41.736  16.628   9.559
 2586POPC   PO435352  41.326  17.136   9.670
 2586POPC   GL135353  41.395  16.922   9.263
 2586POPC   GL235354  41.307  16.555   9.277
 2586POPC   C1A35355  41.308  17.032   8.813
 2586POPC   D2A35356  41.540  17.101   8.450
 2586POPC   C3A35357  41.359  16.872   8.103
 2586POPC   C4A35358  41.267  16.940   7.677
 2586POPC   C1B35359  41.552  16.589   8.902
 2586POPC   C2B35360  41.547  16.584   8.485
 2586POPC   C3B35361  41.817  16.577   8.157
 2586POPC   C4B35362  41.656  16.600   7.753
 2587POPC   NC335363  41.141  18.167   9.301
 2587POPC   PO435364  41.710  18.541   9.349
 2587POPC   GL135365  41.415  18.515   9.011
 2587POPC   GL235366  41.538  18.159   8.962
 2587POPC   C1A35367  41.413  18.528   8.548
 2587POPC   D2A35368  41.803  18.456   8.283
 2587POPC   C3A35369  41.836  18.753   7.928
 2587POPC   C4A35370  41.666  18.747   7.518
 2587POPC   C1B35371  41.238  18.036   8.640
 2587POPC   C2B35372  41.270  18.124   8.216
 2587POPC   C3B35373  41.376  18.488   7.991
 2587POPC   C4B35374  41.674  18.255   7.777
 2588POPC   NC335375   9.081  20.232   9.476
 2588POPC   PO435376   8.539  19.918   9.847
 2588POPC   GL135377   8.684  19.861   9.249
 2588POPC   GL235378   9.043  19.939   9.057
 2588POPC   C1A35379   8.634  19.965   8.789
 2588POPC   D2A35380   8.953  20.158   8.545
 2588POPC   C3A35381   8.891  20.132   8.117
 2588POPC   C4A35382   9.015  19.916   7.772
 2588POPC   C1B35383   9.006  19.647   8.660
 2588POPC   C2B35384   8.911  19.618   8.201
 2588POPC   C3B35385   9.058  19.391   7.838
 2588POPC   C4B35386   8.872  19.141   7.529
 2589POPC   NC335387  33.158  15.255   9.730
 2589POPC   PO435388  32.873  14.860   9.309
 2589POPC   GL135389  33.087  15.102   9.113
 2589POPC   GL235390  32.940  15.459   9.182
 2589POPC   C1A35391  33.174  14.960   8.703
 2589POPC   D2A35392  33.357  14.880   8.324
 2589POPC   C3A35393  33.180  15.079   7.966
 2589POPC   C4A35394  32.977  15.065   7.539
 2589POPC   C1B35395  32.809  15.318   8.759
 2589POPC   C2B35396  33.076  15.367   8.398
 2589POPC   C3B35397  33.083  15.662   8.079
 2589POPC   C4B35398  33.020  15.571   7.669
 2590POPC   NC335399   2.078  19.124   9.831
 2590POPC   PO435400   2.236  19.387   9.270
 2590POPC   GL135401   2.044  19.183   8.961
 2590POPC   GL235402   1.986  18.906   9.194
 2590POPC   C1A35403   1.893  19.327   8.593
 2590POPC   D2A35404   2.011  19.192   8.216
 2590POPC   C3A35405   1.868  19.411   7.870
 2590POPC   C4A35406   1.929  19.175   7.547
 2590POPC   C1B35407   2.149  18.699   8.835
 2590POPC   C2B35408   1.995  18.697   8.403
 2590POPC   C3B35409   1.986  18.685   7.956
 2590POPC   C4B35410   2.357  18.524   7.809
 2591POPC   NC335411  14.189  21.293   9.399
 2591POPC   PO435412  14.772  21.539   9.344
 2591POPC   GL135413  14.635  21.470   8.944
 2591POPC   GL235414  14.323  21.612   9.007
 2591POPC   C1A35415  14.462  21.314   8.551
 2591POPC   D2A35416  14.260  21.067   8.225
 2591POPC   C3A35417  14.487  21.248   7.940
 2591POPC   C4A35418  14.522  21.630   7.820
 2591POPC   C1B35419  14.020  21.340   8.781
 2591POPC   C2B35420  13.868  21.450   8.397
 2591POPC   C3B35421  14.004  21.459   7.963
 2591POPC   C4B35422  14.054  21.089   7.721
 2592POPC   NC335423  29.587  11.453   9.409
 2592POPC   PO435424  30.039  10.953   9.437
 2592POPC   GL135425  30.059  11.365   9.194
 2592POPC   GL235426  30.409  11.368   9.119
 2592POPC   C1A35427  29.857  11.475   8.774
 2592POPC   D2A35428  29.637  11.519   8.338
 2592POPC   C3A35429  29.789  11.240   7.972
 2592POPC   C4A35430  29.833  11.214   7.480
 2592POPC   C1B35431  30.218  11.097   8.792
 2592POPC   C2B35432  30.041  10.961   8.382
 2592POPC   C3B35433  30.202  10.938   7.958
 2592POPC   C4B35434  30.258  11.335   7.733
 2593POPC   NC335435  38.306  26.715   9.738
 2593POPC   PO435436  38.797  27.019   9.442
 2593POPC   GL135437  38.520  27.120   9.075
 2593POPC   GL235438  38.136  27.112   9.144
 2593POPC   C1A35439  38.565  26.955   8.628
 2593POPC   D2A35440  38.508  26.679   8.216
 2593POPC   C3A35441  38.500  26.772   7.755
 2593POPC   C4A35442  38.578  26.465   7.398
 2593POPC   C1B35443  38.149  27.279   8.711
 2593POPC   C2B35444  38.182  27.069   8.317
 2593POPC   C3B35445  38.326  27.229   7.937
 2593POPC   C4B35446  38.158  27.124   7.570
 2594POPC   NC335447  33.736  36.404   9.505
 2594POPC   PO435448  33.993  35.743   9.368
 2594POPC   GL135449  33.844  36.100   9.115
 2594POPC   GL235450  33.522  36.223   9.058
 2594POPC   C1A35451  33.893  36.389   8.773
 2594POPC   D2A35452  34.062  36.260   8.402
 2594POPC   C3A35453  33.806  36.365   8.078
 2594POPC   C4A35454  33.931  36.254   7.738
 2594POPC   C1B35455  33.631  35.958   8.674
 2594POPC   C2B35456  33.770  35.876   8.234
 2594POPC   C3B35457  33.697  35.797   7.758
 2594POPC   C4B35458  33.550  35.883   7.293
 2595POPC   NC335459  23.573  27.024   9.476
 2595POPC   PO435460  23.845  26.407   9.615
 2595POPC   GL135461  23.832  26.637   9.238
 2595POPC   GL235462  23.505  26.656   9.122
 2595POPC   C1A35463  23.867  26.660   8.780
 2595POPC   D2A35464  23.944  26.944   8.446
 2595POPC   C3A35465  23.743  26.855   8.066
 2595POPC   C4A35466  23.765  27.104   7.697
 2595POPC   C1B35467  23.401  26.911   8.731
 2595POPC   C2B35468  23.254  26.837   8.311
 2595POPC   C3B35469  23.312  27.081   7.908
 2595POPC   C4B35470  23.358  26.898   7.466
 2596POPC   NC335471   3.127  18.267   9.344
 2596POPC   PO435472   3.823  18.353   9.441
 2596POPC   GL135473   3.891  18.443   9.013
 2596POPC   GL235474   3.533  18.517   8.922
 2596POPC   C1A35475   3.972  18.461   8.554
 2596POPC   D2A35476   3.632  18.453   8.274
 2596POPC   C3A35477   3.634  18.438   7.827
 2596POPC   C4A35478   3.278  18.494   7.600
 2596POPC   C1B35479   3.624  18.129   8.692
 2596POPC   C2B35480   3.839  17.960   8.388
 2596POPC   C3B35481   3.560  17.975   8.070
 2596POPC   C4B35482   3.522  17.928   7.658
 2597POPC   NC335483  21.852  16.496   9.439
 2597POPC   PO435484  22.489  16.726   9.552
 2597POPC   GL135485  22.264  16.632   9.143
 2597POPC   GL235486  21.969  16.856   9.101
 2597POPC   C1A35487  22.134  16.540   8.693
 2597POPC   D2A35488  22.367  16.518   8.281
 2597POPC   C3A35489  22.140  16.587   7.918
 2597POPC   C4A35490  21.739  16.500   7.725
 2597POPC   C1B35491  21.859  16.973   8.703
 2597POPC   C2B35492  22.047  16.937   8.316
 2597POPC   C3B35493  22.064  17.091   7.897
 2597POPC   C4B35494  21.748  17.155   7.601
 2598POPC   NC335495  21.581  38.353   9.546
 2598POPC   PO435496  20.994  38.705   9.465
 2598POPC   GL135497  21.229  38.416   9.184
 2598POPC   GL235498  21.112  38.099   9.074
 2598POPC   C1A35499  21.575  38.319   8.890
 2598POPC   D2A35500  21.711  38.505   8.497
 2598POPC   C3A35501  21.683  38.205   8.171
 2598POPC   C4A35502  21.696  38.353   7.765
 2598POPC   C1B35503  21.096  38.275   8.693
 2598POPC   C2B35504  21.214  38.398   8.302
 2598POPC   C3B35505  21.236  38.150   7.920
 2598POPC   C4B35506  21.297  38.232   7.454
 2599POPC   NC335507  16.606  31.111   9.502
 2599POPC   PO435508  17.131  30.783   9.554
 2599POPC   GL135509  16.840  30.705   9.217
 2599POPC   GL235510  17.100  30.680   9.015
 2599POPC   C1A35511  16.647  30.608   8.776
 2599POPC   D2A35512  16.493  30.376   8.373
 2599POPC   C3A35513  16.464  30.602   7.962
 2599POPC   C4A35514  16.505  31.006   7.712
 2599POPC   C1B35515  17.134  30.605   8.597
 2599POPC   C2B35516  16.895  30.658   8.236
 2599POPC   C3B35517  16.941  30.758   7.785
 2599POPC   C4B35518  16.985  31.208   7.660
 2600POPC   NC335519  15.450  27.619   9.303
 2600POPC   PO435520  16.143  27.517   9.378
 2600POPC   GL135521  16.146  27.536   8.968
 2600POPC   GL235522  15.794  27.581   8.947
 2600POPC   C1A35523  16.108  27.646   8.569
 2600POPC   D2A35524  15.738  27.800   8.468
 2600POPC   C3A35525  15.680  27.792   8.040
 2600POPC   C4A35526  15.697  27.802   7.606
 2600POPC   C1B35527  15.783  27.263   8.630
 2600POPC   C2B35528  15.946  27.327   8.219
 2600POPC   C3B35529  16.039  27.479   7.816
 2600POPC   C4B35530  15.916  27.325   7.415
 2601POPC   NC335531   0.742  42.194   9.494
 2601POPC   PO435532   0.273  42.625   9.440
 2601POPC   GL135533   0.406  42.361   9.121
 2601POPC   GL235534   0.763  42.507   9.064
 2601POPC   C1A35535   0.548  42.184   8.735
 2601POPC   D2A35536   0.900  42.348   8.515
 2601POPC   C3A35537   0.791  42.416   8.088
 2601POPC   C4A35538   0.464  42.183   7.858
 2601POPC   C1B35539   0.470  42.704   8.725
 2601POPC   C2B35540   0.336  42.552   8.298
 2601POPC   C3B35541   0.430  42.696   7.852
 2601POPC   C4B35542   0.537  42.471   7.438
 2602POPC   NC335543  31.919  31.567   9.387
 2602POPC   PO435544  31.335  31.718   9.525
 2602POPC   GL135545  31.468  31.439   9.138
 2602POPC   GL235546  31.708  31.176   9.035
 2602POPC   C1A35547  31.432  31.520   8.702
 2602POPC   D2A35548  31.187  31.559   8.318
 2602POPC   C3A35549  31.331  31.736   7.958
 2602POPC   C4A35550  31.270  31.559   7.584
 2602POPC   C1B35551  31.624  31.051   8.646
 2602POPC   C2B35552  31.571  31.242   8.263
 2602POPC   C3B35553  31.637  31.322   7.857
 2602POPC   C4B35554  31.652  30.977   7.607
 2603POPC   NC335555  25.813  34.791   9.246
 2603POPC   PO435556  25.496  34.357   9.665
 2603POPC   GL135557  25.373  34.474   9.195
 2603POPC   GL235558  25.143  34.740   9.158
 2603POPC   C1A35559  25.455  34.605   8.725
 2603POPC   D2A35560  25.207  34.640   8.336
 2603POPC   C3A35561  25.332  34.554   7.920
 2603POPC   C4A35562  25.285  34.139   7.748
 2603POPC   C1B35563  24.917  34.741   8.748
 2603POPC   C2B35564  24.711  34.845   8.361
 2603POPC   C3B35565  24.914  34.885   7.979
 2603POPC   C4B35566  24.917  34.693   7.590
 2604POPC   NC335567  42.795  12.496   9.390
 2604POPC   PO435568  43.182  13.084   9.727
 2604POPC   GL135569  43.064  12.991   9.285
 2604POPC   GL235570  42.707  12.946   9.180
 2604POPC   C1A35571  43.134  12.861   8.857
 2604POPC   D2A35572  43.257  12.930   8.435
 2604POPC   C3A35573  42.940  12.936   8.187
 2604POPC   C4A35574  42.993  12.880   7.773
 2604POPC   C1B35575  42.634  12.667   8.803
 2604POPC   C2B35576  42.543  12.621   8.354
 2604POPC   C3B35577  42.692  12.502   7.939
 2604POPC   C4B35578  42.579  12.675   7.525
 2605POPC   NC335579  25.922  28.003   9.408
 2605POPC   PO435580  26.362  28.428   9.424
 2605POPC   GL135581  26.015  28.474   9.129
 2605POPC   GL235582  25.994  28.171   8.927
 2605POPC   C1A35583  25.904  28.651   8.708
 2605POPC   D2A35584  25.977  28.479   8.329
 2605POPC   C3A35585  25.705  28.453   7.998
 2605POPC   C4A35586  25.884  28.221   7.689
 2605POPC   C1B35587  26.350  28.401   8.735
 2605POPC   C2B35588  26.551  28.283   8.356
 2605POPC   C3B35589  26.345  28.333   7.962
 2605POPC   C4B35590  26.312  28.514   7.542
 2606POPC   NC335591   5.796   1.532   9.443
 2606POPC   PO435592   6.201   1.027   9.418
 2606POPC   GL135593   6.009   1.202   9.087
 2606POPC   GL235594   5.695   1.115   9.182
 2606POPC   C1A35595   6.043   1.356   8.679
 2606POPC   D2A35596   5.994   1.713   8.435
 2606POPC   C3A35597   5.895   1.527   8.079
 2606POPC   C4A35598   5.585   1.412   7.826
 2606POPC   C1B35599   5.564   1.295   8.804
 2606POPC   C2B35600   5.586   1.179   8.377
 2606POPC   C3B35601   5.304   0.950   8.126
 2606POPC   C4B35602   5.338   0.986   7.701
 2607POPC   NC335603  14.986  27.158   9.431
 2607POPC   PO435604  15.228  27.798   9.666
 2607POPC   GL135605  14.949  27.619   9.205
 2607POPC   GL235606  15.074  27.401   8.998
 2607POPC   C1A35607  14.968  27.829   8.710
 2607POPC   D2A35608  15.256  27.915   8.331
 2607POPC   C3A35609  15.187  27.681   7.933
 2607POPC   C4A35610  14.873  27.932   7.792
 2607POPC   C1B35611  15.324  27.477   8.666
 2607POPC   C2B35612  15.440  27.412   8.285
 2607POPC   C3B35613  15.537  27.208   7.930
 2607POPC   C4B35614  15.437  27.364   7.573
 2608POPC   NC335615  38.238  10.106   9.580
 2608POPC   PO435616  38.747   9.618   9.424
 2608POPC   GL135617  38.472   9.844   9.193
 2608POPC   GL235618  38.142   9.723   9.152
 2608POPC   C1A35619  38.330  10.089   8.859
 2608POPC   D2A35620  38.549  10.035   8.459
 2608POPC   C3A35621  38.394   9.996   8.067
 2608POPC   C4A35622  38.525   9.986   7.625
 2608POPC   C1B35623  38.398   9.611   8.731
 2608POPC   C2B35624  38.373   9.534   8.276
 2608POPC   C3B35625  38.487   9.491   7.858
 2608POPC   C4B35626  38.435   9.518   7.426
 2609POPC   NC335627  27.174   5.494   9.328
 2609POPC   PO435628  27.176   4.758   9.463
 2609POPC   GL135629  27.031   4.866   9.062
 2609POPC   GL235630  26.848   5.142   9.090
 2609POPC   C1A35631  26.926   4.917   8.616
 2609POPC   D2A35632  27.159   4.896   8.238
 2609POPC   C3A35633  26.862   4.800   7.938
 2609POPC   C4A35634  26.463   4.910   7.820
 2609POPC   C1B35635  26.706   5.367   8.735
 2609POPC   C2B35636  26.881   5.422   8.312
 2609POPC   C3B35637  26.782   5.304   7.898
 2609POPC   C4B35638  26.480   5.526   7.629
 2610POPC   NC335639  13.229  22.834   9.546
 2610POPC   PO435640  13.910  22.981   9.464
 2610POPC   GL135641  13.688  22.955   9.114
 2610POPC   GL235642  13.503  23.265   9.181
 2610POPC   C1A35643  13.782  22.868   8.683
 2610POPC   D2A35644  13.564  22.898   8.303
 2610POPC   C3A35645  13.813  22.914   7.929
 2610POPC   C4A35646  13.590  22.723   7.596
 2610POPC   C1B35647  13.373  23.150   8.765
 2610POPC   C2B35648  13.077  23.056   8.467
 2610POPC   C3B35649  13.076  23.105   8.073
 2610POPC   C4B35650  13.394  23.185   7.822
 2611POPC   NC335651  44.521  25.818   9.631
 2611POPC   PO435652   0.033  26.341   9.440
 2611POPC   GL135653  44.773  26.215   9.067
 2611POPC   GL235654  44.703  25.854   9.125
 2611POPC   C1A35655  44.723  26.269   8.592
 2611POPC   D2A35656  44.380  26.359   8.259
 2611POPC   C3A35657  44.504  26.219   7.835
 2611POPC   C4A35658  44.844  25.902   7.835
 2611POPC   C1B35659  44.535  25.789   8.702
 2611POPC   C2B35660  44.548  25.843   8.265
 2611POPC   C3B35661  44.481  25.527   7.963
 2611POPC   C4B35662  44.351  25.583   7.571
 2612POPC   NC335663  30.792  44.372   9.605
 2612POPC   PO435664  30.628  43.728   9.497
 2612POPC   GL135665  30.622  44.014   9.156
 2612POPC   GL235666  30.773  43.788   8.991
 2612POPC   C1A35667  30.589  44.197   8.740
 2612POPC   D2A35668  30.794  44.285   8.375
 2612POPC   C3A35669  30.534  44.170   8.032
 2612POPC   C4A35670  30.665  44.020   7.659
 2612POPC   C1B35671  30.361  43.753   8.783
 2612POPC   C2B35672  30.484  43.798   8.382
 2612POPC   C3B35673  30.554  43.616   8.010
 2612POPC   C4B35674  30.317  43.636   7.663
 2613POPC   NC335675  15.747   5.060   9.557
 2613POPC   PO435676  16.417   5.054   9.557
 2613POPC   GL135677  16.152   5.061   9.183
 2613POPC   GL235678  15.828   5.203   9.086
 2613POPC   C1A35679  16.210   4.826   8.793
 2613POPC   D2A35680  16.062   4.784   8.355
 2613POPC   C3A35681  16.136   5.185   8.130
 2613POPC   C4A35682  16.091   5.259   7.682
 2613POPC   C1B35683  15.754   5.041   8.715
 2613POPC   C2B35684  15.648   5.202   8.322
 2613POPC   C3B35685  15.706   5.008   7.933
 2613POPC   C4B35686  15.565   5.247   7.611
 2614POPC   NC335687  44.264   3.876   9.498
 2614POPC   PO435688  43.584   3.869   9.468
 2614POPC   GL135689  43.763   3.501   9.234
 2614POPC   GL235690  44.141   3.504   9.168
 2614POPC   C1A35691  43.678   3.514   8.815
 2614POPC   D2A35692  43.880   3.503   8.440
 2614POPC   C3A35693  43.772   3.334   8.073
 2614POPC   C4A35694  43.615   3.682   7.872
 2614POPC   C1B35695  44.116   3.261   8.816
 2614POPC   C2B35696  44.212   3.140   8.367
 2614POPC   C3B35697  44.251   3.456   8.062
 2614POPC   C4B35698  44.059   3.436   7.668
 2615POPC   NC335699   1.186  34.258   9.560
 2615POPC   PO435700   1.212  34.947   9.503
 2615POPC   GL135701   1.250  34.611   9.188
 2615POPC   GL235702   1.508  34.339   9.182
 2615POPC   C1A35703   1.271  34.539   8.754
 2615POPC   D2A35704   1.262  34.814   8.420
 2615POPC   C3A35705   1.005  34.753   8.085
 2615POPC   C4A35706   1.105  34.625   7.712
 2615POPC   C1B35707   1.652  34.180   8.799
 2615POPC   C2B35708   1.694  34.360   8.390
 2615POPC   C3B35709   1.486  34.515   8.062
 2615POPC   C4B35710   1.573  34.389   7.660
 2616POPC   NC335711  28.541  24.880   9.375
 2616POPC   PO435712  28.365  25.502   9.591
 2616POPC   GL135713  28.408  25.344   9.167
 2616POPC   GL235714  28.181  25.080   9.103
 2616POPC   C1A35715  28.552  25.139   8.750
 2616POPC   D2A35716  28.706  25.268   8.341
 2616POPC   C3A35717  28.726  24.924   8.013
 2616POPC   C4A35718  28.518  24.995   7.612
 2616POPC   C1B35719  28.073  25.307   8.763
 2616POPC   C2B35720  28.187  25.256   8.392
 2616POPC   C3B35721  28.307  25.220   8.002
 2616POPC   C4B35722  28.176  25.431   7.686
 2617POPC   NC335723  33.447   0.703   9.806
 2617POPC   PO435724  33.820   0.234   9.560
 2617POPC   GL135725  33.929   0.298   9.137
 2617POPC   GL235726  33.771   0.596   9.140
 2617POPC   C1A35727  33.990   0.500   8.698
 2617POPC   D2A35728  33.846   0.492   8.288
 2617POPC   C3A35729  33.968   0.139   8.026
 2617POPC   C4A35730  34.079   0.261   7.610
 2617POPC   C1B35731  33.482   0.576   8.784
 2617POPC   C2B35732  33.274   0.316   8.516
 2617POPC   C3B35733  33.358   0.438   8.147
 2617POPC   C4B35734  33.621   0.442   7.809
 2618POPC   NC335735   2.805   0.561   9.404
 2618POPC   PO435736   2.414   0.036   9.496
 2618POPC   GL135737   2.431   0.259   9.109
 2618POPC   GL235738   2.411   0.635   9.025
 2618POPC   C1A35739   2.648   0.289   8.719
 2618POPC   D2A35740   2.836   0.284   8.333
 2618POPC   C3A35741   2.594   0.294   7.970
 2618POPC   C4A35742   2.745   0.120   7.567
 2618POPC   C1B35743   2.813   0.753   8.789
 2618POPC   C2B35744   2.926   0.883   8.402
 2618POPC   C3B35745   3.000   0.695   8.042
 2618POPC   C4B35746   2.844   0.606   7.682
 2619POPC   NC335747   9.063   9.520   9.458
 2619POPC   PO435748   8.976  10.226   9.545
 2619POPC   GL135749   8.939  10.023   9.115
 2619POPC   GL235750   8.888   9.661   9.011
 2619POPC   C1A35751   9.177   9.936   8.710
 2619POPC   D2A35752   9.052   9.831   8.338
 2619POPC   C3A35753   9.244   9.866   7.998
 2619POPC   C4A35754   9.116   9.504   7.792
 2619POPC   C1B35755   8.642   9.888   8.716
 2619POPC   C2B35756   8.551   9.849   8.279
 2619POPC   C3B35757   8.768   9.875   7.870
 2619POPC   C4B35758   8.886  10.208   7.553
 2620POPC   NC335759  39.437  25.080   9.350
 2620POPC   PO435760  38.877  25.455   9.452
 2620POPC   GL135761  39.160  25.469   9.128
 2620POPC   GL235762  39.472  25.665   9.129
 2620POPC   C1A35763  39.129  25.273   8.759
 2620POPC   D2A35764  39.227  25.392   8.335
 2620POPC   C3A35765  38.958  25.345   8.002
 2620POPC   C4A35766  39.010  25.141   7.637
 2620POPC   C1B35767  39.608  25.452   8.718
 2620POPC   C2B35768  39.637  25.124   8.349
 2620POPC   C3B35769  39.522  25.203   7.893
 2620POPC   C4B35770  39.668  25.067   7.447
 2621POPC   NC335771  18.799  15.288   9.655
 2621POPC   PO435772  19.441  15.248   9.556
 2621POPC   GL135773  19.147  15.386   9.250
 2621POPC   GL235774  18.990  15.064   9.153
 2621POPC   C1A35775  19.050  15.479   8.811
 2621POPC   D2A35776  19.021  15.136   8.468
 2621POPC   C3A35777  19.273  15.186   8.080
 2621POPC   C4A35778  19.165  15.221   7.678
 2621POPC   C1B35779  18.662  15.141   8.842
 2621POPC   C2B35780  18.524  15.198   8.393
 2621POPC   C3B35781  18.747  15.107   8.001
 2621POPC   C4B35782  18.688  15.375   7.663
 2622POPC   NC335783  22.703  14.267   9.519
 2622POPC   PO435784  23.229  14.543   9.417
 2622POPC   GL135785  22.986  14.416   9.107
 2622POPC   GL235786  22.981  14.071   9.110
 2622POPC   C1A35787  22.956  14.608   8.733
 2622POPC   D2A35788  23.155  14.730   8.387
 2622POPC   C3A35789  22.843  14.788   8.084
 2622POPC   C4A35790  22.732  14.663   7.680
 2622POPC   C1B35791  22.838  14.112   8.686
 2622POPC   C2B35792  22.853  14.314   8.309
 2622POPC   C3B35793  23.067  14.346   7.918
 2622POPC   C4B35794  22.872  14.167   7.564
 2623POPC   NC335795   4.463  42.532   9.795
 2623POPC   PO435796   4.357  41.940   9.591
 2623POPC   GL135797   4.267  42.291   9.264
 2623POPC   GL235798   4.626  42.412   9.195
 2623POPC   C1A35799   4.061  42.330   8.813
 2623POPC   D2A35800   4.320  42.301   8.426
 2623POPC   C3A35801   4.126  42.292   8.010
 2623POPC   C4A35802   4.283  42.207   7.564
 2623POPC   C1B35803   4.715  42.244   8.778
 2623POPC   C2B35804   4.855  42.223   8.353
 2623POPC   C3B35805   4.641  42.315   7.960
 2623POPC   C4B35806   4.730  42.466   7.556
 2624POPC   NC335807   7.359  39.420   9.619
 2624POPC   PO435808   7.718  38.962   9.341
 2624POPC   GL135809   7.476  38.919   8.984
 2624POPC   GL235810   7.234  39.175   9.138
 2624POPC   C1A35811   7.459  38.877   8.545
 2624POPC   D2A35812   7.520  39.216   8.267
 2624POPC   C3A35813   7.492  39.145   7.817
 2624POPC   C4A35814   7.514  39.427   7.427
 2624POPC   C1B35815   7.240  39.306   8.729
 2624POPC   C2B35816   7.049  39.485   8.390
 2624POPC   C3B35817   7.196  39.507   7.993
 2624POPC   C4B35818   7.052  39.351   7.623
 2625POPC   NC335819  33.367   0.344   9.372
 2625POPC   PO435820  32.965   0.704   9.782
 2625POPC   GL135821  32.844   0.455   9.372
 2625POPC   GL235822  32.875   0.729   9.206
 2625POPC   C1A35823  32.890   0.326   8.864
 2625POPC   D2A35824  32.805   0.504   8.412
 2625POPC   C3A35825  32.845   0.334   7.999
 2625POPC   C4A35826  33.152   0.242   7.729
 2625POPC   C1B35827  32.897   0.839   8.773
 2625POPC   C2B35828  33.206   0.854   8.445
 2625POPC   C3B35829  33.081   0.821   8.031
 2625POPC   C4B35830  33.290   0.773   7.625
 2626POPC   NC335831  24.264  15.790   9.443
 2626POPC   PO435832  24.854  15.787   9.722
 2626POPC   GL135833  24.656  16.066   9.266
 2626POPC   GL235834  24.375  16.296   9.237
 2626POPC   C1A35835  24.401  15.979   8.829
 2626POPC   D2A35836  24.450  15.612   8.539
 2626POPC   C3A35837  24.377  15.738   8.108
 2626POPC   C4A35838  24.457  15.869   7.718
 2626POPC   C1B35839  24.331  16.497   8.819
 2626POPC   C2B35840  24.222  16.475   8.364
 2626POPC   C3B35841  24.473  16.320   7.991
 2626POPC   C4B35842  24.355  16.330   7.524
 2627POPC   NC335843  25.756   6.296   9.475
 2627POPC   PO435844  25.174   6.700   9.461
 2627POPC   GL135845  25.222   6.487   9.087
 2627POPC   GL235846  25.545   6.617   9.117
 2627POPC   C1A35847  25.492   6.340   8.718
 2627POPC   D2A35848  25.620   6.430   8.297
 2627POPC   C3A35849  25.248   6.538   8.088
 2627POPC   C4A35850  25.164   6.741   7.699
 2627POPC   C1B35851  25.570   6.947   8.843
 2627POPC   C2B35852  25.462   6.883   8.428
 2627POPC   C3B35853  25.605   6.913   8.013
 2627POPC   C4B35854  25.495   7.129   7.646
 2628POPC   NC335855  34.841  37.023   9.354
 2628POPC   PO435856  35.371  36.662   9.529
 2628POPC   GL135857  35.454  36.731   9.106
 2628POPC   GL235858  35.121  36.835   8.975
 2628POPC   C1A35859  35.483  36.618   8.663
 2628POPC   D2A35860  35.568  36.917   8.330
 2628POPC   C3A35861  35.438  36.797   7.932
 2628POPC   C4A35862  35.437  37.021   7.549
 2628POPC   C1B35863  35.349  37.127   8.754
 2628POPC   C2B35864  35.260  37.328   8.362
 2628POPC   C3B35865  35.161  37.281   7.901
 2628POPC   C4B35866  35.306  37.501   7.506
 2629POPC   NC335867   1.884  38.513   9.627
 2629POPC   PO435868   1.922  37.889   9.599
 2629POPC   GL135869   1.833  38.206   9.226
 2629POPC   GL235870   1.940  38.592   9.132
 2629POPC   C1A35871   1.751  38.247   8.792
 2629POPC   D2A35872   1.781  38.427   8.389
 2629POPC   C3A35873   1.922  38.207   8.015
 2629POPC   C4A35874   1.874  38.326   7.608
 2629POPC   C1B35875   2.178  38.559   8.727
 2629POPC   C2B35876   2.291  38.441   8.291
 2629POPC   C3B35877   2.204  38.621   7.871
 2629POPC   C4B35878   2.226  38.610   7.405
 2630POPC   NC335879  38.987  14.605   9.392
 2630POPC   PO435880  38.247  14.504   9.482
 2630POPC   GL135881  38.233  14.397   9.086
 2630POPC   GL235882  38.579  14.333   9.088
 2630POPC   C1A35883  38.305  14.313   8.659
 2630POPC   D2A35884  38.340  14.560   8.339
 2630POPC   C3A35885  38.339  14.336   7.988
 2630POPC   C4A35886  38.363  14.384   7.553
 2630POPC   C1B35887  38.811  14.254   8.691
 2630POPC   C2B35888  38.790  14.287   8.244
 2630POPC   C3B35889  38.821  14.345   7.820
 2630POPC   C4B35890  39.097  14.176   7.580
 2631POPC   NC335891  36.506  36.248   9.460
 2631POPC   PO435892  35.895  36.079   9.521
 2631POPC   GL135893  35.847  35.961   9.113
 2631POPC   GL235894  36.096  36.243   9.065
 2631POPC   C1A35895  35.726  36.151   8.710
 2631POPC   D2A35896  36.003  36.254   8.381
 2631POPC   C3A35897  36.130  35.962   8.117
 2631POPC   C4A35898  36.039  36.038   7.728
 2631POPC   C1B35899  36.210  35.954   8.741
 2631POPC   C2B35900  36.506  36.097   8.457
 2631POPC   C3B35901  36.486  36.339   8.095
 2631POPC   C4B35902  36.546  36.189   7.707
 2632POPC   NC335903  38.779  31.514   9.448
 2632POPC   PO435904  38.185  31.549   9.523
 2632POPC   GL135905  38.391  31.498   9.125
 2632POPC   GL235906  38.709  31.703   8.992
 2632POPC   C1A35907  38.520  31.246   8.787
 2632POPC   D2A35908  38.698  31.482   8.446
 2632POPC   C3A35909  38.570  31.388   8.030
 2632POPC   C4A35910  38.307  31.137   7.752
 2632POPC   C1B35911  38.389  31.855   8.756
 2632POPC   C2B35912  38.294  31.826   8.341
 2632POPC   C3B35913  38.572  31.903   7.991
 2632POPC   C4B35914  38.562  31.943   7.554
 2633POPC   NC335915  11.478  39.062   9.504
 2633POPC   PO435916  10.853  39.187   9.581
 2633POPC   GL135917  11.094  39.098   9.166
 2633POPC   GL235918  11.341  39.381   9.113
 2633POPC   C1A35919  11.055  39.081   8.692
 2633POPC   D2A35920  10.830  39.134   8.267
 2633POPC   C3A35921  11.089  39.111   7.895
 2633POPC   C4A35922  11.400  39.457   7.775
 2633POPC   C1B35923  11.579  39.065   8.870
 2633POPC   C2B35924  11.546  38.894   8.487
 2633POPC   C3B35925  11.558  39.065   8.106
 2633POPC   C4B35926  11.562  38.978   7.698
 2634POPC   NC335927  26.699  37.995   9.564
 2634POPC   PO435928  26.984  37.440   9.631
 2634POPC   GL135929  26.730  37.431   9.219
 2634POPC   GL235930  26.522  37.720   9.176
 2634POPC   C1A35931  26.733  37.539   8.744
 2634POPC   D2A35932  26.856  37.425   8.301
 2634POPC   C3A35933  26.770  37.596   7.880
 2634POPC   C4A35934  26.947  37.489   7.483
 2634POPC   C1B35935  26.454  37.981   8.793
 2634POPC   C2B35936  26.732  38.011   8.403
 2634POPC   C3B35937  26.831  38.101   7.961
 2634POPC   C4B35938  26.644  38.000   7.559
 2635POPC   NC335939  33.278  11.886   9.287
 2635POPC   PO435940  32.783  12.270   9.528
 2635POPC   GL135941  32.851  12.099   9.125
 2635POPC   GL235942  33.121  12.333   9.063
 2635POPC   C1A35943  33.013  11.916   8.699
 2635POPC   D2A35944  33.320  12.133   8.396
 2635POPC   C3A35945  33.205  12.137   7.960
 2635POPC   C4A35946  32.811  11.984   7.796
 2635POPC   C1B35947  32.829  12.377   8.703
 2635POPC   C2B35948  32.762  12.209   8.293
 2635POPC   C3B35949  32.514  12.397   7.974
 2635POPC   C4B35950  32.555  12.412   7.556
 2636POPC   NC335951  42.284  42.688   9.493
 2636POPC   PO435952  41.691  42.340   9.561
 2636POPC   GL135953  41.999  42.194   9.217
 2636POPC   GL235954  42.330  42.336   9.105
 2636POPC   C1A35955  42.090  41.964   8.809
 2636POPC   D2A35956  42.387  42.205   8.571
 2636POPC   C3A35957  42.377  42.268   8.119
 2636POPC   C4A35958  42.247  42.136   7.716
 2636POPC   C1B35959  42.517  42.635   8.817
 2636POPC   C2B35960  42.729  42.555   8.426
 2636POPC   C3B35961  42.680  42.663   8.021
 2636POPC   C4B35962  42.438  42.598   7.617
 2637POPC   NC335963   9.201  34.775   9.586
 2637POPC   PO435964   8.791  34.205   9.489
 2637POPC   GL135965   9.073  34.427   9.212
 2637POPC   GL235966   8.938  34.801   9.156
 2637POPC   C1A35967   9.138  34.513   8.782
 2637POPC   D2A35968   9.301  34.506   8.380
 2637POPC   C3A35969   9.019  34.597   8.080
 2637POPC   C4A35970   9.151  34.545   7.659
 2637POPC   C1B35971   9.127  35.018   8.794
 2637POPC   C2B35972   9.093  35.072   8.344
 2637POPC   C3B35973   9.148  35.039   7.863
 2637POPC   C4B35974   8.954  34.929   7.433
 2638POPC   NC335975  23.413  33.965   9.599
 2638POPC   PO435976  23.894  33.758   9.330
 2638POPC   GL135977  23.664  33.596   9.087
 2638POPC   GL235978  23.373  33.712   9.129
 2638POPC   C1A35979  23.643  33.783   8.695
 2638POPC   D2A35980  23.595  34.034   8.354
 2638POPC   C3A35981  23.944  34.009   8.134
 2638POPC   C4A35982  23.897  33.838   7.736
 2638POPC   C1B35983  23.289  33.420   8.791
 2638POPC   C2B35984  23.518  33.396   8.388
 2638POPC   C3B35985  23.483  33.637   8.008
 2638POPC   C4B35986  23.501  33.559   7.561
 2639POPC   NC335987  20.854  22.753   9.648
 2639POPC   PO435988  20.362  22.508   9.599
 2639POPC   GL135989  20.616  22.684   9.199
 2639POPC   GL235990  20.813  23.012   9.159
 2639POPC   C1A35991  20.624  22.754   8.733
 2639POPC   D2A35992  20.587  22.967   8.326
 2639POPC   C3A35993  20.599  22.758   7.935
 2639POPC   C4A35994  20.518  22.871   7.509
 2639POPC   C1B35995  20.864  23.220   8.712
 2639POPC   C2B35996  20.884  23.367   8.250
 2639POPC   C3B35997  20.641  23.273   7.855
 2639POPC   C4B35998  20.624  23.349   7.416
 2640POPC   NC335999  14.431  37.383   9.430
 2640POPC   PO436000  14.857  37.853   9.139
 2640POPC   GL136001  14.667  37.522   9.001
 2640POPC   GL236002  14.349  37.658   9.016
 2640POPC   C1A36003  14.530  37.471   8.590
 2640POPC   D2A36004  14.562  37.826   8.339
 2640POPC   C3A36005  14.615  37.734   7.946
 2640POPC   C4A36006  14.937  37.717   7.630
 2640POPC   C1B36007  14.242  37.935   8.715
 2640POPC   C2B36008  14.052  38.031   8.307
 2640POPC   C3B36009  14.086  37.917   7.839
 2640POPC   C4B36010  14.057  37.705   7.412
 2641POPC   NC336011   3.204  20.053   9.301
 2641POPC   PO436012   3.276  20.593   9.673
 2641POPC   GL136013   3.390  20.573   9.217
 2641POPC   GL236014   3.654  20.306   9.166
 2641POPC   C1A36015   3.580  20.725   8.800
 2641POPC   D2A36016   3.615  20.977   8.396
 2641POPC   C3A36017   3.653  20.806   7.968
 2641POPC   C4A36018   3.902  20.489   7.792
 2641POPC   C1B36019   3.529  20.243   8.744
 2641POPC   C2B36020   3.475  20.455   8.355
 2641POPC   C3B36021   3.429  20.352   7.943
 2641POPC   C4B36022   3.545  20.050   7.720
 2642POPC   NC336023  13.029  17.811   9.412
 2642POPC   PO436024  12.581  17.396   9.675
 2642POPC   GL136025  12.739  17.433   9.226
 2642POPC   GL236026  12.647  17.126   9.138
 2642POPC   C1A36027  13.017  17.503   8.836
 2642POPC   D2A36028  12.914  17.575   8.406
 2642POPC   C3A36029  13.019  17.302   8.059
 2642POPC   C4A36030  13.081  17.391   7.602
 2642POPC   C1B36031  12.550  17.310   8.723
 2642POPC   C2B36032  12.482  17.324   8.274
 2642POPC   C3B36033  12.571  17.415   7.850
 2642POPC   C4B36034  12.624  17.269   7.441
 2643POPC   NC336035  29.370   5.310   9.390
 2643POPC   PO436036  28.902   4.907   9.653
 2643POPC   GL136037  29.050   4.930   9.212
 2643POPC   GL236038  28.835   5.185   9.156
 2643POPC   C1A36039  29.240   5.099   8.754
 2643POPC   D2A36040  29.369   4.866   8.367
 2643POPC   C3A36041  29.454   5.026   7.994
 2643POPC   C4A36042  29.282   4.885   7.614
 2643POPC   C1B36043  28.755   4.960   8.800
 2643POPC   C2B36044  28.887   5.018   8.376
 2643POPC   C3B36045  28.924   4.944   7.966
 2643POPC   C4B36046  28.910   5.230   7.590
 2644POPC   NC336047  22.703  21.193   9.614
 2644POPC   PO436048  22.904  20.524   9.572
 2644POPC   GL136049  22.808  20.717   9.209
 2644POPC   GL236050  22.842  20.412   9.001
 2644POPC   C1A36051  22.995  20.861   8.805
 2644POPC   D2A36052  22.909  20.708   8.394
 2644POPC   C3A36053  22.823  21.006   8.049
 2644POPC   C4A36054  23.024  20.862   7.693
 2644POPC   C1B36055  22.531  20.672   8.777
 2644POPC   C2B36056  22.397  20.821   8.418
 2644POPC   C3B36057  22.518  20.613   8.060
 2644POPC   C4B36058  22.455  20.784   7.700
 2645POPC   NC336059  10.700  19.006   9.560
 2645POPC   PO436060  10.292  19.522   9.408
 2645POPC   GL136061  10.466  19.287   9.026
 2645POPC   GL236062  10.771  19.108   9.071
 2645POPC   C1A36063  10.706  19.365   8.620
 2645POPC   D2A36064  10.661  19.525   8.190
 2645POPC   C3A36065  10.428  19.242   7.919
 2645POPC   C4A36066  10.289  18.939   7.578
 2645POPC   C1B36067  10.969  18.852   8.763
 2645POPC   C2B36068  10.894  18.787   8.317
 2645POPC   C3B36069  10.847  18.925   7.878
 2645POPC   C4B36070  10.738  18.726   7.478
 2646POPC   NC336071  21.903  35.434   9.497
 2646POPC   PO436072  22.487  35.087   9.562
 2646POPC   GL136073  22.286  35.282   9.177
 2646POPC   GL236074  21.929  35.160   9.072
 2646POPC   C1A36075  22.239  35.363   8.725
 2646POPC   D2A36076  21.898  35.246   8.455
 2646POPC   C3A36077  22.060  35.134   8.034
 2646POPC   C4A36078  22.132  35.422   7.670
 2646POPC   C1B36079  21.768  35.562   8.862
 2646POPC   C2B36080  21.780  35.830   8.493
 2646POPC   C3B36081  21.893  35.654   8.101
 2646POPC   C4B36082  21.669  35.594   7.734
 2647POPC   NC336083   8.485  20.753   9.302
 2647POPC   PO436084   9.056  20.742   9.618
 2647POPC   GL136085   8.992  20.626   9.142
 2647POPC   GL236086   8.721  20.441   8.932
 2647POPC   C1A36087   9.088  20.650   8.662
 2647POPC   D2A36088   8.867  20.614   8.260
 2647POPC   C3A36089   9.072  20.568   7.851
 2647POPC   C4A36090   9.069  20.333   7.472
 2647POPC   C1B36091   8.590  20.789   8.671
 2647POPC   C2B36092   8.633  21.065   8.344
 2647POPC   C3B36093   8.566  20.899   7.934
 2647POPC   C4B36094   8.748  20.884   7.522
 2648POPC   NC336095   1.008  15.054   9.402
 2648POPC   PO436096   1.577  15.417   9.389
 2648POPC   GL136097   1.313  15.304   9.035
 2648POPC   GL236098   1.023  15.523   8.921
 2648POPC   C1A36099   1.407  15.185   8.602
 2648POPC   D2A36100   1.150  15.051   8.252
 2648POPC   C3A36101   1.258  15.277   7.933
 2648POPC   C4A36102   1.662  15.250   7.838
 2648POPC   C1B36103   0.909  15.151   8.714
 2648POPC   C2B36104   0.728  14.824   8.514
 2648POPC   C3B36105   0.846  14.567   8.181
 2648POPC   C4B36106   0.942  14.797   7.805
 2649POPC   NC336107   1.748  14.703   9.385
 2649POPC   PO436108   2.189  14.214   9.394
 2649POPC   GL136109   1.963  14.344   9.082
 2649POPC   GL236110   1.591  14.256   9.154
 2649POPC   C1A36111   2.111  14.340   8.689
 2649POPC   D2A36112   2.117  14.537   8.331
 2649POPC   C3A36113   2.269  14.206   8.106
 2649POPC   C4A36114   2.268  14.301   7.709
 2649POPC   C1B36115   1.604  14.408   8.730
 2649POPC   C2B36116   1.713  14.230   8.337
 2649POPC   C3B36117   1.795  14.364   7.931
 2649POPC   C4B36118   1.814  14.099   7.595
 2650POPC   NC336119   4.379  34.741   9.482
 2650POPC   PO436120   4.296  34.091   9.663
 2650POPC   GL136121   4.197  34.281   9.258
 2650POPC   GL236122   3.914  34.518   9.282
 2650POPC   C1A36123   4.398  34.471   8.886
 2650POPC   D2A36124   4.417  34.285   8.503
 2650POPC   C3A36125   4.440  34.517   8.150
 2650POPC   C4A36126   4.212  34.382   7.813
 2650POPC   C1B36127   3.958  34.735   8.871
 2650POPC   C2B36128   4.214  34.830   8.492
 2650POPC   C3B36129   4.107  34.872   8.023
 2650POPC   C4B36130   4.458  34.831   7.743
 2651POPC   NC336131   7.111  39.974   9.770
 2651POPC   PO436132   6.442  39.982   9.648
 2651POPC   GL136133   6.645  39.928   9.205
 2651POPC   GL236134   6.890  40.144   9.088
 2651POPC   C1A36135   6.539  40.021   8.738
 2651POPC   D2A36136   6.559  39.707   8.443
 2651POPC   C3A36137   6.377  39.855   8.056
 2651POPC   C4A36138   6.597  40.158   7.784
 2651POPC   C1B36139   6.861  40.411   8.736
 2651POPC   C2B36140   6.726  40.449   8.330
 2651POPC   C3B36141   7.044  40.368   8.046
 2651POPC   C4B36142   7.137  40.428   7.654
 2652POPC   NC336143  38.977  42.076   9.312
 2652POPC   PO436144  38.459  42.514   9.429
 2652POPC   GL136145  38.505  42.180   9.149
 2652POPC   GL236146  38.222  41.987   9.208
 2652POPC   C1A36147  38.631  42.207   8.725
 2652POPC   D2A36148  38.387  42.420   8.394
 2652POPC   C3A36149  38.624  42.690   8.138
 2652POPC   C4A36150  38.672  42.570   7.717
 2652POPC   C1B36151  38.187  41.880   8.772
 2652POPC   C2B36152  38.419  41.913   8.368
 2652POPC   C3B36153  38.483  42.123   7.953
 2652POPC   C4B36154  38.417  41.900   7.564
 2653POPC   NC336155  42.593   0.358   9.476
 2653POPC   PO436156  42.000   0.790   9.674
 2653POPC   GL136157  42.206   0.626   9.225
 2653POPC   GL236158  42.558   0.574   9.030
 2653POPC   C1A36159  42.125   0.480   8.779
 2653POPC   D2A36160  42.151   0.182   8.418
 2653POPC   C3A36161  41.893   0.273   8.061
 2653POPC   C4A36162  42.061   0.588   7.750
 2653POPC   C1B36163  42.878   0.613   8.754
 2653POPC   C2B36164  42.733   0.710   8.387
 2653POPC   C3B36165  42.447   0.517   8.117
 2653POPC   C4B36166  42.611   0.486   7.732
 2654POPC   NC336167  28.637  27.712   9.638
 2654POPC   PO436168  29.133  27.310   9.710
 2654POPC   GL136169  29.039  27.423   9.289
 2654POPC   GL236170  29.374  27.360   9.139
 2654POPC   C1A36171  29.094  27.761   8.945
 2654POPC   D2A36172  28.945  27.689   8.553
 2654POPC   C3A36173  29.109  27.686   8.147
 2654POPC   C4A36174  28.814  27.600   7.815
 2654POPC   C1B36175  29.448  27.502   8.696
 2654POPC   C2B36176  29.571  27.297   8.341
 2654POPC   C3B36177  29.391  27.261   7.979
 2654POPC   C4B36178  29.295  27.511   7.680
 2655POPC   NC336179  37.730  38.653   9.440
 2655POPC   PO436180  37.865  38.006   9.293
 2655POPC   GL136181  37.582  38.304   9.086
 2655POPC   GL236182  37.763  38.581   8.940
 2655POPC   C1A36183  37.403  38.247   8.691
 2655POPC   D2A36184  37.531  38.128   8.279
 2655POPC   C3A36185  37.343  38.407   7.999
 2655POPC   C4A36186  37.335  38.761   7.777
 2655POPC   C1B36187  37.909  38.226   8.668
 2655POPC   C2B36188  37.989  38.388   8.279
 2655POPC   C3B36189  37.852  38.429   7.878
 2655POPC   C4B36190  37.957  38.263   7.493
 2656POPC   NC336191  12.349   8.743   9.563
 2656POPC   PO436192  11.805   9.090   9.449
 2656POPC   GL136193  12.047   8.855   9.166
 2656POPC   GL236194  12.345   8.962   9.107
 2656POPC   C1A36195  12.146   8.682   8.732
 2656POPC   D2A36196  12.105   8.525   8.287
 2656POPC   C3A36197  12.131   8.875   7.973
 2656POPC   C4A36198  12.146   8.838   7.553
 2656POPC   C1B36199  12.112   9.195   8.790
 2656POPC   C2B36200  12.113   9.278   8.368
 2656POPC   C3B36201  12.282   9.371   7.973
 2656POPC   C4B36202  12.229   9.349   7.510
 2657POPC   NC336203  37.758  17.895   9.392
 2657POPC   PO436204  37.906  17.217   9.480
 2657POPC   GL136205  37.788  17.462   9.120
 2657POPC   GL236206  38.112  17.582   9.151
 2657POPC   C1A36207  37.873  17.747   8.729
 2657POPC   D2A36208  37.890  17.951   8.304
 2657POPC   C3A36209  37.663  17.728   7.983
 2657POPC   C4A36210  37.287  17.507   7.858
 2657POPC   C1B36211  38.140  17.286   8.789
 2657POPC   C2B36212  37.973  17.238   8.390
 2657POPC   C3B36213  37.712  17.201   8.026
 2657POPC   C4B36214  37.937  17.361   7.695
 2658POPC   NC336215  31.898  11.321   9.403
 2658POPC   PO436216  32.471  11.349   9.759
 2658POPC   GL136217  32.393  11.263   9.266
 2658POPC   GL236218  32.348  11.582   9.105
 2658POPC   C1A36219  32.218  11.199   8.794
 2658POPC   D2A36220  32.233  11.356   8.341
 2658POPC   C3A36221  32.059  11.486   7.921
 2658POPC   C4A36222  31.867  11.268   7.582
 2658POPC   C1B36223  32.629  11.512   8.728
 2658POPC   C2B36224  32.754  11.307   8.328
 2658POPC   C3B36225  32.540  11.289   7.927
 2658POPC   C4B36226  32.541  11.574   7.592
 2659POPC   NC336227  15.558  20.448   9.698
 2659POPC   PO436228  15.029  20.913   9.554
 2659POPC   GL136229  15.130  20.677   9.166
 2659POPC   GL236230  15.434  20.470   9.199
 2659POPC   C1A36231  15.205  20.700   8.707
 2659POPC   D2A36232  15.314  20.486   8.346
 2659POPC   C3A36233  15.024  20.608   8.033
 2659POPC   C4A36234  14.658  20.785   7.845
 2659POPC   C1B36235  15.609  20.243   8.854
 2659POPC   C2B36236  15.530  20.030   8.469
 2659POPC   C3B36237  15.579  20.176   8.049
 2659POPC   C4B36238  15.410  20.419   7.763
 2660POPC   NC336239  29.037  34.454   9.497
 2660POPC   PO436240  29.571  34.652   9.147
 2660POPC   GL136241  29.277  34.329   9.025
 2660POPC   GL236242  28.911  34.335   9.037
 2660POPC   C1A36243  29.156  34.447   8.613
 2660POPC   D2A36244  29.406  34.742   8.374
 2660POPC   C3A36245  29.425  34.627   7.933
 2660POPC   C4A36246  29.217  34.255   7.802
 2660POPC   C1B36247  28.883  34.777   8.916
 2660POPC   C2B36248  28.879  34.881   8.482
 2660POPC   C3B36249  28.938  34.593   8.143
 2660POPC   C4B36250  28.920  34.675   7.726
 2661POPC   NC336251  24.174  32.700   9.639
 2661POPC   PO436252  24.580  33.172   9.436
 2661POPC   GL136253  24.703  33.096   8.999
 2661POPC   GL236254  24.332  33.160   8.978
 2661POPC   C1A36255  24.579  33.006   8.548
 2661POPC   D2A36256  24.136  33.050   8.382
 2661POPC   C3A36257  24.162  32.972   7.950
 2661POPC   C4A36258  24.492  33.008   7.678
 2661POPC   C1B36259  24.272  32.722   8.878
 2661POPC   C2B36260  24.292  32.580   8.459
 2661POPC   C3B36261  24.535  32.668   8.098
 2661POPC   C4B36262  24.603  32.504   7.680
 2662POPC   NC336263   9.207   5.830   9.814
 2662POPC   PO436264   9.905   6.001   9.784
 2662POPC   GL136265   9.913   6.088   9.201
 2662POPC   GL236266  10.033   5.797   8.977
 2662POPC   C1A36267   9.607   5.965   8.823
 2662POPC   D2A36268   9.521   5.820   8.402
 2662POPC   C3A36269   9.619   6.008   8.013
 2662POPC   C4A36270   9.469   5.994   7.564
 2662POPC   C1B36271  10.064   5.957   8.566
 2662POPC   C2B36272   9.981   5.680   8.230
 2662POPC   C3B36273   9.701   5.496   7.933
 2662POPC   C4B36274   9.656   5.540   7.486
 2663POPC   NC336275  37.492  36.377   9.358
 2663POPC   PO436276  36.919  36.089   9.517
 2663POPC   GL136277  36.966  36.339   9.149
 2663POPC   GL236278  36.643  36.335   8.949
 2663POPC   C1A36279  37.178  36.364   8.745
 2663POPC   D2A36280  36.933  36.403   8.379
 2663POPC   C3A36281  36.984  36.207   7.957
 2663POPC   C4A36282  37.047  36.199   7.468
 2663POPC   C1B36283  36.872  35.954   8.802
 2663POPC   C2B36284  36.868  35.726   8.412
 2663POPC   C3B36285  36.663  35.804   8.034
 2663POPC   C4B36286  36.886  35.754   7.625
 2664POPC   NC336287   8.805  39.405   9.564
 2664POPC   PO436288   9.279  39.026   9.289
 2664POPC   GL136289   9.038  39.324   9.112
 2664POPC   GL236290   8.725  39.189   9.118
 2664POPC   C1A36291   8.965  39.459   8.712
 2664POPC   D2A36292   9.180  39.417   8.316
 2664POPC   C3A36293   8.994  39.341   7.877
 2664POPC   C4A36294   9.244  39.148   7.504
 2664POPC   C1B36295   8.707  39.010   8.727
 2664POPC   C2B36296   8.721  39.191   8.322
 2664POPC   C3B36297   8.605  39.015   7.927
 2664POPC   C4B36298   8.811  38.906   7.550
 2665POPC   NC336299  26.692   4.740   9.418
 2665POPC   PO436300  26.069   5.025   9.620
 2665POPC   GL136301  25.989   5.168   9.217
 2665POPC   GL236302  26.329   5.173   9.142
 2665POPC   C1A36303  25.821   4.893   8.903
 2665POPC   D2A36304  25.627   4.880   8.500
 2665POPC   C3A36305  25.879   5.018   8.137
 2665POPC   C4A36306  25.926   4.858   7.723
 2665POPC   C1B36307  26.228   5.153   8.709
 2665POPC   C2B36308  26.473   5.084   8.341
 2665POPC   C3B36309  26.286   5.317   8.043
 2665POPC   C4B36310  25.992   5.365   7.718
 2666POPC   NC336311  41.110  41.608   9.538
 2666POPC   PO436312  40.522  41.253   9.490
 2666POPC   GL136313  40.857  41.280   9.201
 2666POPC   GL236314  40.776  41.619   9.142
 2666POPC   C1A36315  40.920  41.317   8.749
 2666POPC   D2A36316  40.714  41.540   8.410
 2666POPC   C3A36317  40.732  41.388   7.989
 2666POPC   C4A36318  40.387  41.449   7.710
 2666POPC   C1B36319  40.919  41.845   8.769
 2666POPC   C2B36320  41.163  41.775   8.416
 2666POPC   C3B36321  40.961  41.857   8.054
 2666POPC   C4B36322  40.991  42.239   7.854
 2667POPC   NC336323  22.097  41.777   9.532
 2667POPC   PO436324  22.471  41.196   9.706
 2667POPC   GL136325  22.310  41.419   9.282
 2667POPC   GL236326  22.419  41.740   9.133
 2667POPC   C1A36327  22.024  41.450   8.907
 2667POPC   D2A36328  22.135  41.479   8.434
 2667POPC   C3A36329  22.083  41.800   8.087
 2667POPC   C4A36330  21.921  41.854   7.673
 2667POPC   C1B36331  22.539  41.534   8.783
 2667POPC   C2B36332  22.682  41.535   8.385
 2667POPC   C3B36333  22.480  41.477   8.043
 2667POPC   C4B36334  22.350  41.598   7.660
 2668POPC   NC336335  40.267  36.175   9.607
 2668POPC   PO436336  40.371  35.498   9.529
 2668POPC   GL136337  40.252  35.906   9.176
 2668POPC   GL236338  40.313  36.305   9.123
 2668POPC   C1A36339  39.926  36.108   8.841
 2668POPC   D2A36340  39.678  35.954   8.448
 2668POPC   C3A36341  39.860  35.924   8.021
 2668POPC   C4A36342  40.064  35.895   7.635
 2668POPC   C1B36343  40.442  36.140   8.738
 2668POPC   C2B36344  40.502  36.331   8.351
 2668POPC   C3B36345  40.372  36.216   7.941
 2668POPC   C4B36346  40.315  36.293   7.464
 2669POPC   NC336347  32.563  33.999   9.416
 2669POPC   PO436348  31.933  33.785   9.237
 2669POPC   GL136349  32.338  33.714   9.043
 2669POPC   GL236350  32.519  34.038   8.922
 2669POPC   C1A36351  32.334  33.663   8.613
 2669POPC   D2A36352  32.166  33.835   8.259
 2669POPC   C3A36353  32.183  33.539   8.006
 2669POPC   C4A36354  32.439  33.461   7.739
 2669POPC   C1B36355  32.133  34.133   8.710
 2669POPC   C2B36356  32.055  34.337   8.326
 2669POPC   C3B36357  32.093  34.204   7.882
 2669POPC   C4B36358  32.138  34.218   7.432
 2670POPC   NC336359  24.721  36.031   9.370
 2670POPC   PO436360  25.371  35.748   9.497
 2670POPC   GL136361  25.458  35.939   9.113
 2670POPC   GL236362  25.209  36.201   9.124
 2670POPC   C1A36363  25.465  36.015   8.682
 2670POPC   D2A36364  25.131  36.104   8.403
 2670POPC   C3A36365  25.244  36.034   7.984
 2670POPC   C4A36366  25.405  35.956   7.592
 2670POPC   C1B36367  25.255  36.486   8.777
 2670POPC   C2B36368  25.121  36.614   8.400
 2670POPC   C3B36369  25.387  36.525   8.081
 2670POPC   C4B36370  25.289  36.449   7.674
 2671POPC   NC336371  35.075  35.317   9.412
 2671POPC   PO436372  35.732  35.096   9.478
 2671POPC   GL136373  35.555  35.236   9.115
 2671POPC   GL236374  35.459  35.569   9.168
 2671POPC   C1A36375  35.521  35.160   8.676
 2671POPC   D2A36376  35.338  35.305   8.305
 2671POPC   C3A36377  35.393  35.070   7.967
 2671POPC   C4A36378  35.411  35.126   7.542
 2671POPC   C1B36379  35.560  35.673   8.754
 2671POPC   C2B36380  35.799  35.589   8.358
 2671POPC   C3B36381  35.673  35.515   7.935
 2671POPC   C4B36382  35.840  35.593   7.532
 2672POPC   NC336383   6.050  33.412   9.337
 2672POPC   PO436384   5.596  32.958   9.506
 2672POPC   GL136385   5.780  32.997   9.112
 2672POPC   GL236386   5.692  33.318   8.981
 2672POPC   C1A36387   5.910  32.716   8.764
 2672POPC   D2A36388   6.059  32.768   8.328
 2672POPC   C3A36389   5.888  32.842   7.927
 2672POPC   C4A36390   5.943  32.999   7.536
 2672POPC   C1B36391   5.979  33.265   8.689
 2672POPC   C2B36392   6.217  33.255   8.325
 2672POPC   C3B36393   6.010  33.330   7.972
 2672POPC   C4B36394   5.819  33.496   7.649
 2673POPC   NC336395  19.217  39.676   9.236
 2673POPC   PO436396  18.753  39.224   9.618
 2673POPC   GL136397  18.912  39.238   9.161
 2673POPC   GL236398  18.618  39.141   8.950
 2673POPC   C1A36399  19.046  39.325   8.703
 2673POPC   D2A36400  18.908  39.451   8.271
 2673POPC   C3A36401  19.261  39.426   7.954
 2673POPC   C4A36402  19.265  39.423   7.481
 2673POPC   C1B36403  18.859  38.856   8.673
 2673POPC   C2B36404  19.118  38.963   8.331
 2673POPC   C3B36405  18.946  39.032   7.945
 2673POPC   C4B36406  18.759  38.753   7.638
 2674POPC   NC336407  10.024  33.157   9.505
 2674POPC   PO436408  10.684  33.045   9.418
 2674POPC   GL136409  10.675  33.276   9.061
 2674POPC   GL236410  10.350  33.394   9.120
 2674POPC   C1A36411  10.776  33.164   8.686
 2674POPC   D2A36412  10.552  32.929   8.391
 2674POPC   C3A36413  10.513  32.999   7.949
 2674POPC   C4A36414  10.177  32.939   7.623
 2674POPC   C1B36415  10.433  33.565   8.700
 2674POPC   C2B36416  10.420  33.457   8.267
 2674POPC   C3B36417  10.210  33.386   7.876
 2674POPC   C4B36418  10.235  33.361   7.376
 2675POPC   NC336419  15.683  15.678   9.779
 2675POPC   PO436420  16.326  15.901   9.604
 2675POPC   GL136421  16.037  15.916   9.226
 2675POPC   GL236422  16.051  16.281   9.116
 2675POPC   C1A36423  16.036  15.688   8.796
 2675POPC   D2A36424  15.831  15.585   8.364
 2675POPC   C3A36425  15.930  15.832   7.960
 2675POPC   C4A36426  15.732  15.756   7.501
 2675POPC   C1B36427  15.781  16.108   8.786
 2675POPC   C2B36428  15.671  16.088   8.364
 2675POPC   C3B36429  15.758  16.326   8.027
 2675POPC   C4B36430  15.798  16.222   7.638
 2676POPC   NC336431  16.088  18.125   9.683
 2676POPC   PO436432  16.303  18.513   9.202
 2676POPC   GL136433  15.932  18.358   9.034
 2676POPC   GL236434  15.825  18.088   9.219
 2676POPC   C1A36435  16.010  18.347   8.606
 2676POPC   D2A36436  16.161  18.657   8.326
 2676POPC   C3A36437  16.135  18.494   7.905
 2676POPC   C4A36438  15.848  18.454   7.562
 2676POPC   C1B36439  15.728  17.947   8.816
 2676POPC   C2B36440  15.672  18.024   8.394
 2676POPC   C3B36441  15.820  18.116   7.992
 2676POPC   C4B36442  16.016  17.988   7.593
 2677POPC   NC336443  37.767  27.908   9.296
 2677POPC   PO436444  37.677  28.534   9.599
 2677POPC   GL136445  37.831  28.678   9.202
 2677POPC   GL236446  37.871  28.350   9.030
 2677POPC   C1A36447  37.569  28.694   8.830
 2677POPC   D2A36448  37.313  28.538   8.480
 2677POPC   C3A36449  37.526  28.520   8.090
 2677POPC   C4A36450  37.521  28.221   7.779
 2677POPC   C1B36451  37.961  28.452   8.572
 2677POPC   C2B36452  38.087  28.473   8.122
 2677POPC   C3B36453  38.045  28.322   7.680
 2677POPC   C4B36454  38.136  28.632   7.335
 2678POPC   NC336455  41.471  20.140   9.455
 2678POPC   PO436456  41.477  20.740   9.548
 2678POPC   GL136457  41.729  20.525   9.244
 2678POPC   GL236458  41.410  20.480   9.074
 2678POPC   C1A36459  41.866  20.374   8.845
 2678POPC   D2A36460  41.645  20.606   8.544
 2678POPC   C3A36461  41.633  20.628   8.090
 2678POPC   C4A36462  41.550  20.425   7.701
 2678POPC   C1B36463  41.251  20.818   8.823
 2678POPC   C2B36464  41.329  20.969   8.395
 2678POPC   C3B36465  41.252  21.123   7.987
 2678POPC   C4B36466  41.287  20.887   7.644
 2679POPC   NC336467  22.500  24.513   9.346
 2679POPC   PO436468  21.951  24.256   9.624
 2679POPC   GL136469  22.044  24.385   9.192
 2679POPC   GL236470  21.968  24.724   9.156
 2679POPC   C1A36471  22.273  24.303   8.757
 2679POPC   D2A36472  22.192  24.222   8.309
 2679POPC   C3A36473  22.350  24.381   7.959
 2679POPC   C4A36474  22.394  24.750   7.743
 2679POPC   C1B36475  22.051  24.772   8.722
 2679POPC   C2B36476  22.134  24.755   8.285
 2679POPC   C3B36477  21.895  24.637   7.945
 2679POPC   C4B36478  21.973  24.397   7.620
 2680POPC   NC336479  20.952  30.660   9.752
 2680POPC   PO436480  21.549  30.668   9.501
 2680POPC   GL136481  21.443  30.724   9.078
 2680POPC   GL236482  21.103  30.646   8.923
 2680POPC   C1A36483  21.525  30.588   8.663
 2680POPC   D2A36484  21.263  30.663   8.297
 2680POPC   C3A36485  21.529  30.629   7.938
 2680POPC   C4A36486  21.895  30.384   7.910
 2680POPC   C1B36487  20.818  30.895   8.687
 2680POPC   C2B36488  20.955  31.109   8.322
 2680POPC   C3B36489  20.928  30.978   7.906
 2680POPC   C4B36490  20.915  30.968   7.449
 2681POPC   NC336491   2.338  29.778   9.444
 2681POPC   PO436492   1.973  30.340   9.563
 2681POPC   GL136493   1.927  29.995   9.125
 2681POPC   GL236494   2.151  29.680   8.996
 2681POPC   C1A36495   2.001  30.011   8.659
 2681POPC   D2A36496   2.435  30.031   8.507
 2681POPC   C3A36497   2.409  30.207   8.098
 2681POPC   C4A36498   2.093  30.104   7.776
 2681POPC   C1B36499   1.811  29.505   8.747
 2681POPC   C2B36500   1.664  29.602   8.339
 2681POPC   C3B36501   1.945  29.659   7.963
 2681POPC   C4B36502   2.070  29.652   7.501
 2682POPC   NC336503   4.429  31.698   9.445
 2682POPC   PO436504   4.616  31.021   9.426
 2682POPC   GL136505   4.584  31.290   9.108
 2682POPC   GL236506   4.233  31.373   9.087
 2682POPC   C1A36507   4.546  31.407   8.690
 2682POPC   D2A36508   4.212  31.404   8.437
 2682POPC   C3A36509   4.422  31.264   8.077
 2682POPC   C4A36510   4.622  31.523   7.816
 2682POPC   C1B36511   4.274  31.800   8.840
 2682POPC   C2B36512   4.396  31.887   8.421
 2682POPC   C3B36513   4.181  31.737   8.055
 2682POPC   C4B36514   4.071  31.887   7.692
 2683POPC   NC336515  18.188  37.407   9.822
 2683POPC   PO436516  18.353  37.867   9.412
 2683POPC   GL136517  18.228  37.765   9.016
 2683POPC   GL236518  18.616  37.911   8.997
 2683POPC   C1A36519  17.968  37.412   8.836
 2683POPC   D2A36520  18.015  37.186   8.433
 2683POPC   C3A36521  18.062  37.426   8.078
 2683POPC   C4A36522  18.394  37.437   7.793
 2683POPC   C1B36523  18.465  38.008   8.629
 2683POPC   C2B36524  18.656  38.153   8.294
 2683POPC   C3B36525  18.730  37.915   7.950
 2683POPC   C4B36526  18.575  37.831   7.552
 2684POPC   NC336527  28.144  32.387   9.556
 2684POPC   PO436528  28.575  31.905   9.417
 2684POPC   GL136529  28.267  32.052   9.160
 2684POPC   GL236530  28.390  32.361   9.094
 2684POPC   C1A36531  28.079  32.094   8.749
 2684POPC   D2A36532  28.239  32.179   8.356
 2684POPC   C3A36533  28.084  32.049   7.979
 2684POPC   C4A36534  28.212  32.229   7.607
 2684POPC   C1B36535  28.604  32.238   8.704
 2684POPC   C2B36536  28.685  31.937   8.360
 2684POPC   C3B36537  28.605  32.123   7.982
 2684POPC   C4B36538  28.698  32.513   7.767
 2685POPC   NC336539  30.501  35.867   9.423
 2685POPC   PO436540  30.707  36.515   9.556
 2685POPC   GL136541  30.845  36.284   9.188
 2685POPC   GL236542  30.574  36.113   9.010
 2685POPC   C1A36543  30.856  36.435   8.759
 2685POPC   D2A36544  30.912  36.196   8.413
 2685POPC   C3A36545  30.877  36.235   7.968
 2685POPC   C4A36546  30.982  36.178   7.527
 2685POPC   C1B36547  30.594  35.887   8.669
 2685POPC   C2B36548  30.784  35.740   8.277
 2685POPC   C3B36549  30.633  35.787   7.873
 2685POPC   C4B36550  30.502  36.018   7.539
 2686POPC   NC336551  37.969  44.988   9.440
 2686POPC   PO436552  37.708  44.436   9.668
 2686POPC   GL136553  37.636  44.516   9.245
 2686POPC   GL236554  37.919  44.343   9.187
 2686POPC   C1A36555  37.441  44.633   8.837
 2686POPC   D2A36556  37.228  44.753   8.449
 2686POPC   C3A36557  37.414  44.625   8.084
 2686POPC   C4A36558  37.358  44.807   7.691
 2686POPC   C1B36559  37.978  44.646   8.847
 2686POPC   C2B36560  38.202  44.741   8.467
 2686POPC   C3B36561  37.993  44.724   8.078
 2686POPC   C4B36562  37.837  44.647   7.685
 2687POPC   NC336563   9.744   6.367   9.569
 2687POPC   PO436564   9.537   6.987   9.711
 2687POPC   GL136565   9.515   6.789   9.283
 2687POPC   GL236566   9.824   6.636   9.149
 2687POPC   C1A36567   9.570   6.918   8.818
 2687POPC   D2A36568   9.435   7.082   8.408
 2687POPC   C3A36569   9.605   7.037   7.990
 2687POPC   C4A36570   9.570   6.784   7.636
 2687POPC   C1B36571   9.908   6.402   8.800
 2687POPC   C2B36572   9.648   6.315   8.456
 2687POPC   C3B36573   9.618   6.519   8.083
 2687POPC   C4B36574   9.837   6.356   7.713
 2688POPC   NC336575  17.104   2.418   9.532
 2688POPC   PO436576  16.892   3.034   9.526
 2688POPC   GL136577  16.724   2.919   9.123
 2688POPC   GL236578  16.818   2.577   9.126
 2688POPC   C1A36579  16.506   3.050   8.719
 2688POPC   D2A36580  16.389   3.226   8.267
 2688POPC   C3A36581  16.500   2.935   7.929
 2688POPC   C4A36582  16.511   2.466   7.947
 2688POPC   C1B36583  16.892   2.667   8.690
 2688POPC   C2B36584  16.904   2.591   8.251
 2688POPC   C3B36585  16.993   2.823   7.911
 2688POPC   C4B36586  17.323   2.892   7.671
 2689POPC   NC336587  34.266  15.239   9.920
 2689POPC   PO436588  34.768  15.048   9.533
 2689POPC   GL136589  34.600  15.227   9.189
 2689POPC   GL236590  34.260  15.154   9.157
 2689POPC   C1A36591  34.642  15.059   8.791
 2689POPC   D2A36592  34.377  14.887   8.486
 2689POPC   C3A36593  34.603  14.940   8.119
 2689POPC   C4A36594  34.485  15.151   7.754
 2689POPC   C1B36595  34.255  15.376   8.735
 2689POPC   C2B36596  34.343  15.352   8.278
 2689POPC   C3B36597  34.653  15.546   8.016
 2689POPC   C4B36598  34.363  15.641   7.706
 2690POPC   NC336599  17.407  44.222   9.246
 2690POPC   PO436600  17.795  43.921   9.719
 2690POPC   GL136601  17.644  43.766   9.196
 2690POPC   GL236602  17.720  43.958   8.901
 2690POPC   C1A36603  17.310  43.729   8.775
 2690POPC   D2A36604  17.273  43.963   8.368
 2690POPC   C3A36605  17.404  43.752   7.996
 2690POPC   C4A36606  17.606  43.593   7.676
 2690POPC   C1B36607  18.003  43.889   8.604
 2690POPC   C2B36608  17.870  43.882   8.201
 2690POPC   C3B36609  17.964  44.048   7.834
 2690POPC   C4B36610  18.153  43.817   7.534
 2691POPC   NC336611  18.331  17.464   9.561
 2691POPC   PO436612  17.910  17.865   9.334
 2691POPC   GL136613  18.229  17.608   9.067
 2691POPC   GL236614  18.312  17.263   9.079
 2691POPC   C1A36615  18.403  17.526   8.654
 2691POPC   D2A36616  18.293  17.760   8.319
 2691POPC   C3A36617  18.333  17.573   7.987
 2691POPC   C4A36618  18.081  17.498   7.700
 2691POPC   C1B36619  18.384  17.026   8.681
 2691POPC   C2B36620  18.582  17.175   8.276
 2691POPC   C3B36621  18.630  17.211   7.821
 2691POPC   C4B36622  18.240  17.011   7.703
 2692POPC   NC336623   1.737  29.954   9.583
 2692POPC   PO436624   1.150  29.754   9.416
 2692POPC   GL136625   1.109  29.926   9.070
 2692POPC   GL236626   1.396  30.159   9.179
 2692POPC   C1A36627   0.999  29.765   8.673
 2692POPC   D2A36628   1.081  29.964   8.291
 2692POPC   C3A36629   0.925  29.760   7.928
 2692POPC   C4A36630   1.087  29.398   7.696
 2692POPC   C1B36631   1.505  29.952   8.781
 2692POPC   C2B36632   1.547  30.213   8.437
 2692POPC   C3B36633   1.677  30.058   8.093
 2692POPC   C4B36634   1.440  29.718   7.886
 2693POPC   NC336635   9.396  37.913   9.222
 2693POPC   PO436636   9.008  37.479   9.513
 2693POPC   GL136637   8.810  37.565   9.104
 2693POPC   GL236638   8.800  37.935   8.994
 2693POPC   C1A36639   8.940  37.565   8.652
 2693POPC   D2A36640   9.305  37.536   8.358
 2693POPC   C3A36641   9.208  37.416   7.918
 2693POPC   C4A36642   8.903  37.565   7.596
 2693POPC   C1B36643   9.096  38.062   8.632
 2693POPC   C2B36644   9.131  38.296   8.229
 2693POPC   C3B36645   9.031  38.061   7.845
 2693POPC   C4B36646   9.267  37.929   7.469
 2694POPC   NC336647  36.595   9.464   9.323
 2694POPC   PO436648  37.071   9.886   9.514
 2694POPC   GL136649  36.961   9.787   9.121
 2694POPC   GL236650  37.118   9.464   9.097
 2694POPC   C1A36651  36.934  10.009   8.724
 2694POPC   D2A36652  37.060  10.185   8.309
 2694POPC   C3A36653  37.089   9.973   7.907
 2694POPC   C4A36654  37.156  10.011   7.450
 2694POPC   C1B36655  36.846   9.508   8.721
 2694POPC   C2B36656  36.848   9.684   8.328
 2694POPC   C3B36657  37.072   9.456   8.046
 2694POPC   C4B36658  37.158   9.525   7.631
 2695POPC   NC336659  10.855   1.493   9.872
 2695POPC   PO436660  10.331   1.703   9.636
 2695POPC   GL136661  10.284   1.689   9.178
 2695POPC   GL236662  10.174   1.361   9.100
 2695POPC   C1A36663  10.438   1.605   8.743
 2695POPC   D2A36664  10.416   1.330   8.380
 2695POPC   C3A36665  10.550   1.424   7.964
 2695POPC   C4A36666  10.706   1.155   7.623
 2695POPC   C1B36667  10.170   1.078   8.760
 2695POPC   C2B36668  10.117   0.916   8.334
 2695POPC   C3B36669  10.231   1.027   7.912
 2695POPC   C4B36670  10.220   1.023   7.464
 2696POPC   NC336671  31.664   8.425   9.372
 2696POPC   PO436672  31.174   7.978   9.487
 2696POPC   GL136673  31.248   8.203   9.117
 2696POPC   GL236674  31.003   8.511   9.041
 2696POPC   C1A36675  31.529   8.078   8.774
 2696POPC   D2A36676  31.520   7.815   8.431
 2696POPC   C3A36677  31.559   8.017   8.038
 2696POPC   C4A36678  31.241   8.290   7.846
 2696POPC   C1B36679  31.218   8.467   8.675
 2696POPC   C2B36680  31.457   8.484   8.290
 2696POPC   C3B36681  31.719   8.477   7.904
 2696POPC   C4B36682  31.558   8.365   7.445
 2697POPC   NC336683   8.165  36.418   9.697
 2697POPC   PO436684   8.452  35.903   9.502
 2697POPC   GL136685   8.143  36.105   9.278
 2697POPC   GL236686   8.286  36.402   9.181
 2697POPC   C1A36687   8.106  36.021   8.856
 2697POPC   D2A36688   7.907  36.021   8.497
 2697POPC   C3A36689   8.122  35.901   8.132
 2697POPC   C4A36690   8.041  35.966   7.695
 2697POPC   C1B36691   8.493  36.363   8.794
 2697POPC   C2B36692   8.276  36.365   8.422
 2697POPC   C3B36693   8.136  36.390   8.025
 2697POPC   C4B36694   8.326  36.381   7.648
 2698POPC   NC336695  14.693  15.739   9.652
 2698POPC   PO436696  14.815  16.397   9.596
 2698POPC   GL136697  14.610  16.258   9.202
 2698POPC   GL236698  14.402  15.956   9.250
 2698POPC   C1A36699  14.494  16.115   8.759
 2698POPC   D2A36700  14.138  15.901   8.505
 2698POPC   C3A36701  14.159  15.922   8.029
 2698POPC   C4A36702  14.480  16.044   7.722
 2698POPC   C1B36703  14.380  15.637   8.902
 2698POPC   C2B36704  14.468  15.496   8.478
 2698POPC   C3B36705  14.576  15.642   8.047
 2698POPC   C4B36706  14.445  15.548   7.612
 2699POPC   NC336707  35.935  39.747   9.265
 2699POPC   PO436708  36.186  40.377   9.357
 2699POPC   GL136709  36.269  40.081   9.047
 2699POPC   GL236710  36.439  39.804   9.148
 2699POPC   C1A36711  36.069  39.886   8.674
 2699POPC   D2A36712  35.696  39.798   8.490
 2699POPC   C3A36713  35.895  39.761   8.114
 2699POPC   C4A36714  36.112  40.016   7.774
 2699POPC   C1B36715  36.559  39.749   8.724
 2699POPC   C2B36716  36.368  39.580   8.361
 2699POPC   C3B36717  36.367  39.607   7.928
 2699POPC   C4B36718  36.009  39.542   7.681
 2700POPC   NC336719  31.141  31.291   9.503
 2700POPC   PO436720  30.843  31.877   9.302
 2700POPC   GL136721  30.954  31.522   9.081
 2700POPC   GL236722  30.699  31.265   9.152
 2700POPC   C1A36723  30.851  31.441   8.672
 2700POPC   D2A36724  30.728  31.754   8.335
 2700POPC   C3A36725  30.819  31.625   7.893
 2700POPC   C4A36726  30.883  31.210   7.675
 2700POPC   C1B36727  30.424  31.151   8.779
 2700POPC   C2B36728  30.587  31.129   8.362
 2700POPC   C3B36729  30.460  31.251   7.975
 2700POPC   C4B36730  30.354  30.973   7.641
 2701POPC   NC336731  39.496  18.114   9.370
 2701POPC   PO436732  38.876  18.459   9.544
 2701POPC   GL136733  39.079  18.344   9.135
 2701POPC   GL236734  39.034  17.974   9.172
 2701POPC   C1A36735  39.367  18.462   8.749
 2701POPC   D2A36736  39.568  18.460   8.323
 2701POPC   C3A36737  39.309  18.434   7.960
 2701POPC   C4A36738  39.048  18.668   7.727
 2701POPC   C1B36739  39.259  17.974   8.757
 2701POPC   C2B36740  39.244  18.054   8.315
 2701POPC   C3B36741  39.114  17.952   7.900
 2701POPC   C4B36742  39.188  18.105   7.463
 2702POPC   NC336743  21.161  28.985   9.598
 2702POPC   PO436744  21.707  29.432   9.539
 2702POPC   GL136745  21.343  29.382   9.278
 2702POPC   GL236746  21.335  29.050   9.127
 2702POPC   C1A36747  21.180  29.459   8.869
 2702POPC   D2A36748  21.177  29.243   8.486
 2702POPC   C3A36749  21.207  29.464   8.153
 2702POPC   C4A36750  21.258  29.249   7.790
 2702POPC   C1B36751  21.364  28.838   8.743
 2702POPC   C2B36752  21.063  28.711   8.438
 2702POPC   C3B36753  21.010  28.740   8.015
 2702POPC   C4B36754  21.358  28.767   7.757
 2703POPC   NC336755  17.496  15.990   9.540
 2703POPC   PO436756  17.589  15.357   9.699
 2703POPC   GL136757  17.569  15.568   9.244
 2703POPC   GL236758  17.232  15.653   9.179
 2703POPC   C1A36759  17.586  15.860   8.853
 2703POPC   D2A36760  17.415  16.013   8.428
 2703POPC   C3A36761  17.669  15.960   8.016
 2703POPC   C4A36762  18.033  16.112   7.781
 2703POPC   C1B36763  17.076  15.934   8.843
 2703POPC   C2B36764  16.907  15.853   8.445
 2703POPC   C3B36765  17.031  16.013   8.073
 2703POPC   C4B36766  17.248  15.967   7.737
 2704POPC   NC336767  43.678   0.245   9.884
 2704POPC   PO436768  43.035   0.261   9.590
 2704POPC   GL136769  43.056   0.435   9.203
 2704POPC   GL236770  43.395   0.500   9.281
 2704POPC   C1A36771  43.197   0.221   8.844
 2704POPC   D2A36772  43.242   0.198   8.417
 2704POPC   C3A36773  43.008   0.405   8.098
 2704POPC   C4A36774  43.085   0.255   7.721
 2704POPC   C1B36775  43.437   0.650   8.853
 2704POPC   C2B36776  43.263   0.720   8.417
 2704POPC   C3B36777  43.369   0.933   8.024
 2704POPC   C4B36778  43.243   0.735   7.614
 2705POPC   NC336779  26.492  21.659   9.496
 2705POPC   PO436780  27.127  21.316   9.469
 2705POPC   GL136781  26.862  21.455   9.187
 2705POPC   GL236782  26.817  21.147   9.058
 2705POPC   C1A36783  26.711  21.535   8.755
 2705POPC   D2A36784  26.912  21.704   8.382
 2705POPC   C3A36785  26.818  21.459   8.014
 2705POPC   C4A36786  26.873  21.487   7.599
 2705POPC   C1B36787  26.539  21.019   8.767
 2705POPC   C2B36788  26.608  21.181   8.395
 2705POPC   C3B36789  26.528  21.029   8.030
 2705POPC   C4B36790  26.647  21.039   7.638
 2706POPC   NC336791  34.963  32.642   9.369
 2706POPC   PO436792  35.219  33.216   9.542
 2706POPC   GL136793  35.180  33.200   9.082
 2706POPC   GL236794  35.002  32.937   8.961
 2706POPC   C1A36795  35.457  33.113   8.717
 2706POPC   D2A36796  35.665  32.867   8.386
 2706POPC   C3A36797  35.520  33.048   7.992
 2706POPC   C4A36798  35.603  32.988   7.555
 2706POPC   C1B36799  35.149  32.648   8.646
 2706POPC   C2B36800  35.264  32.564   8.239
 2706POPC   C3B36801  35.147  32.745   7.891
 2706POPC   C4B36802  35.027  33.209   7.829
 2707POPC   NC336803  43.543  18.732   9.298
 2707POPC   PO436804  44.100  19.087   9.618
 2707POPC   GL136805  43.998  19.033   9.182
 2707POPC   GL236806  44.051  18.681   9.166
 2707POPC   C1A36807  43.821  19.260   8.802
 2707POPC   D2A36808  44.023  19.386   8.414
 2707POPC   C3A36809  43.764  19.330   8.067
 2707POPC   C4A36810  43.884  19.474   7.711
 2707POPC   C1B36811  43.865  18.746   8.757
 2707POPC   C2B36812  43.834  18.915   8.389
 2707POPC   C3B36813  43.862  18.773   8.007
 2707POPC   C4B36814  43.783  18.998   7.650
 2708POPC   NC336815  40.798  32.313   9.551
 2708POPC   PO436816  40.544  31.920   9.074
 2708POPC   GL136817  40.856  32.256   9.043
 2708POPC   GL236818  40.672  32.544   9.116
 2708POPC   C1A36819  41.133  32.209   8.723
 2708POPC   D2A36820  40.872  32.197   8.365
 2708POPC   C3A36821  41.051  32.237   7.974
 2708POPC   C4A36822  41.111  31.906   7.704
 2708POPC   C1B36823  40.800  32.629   8.683
 2708POPC   C2B36824  40.724  32.688   8.243
 2708POPC   C3B36825  40.567  32.452   7.925
 2708POPC   C4B36826  40.603  32.394   7.498
 2709POPC   NC336827   8.236   9.258   9.416
 2709POPC   PO436828   8.402   8.617   9.369
 2709POPC   GL136829   8.273   8.883   9.064
 2709POPC   GL236830   7.912   8.944   9.164
 2709POPC   C1A36831   8.429   8.818   8.654
 2709POPC   D2A36832   8.619   8.873   8.249
 2709POPC   C3A36833   8.372   8.767   7.881
 2709POPC   C4A36834   8.284   9.099   7.571
 2709POPC   C1B36835   7.921   8.943   8.713
 2709POPC   C2B36836   7.967   8.799   8.301
 2709POPC   C3B36837   7.863   8.895   7.849
 2709POPC   C4B36838   7.812   8.992   7.408
 2710POPC   NC336839  19.127   4.781   9.457
 2710POPC   PO436840  19.041   5.374   9.496
 2710POPC   GL136841  19.222   5.179   9.143
 2710POPC   GL236842  18.914   5.016   9.072
 2710POPC   C1A36843  19.354   4.988   8.805
 2710POPC   D2A36844  19.052   4.986   8.488
 2710POPC   C3A36845  19.165   4.966   8.063
 2710POPC   C4A36846  19.251   4.928   7.626
 2710POPC   C1B36847  18.881   5.359   8.787
 2710POPC   C2B36848  19.022   5.471   8.367
 2710POPC   C3B36849  19.080   5.462   7.938
 2710POPC   C4B36850  18.858   5.658   7.603
 2711POPC   NC336851  26.275  25.017   9.618
 2711POPC   PO436852  25.914  25.511   9.372
 2711POPC   GL136853  26.175  25.293   9.137
 2711POPC   GL236854  26.056  24.982   9.162
 2711POPC   C1A36855  26.344  25.134   8.765
 2711POPC   D2A36856  26.205  25.331   8.382
 2711POPC   C3A36857  26.382  25.332   7.959
 2711POPC   C4A36858  26.105  25.382   7.581
 2711POPC   C1B36859  25.839  25.046   8.787
 2711POPC   C2B36860  25.725  25.083   8.380
 2711POPC   C3B36861  25.916  25.104   7.984
 2711POPC   C4B36862  26.231  24.897   7.716
 2712POPC   NC336863  25.241  10.846   9.536
 2712POPC   PO436864  25.280  10.181   9.755
 2712POPC   GL136865  25.197  10.399   9.247
 2712POPC   GL236866  25.423  10.655   9.099
 2712POPC   C1A36867  25.201  10.331   8.783
 2712POPC   D2A36868  25.389  10.515   8.403
 2712POPC   C3A36869  25.220  10.345   8.028
 2712POPC   C4A36870  25.009  10.308   7.656
 2712POPC   C1B36871  25.640  10.852   8.746
 2712POPC   C2B36872  25.634  11.130   8.375
 2712POPC   C3B36873  25.582  11.013   7.942
 2712POPC   C4B36874  25.273  10.779   7.721
 2713POPC   NC336875   4.534  23.256   9.460
 2713POPC   PO436876   4.079  23.712   9.665
 2713POPC   GL136877   4.214  23.584   9.228
 2713POPC   GL236878   4.073  23.222   9.189
 2713POPC   C1A36879   4.454  23.754   8.845
 2713POPC   D2A36880   4.500  23.903   8.426
 2713POPC   C3A36881   4.194  23.837   8.071
 2713POPC   C4A36882   4.275  23.713   7.613
 2713POPC   C1B36883   4.301  23.284   8.786
 2713POPC   C2B36884   4.340  23.417   8.353
 2713POPC   C3B36885   4.486  23.368   7.926
 2713POPC   C4B36886   4.318  23.205   7.525
 2714POPC   NC336887  42.963  35.927   9.729
 2714POPC   PO436888  42.311  36.109   9.651
 2714POPC   GL136889  42.380  35.993   9.203
 2714POPC   GL236890  42.731  36.049   9.189
 2714POPC   C1A36891  42.222  35.947   8.755
 2714POPC   D2A36892  42.033  35.858   8.325
 2714POPC   C3A36893  42.176  36.150   8.012
 2714POPC   C4A36894  41.991  36.491   7.780
 2714POPC   C1B36895  42.850  36.158   8.764
 2714POPC   C2B36896  42.650  36.152   8.330
 2714POPC   C3B36897  42.650  36.239   7.856
 2714POPC   C4B36898  42.342  36.175   7.514
 2715POPC   NC336899  44.432  22.610   9.638
 2715POPC   PO436900  44.953  23.059   9.450
 2715POPC   GL136901  44.813  22.875   9.122
 2715POPC   GL236902  44.474  22.865   9.190
 2715POPC   C1A36903  44.726  23.031   8.704
 2715POPC   D2A36904  44.792  23.355   8.370
 2715POPC   C3A36905  44.900  23.094   8.004
 2715POPC   C4A36906  44.970  22.869   7.604
 2715POPC   C1B36907  44.231  23.066   8.867
 2715POPC   C2B36908  44.271  22.920   8.443
 2715POPC   C3B36909  44.258  23.046   8.020
 2715POPC   C4B36910  44.480  22.851   7.718
 2716POPC   NC336911  31.153  24.074   9.633
 2716POPC   PO436912  30.559  24.482   9.474
 2716POPC   GL136913  30.857  24.272   9.212
 2716POPC   GL236914  30.721  23.995   9.000
 2716POPC   C1A36915  30.899  24.412   8.782
 2716POPC   D2A36916  31.016  24.671   8.451
 2716POPC   C3A36917  30.756  24.781   8.101
 2716POPC   C4A36918  30.878  24.557   7.742
 2716POPC   C1B36919  30.401  24.275   8.884
 2716POPC   C2B36920  30.473  24.527   8.527
 2716POPC   C3B36921  30.692  24.296   8.190
 2716POPC   C4B36922  30.493  24.212   7.771
 2717POPC   NC336923  12.980  20.301   9.255
 2717POPC   PO436924  13.043  19.759   9.657
 2717POPC   GL136925  12.852  19.797   9.249
 2717POPC   GL236926  13.097  19.902   8.984
 2717POPC   C1A36927  12.684  19.586   8.891
 2717POPC   D2A36928  12.880  19.481   8.508
 2717POPC   C3A36929  12.780  19.702   8.144
 2717POPC   C4A36930  12.500  19.578   7.778
 2717POPC   C1B36931  12.891  20.008   8.623
 2717POPC   C2B36932  13.024  20.329   8.375
 2717POPC   C3B36933  13.273  20.230   8.059
 2717POPC   C4B36934  13.166  19.999   7.717
 2718POPC   NC336935  13.889  39.509   9.714
 2718POPC   PO436936  13.642  38.898   9.567
 2718POPC   GL136937  13.728  39.182   9.206
 2718POPC   GL236938  13.689  39.553   9.187
 2718POPC   C1A36939  13.772  39.229   8.750
 2718POPC   D2A36940  13.960  39.226   8.322
 2718POPC   C3A36941  13.702  39.003   8.005
 2718POPC   C4A36942  13.379  39.147   7.724
 2718POPC   C1B36943  13.470  39.671   8.776
 2718POPC   C2B36944  13.445  39.387   8.381
 2718POPC   C3B36945  13.626  39.499   8.000
 2718POPC   C4B36946  13.652  39.558   7.575
 2719POPC   NC336947  41.279  13.216   9.463
 2719POPC   PO436948  40.603  13.127   9.336
 2719POPC   GL136949  40.932  12.915   9.115
 2719POPC   GL236950  41.032  12.597   9.272
 2719POPC   C1A36951  40.909  12.854   8.668
 2719POPC   D2A36952  40.748  13.130   8.337
 2719POPC   C3A36953  40.617  12.952   7.974
 2719POPC   C4A36954  40.967  12.876   7.728
 2719POPC   C1B36955  41.187  12.475   8.887
 2719POPC   C2B36956  41.051  12.318   8.500
 2719POPC   C3B36957  40.972  12.535   8.127
 2719POPC   C4B36958  40.710  12.436   7.804
 2720POPC   NC336959  25.179   9.487   9.519
 2720POPC   PO436960  25.478  10.002   9.295
 2720POPC   GL136961  25.253   9.759   9.096
 2720POPC   GL236962  25.527   9.524   9.099
 2720POPC   C1A36963  24.986   9.830   8.774
 2720POPC   D2A36964  25.019  10.052   8.397
 2720POPC   C3A36965  25.023   9.848   8.007
 2720POPC   C4A36966  25.163   9.818   7.630
 2720POPC   C1B36967  25.333   9.446   8.702
 2720POPC   C2B36968  25.257   9.185   8.359
 2720POPC   C3B36969  25.262   9.382   7.981
 2720POPC   C4B36970  25.578   9.517   7.723
 2721POPC   NC336971  16.683  15.660   9.798
 2721POPC   PO436972  16.794  15.020   9.542
 2721POPC   GL136973  16.579  15.087   9.139
 2721POPC   GL236974  16.783  15.349   9.076
 2721POPC   C1A36975  16.636  15.107   8.666
 2721POPC   D2A36976  16.675  15.368   8.294
 2721POPC   C3A36977  16.694  15.065   7.930
 2721POPC   C4A36978  16.577  15.051   7.469
 2721POPC   C1B36979  17.073  15.424   8.715
 2721POPC   C2B36980  17.230  15.508   8.277
 2721POPC   C3B36981  16.974  15.538   7.904
 2721POPC   C4B36982  16.949  15.375   7.497
 2722POPC   NC336983  35.784  16.043   9.676
 2722POPC   PO436984  36.350  15.637   9.507
 2722POPC   GL136985  36.005  15.832   9.261
 2722POPC   GL236986  36.159  16.147   9.234
 2722POPC   C1A36987  35.852  16.043   8.852
 2722POPC   D2A36988  36.059  16.146   8.441
 2722POPC   C3A36989  35.810  16.137   8.065
 2722POPC   C4A36990  35.855  16.216   7.619
 2722POPC   C1B36991  36.316  15.857   8.856
 2722POPC   C2B36992  36.290  15.687   8.425
 2722POPC   C3B36993  36.294  15.934   8.004
 2722POPC   C4B36994  36.125  15.795   7.599
 2723POPC   NC336995   6.489   8.764   9.507
 2723POPC   PO436996   7.021   9.229   9.458
 2723POPC   GL136997   6.772   9.032   9.183
 2723POPC   GL236998   6.956   8.742   9.129
 2723POPC   C1A36999   6.555   8.888   8.806
 2723POPC   D2A37000   6.280   9.006   8.454
 2723POPC   C3A37001   6.487   9.111   8.085
 2723POPC   C4A37002   6.531   9.076   7.682
 2723POPC   C1B37003   6.992   8.587   8.716
 2723POPC   C2B37004   6.689   8.608   8.389
 2723POPC   C3B37005   6.407   8.611   8.092
 2723POPC   C4B37006   6.508   8.580   7.693
 2724POPC   NC337007  31.749  24.293   9.367
 2724POPC   PO437008  31.197  24.533   9.576
 2724POPC   GL137009  31.302  24.569   9.163
 2724POPC   GL237010  31.400  24.909   9.218
 2724POPC   C1A37011  31.387  24.296   8.795
 2724POPC   D2A37012  31.179  24.182   8.393
 2724POPC   C3A37013  31.416  24.254   8.024
 2724POPC   C4A37014  31.360  24.411   7.624
 2724POPC   C1B37015  31.656  24.830   8.845
 2724POPC   C2B37016  31.535  24.633   8.437
 2724POPC   C3B37017  31.345  24.770   8.048
 2724POPC   C4B37018  31.617  24.880   7.699
 2725POPC   NC337019   9.914  34.884   9.329
 2725POPC   PO437020   9.500  34.342   9.511
 2725POPC   GL137021   9.664  34.476   9.147
 2725POPC   GL237022   9.455  34.759   9.117
 2725POPC   C1A37023   9.975  34.410   8.811
 2725POPC   D2A37024   9.827  34.486   8.390
 2725POPC   C3A37025   9.896  34.289   8.025
 2725POPC   C4A37026   9.511  34.260   7.849
 2725POPC   C1B37027   9.591  34.801   8.710
 2725POPC   C2B37028   9.573  34.916   8.260
 2725POPC   C3B37029   9.597  34.790   7.834
 2725POPC   C4B37030   9.463  34.942   7.394
 2726POPC   NC337031  35.641  13.773   9.525
 2726POPC   PO437032  35.080  13.357   9.400
 2726POPC   GL137033  35.226  13.680   9.143
 2726POPC   GL237034  35.518  13.748   9.058
 2726POPC   C1A37035  35.200  13.732   8.673
 2726POPC   D2A37036  35.019  13.672   8.294
 2726POPC   C3A37037  35.367  13.673   8.011
 2726POPC   C4A37038  35.379  13.498   7.626
 2726POPC   C1B37039  35.573  14.055   8.747
 2726POPC   C2B37040  35.738  14.119   8.364
 2726POPC   C3B37041  35.799  14.060   7.968
 2726POPC   C4B37042  35.605  13.934   7.597
 2727POPC   NC337043  19.162  30.529   9.449
 2727POPC   PO437044  18.591  30.812   9.405
 2727POPC   GL137045  18.934  30.765   9.048
 2727POPC   GL237046  19.020  30.400   8.979
 2727POPC   C1A37047  19.344  30.743   8.797
 2727POPC   D2A37048  19.497  30.625   8.372
 2727POPC   C3A37049  19.355  30.828   8.010
 2727POPC   C4A37050  19.210  30.663   7.604
 2727POPC   C1B37051  19.001  30.474   8.518
 2727POPC   C2B37052  18.877  30.750   8.174
 2727POPC   C3B37053  18.757  30.965   7.788
 2727POPC   C4B37054  18.833  30.972   7.328
 2728POPC   NC337055   9.153  33.194   9.402
 2728POPC   PO437056   8.686  32.722   9.512
 2728POPC   GL137057   8.758  32.977   9.156
 2728POPC   GL237058   9.085  32.831   9.064
 2728POPC   C1A37059   8.883  33.199   8.777
 2728POPC   D2A37060   8.915  33.030   8.362
 2728POPC   C3A37061   8.913  33.190   7.949
 2728POPC   C4A37062   8.705  32.915   7.606
 2728POPC   C1B37063   9.287  32.840   8.653
 2728POPC   C2B37064   9.373  32.925   8.187
 2728POPC   C3B37065   9.211  32.830   7.763
 2728POPC   C4B37066   9.321  32.864   7.335
 2729POPC   NC337067   1.469  29.428   9.313
 2729POPC   PO437068   1.184  28.854   9.411
 2729POPC   GL137069   1.234  29.078   9.056
 2729POPC   GL237070   0.976  29.356   9.034
 2729POPC   C1A37071   1.317  29.345   8.660
 2729POPC   D2A37072   1.166  29.434   8.254
 2729POPC   C3A37073   1.432  29.186   7.992
 2729POPC   C4A37074   1.386  29.004   7.535
 2729POPC   C1B37075   0.931  29.001   8.693
 2729POPC   C2B37076   1.083  28.925   8.323
 2729POPC   C3B37077   1.016  28.894   7.917
 2729POPC   C4B37078   0.882  28.789   7.560
 2730POPC   NC337079  36.587  34.297   9.412
 2730POPC   PO437080  37.054  34.765   9.457
 2730POPC   GL137081  36.955  34.507   9.113
 2730POPC   GL237082  36.578  34.597   9.017
 2730POPC   C1A37083  37.221  34.366   8.777
 2730POPC   D2A37084  37.301  34.588   8.390
 2730POPC   C3A37085  37.155  34.417   8.059
 2730POPC   C4A37086  37.075  34.516   7.657
 2730POPC   C1B37087  36.790  34.574   8.624
 2730POPC   C2B37088  36.732  34.273   8.291
 2730POPC   C3B37089  36.648  34.530   7.948
 2730POPC   C4B37090  36.888  34.862   8.059
 2731POPC   NC337091  29.536  33.587   9.464
 2731POPC   PO437092  30.121  33.964   9.499
 2731POPC   GL137093  29.975  33.822   9.158
 2731POPC   GL237094  29.623  33.943   9.109
 2731POPC   C1A37095  30.203  33.797   8.773
 2731POPC   D2A37096  30.267  33.525   8.425
 2731POPC   C3A37097  30.174  33.700   8.023
 2731POPC   C4A37098  30.096  33.448   7.695
 2731POPC   C1B37099  29.702  33.706   8.753
 2731POPC   C2B37100  29.804  33.828   8.364
 2731POPC   C3B37101  29.618  33.712   7.986
 2731POPC   C4B37102  29.668  33.811   7.616
 2732POPC   NC337103  22.738  28.039   9.516
 2732POPC   PO437104  23.065  27.433   9.650
 2732POPC   GL137105  23.115  27.458   9.193
 2732POPC   GL237106  22.908  27.761   9.080
 2732POPC   C1A37107  22.994  27.298   8.775
 2732POPC   D2A37108  22.957  27.587   8.463
 2732POPC   C3A37109  22.939  27.376   8.087
 2732POPC   C4A37110  23.046  27.534   7.706
 2732POPC   C1B37111  22.550  27.558   8.860
 2732POPC   C2B37112  22.467  27.453   8.451
 2732POPC   C3B37113  22.542  27.684   8.111
 2732POPC   C4B37114  22.511  27.619   7.690
 2733POPC   NC337115  43.282  16.366   9.539
 2733POPC   PO437116  42.805  16.790   9.697
 2733POPC   GL137117  42.863  16.769   9.209
 2733POPC   GL237118  42.769  17.057   9.031
 2733POPC   C1A37119  43.047  16.550   8.799
 2733POPC   D2A37120  43.398  16.470   8.465
 2733POPC   C3A37121  43.361  16.585   8.012
 2733POPC   C4A37122  42.991  16.636   7.735
 2733POPC   C1B37123  43.120  17.061   8.757
 2733POPC   C2B37124  43.133  16.912   8.329
 2733POPC   C3B37125  43.145  17.083   7.925
 2733POPC   C4B37126  42.795  17.149   7.686
 2734POPC   NC337127  13.933   6.426   9.527
 2734POPC   PO437128  13.512   6.987   9.451
 2734POPC   GL137129  13.742   6.766   9.156
 2734POPC   GL237130  13.648   6.428   9.115
 2734POPC   C1A37131  13.655   6.723   8.717
 2734POPC   D2A37132  13.893   6.865   8.404
 2734POPC   C3A37133  13.695   6.812   8.059
 2734POPC   C4A37134  13.778   6.763   7.655
 2734POPC   C1B37135  13.712   6.221   8.751
 2734POPC   C2B37136  13.765   6.339   8.340
 2734POPC   C3B37137  13.819   6.315   7.897
 2734POPC   C4B37138  13.608   6.337   7.492
 2735POPC   NC337139  39.112  26.556   9.413
 2735POPC   PO437140  39.448  27.115   9.564
 2735POPC   GL137141  39.316  26.950   9.163
 2735POPC   GL237142  39.550  26.727   9.104
 2735POPC   C1A37143  39.089  26.810   8.789
 2735POPC   D2A37144  39.178  26.746   8.359
 2735POPC   C3A37145  38.940  26.912   7.991
 2735POPC   C4A37146  38.953  26.735   7.560
 2735POPC   C1B37147  39.616  26.522   8.752
 2735POPC   C2B37148  39.702  26.709   8.395
 2735POPC   C3B37149  39.544  27.021   8.123
 2735POPC   C4B37150  39.388  26.694   7.872
 2736POPC   NC337151  13.850   3.453   9.834
 2736POPC   PO437152  14.305   3.667   9.565
 2736POPC   GL137153  14.437   3.618   9.107
 2736POPC   GL237154  14.639   3.902   9.011
 2736POPC   C1A37155  14.389   3.456   8.632
 2736POPC   D2A37156  14.283   3.440   8.158
 2736POPC   C3A37157  14.559   3.695   7.848
 2736POPC   C4A37158  14.650   3.602   7.390
 2736POPC   C1B37159  14.282   3.936   8.732
 2736POPC   C2B37160  14.341   3.921   8.307
 2736POPC   C3B37161  14.081   3.868   7.948
 2736POPC   C4B37162  14.217   3.947   7.558
 2737POPC   NC337163  27.239  35.341   9.408
 2737POPC   PO437164  27.889  35.453   9.561
 2737POPC   GL137165  27.691  35.502   9.144
 2737POPC   GL237166  27.482  35.811   9.102
 2737POPC   C1A37167  27.628  35.313   8.728
 2737POPC   D2A37168  27.448  35.276   8.313
 2737POPC   C3A37169  27.754  35.252   7.973
 2737POPC   C4A37170  27.858  35.225   7.547
 2737POPC   C1B37171  27.759  35.825   8.722
 2737POPC   C2B37172  27.772  35.656   8.311
 2737POPC   C3B37173  27.508  35.708   7.937
 2737POPC   C4B37174  27.663  35.691   7.545
 2738POPC   NC337175  12.051  41.460   9.517
 2738POPC   PO437176  12.299  42.067   9.373
 2738POPC   GL137177  12.198  41.749   9.078
 2738POPC   GL237178  11.875  41.755   9.142
 2738POPC   C1A37179  12.141  41.709   8.631
 2738POPC   D2A37180  12.242  41.403   8.293
 2738POPC   C3A37181  12.187  41.614   7.922
 2738POPC   C4A37182  11.900  41.895   7.814
 2738POPC   C1B37183  11.830  41.395   8.865
 2738POPC   C2B37184  11.737  41.467   8.412
 2738POPC   C3B37185  11.801  41.294   8.020
 2738POPC   C4B37186  11.808  41.446   7.605
 2739POPC   NC337187  37.147  13.742   9.528
 2739POPC   PO437188  36.934  13.266   9.179
 2739POPC   GL137189  36.790  13.691   9.026
 2739POPC   GL237190  37.079  13.877   9.059
 2739POPC   C1A37191  36.746  13.685   8.573
 2739POPC   D2A37192  36.953  13.335   8.363
 2739POPC   C3A37193  36.811  13.360   7.965
 2739POPC   C4A37194  36.760  13.720   7.706
 2739POPC   C1B37195  37.238  13.716   8.707
 2739POPC   C2B37196  37.398  13.883   8.340
 2739POPC   C3B37197  37.219  13.729   7.982
 2739POPC   C4B37198  37.245  13.848   7.566
 2740POPC   NC337199  12.467  12.820   9.516
 2740POPC   PO437200  13.152  13.032   9.204
 2740POPC   GL137201  12.944  12.740   9.045
 2740POPC   GL237202  12.666  12.926   9.073
 2740POPC   C1A37203  12.873  12.700   8.614
 2740POPC   D2A37204  13.119  12.555   8.261
 2740POPC   C3A37205  12.946  12.676   7.874
 2740POPC   C4A37206  13.036  12.788   7.463
 2740POPC   C1B37207  12.450  12.564   8.872
 2740POPC   C2B37208  12.359  12.606   8.418
 2740POPC   C3B37209  12.445  12.764   7.977
 2740POPC   C4B37210  12.509  12.438   7.682
 2741POPC   NC337211  24.034  11.787   9.447
 2741POPC   PO437212  23.564  12.233   9.479
 2741POPC   GL137213  23.462  12.078   9.090
 2741POPC   GL237214  23.228  12.355   9.042
 2741POPC   C1A37215  23.653  11.926   8.692
 2741POPC   D2A37216  23.656  11.802   8.237
 2741POPC   C3A37217  23.413  12.074   7.925
 2741POPC   C4A37218  23.517  12.069   7.458
 2741POPC   C1B37219  23.445  12.398   8.687
 2741POPC   C2B37220  23.621  12.318   8.331
 2741POPC   C3B37221  23.863  12.257   8.000
 2741POPC   C4B37222  23.739  12.444   7.689
 2742POPC   NC337223   8.559  23.178   9.303
 2742POPC   PO437224   7.950  23.201   9.552
 2742POPC   GL137225   8.015  22.805   9.261
 2742POPC   GL237226   8.328  22.765   9.122
 2742POPC   C1A37227   7.981  22.615   8.801
 2742POPC   D2A37228   8.028  22.854   8.345
 2742POPC   C3A37229   8.180  22.802   7.928
 2742POPC   C4A37230   8.043  23.079   7.598
 2742POPC   C1B37231   8.446  22.860   8.718
 2742POPC   C2B37232   8.497  23.041   8.345
 2742POPC   C3B37233   8.373  23.261   8.022
 2742POPC   C4B37234   8.533  23.069   7.637
 2743POPC   NC337235  22.381   8.235   9.872
 2743POPC   PO437236  21.898   8.296   9.388
 2743POPC   GL137237  22.252   8.375   9.151
 2743POPC   GL237238  21.991   8.526   8.942
 2743POPC   C1A37239  22.443   8.368   8.734
 2743POPC   D2A37240  22.391   8.130   8.350
 2743POPC   C3A37241  22.285   8.463   8.064
 2743POPC   C4A37242  22.006   8.597   7.765
 2743POPC   C1B37243  21.981   8.130   8.705
 2743POPC   C2B37244  21.898   8.206   8.278
 2743POPC   C3B37245  21.977   8.070   7.865
 2743POPC   C4B37246  21.813   7.801   7.542
 2744POPC   NC337247  14.081  38.865   9.426
 2744POPC   PO437248  14.351  39.403   9.692
 2744POPC   GL137249  14.224  39.359   9.279
 2744POPC   GL237250  14.464  39.076   9.168
 2744POPC   C1A37251  14.403  39.465   8.869
 2744POPC   D2A37252  14.633  39.195   8.583
 2744POPC   C3A37253  14.559  39.269   8.149
 2744POPC   C4A37254  14.641  39.112   7.727
 2744POPC   C1B37255  14.213  38.964   8.787
 2744POPC   C2B37256  14.283  38.827   8.368
 2744POPC   C3B37257  14.195  38.966   7.926
 2744POPC   C4B37258  14.109  39.418   7.826
 2745POPC   NC337259   9.244  26.308   9.695
 2745POPC   PO437260   8.783  25.934   9.594
 2745POPC   GL137261   8.778  25.984   9.140
 2745POPC   GL237262   9.136  26.031   9.115
 2745POPC   C1A37263   8.563  25.981   8.720
 2745POPC   D2A37264   8.637  26.281   8.401
 2745POPC   C3A37265   8.653  26.207   7.974
 2745POPC   C4A37266   8.565  25.993   7.578
 2745POPC   C1B37267   9.060  25.938   8.680
 2745POPC   C2B37268   8.840  25.723   8.341
 2745POPC   C3B37269   8.961  25.793   7.915
 2745POPC   C4B37270   9.365  25.848   7.725
 2746POPC   NC337271  39.831  40.915   9.445
 2746POPC   PO437272  40.227  40.488   9.169
 2746POPC   GL137273  40.074  40.778   9.005
 2746POPC   GL237274  40.245  41.060   9.093
 2746POPC   C1A37275  39.969  40.763   8.595
 2746POPC   D2A37276  40.231  40.749   8.262
 2746POPC   C3A37277  40.001  40.544   7.941
 2746POPC   C4A37278  40.217  40.812   7.704
 2746POPC   C1B37279  39.896  41.213   8.834
 2746POPC   C2B37280  39.761  41.190   8.416
 2746POPC   C3B37281  39.827  41.016   8.026
 2746POPC   C4B37282  39.733  40.903   7.593
 2747POPC   NC337283  33.264  43.677   9.384
 2747POPC   PO437284  32.836  44.151   9.548
 2747POPC   GL137285  32.949  44.030   9.169
 2747POPC   GL237286  32.828  43.734   9.056
 2747POPC   C1A37287  33.062  44.187   8.782
 2747POPC   D2A37288  32.849  43.991   8.478
 2747POPC   C3A37289  32.910  43.961   8.075
 2747POPC   C4A37290  33.073  44.133   7.715
 2747POPC   C1B37291  33.173  43.675   8.732
 2747POPC   C2B37292  33.333  43.617   8.306
 2747POPC   C3B37293  33.319  43.713   7.893
 2747POPC   C4B37294  32.961  43.623   7.698
 2748POPC   NC337295  10.903   9.616   9.660
 2748POPC   PO437296  10.443   9.996   9.359
 2748POPC   GL137297  10.715   9.767   9.126
 2748POPC   GL237298  10.618   9.435   9.220
 2748POPC   C1A37299  10.588   9.733   8.699
 2748POPC   D2A37300  10.123   9.754   8.517
 2748POPC   C3A37301  10.143   9.811   8.060
 2748POPC   C4A37302  10.476   9.904   7.749
 2748POPC   C1B37303  10.471   9.243   8.794
 2748POPC   C2B37304  10.423   9.370   8.333
 2748POPC   C3B37305  10.266   9.308   7.886
 2748POPC   C4B37306  10.463   9.112   7.508
 2749POPC   NC337307  17.721  26.686   9.463
 2749POPC   PO437308  17.376  27.283   9.501
 2749POPC   GL137309  17.336  26.916   9.166
 2749POPC   GL237310  17.673  26.860   9.013
 2749POPC   C1A37311  17.324  26.975   8.669
 2749POPC   D2A37312  17.361  27.140   8.256
 2749POPC   C3A37313  17.485  26.884   7.939
 2749POPC   C4A37314  17.312  26.594   7.674
 2749POPC   C1B37315  17.872  27.047   8.720
 2749POPC   C2B37316  17.837  26.834   8.338
 2749POPC   C3B37317  17.981  26.711   7.947
 2749POPC   C4B37318  17.841  26.890   7.573
 2750POPC   NC337319  13.422  10.071   9.431
 2750POPC   PO437320  13.485   9.345   9.575
 2750POPC   GL137321  13.614   9.621   9.243
 2750POPC   GL237322  13.290   9.695   9.126
 2750POPC   C1A37323  13.796   9.734   8.832
 2750POPC   D2A37324  13.867   9.488   8.437
 2750POPC   C3A37325  13.836   9.724   8.023
 2750POPC   C4A37326  13.865   9.626   7.586
 2750POPC   C1B37327  13.357   9.993   8.798
 2750POPC   C2B37328  13.540   9.952   8.414
 2750POPC   C3B37329  13.385  10.026   8.024
 2750POPC   C4B37330  13.381   9.687   7.731
 2751POPC   NC337331  34.426  32.266   9.614
 2751POPC   PO437332  35.060  32.213   9.548
 2751POPC   GL137333  34.700  32.238   9.194
 2751POPC   GL237334  34.409  32.032   9.164
 2751POPC   C1A37335  34.719  32.343   8.750
 2751POPC   D2A37336  34.753  32.488   8.348
 2751POPC   C3A37337  34.775  32.274   8.006
 2751POPC   C4A37338  34.516  32.230   7.679
 2751POPC   C1B37339  34.637  31.858   8.801
 2751POPC   C2B37340  34.687  31.896   8.351
 2751POPC   C3B37341  34.568  31.758   7.906
 2751POPC   C4B37342  34.284  31.779   7.567
 2752POPC   NC337343  36.608  40.600   9.350
 2752POPC   PO437344  36.087  41.031   9.432
 2752POPC   GL137345  36.123  40.801   9.039
 2752POPC   GL237346  36.369  40.571   8.921
 2752POPC   C1A37347  35.986  40.784   8.639
 2752POPC   D2A37348  36.161  40.695   8.267
 2752POPC   C3A37349  35.912  40.753   7.925
 2752POPC   C4A37350  35.964  41.197   7.836
 2752POPC   C1B37351  36.330  40.313   8.590
 2752POPC   C2B37352  36.127  40.202   8.236
 2752POPC   C3B37353  36.356  40.436   7.882
 2752POPC   C4B37354  36.354  40.842   7.709
 2753POPC   NC337355  11.494  31.920   9.547
 2753POPC   PO437356  12.192  32.242   9.602
 2753POPC   GL137357  12.072  32.182   9.206
 2753POPC   GL237358  11.911  31.861   9.219
 2753POPC   C1A37359  12.103  32.430   8.810
 2753POPC   D2A37360  11.952  32.470   8.364
 2753POPC   C3A37361  11.856  32.120   8.094
 2753POPC   C4A37362  12.048  32.314   7.754
 2753POPC   C1B37363  12.082  31.899   8.788
 2753POPC   C2B37364  12.280  32.025   8.385
 2753POPC   C3B37365  12.363  31.953   7.927
 2753POPC   C4B37366  12.247  31.908   7.471
 2754POPC   NC337367  41.828  17.379   9.545
 2754POPC   PO437368  41.189  17.708   9.419
 2754POPC   GL137369  41.467  17.428   9.195
 2754POPC   GL237370  41.755  17.680   9.118
 2754POPC   C1A37371  41.779  17.217   8.912
 2754POPC   D2A37372  41.981  17.466   8.593
 2754POPC   C3A37373  41.927  17.299   8.202
 2754POPC   C4A37374  41.618  17.265   7.877
 2754POPC   C1B37375  41.494  17.600   8.724
 2754POPC   C2B37376  41.527  17.637   8.265
 2754POPC   C3B37377  41.448  17.756   7.819
 2754POPC   C4B37378  41.258  17.784   7.384
 2755POPC   NC337379  18.102  14.691   9.439
 2755POPC   PO437380  18.453  14.132   9.224
 2755POPC   GL137381  18.329  14.442   8.996
 2755POPC   GL237382  18.635  14.651   9.024
 2755POPC   C1A37383  18.169  14.336   8.577
 2755POPC   D2A37384  18.414  14.338   8.196
 2755POPC   C3A37385  18.260  14.193   7.817
 2755POPC   C4A37386  17.959  13.901   7.704
 2755POPC   C1B37387  18.433  14.753   8.600
 2755POPC   C2B37388  18.102  14.724   8.235
 2755POPC   C3B37389  17.988  14.650   7.797
 2755POPC   C4B37390  17.985  14.375   7.408
 2756POPC   NC337391  34.719  33.328   9.482
 2756POPC   PO437392  34.429  32.712   9.426
 2756POPC   GL137393  34.514  33.023   9.123
 2756POPC   GL237394  34.495  32.764   8.899
 2756POPC   C1A37395  34.697  33.358   8.843
 2756POPC   D2A37396  34.674  33.440   8.401
 2756POPC   C3A37397  34.310  33.236   8.163
 2756POPC   C4A37398  34.442  33.167   7.709
 2756POPC   C1B37399  34.716  32.947   8.547
 2756POPC   C2B37400  34.706  32.930   8.103
 2756POPC   C3B37401  34.700  32.703   7.709
 2756POPC   C4B37402  34.888  32.436   7.373
 2757POPC   NC337403  37.708   8.526   9.683
 2757POPC   PO437404  38.107   8.032   9.444
 2757POPC   GL137405  37.756   8.221   9.224
 2757POPC   GL237406  37.713   8.557   9.129
 2757POPC   C1A37407  37.481   8.191   8.855
 2757POPC   D2A37408  37.590   8.150   8.443
 2757POPC   C3A37409  37.477   8.371   8.096
 2757POPC   C4A37410  37.439   8.267   7.676
 2757POPC   C1B37411  38.009   8.307   8.804
 2757POPC   C2B37412  38.097   8.171   8.391
 2757POPC   C3B37413  38.028   8.040   7.980
 2757POPC   C4B37414  38.188   8.069   7.548
 2758POPC   NC337415  14.562  37.989   9.471
 2758POPC   PO437416  14.499  38.688   9.506
 2758POPC   GL137417  14.264  38.444   9.181
 2758POPC   GL237418  14.526  38.240   9.020
 2758POPC   C1A37419  14.144  38.441   8.734
 2758POPC   D2A37420  14.465  38.341   8.451
 2758POPC   C3A37421  14.430  38.231   8.042
 2758POPC   C4A37422  14.299  38.405   7.687
 2758POPC   C1B37423  14.631  38.663   8.839
 2758POPC   C2B37424  14.798  38.746   8.423
 2758POPC   C3B37425  14.621  38.698   8.025
 2758POPC   C4B37426  14.748  38.626   7.628
 2759POPC   NC337427  33.025  27.858   9.566
 2759POPC   PO437428  32.551  27.377   9.396
 2759POPC   GL137429  32.790  27.682   9.131
 2759POPC   GL237430  33.159  27.793   9.077
 2759POPC   C1A37431  32.907  27.542   8.694
 2759POPC   D2A37432  33.106  27.294   8.366
 2759POPC   C3A37433  32.902  27.460   8.018
 2759POPC   C4A37434  32.897  27.646   7.590
 2759POPC   C1B37435  33.395  27.539   8.778
 2759POPC   C2B37436  33.464  27.691   8.382
 2759POPC   C3B37437  33.416  27.834   7.999
 2759POPC   C4B37438  33.393  27.748   7.572
 2760POPC   NC337439  40.413  10.970   9.591
 2760POPC   PO437440  41.020  11.259   9.489
 2760POPC   GL137441  40.935  11.083   9.073
 2760POPC   GL237442  40.648  11.284   9.080
 2760POPC   C1A37443  40.722  11.010   8.651
 2760POPC   D2A37444  40.433  10.912   8.334
 2760POPC   C3A37445  40.618  11.178   8.075
 2760POPC   C4A37446  40.980  11.098   7.822
 2760POPC   C1B37447  40.466  11.492   8.727
 2760POPC   C2B37448  40.226  11.425   8.337
 2760POPC   C3B37449  40.335  11.577   7.918
 2760POPC   C4B37450  40.784  11.572   7.797
 2761POPC   NC337451   7.254   3.475   9.609
 2761POPC   PO437452   7.647   3.933   9.386
 2761POPC   GL137453   7.296   3.729   9.167
 2761POPC   GL237454   7.374   3.351   9.130
 2761POPC   C1A37455   7.166   3.612   8.750
 2761POPC   D2A37456   7.344   3.525   8.357
 2761POPC   C3A37457   7.276   3.753   7.981
 2761POPC   C4A37458   7.514   3.771   7.599
 2761POPC   C1B37459   7.578   3.178   8.727
 2761POPC   C2B37460   7.690   3.174   8.269
 2761POPC   C3B37461   7.427   3.274   7.872
 2761POPC   C4B37462   7.470   3.279   7.386
 2762POPC   NC337463   2.392  30.581   9.431
 2762POPC   PO437464   2.927  30.225   9.580
 2762POPC   GL137465   2.855  30.584   9.224
 2762POPC   GL237466   2.589  30.557   8.958
 2762POPC   C1A37467   2.979  30.850   8.838
 2762POPC   D2A37468   2.881  30.955   8.387
 2762POPC   C3A37469   2.776  30.596   8.102
 2762POPC   C4A37470   2.552  30.485   7.695
 2762POPC   C1B37471   2.469  30.926   8.708
 2762POPC   C2B37472   2.385  31.092   8.316
 2762POPC   C3B37473   2.336  30.871   7.941
 2762POPC   C4B37474   2.380  30.934   7.479
 2763POPC   NC337475  24.173   1.667   9.531
 2763POPC   PO437476  24.777   2.164   9.481
 2763POPC   GL137477  24.642   2.034   9.060
 2763POPC   GL237478  24.455   1.698   9.071
 2763POPC   C1A37479  24.534   2.094   8.619
 2763POPC   D2A37480  24.767   1.981   8.241
 2763POPC   C3A37481  24.608   2.247   7.912
 2763POPC   C4A37482  24.142   2.273   7.855
 2763POPC   C1B37483  24.577   1.596   8.673
 2763POPC   C2B37484  24.304   1.692   8.350
 2763POPC   C3B37485  24.371   1.780   7.928
 2763POPC   C4B37486  24.748   1.618   7.825
 2764POPC   NC337487  21.859  17.355   9.312
 2764POPC   PO437488  22.535  17.694   9.303
 2764POPC   GL137489  22.280  17.463   9.057
 2764POPC   GL237490  22.352  17.160   9.239
 2764POPC   C1A37491  22.056  17.481   8.680
 2764POPC   D2A37492  22.200  17.412   8.296
 2764POPC   C3A37493  22.207  17.680   7.981
 2764POPC   C4A37494  22.073  17.546   7.647
 2764POPC   C1B37495  22.375  17.029   8.794
 2764POPC   C2B37496  22.538  16.996   8.387
 2764POPC   C3B37497  22.550  17.193   7.993
 2764POPC   C4B37498  22.462  17.200   7.564
 2765POPC   NC337499  25.853  26.603   9.471
 2765POPC   PO437500  26.413  26.930   9.559
 2765POPC   GL137501  26.221  26.848   9.209
 2765POPC   GL237502  25.957  27.093   9.296
 2765POPC   C1A37503  26.113  26.657   8.816
 2765POPC   D2A37504  26.252  26.546   8.399
 2765POPC   C3A37505  26.017  26.525   7.997
 2765POPC   C4A37506  26.218  26.679   7.626
 2765POPC   C1B37507  26.020  27.160   8.865
 2765POPC   C2B37508  26.139  27.083   8.461
 2765POPC   C3B37509  26.165  27.008   8.036
 2765POPC   C4B37510  25.809  26.992   7.746
 2766POPC   NC337511  13.138  19.306   9.631
 2766POPC   PO437512  12.717  18.815   9.616
 2766POPC   GL137513  12.867  19.020   9.249
 2766POPC   GL237514  13.199  19.060   9.094
 2766POPC   C1A37515  12.761  19.031   8.825
 2766POPC   D2A37516  12.906  18.976   8.420
 2766POPC   C3A37517  12.662  19.191   8.133
 2766POPC   C4A37518  12.648  19.028   7.768
 2766POPC   C1B37519  13.165  18.684   8.820
 2766POPC   C2B37520  13.182  18.534   8.367
 2766POPC   C3B37521  13.029  18.725   7.971
 2766POPC   C4B37522  13.139  19.127   7.787
 2767POPC   NC337523  28.344  44.100   9.648
 2767POPC   PO437524  27.851  43.690   9.442
 2767POPC   GL137525  28.244  43.789   9.196
 2767POPC   GL237526  28.432  44.098   9.150
 2767POPC   C1A37527  28.423  43.741   8.764
 2767POPC   D2A37528  28.189  43.740   8.374
 2767POPC   C3A37529  28.249  43.853   7.933
 2767POPC   C4A37530  28.164  44.001   7.517
 2767POPC   C1B37531  28.485  44.258   8.732
 2767POPC   C2B37532  28.743  44.307   8.417
 2767POPC   C3B37533  28.557  44.226   8.113
 2767POPC   C4B37534  28.613  44.176   7.729
 2768POPC   NC337535  35.005   3.403  10.033
 2768POPC   PO437536  34.525   3.495   9.531
 2768POPC   GL137537  34.518   3.736   9.154
 2768POPC   GL237538  34.211   3.853   9.214
 2768POPC   C1A37539  34.685   3.665   8.759
 2768POPC   D2A37540  34.848   3.396   8.458
 2768POPC   C3A37541  34.769   3.603   8.081
 2768POPC   C4A37542  34.878   3.725   7.695
 2768POPC   C1B37543  34.159   3.523   8.888
 2768POPC   C2B37544  34.222   3.589   8.467
 2768POPC   C3B37545  34.239   3.422   8.069
 2768POPC   C4B37546  34.381   3.579   7.708
 2769POPC   NC337547  29.825   0.113   9.436
 2769POPC   PO437548  30.086   0.731   9.510
 2769POPC   GL137549  29.909   0.532   9.141
 2769POPC   GL237550  30.102   0.259   9.024
 2769POPC   C1A37551  29.684   0.344   8.777
 2769POPC   D2A37552  29.901   0.263   8.424
 2769POPC   C3A37553  29.749   0.417   8.070
 2769POPC   C4A37554  29.726   0.130   7.748
 2769POPC   C1B37555  30.204   0.548   8.705
 2769POPC   C2B37556  30.119   0.732   8.303
 2769POPC   C3B37557  30.196   0.664   7.869
 2769POPC   C4B37558  30.329   0.708   7.442
 2770POPC   NC337559  41.647  41.901   9.416
 2770POPC   PO437560  41.495  41.315   9.713
 2770POPC   GL137561  41.460  41.294   9.224
 2770POPC   GL237562  41.299  41.573   9.044
 2770POPC   C1A37563  41.434  41.192   8.739
 2770POPC   D2A37564  41.214  41.262   8.300
 2770POPC   C3A37565  41.481  41.392   7.940
 2770POPC   C4A37566  41.589  41.570   7.492
 2770POPC   C1B37567  41.583  41.802   8.740
 2770POPC   C2B37568  41.603  42.019   8.326
 2770POPC   C3B37569  41.442  41.899   7.910
 2770POPC   C4B37570  41.110  41.577   7.670
 2771POPC   NC337571   3.624  23.757   9.647
 2771POPC   PO437572   3.234  23.181   9.588
 2771POPC   GL137573   3.306  23.518   9.241
 2771POPC   GL237574   3.677  23.554   9.185
 2771POPC   C1A37575   3.387  23.755   8.828
 2771POPC   D2A37576   3.294  23.944   8.428
 2771POPC   C3A37577   3.556  23.961   8.064
 2771POPC   C4A37578   3.400  23.815   7.662
 2771POPC   C1B37579   3.799  23.419   8.754
 2771POPC   C2B37580   3.823  23.542   8.306
 2771POPC   C3B37581   3.831  23.580   7.838
 2771POPC   C4B37582   3.882  23.435   7.436
 2772POPC   NC337583  16.395  36.187   9.568
 2772POPC   PO437584  16.971  36.250   9.716
 2772POPC   GL137585  16.824  36.299   9.298
 2772POPC   GL237586  16.949  36.004   9.133
 2772POPC   C1A37587  16.792  36.424   8.866
 2772POPC   D2A37588  16.512  36.319   8.519
 2772POPC   C3A37589  16.640  36.275   8.086
 2772POPC   C4A37590  16.940  36.501   7.827
 2772POPC   C1B37591  17.037  36.036   8.659
 2772POPC   C2B37592  17.126  36.149   8.225
 2772POPC   C3B37593  17.009  35.957   7.843
 2772POPC   C4B37594  16.721  35.828   7.493
 2773POPC   NC337595   9.263  35.422   9.666
 2773POPC   PO437596   8.724  35.065   9.559
 2773POPC   GL137597   8.769  35.299   9.191
 2773POPC   GL237598   9.087  35.316   9.205
 2773POPC   C1A37599   8.661  35.281   8.761
 2773POPC   D2A37600   8.627  35.574   8.428
 2773POPC   C3A37601   8.787  35.374   8.065
 2773POPC   C4A37602   8.776  35.328   7.650
 2773POPC   C1B37603   9.108  35.518   8.825
 2773POPC   C2B37604   9.147  35.615   8.412
 2773POPC   C3B37605   9.017  35.817   8.045
 2773POPC   C4B37606   9.216  35.537   7.778
 2774POPC   NC337607  40.438  40.772   9.461
 2774POPC   PO437608  41.155  40.787   9.391
 2774POPC   GL137609  40.803  40.758   9.107
 2774POPC   GL237610  40.726  40.416   9.151
 2774POPC   C1A37611  40.570  40.851   8.726
 2774POPC   D2A37612  40.750  41.015   8.361
 2774POPC   C3A37613  40.693  40.838   7.979
 2774POPC   C4A37614  40.648  41.038   7.598
 2774POPC   C1B37615  40.926  40.410   8.716
 2774POPC   C2B37616  40.880  40.364   8.241
 2774POPC   C3B37617  41.017  40.476   7.785
 2774POPC   C4B37618  40.990  40.739   7.395
 2775POPC   NC337619  29.755  10.565   9.434
 2775POPC   PO437620  30.275  10.302   9.594
 2775POPC   GL137621  30.232  10.486   9.171
 2775POPC   GL237622  30.381  10.187   9.067
 2775POPC   C1A37623  29.962  10.659   8.815
 2775POPC   D2A37624  29.628  10.550   8.517
 2775POPC   C3A37625  29.763  10.644   8.061
 2775POPC   C4A37626  29.731  10.315   7.749
 2775POPC   C1B37627  30.104  10.183   8.716
 2775POPC   C2B37628  30.133  10.466   8.354
 2775POPC   C3B37629  30.227  10.424   7.893
 2775POPC   C4B37630  30.403  10.412   7.466
 2776POPC   NC337631  44.151  16.849   9.427
 2776POPC   PO437632  43.696  16.453   9.715
 2776POPC   GL137633  43.686  16.630   9.288
 2776POPC   GL237634  43.677  17.017   9.272
 2776POPC   C1A37635  43.800  16.631   8.846
 2776POPC   D2A37636  44.105  16.866   8.582
 2776POPC   C3A37637  44.028  16.750   8.158
 2776POPC   C4A37638  44.095  16.585   7.760
 2776POPC   C1B37639  43.636  17.113   8.836
 2776POPC   C2B37640  43.621  16.942   8.442
 2776POPC   C3B37641  43.631  17.041   8.035
 2776POPC   C4B37642  43.587  16.879   7.649
 2777POPC   NC337643  19.324  26.817   9.523
 2777POPC   PO437644  18.741  26.736   9.370
 2777POPC   GL137645  18.891  27.051   9.078
 2777POPC   GL237646  19.263  27.157   9.140
 2777POPC   C1A37647  18.919  26.863   8.650
 2777POPC   D2A37648  19.174  26.618   8.339
 2777POPC   C3A37649  18.987  26.713   7.946
 2777POPC   C4A37650  18.810  27.031   7.684
 2777POPC   C1B37651  19.225  27.247   8.742
 2777POPC   C2B37652  19.265  27.112   8.353
 2777POPC   C3B37653  19.145  27.203   8.011
 2777POPC   C4B37654  19.319  27.143   7.640
 2778POPC   NC337655  42.760   5.970   9.636
 2778POPC   PO437656  43.424   5.896   9.418
 2778POPC   GL137657  43.133   6.103   9.157
 2778POPC   GL237658  42.877   5.869   9.163
 2778POPC   C1A37659  43.248   6.145   8.717
 2778POPC   D2A37660  43.428   5.853   8.395
 2778POPC   C3A37661  43.412   5.946   7.980
 2778POPC   C4A37662  43.225   5.746   7.615
 2778POPC   C1B37663  42.832   5.611   8.812
 2778POPC   C2B37664  42.901   5.849   8.441
 2778POPC   C3B37665  42.907   5.862   8.019
 2778POPC   C4B37666  42.700   5.742   7.668
 2779POPC   NC337667  32.855  18.887   9.463
 2779POPC   PO437668  33.223  19.506   9.480
 2779POPC   GL137669  33.112  19.200   9.159
 2779POPC   GL237670  33.356  18.920   9.281
 2779POPC   C1A37671  32.941  18.877   8.805
 2779POPC   D2A37672  32.761  18.810   8.375
 2779POPC   C3A37673  32.939  18.814   7.969
 2779POPC   C4A37674  32.730  19.041   7.618
 2779POPC   C1B37675  33.428  18.964   8.861
 2779POPC   C2B37676  33.279  18.997   8.433
 2779POPC   C3B37677  33.420  19.162   8.057
 2779POPC   C4B37678  33.231  19.153   7.674
 2780POPC   NC337679  16.061  17.141   9.574
 2780POPC   PO437680  15.766  17.767   9.596
 2780POPC   GL137681  15.950  17.590   9.232
 2780POPC   GL237682  15.793  17.265   9.123
 2780POPC   C1A37683  16.072  17.569   8.784
 2780POPC   D2A37684  15.831  17.514   8.375
 2780POPC   C3A37685  16.073  17.672   8.030
 2780POPC   C4A37686  16.268  17.564   7.649
 2780POPC   C1B37687  15.930  17.093   8.713
 2780POPC   C2B37688  16.183  17.128   8.333
 2780POPC   C3B37689  16.076  17.165   7.926
 2780POPC   C4B37690  15.791  17.372   7.700
 2781POPC   NC337691  37.355   1.725   9.508
 2781POPC   PO437692  37.546   2.287   9.637
 2781POPC   GL137693  37.582   2.142   9.182
 2781POPC   GL237694  37.620   1.782   9.081
 2781POPC   C1A37695  37.704   2.285   8.740
 2781POPC   D2A37696  37.825   2.399   8.314
 2781POPC   C3A37697  37.663   2.114   7.960
 2781POPC   C4A37698  37.696   1.883   7.570
 2781POPC   C1B37699  37.926   1.836   8.758
 2781POPC   C2B37700  37.969   1.906   8.320
 2781POPC   C3B37701  38.042   1.747   7.890
 2781POPC   C4B37702  38.299   1.977   7.561
 2782POPC   NC337703  10.781  40.360   9.363
 2782POPC   PO437704  10.256  39.884   9.474
 2782POPC   GL137705  10.359  40.154   9.186
 2782POPC   GL237706  10.617  39.961   9.099
 2782POPC   C1A37707  10.315  40.246   8.739
 2782POPC   D2A37708  10.406  40.056   8.341
 2782POPC   C3A37709  10.367  40.223   7.929
 2782POPC   C4A37710  10.085  40.231   7.606
 2782POPC   C1B37711  10.790  40.027   8.739
 2782POPC   C2B37712  10.836  39.784   8.368
 2782POPC   C3B37713  10.848  40.071   8.045
 2782POPC   C4B37714  10.836  40.280   7.675
 2783POPC   NC337715  16.475   2.803   9.572
 2783POPC   PO437716  16.141   3.418   9.555
 2783POPC   GL137717  16.202   3.541   9.103
 2783POPC   GL237718  16.387   3.830   9.018
 2783POPC   C1A37719  16.147   3.443   8.656
 2783POPC   D2A37720  15.883   3.311   8.278
 2783POPC   C3A37721  15.881   3.508   7.846
 2783POPC   C4A37722  15.782   3.449   7.381
 2783POPC   C1B37723  16.035   3.930   8.747
 2783POPC   C2B37724  16.029   3.806   8.302
 2783POPC   C3B37725  16.006   3.998   7.919
 2783POPC   C4B37726  15.916   3.918   7.493
 2784POPC   NC337727  35.072   4.927   9.760
 2784POPC   PO437728  34.504   5.117   9.368
 2784POPC   GL137729  34.634   4.802   9.082
 2784POPC   GL237730  34.345   4.802   8.881
 2784POPC   C1A37731  34.799   4.862   8.652
 2784POPC   D2A37732  34.540   4.981   8.258
 2784POPC   C3A37733  34.723   5.086   7.832
 2784POPC   C4A37734  34.826   5.240   7.356
 2784POPC   C1B37735  34.477   5.243   8.727
 2784POPC   C2B37736  34.235   5.462   8.439
 2784POPC   C3B37737  34.302   5.394   8.019
 2784POPC   C4B37738  34.394   5.367   7.584
 2785POPC   NC337739  18.396   1.149   9.560
 2785POPC   PO437740  17.741   1.357   9.471
 2785POPC   GL137741  18.018   1.343   9.086
 2785POPC   GL237742  18.224   1.041   9.098
 2785POPC   C1A37743  18.289   1.338   8.664
 2785POPC   D2A37744  18.593   1.081   8.384
 2785POPC   C3A37745  18.622   1.142   7.928
 2785POPC   C4A37746  18.400   1.496   7.734
 2785POPC   C1B37747  18.257   0.803   8.726
 2785POPC   C2B37748  18.280   0.666   8.321
 2785POPC   C3B37749  18.150   0.928   7.972
 2785POPC   C4B37750  18.247   1.000   7.556
 2786POPC   NC337751  37.696  36.542   9.879
 2786POPC   PO437752  37.832  36.041   9.467
 2786POPC   GL137753  38.050  36.117   9.128
 2786POPC   GL237754  37.943  35.868   8.912
 2786POPC   C1A37755  37.990  36.404   8.824
 2786POPC   D2A37756  37.820  36.517   8.426
 2786POPC   C3A37757  37.918  36.279   8.071
 2786POPC   C4A37758  37.917  36.450   7.676
 2786POPC   C1B37759  37.611  36.100   8.670
 2786POPC   C2B37760  37.414  36.250   8.258
 2786POPC   C3B37761  37.467  36.220   7.792
 2786POPC   C4B37762  37.402  35.856   7.526
 2787POPC   NC337763  32.635  14.463   9.416
 2787POPC   PO437764  33.243  14.736   9.662
 2787POPC   GL137765  33.131  14.379   9.276
 2787POPC   GL237766  33.107  14.554   8.995
 2787POPC   C1A37767  33.325  14.153   8.821
 2787POPC   D2A37768  33.069  14.166   8.436
 2787POPC   C3A37769  33.245  14.238   8.034
 2787POPC   C4A37770  33.165  14.555   7.719
 2787POPC   C1B37771  32.822  14.589   8.656
 2787POPC   C2B37772  32.796  14.908   8.334
 2787POPC   C3B37773  32.723  14.774   7.912
 2787POPC   C4B37774  32.722  14.625   7.473
 2788POPC   NC337775  44.317  13.263   9.476
 2788POPC   PO437776  44.830  13.882   9.578
 2788POPC   GL137777  44.696  13.593   9.210
 2788POPC   GL237778  44.896  13.304   9.167
 2788POPC   C1A37779  44.568  13.594   8.754
 2788POPC   D2A37780  44.458  13.776   8.356
 2788POPC   C3A37781  44.602  13.630   7.957
 2788POPC   C4A37782  44.444  13.662   7.523
 2788POPC   C1B37783   0.056  13.450   8.784
 2788POPC   C2B37784  44.917  13.482   8.371
 2788POPC   C3B37785   0.120  13.436   7.979
 2788POPC   C4B37786  44.949  13.555   7.584
 2789POPC   NC337787  38.567  23.405   9.464
 2789POPC   PO437788  38.224  22.776   9.491
 2789POPC   GL137789  38.560  22.670   9.193
 2789POPC   GL237790  38.682  23.009   9.173
 2789POPC   C1A37791  38.669  22.721   8.758
 2789POPC   D2A37792  38.413  22.913   8.466
 2789POPC   C3A37793  38.492  22.682   8.106
 2789POPC   C4A37794  38.724  22.796   7.751
 2789POPC   C1B37795  38.558  23.274   8.821
 2789POPC   C2B37796  38.709  23.366   8.421
 2789POPC   C3B37797  38.582  23.200   8.050
 2789POPC   C4B37798  38.426  23.216   7.655
 2790POPC   NC337799  37.441  23.817   9.564
 2790POPC   PO437800  38.090  23.556   9.427
 2790POPC   GL137801  37.739  23.693   9.152
 2790POPC   GL237802  37.517  23.427   9.159
 2790POPC   C1A37803  37.720  23.903   8.728
 2790POPC   D2A37804  38.007  23.922   8.353
 2790POPC   C3A37805  37.785  23.857   7.948
 2790POPC   C4A37806  37.722  23.944   7.503
 2790POPC   C1B37807  37.432  23.466   8.716
 2790POPC   C2B37808  37.692  23.493   8.326
 2790POPC   C3B37809  37.688  23.339   7.897
 2790POPC   C4B37810  37.420  23.293   7.550
 2791POPC   NC337811  19.725  12.309   9.514
 2791POPC   PO437812  20.376  11.954   9.474
 2791POPC   GL137813  20.158  12.131   9.162
 2791POPC   GL237814  19.878  11.908   9.208
 2791POPC   C1A37815  20.102  11.894   8.766
 2791POPC   D2A37816  19.866  11.837   8.396
 2791POPC   C3A37817  20.085  11.917   8.009
 2791POPC   C4A37818  19.826  11.832   7.680
 2791POPC   C1B37819  19.721  12.195   8.867
 2791POPC   C2B37820  19.578  12.308   8.449
 2791POPC   C3B37821  19.689  12.227   8.054
 2791POPC   C4B37822  19.743  12.330   7.678
 2792POPC   NC337823  29.365  27.684   9.581
 2792POPC   PO437824  29.998  27.806   9.516
 2792POPC   GL137825  29.917  27.510   9.159
 2792POPC   GL237826  30.181  27.254   9.117
 2792POPC   C1A37827  29.960  27.425   8.704
 2792POPC   D2A37828  30.026  27.668   8.349
 2792POPC   C3A37829  29.643  27.765   8.180
 2792POPC   C4A37830  29.719  27.736   7.789
 2792POPC   C1B37831  30.206  26.966   8.777
 2792POPC   C2B37832  29.976  27.012   8.382
 2792POPC   C3B37833  29.958  27.300   7.969
 2792POPC   C4B37834  30.179  27.385   7.514
 2793POPC   NC337835  11.647  21.285   9.805
 2793POPC   PO437836  12.216  21.098   9.502
 2793POPC   GL137837  12.204  21.380   9.139
 2793POPC   GL237838  12.152  21.729   9.225
 2793POPC   C1A37839  12.098  21.380   8.693
 2793POPC   D2A37840  12.219  21.146   8.316
 2793POPC   C3A37841  12.018  21.208   7.904
 2793POPC   C4A37842  12.273  21.188   7.514
 2793POPC   C1B37843  11.830  21.764   8.923
 2793POPC   C2B37844  11.893  21.857   8.493
 2793POPC   C3B37845  11.909  21.710   8.045
 2793POPC   C4B37846  12.028  21.635   7.603
 2794POPC   NC337847  38.909  37.454   9.450
 2794POPC   PO437848  39.506  37.882   9.575
 2794POPC   GL137849  39.347  37.907   9.178
 2794POPC   GL237850  39.147  37.677   9.067
 2794POPC   C1A37851  39.532  37.892   8.776
 2794POPC   D2A37852  39.304  37.755   8.439
 2794POPC   C3A37853  39.459  37.754   8.053
 2794POPC   C4A37854  39.661  38.154   7.875
 2794POPC   C1B37855  39.101  37.412   8.754
 2794POPC   C2B37856  39.126  37.232   8.341
 2794POPC   C3B37857  38.973  37.324   7.943
 2794POPC   C4B37858  39.072  37.660   7.707
 2795POPC   NC337859  31.486  35.745   9.540
 2795POPC   PO437860  31.565  36.421   9.407
 2795POPC   GL137861  31.416  36.276   9.014
 2795POPC   GL237862  31.513  35.915   9.048
 2795POPC   C1A37863  31.397  36.317   8.553
 2795POPC   D2A37864  31.348  36.119   8.180
 2795POPC   C3A37865  31.386  36.297   7.795
 2795POPC   C4A37866  31.768  36.436   7.665
 2795POPC   C1B37867  31.390  35.797   8.627
 2795POPC   C2B37868  31.346  35.619   8.221
 2795POPC   C3B37869  31.146  35.755   7.882
 2795POPC   C4B37870  31.399  35.844   7.581
 2796POPC   NC337871   5.315  25.455   9.489
 2796POPC   PO437872   4.716  25.327   9.537
 2796POPC   GL137873   4.995  25.280   9.130
 2796POPC   GL237874   5.225  25.556   9.007
 2796POPC   C1A37875   5.237  25.155   8.717
 2796POPC   D2A37876   5.315  25.463   8.406
 2796POPC   C3A37877   5.217  25.327   8.008
 2796POPC   C4A37878   5.049  25.172   7.624
 2796POPC   C1B37879   4.901  25.550   8.711
 2796POPC   C2B37880   4.862  25.783   8.335
 2796POPC   C3B37881   5.175  25.870   8.046
 2796POPC   C4B37882   5.175  25.664   7.627
 2797POPC   NC337883  41.783   4.184  10.075
 2797POPC   PO437884  41.473   4.424   9.555
 2797POPC   GL137885  41.642   4.170   9.194
 2797POPC   GL237886  41.924   3.995   9.365
 2797POPC   C1A37887  41.695   4.301   8.717
 2797POPC   D2A37888  41.586   4.516   8.303
 2797POPC   C3A37889  41.620   4.341   7.876
 2797POPC   C4A37890  41.285   4.308   7.555
 2797POPC   C1B37891  42.023   3.977   8.911
 2797POPC   C2B37892  42.103   4.025   8.414
 2797POPC   C3B37893  41.950   3.940   7.934
 2797POPC   C4B37894  41.628   3.912   7.545
 2798POPC   NC337895  40.751  35.728   9.661
 2798POPC   PO437896  40.816  35.044   9.352
 2798POPC   GL137897  40.805  35.284   9.069
 2798POPC   GL237898  40.583  35.516   9.083
 2798POPC   C1A37899  40.988  35.246   8.700
 2798POPC   D2A37900  40.974  35.091   8.312
 2798POPC   C3A37901  41.044  35.456   8.044
 2798POPC   C4A37902  40.954  35.570   7.620
 2798POPC   C1B37903  40.479  35.277   8.694
 2798POPC   C2B37904  40.527  35.287   8.276
 2798POPC   C3B37905  40.660  35.196   7.860
 2798POPC   C4B37906  40.400  35.013   7.638
 2799POPC   NC337907  12.215  37.518   9.505
 2799POPC   PO437908  11.714  37.947   9.394
 2799POPC   GL137909  11.882  37.892   9.019
 2799POPC   GL237910  12.186  37.728   9.032
 2799POPC   C1A37911  11.819  37.591   8.680
 2799POPC   D2A37912  12.001  37.439   8.311
 2799POPC   C3A37913  11.781  37.578   7.948
 2799POPC   C4A37914  11.836  37.745   7.505
 2799POPC   C1B37915  12.461  37.806   8.682
 2799POPC   C2B37916  12.414  37.751   8.240
 2799POPC   C3B37917  12.254  37.798   7.845
 2799POPC   C4B37918  12.569  38.053   7.634
 2800POPC   NC337919   1.339   0.726   9.482
 2800POPC   PO437920   1.618   0.066   9.391
 2800POPC   GL137921   1.424   0.261   9.065
 2800POPC   GL237922   1.086   0.370   9.100
 2800POPC   C1A37923   1.268   0.207   8.649
 2800POPC   D2A37924   1.168   0.518   8.314
 2800POPC   C3A37925   1.212   0.412   7.876
 2800POPC   C4A37926   1.494   0.575   7.557
 2800POPC   C1B37927   0.811   0.418   8.717
 2800POPC   C2B37928   0.646   0.378   8.294
 2800POPC   C3B37929   0.740   0.545   7.860
 2800POPC   C4B37930   0.977   0.692   7.491
 2801POPC   NC337931   2.628  14.124   9.478
 2801POPC   PO437932   2.452  13.449   9.569
 2801POPC   GL137933   2.443  13.720   9.205
 2801POPC   GL237934   2.743  13.640   9.052
 2801POPC   C1A37935   2.377  13.888   8.798
 2801POPC   D2A37936   2.686  13.725   8.501
 2801POPC   C3A37937   2.616  13.810   8.056
 2801POPC   C4A37938   2.608  13.506   7.721
 2801POPC   C1B37939   2.901  13.297   8.797
 2801POPC   C2B37940   3.034  13.199   8.380
 2801POPC   C3B37941   3.057  13.289   7.946
 2801POPC   C4B37942   3.146  13.006   7.609
 2802POPC   NC337943  43.617   0.016   9.369
 2802POPC   PO437944  43.862   0.596   9.650
 2802POPC   GL137945  44.125   0.428   9.275
 2802POPC   GL237946  43.862   0.408   9.138
 2802POPC   C1A37947  44.255   0.402   8.833
 2802POPC   D2A37948  44.162   0.178   8.464
 2802POPC   C3A37949  44.039   0.357   8.066
 2802POPC   C4A37950  44.088   0.135   7.670
 2802POPC   C1B37951  43.748   0.226   8.773
 2802POPC   C2B37952  43.692   0.431   8.428
 2802POPC   C3B37953  43.517   0.447   8.038
 2802POPC   C4B37954  43.699   0.476   7.676
 2803POPC   NC337955  11.517  39.780   9.710
 2803POPC   PO437956  10.903  39.956   9.523
 2803POPC   GL137957  11.136  39.854   9.177
 2803POPC   GL237958  11.428  40.057   9.276
 2803POPC   C1A37959  11.227  39.779   8.725
 2803POPC   D2A37960  11.193  40.176   8.439
 2803POPC   C3A37961  11.377  40.192   8.057
 2803POPC   C4A37962  11.245  39.942   7.745
 2803POPC   C1B37963  11.507  40.173   8.850
 2803POPC   C2B37964  11.671  39.955   8.401
 2803POPC   C3B37965  11.755  39.892   7.912
 2803POPC   C4B37966  11.642  40.165   7.540
 2804POPC   NC337967   3.578  34.940   9.492
 2804POPC   PO437968   3.129  35.418   9.627
 2804POPC   GL137969   3.374  35.344   9.176
 2804POPC   GL237970   3.729  35.238   9.103
 2804POPC   C1A37971   3.481  35.356   8.696
 2804POPC   D2A37972   3.578  35.164   8.304
 2804POPC   C3A37973   3.329  35.234   7.924
 2804POPC   C4A37974   3.394  35.524   7.586
 2804POPC   C1B37975   4.017  35.253   8.755
 2804POPC   C2B37976   4.076  35.293   8.314
 2804POPC   C3B37977   3.863  35.319   7.918
 2804POPC   C4B37978   4.031  35.240   7.566
 2805POPC   NC337979  42.818  11.533   9.422
 2805POPC   PO437980  42.491  10.897   9.435
 2805POPC   GL137981  42.346  11.322   9.192
 2805POPC   GL237982  41.956  11.378   9.137
 2805POPC   C1A37983  42.406  11.479   8.743
 2805POPC   D2A37984  42.643  11.360   8.341
 2805POPC   C3A37985  42.572  11.567   7.948
 2805POPC   C4A37986  42.438  11.376   7.538
 2805POPC   C1B37987  41.935  11.242   8.686
 2805POPC   C2B37988  42.133  11.273   8.318
 2805POPC   C3B37989  42.251  11.132   7.949
 2805POPC   C4B37990  41.962  11.201   7.624
 2806POPC   NC337991   9.847  43.059   9.881
 2806POPC   PO437992   9.232  43.361   9.568
 2806POPC   GL137993   9.488  43.359   9.183
 2806POPC   GL237994   9.724  43.094   9.241
 2806POPC   C1A37995   9.738  43.331   8.763
 2806POPC   D2A37996   9.664  43.104   8.376
 2806POPC   C3A37997   9.733  43.300   7.960
 2806POPC   C4A37998   9.563  43.555   7.623
 2806POPC   C1B37999   9.646  42.848   8.858
 2806POPC   C2B38000   9.966  42.727   8.548
 2806POPC   C3B38001  10.008  42.826   8.113
 2806POPC   C4B38002   9.828  42.798   7.726
 2807POPC   NC338003  41.443  14.611   9.664
 2807POPC   PO438004  41.910  14.165   9.384
 2807POPC   GL138005  41.610  14.459   9.164
 2807POPC   GL238006  41.517  14.179   8.877
 2807POPC   C1A38007  41.460  14.659   8.793
 2807POPC   D2A38008  41.681  14.678   8.405
 2807POPC   C3A38009  41.468  14.483   8.084
 2807POPC   C4A38010  41.286  14.226   7.742
 2807POPC   C1B38011  41.914  14.336   8.741
 2807POPC   C2B38012  42.006  14.239   8.325
 2807POPC   C3B38013  41.817  14.149   7.938
 2807POPC   C4B38014  41.742  14.335   7.543
 2808POPC   NC338015  40.503  44.267   9.361
 2808POPC   PO438016  41.080  43.852   9.475
 2808POPC   GL138017  40.800  43.859   9.121
 2808POPC   GL238018  41.130  43.903   8.963
 2808POPC   C1A38019  40.778  43.627   8.734
 2808POPC   D2A38020  40.611  43.381   8.434
 2808POPC   C3A38021  40.642  43.606   8.037
 2808POPC   C4A38022  40.784  43.610   7.645
 2808POPC   C1B38023  41.255  43.921   8.553
 2808POPC   C2B38024  40.992  44.025   8.259
 2808POPC   C3B38025  41.038  43.989   7.866
 2808POPC   C4B38026  40.870  44.134   7.529
 2809POPC   NC338027  27.319  30.788   9.459
 2809POPC   PO438028  27.946  31.162   9.523
 2809POPC   GL138029  27.800  30.879   9.230
 2809POPC   GL238030  28.014  31.010   9.026
 2809POPC   C1A38031  27.577  30.828   8.825
 2809POPC   D2A38032  27.331  30.530   8.583
 2809POPC   C3A38033  27.354  30.549   8.141
 2809POPC   C4A38034  27.311  30.394   7.748
 2809POPC   C1B38035  28.075  30.781   8.646
 2809POPC   C2B38036  27.824  30.642   8.336
 2809POPC   C3B38037  27.845  30.654   7.910
 2809POPC   C4B38038  27.620  30.902   7.643
 2810POPC   NC338039   6.789  43.572   9.537
 2810POPC   PO438040   6.157  43.691   9.502
 2810POPC   GL138041   6.351  43.937   9.172
 2810POPC   GL238042   6.728  43.970   9.191
 2810POPC   C1A38043   6.483  43.869   8.740
 2810POPC   D2A38044   6.488  43.571   8.400
 2810POPC   C3A38045   6.548  43.797   8.025
 2810POPC   C4A38046   6.834  43.847   7.666
 2810POPC   C1B38047   6.976  44.030   8.815
 2810POPC   C2B38048   6.956  43.946   8.340
 2810POPC   C3B38049   7.150  44.142   7.946
 2810POPC   C4B38050   7.020  44.302   7.518
 2811POPC   NC338051  33.108  13.538   9.565
 2811POPC   PO438052  32.616  13.982   9.464
 2811POPC   GL138053  32.836  13.697   9.166
 2811POPC   GL238054  33.143  13.849   9.157
 2811POPC   C1A38055  32.930  13.672   8.708
 2811POPC   D2A38056  32.802  13.750   8.314
 2811POPC   C3A38057  33.076  13.749   7.990
 2811POPC   C4A38058  33.176  13.519   7.633
 2811POPC   C1B38059  32.817  14.124   8.883
 2811POPC   C2B38060  32.501  14.091   8.554
 2811POPC   C3B38061  32.547  14.130   8.098
 2811POPC   C4B38062  32.832  14.135   7.753
 2812POPC   NC338063  32.604   1.949   9.417
 2812POPC   PO438064  32.045   1.738   9.641
 2812POPC   GL138065  32.005   1.819   9.195
 2812POPC   GL238066  32.016   2.153   9.064
 2812POPC   C1A38067  32.294   1.812   8.808
 2812POPC   D2A38068  32.466   2.150   8.526
 2812POPC   C3A38069  32.389   2.085   8.095
 2812POPC   C4A38070  32.655   2.058   7.753
 2812POPC   C1B38071  31.959   2.153   8.607
 2812POPC   C2B38072  31.864   2.023   8.180
 2812POPC   C3B38073  31.993   2.231   7.778
 2812POPC   C4B38074  31.860   2.207   7.339
 2813POPC   NC338075  33.206  17.761   9.453
 2813POPC   PO438076  33.155  18.491   9.513
 2813POPC   GL138077  33.177  18.435   9.104
 2813POPC   GL238078  33.385  18.147   9.179
 2813POPC   C1A38079  32.990  18.337   8.721
 2813POPC   D2A38080  32.758  18.316   8.347
 2813POPC   C3A38081  32.970  18.292   7.959
 2813POPC   C4A38082  32.889  18.454   7.549
 2813POPC   C1B38083  33.469  18.086   8.776
 2813POPC   C2B38084  33.287  18.113   8.360
 2813POPC   C3B38085  33.446  18.087   7.939
 2813POPC   C4B38086  33.350  18.180   7.499
 2814POPC   NC338087   1.369  20.980   9.467
 2814POPC   PO438088   1.013  21.581   9.473
 2814POPC   GL138089   1.099  21.352   9.135
 2814POPC   GL238090   1.467  21.382   9.172
 2814POPC   C1A38091   1.243  21.308   8.714
 2814POPC   D2A38092   1.456  21.271   8.348
 2814POPC   C3A38093   1.328  21.291   7.938
 2814POPC   C4A38094   1.052  21.543   7.733
 2814POPC   C1B38095   1.613  21.658   8.858
 2814POPC   C2B38096   1.469  21.778   8.469
 2814POPC   C3B38097   1.572  21.713   8.060
 2814POPC   C4B38098   1.493  21.779   7.664
 2815POPC   NC338099  35.392  33.577   9.741
 2815POPC   PO438100  34.833  33.739   9.662
 2815POPC   GL138101  35.112  33.660   9.282
 2815POPC   GL238102  35.502  33.572   9.228
 2815POPC   C1A38103  35.089  33.714   8.823
 2815POPC   D2A38104  35.278  33.712   8.404
 2815POPC   C3A38105  35.034  33.842   8.039
 2815POPC   C4A38106  34.931  33.712   7.653
 2815POPC   C1B38107  35.656  33.588   8.780
 2815POPC   C2B38108  35.675  33.395   8.336
 2815POPC   C3B38109  35.595  33.633   7.959
 2815POPC   C4B38110  35.432  34.014   7.743
 2816POPC   NC338111   7.184   8.136   9.733
 2816POPC   PO438112   7.638   8.444   9.505
 2816POPC   GL138113   7.487   8.253   9.125
 2816POPC   GL238114   7.157   8.239   9.204
 2816POPC   C1A38115   7.547   8.016   8.711
 2816POPC   D2A38116   7.335   8.300   8.396
 2816POPC   C3A38117   7.503   8.303   7.958
 2816POPC   C4A38118   7.836   7.986   7.800
 2816POPC   C1B38119   7.064   8.084   8.825
 2816POPC   C2B38120   6.826   8.124   8.476
 2816POPC   C3B38121   7.010   8.097   8.056
 2816POPC   C4B38122   7.059   8.383   7.709
 2817POPC   NC338123  41.289  42.592   9.505
 2817POPC   PO438124  41.208  41.995   9.305
 2817POPC   GL138125  41.476  42.252   9.077
 2817POPC   GL238126  41.621  42.592   9.114
 2817POPC   C1A38127  41.405  42.344   8.677
 2817POPC   D2A38128  41.180  42.341   8.322
 2817POPC   C3A38129  41.404  42.505   7.983
 2817POPC   C4A38130  41.389  42.461   7.541
 2817POPC   C1B38131  41.888  42.428   8.794
 2817POPC   C2B38132  41.937  42.410   8.390
 2817POPC   C3B38133  41.866  42.302   7.994
 2817POPC   C4B38134  41.851  42.575   7.668
 2818POPC   NC338135  24.328  35.163   9.674
 2818POPC   PO438136  24.633  35.706   9.706
 2818POPC   GL138137  24.712  35.549   9.255
 2818POPC   GL238138  24.616  35.273   9.158
 2818POPC   C1A38139  24.699  35.613   8.790
 2818POPC   D2A38140  24.689  35.425   8.362
 2818POPC   C3A38141  24.360  35.563   8.085
 2818POPC   C4A38142  24.553  35.629   7.701
 2818POPC   C1B38143  24.498  35.134   8.748
 2818POPC   C2B38144  24.267  35.091   8.341
 2818POPC   C3B38145  24.455  35.099   7.918
 2818POPC   C4B38146  24.291  35.235   7.506
 2819POPC   NC338147  24.960  40.359   9.520
 2819POPC   PO438148  25.472  40.694   9.713
 2819POPC   GL138149  25.204  40.749   9.287
 2819POPC   GL238150  24.829  40.676   9.134
 2819POPC   C1A38151  25.224  40.759   8.821
 2819POPC   D2A38152  25.226  40.499   8.424
 2819POPC   C3A38153  25.309  40.657   7.977
 2819POPC   C4A38154  25.261  40.896   7.585
 2819POPC   C1B38155  24.754  40.668   8.646
 2819POPC   C2B38156  24.809  40.680   8.178
 2819POPC   C3B38157  24.826  40.685   7.720
 2819POPC   C4B38158  24.916  40.710   7.235
 2820POPC   NC338159   9.145   1.537   9.503
 2820POPC   PO438160   8.927   2.148   9.400
 2820POPC   GL138161   8.837   2.095   9.011
 2820POPC   GL238162   9.067   1.848   8.910
 2820POPC   C1A38163   8.755   2.235   8.599
 2820POPC   D2A38164   8.853   1.881   8.347
 2820POPC   C3A38165   8.700   1.933   7.956
 2820POPC   C4A38166   8.836   2.342   7.931
 2820POPC   C1B38167   9.241   2.247   8.737
 2820POPC   C2B38168   9.292   2.343   8.280
 2820POPC   C3B38169   9.308   2.122   7.900
 2820POPC   C4B38170   9.149   1.720   7.855
 2821POPC   NC338171  44.794  43.957   9.635
 2821POPC   PO438172  44.422  43.434   9.375
 2821POPC   GL138173  44.613  43.755   9.200
 2821POPC   GL238174  44.985  43.739   9.124
 2821POPC   C1A38175  44.613  44.040   8.909
 2821POPC   D2A38176  44.928  44.077   8.570
 2821POPC   C3A38177  44.781  43.912   8.145
 2821POPC   C4A38178  44.955  44.085   7.736
 2821POPC   C1B38179  44.793  43.598   8.736
 2821POPC   C2B38180  44.413  43.749   8.531
 2821POPC   C3B38181  44.263  43.838   8.121
 2821POPC   C4B38182  44.472  43.906   7.717
 2822POPC   NC338183  12.258   7.301   9.644
 2822POPC   PO438184  11.910   7.817   9.527
 2822POPC   GL138185  12.101   7.564   9.203
 2822POPC   GL238186  12.187   7.204   9.148
 2822POPC   C1A38187  12.097   7.678   8.774
 2822POPC   D2A38188  12.318   7.610   8.403
 2822POPC   C3A38189  12.032   7.590   8.096
 2822POPC   C4A38190  12.134   7.647   7.704
 2822POPC   C1B38191  12.279   7.183   8.705
 2822POPC   C2B38192  12.172   7.106   8.263
 2822POPC   C3B38193  12.010   7.166   7.811
 2822POPC   C4B38194  12.017   6.953   7.360
 2823POPC   NC338195  41.939  28.743   9.690
 2823POPC   PO438196  42.596  28.574   9.532
 2823POPC   GL138197  42.298  28.403   9.198
 2823POPC   GL238198  42.135  28.064   9.275
 2823POPC   C1A38199  42.468  28.367   8.781
 2823POPC   D2A38200  42.373  28.542   8.367
 2823POPC   C3A38201  42.618  28.375   7.998
 2823POPC   C4A38202  42.559  28.465   7.554
 2823POPC   C1B38203  42.053  28.072   8.834
 2823POPC   C2B38204  42.248  28.052   8.421
 2823POPC   C3B38205  42.136  28.214   8.020
 2823POPC   C4B38206  41.950  28.024   7.686
 2824POPC   NC338207  18.549  37.474   9.252
 2824POPC   PO438208  18.209  37.019   9.563
 2824POPC   GL138209  18.258  37.072   9.124
 2824POPC   GL238210  18.368  36.754   9.053
 2824POPC   C1A38211  18.437  37.108   8.691
 2824POPC   D2A38212  18.538  36.964   8.270
 2824POPC   C3A38213  18.252  36.967   7.907
 2824POPC   C4A38214  18.330  36.988   7.438
 2824POPC   C1B38215  18.354  36.574   8.648
 2824POPC   C2B38216  18.591  36.432   8.338
 2824POPC   C3B38217  18.557  36.556   7.945
 2824POPC   C4B38218  18.277  36.501   7.601
 2825POPC   NC338219  22.535  11.107   9.625
 2825POPC   PO438220  22.818  11.616   9.458
 2825POPC   GL138221  22.799  11.470   9.087
 2825POPC   GL238222  22.884  11.136   9.235
 2825POPC   C1A38223  22.800  11.549   8.618
 2825POPC   D2A38224  23.183  11.523   8.355
 2825POPC   C3A38225  23.062  11.418   7.945
 2825POPC   C4A38226  22.755  11.567   7.664
 2825POPC   C1B38227  22.808  11.064   8.805
 2825POPC   C2B38228  22.808  11.101   8.378
 2825POPC   C3B38229  22.957  10.914   8.037
 2825POPC   C4B38230  22.808  11.043   7.668
 2826POPC   NC338231   3.862  27.568   9.744
 2826POPC   PO438232   4.518  27.538   9.546
 2826POPC   GL138233   4.606  27.557   9.111
 2826POPC   GL238234   4.759  27.873   9.080
 2826POPC   C1A38235   4.392  27.412   8.720
 2826POPC   D2A38236   4.126  27.462   8.358
 2826POPC   C3A38237   4.290  27.604   7.934
 2826POPC   C4A38238   4.290  27.516   7.477
 2826POPC   C1B38239   4.550  27.905   8.707
 2826POPC   C2B38240   4.609  27.699   8.348
 2826POPC   C3B38241   4.746  27.908   8.035
 2826POPC   C4B38242   4.662  27.850   7.621
 2827POPC   NC338243   6.039  35.603   9.370
 2827POPC   PO438244   5.564  35.278   9.669
 2827POPC   GL138245   5.714  35.213   9.220
 2827POPC   GL238246   5.719  35.505   8.999
 2827POPC   C1A38247   5.917  35.068   8.803
 2827POPC   D2A38248   6.053  35.176   8.363
 2827POPC   C3A38249   5.927  35.109   7.891
 2827POPC   C4A38250   6.071  35.093   7.406
 2827POPC   C1B38251   5.678  35.482   8.590
 2827POPC   C2B38252   5.595  35.639   8.219
 2827POPC   C3B38253   5.493  35.428   7.878
 2827POPC   C4B38254   5.642  35.353   7.482
 2828POPC   NC338255  42.090  39.893   9.726
 2828POPC   PO438256  42.297  39.227   9.708
 2828POPC   GL138257  42.186  39.005   9.279
 2828POPC   GL238258  42.400  38.768   9.108
 2828POPC   C1A38259  42.170  39.159   8.856
 2828POPC   D2A38260  42.132  39.477   8.548
 2828POPC   C3A38261  42.108  39.315   8.158
 2828POPC   C4A38262  42.106  39.177   7.713
 2828POPC   C1B38263  42.595  38.841   8.731
 2828POPC   C2B38264  42.515  39.067   8.368
 2828POPC   C3B38265  42.383  38.873   7.988
 2828POPC   C4B38266  42.410  38.786   7.522
 2829POPC   NC338267  43.383  29.494   9.526
 2829POPC   PO438268  43.244  30.271   9.600
 2829POPC   GL138269  43.193  30.120   9.184
 2829POPC   GL238270  43.076  29.788   9.224
 2829POPC   C1A38271  42.983  30.027   8.781
 2829POPC   D2A38272  43.004  29.804   8.379
 2829POPC   C3A38273  43.173  30.091   8.058
 2829POPC   C4A38274  43.169  30.132   7.588
 2829POPC   C1B38275  43.230  29.577   8.840
 2829POPC   C2B38276  43.371  29.410   8.423
 2829POPC   C3B38277  43.264  29.553   7.993
 2829POPC   C4B38278  42.946  29.733   7.786
 2830POPC   NC338279   7.182  13.409   9.488
 2830POPC   PO438280   7.334  14.044   9.245
 2830POPC   GL138281   7.269  13.744   8.924
 2830POPC   GL238282   7.302  13.392   9.011
 2830POPC   C1A38283   7.562  13.561   8.607
 2830POPC   D2A38284   7.689  13.583   8.166
 2830POPC   C3A38285   7.382  13.856   7.957
 2830POPC   C4A38286   7.332  14.026   7.527
 2830POPC   C1B38287   7.081  13.352   8.627
 2830POPC   C2B38288   7.290  13.281   8.269
 2830POPC   C3B38289   7.316  13.354   7.860
 2830POPC   C4B38290   7.070  13.597   7.632
 2831POPC   NC338291   3.517  32.498   9.299
 2831POPC   PO438292   3.598  31.905   9.649
 2831POPC   GL138293   3.423  31.968   9.229
 2831POPC   GL238294   3.176  32.195   9.104
 2831POPC   C1A38295   3.384  31.870   8.774
 2831POPC   D2A38296   3.189  31.957   8.398
 2831POPC   C3A38297   3.473  32.033   8.094
 2831POPC   C4A38298   3.606  32.056   7.693
 2831POPC   C1B38299   3.318  32.389   8.688
 2831POPC   C2B38300   3.551  32.500   8.297
 2831POPC   C3B38301   3.400  32.501   7.858
 2831POPC   C4B38302   3.457  32.446   7.385
 2832POPC   NC338303  41.830  31.409   9.582
 2832POPC   PO438304  41.299  31.598   9.460
 2832POPC   GL138305  41.503  31.363   9.151
 2832POPC   GL238306  41.755  31.612   9.133
 2832POPC   C1A38307  41.706  31.236   8.763
 2832POPC   D2A38308  41.900  31.345   8.356
 2832POPC   C3A38309  41.654  31.280   7.954
 2832POPC   C4A38310  41.550  31.636   7.669
 2832POPC   C1B38311  41.991  31.684   8.789
 2832POPC   C2B38312  41.908  31.873   8.400
 2832POPC   C3B38313  41.910  31.723   8.008
 2832POPC   C4B38314  41.999  31.929   7.623
 2833POPC   NC338315  21.424  39.875   9.999
 2833POPC   PO438316  21.260  40.244   9.455
 2833POPC   GL138317  21.203  40.181   9.052
 2833POPC   GL238318  21.512  39.978   9.019
 2833POPC   C1A38319  21.227  40.112   8.631
 2833POPC   D2A38320  21.270  39.860   8.284
 2833POPC   C3A38321  21.006  39.998   7.968
 2833POPC   C4A38322  20.993  40.413   7.835
 2833POPC   C1B38323  21.530  39.625   8.709
 2833POPC   C2B38324  21.588  39.446   8.303
 2833POPC   C3B38325  21.530  39.646   7.887
 2833POPC   C4B38326  21.500  39.625   7.447
 2834POPC   NC338327  37.000  11.097   9.422
 2834POPC   PO438328  36.707  11.704   9.439
 2834POPC   GL138329  36.858  11.451   9.059
 2834POPC   GL238330  37.153  11.210   8.957
 2834POPC   C1A38331  37.077  11.627   8.686
 2834POPC   D2A38332  37.175  11.499   8.292
 2834POPC   C3A38333  36.842  11.238   8.133
 2834POPC   C4A38334  36.673  11.202   7.726
 2834POPC   C1B38335  37.274  10.843   8.694
 2834POPC   C2B38336  37.291  10.732   8.240
 2834POPC   C3B38337  37.337  11.071   7.911
 2834POPC   C4B38338  37.128  11.477   7.783
 2835POPC   NC338339  25.382   5.795  10.255
 2835POPC   PO438340  25.370   5.731   9.585
 2835POPC   GL138341  25.283   5.619   9.173
 2835POPC   GL238342  24.953   5.480   9.254
 2835POPC   C1A38343  25.350   5.848   8.793
 2835POPC   D2A38344  25.178   6.063   8.429
 2835POPC   C3A38345  25.306   5.926   8.052
 2835POPC   C4A38346  25.291   6.182   7.730
 2835POPC   C1B38347  24.898   5.636   8.823
 2835POPC   C2B38348  25.136   5.543   8.433
 2835POPC   C3B38349  25.146   5.427   8.013
 2835POPC   C4B38350  25.071   5.641   7.645
 2836POPC   NC338351  14.899  10.884   9.412
 2836POPC   PO438352  15.380  11.367   9.451
 2836POPC   GL138353  15.355  11.392   9.006
 2836POPC   GL238354  15.033  11.259   8.812
 2836POPC   C1A38355  15.502  11.211   8.653
 2836POPC   D2A38356  15.267  11.074   8.316
 2836POPC   C3A38357  15.442  11.105   7.932
 2836POPC   C4A38358  15.210  11.005   7.539
 2836POPC   C1B38359  15.172  11.599   8.563
 2836POPC   C2B38360  15.263  11.591   8.147
 2836POPC   C3B38361  15.051  11.385   7.852
 2836POPC   C4B38362  14.790  11.349   7.495
 2837POPC   NC338363  35.053  31.778   9.722
 2837POPC   PO438364  35.233  31.230   9.479
 2837POPC   GL138365  35.319  31.635   9.285
 2837POPC   GL238366  35.008  31.828   9.212
 2837POPC   C1A38367  35.528  31.696   8.879
 2837POPC   D2A38368  35.548  31.729   8.430
 2837POPC   C3A38369  35.496  31.477   8.083
 2837POPC   C4A38370  35.557  31.754   7.723
 2837POPC   C1B38371  35.022  31.533   8.886
 2837POPC   C2B38372  35.071  31.558   8.463
 2837POPC   C3B38373  35.040  31.680   8.049
 2837POPC   C4B38374  35.132  31.489   7.705
 2838POPC   NC338375  27.756   1.918   9.515
 2838POPC   PO438376  27.305   1.751   9.105
 2838POPC   GL138377  27.646   2.067   9.042
 2838POPC   GL238378  28.045   1.978   9.120
 2838POPC   C1A38379  27.537   2.257   8.636
 2838POPC   D2A38380  27.220   2.268   8.324
 2838POPC   C3A38381  27.368   2.197   7.921
 2838POPC   C4A38382  27.331   1.969   7.521
 2838POPC   C1B38383  28.029   2.224   8.752
 2838POPC   C2B38384  27.959   2.047   8.361
 2838POPC   C3B38385  27.916   2.194   8.002
 2838POPC   C4B38386  27.805   2.158   7.651
 2839POPC   NC338387  38.675  12.963   9.559
 2839POPC   PO438388  38.303  12.385   9.640
 2839POPC   GL138389  38.279  12.650   9.270
 2839POPC   GL238390  38.622  12.686   9.127
 2839POPC   C1A38391  38.161  12.728   8.838
 2839POPC   D2A38392  38.081  12.658   8.384
 2839POPC   C3A38393  38.196  12.895   8.038
 2839POPC   C4A38394  38.355  12.998   7.617
 2839POPC   C1B38395  38.683  12.714   8.727
 2839POPC   C2B38396  38.504  12.968   8.455
 2839POPC   C3B38397  38.689  12.866   8.095
 2839POPC   C4B38398  38.825  12.822   7.704
 2840POPC   NC338399  13.232   8.699   9.381
 2840POPC   PO438400  12.653   9.132   9.487
 2840POPC   GL138401  12.847   8.999   9.118
 2840POPC   GL238402  12.885   9.318   8.984
 2840POPC   C1A38403  12.599   9.045   8.696
 2840POPC   D2A38404  12.448   8.891   8.358
 2840POPC   C3A38405  12.664   8.978   7.997
 2840POPC   C4A38406  12.966   8.710   7.822
 2840POPC   C1B38407  13.099   9.041   8.659
 2840POPC   C2B38408  13.183   9.014   8.210
 2840POPC   C3B38409  13.107   9.237   7.838
 2840POPC   C4B38410  12.708   9.383   7.694
 2841POPC   NC338411  23.186  18.743   9.449
 2841POPC   PO438412  23.845  19.004   9.470
 2841POPC   GL138413  23.671  19.222   9.127
 2841POPC   GL238414  23.328  19.162   9.160
 2841POPC   C1A38415  23.623  19.313   8.698
 2841POPC   D2A38416  23.786  18.998   8.411
 2841POPC   C3A38417  23.891  19.043   7.986
 2841POPC   C4A38418  24.073  18.740   7.705
 2841POPC   C1B38419  23.299  18.904   8.772
 2841POPC   C2B38420  23.250  19.101   8.362
 2841POPC   C3B38421  23.402  19.222   7.951
 2841POPC   C4B38422  23.424  18.957   7.591
 2842POPC   NC338423   5.794   9.477   9.604
 2842POPC   PO438424   6.245   9.911   9.495
 2842POPC   GL138425   6.140   9.563   9.231
 2842POPC   GL238426   5.848   9.738   9.103
 2842POPC   C1A38427   6.087   9.345   8.812
 2842POPC   D2A38428   5.760   9.509   8.589
 2842POPC   C3A38429   5.810   9.461   8.165
 2842POPC   C4A38430   5.635   9.627   7.768
 2842POPC   C1B38431   6.256   9.803   8.829
 2842POPC   C2B38432   6.204   9.758   8.415
 2842POPC   C3B38433   6.111   9.806   7.987
 2842POPC   C4B38434   6.124   9.390   7.775
 2843POPC   NC338435  41.211  31.134   9.519
 2843POPC   PO438436  40.804  30.580   9.480
 2843POPC   GL138437  40.840  30.699   9.097
 2843POPC   GL238438  41.081  30.901   9.098
 2843POPC   C1A38439  40.806  30.736   8.674
 2843POPC   D2A38440  40.616  30.500   8.364
 2843POPC   C3A38441  40.846  30.540   7.993
 2843POPC   C4A38442  40.690  30.419   7.599
 2843POPC   C1B38443  41.226  31.054   8.738
 2843POPC   C2B38444  41.058  31.061   8.347
 2843POPC   C3B38445  41.195  30.956   7.968
 2843POPC   C4B38446  40.967  30.848   7.600
 2844POPC   NC338447  26.219   5.487   9.582
 2844POPC   PO438448  26.229   6.236   9.582
 2844POPC   GL138449  26.135   5.888   9.272
 2844POPC   GL238450  25.810   5.712   9.244
 2844POPC   C1A38451  26.229   5.629   8.896
 2844POPC   D2A38452  26.357   5.615   8.453
 2844POPC   C3A38453  26.103   5.778   8.083
 2844POPC   C4A38454  26.088   5.858   7.626
 2844POPC   C1B38455  25.843   5.948   8.825
 2844POPC   C2B38456  25.712   5.945   8.380
 2844POPC   C3B38457  25.780   6.140   7.922
 2844POPC   C4B38458  25.722   6.178   7.452
 2845POPC   NC338459  43.434  38.851   9.546
 2845POPC   PO438460  43.992  39.213   9.592
 2845POPC   GL138461  43.886  39.113   9.181
 2845POPC   GL238462  44.189  38.923   9.125
 2845POPC   C1A38463  43.804  39.336   8.800
 2845POPC   D2A38464  43.938  39.433   8.380
 2845POPC   C3A38465  43.804  39.263   7.970
 2845POPC   C4A38466  43.721  39.393   7.554
 2845POPC   C1B38467  44.136  38.909   8.654
 2845POPC   C2B38468  44.388  38.879   8.257
 2845POPC   C3B38469  44.312  38.889   7.808
 2845POPC   C4B38470  44.111  39.051   7.451
 2846POPC   NC338471  21.866   8.784   9.382
 2846POPC   PO438472  22.514   9.027   9.564
 2846POPC   GL138473  22.327   8.896   9.169
 2846POPC   GL238474  22.127   9.183   9.140
 2846POPC   C1A38475  22.188   8.915   8.723
 2846POPC   D2A38476  22.330   9.059   8.359
 2846POPC   C3A38477  22.177   9.019   7.978
 2846POPC   C4A38478  22.342   9.007   7.545
 2846POPC   C1B38479  21.916   9.379   8.779
 2846POPC   C2B38480  21.859   9.322   8.343
 2846POPC   C3B38481  21.832   9.450   7.924
 2846POPC   C4B38482  21.872   9.162   7.598
 2847POPC   NC338483  34.765  21.887   9.479
 2847POPC   PO438484  34.152  22.272   9.497
 2847POPC   GL138485  34.414  22.118   9.167
 2847POPC   GL238486  34.595  22.399   8.965
 2847POPC   C1A38487  34.464  21.966   8.758
 2847POPC   D2A38488  34.542  22.220   8.412
 2847POPC   C3A38489  34.593  22.044   8.038
 2847POPC   C4A38490  34.539  22.100   7.625
 2847POPC   C1B38491  34.946  22.237   8.711
 2847POPC   C2B38492  35.061  22.235   8.259
 2847POPC   C3B38493  35.013  22.180   7.778
 2847POPC   C4B38494  34.901  22.149   7.284
 2848POPC   NC338495  37.276  41.801   9.652
 2848POPC   PO438496  37.895  41.689   9.468
 2848POPC   GL138497  37.780  41.611   9.049
 2848POPC   GL238498  37.697  41.274   9.063
 2848POPC   C1A38499  37.797  41.531   8.597
 2848POPC   D2A38500  37.888  41.149   8.362
 2848POPC   C3A38501  38.014  41.189   7.935
 2848POPC   C4A38502  37.627  41.220   7.700
 2848POPC   C1B38503  37.375  41.270   8.747
 2848POPC   C2B38504  37.398  41.388   8.301
 2848POPC   C3B38505  37.660  41.617   8.045
 2848POPC   C4B38506  37.522  41.812   7.682
 2849POPC   NC338507  27.860  22.581   9.384
 2849POPC   PO438508  27.624  23.214   9.430
 2849POPC   GL138509  27.766  23.017   9.088
 2849POPC   GL238510  27.510  22.764   9.083
 2849POPC   C1A38511  27.687  22.892   8.652
 2849POPC   D2A38512  27.681  22.579   8.353
 2849POPC   C3A38513  27.771  22.798   7.972
 2849POPC   C4A38514  27.534  23.153   7.868
 2849POPC   C1B38515  27.332  22.510   8.771
 2849POPC   C2B38516  27.158  22.567   8.383
 2849POPC   C3B38517  27.261  22.707   7.990
 2849POPC   C4B38518  27.453  22.637   7.621
 2850POPC   NC338519  22.560  39.578   9.492
 2850POPC   PO438520  23.018  39.997   9.544
 2850POPC   GL138521  22.896  39.795   9.173
 2850POPC   GL238522  23.220  39.882   9.061
 2850POPC   C1A38523  22.767  39.772   8.737
 2850POPC   D2A38524  22.992  39.752   8.333
 2850POPC   C3A38525  22.760  39.780   7.960
 2850POPC   C4A38526  22.945  39.949   7.599
 2850POPC   C1B38527  22.942  40.220   8.870
 2850POPC   C2B38528  22.795  40.217   8.432
 2850POPC   C3B38529  22.976  40.239   8.035
 2850POPC   C4B38530  23.031  40.459   7.636
 2851POPC   NC338531  13.653  40.488   9.381
 2851POPC   PO438532  13.925  39.901   9.485
 2851POPC   GL138533  13.743  40.074   9.098
 2851POPC   GL238534  13.375  40.091   9.100
 2851POPC   C1A38535  13.677  40.195   8.670
 2851POPC   D2A38536  13.653  39.891   8.319
 2851POPC   C3A38537  13.911  39.922   7.927
 2851POPC   C4A38538  13.872  40.222   7.587
 2851POPC   C1B38539  13.173  40.160   8.712
 2851POPC   C2B38540  13.313  40.290   8.276
 2851POPC   C3B38541  13.418  40.080   7.861
 2851POPC   C4B38542  13.428  39.973   7.402
 2852POPC   NC338543  23.570   2.993   9.434
 2852POPC   PO438544  23.258   2.357   9.488
 2852POPC   GL138545  23.388   2.624   9.140
 2852POPC   GL238546  23.200   2.939   9.084
 2852POPC   C1A38547  23.653   2.668   8.790
 2852POPC   D2A38548  23.974   2.547   8.514
 2852POPC   C3A38549  23.789   2.509   8.130
 2852POPC   C4A38550  23.727   2.660   7.770
 2852POPC   C1B38551  23.375   3.082   8.708
 2852POPC   C2B38552  23.507   2.894   8.309
 2852POPC   C3B38553  23.377   3.038   7.890
 2852POPC   C4B38554  23.474   2.992   7.462
 2853POPC   NC338555  39.833  35.357   9.524
 2853POPC   PO438556  39.136  35.339   9.556
 2853POPC   GL138557  39.108  35.162   9.153
 2853POPC   GL238558  39.441  35.216   9.098
 2853POPC   C1A38559  39.133  35.285   8.714
 2853POPC   D2A38560  39.401  35.448   8.416
 2853POPC   C3A38561  39.073  35.408   8.132
 2853POPC   C4A38562  39.098  35.527   7.682
 2853POPC   C1B38563  39.528  34.965   8.711
 2853POPC   C2B38564  39.446  34.972   8.249
 2853POPC   C3B38565  39.477  35.260   7.892
 2853POPC   C4B38566  39.475  35.257   7.428
 2854POPC   NC338567  25.623   8.595   9.603
 2854POPC   PO438568  25.596   9.258   9.534
 2854POPC   GL138569  25.278   9.078   9.209
 2854POPC   GL238570  25.196   8.693   9.218
 2854POPC   C1A38571  25.377   8.943   8.798
 2854POPC   D2A38572  25.663   8.851   8.477
 2854POPC   C3A38573  25.615   8.944   8.041
 2854POPC   C4A38574  25.439   9.052   7.645
 2854POPC   C1B38575  25.004   8.600   8.795
 2854POPC   C2B38576  25.173   8.664   8.386
 2854POPC   C3B38577  25.109   8.856   7.994
 2854POPC   C4B38578  25.099   8.639   7.619
 2855POPC   NC338579  26.386  44.528   9.419
 2855POPC   PO438580  25.951   0.036   9.535
 2855POPC   GL138581  26.004  44.745   9.150
 2855POPC   GL238582  26.332  44.799   9.003
 2855POPC   C1A38583  26.020  44.551   8.715
 2855POPC   D2A38584  25.743  44.501   8.397
 2855POPC   C3A38585  25.964  44.422   8.059
 2855POPC   C4A38586  26.025  44.538   7.632
 2855POPC   C1B38587  26.269  44.996   8.668
 2855POPC   C2B38588  26.092  44.879   8.306
 2855POPC   C3B38589  26.280  44.833   7.955
 2855POPC   C4B38590  26.239  44.967   7.543
 2856POPC   NC338591  44.933  18.410   9.411
 2856POPC   PO438592  44.361  18.122   9.659
 2856POPC   GL138593  44.549  18.080   9.232
 2856POPC   GL238594  44.513  18.443   9.133
 2856POPC   C1A38595  44.677  18.146   8.785
 2856POPC   D2A38596  44.543  18.422   8.427
 2856POPC   C3A38597  44.696  18.235   8.033
 2856POPC   C4A38598  44.643  18.053   7.630
 2856POPC   C1B38599  44.850  18.650   8.811
 2856POPC   C2B38600  44.915  18.827   8.390
 2856POPC   C3B38601  44.682  18.761   8.014
 2856POPC   C4B38602  44.712  18.562   7.634
 2857POPC   NC338603  40.097  25.710   9.504
 2857POPC   PO438604  39.997  26.301   9.753
 2857POPC   GL138605  39.993  26.322   9.259
 2857POPC   GL238606  39.905  25.985   9.115
 2857POPC   C1A38607  40.093  26.335   8.790
 2857POPC   D2A38608  39.936  26.236   8.368
 2857POPC   C3A38609  40.228  26.256   8.019
 2857POPC   C4A38610  40.312  26.167   7.593
 2857POPC   C1B38611  39.640  25.996   8.742
 2857POPC   C2B38612  39.615  25.815   8.330
 2857POPC   C3B38613  39.852  25.795   7.939
 2857POPC   C4B38614  39.695  25.577   7.585
 2858POPC   NC338615   7.838  19.100   9.431
 2858POPC   PO438616   7.191  19.321   9.468
 2858POPC   GL138617   7.493  19.316   9.126
 2858POPC   GL238618   7.477  18.953   9.060
 2858POPC   C1A38619   7.623  19.271   8.709
 2858POPC   D2A38620   7.367  19.193   8.384
 2858POPC   C3A38621   7.488  19.278   7.975
 2858POPC   C4A38622   7.550  18.915   7.748
 2858POPC   C1B38623   7.611  18.776   8.624
 2858POPC   C2B38624   7.807  18.671   8.203
 2858POPC   C3B38625   7.987  18.626   7.779
 2858POPC   C4B38626   7.901  18.822   7.377
 2859POPC   NC338627   9.160  44.385   9.738
 2859POPC   PO438628   9.161   0.009   9.541
 2859POPC   GL138629   9.108  44.649   9.229
 2859POPC   GL238630   9.091  44.285   9.211
 2859POPC   C1A38631   9.089  44.661   8.775
 2859POPC   D2A38632   9.149   0.034   8.505
 2859POPC   C3A38633   9.270  44.966   8.087
 2859POPC   C4A38634   9.134  44.714   7.765
 2859POPC   C1B38635   8.900  44.157   8.792
 2859POPC   C2B38636   9.016  44.277   8.353
 2859POPC   C3B38637   8.925  44.288   7.920
 2859POPC   C4B38638   9.099  44.233   7.474
 2860POPC   NC338639  31.283  40.850   9.528
 2860POPC   PO438640  31.830  41.047   9.472
 2860POPC   GL138641  31.677  40.809   9.137
 2860POPC   GL238642  31.828  40.514   9.181
 2860POPC   C1A38643  31.692  40.911   8.684
 2860POPC   D2A38644  31.754  41.039   8.241
 2860POPC   C3A38645  31.465  40.867   7.953
 2860POPC   C4A38646  31.128  40.643   7.740
 2860POPC   C1B38647  31.989  40.506   8.759
 2860POPC   C2B38648  32.097  40.661   8.341
 2860POPC   C3B38649  31.971  40.760   7.873
 2860POPC   C4B38650  31.837  40.576   7.451
 2861POPC   NC338651  29.892  44.547   9.620
 2861POPC   PO438652  30.337   0.006   9.403
 2861POPC   GL138653  30.064  44.755   9.156
 2861POPC   GL238654  29.696  44.709   9.163
 2861POPC   C1A38655  29.965  44.846   8.750
 2861POPC   D2A38656  29.859  44.632   8.431
 2861POPC   C3A38657  29.987  44.861   8.114
 2861POPC   C4A38658  30.011  44.689   7.727
 2861POPC   C1B38659  29.597  44.401   8.817
 2861POPC   C2B38660  29.424  44.385   8.381
 2861POPC   C3B38661  29.516  44.197   7.975
 2861POPC   C4B38662  29.626  44.402   7.579
 2862POPC   NC338663  44.067  41.985   9.214
 2862POPC   PO438664  44.265  41.430   9.466
 2862POPC   GL138665  43.996  41.461   9.137
 2862POPC   GL238666  44.200  41.464   8.880
 2862POPC   C1A38667  43.741  41.242   8.836
 2862POPC   D2A38668  43.546  41.401   8.502
 2862POPC   C3A38669  43.828  41.417   8.171
 2862POPC   C4A38670  43.789  41.602   7.762
 2862POPC   C1B38671  43.943  41.724   8.599
 2862POPC   C2B38672  44.037  41.872   8.168
 2862POPC   C3B38673  44.117  41.971   7.730
 2862POPC   C4B38674  43.993  41.827   7.308
 2863POPC   NC338675  28.899   3.705   9.702
 2863POPC   PO438676  28.276   3.798   9.291
 2863POPC   GL138677  28.085   3.467   9.058
 2863POPC   GL238678  28.411   3.481   8.872
 2863POPC   C1A38679  28.000   3.326   8.639
 2863POPC   D2A38680  28.296   3.548   8.333
 2863POPC   C3A38681  28.322   3.418   7.909
 2863POPC   C4A38682  28.077   3.022   7.846
 2863POPC   C1B38683  28.607   3.842   8.635
 2863POPC   C2B38684  28.852   3.917   8.293
 2863POPC   C3B38685  28.554   3.924   8.002
 2863POPC   C4B38686  28.728   3.782   7.663
 2864POPC   NC338687  23.715   8.787   9.259
 2864POPC   PO438688  23.687   8.280   9.688
 2864POPC   GL138689  23.664   8.289   9.191
 2864POPC   GL238690  24.003   8.241   9.060
 2864POPC   C1A38691  23.657   8.428   8.712
 2864POPC   D2A38692  23.899   8.511   8.323
 2864POPC   C3A38693  23.712   8.304   7.948
 2864POPC   C4A38694  23.664   8.194   7.450
 2864POPC   C1B38695  23.880   7.959   8.687
 2864POPC   C2B38696  23.844   7.838   8.230
 2864POPC   C3B38697  23.935   7.898   7.768
 2864POPC   C4B38698  24.043   7.915   7.297
 2865POPC   NC338699  19.726  29.333   9.359
 2865POPC   PO438700  20.107  28.733   9.222
 2865POPC   GL138701  19.818  29.000   8.969
 2865POPC   GL238702  19.474  29.193   8.920
 2865POPC   C1A38703  19.688  28.914   8.552
 2865POPC   D2A38704  19.604  29.046   8.151
 2865POPC   C3A38705  19.742  28.809   7.777
 2865POPC   C4A38706  19.907  28.906   7.327
 2865POPC   C1B38707  19.828  29.403   8.663
 2865POPC   C2B38708  19.903  29.541   8.229
 2865POPC   C3B38709  19.876  29.321   7.814
 2865POPC   C4B38710  19.561  29.219   7.527
 2866POPC   NC338711   0.294   0.513   9.570
 2866POPC   PO438712   0.868   0.713   9.403
 2866POPC   GL138713   0.576   0.541   9.139
 2866POPC   GL238714   0.580   0.197   9.180
 2866POPC   C1A38715   0.272   0.470   8.816
 2866POPC   D2A38716   0.112   0.422   8.392
 2866POPC   C3A38717   0.265   0.612   7.979
 2866POPC   C4A38718   0.363   0.526   7.519
 2866POPC   C1B38719   0.511   0.006   8.771
 2866POPC   C2B38720   0.317  44.962   8.384
 2866POPC   C3B38721   0.370   0.098   7.960
 2866POPC   C4B38722   0.118   0.084   7.623
 2867POPC   NC338723  27.199  21.303   9.915
 2867POPC   PO438724  27.788  21.499   9.574
 2867POPC   GL138725  27.590  21.368   9.192
 2867POPC   GL238726  27.350  21.135   9.067
 2867POPC   C1A38727  27.679  21.505   8.783
 2867POPC   D2A38728  27.991  21.512   8.479
 2867POPC   C3A38729  27.813  21.451   8.086
 2867POPC   C4A38730  27.835  21.770   7.791
 2867POPC   C1B38731  27.183  21.352   8.736
 2867POPC   C2B38732  27.150  21.210   8.322
 2867POPC   C3B38733  27.330  21.350   7.950
 2867POPC   C4B38734  27.610  21.334   7.588
 2868POPC   NC338735  42.085  10.765   9.675
 2868POPC   PO438736  41.473  10.379   9.633
 2868POPC   GL138737  41.373  10.427   9.188
 2868POPC   GL238738  41.148  10.187   9.069
 2868POPC   C1A38739  41.469  10.739   8.842
 2868POPC   D2A38740  41.232  11.001   8.584
 2868POPC   C3A38741  41.311  10.933   8.159
 2868POPC   C4A38742  41.394  10.645   7.840
 2868POPC   C1B38743  41.498  10.226   8.733
 2868POPC   C2B38744  41.514  10.388   8.312
 2868POPC   C3B38745  41.716  10.266   7.941
 2868POPC   C4B38746  41.895  10.373   7.558
 2869POPC   NC338747  16.601  13.574   9.487
 2869POPC   PO438748  17.009  14.009   9.501
 2869POPC   GL138749  16.858  13.832   9.115
 2869POPC   GL238750  16.915  13.449   9.089
 2869POPC   C1A38751  16.571  13.778   8.787
 2869POPC   D2A38752  16.362  13.703   8.426
 2869POPC   C3A38753  16.529  13.610   8.039
 2869POPC   C4A38754  16.395  13.752   7.657
 2869POPC   C1B38755  17.054  13.581   8.711
 2869POPC   C2B38756  16.939  13.770   8.355
 2869POPC   C3B38757  17.071  13.540   8.012
 2869POPC   C4B38758  16.854  13.434   7.682
 2870POPC   NC338759  16.246  27.059   9.486
 2870POPC   PO438760  15.867  26.499   9.657
 2870POPC   GL138761  15.844  26.780   9.236
 2870POPC   GL238762  15.948  27.088   9.080
 2870POPC   C1A38763  15.970  26.686   8.767
 2870POPC   D2A38764  16.072  26.373   8.455
 2870POPC   C3A38765  16.051  26.370   8.025
 2870POPC   C4A38766  15.910  26.500   7.638
 2870POPC   C1B38767  16.254  27.105   8.698
 2870POPC   C2B38768  16.206  26.897   8.290
 2870POPC   C3B38769  16.013  26.948   7.861
 2870POPC   C4B38770  16.126  26.877   7.399
 2871POPC   NC338771  23.170  12.477   9.530
 2871POPC   PO438772  22.697  12.949   9.469
 2871POPC   GL138773  23.021  12.831   9.177
 2871POPC   GL238774  23.189  13.110   9.140
 2871POPC   C1A38775  23.135  12.775   8.738
 2871POPC   D2A38776  23.104  12.549   8.330
 2871POPC   C3A38777  23.134  12.805   7.987
 2871POPC   C4A38778  23.256  12.585   7.627
 2871POPC   C1B38779  22.968  13.240   8.805
 2871POPC   C2B38780  23.046  13.152   8.388
 2871POPC   C3B38781  23.206  13.337   8.032
 2871POPC   C4B38782  22.993  13.301   7.650
 2872POPC   NC338783  13.687   7.842   9.699
 2872POPC   PO438784  13.308   8.332   9.663
 2872POPC   GL138785  13.542   8.179   9.303
 2872POPC   GL238786  13.319   7.959   9.143
 2872POPC   C1A38787  13.638   8.219   8.834
 2872POPC   D2A38788  13.543   8.072   8.406
 2872POPC   C3A38789  13.704   8.255   8.004
 2872POPC   C4A38790  13.624   8.223   7.557
 2872POPC   C1B38791  13.242   7.681   8.819
 2872POPC   C2B38792  13.237   7.642   8.376
 2872POPC   C3B38793  13.302   7.890   7.992
 2872POPC   C4B38794  13.120   7.765   7.635
 2873POPC   NC338795   4.000  44.135   9.526
 2873POPC   PO438796   4.537  43.811   9.565
 2873POPC   GL138797   4.344  43.774   9.164
 2873POPC   GL238798   4.332  44.120   9.107
 2873POPC   C1A38799   4.426  43.780   8.705
 2873POPC   D2A38800   4.808  43.650   8.503
 2873POPC   C3A38801   4.770  43.746   8.074
 2873POPC   C4A38802   4.362  43.714   7.891
 2873POPC   C1B38803   3.967  43.996   8.834
 2873POPC   C2B38804   3.969  43.801   8.406
 2873POPC   C3B38805   3.994  44.051   8.026
 2873POPC   C4B38806   4.132  44.062   7.609
 2874POPC   NC338807   0.426  17.671   9.499
 2874POPC   PO438808   1.039  18.126   9.525
 2874POPC   GL138809   0.841  17.781   9.184
 2874POPC   GL238810   0.449  17.799   9.015
 2874POPC   C1A38811   0.815  17.597   8.734
 2874POPC   D2A38812   0.554  17.545   8.336
 2874POPC   C3A38813   0.817  17.602   7.965
 2874POPC   C4A38814   0.778  17.568   7.514
 2874POPC   C1B38815   0.040  17.758   8.768
 2874POPC   C2B38816  44.879  17.492   8.412
 2874POPC   C3B38817   0.058  17.401   8.010
 2874POPC   C4B38818   0.343  17.615   7.775
 2875POPC   NC338819  12.427  35.910   9.282
 2875POPC   PO438820  13.035  36.295   9.497
 2875POPC   GL138821  12.814  36.227   9.147
 2875POPC   GL238822  12.933  35.894   9.127
 2875POPC   C1A38823  12.712  36.119   8.712
 2875POPC   D2A38824  12.520  36.097   8.333
 2875POPC   C3A38825  12.820  36.157   7.996
 2875POPC   C4A38826  13.253  36.300   7.803
 2875POPC   C1B38827  12.770  35.622   8.763
 2875POPC   C2B38828  12.857  35.712   8.323
 2875POPC   C3B38829  12.749  35.626   7.905
 2875POPC   C4B38830  12.898  35.498   7.504
 2876POPC   NC338831  13.048  39.994   9.476
 2876POPC   PO438832  12.558  40.431   9.402
 2876POPC   GL138833  12.793  40.225   9.095
 2876POPC   GL238834  12.802  39.900   9.062
 2876POPC   C1A38835  12.665  40.245   8.692
 2876POPC   D2A38836  12.693  40.011   8.361
 2876POPC   C3A38837  12.910  40.116   8.013
 2876POPC   C4A38838  12.609  40.152   7.755
 2876POPC   C1B38839  12.919  39.714   8.724
 2876POPC   C2B38840  13.145  39.784   8.354
 2876POPC   C3B38841  13.144  39.647   7.947
 2876POPC   C4B38842  12.928  39.790   7.602
 2877POPC   NC338843  22.382  31.387   9.775
 2877POPC   PO438844  21.887  31.419   9.383
 2877POPC   GL138845  21.988  31.648   9.029
 2877POPC   GL238846  22.348  31.622   9.051
 2877POPC   C1A38847  22.029  31.669   8.574
 2877POPC   D2A38848  22.244  31.662   8.172
 2877POPC   C3A38849  22.009  31.453   7.818
 2877POPC   C4A38850  22.042  31.367   7.367
 2877POPC   C1B38851  22.269  31.243   8.783
 2877POPC   C2B38852  22.133  31.199   8.362
 2877POPC   C3B38853  22.437  31.208   8.028
 2877POPC   C4B38854  22.377  31.098   7.608
 2878POPC   NC338855   8.423  33.117   9.523
 2878POPC   PO438856   7.974  32.620   9.564
 2878POPC   GL138857   8.106  32.862   9.198
 2878POPC   GL238858   7.885  33.097   9.198
 2878POPC   C1A38859   8.348  33.137   8.858
 2878POPC   D2A38860   8.500  33.297   8.429
 2878POPC   C3A38861   8.461  33.011   8.099
 2878POPC   C4A38862   8.190  32.973   7.780
 2878POPC   C1B38863   7.844  33.254   8.813
 2878POPC   C2B38864   7.994  33.205   8.402
 2878POPC   C3B38865   7.813  32.942   8.113
 2878POPC   C4B38866   7.692  33.081   7.709
 2879POPC   NC338867  43.711  30.239   9.561
 2879POPC   PO438868  43.919  29.589   9.573
 2879POPC   GL138869  43.985  29.837   9.241
 2879POPC   GL238870  43.632  29.850   9.170
 2879POPC   C1A38871  44.037  29.902   8.813
 2879POPC   D2A38872  43.830  30.001   8.446
 2879POPC   C3A38873  44.119  30.010   8.108
 2879POPC   C4A38874  44.077  29.829   7.712
 2879POPC   C1B38875  43.730  29.482   8.901
 2879POPC   C2B38876  43.877  29.470   8.485
 2879POPC   C3B38877  43.758  29.642   8.100
 2879POPC   C4B38878  43.575  29.897   7.790
 2880POPC   NC338879   2.138  28.006   9.506
 2880POPC   PO438880   2.101  28.643   9.663
 2880POPC   GL138881   2.063  28.460   9.249
 2880POPC   GL238882   2.282  28.656   9.036
 2880POPC   C1A38883   1.831  28.492   8.842
 2880POPC   D2A38884   2.012  28.619   8.442
 2880POPC   C3A38885   1.926  28.324   8.114
 2880POPC   C4A38886   1.635  28.094   7.847
 2880POPC   C1B38887   2.301  28.284   8.796
 2880POPC   C2B38888   2.338  28.135   8.383
 2880POPC   C3B38889   2.428  28.253   7.971
 2880POPC   C4B38890   2.110  28.269   7.628
 2881POPC   NC338891  30.760  12.969   9.418
 2881POPC   PO438892  30.168  13.253   9.288
 2881POPC   GL138893  30.404  12.943   9.068
 2881POPC   GL238894  30.417  12.579   9.165
 2881POPC   C1A38895  30.755  12.761   8.798
 2881POPC   D2A38896  30.963  12.909   8.445
 2881POPC   C3A38897  30.761  13.048   8.094
 2881POPC   C4A38898  30.932  12.829   7.761
 2881POPC   C1B38899  30.268  12.634   8.712
 2881POPC   C2B38900  30.547  12.589   8.344
 2881POPC   C3B38901  30.485  12.642   7.906
 2881POPC   C4B38902  30.292  12.893   7.589
 2882POPC   NC338903  16.386  27.863   9.558
 2882POPC   PO438904  15.971  28.474   9.608
 2882POPC   GL138905  15.932  28.319   9.167
 2882POPC   GL238906  16.162  28.034   9.076
 2882POPC   C1A38907  15.930  28.404   8.707
 2882POPC   D2A38908  15.722  28.281   8.286
 2882POPC   C3A38909  15.826  28.245   7.848
 2882POPC   C4A38910  15.914  28.240   7.409
 2882POPC   C1B38911  16.311  28.088   8.622
 2882POPC   C2B38912  16.161  28.003   8.183
 2882POPC   C3B38913  16.306  28.044   7.737
 2882POPC   C4B38914  16.420  28.210   7.322
 2883POPC   NC338915  35.555  30.853   9.419
 2883POPC   PO438916  35.111  30.384   9.485
 2883POPC   GL138917  35.378  30.445   9.140
 2883POPC   GL238918  35.138  30.698   9.031
 2883POPC   C1A38919  35.401  30.385   8.686
 2883POPC   D2A38920  35.193  30.728   8.480
 2883POPC   C3A38921  35.435  30.929   8.154
 2883POPC   C4A38922  35.427  31.086   7.751
 2883POPC   C1B38923  34.904  30.339   8.806
 2883POPC   C2B38924  34.958  30.282   8.357
 2883POPC   C3B38925  35.020  30.606   8.017
 2883POPC   C4B38926  34.841  30.768   7.657
 2884POPC   NC338927  25.647  23.434   9.502
 2884POPC   PO438928  26.340  23.705   9.524
 2884POPC   GL138929  26.114  23.482   9.247
 2884POPC   GL238930  25.889  23.735   9.145
 2884POPC   C1A38931  26.226  23.462   8.838
 2884POPC   D2A38932  26.392  23.728   8.510
 2884POPC   C3A38933  26.243  23.585   8.128
 2884POPC   C4A38934  26.266  23.597   7.721
 2884POPC   C1B38935  25.716  23.520   8.812
 2884POPC   C2B38936  25.885  23.386   8.425
 2884POPC   C3B38937  25.766  23.467   7.979
 2884POPC   C4B38938  25.629  23.646   7.606
 2885POPC   NC338939  34.864   9.474   9.433
 2885POPC   PO438940  35.397   9.934   9.584
 2885POPC   GL138941  35.367   9.741   9.176
 2885POPC   GL238942  35.095   9.900   9.014
 2885POPC   C1A38943  35.497   9.779   8.730
 2885POPC   D2A38944  35.452   9.518   8.384
 2885POPC   C3A38945  35.382   9.732   8.070
 2885POPC   C4A38946  35.421   9.561   7.697
 2885POPC   C1B38947  35.068   9.511   8.768
 2885POPC   C2B38948  34.953   9.472   8.328
 2885POPC   C3B38949  34.922   9.618   7.899
 2885POPC   C4B38950  35.036   9.845   7.527
 2886POPC   NC338951  28.202  13.725   9.410
 2886POPC   PO438952  28.342  13.101   9.397
 2886POPC   GL138953  28.305  13.361   9.076
 2886POPC   GL238954  28.616  13.593   9.107
 2886POPC   C1A38955  28.424  13.409   8.680
 2886POPC   D2A38956  28.650  13.305   8.339
 2886POPC   C3A38957  28.424  13.449   7.994
 2886POPC   C4A38958  28.149  13.733   7.729
 2886POPC   C1B38959  28.714  13.826   8.687
 2886POPC   C2B38960  28.662  13.869   8.207
 2886POPC   C3B38961  28.545  14.049   7.783
 2886POPC   C4B38962  28.652  14.007   7.305
 2887POPC   NC338963   1.841  32.261   9.611
 2887POPC   PO438964   2.284  31.908   9.122
 2887POPC   GL138965   2.049  32.279   9.120
 2887POPC   GL238966   1.677  32.317   9.134
 2887POPC   C1A38967   2.214  32.422   8.729
 2887POPC   D2A38968   2.387  32.082   8.449
 2887POPC   C3A38969   2.255  32.105   8.019
 2887POPC   C4A38970   2.159  32.319   7.618
 2887POPC   C1B38971   1.766  32.118   8.737
 2887POPC   C2B38972   1.873  32.310   8.349
 2887POPC   C3B38973   1.747  32.206   7.928
 2887POPC   C4B38974   1.692  32.188   7.484
 2888POPC   NC338975   6.974  14.122   9.500
 2888POPC   PO438976   6.478  14.566   9.394
 2888POPC   GL138977   6.622  14.297   9.076
 2888POPC   GL238978   6.965  14.404   9.057
 2888POPC   C1A38979   6.537  14.259   8.618
 2888POPC   D2A38980   6.359  14.539   8.324
 2888POPC   C3A38981   6.465  14.401   7.928
 2888POPC   C4A38982   6.281  14.447   7.530
 2888POPC   C1B38983   6.799  14.676   8.704
 2888POPC   C2B38984   6.840  14.658   8.237
 2888POPC   C3B38985   6.729  14.823   7.801
 2888POPC   C4B38986   6.876  14.889   7.357
 2889POPC   NC338987  13.492  26.822   9.486
 2889POPC   PO438988  14.076  26.465   9.445
 2889POPC   GL138989  13.866  26.725   9.060
 2889POPC   GL238990  13.617  27.014   9.039
 2889POPC   C1A38991  13.767  26.848   8.582
 2889POPC   D2A38992  13.795  27.105   8.188
 2889POPC   C3A38993  13.676  27.006   7.744
 2889POPC   C4A38994  13.608  26.786   7.348
 2889POPC   C1B38995  13.384  26.684   8.867
 2889POPC   C2B38996  13.227  26.623   8.494
 2889POPC   C3B38997  13.444  26.725   8.126
 2889POPC   C4B38998  13.393  26.568   7.747
 2890POPC   NC338999  13.912  25.328   9.738
 2890POPC   PO439000  13.435  25.477   9.264
 2890POPC   GL139001  13.394  25.215   8.917
 2890POPC   GL239002  13.570  24.892   8.912
 2890POPC   C1A39003  13.540  25.346   8.552
 2890POPC   D2A39004  13.667  25.199   8.191
 2890POPC   C3A39005  13.403  25.134   7.886
 2890POPC   C4A39006  13.568  25.293   7.515
 2890POPC   C1B39007  13.920  24.969   8.590
 2890POPC   C2B39008  14.125  25.012   8.185
 2890POPC   C3B39009  13.866  24.900   7.790
 2890POPC   C4B39010  13.951  25.025   7.340
 2891POPC   NC339011  28.990   7.642   9.511
 2891POPC   PO439012  29.423   7.191   9.730
 2891POPC   GL139013  29.335   7.103   9.215
 2891POPC   GL239014  29.217   7.423   9.069
 2891POPC   C1A39015  29.137   7.077   8.739
 2891POPC   D2A39016  29.070   7.386   8.394
 2891POPC   C3A39017  29.238   7.344   7.990
 2891POPC   C4A39018  29.203   7.397   7.588
 2891POPC   C1B39019  29.402   7.638   8.706
 2891POPC   C2B39020  29.458   7.707   8.269
 2891POPC   C3B39021  29.475   7.784   7.789
 2891POPC   C4B39022  29.502   7.758   7.311
 2892POPC   NC339023  27.921   3.592   9.526
 2892POPC   PO439024  27.293   3.800   9.488
 2892POPC   GL139025  27.557   3.702   9.154
 2892POPC   GL239026  27.812   3.944   9.158
 2892POPC   C1A39027  27.534   3.434   8.820
 2892POPC   D2A39028  27.454   3.266   8.423
 2892POPC   C3A39029  27.221   3.522   8.162
 2892POPC   C4A39030  27.459   3.594   7.801
 2892POPC   C1B39031  27.870   3.809   8.732
 2892POPC   C2B39032  27.777   3.648   8.313
 2892POPC   C3B39033  27.926   3.735   7.904
 2892POPC   C4B39034  28.232   3.831   7.589
 2893POPC   NC339035  38.232  34.438   9.501
 2893POPC   PO439036  38.894  34.688   9.511
 2893POPC   GL139037  38.682  34.449   9.239
 2893POPC   GL239038  38.442  34.731   9.129
 2893POPC   C1A39039  38.639  34.357   8.831
 2893POPC   D2A39040  38.483  34.593   8.454
 2893POPC   C3A39041  38.639  34.467   8.056
 2893POPC   C4A39042  38.470  34.260   7.715
 2893POPC   C1B39043  38.182  34.907   8.790
 2893POPC   C2B39044  38.131  34.978   8.364
 2893POPC   C3B39045  38.182  34.731   8.014
 2893POPC   C4B39046  38.442  34.802   7.676
 2894POPC   NC339047   0.182  15.178   9.404
 2894POPC   PO439048   0.793  15.524   9.389
 2894POPC   GL139049   0.483  15.503   9.083
 2894POPC   GL239050   0.564  15.156   9.065
 2894POPC   C1A39051   0.516  15.537   8.641
 2894POPC   D2A39052   0.830  15.488   8.327
 2894POPC   C3A39053   0.746  15.223   8.025
 2894POPC   C4A39054   0.467  15.208   7.768
 2894POPC   C1B39055   0.245  15.137   8.743
 2894POPC   C2B39056   0.368  15.121   8.335
 2894POPC   C3B39057   0.374  14.793   8.038
 2894POPC   C4B39058   0.222  14.780   7.581
 2895POPC   NC339059  31.273   6.149   9.544
 2895POPC   PO439060  31.652   5.609   9.379
 2895POPC   GL139061  31.691   5.840   9.049
 2895POPC   GL239062  31.493   6.066   9.093
 2895POPC   C1A39063  31.639   5.735   8.646
 2895POPC   D2A39064  31.706   5.992   8.326
 2895POPC   C3A39065  31.766   5.725   7.984
 2895POPC   C4A39066  31.579   5.999   7.695
 2895POPC   C1B39067  31.267   6.092   8.737
 2895POPC   C2B39068  31.190   5.828   8.382
 2895POPC   C3B39069  31.225   5.716   7.961
 2895POPC   C4B39070  31.001   5.963   7.661
 2896POPC   NC339071  23.709   8.744   9.784
 2896POPC   PO439072  23.281   8.658   9.209
 2896POPC   GL139073  23.429   8.960   8.906
 2896POPC   GL239074  23.616   9.250   9.096
 2896POPC   C1A39075  23.618   8.928   8.560
 2896POPC   D2A39076  23.513   9.094   8.212
 2896POPC   C3A39077  23.718   8.846   7.959
 2896POPC   C4A39078  23.644   8.660   7.608
 2896POPC   C1B39079  23.572   9.407   8.707
 2896POPC   C2B39080  23.783   9.506   8.348
 2896POPC   C3B39081  23.861   9.334   7.939
 2896POPC   C4B39082  23.717   9.203   7.558
 2897POPC   NC339083  35.650  24.876   9.522
 2897POPC   PO439084  35.159  25.349   9.500
 2897POPC   GL139085  35.345  25.124   9.162
 2897POPC   GL239086  35.449  25.445   9.073
 2897POPC   C1A39087  35.340  24.917   8.744
 2897POPC   D2A39088  35.183  24.886   8.312
 2897POPC   C3A39089  35.386  25.050   7.928
 2897POPC   C4A39090  35.328  25.330   7.561
 2897POPC   C1B39091  35.559  25.591   8.722
 2897POPC   C2B39092  35.455  25.351   8.381
 2897POPC   C3B39093  35.349  25.546   8.010
 2897POPC   C4B39094  35.643  25.733   7.707
 2898POPC   NC339095   4.005  26.585   9.750
 2898POPC   PO439096   3.588  26.063   9.709
 2898POPC   GL139097   3.496  26.004   9.256
 2898POPC   GL239098   3.728  25.778   9.165
 2898POPC   C1A39099   3.555  26.094   8.793
 2898POPC   D2A39100   3.331  26.034   8.389
 2898POPC   C3A39101   3.666  26.115   8.067
 2898POPC   C4A39102   3.849  26.231   7.659
 2898POPC   C1B39103   3.799  25.574   8.795
 2898POPC   C2B39104   3.658  25.646   8.407
 2898POPC   C3B39105   3.466  25.633   8.036
 2898POPC   C4B39106   3.517  25.846   7.646
 2899POPC   NC339107   5.605  23.019   9.398
 2899POPC   PO439108   6.327  23.041   9.511
 2899POPC   GL139109   6.047  23.202   9.172
 2899POPC   GL239110   6.044  22.847   9.091
 2899POPC   C1A39111   5.759  23.147   8.773
 2899POPC   D2A39112   5.811  22.918   8.381
 2899POPC   C3A39113   5.716  23.141   8.039
 2899POPC   C4A39114   5.848  23.179   7.651
 2899POPC   C1B39115   6.278  22.559   8.767
 2899POPC   C2B39116   6.383  22.483   8.321
 2899POPC   C3B39117   6.153  22.758   8.017
 2899POPC   C4B39118   6.009  22.714   7.575
 2900POPC   NC339119  18.366   3.289   9.512
 2900POPC   PO439120  18.586   2.567   9.468
 2900POPC   GL139121  18.391   2.870   9.167
 2900POPC   GL239122  18.527   3.151   9.043
 2900POPC   C1A39123  18.176   2.814   8.757
 2900POPC   D2A39124  18.360   2.641   8.364
 2900POPC   C3A39125  18.196   2.662   7.959
 2900POPC   C4A39126  18.320   2.704   7.535
 2900POPC   C1B39127  18.416   3.250   8.625
 2900POPC   C2B39128  18.274   3.138   8.200
 2900POPC   C3B39129  18.230   3.162   7.741
 2900POPC   C4B39130  18.380   3.165   7.276
 2901POPC   NC339131  22.749  34.796   9.322
 2901POPC   PO439132  23.207  34.397   9.624
 2901POPC   GL139133  23.092  34.422   9.208
 2901POPC   GL239134  22.763  34.298   9.263
 2901POPC   C1A39135  22.875  34.472   8.797
 2901POPC   D2A39136  22.691  34.657   8.467
 2901POPC   C3A39137  22.986  34.755   8.144
 2901POPC   C4A39138  22.992  34.637   7.707
 2901POPC   C1B39139  22.513  34.142   8.912
 2901POPC   C2B39140  22.690  34.067   8.491
 2901POPC   C3B39141  22.741  34.293   8.102
 2901POPC   C4B39142  22.545  34.321   7.720
 2902POPC   NC339143  42.000  15.760   9.421
 2902POPC   PO439144  42.631  16.070   9.386
 2902POPC   GL139145  42.295  16.059   9.128
 2902POPC   GL239146  42.064  16.303   9.278
 2902POPC   C1A39147  42.230  15.860   8.712
 2902POPC   D2A39148  42.517  15.887   8.395
 2902POPC   C3A39149  42.369  15.732   8.031
 2902POPC   C4A39150  42.219  15.913   7.687
 2902POPC   C1B39151  42.025  16.358   8.825
 2902POPC   C2B39152  42.287  16.394   8.466
 2902POPC   C3B39153  42.315  16.262   8.070
 2902POPC   C4B39154  42.121  16.405   7.731
 2903POPC   NC339155  24.265  39.299   9.469
 2903POPC   PO439156  24.606  38.661   9.566
 2903POPC   GL139157  24.417  38.878   9.210
 2903POPC   GL239158  24.680  39.157   9.164
 2903POPC   C1A39159  24.386  38.936   8.765
 2903POPC   D2A39160  24.251  38.982   8.336
 2903POPC   C3A39161  24.424  39.298   8.056
 2903POPC   C4A39162  24.225  39.479   7.711
 2903POPC   C1B39163  24.654  39.409   8.771
 2903POPC   C2B39164  24.805  39.518   8.345
 2903POPC   C3B39165  24.747  39.685   7.928
 2903POPC   C4B39166  24.709  39.426   7.587
 2904POPC   NC339167  30.265  36.644   9.680
 2904POPC   PO439168  30.816  37.070   9.540
 2904POPC   GL139169  30.797  36.818   9.100
 2904POPC   GL239170  30.454  36.591   9.083
 2904POPC   C1A39171  30.770  36.940   8.654
 2904POPC   D2A39172  30.456  37.038   8.315
 2904POPC   C3A39173  30.660  37.139   7.929
 2904POPC   C4A39174  31.074  37.196   7.734
 2904POPC   C1B39175  30.322  36.723   8.708
 2904POPC   C2B39176  30.519  36.525   8.356
 2904POPC   C3B39177  30.564  36.638   7.938
 2904POPC   C4B39178  30.933  36.689   7.705
 2905POPC   NC339179  25.945  10.348   5.391
 2905POPC   PO439180  26.300  10.810   5.156
 2905POPC   GL139181  26.154  10.758   5.686
 2905POPC   GL239182  26.137  10.406   5.858
 2905POPC   C1A39183  26.050  10.727   6.219
 2905POPC   D2A39184  26.056  10.502   6.665
 2905POPC   C3A39185  25.854  10.727   7.047
 2905POPC   C4A39186  25.905  10.781   7.554
 2905POPC   C1B39187  25.879  10.172   6.192
 2905POPC   C2B39188  25.839  10.015   6.631
 2905POPC   C3B39189  25.787  10.235   7.024
 2905POPC   C4B39190  26.186  10.453   7.287
 2906POPC   NC339191  32.326  43.374   5.351
 2906POPC   PO439192  32.670  42.792   5.263
 2906POPC   GL139193  32.500  43.003   5.681
 2906POPC   GL239194  32.132  43.082   5.759
 2906POPC   C1A39195  32.476  43.028   6.164
 2906POPC   D2A39196  32.219  42.817   6.518
 2906POPC   C3A39197  32.364  42.711   6.956
 2906POPC   C4A39198  32.598  43.050   7.173
 2906POPC   C1B39199  32.014  43.305   6.163
 2906POPC   C2B39200  31.729  43.393   6.532
 2906POPC   C3B39201  31.870  43.488   6.944
 2906POPC   C4B39202  32.097  43.141   7.130
 2907POPC   NC339203   6.049  39.521   5.105
 2907POPC   PO439204   5.620  39.096   5.448
 2907POPC   GL139205   5.846  39.213   5.789
 2907POPC   GL239206   6.134  39.415   5.683
 2907POPC   C1A39207   5.894  39.375   6.199
 2907POPC   D2A39208   5.703  39.211   6.549
 2907POPC   C3A39209   5.897  39.310   6.920
 2907POPC   C4A39210   5.742  39.192   7.319
 2907POPC   C1B39211   6.299  39.090   6.020
 2907POPC   C2B39212   6.172  38.993   6.453
 2907POPC   C3B39213   6.082  38.849   6.872
 2907POPC   C4B39214   6.202  38.998   7.266
 2908POPC   NC339215  10.379  35.155   5.456
 2908POPC   PO439216  10.440  34.507   5.433
 2908POPC   GL139217  10.585  34.452   5.828
 2908POPC   GL239218  10.529  34.797   5.885
 2908POPC   C1A39219  10.667  34.293   6.247
 2908POPC   D2A39220  10.477  34.311   6.674
 2908POPC   C3A39221  10.694  34.410   7.061
 2908POPC   C4A39222  10.613  34.570   7.469
 2908POPC   C1B39223  10.709  34.809   6.290
 2908POPC   C2B39224  10.699  34.988   6.704
 2908POPC   C3B39225  10.637  34.965   7.154
 2908POPC   C4B39226  10.956  34.920   7.510
 2909POPC   NC339227  35.330  43.672   5.595
 2909POPC   PO439228  35.617  44.036   5.131
 2909POPC   GL139229  35.681  44.033   5.649
 2909POPC   GL239230  35.387  44.145   5.839
 2909POPC   C1A39231  35.652  43.837   6.145
 2909POPC   D2A39232  35.400  43.655   6.501
 2909POPC   C3A39233  35.548  43.822   6.886
 2909POPC   C4A39234  35.526  43.969   7.319
 2909POPC   C1B39235  35.156  44.034   6.236
 2909POPC   C2B39236  34.900  44.060   6.633
 2909POPC   C3B39237  35.074  43.933   7.041
 2909POPC   C4B39238  35.072  44.123   7.485
 2910POPC   NC339239  42.243  37.379   5.162
 2910POPC   PO439240  42.489  38.044   5.250
 2910POPC   GL139241  42.520  37.796   5.647
 2910POPC   GL239242  42.170  37.798   5.680
 2910POPC   C1A39243  42.599  37.672   6.110
 2910POPC   D2A39244  42.586  37.274   6.399
 2910POPC   C3A39245  42.595  37.388   6.847
 2910POPC   C4A39246  42.346  37.473   7.214
 2910POPC   C1B39247  42.071  37.797   6.131
 2910POPC   C2B39248  41.930  37.946   6.524
 2910POPC   C3B39249  42.120  37.799   6.870
 2910POPC   C4B39250  41.986  37.833   7.263
 2911POPC   NC339251   3.707  40.264   5.414
 2911POPC   PO439252   3.090  40.118   5.349
 2911POPC   GL139253   3.365  40.040   5.729
 2911POPC   GL239254   3.616  40.266   5.920
 2911POPC   C1A39255   3.346  39.898   6.153
 2911POPC   D2A39256   3.452  40.094   6.522
 2911POPC   C3A39257   3.293  40.015   6.935
 2911POPC   C4A39258   3.401  39.685   7.230
 2911POPC   C1B39259   3.866  40.294   6.298
 2911POPC   C2B39260   4.097  40.336   6.676
 2911POPC   C3B39261   3.804  40.162   6.918
 2911POPC   C4B39262   3.690  40.085   7.296
 2912POPC   NC339263  30.233  21.981   5.085
 2912POPC   PO439264  29.731  22.261   5.235
 2912POPC   GL139265  29.729  22.102   5.693
 2912POPC   GL239266  29.840  22.414   5.769
 2912POPC   C1A39267  29.978  22.093   6.128
 2912POPC   D2A39268  29.886  21.951   6.563
 2912POPC   C3A39269  30.179  22.001   6.918
 2912POPC   C4A39270  29.963  21.961   7.335
 2912POPC   C1B39271  29.556  22.364   6.136
 2912POPC   C2B39272  29.689  22.419   6.545
 2912POPC   C3B39273  29.732  22.258   6.983
 2912POPC   C4B39274  29.975  22.470   7.316
 2913POPC   NC339275  33.190  23.635   5.366
 2913POPC   PO439276  32.685  23.967   5.659
 2913POPC   GL139277  33.058  23.851   5.852
 2913POPC   GL239278  32.950  23.505   5.820
 2913POPC   C1A39279  33.209  23.958   6.292
 2913POPC   D2A39280  32.988  24.039   6.719
 2913POPC   C3A39281  33.174  23.960   7.141
 2913POPC   C4A39282  33.137  24.162   7.536
 2913POPC   C1B39283  32.806  23.627   6.252
 2913POPC   C2B39284  32.795  23.551   6.688
 2913POPC   C3B39285  32.696  23.751   7.064
 2913POPC   C4B39286  32.886  23.559   7.374
 2914POPC   NC339287   6.148   7.442   5.421
 2914POPC   PO439288   6.029   7.992   5.730
 2914POPC   GL139289   6.009   7.564   5.927
 2914POPC   GL239290   6.210   7.221   5.861
 2914POPC   C1A39291   5.736   7.543   6.298
 2914POPC   D2A39292   5.511   7.486   6.681
 2914POPC   C3A39293   5.654   7.697   7.039
 2914POPC   C4A39294   5.442   7.946   7.341
 2914POPC   C1B39295   5.915   7.088   6.163
 2914POPC   C2B39296   5.922   7.180   6.627
 2914POPC   C3B39297   5.727   7.182   7.053
 2914POPC   C4B39298   5.554   7.387   7.438
 2915POPC   NC339299  18.556  18.308   5.459
 2915POPC   PO439300  17.946  17.911   5.509
 2915POPC   GL139301  18.231  18.150   5.875
 2915POPC   GL239302  18.416  18.482   5.925
 2915POPC   C1A39303  18.209  18.215   6.311
 2915POPC   D2A39304  18.408  18.264   6.713
 2915POPC   C3A39305  18.240  18.411   7.068
 2915POPC   C4A39306  17.890  18.186   7.144
 2915POPC   C1B39307  18.705  18.244   6.240
 2915POPC   C2B39308  18.826  18.011   6.618
 2915POPC   C3B39309  18.672  17.947   7.049
 2915POPC   C4B39310  18.614  18.203   7.403
 2916POPC   NC339311  38.993  13.415   5.207
 2916POPC   PO439312  39.282  14.022   5.079
 2916POPC   GL139313  39.194  13.804   5.542
 2916POPC   GL239314  39.261  13.467   5.726
 2916POPC   C1A39315  39.144  13.842   6.037
 2916POPC   D2A39316  39.234  13.684   6.466
 2916POPC   C3A39317  39.062  13.614   6.883
 2916POPC   C4A39318  39.240  13.800   7.252
 2916POPC   C1B39319  39.267  13.264   6.170
 2916POPC   C2B39320  39.360  13.235   6.659
 2916POPC   C3B39321  39.415  13.206   7.146
 2916POPC   C4B39322  39.766  13.109   7.447
 2917POPC   NC339323  21.904  24.463   5.183
 2917POPC   PO439324  22.332  24.843   5.512
 2917POPC   GL139325  22.120  24.495   5.668
 2917POPC   GL239326  21.836  24.679   5.625
 2917POPC   C1A39327  22.166  24.378   6.112
 2917POPC   D2A39328  22.452  24.479   6.498
 2917POPC   C3A39329  22.314  24.365   6.911
 2917POPC   C4A39330  22.249  24.596   7.256
 2917POPC   C1B39331  21.901  24.825   6.057
 2917POPC   C2B39332  21.989  24.696   6.500
 2917POPC   C3B39333  21.821  24.635   6.909
 2917POPC   C4B39334  21.849  24.264   7.147
 2918POPC   NC339335   3.082  34.364   5.470
 2918POPC   PO439336   2.453  34.430   5.240
 2918POPC   GL139337   2.604  34.656   5.676
 2918POPC   GL239338   2.943  34.733   5.828
 2918POPC   C1A39339   2.602  34.583   6.164
 2918POPC   D2A39340   2.533  34.367   6.583
 2918POPC   C3A39341   2.610  34.589   6.988
 2918POPC   C4A39342   2.714  34.540   7.454
 2918POPC   C1B39343   3.128  34.576   6.235
 2918POPC   C2B39344   3.028  34.595   6.681
 2918POPC   C3B39345   3.101  34.630   7.129
 2918POPC   C4B39346   3.131  34.822   7.577
 2919POPC   NC339347   2.953  16.518   5.296
 2919POPC   PO439348   2.839  17.159   5.349
 2919POPC   GL139349   2.971  16.854   5.671
 2919POPC   GL239350   2.650  16.883   5.849
 2919POPC   C1A39351   3.082  16.596   6.040
 2919POPC   D2A39352   2.808  16.620   6.402
 2919POPC   C3A39353   2.905  16.565   6.846
 2919POPC   C4A39354   2.599  16.573   7.210
 2919POPC   C1B39355   2.441  17.052   6.248
 2919POPC   C2B39356   2.489  17.284   6.677
 2919POPC   C3B39357   2.433  17.072   7.109
 2919POPC   C4B39358   2.623  17.067   7.564
 2920POPC   NC339359  36.885  36.397   5.351
 2920POPC   PO439360  37.211  35.853   5.336
 2920POPC   GL139361  37.006  36.019   5.694
 2920POPC   GL239362  36.827  35.734   5.751
 2920POPC   C1A39363  36.887  36.093   6.133
 2920POPC   D2A39364  37.052  36.030   6.544
 2920POPC   C3A39365  36.892  36.235   6.896
 2920POPC   C4A39366  37.188  36.490   7.071
 2920POPC   C1B39367  36.590  35.666   6.111
 2920POPC   C2B39368  36.514  35.883   6.475
 2920POPC   C3B39369  36.494  35.788   6.899
 2920POPC   C4B39370  36.618  35.999   7.256
 2921POPC   NC339371  42.642  17.186   5.405
 2921POPC   PO439372  43.289  17.447   5.466
 2921POPC   GL139373  43.056  17.464   5.816
 2921POPC   GL239374  42.779  17.650   5.720
 2921POPC   C1A39375  43.079  17.648   6.226
 2921POPC   D2A39376  43.397  17.766   6.533
 2921POPC   C3A39377  43.218  17.690   6.913
 2921POPC   C4A39378  43.423  17.734   7.287
 2921POPC   C1B39379  42.624  17.367   6.068
 2921POPC   C2B39380  42.754  17.334   6.482
 2921POPC   C3B39381  42.650  17.348   6.886
 2921POPC   C4B39382  42.887  17.427   7.233
 2922POPC   NC339383  42.368   5.822   4.885
 2922POPC   PO439384  42.723   5.954   5.458
 2922POPC   GL139385  42.630   6.279   5.725
 2922POPC   GL239386  42.287   6.239   5.723
 2922POPC   C1A39387  42.531   6.262   6.153
 2922POPC   D2A39388  42.588   6.001   6.481
 2922POPC   C3A39389  42.408   6.002   6.855
 2922POPC   C4A39390  42.479   5.862   7.233
 2922POPC   C1B39391  42.334   5.833   6.006
 2922POPC   C2B39392  42.254   5.622   6.439
 2922POPC   C3B39393  42.176   5.551   6.896
 2922POPC   C4B39394  42.043   5.635   7.335
 2923POPC   NC339395  26.585  36.855   5.385
 2923POPC   PO439396  27.129  36.669   5.662
 2923POPC   GL139397  26.774  36.691   5.886
 2923POPC   GL239398  26.707  37.024   5.853
 2923POPC   C1A39399  26.724  36.761   6.319
 2923POPC   D2A39400  26.632  36.913   6.722
 2923POPC   C3A39401  26.803  36.684   7.036
 2923POPC   C4A39402  27.171  36.570   7.253
 2923POPC   C1B39403  27.014  37.150   6.165
 2923POPC   C2B39404  27.176  36.959   6.541
 2923POPC   C3B39405  27.160  37.040   6.978
 2923POPC   C4B39406  26.785  37.281   7.054
 2924POPC   NC339407  32.936  14.864   5.478
 2924POPC   PO439408  33.276  15.468   5.803
 2924POPC   GL139409  33.031  15.149   5.881
 2924POPC   GL239410  33.310  14.921   5.838
 2924POPC   C1A39411  32.725  15.000   6.183
 2924POPC   D2A39412  32.571  15.111   6.601
 2924POPC   C3A39413  32.876  15.079   6.919
 2924POPC   C4A39414  32.954  15.435   7.181
 2924POPC   C1B39415  33.265  15.007   6.312
 2924POPC   C2B39416  33.256  15.317   6.677
 2924POPC   C3B39417  33.357  15.110   7.076
 2924POPC   C4B39418  33.196  14.710   7.214
 2925POPC   NC339419  34.046   9.393   5.454
 2925POPC   PO439420  33.638   9.851   5.168
 2925POPC   GL139421  33.662   9.732   5.627
 2925POPC   GL239422  33.436   9.962   5.750
 2925POPC   C1A39423  33.867   9.886   6.044
 2925POPC   D2A39424  34.043   9.787   6.463
 2925POPC   C3A39425  33.929   9.949   6.869
 2925POPC   C4A39426  33.725   9.609   7.059
 2925POPC   C1B39427  33.392  10.082   6.180
 2925POPC   C2B39428  33.514   9.892   6.562
 2925POPC   C3B39429  33.408  10.001   6.982
 2925POPC   C4B39430  33.614  10.079   7.366
 2926POPC   NC339431  33.471  17.076   5.410
 2926POPC   PO439432  33.649  17.628   5.235
 2926POPC   GL139433  33.791  17.529   5.667
 2926POPC   GL239434  33.984  17.774   5.881
 2926POPC   C1A39435  33.749  17.402   6.132
 2926POPC   D2A39436  33.829  17.150   6.527
 2926POPC   C3A39437  33.816  17.335   6.958
 2926POPC   C4A39438  33.661  17.676   7.173
 2926POPC   C1B39439  34.213  17.653   6.222
 2926POPC   C2B39440  34.012  17.668   6.588
 2926POPC   C3B39441  34.065  17.902   6.926
 2926POPC   C4B39442  34.164  17.725   7.296
 2927POPC   NC339443  11.714  38.483   5.515
 2927POPC   PO439444  12.310  38.167   5.453
 2927POPC   GL139445  12.196  38.481   5.758
 2927POPC   GL239446  12.098  38.826   5.691
 2927POPC   C1A39447  12.216  38.601   6.170
 2927POPC   D2A39448  12.062  38.471   6.517
 2927POPC   C3A39449  12.215  38.629   6.862
 2927POPC   C4A39450  12.028  38.558   7.229
 2927POPC   C1B39451  11.805  38.876   6.049
 2927POPC   C2B39452  11.584  38.759   6.443
 2927POPC   C3B39453  11.694  38.590   6.843
 2927POPC   C4B39454  11.595  38.805   7.211
 2928POPC   NC339455  24.601  15.552   5.248
 2928POPC   PO439456  24.323  14.902   5.391
 2928POPC   GL139457  24.532  15.090   5.704
 2928POPC   GL239458  24.304  15.322   5.741
 2928POPC   C1A39459  24.550  14.954   6.128
 2928POPC   D2A39460  24.505  14.979   6.580
 2928POPC   C3A39461  24.698  15.181   6.948
 2928POPC   C4A39462  24.748  15.109   7.420
 2928POPC   C1B39463  24.130  15.261   6.119
 2928POPC   C2B39464  24.082  15.389   6.526
 2928POPC   C3B39465  24.106  15.115   6.871
 2928POPC   C4B39466  24.284  15.182   7.235
 2929POPC   NC339467  42.977  42.964   5.447
 2929POPC   PO439468  43.611  43.158   5.115
 2929POPC   GL139469  43.351  43.232   5.635
 2929POPC   GL239470  42.946  43.215   5.862
 2929POPC   C1A39471  43.352  43.235   6.138
 2929POPC   D2A39472  43.183  43.056   6.533
 2929POPC   C3A39473  43.340  43.179   6.960
 2929POPC   C4A39474  43.317  43.561   7.190
 2929POPC   C1B39475  42.809  42.892   6.146
 2929POPC   C2B39476  42.713  42.803   6.569
 2929POPC   C3B39477  42.962  42.825   6.943
 2929POPC   C4B39478  43.046  42.938   7.379
 2930POPC   NC339479  38.626  39.396   5.494
 2930POPC   PO439480  38.109  38.992   5.511
 2930POPC   GL139481  38.449  39.059   5.860
 2930POPC   GL239482  38.480  39.408   5.970
 2930POPC   C1A39483  38.662  39.067   6.281
 2930POPC   D2A39484  38.530  39.357   6.599
 2930POPC   C3A39485  38.411  39.241   7.028
 2930POPC   C4A39486  38.475  39.111   7.445
 2930POPC   C1B39487  38.834  39.558   6.194
 2930POPC   C2B39488  39.022  39.636   6.571
 2930POPC   C3B39489  38.882  39.513   6.953
 2930POPC   C4B39490  38.765  39.588   7.372
 2931POPC   NC339491  33.593  35.435   5.470
 2931POPC   PO439492  34.032  34.945   5.208
 2931POPC   GL139493  33.951  35.046   5.636
 2931POPC   GL239494  34.221  35.249   5.804
 2931POPC   C1A39495  33.800  35.110   6.072
 2931POPC   D2A39496  33.936  35.031   6.490
 2931POPC   C3A39497  33.815  35.205   6.880
 2931POPC   C4A39498  34.018  35.128   7.264
 2931POPC   C1B39499  34.161  35.448   6.240
 2931POPC   C2B39500  34.086  35.622   6.661
 2931POPC   C3B39501  34.017  35.614   7.112
 2931POPC   C4B39502  34.078  35.914   7.405
 2932POPC   NC339503  38.262  42.040   5.456
 2932POPC   PO439504  38.656  42.600   5.386
 2932POPC   GL139505  38.484  42.507   5.778
 2932POPC   GL239506  38.583  42.145   5.830
 2932POPC   C1A39507  38.486  42.695   6.209
 2932POPC   D2A39508  38.249  42.718   6.580
 2932POPC   C3A39509  38.330  42.493   6.991
 2932POPC   C4A39510  38.296  42.385   7.444
 2932POPC   C1B39511  38.285  42.231   6.160
 2932POPC   C2B39512  38.431  42.210   6.550
 2932POPC   C3B39513  38.361  41.967   6.895
 2932POPC   C4B39514  38.052  42.038   7.187
 2933POPC   NC339515  22.733  19.199   5.534
 2933POPC   PO439516  22.825  18.516   5.604
 2933POPC   GL139517  22.843  18.888   5.912
 2933POPC   GL239518  23.066  19.232   5.903
 2933POPC   C1A39519  22.989  18.924   6.323
 2933POPC   D2A39520  23.138  18.558   6.572
 2933POPC   C3A39521  23.211  18.720   6.981
 2933POPC   C4A39522  23.052  19.054   7.243
 2933POPC   C1B39523  22.778  19.388   6.204
 2933POPC   C2B39524  22.666  19.239   6.599
 2933POPC   C3B39525  22.688  19.324   7.013
 2933POPC   C4B39526  22.560  19.116   7.397
 2934POPC   NC339527  19.526  34.052   5.601
 2934POPC   PO439528  19.756  33.512   5.352
 2934POPC   GL139529  19.666  33.526   5.830
 2934POPC   GL239530  19.785  33.833   5.971
 2934POPC   C1A39531  19.842  33.445   6.277
 2934POPC   D2A39532  20.030  33.663   6.636
 2934POPC   C3A39533  19.901  33.590   7.061
 2934POPC   C4A39534  19.935  33.385   7.469
 2934POPC   C1B39535  19.743  34.017   6.381
 2934POPC   C2B39536  19.520  34.173   6.740
 2934POPC   C3B39537  19.534  34.296   7.183
 2934POPC   C4B39538  19.933  34.260   7.345
 2935POPC   NC339539  25.019  35.046   5.290
 2935POPC   PO439540  25.235  34.422   5.383
 2935POPC   GL139541  25.147  34.696   5.739
 2935POPC   GL239542  25.491  34.761   5.839
 2935POPC   C1A39543  25.122  34.848   6.202
 2935POPC   D2A39544  25.250  34.686   6.615
 2935POPC   C3A39545  24.993  34.606   7.003
 2935POPC   C4A39546  24.957  34.268   7.334
 2935POPC   C1B39547  25.675  34.722   6.249
 2935POPC   C2B39548  25.691  34.935   6.647
 2935POPC   C3B39549  25.469  34.852   7.054
 2935POPC   C4B39550  25.365  34.557   7.390
 2936POPC   NC339551  25.047  18.227   5.661
 2936POPC   PO439552  25.655  18.343   5.507
 2936POPC   GL139553  25.487  18.347   5.958
 2936POPC   GL239554  25.231  18.583   5.995
 2936POPC   C1A39555  25.301  18.302   6.410
 2936POPC   D2A39556  24.922  18.174   6.663
 2936POPC   C3A39557  24.976  17.961   6.990
 2936POPC   C4A39558  25.336  17.949   7.158
 2936POPC   C1B39559  25.391  18.826   6.324
 2936POPC   C2B39560  25.271  18.768   6.729
 2936POPC   C3B39561  25.284  18.424   6.974
 2936POPC   C4B39562  25.577  18.360   7.318
 2937POPC   NC339563  22.990   1.635   5.151
 2937POPC   PO439564  22.873   1.077   5.538
 2937POPC   GL139565  22.825   1.200   5.893
 2937POPC   GL239566  23.116   1.404   5.865
 2937POPC   C1A39567  22.646   1.012   6.277
 2937POPC   D2A39568  22.817   1.112   6.685
 2937POPC   C3A39569  22.618   1.027   7.068
 2937POPC   C4A39570  22.811   1.127   7.473
 2937POPC   C1B39571  22.952   1.446   6.301
 2937POPC   C2B39572  23.205   1.434   6.629
 2937POPC   C3B39573  23.407   1.247   6.953
 2937POPC   C4B39574  23.294   1.268   7.361
 2938POPC   NC339575  37.244  32.359   5.437
 2938POPC   PO439576  36.542  32.365   5.445
 2938POPC   GL139577  36.862  32.344   5.784
 2938POPC   GL239578  37.082  32.039   5.801
 2938POPC   C1A39579  36.946  32.450   6.210
 2938POPC   D2A39580  36.968  32.259   6.612
 2938POPC   C3A39581  36.698  32.321   6.956
 2938POPC   C4A39582  36.853  32.288   7.355
 2938POPC   C1B39583  37.029  31.900   6.226
 2938POPC   C2B39584  37.303  31.879   6.602
 2938POPC   C3B39585  37.196  32.028   7.027
 2938POPC   C4B39586  37.071  31.794   7.372
 2939POPC   NC339587  34.851  26.339   5.304
 2939POPC   PO439588  34.274  25.887   5.470
 2939POPC   GL139589  34.685  26.008   5.702
 2939POPC   GL239590  34.790  26.342   5.817
 2939POPC   C1A39591  34.834  25.922   6.117
 2939POPC   D2A39592  34.610  25.930   6.488
 2939POPC   C3A39593  34.823  25.837   6.841
 2939POPC   C4A39594  34.712  25.904   7.245
 2939POPC   C1B39595  34.734  26.414   6.279
 2939POPC   C2B39596  34.785  26.364   6.733
 2939POPC   C3B39597  34.498  26.474   7.068
 2939POPC   C4B39598  34.408  26.259   7.447
 2940POPC   NC339599  33.666  15.543   5.550
 2940POPC   PO439600  33.556  14.862   5.314
 2940POPC   GL139601  33.785  15.040   5.719
 2940POPC   GL239602  34.041  15.288   5.756
 2940POPC   C1A39603  33.757  15.194   6.163
 2940POPC   D2A39604  33.719  15.145   6.595
 2940POPC   C3A39605  33.719  15.460   6.931
 2940POPC   C4A39606  33.798  15.225   7.312
 2940POPC   C1B39607  34.244  15.363   6.145
 2940POPC   C2B39608  34.239  15.193   6.526
 2940POPC   C3B39609  34.110  15.127   6.932
 2940POPC   C4B39610  34.254  15.406   7.271
 2941POPC   NC339611   4.102   1.869   5.491
 2941POPC   PO439612   4.760   2.089   5.331
 2941POPC   GL139613   4.502   2.060   5.735
 2941POPC   GL239614   4.239   2.285   5.883
 2941POPC   C1A39615   4.581   1.897   6.143
 2941POPC   D2A39616   4.679   2.120   6.510
 2941POPC   C3A39617   4.444   2.028   6.859
 2941POPC   C4A39618   4.531   2.055   7.289
 2941POPC   C1B39619   4.085   1.991   6.214
 2941POPC   C2B39620   3.952   2.059   6.661
 2941POPC   C3B39621   4.023   2.094   7.156
 2941POPC   C4B39622   4.120   1.872   7.546
 2942POPC   NC339623   5.258  20.847   5.369
 2942POPC   PO439624   4.708  20.456   5.451
 2942POPC   GL139625   4.972  20.628   5.756
 2942POPC   GL239626   5.358  20.615   5.806
 2942POPC   C1A39627   4.900  20.700   6.173
 2942POPC   D2A39628   5.024  20.514   6.546
 2942POPC   C3A39629   4.817  20.666   6.910
 2942POPC   C4A39630   4.902  20.423   7.271
 2942POPC   C1B39631   5.412  20.649   6.237
 2942POPC   C2B39632   5.567  20.573   6.633
 2942POPC   C3B39633   5.312  20.595   6.989
 2942POPC   C4B39634   5.175  20.929   7.239
 2943POPC   NC339635  33.299  17.880   5.063
 2943POPC   PO439636  33.296  18.428   5.411
 2943POPC   GL139637  33.068  18.247   5.787
 2943POPC   GL239638  32.870  17.918   5.742
 2943POPC   C1A39639  32.899  18.359   6.231
 2943POPC   D2A39640  32.612  18.552   6.583
 2943POPC   C3A39641  32.744  18.580   7.003
 2943POPC   C4A39642  33.133  18.390   7.081
 2943POPC   C1B39643  33.041  17.849   6.175
 2943POPC   C2B39644  33.168  17.800   6.660
 2943POPC   C3B39645  33.097  17.867   7.136
 2943POPC   C4B39646  32.924  17.923   7.591
 2944POPC   NC339647  21.413  18.200   5.327
 2944POPC   PO439648  21.369  18.762   5.357
 2944POPC   GL139649  21.578  18.542   5.736
 2944POPC   GL239650  21.545  18.163   5.812
 2944POPC   C1A39651  21.535  18.540   6.181
 2944POPC   D2A39652  21.284  18.498   6.506
 2944POPC   C3A39653  21.439  18.469   6.875
 2944POPC   C4A39654  21.385  18.520   7.267
 2944POPC   C1B39655  21.563  17.947   6.189
 2944POPC   C2B39656  21.412  18.014   6.572
 2944POPC   C3B39657  21.557  17.958   6.958
 2944POPC   C4B39658  21.797  18.238   7.184
 2945POPC   NC339659  31.975  32.491   5.295
 2945POPC   PO439660  31.357  32.149   5.249
 2945POPC   GL139661  31.349  32.001   5.722
 2945POPC   GL239662  31.705  31.902   5.846
 2945POPC   C1A39663  31.198  32.151   6.179
 2945POPC   D2A39664  31.262  32.076   6.649
 2945POPC   C3A39665  31.227  32.319   7.038
 2945POPC   C4A39666  31.325  32.451   7.482
 2945POPC   C1B39667  31.648  31.937   6.314
 2945POPC   C2B39668  31.743  31.960   6.782
 2945POPC   C3B39669  31.631  31.946   7.242
 2945POPC   C4B39670  31.754  31.797   7.667
 2946POPC   NC339671  40.333  30.912   5.531
 2946POPC   PO439672  39.853  30.484   5.316
 2946POPC   GL139673  39.905  30.666   5.709
 2946POPC   GL239674  40.054  30.352   5.829
 2946POPC   C1A39675  39.907  31.004   6.045
 2946POPC   D2A39676  40.024  31.075   6.479
 2946POPC   C3A39677  39.873  30.987   6.898
 2946POPC   C4A39678  40.003  30.951   7.332
 2946POPC   C1B39679  40.090  30.578   6.228
 2946POPC   C2B39680  40.165  30.594   6.678
 2946POPC   C3B39681  39.847  30.486   7.006
 2946POPC   C4B39682  39.859  30.431   7.446
 2947POPC   NC339683  24.895  37.967   5.769
 2947POPC   PO439684  25.170  38.405   5.361
 2947POPC   GL139685  25.191  38.397   5.778
 2947POPC   GL239686  25.541  38.298   5.838
 2947POPC   C1A39687  24.995  38.476   6.170
 2947POPC   D2A39688  25.184  38.481   6.562
 2947POPC   C3A39689  25.161  38.604   6.960
 2947POPC   C4A39690  25.547  38.753   7.099
 2947POPC   C1B39691  25.365  38.124   6.236
 2947POPC   C2B39692  25.378  38.004   6.679
 2947POPC   C3B39693  25.310  38.128   7.100
 2947POPC   C4B39694  24.862  38.210   7.145
 2948POPC   NC339695  31.193   7.406   5.019
 2948POPC   PO439696  31.509   7.491   5.568
 2948POPC   GL139697  31.456   7.348   5.933
 2948POPC   GL239698  31.111   7.481   5.974
 2948POPC   C1A39699  31.638   7.558   6.279
 2948POPC   D2A39700  31.573   7.379   6.656
 2948POPC   C3A39701  31.262   7.586   6.908
 2948POPC   C4A39702  31.402   7.471   7.282
 2948POPC   C1B39703  31.065   7.088   6.187
 2948POPC   C2B39704  31.069   7.196   6.598
 2948POPC   C3B39705  31.247   7.065   6.942
 2948POPC   C4B39706  31.048   7.087   7.269
 2949POPC   NC339707  23.369  39.110   4.992
 2949POPC   PO439708  23.865  39.425   5.414
 2949POPC   GL139709  23.875  39.178   5.743
 2949POPC   GL239710  23.533  39.104   5.791
 2949POPC   C1A39711  23.899  39.188   6.164
 2949POPC   D2A39712  23.982  39.467   6.465
 2949POPC   C3A39713  23.945  39.339   6.874
 2949POPC   C4A39714  23.779  39.514   7.217
 2949POPC   C1B39715  23.391  39.111   6.219
 2949POPC   C2B39716  23.323  38.982   6.671
 2949POPC   C3B39717  23.515  39.086   7.060
 2949POPC   C4B39718  23.398  39.211   7.453
 2950POPC   NC339719   7.255  34.718   5.499
 2950POPC   PO439720   7.738  34.248   5.530
 2950POPC   GL139721   7.601  34.548   5.840
 2950POPC   GL239722   7.259  34.397   5.904
 2950POPC   C1A39723   7.491  34.758   6.260
 2950POPC   D2A39724   7.432  34.739   6.729
 2950POPC   C3A39725   7.342  34.762   7.189
 2950POPC   C4A39726   7.624  34.686   7.534
 2950POPC   C1B39727   7.573  34.233   6.228
 2950POPC   C2B39728   7.491  34.199   6.652
 2950POPC   C3B39729   7.372  34.280   7.043
 2950POPC   C4B39730   7.303  34.299   7.491
 2951POPC   NC339731  38.821  29.387   5.412
 2951POPC   PO439732  39.365  28.967   5.494
 2951POPC   GL139733  39.123  29.126   5.777
 2951POPC   GL239734  39.209  29.461   5.810
 2951POPC   C1A39735  39.263  29.069   6.179
 2951POPC   D2A39736  39.473  28.851   6.482
 2951POPC   C3A39737  39.249  28.883   6.860
 2951POPC   C4A39738  39.065  29.030   7.211
 2951POPC   C1B39739  39.259  29.566   6.225
 2951POPC   C2B39740  39.227  29.339   6.604
 2951POPC   C3B39741  39.204  29.466   6.970
 2951POPC   C4B39742  38.965  29.550   7.306
 2952POPC   NC339743   3.506  29.047   5.097
 2952POPC   PO439744   3.757  29.596   5.423
 2952POPC   GL139745   3.684  29.400   5.847
 2952POPC   GL239746   3.683  29.069   5.802
 2952POPC   C1A39747   3.466  29.313   6.297
 2952POPC   D2A39748   3.292  29.279   6.760
 2952POPC   C3A39749   3.200  28.949   7.110
 2952POPC   C4A39750   3.111  28.870   7.617
 2952POPC   C1B39751   3.917  29.100   6.198
 2952POPC   C2B39752   3.723  28.975   6.600
 2952POPC   C3B39753   3.719  29.147   7.009
 2952POPC   C4B39754   3.489  29.490   7.190
 2953POPC   NC339755  23.088  14.770   5.034
 2953POPC   PO439756  22.757  15.168   5.517
 2953POPC   GL139757  23.075  15.338   5.769
 2953POPC   GL239758  22.822  15.389   6.044
 2953POPC   C1A39759  23.265  15.196   6.156
 2953POPC   D2A39760  23.045  15.206   6.527
 2953POPC   C3A39761  23.262  15.280   6.871
 2953POPC   C4A39762  23.055  15.249   7.230
 2953POPC   C1B39763  22.727  14.954   6.207
 2953POPC   C2B39764  22.717  14.802   6.636
 2953POPC   C3B39765  22.662  15.080   6.980
 2953POPC   C4B39766  22.602  15.110   7.436
 2954POPC   NC339767  40.258  38.672   5.405
 2954POPC   PO439768  39.670  38.430   5.231
 2954POPC   GL139769  39.833  38.593   5.661
 2954POPC   GL239770  39.955  38.301   5.784
 2954POPC   C1A39771  40.166  38.700   6.038
 2954POPC   D2A39772  40.057  38.748   6.478
 2954POPC   C3A39773  40.296  38.578   6.811
 2954POPC   C4A39774  40.136  38.762   7.157
 2954POPC   C1B39775  39.722  38.469   6.178
 2954POPC   C2B39776  39.748  38.331   6.616
 2954POPC   C3B39777  39.852  38.334   7.054
 2954POPC   C4B39778  39.911  38.109   7.433
 2955POPC   NC339779  25.503   8.133   5.154
 2955POPC   PO439780  26.130   8.278   5.306
 2955POPC   GL139781  26.096   8.382   5.756
 2955POPC   GL239782  26.217   8.075   5.918
 2955POPC   C1A39783  25.913   8.387   6.201
 2955POPC   D2A39784  25.823   8.488   6.648
 2955POPC   C3A39785  26.098   8.312   6.911
 2955POPC   C4A39786  25.988   8.278   7.319
 2955POPC   C1B39787  26.446   7.832   6.261
 2955POPC   C2B39788  26.437   7.888   6.722
 2955POPC   C3B39789  26.290   7.905   7.152
 2955POPC   C4B39790  26.460   8.082   7.554
 2956POPC   NC339791  11.831   7.266   5.365
 2956POPC   PO439792  12.467   7.642   5.364
 2956POPC   GL139793  12.233   7.432   5.673
 2956POPC   GL239794  11.999   7.667   5.658
 2956POPC   C1A39795  11.939   7.340   6.051
 2956POPC   D2A39796  11.851   7.162   6.467
 2956POPC   C3A39797  12.033   7.216   6.878
 2956POPC   C4A39798  11.947   7.437   7.284
 2956POPC   C1B39799  12.128   7.799   6.100
 2956POPC   C2B39800  12.155   7.589   6.494
 2956POPC   C3B39801  12.246   7.672   6.902
 2956POPC   C4B39802  12.396   7.701   7.277
 2957POPC   NC339803  26.631  35.909   5.279
 2957POPC   PO439804  27.123  36.411   5.144
 2957POPC   GL139805  27.053  36.178   5.639
 2957POPC   GL239806  27.242  35.910   5.853
 2957POPC   C1A39807  26.986  36.251   6.154
 2957POPC   D2A39808  27.027  36.459   6.594
 2957POPC   C3A39809  26.963  36.206   6.970
 2957POPC   C4A39810  26.562  36.253   7.171
 2957POPC   C1B39811  26.927  35.726   6.154
 2957POPC   C2B39812  26.776  35.901   6.551
 2957POPC   C3B39813  26.733  35.759   6.974
 2957POPC   C4B39814  26.419  35.746   7.260
 2958POPC   NC339815  39.533  39.813   5.562
 2958POPC   PO439816  39.035  40.201   5.317
 2958POPC   GL139817  39.090  40.049   5.745
 2958POPC   GL239818  39.363  40.301   5.817
 2958POPC   C1A39819  39.257  39.883   6.161
 2958POPC   D2A39820  39.463  40.037   6.536
 2958POPC   C3A39821  39.336  39.830   6.920
 2958POPC   C4A39822  39.451  39.960   7.333
 2958POPC   C1B39823  39.039  40.346   6.161
 2958POPC   C2B39824  38.961  40.150   6.566
 2958POPC   C3B39825  38.869  40.022   6.983
 2958POPC   C4B39826  38.970  40.175   7.386
 2959POPC   NC339827  18.064  30.709   5.517
 2959POPC   PO439828  18.507  30.247   5.462
 2959POPC   GL139829  18.489  30.538   5.864
 2959POPC   GL239830  18.729  30.796   5.968
 2959POPC   C1A39831  18.310  30.487   6.294
 2959POPC   D2A39832  18.121  30.588   6.703
 2959POPC   C3A39833  18.326  30.508   7.090
 2959POPC   C4A39834  18.246  30.642   7.510
 2959POPC   C1B39835  18.612  30.947   6.357
 2959POPC   C2B39836  18.569  30.884   6.789
 2959POPC   C3B39837  18.333  31.015   7.119
 2959POPC   C4B39838  18.350  31.158   7.530
 2960POPC   NC339839  38.272  17.027   5.389
 2960POPC   PO439840  38.285  16.336   5.386
 2960POPC   GL139841  38.501  16.625   5.706
 2960POPC   GL239842  38.421  16.977   5.880
 2960POPC   C1A39843  38.620  16.575   6.132
 2960POPC   D2A39844  38.793  16.373   6.480
 2960POPC   C3A39845  38.766  16.644   6.867
 2960POPC   C4A39846  38.601  16.545   7.301
 2960POPC   C1B39847  38.648  17.085   6.279
 2960POPC   C2B39848  38.618  17.139   6.721
 2960POPC   C3B39849  38.365  16.958   7.053
 2960POPC   C4B39850  38.289  16.967   7.502
 2961POPC   NC339851   3.556  15.131   5.392
 2961POPC   PO439852   3.883  14.660   5.796
 2961POPC   GL139853   3.511  14.934   5.869
 2961POPC   GL239854   3.444  15.329   5.865
 2961POPC   C1A39855   3.403  15.064   6.294
 2961POPC   D2A39856   3.664  15.375   6.492
 2961POPC   C3A39857   3.926  15.273   6.808
 2961POPC   C4A39858   3.774  15.116   7.192
 2961POPC   C1B39859   3.136  15.497   6.193
 2961POPC   C2B39860   3.134  15.432   6.642
 2961POPC   C3B39861   3.452  15.444   6.973
 2961POPC   C4B39862   3.410  15.382   7.434
 2962POPC   NC339863  14.087  21.949   5.353
 2962POPC   PO439864  14.640  22.436   5.370
 2962POPC   GL139865  14.348  22.310   5.713
 2962POPC   GL239866  14.310  21.945   5.817
 2962POPC   C1A39867  14.458  22.306   6.172
 2962POPC   D2A39868  14.258  22.470   6.545
 2962POPC   C3A39869  14.492  22.536   6.933
 2962POPC   C4A39870  14.413  22.374   7.341
 2962POPC   C1B39871  14.385  21.794   6.237
 2962POPC   C2B39872  14.448  21.991   6.649
 2962POPC   C3B39873  14.379  21.905   7.078
 2962POPC   C4B39874  14.668  21.656   7.346
 2963POPC   NC339875  10.535  11.458   5.455
 2963POPC   PO439876  10.461  10.885   5.296
 2963POPC   GL139877  10.462  11.031   5.744
 2963POPC   GL239878  10.808  10.977   5.876
 2963POPC   C1A39879  10.497  11.334   6.101
 2963POPC   D2A39880  10.261  11.288   6.462
 2963POPC   C3A39881  10.371  11.295   6.893
 2963POPC   C4A39882  10.401  11.587   7.200
 2963POPC   C1B39883  10.607  10.884   6.282
 2963POPC   C2B39884  10.589  10.846   6.709
 2963POPC   C3B39885  10.690  10.996   7.108
 2963POPC   C4B39886  10.636  11.256   7.461
 2964POPC   NC339887  37.736  20.434   5.426
 2964POPC   PO439888  37.416  21.000   5.255
 2964POPC   GL139889  37.491  20.954   5.775
 2964POPC   GL239890  37.659  20.598   5.886
 2964POPC   C1A39891  37.728  20.954   6.221
 2964POPC   D2A39892  37.897  20.752   6.600
 2964POPC   C3A39893  37.735  20.838   7.022
 2964POPC   C4A39894  37.739  20.695   7.464
 2964POPC   C1B39895  37.909  20.366   6.200
 2964POPC   C2B39896  37.782  20.244   6.609
 2964POPC   C3B39897  37.565  20.321   6.973
 2964POPC   C4B39898  37.645  20.207   7.380
 2965POPC   NC339899   5.342  42.817   5.225
 2965POPC   PO439900   5.173  42.169   5.101
 2965POPC   GL139901   5.119  42.164   5.603
 2965POPC   GL239902   4.783  42.109   5.740
 2965POPC   C1A39903   5.203  42.294   6.049
 2965POPC   D2A39904   5.190  42.195   6.502
 2965POPC   C3A39905   5.102  42.531   6.799
 2965POPC   C4A39906   5.121  42.571   7.229
 2965POPC   C1B39907   4.760  41.897   6.152
 2965POPC   C2B39908   4.824  41.817   6.604
 2965POPC   C3B39909   4.946  42.043   7.044
 2965POPC   C4B39910   4.713  41.960   7.513
 2966POPC   NC339911  32.720  10.511   5.556
 2966POPC   PO439912  33.310  10.887   5.492
 2966POPC   GL139913  33.058  10.750   5.842
 2966POPC   GL239914  32.823  10.998   5.794
 2966POPC   C1A39915  32.949  10.421   6.170
 2966POPC   D2A39916  33.026  10.592   6.584
 2966POPC   C3A39917  32.935  10.403   6.948
 2966POPC   C4A39918  33.109  10.272   7.305
 2966POPC   C1B39919  32.774  10.913   6.247
 2966POPC   C2B39920  32.544  10.776   6.623
 2966POPC   C3B39921  32.627  10.946   7.016
 2966POPC   C4B39922  33.067  10.861   7.141
 2967POPC   NC339923  41.783  15.126   5.254
 2967POPC   PO439924  41.206  15.491   5.463
 2967POPC   GL139925  41.537  15.224   5.723
 2967POPC   GL239926  41.911  15.279   5.768
 2967POPC   C1A39927  41.599  15.182   6.173
 2967POPC   D2A39928  41.443  15.291   6.588
 2967POPC   C3A39929  41.647  15.088   6.930
 2967POPC   C4A39930  41.464  15.108   7.326
 2967POPC   C1B39931  41.982  15.505   6.150
 2967POPC   C2B39932  41.959  15.311   6.559
 2967POPC   C3B39933  42.026  15.475   6.950
 2967POPC   C4B39934  41.918  15.321   7.366
 2968POPC   NC339935   9.565  39.402   5.511
 2968POPC   PO439936   9.976  38.811   5.427
 2968POPC   GL139937   9.903  39.096   5.757
 2968POPC   GL239938   9.584  38.974   5.819
 2968POPC   C1A39939   9.859  39.247   6.170
 2968POPC   D2A39940  10.023  39.289   6.560
 2968POPC   C3A39941   9.836  39.492   6.890
 2968POPC   C4A39942  10.003  39.300   7.205
 2968POPC   C1B39943   9.378  39.089   6.193
 2968POPC   C2B39944   9.494  39.253   6.605
 2968POPC   C3B39945   9.522  39.083   7.051
 2968POPC   C4B39946   9.451  38.696   7.338
 2969POPC   NC339947  26.378  19.479   5.460
 2969POPC   PO439948  25.804  19.296   5.675
 2969POPC   GL139949  25.695  19.067   5.984
 2969POPC   GL239950  26.062  18.991   6.025
 2969POPC   C1A39951  25.772  19.164   6.404
 2969POPC   D2A39952  26.147  19.069   6.594
 2969POPC   C3A39953  26.196  19.220   6.986
 2969POPC   C4A39954  25.973  19.118   7.321
 2969POPC   C1B39955  25.870  18.660   6.275
 2969POPC   C2B39956  25.773  18.717   6.707
 2969POPC   C3B39957  25.976  18.643   7.106
 2969POPC   C4B39958  25.947  18.633   7.554
 2970POPC   NC339959  18.334  41.928   5.160
 2970POPC   PO439960  18.163  42.483   5.123
 2970POPC   GL139961  18.291  42.297   5.587
 2970POPC   GL239962  18.516  41.991   5.689
 2970POPC   C1A39963  18.306  42.485   6.045
 2970POPC   D2A39964  18.097  42.633   6.454
 2970POPC   C3A39965  18.217  42.513   6.881
 2970POPC   C4A39966  17.957  42.391   7.223
 2970POPC   C1B39967  18.251  41.975   6.091
 2970POPC   C2B39968  18.327  42.153   6.483
 2970POPC   C3B39969  18.359  42.023   6.876
 2970POPC   C4B39970  18.240  41.986   7.255
 2971POPC   NC339971  34.762  34.145   5.574
 2971POPC   PO439972  34.563  33.472   5.503
 2971POPC   GL139973  34.553  33.748   5.851
 2971POPC   GL239974  34.273  34.004   5.844
 2971POPC   C1A39975  34.811  33.786   6.253
 2971POPC   D2A39976  34.994  33.647   6.663
 2971POPC   C3A39977  34.796  33.686   7.031
 2971POPC   C4A39978  34.728  34.017   7.278
 2971POPC   C1B39979  34.295  33.877   6.265
 2971POPC   C2B39980  34.474  33.819   6.664
 2971POPC   C3B39981  34.275  33.904   7.060
 2971POPC   C4B39982  34.281  34.191   7.435
 2972POPC   NC339983  18.797   0.286   5.384
 2972POPC   PO439984  19.229   0.827   5.187
 2972POPC   GL139985  19.133   0.661   5.661
 2972POPC   GL239986  19.151   0.306   5.768
 2972POPC   C1A39987  19.286   0.646   6.136
 2972POPC   D2A39988  19.177   0.364   6.525
 2972POPC   C3A39989  19.061   0.555   6.944
 2972POPC   C4A39990  19.189   0.985   7.110
 2972POPC   C1B39991  18.821   0.439   6.095
 2972POPC   C2B39992  18.657   0.250   6.471
 2972POPC   C3B39993  18.852   0.069   6.830
 2972POPC   C4B39994  18.753   0.135   7.244
 2973POPC   NC339995  22.823   6.736   5.303
 2973POPC   PO439996  23.457   6.752   5.277
 2973POPC   GL139997  23.164   6.693   5.694
 2973POPC   GL239998  22.873   6.480   5.812
 2973POPC   C1A39999  22.992   6.882   6.106
 2973POPC   D2A40000  23.095   6.816   6.521
 2973POPC   C3A40001  22.847   6.883   6.851
 2973POPC   C4A40002  22.917   6.852   7.222
 2973POPC   C1B40003  23.035   6.382   6.251
 2973POPC   C2B40004  22.933   6.365   6.715
 2973POPC   C3B40005  22.832   6.357   7.146
 2973POPC   C4B40006  22.507   6.584   7.418
 2974POPC   NC340007  20.997  44.472   5.558
 2974POPC   PO440008  20.483  44.038   5.237
 2974POPC   GL140009  20.530  43.974   5.698
 2974POPC   GL240010  20.341  44.221   5.877
 2974POPC   C1A40011  20.459  43.698   6.089
 2974POPC   D2A40012  20.340  43.690   6.548
 2974POPC   C3A40013  20.685  43.642   6.872
 2974POPC   C4A40014  20.870  43.448   7.245
 2974POPC   C1B40015  20.723  44.148   6.160
 2974POPC   C2B40016  20.633  44.139   6.612
 2974POPC   C3B40017  20.389  44.059   6.957
 2974POPC   C4B40018  20.482  44.159   7.372
 2975POPC   NC340019  21.610  28.007   5.375
 2975POPC   PO440020  21.210  27.402   5.330
 2975POPC   GL140021  21.313  27.455   5.724
 2975POPC   GL240022  21.269  27.801   5.760
 2975POPC   C1A40023  21.418  27.358   6.137
 2975POPC   D2A40024  21.514  27.561   6.528
 2975POPC   C3A40025  21.143  27.668   6.771
 2975POPC   C4A40026  21.095  27.698   7.196
 2975POPC   C1B40027  21.501  27.906   6.121
 2975POPC   C2B40028  21.378  28.071   6.532
 2975POPC   C3B40029  21.504  28.019   6.939
 2975POPC   C4B40030  21.374  28.172   7.320
 2976POPC   NC340031  22.655  16.111   5.394
 2976POPC   PO440032  23.277  16.024   5.497
 2976POPC   GL140033  23.032  15.992   5.848
 2976POPC   GL240034  22.719  15.839   5.824
 2976POPC   C1A40035  23.098  15.850   6.288
 2976POPC   D2A40036  23.153  16.166   6.618
 2976POPC   C3A40037  23.038  16.094   7.018
 2976POPC   C4A40038  23.176  15.746   7.246
 2976POPC   C1B40039  22.581  15.800   6.245
 2976POPC   C2B40040  22.725  15.612   6.660
 2976POPC   C3B40041  22.666  15.738   7.103
 2976POPC   C4B40042  22.612  16.178   7.283
 2977POPC   NC340043  36.717   8.566   5.238
 2977POPC   PO440044  35.898   8.585   5.309
 2977POPC   GL140045  35.874   8.726   5.740
 2977POPC   GL240046  36.222   8.797   5.752
 2977POPC   C1A40047  35.961   9.146   6.010
 2977POPC   D2A40048  35.905   9.291   6.447
 2977POPC   C3A40049  36.154   9.252   6.815
 2977POPC   C4A40050  36.075   8.977   7.161
 2977POPC   C1B40051  36.117   8.687   6.178
 2977POPC   C2B40052  36.230   8.793   6.587
 2977POPC   C3B40053  36.438   8.540   6.894
 2977POPC   C4B40054  36.302   8.547   7.280
 2978POPC   NC340055  30.444  43.532   5.386
 2978POPC   PO440056  31.046  43.343   5.081
 2978POPC   GL140057  30.856  43.166   5.597
 2978POPC   GL240058  30.510  43.049   5.712
 2978POPC   C1A40059  30.742  43.349   6.069
 2978POPC   D2A40060  30.774  43.161   6.506
 2978POPC   C3A40061  30.666  43.307   6.943
 2978POPC   C4A40062  30.545  43.246   7.404
 2978POPC   C1B40063  30.395  42.977   6.195
 2978POPC   C2B40064  30.344  42.951   6.692
 2978POPC   C3B40065  30.543  42.828   7.111
 2978POPC   C4B40066  30.403  42.769   7.582
 2979POPC   NC340067  35.668  16.931   5.490
 2979POPC   PO440068  35.047  16.626   5.525
 2979POPC   GL140069  35.283  16.787   5.856
 2979POPC   GL240070  35.561  16.584   5.876
 2979POPC   C1A40071  35.215  16.879   6.292
 2979POPC   D2A40072  35.016  16.676   6.661
 2979POPC   C3A40073  35.123  16.934   7.036
 2979POPC   C4A40074  35.507  17.043   7.161
 2979POPC   C1B40075  35.646  16.575   6.302
 2979POPC   C2B40076  35.521  16.768   6.686
 2979POPC   C3B40077  35.487  16.558   7.023
 2979POPC   C4B40078  35.640  16.602   7.392
 2980POPC   NC340079  36.166  39.672   5.175
 2980POPC   PO440080  35.716  40.160   5.410
 2980POPC   GL140081  35.886  40.121   5.795
 2980POPC   GL240082  36.198  39.963   5.704
 2980POPC   C1A40083  35.855  39.872   6.157
 2980POPC   D2A40084  36.041  39.829   6.520
 2980POPC   C3A40085  35.820  39.909   6.903
 2980POPC   C4A40086  36.018  39.900   7.301
 2980POPC   C1B40087  36.385  39.899   6.116
 2980POPC   C2B40088  36.498  40.079   6.525
 2980POPC   C3B40089  36.357  39.992   6.932
 2980POPC   C4B40090  36.429  40.202   7.330
 2981POPC   NC340091  24.947  21.088   5.400
 2981POPC   PO440092  25.500  20.726   5.300
 2981POPC   GL140093  25.371  20.507   5.677
 2981POPC   GL240094  25.021  20.606   5.745
 2981POPC   C1A40095  25.403  20.623   6.131
 2981POPC   D2A40096  25.403  20.908   6.502
 2981POPC   C3A40097  25.528  20.676   6.894
 2981POPC   C4A40098  25.532  20.428   7.275
 2981POPC   C1B40099  24.895  20.572   6.170
 2981POPC   C2B40100  24.881  20.780   6.561
 2981POPC   C3B40101  24.730  20.806   6.977
 2981POPC   C4B40102  25.059  20.612   7.182
 2982POPC   NC340103  36.352  31.907   5.404
 2982POPC   PO440104  35.916  32.419   5.373
 2982POPC   GL140105  36.126  32.235   5.760
 2982POPC   GL240106  36.377  32.469   5.929
 2982POPC   C1A40107  36.036  32.215   6.228
 2982POPC   D2A40108  35.892  32.419   6.630
 2982POPC   C3A40109  36.186  32.418   6.965
 2982POPC   C4A40110  36.208  32.268   7.405
 2982POPC   C1B40111  36.522  32.048   6.128
 2982POPC   C2B40112  36.451  31.859   6.569
 2982POPC   C3B40113  36.355  31.938   7.027
 2982POPC   C4B40114  36.548  31.906   7.476
 2983POPC   NC340115  43.980  37.220   5.378
 2983POPC   PO440116  43.500  36.780   5.387
 2983POPC   GL140117  43.789  36.890   5.743
 2983POPC   GL240118  44.150  37.053   5.811
 2983POPC   C1A40119  43.906  36.780   6.158
 2983POPC   D2A40120  43.731  36.887   6.529
 2983POPC   C3A40121  43.884  36.833   6.905
 2983POPC   C4A40122  43.653  36.714   7.221
 2983POPC   C1B40123  44.386  37.013   6.157
 2983POPC   C2B40124  44.136  37.188   6.482
 2983POPC   C3B40125  44.138  37.262   6.904
 2983POPC   C4B40126  43.863  37.251   7.272
 2984POPC   NC340127  34.360  33.042   5.374
 2984POPC   PO440128  35.004  33.050   5.139
 2984POPC   GL140129  34.858  33.030   5.612
 2984POPC   GL240130  34.642  32.769   5.706
 2984POPC   C1A40131  34.880  32.988   6.102
 2984POPC   D2A40132  34.775  33.172   6.525
 2984POPC   C3A40133  34.857  33.125   6.950
 2984POPC   C4A40134  34.801  33.323   7.373
 2984POPC   C1B40135  34.374  32.844   6.063
 2984POPC   C2B40136  34.394  32.797   6.499
 2984POPC   C3B40137  34.295  32.836   6.922
 2984POPC   C4B40138  34.562  32.891   7.276
 2985POPC   NC340139  29.025  33.863   5.634
 2985POPC   PO440140  28.379  33.587   5.508
 2985POPC   GL140141  28.413  33.567   5.912
 2985POPC   GL240142  28.732  33.450   5.916
 2985POPC   C1A40143  28.241  33.680   6.320
 2985POPC   D2A40144  28.302  33.978   6.661
 2985POPC   C3A40145  28.207  33.743   7.025
 2985POPC   C4A40146  27.978  33.432   7.194
 2985POPC   C1B40147  28.738  33.840   6.223
 2985POPC   C2B40148  28.821  34.091   6.603
 2985POPC   C3B40149  28.716  34.059   7.054
 2985POPC   C4B40150  28.545  33.748   7.386
 2986POPC   NC340151  29.497  24.987   5.501
 2986POPC   PO440152  29.895  25.434   5.303
 2986POPC   GL140153  29.822  25.357   5.714
 2986POPC   GL240154  30.053  25.157   5.902
 2986POPC   C1A40155  29.568  25.406   6.066
 2986POPC   D2A40156  29.733  25.469   6.462
 2986POPC   C3A40157  29.707  25.198   6.808
 2986POPC   C4A40158  29.828  25.243   7.220
 2986POPC   C1B40159  29.866  24.999   6.232
 2986POPC   C2B40160  30.162  25.169   6.482
 2986POPC   C3B40161  30.219  25.179   6.893
 2986POPC   C4B40162  30.210  24.916   7.257
 2987POPC   NC340163  36.876  37.365   5.604
 2987POPC   PO440164  36.786  36.793   5.136
 2987POPC   GL140165  36.760  36.802   5.667
 2987POPC   GL240166  36.896  37.018   5.952
 2987POPC   C1A40167  36.718  36.580   6.117
 2987POPC   D2A40168  36.915  36.615   6.551
 2987POPC   C3A40169  36.736  36.739   6.958
 2987POPC   C4A40170  36.714  36.561   7.367
 2987POPC   C1B40171  37.228  36.821   6.198
 2987POPC   C2B40172  37.457  36.945   6.564
 2987POPC   C3B40173  37.300  37.117   6.925
 2987POPC   C4B40174  37.127  36.936   7.274
 2988POPC   NC340175  40.902  26.495   5.604
 2988POPC   PO440176  40.809  25.969   5.160
 2988POPC   GL140177  40.942  25.911   5.574
 2988POPC   GL240178  40.663  26.036   5.734
 2988POPC   C1A40179  41.061  25.806   6.003
 2988POPC   D2A40180  40.983  25.783   6.468
 2988POPC   C3A40181  40.596  25.990   6.709
 2988POPC   C4A40182  40.574  25.993   7.195
 2988POPC   C1B40183  40.567  26.202   6.162
 2988POPC   C2B40184  40.470  26.474   6.535
 2988POPC   C3B40185  40.764  26.615   6.840
 2988POPC   C4B40186  40.907  26.415   7.204
 2989POPC   NC340187   0.849  11.276   5.490
 2989POPC   PO440188   1.529  11.177   5.578
 2989POPC   GL140189   1.278  11.447   5.859
 2989POPC   GL240190   0.920  11.595   5.888
 2989POPC   C1A40191   1.286  11.485   6.305
 2989POPC   D2A40192   1.246  11.320   6.722
 2989POPC   C3A40193   1.403  11.544   7.077
 2989POPC   C4A40194   1.567  11.515   7.502
 2989POPC   C1B40195   0.861  11.240   6.155
 2989POPC   C2B40196   0.772  11.258   6.581
 2989POPC   C3B40197   0.843  11.466   6.983
 2989POPC   C4B40198   1.039  11.328   7.353
 2990POPC   NC340199   4.515  20.889   5.513
 2990POPC   PO440200   4.133  20.345   5.316
 2990POPC   GL140201   4.142  20.477   5.741
 2990POPC   GL240202   4.091  20.846   5.796
 2990POPC   C1A40203   4.422  20.516   6.098
 2990POPC   D2A40204   4.453  20.658   6.533
 2990POPC   C3A40205   4.384  20.378   6.897
 2990POPC   C4A40206   4.472  20.157   7.286
 2990POPC   C1B40207   3.969  20.733   6.208
 2990POPC   C2B40208   3.798  20.761   6.625
 2990POPC   C3B40209   3.897  20.606   7.031
 2990POPC   C4B40210   4.202  20.597   7.351
 2991POPC   NC340211  18.990  36.068   5.330
 2991POPC   PO440212  19.597  35.771   5.506
 2991POPC   GL140213  19.328  35.956   5.815
 2991POPC   GL240214  18.975  36.068   5.851
 2991POPC   C1A40215  19.366  36.289   6.150
 2991POPC   D2A40216  19.214  36.353   6.557
 2991POPC   C3A40217  19.188  36.061   6.888
 2991POPC   C4A40218  18.960  36.397   7.062
 2991POPC   C1B40219  19.116  35.872   6.270
 2991POPC   C2B40220  19.127  35.633   6.636
 2991POPC   C3B40221  18.817  35.690   6.936
 2991POPC   C4B40222  18.765  35.970   7.288
 2992POPC   NC340223  39.921  13.163   5.479
 2992POPC   PO440224  39.982  12.553   5.416
 2992POPC   GL140225  39.886  12.791   5.826
 2992POPC   GL240226  40.028  12.689   6.143
 2992POPC   C1A40227  39.852  13.152   6.161
 2992POPC   D2A40228  39.776  12.959   6.583
 2992POPC   C3A40229  39.914  13.168   6.949
 2992POPC   C4A40230  40.345  13.072   7.067
 2992POPC   C1B40231  39.726  12.373   6.092
 2992POPC   C2B40232  39.595  12.359   6.505
 2992POPC   C3B40233  39.838  12.500   6.883
 2992POPC   C4B40234  40.031  12.721   7.239
 2993POPC   NC340235  25.690  21.142   5.435
 2993POPC   PO440236  26.248  21.447   5.455
 2993POPC   GL140237  26.217  21.302   5.859
 2993POPC   GL240238  26.136  20.964   5.883
 2993POPC   C1A40239  26.168  21.437   6.256
 2993POPC   D2A40240  26.360  21.641   6.578
 2993POPC   C3A40241  26.136  21.474   6.907
 2993POPC   C4A40242  26.061  21.611   7.312
 2993POPC   C1B40243  25.768  21.100   6.127
 2993POPC   C2B40244  25.806  21.227   6.564
 2993POPC   C3B40245  25.808  21.099   6.986
 2993POPC   C4B40246  26.044  21.114   7.393
 2994POPC   NC340247   9.293  25.979   5.394
 2994POPC   PO440248   9.950  25.844   5.439
 2994POPC   GL140249   9.659  25.835   5.795
 2994POPC   GL240250   9.502  26.164   5.815
 2994POPC   C1A40251   9.820  26.025   6.204
 2994POPC   D2A40252   9.918  26.234   6.617
 2994POPC   C3A40253   9.943  26.023   7.017
 2994POPC   C4A40254   9.705  25.866   7.357
 2994POPC   C1B40255   9.317  26.152   6.213
 2994POPC   C2B40256   9.462  25.984   6.587
 2994POPC   C3B40257   9.429  26.124   6.994
 2994POPC   C4B40258   9.521  26.355   7.363
 2995POPC   NC340259  38.194  19.502   5.386
 2995POPC   PO440260  38.173  18.824   5.159
 2995POPC   GL140261  38.241  19.015   5.644
 2995POPC   GL240262  38.049  19.296   5.807
 2995POPC   C1A40263  38.379  18.908   6.104
 2995POPC   D2A40264  38.505  19.078   6.544
 2995POPC   C3A40265  38.293  19.014   6.957
 2995POPC   C4A40266  38.193  18.924   7.399
 2995POPC   C1B40267  38.272  19.392   6.185
 2995POPC   C2B40268  38.083  19.391   6.604
 2995POPC   C3B40269  38.118  19.491   7.047
 2995POPC   C4B40270  38.076  19.461   7.523
 2996POPC   NC340271   2.264  23.472   5.498
 2996POPC   PO440272   1.693  23.818   5.613
 2996POPC   GL140273   1.770  23.714   6.008
 2996POPC   GL240274   1.831  23.365   5.901
 2996POPC   C1A40275   1.890  23.851   6.420
 2996POPC   D2A40276   2.159  23.942   6.758
 2996POPC   C3A40277   1.938  23.844   7.130
 2996POPC   C4A40278   1.735  23.422   7.140
 2996POPC   C1B40279   2.203  23.496   6.169
 2996POPC   C2B40280   2.349  23.412   6.587
 2996POPC   C3B40281   2.319  23.528   7.010
 2996POPC   C4B40282   2.530  23.930   7.140
 2997POPC   NC340283  24.922   8.098   5.527
 2997POPC   PO440284  25.396   8.535   5.364
 2997POPC   GL140285  25.292   8.441   5.833
 2997POPC   GL240286  25.079   8.155   6.001
 2997POPC   C1A40287  25.396   8.421   6.311
 2997POPC   D2A40288  25.622   8.040   6.519
 2997POPC   C3A40289  25.643   8.080   6.969
 2997POPC   C4A40290  25.347   7.880   7.219
 2997POPC   C1B40291  24.895   8.554   6.146
 2997POPC   C2B40292  24.895   8.610   6.591
 2997POPC   C3B40293  25.064   8.284   6.888
 2997POPC   C4B40294  25.340   8.382   7.256
 2998POPC   NC340295  22.453  36.047   5.647
 2998POPC   PO440296  22.031  36.191   5.276
 2998POPC   GL140297  21.928  36.168   5.708
 2998POPC   GL240298  21.971  35.810   5.832
 2998POPC   C1A40299  22.028  36.254   6.148
 2998POPC   D2A40300  22.201  36.161   6.538
 2998POPC   C3A40301  22.071  36.393   6.859
 2998POPC   C4A40302  22.054  36.276   7.254
 2998POPC   C1B40303  22.242  35.778   6.211
 2998POPC   C2B40304  22.274  35.656   6.642
 2998POPC   C3B40305  22.366  35.943   6.981
 2998POPC   C4B40306  22.410  35.936   7.433
 2999POPC   NC340307  37.660  22.579   5.441
 2999POPC   PO440308  37.729  21.926   5.465
 2999POPC   GL140309  37.670  22.142   5.839
 2999POPC   GL240310  37.959  22.369   5.788
 2999POPC   C1A40311  37.535  21.941   6.243
 2999POPC   D2A40312  37.657  21.753   6.652
 2999POPC   C3A40313  37.499  21.999   7.026
 2999POPC   C4A40314  37.418  22.358   7.320
 2999POPC   C1B40315  37.847  22.511   6.185
 2999POPC   C2B40316  37.708  22.319   6.558
 2999POPC   C3B40317  37.712  22.497   6.939
 2999POPC   C4B40318  37.915  22.578   7.327
 3000POPC   NC340319  20.063   4.405   5.612
 3000POPC   PO440320  19.504   4.070   5.417
 3000POPC   GL140321  19.706   4.096   5.827
 3000POPC   GL240322  19.615   4.447   5.892
 3000POPC   C1A40323  19.982   4.191   6.207
 3000POPC   D2A40324  19.873   4.041   6.588
 3000POPC   C3A40325  19.824   4.213   6.975
 3000POPC   C4A40326  19.797   4.294   7.404
 3000POPC   C1B40327  19.738   4.616   6.323
 3000POPC   C2B40328  19.902   4.856   6.652
 3000POPC   C3B40329  19.836   4.713   7.065
 3000POPC   C4B40330  19.427   4.634   7.236
 3001POPC   NC340331  10.630  32.128   5.356
 3001POPC   PO440332  10.140  32.434   5.449
 3001POPC   GL140333  10.516  32.475   5.712
 3001POPC   GL240334  10.839  32.619   5.600
 3001POPC   C1A40335  10.679  32.277   6.107
 3001POPC   D2A40336  10.563  32.300   6.558
 3001POPC   C3A40337  10.481  32.168   6.988
 3001POPC   C4A40338  10.414  32.126   7.421
 3001POPC   C1B40339  11.012  32.655   6.038
 3001POPC   C2B40340  11.062  32.409   6.451
 3001POPC   C3B40341  10.953  32.334   6.910
 3001POPC   C4B40342  10.805  32.478   7.318
 3002POPC   NC340343  34.290   7.236   5.339
 3002POPC   PO440344  34.731   7.737   5.475
 3002POPC   GL140345  34.476   7.620   5.827
 3002POPC   GL240346  34.362   7.251   5.842
 3002POPC   C1A40347  34.584   7.511   6.248
 3002POPC   D2A40348  34.827   7.415   6.615
 3002POPC   C3A40349  34.579   7.528   6.943
 3002POPC   C4A40350  34.490   7.472   7.369
 3002POPC   C1B40351  34.390   7.050   6.245
 3002POPC   C2B40352  34.321   7.189   6.669
 3002POPC   C3B40353  34.480   7.054   7.065
 3002POPC   C4B40354  34.928   7.217   7.159
 3003POPC   NC340355  33.526  29.424   5.134
 3003POPC   PO440356  33.879  29.961   5.347
 3003POPC   GL140357  33.900  29.857   5.783
 3003POPC   GL240358  33.597  30.020   5.838
 3003POPC   C1A40359  33.942  29.990   6.221
 3003POPC   D2A40360  34.048  30.174   6.597
 3003POPC   C3A40361  34.067  29.945   6.973
 3003POPC   C4A40362  34.143  30.274   7.264
 3003POPC   C1B40363  33.450  29.824   6.228
 3003POPC   C2B40364  33.536  29.984   6.617
 3003POPC   C3B40365  33.562  29.787   6.987
 3003POPC   C4B40366  33.434  29.751   7.409
 3004POPC   NC340367  34.477  35.004   5.292
 3004POPC   PO440368  34.329  34.346   5.456
 3004POPC   GL140369  34.460  34.501   5.849
 3004POPC   GL240370  34.574  34.854   5.802
 3004POPC   C1A40371  34.613  34.282   6.221
 3004POPC   D2A40372  34.830  34.199   6.588
 3004POPC   C3A40373  34.571  34.319   6.907
 3004POPC   C4A40374  34.665  34.528   7.274
 3004POPC   C1B40375  34.386  34.861   6.227
 3004POPC   C2B40376  34.269  34.683   6.632
 3004POPC   C3B40377  34.379  34.861   7.012
 3004POPC   C4B40378  34.484  35.035   7.435
 3005POPC   NC340379  17.945  11.173   5.337
 3005POPC   PO440380  17.298  11.232   5.452
 3005POPC   GL140381  17.525  11.153   5.851
 3005POPC   GL240382  17.871  11.297   5.857
 3005POPC   C1A40383  17.487  11.287   6.313
 3005POPC   D2A40384  17.453  11.229   6.764
 3005POPC   C3A40385  17.223  11.425   7.085
 3005POPC   C4A40386  17.355  11.291   7.506
 3005POPC   C1B40387  17.831  11.650   6.175
 3005POPC   C2B40388  17.802  11.702   6.627
 3005POPC   C3B40389  17.759  11.523   7.049
 3005POPC   C4B40390  17.818  11.494   7.496
 3006POPC   NC340391  40.546  40.230   5.562
 3006POPC   PO440392  39.846  40.380   5.454
 3006POPC   GL140393  40.013  40.085   5.779
 3006POPC   GL240394  40.057  39.706   5.774
 3006POPC   C1A40395  39.852  39.961   6.183
 3006POPC   D2A40396  40.033  40.003   6.570
 3006POPC   C3A40397  39.811  40.053   6.932
 3006POPC   C4A40398  39.991  39.918   7.286
 3006POPC   C1B40399  40.286  39.609   6.198
 3006POPC   C2B40400  40.471  39.737   6.569
 3006POPC   C3B40401  40.209  39.619   6.896
 3006POPC   C4B40402  40.236  39.385   7.268
 3007POPC   NC340403   1.728  43.263   5.450
 3007POPC   PO440404   2.279  42.904   5.374
 3007POPC   GL140405   2.079  42.893   5.779
 3007POPC   GL240406   1.725  42.776   5.739
 3007POPC   C1A40407   2.168  43.041   6.204
 3007POPC   D2A40408   2.090  42.855   6.575
 3007POPC   C3A40409   2.239  43.074   6.887
 3007POPC   C4A40410   2.089  43.122   7.281
 3007POPC   C1B40411   1.640  43.004   6.125
 3007POPC   C2B40412   1.582  42.899   6.552
 3007POPC   C3B40413   1.709  42.984   6.951
 3007POPC   C4B40414   1.634  42.926   7.375
 3008POPC   NC340415  28.794   7.775   5.470
 3008POPC   PO440416  28.114   8.072   5.323
 3008POPC   GL140417  28.309   8.079   5.778
 3008POPC   GL240418  28.340   8.421   5.876
 3008POPC   C1A40419  28.412   8.132   6.274
 3008POPC   D2A40420  28.158   8.051   6.659
 3008POPC   C3A40421  28.362   8.168   7.052
 3008POPC   C4A40422  28.372   7.956   7.475
 3008POPC   C1B40423  27.946   8.279   6.106
 3008POPC   C2B40424  27.776   8.389   6.525
 3008POPC   C3B40425  27.871   8.414   6.957
 3008POPC   C4B40426  28.009   8.463   7.374
 3009POPC   NC340427   1.660  17.882   5.722
 3009POPC   PO440428   1.988  17.342   5.440
 3009POPC   GL140429   2.078  17.517   5.838
 3009POPC   GL240430   1.765  17.442   5.924
 3009POPC   C1A40431   2.162  17.503   6.294
 3009POPC   D2A40432   1.997  17.324   6.701
 3009POPC   C3A40433   2.194  17.538   7.083
 3009POPC   C4A40434   2.266  17.398   7.507
 3009POPC   C1B40435   1.648  17.587   6.316
 3009POPC   C2B40436   1.504  17.404   6.656
 3009POPC   C3B40437   1.666  17.478   7.064
 3009POPC   C4B40438   1.741  17.462   7.531
 3010POPC   NC340439  31.364  20.907   5.641
 3010POPC   PO440440  31.646  20.428   5.149
 3010POPC   GL140441  31.452  20.391   5.699
 3010POPC   GL240442  31.693  20.464   5.919
 3010POPC   C1A40443  31.280  20.487   6.181
 3010POPC   D2A40444  31.391  20.668   6.605
 3010POPC   C3A40445  31.237  20.473   6.995
 3010POPC   C4A40446  31.560  20.346   7.271
 3010POPC   C1B40447  31.860  20.769   6.217
 3010POPC   C2B40448  31.899  20.687   6.646
 3010POPC   C3B40449  31.746  20.825   7.035
 3010POPC   C4B40450  31.335  20.987   7.180
 3011POPC   NC340451  35.904  12.291   5.518
 3011POPC   PO440452  36.570  12.026   5.533
 3011POPC   GL140453  36.289  12.205   5.846
 3011POPC   GL240454  36.172  11.885   5.907
 3011POPC   C1A40455  35.987  12.380   6.180
 3011POPC   D2A40456  35.699  12.463   6.541
 3011POPC   C3A40457  35.894  12.163   6.839
 3011POPC   C4A40458  36.192  11.930   7.128
 3011POPC   C1B40459  35.937  11.605   6.194
 3011POPC   C2B40460  35.945  11.658   6.656
 3011POPC   C3B40461  35.725  11.694   7.045
 3011POPC   C4B40462  35.835  11.777   7.470
 3012POPC   NC340463  17.394  35.981   5.438
 3012POPC   PO440464  17.023  36.472   5.325
 3012POPC   GL140465  16.864  36.418   5.770
 3012POPC   GL240466  17.032  36.100   5.835
 3012POPC   C1A40467  16.755  36.301   6.254
 3012POPC   D2A40468  16.697  36.447   6.712
 3012POPC   C3A40469  16.631  36.191   7.109
 3012POPC   C4A40470  16.543  36.301   7.568
 3012POPC   C1B40471  17.175  36.010   6.256
 3012POPC   C2B40472  16.935  35.982   6.645
 3012POPC   C3B40473  17.003  35.814   7.061
 3012POPC   C4B40474  17.210  35.650   7.448
 3013POPC   NC340475  43.554  36.316   5.334
 3013POPC   PO440476  43.488  35.855   5.767
 3013POPC   GL140477  43.841  36.153   5.876
 3013POPC   GL240478  44.225  36.070   5.876
 3013POPC   C1A40479  43.936  36.283   6.298
 3013POPC   D2A40480  43.797  36.383   6.690
 3013POPC   C3A40481  43.947  36.071   6.967
 3013POPC   C4A40482  43.707  35.951   7.296
 3013POPC   C1B40483  44.352  36.480   6.093
 3013POPC   C2B40484  44.249  36.672   6.523
 3013POPC   C3B40485  44.258  36.489   6.922
 3013POPC   C4B40486  44.136  36.406   7.316
 3014POPC   NC340487  33.138  31.969   5.412
 3014POPC   PO440488  32.786  32.525   5.673
 3014POPC   GL140489  33.079  32.272   5.846
 3014POPC   GL240490  33.354  32.483   5.885
 3014POPC   C1A40491  33.096  32.177   6.268
 3014POPC   D2A40492  33.178  32.328   6.674
 3014POPC   C3A40493  33.020  32.043   6.954
 3014POPC   C4A40494  33.066  32.113   7.348
 3014POPC   C1B40495  33.491  32.555   6.320
 3014POPC   C2B40496  33.597  32.577   6.788
 3014POPC   C3B40497  33.350  32.657   7.194
 3014POPC   C4B40498  33.216  32.489   7.638
 3015POPC   NC340499   0.113  27.338   5.722
 3015POPC   PO440500  44.590  27.634   5.362
 3015POPC   GL140501  44.704  27.722   5.786
 3015POPC   GL240502   0.029  27.871   5.880
 3015POPC   C1A40503  44.556  27.803   6.208
 3015POPC   D2A40504  44.671  27.680   6.622
 3015POPC   C3A40505  44.341  27.684   6.927
 3015POPC   C4A40506  44.223  27.375   7.263
 3015POPC   C1B40507   0.205  27.776   6.321
 3015POPC   C2B40508   0.181  27.731   6.795
 3015POPC   C3B40509   0.078  27.402   7.104
 3015POPC   C4B40510  44.697  27.562   7.262
 3016POPC   NC340511   8.509  24.309   5.204
 3016POPC   PO440512   7.871  24.631   5.457
 3016POPC   GL140513   7.951  24.457   5.903
 3016POPC   GL240514   8.276  24.665   6.078
 3016POPC   C1A40515   8.116  24.231   6.267
 3016POPC   D2A40516   8.263  24.508   6.587
 3016POPC   C3A40517   8.135  24.511   6.981
 3016POPC   C4A40518   8.149  24.329   7.363
 3016POPC   C1B40519   8.618  24.396   6.227
 3016POPC   C2B40520   8.804  24.218   6.590
 3016POPC   C3B40521   8.641  24.378   6.988
 3016POPC   C4B40522   8.632  24.464   7.438
 3017POPC   NC340523  26.071  37.287   5.384
 3017POPC   PO440524  25.619  37.740   5.360
 3017POPC   GL140525  25.928  37.674   5.701
 3017POPC   GL240526  25.788  37.389   5.871
 3017POPC   C1A40527  26.116  37.724   6.111
 3017POPC   D2A40528  26.059  37.704   6.561
 3017POPC   C3A40529  25.865  37.946   6.898
 3017POPC   C4A40530  26.003  37.911   7.313
 3017POPC   C1B40531  25.951  37.265   6.285
 3017POPC   C2B40532  26.304  37.264   6.567
 3017POPC   C3B40533  26.284  37.202   7.007
 3017POPC   C4B40534  26.015  37.402   7.278
 3018POPC   NC340535  18.064  34.695   5.473
 3018POPC   PO440536  18.401  34.313   5.242
 3018POPC   GL140537  18.466  34.467   5.720
 3018POPC   GL240538  18.734  34.635   5.855
 3018POPC   C1A40539  18.374  34.623   6.212
 3018POPC   D2A40540  18.458  34.855   6.645
 3018POPC   C3A40541  18.444  34.735   7.091
 3018POPC   C4A40542  18.508  34.537   7.525
 3018POPC   C1B40543  18.785  34.333   6.190
 3018POPC   C2B40544  18.671  34.246   6.629
 3018POPC   C3B40545  18.551  34.240   7.069
 3018POPC   C4B40546  18.557  33.997   7.441
 3019POPC   NC340547  42.006  40.875   5.171
 3019POPC   PO440548  41.482  40.472   5.279
 3019POPC   GL140549  41.570  40.569   5.734
 3019POPC   GL240550  41.258  40.570   5.940
 3019POPC   C1A40551  41.656  40.705   6.202
 3019POPC   D2A40552  41.484  40.706   6.648
 3019POPC   C3A40553  41.548  40.949   7.050
 3019POPC   C4A40554  41.236  41.200   7.302
 3019POPC   C1B40555  41.292  40.339   6.310
 3019POPC   C2B40556  41.150  40.329   6.717
 3019POPC   C3B40557  41.299  40.480   7.098
 3019POPC   C4B40558  41.466  40.608   7.498
 3020POPC   NC340559  37.040  21.009   5.507
 3020POPC   PO440560  36.546  20.537   5.426
 3020POPC   GL140561  36.787  20.543   5.781
 3020POPC   GL240562  37.156  20.547   5.801
 3020POPC   C1A40563  36.839  20.712   6.182
 3020POPC   D2A40564  36.901  20.493   6.553
 3020POPC   C3A40565  36.764  20.669   6.932
 3020POPC   C4A40566  36.810  20.438   7.297
 3020POPC   C1B40567  37.330  20.588   6.256
 3020POPC   C2B40568  37.346  20.737   6.697
 3020POPC   C3B40569  37.241  20.701   7.151
 3020POPC   C4B40570  37.261  20.474   7.567
 3021POPC   NC340571  34.115  28.748   5.575
 3021POPC   PO440572  33.788  28.263   5.269
 3021POPC   GL140573  33.664  28.271   5.717
 3021POPC   GL240574  33.335  28.379   5.791
 3021POPC   C1A40575  33.603  28.185   6.179
 3021POPC   D2A40576  33.470  28.216   6.622
 3021POPC   C3A40577  33.822  28.386   6.922
 3021POPC   C4A40578  34.113  28.747   7.098
 3021POPC   C1B40579  33.235  28.615   6.190
 3021POPC   C2B40580  33.225  28.739   6.657
 3021POPC   C3B40581  33.325  28.505   7.029
 3021POPC   C4B40582  33.550  28.395   7.366
 3022POPC   NC340583  40.856  14.685   5.162
 3022POPC   PO440584  40.465  14.352   5.642
 3022POPC   GL140585  40.892  14.252   5.760
 3022POPC   GL240586  41.012  14.549   5.669
 3022POPC   C1A40587  41.082  14.174   6.170
 3022POPC   D2A40588  40.887  14.339   6.527
 3022POPC   C3A40589  40.952  14.202   6.914
 3022POPC   C4A40590  40.639  14.380   7.168
 3022POPC   C1B40591  40.936  14.686   6.108
 3022POPC   C2B40592  41.103  14.813   6.524
 3022POPC   C3B40593  40.966  14.737   6.943
 3022POPC   C4B40594  41.105  14.512   7.286
 3023POPC   NC340595  30.469  27.174   5.429
 3023POPC   PO440596  30.792  26.938   4.877
 3023POPC   GL140597  30.845  26.842   5.409
 3023POPC   GL240598  30.972  27.128   5.650
 3023POPC   C1A40599  30.633  26.778   5.906
 3023POPC   D2A40600  30.429  26.839   6.382
 3023POPC   C3A40601  30.590  26.874   6.857
 3023POPC   C4A40602  30.406  26.937   7.276
 3023POPC   C1B40603  30.963  27.062   6.126
 3023POPC   C2B40604  30.980  27.030   6.560
 3023POPC   C3B40605  30.976  27.225   6.965
 3023POPC   C4B40606  30.913  26.942   7.277
 3024POPC   NC340607  43.066  32.573   5.366
 3024POPC   PO440608  42.986  31.935   5.292
 3024POPC   GL140609  43.043  32.166   5.733
 3024POPC   GL240610  42.800  32.452   5.789
 3024POPC   C1A40611  43.209  32.158   6.225
 3024POPC   D2A40612  43.454  32.332   6.647
 3024POPC   C3A40613  43.342  32.301   7.131
 3024POPC   C4A40614  43.133  32.434   7.553
 3024POPC   C1B40615  42.686  32.086   6.085
 3024POPC   C2B40616  42.764  32.078   6.506
 3024POPC   C3B40617  42.914  32.277   6.828
 3024POPC   C4B40618  42.859  32.146   7.232
 3025POPC   NC340619   0.845  30.643   5.449
 3025POPC   PO440620   0.195  30.496   5.339
 3025POPC   GL140621   0.412  30.739   5.690
 3025POPC   GL240622   0.589  30.494   5.872
 3025POPC   C1A40623   0.472  30.920   6.128
 3025POPC   D2A40624   0.518  31.081   6.564
 3025POPC   C3A40625   0.576  30.787   6.887
 3025POPC   C4A40626   0.479  30.643   7.289
 3025POPC   C1B40627   0.977  30.321   6.062
 3025POPC   C2B40628   1.143  30.237   6.474
 3025POPC   C3B40629   1.074  30.167   6.907
 3025POPC   C4B40630   0.842  30.293   7.267
 3026POPC   NC340631   9.117  44.837   5.193
 3026POPC   PO440632   8.854  44.207   5.226
 3026POPC   GL140633   8.817  44.466   5.653
 3026POPC   GL240634   8.898  44.823   5.762
 3026POPC   C1A40635   8.925  44.492   6.123
 3026POPC   D2A40636   8.976  44.326   6.528
 3026POPC   C3A40637   8.960  44.507   6.908
 3026POPC   C4A40638   8.894  44.655   7.315
 3026POPC   C1B40639   8.925   0.018   6.182
 3026POPC   C2B40640   9.073  44.952   6.609
 3026POPC   C3B40641   8.986   0.045   7.025
 3026POPC   C4B40642   9.231   0.088   7.425
 3027POPC   NC340643  12.235  35.913   5.175
 3027POPC   PO440644  12.145  36.450   5.442
 3027POPC   GL140645  12.087  36.233   5.841
 3027POPC   GL240646  12.050  35.908   5.794
 3027POPC   C1A40647  12.272  36.061   6.236
 3027POPC   D2A40648  12.021  36.039   6.600
 3027POPC   C3A40649  11.967  36.316   6.930
 3027POPC   C4A40650  12.331  36.092   7.111
 3027POPC   C1B40651  11.842  35.739   6.206
 3027POPC   C2B40652  11.918  35.562   6.653
 3027POPC   C3B40653  11.906  35.817   7.091
 3027POPC   C4B40654  11.968  35.891   7.562
 3028POPC   NC340655  34.482   8.118   5.554
 3028POPC   PO440656  34.930   8.584   5.559
 3028POPC   GL140657  34.640   8.435   5.918
 3028POPC   GL240658  34.255   8.409   5.906
 3028POPC   C1A40659  34.511   8.482   6.338
 3028POPC   D2A40660  34.722   8.345   6.667
 3028POPC   C3A40661  34.520   8.509   7.026
 3028POPC   C4A40662  34.772   8.372   7.369
 3028POPC   C1B40663  34.333   8.009   6.191
 3028POPC   C2B40664  34.535   7.892   6.581
 3028POPC   C3B40665  34.578   8.010   7.021
 3028POPC   C4B40666  34.215   7.938   7.255
 3029POPC   NC340667  12.387  24.994   5.534
 3029POPC   PO440668  11.803  25.169   5.384
 3029POPC   GL140669  11.941  25.176   5.828
 3029POPC   GL240670  12.236  25.380   5.914
 3029POPC   C1A40671  11.997  25.087   6.283
 3029POPC   D2A40672  12.132  25.115   6.715
 3029POPC   C3A40673  11.834  25.391   6.939
 3029POPC   C4A40674  11.809  25.664   7.276
 3029POPC   C1B40675  12.454  25.430   6.314
 3029POPC   C2B40676  12.307  25.611   6.707
 3029POPC   C3B40677  12.320  25.429   7.090
 3029POPC   C4B40678  12.244  25.029   7.283
 3030POPC   NC340679  37.021  14.449   5.053
 3030POPC   PO440680  36.922  14.176   5.626
 3030POPC   GL140681  37.038  14.462   5.886
 3030POPC   GL240682  36.739  14.497   6.072
 3030POPC   C1A40683  37.205  14.377   6.282
 3030POPC   D2A40684  37.251  14.269   6.692
 3030POPC   C3A40685  36.895  14.140   6.931
 3030POPC   C4A40686  36.971  14.218   7.348
 3030POPC   C1B40687  36.567  14.484   6.482
 3030POPC   C2B40688  36.486  14.810   6.790
 3030POPC   C3B40689  36.423  14.806   7.234
 3030POPC   C4B40690  36.603  14.538   7.536
 3031POPC   NC340691   1.562  31.117   5.404
 3031POPC   PO440692   0.838  31.096   5.569
 3031POPC   GL140693   0.948  30.842   5.920
 3031POPC   GL240694   1.241  30.665   5.781
 3031POPC   C1A40695   0.856  30.702   6.378
 3031POPC   D2A40696   1.077  30.663   6.775
 3031POPC   C3A40697   0.981  30.776   7.230
 3031POPC   C4A40698   0.784  30.760   7.689
 3031POPC   C1B40699   1.345  30.731   6.211
 3031POPC   C2B40700   1.499  30.988   6.543
 3031POPC   C3B40701   1.462  30.906   6.972
 3031POPC   C4B40702   1.419  30.501   7.153
 3032POPC   NC340703  24.152   8.467   5.583
 3032POPC   PO440704  24.564   7.816   5.568
 3032POPC   GL140705  24.554   8.120   5.942
 3032POPC   GL240706  24.258   8.309   6.088
 3032POPC   C1A40707  24.637   8.183   6.410
 3032POPC   D2A40708  24.451   8.424   6.768
 3032POPC   C3A40709  24.448   8.256   7.207
 3032POPC   C4A40710  24.700   8.296   7.603
 3032POPC   C1B40711  24.213   7.888   6.334
 3032POPC   C2B40712  24.130   7.872   6.785
 3032POPC   C3B40713  23.993   8.287   6.942
 3032POPC   C4B40714  23.966   8.573   7.230
 3033POPC   NC340715  41.186   4.421   5.113
 3033POPC   PO440716  41.750   4.434   5.399
 3033POPC   GL140717  41.880   4.421   5.838
 3033POPC   GL240718  41.786   4.108   5.950
 3033POPC   C1A40719  41.731   4.479   6.315
 3033POPC   D2A40720  41.635   4.223   6.731
 3033POPC   C3A40721  41.619   4.318   7.173
 3033POPC   C4A40722  41.652   4.666   7.473
 3033POPC   C1B40723  41.437   4.044   6.284
 3033POPC   C2B40724  41.198   3.967   6.710
 3033POPC   C3B40725  41.227   3.954   7.185
 3033POPC   C4B40726  41.132   3.817   7.631
 3034POPC   NC340727  21.985  37.488   5.340
 3034POPC   PO440728  22.520  37.554   5.748
 3034POPC   GL140729  22.075  37.738   5.779
 3034POPC   GL240730  21.767  37.518   5.827
 3034POPC   C1A40731  21.871  37.930   6.133
 3034POPC   D2A40732  21.799  37.733   6.534
 3034POPC   C3A40733  22.120  37.749   6.855
 3034POPC   C4A40734  22.266  37.873   7.267
 3034POPC   C1B40735  22.061  37.458   6.193
 3034POPC   C2B40736  22.381  37.501   6.481
 3034POPC   C3B40737  22.438  37.319   6.876
 3034POPC   C4B40738  22.265  37.349   7.271
 3035POPC   NC340739  44.979  32.536   5.476
 3035POPC   PO440740   0.582  32.059   5.483
 3035POPC   GL140741   0.329  32.050   5.866
 3035POPC   GL240742   0.191  32.374   5.908
 3035POPC   C1A40743   0.435  32.136   6.321
 3035POPC   D2A40744   0.523  31.996   6.754
 3035POPC   C3A40745   0.530  32.318   7.061
 3035POPC   C4A40746   0.290  32.217   7.407
 3035POPC   C1B40747   0.008  32.454   6.304
 3035POPC   C2B40748   0.128  32.351   6.726
 3035POPC   C3B40749   0.081  32.569   7.110
 3035POPC   C4B40750   0.344  32.700   7.460
 3036POPC   NC340751  10.554  12.112   5.551
 3036POPC   PO440752  10.150  11.619   5.255
 3036POPC   GL140753  10.270  11.753   5.782
 3036POPC   GL240754  10.235  12.145   5.978
 3036POPC   C1A40755  10.497  11.817   6.225
 3036POPC   D2A40756  10.459  11.722   6.648
 3036POPC   C3A40757  10.267  11.979   6.943
 3036POPC   C4A40758  10.674  12.031   7.145
 3036POPC   C1B40759  10.183  12.195   6.454
 3036POPC   C2B40760  10.387  12.436   6.818
 3036POPC   C3B40761  10.367  12.426   7.291
 3036POPC   C4B40762  10.340  12.456   7.751
 3037POPC   NC340763  35.465  18.503   5.436
 3037POPC   PO440764  34.853  18.142   5.510
 3037POPC   GL140765  35.261  18.182   5.770
 3037POPC   GL240766  35.552  17.905   5.773
 3037POPC   C1A40767  35.222  18.383   6.191
 3037POPC   D2A40768  34.975  18.222   6.542
 3037POPC   C3A40769  35.214  18.159   6.929
 3037POPC   C4A40770  35.152  18.232   7.360
 3037POPC   C1B40771  35.625  18.030   6.241
 3037POPC   C2B40772  35.587  18.359   6.579
 3037POPC   C3B40773  35.560  18.544   7.014
 3037POPC   C4B40774  35.659  18.210   7.287
 3038POPC   NC340775  38.711  37.724   5.460
 3038POPC   PO440776  38.083  37.441   5.393
 3038POPC   GL140777  38.311  37.586   5.728
 3038POPC   GL240778  38.378  37.310   5.875
 3038POPC   C1A40779  38.572  37.738   6.103
 3038POPC   D2A40780  38.728  38.045   6.429
 3038POPC   C3A40781  38.497  37.943   6.802
 3038POPC   C4A40782  38.506  37.749   7.235
 3038POPC   C1B40783  38.244  37.207   6.268
 3038POPC   C2B40784  38.459  37.276   6.690
 3038POPC   C3B40785  38.394  37.209   7.129
 3038POPC   C4B40786  38.088  37.337   7.392
 3039POPC   NC340787  33.776  19.416   5.313
 3039POPC   PO440788  34.143  18.910   5.634
 3039POPC   GL140789  33.790  18.923   5.852
 3039POPC   GL240790  33.623  19.242   5.775
 3039POPC   C1A40791  33.788  19.009   6.266
 3039POPC   D2A40792  33.610  18.814   6.590
 3039POPC   C3A40793  33.764  19.007   6.967
 3039POPC   C4A40794  34.115  19.174   7.176
 3039POPC   C1B40795  33.648  19.498   6.149
 3039POPC   C2B40796  33.782  19.650   6.543
 3039POPC   C3B40797  33.791  19.521   6.972
 3039POPC   C4B40798  33.462  19.350   7.237
 3040POPC   NC340799  15.189  26.058   5.313
 3040POPC   PO440800  15.775  25.726   5.410
 3040POPC   GL140801  15.450  25.908   5.758
 3040POPC   GL240802  15.055  25.963   5.832
 3040POPC   C1A40803  15.319  25.868   6.241
 3040POPC   D2A40804  15.167  26.094   6.617
 3040POPC   C3A40805  15.353  26.073   7.029
 3040POPC   C4A40806  15.179  25.948   7.424
 3040POPC   C1B40807  14.811  25.907   6.256
 3040POPC   C2B40808  14.845  25.684   6.675
 3040POPC   C3B40809  14.846  25.679   7.142
 3040POPC   C4B40810  14.884  25.563   7.614
 3041POPC   NC340811  13.550  43.524   5.431
 3041POPC   PO440812  13.850  42.905   5.296
 3041POPC   GL140813  13.679  42.996   5.711
 3041POPC   GL240814  13.325  43.117   5.752
 3041POPC   C1A40815  13.896  42.964   6.117
 3041POPC   D2A40816  14.010  43.132   6.523
 3041POPC   C3A40817  13.889  42.996   6.944
 3041POPC   C4A40818  13.835  43.208   7.342
 3041POPC   C1B40819  13.455  43.230   6.203
 3041POPC   C2B40820  13.455  43.089   6.662
 3041POPC   C3B40821  13.379  43.244   7.114
 3041POPC   C4B40822  13.417  43.192   7.608
 3042POPC   NC340823  18.632  26.870   5.486
 3042POPC   PO440824  18.042  26.683   5.517
 3042POPC   GL140825  18.105  26.926   5.878
 3042POPC   GL240826  18.441  27.017   5.910
 3042POPC   C1A40827  18.180  26.954   6.343
 3042POPC   D2A40828  17.948  27.141   6.684
 3042POPC   C3A40829  18.067  26.945   7.097
 3042POPC   C4A40830  18.148  26.554   7.326
 3042POPC   C1B40831  18.670  27.222   6.177
 3042POPC   C2B40832  18.533  27.335   6.551
 3042POPC   C3B40833  18.601  27.146   6.928
 3042POPC   C4B40834  18.574  27.336   7.313
 3043POPC   NC340835  26.074  30.535   5.088
 3043POPC   PO440836  25.667  31.067   5.445
 3043POPC   GL140837  25.958  30.811   5.678
 3043POPC   GL240838  25.698  30.815   5.944
 3043POPC   C1A40839  26.218  30.668   6.053
 3043POPC   D2A40840  26.305  30.680   6.532
 3043POPC   C3A40841  25.991  30.513   6.852
 3043POPC   C4A40842  25.815  30.465   7.286
 3043POPC   C1B40843  25.671  31.123   6.286
 3043POPC   C2B40844  25.892  31.042   6.667
 3043POPC   C3B40845  25.925  30.959   7.114
 3043POPC   C4B40846  25.867  30.899   7.570
 3044POPC   NC340847   6.535  14.587   5.352
 3044POPC   PO440848   6.972  14.166   5.295
 3044POPC   GL140849   6.738  14.231   5.720
 3044POPC   GL240850   6.568  13.912   5.828
 3044POPC   C1A40851   6.543  14.405   6.142
 3044POPC   D2A40852   6.634  14.409   6.620
 3044POPC   C3A40853   6.547  14.567   7.086
 3044POPC   C4A40854   6.773  14.398   7.486
 3044POPC   C1B40855   6.282  13.959   6.196
 3044POPC   C2B40856   6.387  13.875   6.624
 3044POPC   C3B40857   6.508  14.072   6.992
 3044POPC   C4B40858   6.385  13.980   7.388
 3045POPC   NC340859  23.428  22.473   5.476
 3045POPC   PO440860  23.888  22.007   5.637
 3045POPC   GL140861  23.933  22.404   5.853
 3045POPC   GL240862  23.595  22.366   5.944
 3045POPC   C1A40863  23.935  22.519   6.289
 3045POPC   D2A40864  23.633  22.386   6.588
 3045POPC   C3A40865  23.790  22.302   6.983
 3045POPC   C4A40866  23.874  22.638   7.244
 3045POPC   C1B40867  23.541  22.017   6.234
 3045POPC   C2B40868  23.472  21.751   6.610
 3045POPC   C3B40869  23.362  21.706   7.039
 3045POPC   C4B40870  23.476  21.848   7.432
 3046POPC   NC340871  23.070  38.660   5.402
 3046POPC   PO440872  22.455  38.535   5.569
 3046POPC   GL140873  22.820  38.471   5.820
 3046POPC   GL240874  23.135  38.308   5.752
 3046POPC   C1A40875  22.840  38.382   6.233
 3046POPC   D2A40876  22.638  38.494   6.588
 3046POPC   C3A40877  22.917  38.625   6.897
 3046POPC   C4A40878  22.776  38.621   7.329
 3046POPC   C1B40879  23.293  38.587   6.058
 3046POPC   C2B40880  23.271  38.507   6.504
 3046POPC   C3B40881  23.401  38.473   6.948
 3046POPC   C4B40882  23.296  38.698   7.334
 3047POPC   NC340883  44.249   8.221   5.370
 3047POPC   PO440884  44.714   8.523   5.309
 3047POPC   GL140885  44.524   8.427   5.764
 3047POPC   GL240886  44.153   8.476   5.820
 3047POPC   C1A40887  44.643   8.325   6.238
 3047POPC   D2A40888  44.769   8.122   6.675
 3047POPC   C3A40889  44.762   8.193   7.150
 3047POPC   C4A40890  44.640   8.089   7.589
 3047POPC   C1B40891  44.132   8.270   6.201
 3047POPC   C2B40892  44.283   8.328   6.612
 3047POPC   C3B40893  44.300   8.361   7.032
 3047POPC   C4B40894  44.232   8.012   7.283
 3048POPC   NC340895   5.725  25.623   5.522
 3048POPC   PO440896   6.177  25.167   5.349
 3048POPC   GL140897   5.886  25.152   5.698
 3048POPC   GL240898   6.144  25.271   5.901
 3048POPC   C1A40899   5.651  25.026   6.101
 3048POPC   D2A40900   5.570  25.292   6.512
 3048POPC   C3A40901   5.468  25.172   6.943
 3048POPC   C4A40902   5.485  25.318   7.399
 3048POPC   C1B40903   6.063  25.242   6.331
 3048POPC   C2B40904   6.047  25.313   6.783
 3048POPC   C3B40905   6.229  25.427   7.190
 3048POPC   C4B40906   5.939  25.531   7.493
 3049POPC   NC340907  32.096  30.890   5.378
 3049POPC   PO440908  32.709  30.552   5.302
 3049POPC   GL140909  32.304  30.600   5.736
 3049POPC   GL240910  32.115  30.935   5.857
 3049POPC   C1A40911  32.141  30.629   6.226
 3049POPC   D2A40912  32.324  30.818   6.608
 3049POPC   C3A40913  32.109  30.611   6.949
 3049POPC   C4A40914  32.251  30.330   7.268
 3049POPC   C1B40915  32.069  31.156   6.255
 3049POPC   C2B40916  31.884  31.041   6.660
 3049POPC   C3B40917  32.132  31.114   7.056
 3049POPC   C4B40918  32.391  30.844   7.322
 3050POPC   NC340919   5.553  38.679   5.266
 3050POPC   PO440920   4.873  38.716   5.383
 3050POPC   GL140921   5.157  38.553   5.675
 3050POPC   GL240922   5.304  38.867   5.763
 3050POPC   C1A40923   5.116  38.288   6.067
 3050POPC   D2A40924   5.235  38.403   6.504
 3050POPC   C3A40925   5.025  38.300   6.885
 3050POPC   C4A40926   5.170  38.388   7.291
 3050POPC   C1B40927   5.152  38.793   6.151
 3050POPC   C2B40928   5.207  38.933   6.543
 3050POPC   C3B40929   5.177  38.780   6.948
 3050POPC   C4B40930   4.854  38.800   7.269
 3051POPC   NC340931  16.975  10.929   5.333
 3051POPC   PO440932  16.398  10.814   5.322
 3051POPC   GL140933  16.642  10.768   5.744
 3051POPC   GL240934  17.019  10.827   5.834
 3051POPC   C1A40935  16.693  10.475   6.119
 3051POPC   D2A40936  16.960  10.371   6.496
 3051POPC   C3A40937  16.773  10.483   6.913
 3051POPC   C4A40938  16.345  10.646   7.010
 3051POPC   C1B40939  16.832  10.951   6.242
 3051POPC   C2B40940  16.619  10.902   6.649
 3051POPC   C3B40941  16.821  10.972   7.058
 3051POPC   C4B40942  17.278  10.918   7.154
 3052POPC   NC340943  39.997  37.107   5.220
 3052POPC   PO440944  40.485  36.680   5.446
 3052POPC   GL140945  40.123  36.854   5.728
 3052POPC   GL240946  40.127  37.153   5.810
 3052POPC   C1A40947  39.797  36.901   6.114
 3052POPC   D2A40948  39.711  36.824   6.545
 3052POPC   C3A40949  39.864  36.893   6.973
 3052POPC   C4A40950  39.705  37.054   7.386
 3052POPC   C1B40951  40.293  36.876   6.198
 3052POPC   C2B40952  40.449  36.940   6.591
 3052POPC   C3B40953  40.324  37.130   6.939
 3052POPC   C4B40954  40.229  37.048   7.366
 3053POPC   NC340955  20.849  31.699   5.253
 3053POPC   PO440956  20.301  31.382   5.569
 3053POPC   GL140957  20.677  31.554   5.730
 3053POPC   GL240958  20.542  31.855   5.634
 3053POPC   C1A40959  20.821  31.461   6.146
 3053POPC   D2A40960  20.560  31.288   6.478
 3053POPC   C3A40961  20.666  31.517   6.825
 3053POPC   C4A40962  20.653  31.440   7.248
 3053POPC   C1B40963  20.359  31.800   6.061
 3053POPC   C2B40964  20.235  31.733   6.467
 3053POPC   C3B40965  20.376  31.948   6.799
 3053POPC   C4B40966  20.425  31.881   7.184
 3054POPC   NC340967   7.194  12.214   5.575
 3054POPC   PO440968   7.657  11.770   5.311
 3054POPC   GL140969   7.666  12.138   5.719
 3054POPC   GL240970   7.715  11.978   5.943
 3054POPC   C1A40971   7.454  12.326   6.184
 3054POPC   D2A40972   7.540  12.280   6.672
 3054POPC   C3A40973   7.303  12.388   7.024
 3054POPC   C4A40974   7.002  12.264   7.285
 3054POPC   C1B40975   7.641  11.859   6.355
 3054POPC   C2B40976   7.339  11.709   6.634
 3054POPC   C3B40977   7.372  11.890   7.018
 3054POPC   C4B40978   7.722  12.168   7.204
 3055POPC   NC340979   3.737  42.798   5.437
 3055POPC   PO440980   3.575  42.203   5.146
 3055POPC   GL140981   3.500  42.287   5.680
 3055POPC   GL240982   3.625  42.613   5.879
 3055POPC   C1A40983   3.609  42.232   6.176
 3055POPC   D2A40984   3.336  42.040   6.482
 3055POPC   C3A40985   3.365  42.281   6.813
 3055POPC   C4A40986   3.210  42.300   7.224
 3055POPC   C1B40987   3.646  42.717   6.340
 3055POPC   C2B40988   3.786  42.657   6.764
 3055POPC   C3B40989   3.821  42.875   7.162
 3055POPC   C4B40990   3.506  42.749   7.478
 3056POPC   NC340991  43.591  19.416   5.331
 3056POPC   PO440992  43.876  18.760   5.237
 3056POPC   GL140993  43.946  18.956   5.666
 3056POPC   GL240994  44.252  19.152   5.722
 3056POPC   C1A40995  43.938  19.072   6.132
 3056POPC   D2A40996  43.925  19.316   6.499
 3056POPC   C3A40997  43.815  19.131   6.885
 3056POPC   C4A40998  43.723  19.405   7.225
 3056POPC   C1B40999  44.436  19.267   6.124
 3056POPC   C2B41000  44.418  19.444   6.551
 3056POPC   C3B41001  44.314  19.262   6.946
 3056POPC   C4B41002  44.174  19.227   7.391
 3057POPC   NC341003  25.415   4.683   5.538
 3057POPC   PO441004  25.669   4.073   5.395
 3057POPC   GL141005  25.458   4.158   5.810
 3057POPC   GL241006  25.081   4.053   5.850
 3057POPC   C1A41007  25.306   4.418   6.196
 3057POPC   D2A41008  25.246   4.529   6.660
 3057POPC   C3A41009  25.446   4.290   7.032
 3057POPC   C4A41010  25.439   4.151   7.503
 3057POPC   C1B41011  24.748   4.231   6.155
 3057POPC   C2B41012  24.569   4.151   6.571
 3057POPC   C3B41013  24.818   4.130   6.944
 3057POPC   C4B41014  25.016   4.318   7.301
 3058POPC   NC341015  34.608  19.895   5.593
 3058POPC   PO441016  34.047  19.790   5.185
 3058POPC   GL141017  33.775  19.888   5.592
 3058POPC   GL241018  33.994  19.716   5.830
 3058POPC   C1A41019  33.632  20.014   6.055
 3058POPC   D2A41020  33.639  20.231   6.486
 3058POPC   C3A41021  33.615  19.996   6.901
 3058POPC   C4A41022  33.560  19.974   7.378
 3058POPC   C1B41023  34.102  19.930   6.250
 3058POPC   C2B41024  34.087  20.031   6.719
 3058POPC   C3B41025  34.044  19.918   7.173
 3058POPC   C4B41026  33.877  19.593   7.483
 3059POPC   NC341027  12.692  18.200   5.295
 3059POPC   PO441028  13.167  18.657   5.464
 3059POPC   GL141029  13.012  18.324   5.799
 3059POPC   GL241030  12.654  18.192   5.806
 3059POPC   C1A41031  13.112  18.057   6.221
 3059POPC   D2A41032  13.297  18.137   6.637
 3059POPC   C3A41033  13.066  18.050   7.028
 3059POPC   C4A41034  12.894  18.265   7.401
 3059POPC   C1B41035  12.720  18.378   6.218
 3059POPC   C2B41036  12.781  18.180   6.619
 3059POPC   C3B41037  12.570  18.133   7.004
 3059POPC   C4B41038  12.370  18.138   7.399
 3060POPC   NC341039  29.536  29.209   5.421
 3060POPC   PO441040  28.920  29.088   5.408
 3060POPC   GL141041  29.097  29.164   5.790
 3060POPC   GL241042  28.966  29.484   5.759
 3060POPC   C1A41043  29.165  28.964   6.190
 3060POPC   D2A41044  29.243  28.778   6.600
 3060POPC   C3A41045  29.082  28.915   6.992
 3060POPC   C4A41046  29.240  28.956   7.395
 3060POPC   C1B41047  29.115  29.547   6.160
 3060POPC   C2B41048  29.128  29.341   6.532
 3060POPC   C3B41049  29.285  29.385   6.897
 3060POPC   C4B41050  29.126  29.533   7.256
 3061POPC   NC341051  16.511  30.258   5.192
 3061POPC   PO441052  16.670  30.857   5.424
 3061POPC   GL141053  16.636  30.546   5.770
 3061POPC   GL241054  16.334  30.391   5.696
 3061POPC   C1A41055  16.816  30.411   6.186
 3061POPC   D2A41056  17.070  30.430   6.580
 3061POPC   C3A41057  17.043  30.714   6.927
 3061POPC   C4A41058  16.823  30.920   7.276
 3061POPC   C1B41059  16.301  30.459   6.184
 3061POPC   C2B41060  16.533  30.403   6.597
 3061POPC   C3B41061  16.543  30.541   7.018
 3061POPC   C4B41062  16.442  30.589   7.440
 3062POPC   NC341063  33.812  37.511   5.128
 3062POPC   PO441064  33.916  36.890   5.406
 3062POPC   GL141065  33.940  36.985   5.806
 3062POPC   GL241066  33.741  37.235   5.769
 3062POPC   C1A41067  33.969  36.790   6.185
 3062POPC   D2A41068  33.841  36.426   6.427
 3062POPC   C3A41069  33.743  36.558   6.825
 3062POPC   C4A41070  33.826  36.852   7.151
 3062POPC   C1B41071  33.717  37.258   6.229
 3062POPC   C2B41072  33.767  37.126   6.681
 3062POPC   C3B41073  33.697  37.357   7.086
 3062POPC   C4B41074  33.761  37.237   7.514
 3063POPC   NC341075  42.222  34.983   5.323
 3063POPC   PO441076  42.750  35.266   5.437
 3063POPC   GL141077  42.510  35.410   5.757
 3063POPC   GL241078  42.376  35.073   5.794
 3063POPC   C1A41079  42.517  35.601   6.171
 3063POPC   D2A41080  42.276  35.576   6.548
 3063POPC   C3A41081  42.458  35.580   6.943
 3063POPC   C4A41082  42.238  35.343   7.247
 3063POPC   C1B41083  42.112  35.293   6.081
 3063POPC   C2B41084  41.973  35.167   6.469
 3063POPC   C3B41085  42.107  35.075   6.839
 3063POPC   C4B41086  41.861  34.983   7.212
 3064POPC   NC341087  10.438  42.554   5.309
 3064POPC   PO441088  10.959  42.118   5.175
 3064POPC   GL141089  10.751  42.362   5.641
 3064POPC   GL241090  10.389  42.438   5.793
 3064POPC   C1A41091  10.769  42.454   6.127
 3064POPC   D2A41092  10.801  42.168   6.509
 3064POPC   C3A41093  10.786  42.370   6.915
 3064POPC   C4A41094  10.872  42.228   7.379
 3064POPC   C1B41095  10.252  42.368   6.219
 3064POPC   C2B41096  10.315  42.313   6.676
 3064POPC   C3B41097  10.380  42.656   6.998
 3064POPC   C4B41098  10.613  42.652   7.368
 3065POPC   NC341099  21.462   2.758   5.207
 3065POPC   PO441100  21.049   2.379   5.445
 3065POPC   GL141101  21.173   2.739   5.721
 3065POPC   GL241102  21.471   2.972   5.678
 3065POPC   C1A41103  21.196   2.764   6.160
 3065POPC   D2A41104  21.339   2.604   6.565
 3065POPC   C3A41105  21.286   2.902   6.869
 3065POPC   C4A41106  21.198   2.851   7.242
 3065POPC   C1B41107  21.666   2.968   6.093
 3065POPC   C2B41108  21.646   3.046   6.530
 3065POPC   C3B41109  21.786   2.726   6.796
 3065POPC   C4B41110  21.729   2.761   7.197
 3066POPC   NC341111  42.570  24.354   5.474
 3066POPC   PO441112  41.965  24.592   5.625
 3066POPC   GL141113  42.294  24.550   5.891
 3066POPC   GL241114  42.282  24.215   5.886
 3066POPC   C1A41115  42.212  24.456   6.320
 3066POPC   D2A41116  42.220  24.703   6.665
 3066POPC   C3A41117  42.294  24.477   7.027
 3066POPC   C4A41118  42.043  24.566   7.369
 3066POPC   C1B41119  42.691  24.181   6.099
 3066POPC   C2B41120  42.899  24.139   6.486
 3066POPC   C3B41121  42.792  24.353   6.864
 3066POPC   C4B41122  42.691  24.259   7.288
 3067POPC   NC341123  31.597   8.966   5.409
 3067POPC   PO441124  30.973   8.728   5.564
 3067POPC   GL141125  31.298   8.969   5.846
 3067POPC   GL241126  31.594   9.235   5.829
 3067POPC   C1A41127  31.562   8.878   6.240
 3067POPC   D2A41128  31.851   8.542   6.478
 3067POPC   C3A41129  31.793   8.583   6.952
 3067POPC   C4A41130  31.409   8.749   7.131
 3067POPC   C1B41131  31.581   9.423   6.221
 3067POPC   C2B41132  31.385   9.297   6.584
 3067POPC   C3B41133  31.506   9.383   6.990
 3067POPC   C4B41134  31.793   9.117   7.216
 3068POPC   NC341135  37.139   8.027   5.434
 3068POPC   PO441136  36.457   8.394   5.561
 3068POPC   GL141137  36.856   8.294   5.747
 3068POPC   GL241138  36.944   7.949   5.877
 3068POPC   C1A41139  37.023   8.357   6.148
 3068POPC   D2A41140  36.826   8.297   6.554
 3068POPC   C3A41141  36.962   8.466   6.927
 3068POPC   C4A41142  36.699   8.244   7.232
 3068POPC   C1B41143  37.232   7.886   6.180
 3068POPC   C2B41144  37.136   7.756   6.555
 3068POPC   C3B41145  37.117   7.978   6.892
 3068POPC   C4B41146  37.203   8.150   7.265
 3069POPC   NC341147  41.010  39.531   5.436
 3069POPC   PO441148  40.623  38.963   5.378
 3069POPC   GL141149  40.684  39.241   5.756
 3069POPC   GL241150  41.018  39.300   5.885
 3069POPC   C1A41151  40.573  39.092   6.166
 3069POPC   D2A41152  40.286  39.207   6.501
 3069POPC   C3A41153  40.441  39.087   6.892
 3069POPC   C4A41154  40.727  39.236   7.186
 3069POPC   C1B41155  40.830  39.533   6.210
 3069POPC   C2B41156  40.830  39.378   6.636
 3069POPC   C3B41157  41.086  39.524   6.971
 3069POPC   C4B41158  40.997  39.741   7.337
 3070POPC   NC341159   6.017  44.252   5.586
 3070POPC   PO441160   5.675  43.642   5.769
 3070POPC   GL141161   5.978  43.894   5.954
 3070POPC   GL241162   5.747  44.142   6.002
 3070POPC   C1A41163   6.114  44.035   6.360
 3070POPC   D2A41164   5.990  43.876   6.773
 3070POPC   C3A41165   6.158  43.980   7.164
 3070POPC   C4A41166   6.340  43.895   7.576
 3070POPC   C1B41167   5.608  43.898   6.394
 3070POPC   C2B41168   5.549  43.570   6.730
 3070POPC   C3B41169   5.674  43.702   7.139
 3070POPC   C4B41170   5.664  44.165   7.124
 3071POPC   NC341171  13.750  30.713   5.375
 3071POPC   PO441172  13.645  30.060   5.407
 3071POPC   GL141173  13.553  30.361   5.730
 3071POPC   GL241174  13.865  30.530   5.851
 3071POPC   C1A41175  13.460  30.545   6.137
 3071POPC   D2A41176  13.538  30.343   6.497
 3071POPC   C3A41177  13.552  30.566   6.866
 3071POPC   C4A41178  13.341  30.934   7.051
 3071POPC   C1B41179  13.893  30.792   6.273
 3071POPC   C2B41180  13.874  30.937   6.720
 3071POPC   C3B41181  13.895  30.805   7.162
 3071POPC   C4B41182  13.719  30.929   7.586
 3072POPC   NC341183  11.460   8.191   5.451
 3072POPC   PO441184  10.837   7.920   5.418
 3072POPC   GL141185  11.156   8.021   5.827
 3072POPC   GL241186  11.330   8.379   5.901
 3072POPC   C1A41187  11.274   8.057   6.294
 3072POPC   D2A41188  11.298   7.896   6.715
 3072POPC   C3A41189  11.178   8.180   6.973
 3072POPC   C4A41190  11.122   8.408   7.332
 3072POPC   C1B41191  11.688   8.362   6.225
 3072POPC   C2B41192  11.608   8.296   6.642
 3072POPC   C3B41193  11.678   8.249   7.047
 3072POPC   C4B41194  11.604   8.298   7.493
 3073POPC   NC341195  17.242  37.385   5.419
 3073POPC   PO441196  17.688  36.870   5.368
 3073POPC   GL141197  17.664  37.075   5.761
 3073POPC   GL241198  17.331  36.951   5.852
 3073POPC   C1A41199  17.627  37.112   6.232
 3073POPC   D2A41200  17.310  36.952   6.513
 3073POPC   C3A41201  17.492  37.034   6.906
 3073POPC   C4A41202  17.505  37.211   7.292
 3073POPC   C1B41203  17.677  36.653   6.064
 3073POPC   C2B41204  17.733  36.670   6.533
 3073POPC   C3B41205  17.572  36.529   6.926
 3073POPC   C4B41206  17.368  36.655   7.295
 3074POPC   NC341207  20.124  33.584   5.642
 3074POPC   PO441208  20.733  33.717   5.422
 3074POPC   GL141209  20.697  33.805   5.835
 3074POPC   GL241210  20.913  34.076   5.870
 3074POPC   C1A41211  20.683  33.714   6.291
 3074POPC   D2A41212  20.817  33.926   6.672
 3074POPC   C3A41213  20.846  33.689   7.060
 3074POPC   C4A41214  20.702  33.818   7.482
 3074POPC   C1B41215  20.556  34.200   6.165
 3074POPC   C2B41216  20.345  34.062   6.544
 3074POPC   C3B41217  20.356  33.959   6.975
 3074POPC   C4B41218  20.430  34.221   7.305
 3075POPC   NC341219  13.290  16.833   5.681
 3075POPC   PO441220  13.806  16.838   5.237
 3075POPC   GL141221  13.792  16.929   5.665
 3075POPC   GL241222  13.723  16.582   5.780
 3075POPC   C1A41223  13.918  16.982   6.107
 3075POPC   D2A41224  14.085  16.818   6.500
 3075POPC   C3A41225  13.783  16.878   6.827
 3075POPC   C4A41226  13.663  17.006   7.258
 3075POPC   C1B41227  13.569  16.545   6.223
 3075POPC   C2B41228  13.368  16.591   6.632
 3075POPC   C3B41229  13.471  16.540   7.067
 3075POPC   C4B41230  13.470  16.562   7.494
 3076POPC   NC341231  41.662  39.910   5.538
 3076POPC   PO441232  41.012  40.291   5.535
 3076POPC   GL141233  41.299  40.073   5.845
 3076POPC   GL241234  41.672  40.142   5.995
 3076POPC   C1A41235  41.327  39.829   6.209
 3076POPC   D2A41236  41.520  39.930   6.622
 3076POPC   C3A41237  41.326  39.976   7.038
 3076POPC   C4A41238  41.331  40.116   7.494
 3076POPC   C1B41239  41.837  39.759   6.235
 3076POPC   C2B41240  41.911  39.586   6.681
 3076POPC   C3B41241  41.828  39.872   7.065
 3076POPC   C4B41242  41.808  39.942   7.563
 3077POPC   NC341243  38.719  35.378   5.534
 3077POPC   PO441244  38.019  35.455   5.532
 3077POPC   GL141245  38.300  35.317   5.855
 3077POPC   GL241246  38.517  35.035   5.939
 3077POPC   C1A41247  38.571  35.451   6.213
 3077POPC   D2A41248  38.905  35.329   6.516
 3077POPC   C3A41249  38.647  35.277   6.879
 3077POPC   C4A41250  38.479  35.572   7.161
 3077POPC   C1B41251  38.188  35.068   6.294
 3077POPC   C2B41252  37.983  35.349   6.626
 3077POPC   C3B41253  38.015  35.320   7.070
 3077POPC   C4B41254  38.339  35.082   7.273
 3078POPC   NC341255  31.310  28.496   5.330
 3078POPC   PO441256  31.481  27.911   5.513
 3078POPC   GL141257  31.512  28.213   5.811
 3078POPC   GL241258  31.165  28.310   5.792
 3078POPC   C1A41259  31.590  28.172   6.273
 3078POPC   D2A41260  31.577  28.342   6.715
 3078POPC   C3A41261  31.335  28.144   7.085
 3078POPC   C4A41262  31.290  28.110   7.566
 3078POPC   C1B41263  31.298  28.573   6.146
 3078POPC   C2B41264  31.103  28.525   6.548
 3078POPC   C3B41265  31.235  28.654   6.958
 3078POPC   C4B41266  31.128  28.560   7.362
 3079POPC   NC341267  17.636  41.853   5.448
 3079POPC   PO441268  17.224  42.436   5.464
 3079POPC   GL141269  17.269  42.353   5.843
 3079POPC   GL241270  17.250  42.026   5.825
 3079POPC   C1A41271  17.298  42.420   6.263
 3079POPC   D2A41272  17.319  42.238   6.660
 3079POPC   C3A41273  17.596  42.507   6.893
 3079POPC   C4A41274  17.569  42.729   7.302
 3079POPC   C1B41275  17.654  42.074   6.104
 3079POPC   C2B41276  17.829  42.075   6.532
 3079POPC   C3B41277  17.792  41.981   6.955
 3079POPC   C4B41278  17.427  42.072   7.175
 3080POPC   NC341279  13.696  25.429   5.360
 3080POPC   PO441280  13.077  25.210   5.382
 3080POPC   GL141281  13.396  25.095   5.710
 3080POPC   GL241282  13.541  25.436   5.836
 3080POPC   C1A41283  13.459  25.078   6.191
 3080POPC   D2A41284  13.474  25.397   6.564
 3080POPC   C3A41285  13.570  25.246   6.985
 3080POPC   C4A41286  13.355  24.922   7.210
 3080POPC   C1B41287  13.917  25.313   6.101
 3080POPC   C2B41288  13.945  25.266   6.560
 3080POPC   C3B41289  13.891  25.618   6.835
 3080POPC   C4B41290  13.943  25.533   7.253
 3081POPC   NC341291  24.910  33.130   5.428
 3081POPC   PO441292  25.596  33.146   5.612
 3081POPC   GL141293  25.204  33.208   5.826
 3081POPC   GL241294  25.204  32.848   5.794
 3081POPC   C1A41295  25.070  33.468   6.156
 3081POPC   D2A41296  25.438  33.368   6.396
 3081POPC   C3A41297  25.507  33.327   6.814
 3081POPC   C4A41298  25.324  33.271   7.196
 3081POPC   C1B41299  25.420  32.816   6.210
 3081POPC   C2B41300  25.299  32.894   6.644
 3081POPC   C3B41301  25.218  32.764   7.078
 3081POPC   C4B41302  25.461  32.772   7.462
 3082POPC   NC341303   0.005  13.549   5.505
 3082POPC   PO441304  44.330  13.791   5.543
 3082POPC   GL141305  44.527  13.791   5.916
 3082POPC   GL241306  44.676  13.486   5.899
 3082POPC   C1A41307  44.637  13.772   6.349
 3082POPC   D2A41308  44.377  13.497   6.613
 3082POPC   C3A41309  44.459  13.584   7.022
 3082POPC   C4A41310  44.791  13.862   7.184
 3082POPC   C1B41311   0.029  13.390   6.156
 3082POPC   C2B41312   0.094  13.287   6.587
 3082POPC   C3B41313  44.958  13.389   7.013
 3082POPC   C4B41314  44.674  13.211   7.332
 3083POPC   NC341315  12.279   8.070   5.376
 3083POPC   PO441316  11.807   8.503   5.547
 3083POPC   GL141317  12.073   8.279   5.819
 3083POPC   GL241318  11.781   8.076   5.828
 3083POPC   C1A41319  12.226   8.272   6.258
 3083POPC   D2A41320  12.086   8.098   6.657
 3083POPC   C3A41321  12.350   8.169   7.021
 3083POPC   C4A41322  12.139   8.410   7.302
 3083POPC   C1B41323  11.608   7.765   6.043
 3083POPC   C2B41324  11.701   7.777   6.455
 3083POPC   C3B41325  11.749   7.739   6.912
 3083POPC   C4B41326  11.946   7.935   7.322
 3084POPC   NC341327  42.099  40.971   5.746
 3084POPC   PO441328  42.396  40.614   5.224
 3084POPC   GL141329  42.391  40.511   5.706
 3084POPC   GL241330  42.065  40.486   5.889
 3084POPC   C1A41331  42.601  40.518   6.148
 3084POPC   D2A41332  42.581  40.809   6.555
 3084POPC   C3A41333  42.509  40.616   6.976
 3084POPC   C4A41334  42.475  40.451   7.420
 3084POPC   C1B41335  42.145  40.649   6.313
 3084POPC   C2B41336  41.968  40.875   6.619
 3084POPC   C3B41337  41.990  40.700   7.021
 3084POPC   C4B41338  42.165  40.872   7.375
 3085POPC   NC341339   3.014  21.796   5.433
 3085POPC   PO441340   2.534  22.223   5.424
 3085POPC   GL141341   2.710  22.312   5.808
 3085POPC   GL241342   3.065  22.264   5.748
 3085POPC   C1A41343   2.557  22.223   6.207
 3085POPC   D2A41344   2.364  21.957   6.449
 3085POPC   C3A41345   2.419  22.083   6.835
 3085POPC   C4A41346   2.656  21.970   7.189
 3085POPC   C1B41347   3.057  22.162   6.183
 3085POPC   C2B41348   2.897  22.136   6.603
 3085POPC   C3B41349   3.124  22.092   7.007
 3085POPC   C4B41350   3.045  22.104   7.490
 3086POPC   NC341351  14.126  24.808   5.456
 3086POPC   PO441352  14.238  24.231   5.623
 3086POPC   GL141353  14.442  24.507   5.896
 3086POPC   GL241354  14.327  24.829   5.939
 3086POPC   C1A41355  14.457  24.503   6.344
 3086POPC   D2A41356  14.229  24.349   6.711
 3086POPC   C3A41357  14.514  24.363   7.077
 3086POPC   C4A41358  14.870  24.191   7.331
 3086POPC   C1B41359  14.291  24.979   6.349
 3086POPC   C2B41360  14.366  24.846   6.769
 3086POPC   C3B41361  14.405  24.845   7.212
 3086POPC   C4B41362  14.148  24.568   7.486
 3087POPC   NC341363  23.599  13.248   5.602
 3087POPC   PO441364  23.625  12.601   5.340
 3087POPC   GL141365  23.728  12.769   5.786
 3087POPC   GL241366  23.882  13.097   5.987
 3087POPC   C1A41367  23.820  12.655   6.207
 3087POPC   D2A41368  23.684  12.625   6.605
 3087POPC   C3A41369  23.872  12.777   6.965
 3087POPC   C4A41370  23.614  12.721   7.303
 3087POPC   C1B41371  23.590  13.215   6.295
 3087POPC   C2B41372  23.540  13.270   6.741
 3087POPC   C3B41373  23.640  13.199   7.156
 3087POPC   C4B41374  23.920  13.186   7.501
 3088POPC   NC341375  22.732  40.219   5.398
 3088POPC   PO441376  22.879  39.512   5.275
 3088POPC   GL141377  22.917  39.776   5.697
 3088POPC   GL241378  23.235  39.861   5.804
 3088POPC   C1A41379  22.898  39.836   6.189
 3088POPC   D2A41380  23.029  39.778   6.644
 3088POPC   C3A41381  22.817  39.805   7.051
 3088POPC   C4A41382  22.687  40.161   7.206
 3088POPC   C1B41383  23.328  40.149   6.171
 3088POPC   C2B41384  23.269  40.439   6.502
 3088POPC   C3B41385  23.061  40.283   6.858
 3088POPC   C4B41386  23.206  40.176   7.241
 3089POPC   NC341387   0.355  37.986   5.306
 3089POPC   PO441388   0.418  37.301   5.210
 3089POPC   GL141389   0.537  37.563   5.633
 3089POPC   GL241390   0.721  37.909   5.718
 3089POPC   C1A41391   0.481  37.533   6.114
 3089POPC   D2A41392   0.287  37.352   6.497
 3089POPC   C3A41393   0.262  37.580   6.905
 3089POPC   C4A41394   0.433  37.500   7.352
 3089POPC   C1B41395   0.794  37.923   6.198
 3089POPC   C2B41396   0.697  37.716   6.632
 3089POPC   C3B41397   0.613  37.915   7.071
 3089POPC   C4B41398   0.584  37.988   7.552
 3090POPC   NC341399  10.965  38.394   5.538
 3090POPC   PO441400  11.440  38.862   5.443
 3090POPC   GL141401  11.157  38.848   5.764
 3090POPC   GL241402  11.373  38.597   5.937
 3090POPC   C1A41403  10.974  38.831   6.142
 3090POPC   D2A41404  11.106  38.543   6.457
 3090POPC   C3A41405  11.207  38.679   6.874
 3090POPC   C4A41406  11.279  38.375   7.196
 3090POPC   C1B41407  11.710  38.358   6.157
 3090POPC   C2B41408  11.758  38.059   6.479
 3090POPC   C3B41409  11.528  38.081   6.825
 3090POPC   C4B41410  11.722  38.127   7.183
 3091POPC   NC341411  24.730  21.810   5.404
 3091POPC   PO441412  25.294  21.399   5.372
 3091POPC   GL141413  25.347  21.345   5.826
 3091POPC   GL241414  25.336  21.007   5.803
 3091POPC   C1A41415  25.398  21.455   6.308
 3091POPC   D2A41416  25.451  21.509   6.792
 3091POPC   C3A41417  25.180  21.542   7.150
 3091POPC   C4A41418  25.223  21.559   7.591
 3091POPC   C1B41419  25.035  21.085   6.155
 3091POPC   C2B41420  25.016  21.266   6.595
 3091POPC   C3B41421  25.180  21.074   6.955
 3091POPC   C4B41422  25.010  21.094   7.363
 3092POPC   NC341423  25.364  14.936   5.444
 3092POPC   PO441424  25.070  15.553   5.435
 3092POPC   GL141425  25.168  15.329   5.833
 3092POPC   GL241426  25.020  14.985   5.857
 3092POPC   C1A41427  25.470  15.244   6.206
 3092POPC   D2A41428  25.478  15.361   6.668
 3092POPC   C3A41429  25.659  15.055   6.964
 3092POPC   C4A41430  25.684  14.840   7.380
 3092POPC   C1B41431  24.984  15.144   6.302
 3092POPC   C2B41432  25.116  14.986   6.693
 3092POPC   C3B41433  25.184  15.172   7.077
 3092POPC   C4B41434  25.071  15.469   7.370
 3093POPC   NC341435  12.293  19.999   5.519
 3093POPC   PO441436  11.657  19.934   5.367
 3093POPC   GL141437  11.841  19.849   5.770
 3093POPC   GL241438  12.071  19.532   5.727
 3093POPC   C1A41439  11.952  20.098   6.152
 3093POPC   D2A41440  12.287  20.097   6.474
 3093POPC   C3A41441  12.164  19.954   6.885
 3093POPC   C4A41442  11.808  19.917   7.161
 3093POPC   C1B41443  12.280  19.689   6.106
 3093POPC   C2B41444  12.460  19.593   6.516
 3093POPC   C3B41445  12.263  19.453   6.879
 3093POPC   C4B41446  12.389  19.471   7.291
 3094POPC   NC341447  41.174  36.184   5.555
 3094POPC   PO441448  40.562  35.882   5.164
 3094POPC   GL141449  40.567  36.083   5.597
 3094POPC   GL241450  40.814  35.988   5.853
 3094POPC   C1A41451  40.510  36.342   5.997
 3094POPC   D2A41452  40.602  36.483   6.404
 3094POPC   C3A41453  40.494  36.183   6.710
 3094POPC   C4A41454  40.649  36.177   7.113
 3094POPC   C1B41455  40.971  36.148   6.223
 3094POPC   C2B41456  41.009  36.228   6.661
 3094POPC   C3B41457  41.125  36.010   7.041
 3094POPC   C4B41458  41.010  36.049   7.458
 3095POPC   NC341459   1.225  44.855   5.393
 3095POPC   PO441460   0.932  44.230   5.491
 3095POPC   GL141461   1.096  44.489   5.801
 3095POPC   GL241462   0.854  44.292   5.978
 3095POPC   C1A41463   1.406  44.642   6.134
 3095POPC   D2A41464   1.700  44.436   6.468
 3095POPC   C3A41465   1.499  44.433   6.893
 3095POPC   C4A41466   1.392  44.822   7.154
 3095POPC   C1B41467   1.038  44.369   6.337
 3095POPC   C2B41468   0.924  44.656   6.640
 3095POPC   C3B41469   0.991  44.549   7.034
 3095POPC   C4B41470   0.958  44.709   7.441
 3096POPC   NC341471  38.427  15.272   5.397
 3096POPC   PO441472  38.991  15.632   5.466
 3096POPC   GL141473  38.829  15.309   5.794
 3096POPC   GL241474  38.579  15.036   5.814
 3096POPC   C1A41475  38.684  15.256   6.246
 3096POPC   D2A41476  38.368  15.330   6.573
 3096POPC   C3A41477  38.612  15.316   6.955
 3096POPC   C4A41478  38.813  15.102   7.275
 3096POPC   C1B41479  38.222  15.035   6.133
 3096POPC   C2B41480  38.074  14.884   6.540
 3096POPC   C3B41481  38.234  14.946   6.942
 3096POPC   C4B41482  38.135  15.304   7.173
 3097POPC   NC341483  35.145  13.811   5.312
 3097POPC   PO441484  35.631  13.368   5.394
 3097POPC   GL141485  35.412  13.587   5.705
 3097POPC   GL241486  35.647  13.733   5.936
 3097POPC   C1A41487  35.138  13.700   6.043
 3097POPC   D2A41488  35.067  13.585   6.478
 3097POPC   C3A41489  35.093  13.846   6.845
 3097POPC   C4A41490  35.167  13.833   7.280
 3097POPC   C1B41491  35.490  13.983   6.312
 3097POPC   C2B41492  35.579  14.006   6.768
 3097POPC   C3B41493  35.572  13.650   7.052
 3097POPC   C4B41494  35.822  13.495   7.371
 3098POPC   NC341495  26.534  34.416   5.643
 3098POPC   PO441496  27.085  34.864   5.476
 3098POPC   GL141497  26.859  34.778   5.881
 3098POPC   GL241498  26.529  34.921   5.920
 3098POPC   C1A41499  26.819  34.502   6.282
 3098POPC   D2A41500  26.712  34.213   6.639
 3098POPC   C3A41501  26.858  34.380   7.045
 3098POPC   C4A41502  26.665  34.474   7.443
 3098POPC   C1B41503  26.511  34.913   6.359
 3098POPC   C2B41504  26.638  34.744   6.712
 3098POPC   C3B41505  26.672  34.875   7.115
 3098POPC   C4B41506  27.055  34.828   7.274
 3099POPC   NC341507  22.344   2.387   5.279
 3099POPC   PO441508  21.896   2.910   5.308
 3099POPC   GL141509  22.005   2.778   5.728
 3099POPC   GL241510  22.347   2.677   5.740
 3099POPC   C1A41511  22.078   2.661   6.172
 3099POPC   D2A41512  22.119   2.964   6.464
 3099POPC   C3A41513  22.250   2.906   6.908
 3099POPC   C4A41514  22.223   2.559   7.215
 3099POPC   C1B41515  22.558   2.473   6.104
 3099POPC   C2B41516  22.497   2.629   6.534
 3099POPC   C3B41517  22.678   2.626   6.949
 3099POPC   C4B41518  22.708   2.416   7.370
 3100POPC   NC341519  35.459  34.826   5.349
 3100POPC   PO441520  35.227  34.214   5.597
 3100POPC   GL141521  35.450  34.224   5.970
 3100POPC   GL241522  35.124  34.285   6.115
 3100POPC   C1A41523  35.575  34.441   6.352
 3100POPC   D2A41524  35.260  34.566   6.679
 3100POPC   C3A41525  35.119  34.316   7.020
 3100POPC   C4A41526  35.501  34.291   7.301
 3100POPC   C1B41527  34.939  34.672   6.276
 3100POPC   C2B41528  34.768  34.730   6.675
 3100POPC   C3B41529  34.901  34.913   7.045
 3100POPC   C4B41530  35.275  34.756   7.217
 3101POPC   NC341531  29.334  13.261   5.502
 3101POPC   PO441532  28.912  12.702   5.496
 3101POPC   GL141533  29.164  12.861   5.827
 3101POPC   GL241534  28.922  13.115   5.851
 3101POPC   C1A41535  29.347  12.845   6.252
 3101POPC   D2A41536  29.211  12.945   6.685
 3101POPC   C3A41537  29.388  12.773   7.058
 3101POPC   C4A41538  29.504  12.425   7.332
 3101POPC   C1B41539  28.832  12.999   6.296
 3101POPC   C2B41540  28.722  13.095   6.735
 3101POPC   C3B41541  28.867  13.023   7.179
 3101POPC   C4B41542  28.797  13.114   7.627
 3102POPC   NC341543  32.353  21.055   5.637
 3102POPC   PO441544  32.375  21.665   5.377
 3102POPC   GL141545  32.182  21.532   5.770
 3102POPC   GL241546  32.525  21.535   5.860
 3102POPC   C1A41547  32.219  21.319   6.201
 3102POPC   D2A41548  32.200  21.069   6.518
 3102POPC   C3A41549  32.093  21.235   6.902
 3102POPC   C4A41550  32.143  21.114   7.314
 3102POPC   C1B41551  32.681  21.599   6.264
 3102POPC   C2B41552  32.477  21.486   6.623
 3102POPC   C3B41553  32.288  21.704   6.944
 3102POPC   C4B41554  32.395  21.569   7.302
 3103POPC   NC341555   5.762   4.703   5.221
 3103POPC   PO441556   5.659   5.380   5.331
 3103POPC   GL141557   5.684   5.106   5.803
 3103POPC   GL241558   5.914   4.817   5.836
 3103POPC   C1A41559   5.725   4.945   6.303
 3103POPC   D2A41560   5.752   4.716   6.748
 3103POPC   C3A41561   5.726   4.863   7.210
 3103POPC   C4A41562   5.911   5.188   7.528
 3103POPC   C1B41563   6.121   4.650   6.213
 3103POPC   C2B41564   6.234   4.783   6.652
 3103POPC   C3B41565   6.134   4.583   7.072
 3103POPC   C4B41566   6.042   4.668   7.551
 3104POPC   NC341567  33.265  20.726   5.391
 3104POPC   PO441568  32.554  20.682   5.482
 3104POPC   GL141569  32.746  20.558   5.837
 3104POPC   GL241570  33.107  20.483   5.819
 3104POPC   C1A41571  32.919  20.642   6.247
 3104POPC   D2A41572  33.141  20.535   6.598
 3104POPC   C3A41573  32.885  20.638   6.953
 3104POPC   C4A41574  32.958  20.870   7.264
 3104POPC   C1B41575  33.150  20.163   6.186
 3104POPC   C2B41576  33.163  20.021   6.642
 3104POPC   C3B41577  33.226  20.268   7.031
 3104POPC   C4B41578  33.130  20.432   7.409
 3105POPC   NC341579   4.637  18.405   5.507
 3105POPC   PO441580   4.135  17.983   5.457
 3105POPC   GL141581   4.295  18.142   5.821
 3105POPC   GL241582   4.297  18.482   5.897
 3105POPC   C1A41583   4.402  18.041   6.224
 3105POPC   D2A41584   4.530  18.319   6.541
 3105POPC   C3A41585   4.671  18.071   6.904
 3105POPC   C4A41586   4.463  17.806   7.231
 3105POPC   C1B41587   4.591  18.738   6.154
 3105POPC   C2B41588   4.776  18.824   6.576
 3105POPC   C3B41589   4.625  18.606   6.956
 3105POPC   C4B41590   4.501  18.335   7.306
 3106POPC   NC341591  41.143  40.221   5.105
 3106POPC   PO441592  40.630  39.790   5.348
 3106POPC   GL141593  40.836  39.859   5.770
 3106POPC   GL241594  40.554  39.815   5.864
 3106POPC   C1A41595  40.873  40.067   6.191
 3106POPC   D2A41596  40.990  39.866   6.580
 3106POPC   C3A41597  40.811  40.010   6.925
 3106POPC   C4A41598  40.872  40.236   7.312
 3106POPC   C1B41599  40.374  40.102   6.177
 3106POPC   C2B41600  40.480  40.258   6.585
 3106POPC   C3B41601  40.333  40.194   7.016
 3106POPC   C4B41602  40.493  39.837   7.268
 3107POPC   NC341603  16.617   0.654   4.975
 3107POPC   PO441604  16.959   0.049   5.093
 3107POPC   GL141605  16.874   0.039   5.566
 3107POPC   GL241606  16.727   0.369   5.622
 3107POPC   C1A41607  16.791   0.057   6.050
 3107POPC   D2A41608  16.861   0.252   6.511
 3107POPC   C3A41609  16.717   0.029   6.946
 3107POPC   C4A41610  16.574   0.191   7.373
 3107POPC   C1B41611  16.942   0.561   6.009
 3107POPC   C2B41612  16.924   0.838   6.393
 3107POPC   C3B41613  16.742   0.852   6.827
 3107POPC   C4B41614  16.803   0.620   7.215
 3108POPC   NC341615  34.913  17.492   5.305
 3108POPC   PO441616  35.553  17.392   5.431
 3108POPC   GL141617  35.244  17.434   5.787
 3108POPC   GL241618  35.043  17.718   5.740
 3108POPC   C1A41619  35.136  17.383   6.260
 3108POPC   D2A41620  35.314  17.264   6.686
 3108POPC   C3A41621  35.473  17.546   7.056
 3108POPC   C4A41622  35.405  17.405   7.501
 3108POPC   C1B41623  35.139  17.873   6.148
 3108POPC   C2B41624  35.242  17.786   6.571
 3108POPC   C3B41625  35.001  17.651   6.916
 3108POPC   C4B41626  35.044  17.729   7.363
 3109POPC   NC341627   0.830  34.167   5.389
 3109POPC   PO441628   1.324  33.616   5.300
 3109POPC   GL141629   1.143  33.800   5.719
 3109POPC   GL241630   1.172  34.144   5.763
 3109POPC   C1A41631   1.262  33.828   6.181
 3109POPC   D2A41632   1.180  33.713   6.619
 3109POPC   C3A41633   1.440  33.845   6.967
 3109POPC   C4A41634   1.342  33.953   7.433
 3109POPC   C1B41635   0.951  34.243   6.139
 3109POPC   C2B41636   0.894  34.153   6.582
 3109POPC   C3B41637   1.005  34.077   7.039
 3109POPC   C4B41638   0.893  34.230   7.483
 3110POPC   NC341639  40.088  36.433   5.467
 3110POPC   PO441640  40.012  35.795   5.600
 3110POPC   GL141641  39.977  36.155   5.903
 3110POPC   GL241642  39.766  36.466   5.845
 3110POPC   C1A41643  40.104  36.386   6.288
 3110POPC   D2A41644  40.128  36.558   6.678
 3110POPC   C3A41645  40.068  36.273   7.006
 3110POPC   C4A41646  40.228  35.883   7.147
 3110POPC   C1B41647  39.613  36.412   6.248
 3110POPC   C2B41648  39.651  36.316   6.672
 3110POPC   C3B41649  39.583  36.441   7.079
 3110POPC   C4B41650  39.738  36.164   7.382
 3111POPC   NC341651  11.462  11.706   5.447
 3111POPC   PO441652  10.831  11.743   5.653
 3111POPC   GL141653  11.078  12.029   5.913
 3111POPC   GL241654  11.392  12.168   5.780
 3111POPC   C1A41655  11.343  12.065   6.284
 3111POPC   D2A41656  11.528  11.889   6.677
 3111POPC   C3A41657  11.194  11.890   7.005
 3111POPC   C4A41658  11.090  11.813   7.451
 3111POPC   C1B41659  11.605  12.468   6.102
 3111POPC   C2B41660  11.678  12.367   6.535
 3111POPC   C3B41661  11.500  12.345   6.937
 3111POPC   C4B41662  11.627  12.496   7.345
 3112POPC   NC341663   6.319   8.356   5.125
 3112POPC   PO441664   6.801   8.027   5.539
 3112POPC   GL141665   6.778   8.004   5.971
 3112POPC   GL241666   6.833   8.345   5.990
 3112POPC   C1A41667   6.619   8.129   6.381
 3112POPC   D2A41668   6.772   8.341   6.728
 3112POPC   C3A41669   6.691   8.002   7.005
 3112POPC   C4A41670   6.331   7.962   7.234
 3112POPC   C1B41671   7.123   8.315   6.287
 3112POPC   C2B41672   7.278   8.364   6.685
 3112POPC   C3B41673   7.150   8.378   7.103
 3112POPC   C4B41674   6.757   8.409   7.283
 3113POPC   NC341675  41.878  16.014   5.369
 3113POPC   PO441676  42.565  15.973   5.221
 3113POPC   GL141677  42.511  15.854   5.655
 3113POPC   GL241678  42.179  15.730   5.702
 3113POPC   C1A41679  42.504  15.764   6.118
 3113POPC   D2A41680  42.300  15.684   6.507
 3113POPC   C3A41681  42.547  15.733   6.858
 3113POPC   C4A41682  42.371  15.711   7.246
 3113POPC   C1B41683  42.077  16.016   6.030
 3113POPC   C2B41684  42.189  16.171   6.450
 3113POPC   C3B41685  42.119  16.027   6.894
 3113POPC   C4B41686  42.272  16.207   7.284
 3114POPC   NC341687  15.297  21.330   5.420
 3114POPC   PO441688  14.818  20.892   5.537
 3114POPC   GL141689  14.939  20.979   5.987
 3114POPC   GL241690  15.256  21.178   5.911
 3114POPC   C1A41691  15.029  21.207   6.368
 3114POPC   D2A41692  15.197  21.588   6.544
 3114POPC   C3A41693  15.146  21.575   6.997
 3114POPC   C4A41694  14.958  21.226   7.213
 3114POPC   C1B41695  15.484  21.013   6.241
 3114POPC   C2B41696  15.517  21.201   6.625
 3114POPC   C3B41697  15.414  21.115   7.047
 3114POPC   C4B41698  15.389  21.362   7.449
 3115POPC   NC341699  42.888   0.037   5.484
 3115POPC   PO441700  43.221  44.481   5.174
 3115POPC   GL141701  42.986  44.536   5.660
 3115POPC   GL241702  43.123  44.801   5.858
 3115POPC   C1A41703  42.903  44.489   6.182
 3115POPC   D2A41704  42.679  44.517   6.632
 3115POPC   C3A41705  42.814  44.760   7.051
 3115POPC   C4A41706  42.716  44.562   7.496
 3115POPC   C1B41707  43.280  44.847   6.282
 3115POPC   C2B41708  43.165  44.669   6.666
 3115POPC   C3B41709  43.230  44.458   7.055
 3115POPC   C4B41710  43.539  44.458   7.370
 3116POPC   NC341711   1.387  21.893   5.264
 3116POPC   PO441712   0.988  22.386   5.575
 3116POPC   GL141713   1.323  22.187   5.801
 3116POPC   GL241714   1.101  22.001   5.929
 3116POPC   C1A41715   1.444  22.087   6.278
 3116POPC   D2A41716   1.408  21.807   6.644
 3116POPC   C3A41717   1.357  22.120   6.939
 3116POPC   C4A41718   1.389  22.213   7.363
 3116POPC   C1B41719   0.920  22.150   6.233
 3116POPC   C2B41720   0.944  21.972   6.604
 3116POPC   C3B41721   0.852  21.998   6.999
 3116POPC   C4B41722   0.891  22.343   7.238
 3117POPC   NC341723  31.355  22.571   5.644
 3117POPC   PO441724  31.730  23.100   5.625
 3117POPC   GL141725  31.553  22.889   5.999
 3117POPC   GL241726  31.175  22.929   5.965
 3117POPC   C1A41727  31.352  22.756   6.393
 3117POPC   D2A41728  31.208  22.896   6.775
 3117POPC   C3A41729  31.365  22.595   7.021
 3117POPC   C4A41730  31.763  22.719   7.160
 3117POPC   C1B41731  31.155  23.238   6.313
 3117POPC   C2B41732  31.420  23.354   6.660
 3117POPC   C3B41733  31.560  23.154   7.049
 3117POPC   C4B41734  31.314  22.924   7.390
 3118POPC   NC341735  21.190  30.776   5.077
 3118POPC   PO441736  21.432  30.786   5.672
 3118POPC   GL141737  21.343  30.541   5.983
 3118POPC   GL241738  21.432  30.211   5.896
 3118POPC   C1A41739  21.354  30.631   6.409
 3118POPC   D2A41740  21.445  30.929   6.714
 3118POPC   C3A41741  21.169  30.756   7.043
 3118POPC   C4A41742  21.343  30.668   7.451
 3118POPC   C1B41743  21.614  30.201   6.294
 3118POPC   C2B41744  21.495  30.199   6.724
 3118POPC   C3B41745  21.260  30.239   7.090
 3118POPC   C4B41746  21.343  30.178   7.535
 3119POPC   NC341747  44.992   9.797   5.520
 3119POPC   PO441748  44.422  10.196   5.502
 3119POPC   GL141749  44.552   9.959   5.854
 3119POPC   GL241750  44.330   9.719   5.760
 3119POPC   C1A41751  44.600   9.837   6.308
 3119POPC   D2A41752  44.735   9.642   6.706
 3119POPC   C3A41753  44.790   9.967   7.013
 3119POPC   C4A41754   0.150  10.197   7.131
 3119POPC   C1B41755  44.186   9.581   6.175
 3119POPC   C2B41756  44.224   9.628   6.625
 3119POPC   C3B41757  44.417   9.307   6.925
 3119POPC   C4B41758  44.606   9.558   7.238
 3120POPC   NC341759  38.962  27.967   5.624
 3120POPC   PO441760  39.420  27.489   5.498
 3120POPC   GL141761  39.280  27.555   5.866
 3120POPC   GL241762  39.409  27.855   5.876
 3120POPC   C1A41763  39.274  27.372   6.261
 3120POPC   D2A41764  39.149  27.618   6.609
 3120POPC   C3A41765  39.202  27.502   7.027
 3120POPC   C4A41766  39.088  27.550   7.450
 3120POPC   C1B41767  39.206  27.970   6.243
 3120POPC   C2B41768  38.850  28.046   6.463
 3120POPC   C3B41769  38.795  27.950   6.860
 3120POPC   C4B41770  38.975  27.981   7.217
 3121POPC   NC341771   0.865  21.947   5.502
 3121POPC   PO441772   0.154  21.957   5.350
 3121POPC   GL141773   0.428  22.231   5.657
 3121POPC   GL241774   0.558  21.985   5.901
 3121POPC   C1A41775   0.505  22.450   6.108
 3121POPC   D2A41776   0.509  22.218   6.540
 3121POPC   C3A41777   0.457  22.388   6.961
 3121POPC   C4A41778   0.097  22.302   7.220
 3121POPC   C1B41779   0.602  21.761   6.284
 3121POPC   C2B41780   0.511  21.678   6.715
 3121POPC   C3B41781   0.364  21.876   7.080
 3121POPC   C4B41782   0.501  22.047   7.479
 3122POPC   NC341783  31.690  23.559   5.573
 3122POPC   PO441784  31.200  24.072   5.506
 3122POPC   GL141785  31.367  23.846   5.846
 3122POPC   GL241786  31.676  24.032   5.885
 3122POPC   C1A41787  31.435  23.715   6.278
 3122POPC   D2A41788  31.528  23.942   6.653
 3122POPC   C3A41789  31.567  23.696   7.010
 3122POPC   C4A41790  31.221  23.499   7.120
 3122POPC   C1B41791  31.363  24.222   6.192
 3122POPC   C2B41792  31.089  24.169   6.561
 3122POPC   C3B41793  31.131  24.012   6.991
 3122POPC   C4B41794  30.973  24.207   7.349
 3123POPC   NC341795  20.405  22.992   5.031
 3123POPC   PO441796  20.860  22.729   5.261
 3123POPC   GL141797  20.849  22.751   5.725
 3123POPC   GL241798  20.557  22.932   5.867
 3123POPC   C1A41799  20.980  22.942   6.149
 3123POPC   D2A41800  20.790  23.175   6.498
 3123POPC   C3A41801  20.719  22.944   6.865
 3123POPC   C4A41802  20.941  23.025   7.192
 3123POPC   C1B41803  20.483  22.805   6.326
 3123POPC   C2B41804  20.234  22.894   6.728
 3123POPC   C3B41805  20.265  23.124   7.129
 3123POPC   C4B41806  20.146  23.209   7.577
 3124POPC   NC341807   6.069  38.935   5.412
 3124POPC   PO441808   5.753  38.243   5.340
 3124POPC   GL141809   5.663  38.389   5.771
 3124POPC   GL241810   5.789  38.700   5.760
 3124POPC   C1A41811   5.905  38.435   6.185
 3124POPC   D2A41812   6.215  38.489   6.490
 3124POPC   C3A41813   6.127  38.349   6.897
 3124POPC   C4A41814   6.187  38.485   7.287
 3124POPC   C1B41815   5.667  38.881   6.161
 3124POPC   C2B41816   5.672  38.693   6.589
 3124POPC   C3B41817   5.572  38.382   6.916
 3124POPC   C4B41818   5.687  38.383   7.340
 3125POPC   NC341819  29.284   9.422   5.407
 3125POPC   PO441820  28.621   9.655   5.434
 3125POPC   GL141821  28.916   9.645   5.823
 3125POPC   GL241822  29.300   9.630   5.871
 3125POPC   C1A41823  29.016   9.672   6.294
 3125POPC   D2A41824  29.256   9.511   6.626
 3125POPC   C3A41825  29.060   9.518   7.026
 3125POPC   C4A41826  29.165   9.676   7.420
 3125POPC   C1B41827  29.202  10.065   6.022
 3125POPC   C2B41828  29.147  10.169   6.486
 3125POPC   C3B41829  29.178  10.031   6.970
 3125POPC   C4B41830  28.961  10.135   7.389
 3126POPC   NC341831  40.633   8.478   5.251
 3126POPC   PO441832  40.966   7.926   5.411
 3126POPC   GL141833  41.153   8.069   5.826
 3126POPC   GL241834  40.939   8.338   5.734
 3126POPC   C1A41835  41.117   7.964   6.299
 3126POPC   D2A41836  40.746   7.915   6.549
 3126POPC   C3A41837  40.773   8.071   6.936
 3126POPC   C4A41838  40.694   7.930   7.349
 3126POPC   C1B41839  40.726   8.170   6.091
 3126POPC   C2B41840  40.685   8.407   6.499
 3126POPC   C3B41841  40.628   8.590   6.891
 3126POPC   C4B41842  40.724   8.446   7.278
 3127POPC   NC341843   4.165  14.805   5.483
 3127POPC   PO441844   4.597  15.275   5.463
 3127POPC   GL141845   4.352  15.173   5.829
 3127POPC   GL241846   4.361  15.511   5.944
 3127POPC   C1A41847   4.108  15.126   6.243
 3127POPC   D2A41848   4.340  14.972   6.609
 3127POPC   C3A41849   4.238  14.937   7.023
 3127POPC   C4A41850   4.238  15.338   7.229
 3127POPC   C1B41851   4.571  15.316   6.291
 3127POPC   C2B41852   4.820  15.167   6.632
 3127POPC   C3B41853   4.717  15.187   7.049
 3127POPC   C4B41854   4.855  15.261   7.472
 3128POPC   NC341855  42.724  29.998   5.142
 3128POPC   PO441856  42.193  29.938   5.458
 3128POPC   GL141857  42.094  30.014   5.850
 3128POPC   GL241858  41.933  29.727   5.969
 3128POPC   C1A41859  42.342  30.040   6.208
 3128POPC   D2A41860  42.185  29.963   6.601
 3128POPC   C3A41861  42.410  30.078   6.919
 3128POPC   C4A41862  42.361  30.417   7.103
 3128POPC   C1B41863  42.131  29.517   6.328
 3128POPC   C2B41864  42.430  29.540   6.703
 3128POPC   C3B41865  42.402  29.633   7.161
 3128POPC   C4B41866  42.500  29.635   7.601
 3129POPC   NC341867  31.522  34.059   5.364
 3129POPC   PO441868  31.139  33.505   5.582
 3129POPC   GL141869  31.268  33.884   5.850
 3129POPC   GL241870  31.615  33.999   5.851
 3129POPC   C1A41871  31.408  33.930   6.300
 3129POPC   D2A41872  31.485  33.982   6.730
 3129POPC   C3A41873  31.562  33.660   6.970
 3129POPC   C4A41874  31.276  33.624   7.293
 3129POPC   C1B41875  31.769  34.266   6.175
 3129POPC   C2B41876  31.930  34.213   6.595
 3129POPC   C3B41877  31.789  34.271   7.032
 3129POPC   C4B41878  31.660  33.991   7.358
 3130POPC   NC341879  32.900  26.126   5.391
 3130POPC   PO441880  33.304  25.704   5.166
 3130POPC   GL141881  33.052  25.739   5.693
 3130POPC   GL241882  32.888  26.105   5.901
 3130POPC   C1A41883  32.905  25.683   6.158
 3130POPC   D2A41884  32.821  26.036   6.465
 3130POPC   C3A41885  33.089  26.034   6.836
 3130POPC   C4A41886  33.308  25.646   6.936
 3130POPC   C1B41887  33.057  26.448   6.216
 3130POPC   C2B41888  33.206  26.537   6.652
 3130POPC   C3B41889  33.067  26.530   7.071
 3130POPC   C4B41890  32.767  26.239   7.208
 3131POPC   NC341891  24.969  36.168   5.639
 3131POPC   PO441892  25.592  36.007   5.411
 3131POPC   GL141893  25.399  35.812   5.772
 3131POPC   GL241894  25.090  35.722   5.898
 3131POPC   C1A41895  25.440  35.913   6.229
 3131POPC   D2A41896  25.507  36.241   6.552
 3131POPC   C3A41897  25.470  36.068   6.963
 3131POPC   C4A41898  25.175  36.268   7.224
 3131POPC   C1B41899  24.876  35.889   6.280
 3131POPC   C2B41900  25.021  35.983   6.696
 3131POPC   C3B41901  24.922  35.863   7.103
 3131POPC   C4B41902  24.908  35.965   7.575
 3132POPC   NC341903  40.711  43.362   5.601
 3132POPC   PO441904  41.139  42.865   5.462
 3132POPC   GL141905  41.035  43.035   5.836
 3132POPC   GL241906  41.218  43.329   5.861
 3132POPC   C1A41907  40.717  42.989   6.158
 3132POPC   D2A41908  40.684  42.766   6.534
 3132POPC   C3A41909  40.766  42.981   6.899
 3132POPC   C4A41910  40.677  42.856   7.298
 3132POPC   C1B41911  41.013  43.455   6.214
 3132POPC   C2B41912  41.046  43.587   6.634
 3132POPC   C3B41913  40.996  43.430   7.050
 3132POPC   C4B41914  40.601  43.354   7.238
 3133POPC   NC341915   3.475  24.181   5.533
 3133POPC   PO441916   3.348  23.589   5.310
 3133POPC   GL141917   3.549  23.692   5.743
 3133POPC   GL241918   3.349  23.924   5.948
 3133POPC   C1A41919   3.734  23.714   6.191
 3133POPC   D2A41920   3.635  23.849   6.615
 3133POPC   C3A41921   3.813  23.734   7.030
 3133POPC   C4A41922   3.867  23.949   7.453
 3133POPC   C1B41923   3.209  23.551   6.144
 3133POPC   C2B41924   3.194  23.407   6.560
 3133POPC   C3B41925   3.308  23.616   6.919
 3133POPC   C4B41926   3.418  23.494   7.284
 3134POPC   NC341927  28.568  28.803   5.500
 3134POPC   PO441928  28.187  28.334   5.244
 3134POPC   GL141929  28.277  28.422   5.681
 3134POPC   GL241930  28.273  28.107   5.823
 3134POPC   C1A41931  28.415  28.584   6.112
 3134POPC   D2A41932  28.266  28.674   6.550
 3134POPC   C3A41933  28.464  28.766   6.966
 3134POPC   C4A41934  28.130  28.731   7.315
 3134POPC   C1B41935  28.107  28.170   6.208
 3134POPC   C2B41936  28.240  28.059   6.613
 3134POPC   C3B41937  28.661  28.007   6.799
 3134POPC   C4B41938  28.467  28.265   7.098
 3135POPC   NC341939  43.399  26.371   5.558
 3135POPC   PO441940  43.001  25.803   5.508
 3135POPC   GL141941  43.082  26.014   5.853
 3135POPC   GL241942  43.423  25.957   5.866
 3135POPC   C1A41943  43.131  25.914   6.291
 3135POPC   D2A41944  42.960  25.863   6.683
 3135POPC   C3A41945  42.929  26.191   7.003
 3135POPC   C4A41946  43.043  26.161   7.444
 3135POPC   C1B41947  43.400  26.322   6.175
 3135POPC   C2B41948  43.192  26.422   6.519
 3135POPC   C3B41949  43.328  26.497   6.916
 3135POPC   C4B41950  43.157  26.615   7.292
 3136POPC   NC341951  12.900  37.955   5.283
 3136POPC   PO441952  12.610  37.335   5.405
 3136POPC   GL141953  12.937  37.615   5.694
 3136POPC   GL241954  13.193  37.912   5.694
 3136POPC   C1A41955  13.092  37.542   6.118
 3136POPC   D2A41956  12.788  37.577   6.467
 3136POPC   C3A41957  12.961  37.604   6.871
 3136POPC   C4A41958  12.795  37.386   7.216
 3136POPC   C1B41959  12.960  38.065   6.065
 3136POPC   C2B41960  12.957  38.047   6.523
 3136POPC   C3B41961  12.714  38.061   6.897
 3136POPC   C4B41962  12.888  37.918   7.270
 3137POPC   NC341963  15.863  41.514   5.436
 3137POPC   PO441964  16.453  41.897   5.464
 3137POPC   GL141965  16.181  41.779   5.798
 3137POPC   GL241966  15.834  41.911   5.770
 3137POPC   C1A41967  16.061  41.420   6.077
 3137POPC   D2A41968  15.778  41.292   6.424
 3137POPC   C3A41969  15.918  41.295   6.874
 3137POPC   C4A41970  15.750  41.321   7.288
 3137POPC   C1B41971  15.847  41.862   6.219
 3137POPC   C2B41972  15.675  41.761   6.619
 3137POPC   C3B41973  15.725  41.774   7.027
 3137POPC   C4B41974  15.973  42.057   7.223
 3138POPC   NC341975   1.232  21.022   5.468
 3138POPC   PO441976   0.993  21.629   5.196
 3138POPC   GL141977   1.248  21.604   5.673
 3138POPC   GL241978   1.368  21.301   5.864
 3138POPC   C1A41979   1.135  21.597   6.205
 3138POPC   D2A41980   0.999  21.467   6.647
 3138POPC   C3A41981   1.245  21.430   6.983
 3138POPC   C4A41982   1.226  21.741   7.249
 3138POPC   C1B41983   1.115  21.075   6.178
 3138POPC   C2B41984   1.184  20.979   6.595
 3138POPC   C3B41985   0.945  21.019   6.964
 3138POPC   C4B41986   0.973  21.135   7.408
 3139POPC   NC341987  40.422  34.824   5.552
 3139POPC   PO441988  41.050  35.032   5.414
 3139POPC   GL141989  40.925  34.752   5.779
 3139POPC   GL241990  40.721  34.450   5.809
 3139POPC   C1A41991  40.766  34.767   6.223
 3139POPC   D2A41992  40.656  34.918   6.648
 3139POPC   C3A41993  40.761  34.711   7.069
 3139POPC   C4A41994  40.855  34.787   7.569
 3139POPC   C1B41995  40.936  34.292   6.187
 3139POPC   C2B41996  40.956  34.470   6.618
 3139POPC   C3B41997  40.976  34.221   6.986
 3139POPC   C4B41998  40.825  34.274   7.387
 3140POPC   NC341999  17.351  16.171   5.484
 3140POPC   PO442000  17.694  15.673   5.237
 3140POPC   GL142001  17.767  15.789   5.736
 3140POPC   GL242002  17.494  15.925   5.905
 3140POPC   C1A42003  17.794  15.652   6.215
 3140POPC   D2A42004  17.593  15.770   6.650
 3140POPC   C3A42005  17.704  15.552   7.070
 3140POPC   C4A42006  17.781  15.787   7.498
 3140POPC   C1B42007  17.628  16.139   6.270
 3140POPC   C2B42008  17.609  16.474   6.566
 3140POPC   C3B42009  17.392  16.322   6.892
 3140POPC   C4B42010  17.575  16.061   7.143
 3141POPC   NC342011   1.825  16.925   5.373
 3141POPC   PO442012   2.067  16.346   5.480
 3141POPC   GL142013   1.922  16.633   5.824
 3141POPC   GL242014   2.092  16.985   5.827
 3141POPC   C1A42015   2.030  16.605   6.291
 3141POPC   D2A42016   2.196  16.846   6.677
 3141POPC   C3A42017   2.095  16.632   7.070
 3141POPC   C4A42018   1.682  16.433   7.027
 3141POPC   C1B42019   1.887  17.077   6.230
 3141POPC   C2B42020   1.660  16.888   6.551
 3141POPC   C3B42021   1.712  16.944   6.938
 3141POPC   C4B42022   1.949  17.098   7.245
 3142POPC   NC342023  22.839  19.987   4.937
 3142POPC   PO442024  23.106  19.455   5.410
 3142POPC   GL142025  22.843  19.689   5.719
 3142POPC   GL242026  23.090  19.917   5.884
 3142POPC   C1A42027  22.651  19.884   6.105
 3142POPC   D2A42028  22.861  19.985   6.494
 3142POPC   C3A42029  22.681  19.885   6.892
 3142POPC   C4A42030  22.814  20.042   7.289
 3142POPC   C1B42031  23.208  19.663   6.240
 3142POPC   C2B42032  23.088  19.528   6.653
 3142POPC   C3B42033  23.090  19.633   7.079
 3142POPC   C4B42034  22.897  19.499   7.466
 3143POPC   NC342035  33.615  12.793   5.290
 3143POPC   PO442036  34.092  12.279   5.194
 3143POPC   GL142037  33.989  12.707   5.619
 3143POPC   GL242038  33.682  12.946   5.759
 3143POPC   C1A42039  33.940  12.821   6.144
 3143POPC   D2A42040  33.760  12.627   6.550
 3143POPC   C3A42041  33.786  12.833   6.944
 3143POPC   C4A42042  33.747  12.704   7.346
 3143POPC   C1B42043  33.607  13.212   6.139
 3143POPC   C2B42044  33.522  13.077   6.566
 3143POPC   C3B42045  33.556  13.279   7.015
 3143POPC   C4B42046  33.454  13.129   7.435
 3144POPC   NC342047  20.942   1.924   5.386
 3144POPC   PO442048  21.634   1.991   5.119
 3144POPC   GL142049  21.464   1.868   5.586
 3144POPC   GL242050  21.219   2.088   5.803
 3144POPC   C1A42051  21.539   1.813   6.070
 3144POPC   D2A42052  21.716   2.042   6.440
 3144POPC   C3A42053  21.580   2.210   6.868
 3144POPC   C4A42054  21.810   2.242   7.302
 3144POPC   C1B42055  21.286   2.232   6.225
 3144POPC   C2B42056  21.222   1.917   6.564
 3144POPC   C3B42057  21.092   1.828   6.982
 3144POPC   C4B42058  21.316   2.059   7.295
 3145POPC   NC342059  12.660  23.324   5.095
 3145POPC   PO442060  13.009  22.809   5.365
 3145POPC   GL142061  12.878  22.797   5.795
 3145POPC   GL242062  12.532  22.940   5.775
 3145POPC   C1A42063  13.010  22.886   6.214
 3145POPC   D2A42064  13.027  23.191   6.548
 3145POPC   C3A42065  13.029  22.957   6.924
 3145POPC   C4A42066  12.769  22.900   7.264
 3145POPC   C1B42067  12.498  22.705   6.162
 3145POPC   C2B42068  12.659  22.785   6.578
 3145POPC   C3B42069  12.394  22.830   6.948
 3145POPC   C4B42070  12.338  22.584   7.292
 3146POPC   NC342071   6.667   3.074   5.543
 3146POPC   PO442072   6.892   2.470   5.235
 3146POPC   GL142073   6.667   2.587   5.668
 3146POPC   GL242074   6.936   2.612   5.891
 3146POPC   C1A42075   6.519   2.826   6.125
 3146POPC   D2A42076   6.642   3.117   6.502
 3146POPC   C3A42077   6.486   3.114   6.943
 3146POPC   C4A42078   6.542   2.946   7.400
 3146POPC   C1B42079   7.035   2.869   6.238
 3146POPC   C2B42080   7.140   3.055   6.633
 3146POPC   C3B42081   7.009   3.088   7.065
 3146POPC   C4B42082   6.996   2.743   7.285
 3147POPC   NC342083  23.708   0.114   5.678
 3147POPC   PO442084  23.587   0.761   5.392
 3147POPC   GL142085  23.620   0.644   5.822
 3147POPC   GL242086  23.963   0.531   5.805
 3147POPC   C1A42087  23.545   0.606   6.290
 3147POPC   D2A42088  23.458   0.181   6.533
 3147POPC   C3A42089  23.543   0.182   6.988
 3147POPC   C4A42090  23.566   0.610   7.179
 3147POPC   C1B42091  23.955   0.307   6.240
 3147POPC   C2B42092  23.874   0.470   6.643
 3147POPC   C3B42093  24.013   0.375   7.002
 3147POPC   C4B42094  24.065   0.603   7.337
 3148POPC   NC342095  16.524   1.549   5.174
 3148POPC   PO442096  16.754   0.893   5.369
 3148POPC   GL142097  16.858   1.075   5.822
 3148POPC   GL242098  16.990   1.430   5.789
 3148POPC   C1A42099  16.662   1.255   6.215
 3148POPC   D2A42100  16.562   1.535   6.570
 3148POPC   C3A42101  16.512   1.306   6.963
 3148POPC   C4A42102  16.588   1.298   7.381
 3148POPC   C1B42103  17.156   1.331   6.221
 3148POPC   C2B42104  16.994   1.274   6.662
 3148POPC   C3B42105  16.943   1.564   7.020
 3148POPC   C4B42106  16.955   1.602   7.467
 3149POPC   NC342107   6.145   4.409   5.511
 3149POPC   PO442108   6.790   4.306   5.426
 3149POPC   GL142109   6.554   4.076   5.710
 3149POPC   GL242110   6.458   4.365   5.895
 3149POPC   C1A42111   6.646   3.960   6.134
 3149POPC   D2A42112   6.906   4.125   6.436
 3149POPC   C3A42113   6.657   3.979   6.765
 3149POPC   C4A42114   6.644   4.147   7.165
 3149POPC   C1B42115   6.612   4.528   6.260
 3149POPC   C2B42116   6.631   4.474   6.680
 3149POPC   C3B42117   6.634   4.684   7.006
 3149POPC   C4B42118   6.518   4.583   7.415
 3150POPC   NC342119  21.196  29.410   5.481
 3150POPC   PO442120  21.199  28.765   5.196
 3150POPC   GL142121  21.383  28.876   5.674
 3150POPC   GL242122  21.439  29.198   5.844
 3150POPC   C1A42123  21.678  28.849   6.075
 3150POPC   D2A42124  21.562  28.807   6.533
 3150POPC   C3A42125  21.565  29.077   6.906
 3150POPC   C4A42126  21.373  29.023   7.320
 3150POPC   C1B42127  21.264  29.172   6.234
 3150POPC   C2B42128  21.216  29.343   6.621
 3150POPC   C3B42129  21.030  29.208   6.982
 3150POPC   C4B42130  21.052  29.420   7.356
 3151POPC   NC342131   4.632  12.872   5.493
 3151POPC   PO442132   3.952  12.916   5.543
 3151POPC   GL142133   4.203  12.756   5.880
 3151POPC   GL242134   4.557  12.871   5.992
 3151POPC   C1A42135   4.250  12.634   6.311
 3151POPC   D2A42136   4.617  12.750   6.586
 3151POPC   C3A42137   4.481  12.725   7.006
 3151POPC   C4A42138   4.083  12.523   7.069
 3151POPC   C1B42139   4.231  13.132   6.243
 3151POPC   C2B42140   4.157  13.033   6.687
 3151POPC   C3B42141   4.199  13.183   7.098
 3151POPC   C4B42142   3.837  13.230   7.408
 3152POPC   NC342143  29.831  24.229   5.480
 3152POPC   PO442144  29.951  24.891   5.508
 3152POPC   GL142145  29.986  24.575   5.870
 3152POPC   GL242146  29.725  24.313   5.962
 3152POPC   C1A42147  29.988  24.482   6.342
 3152POPC   D2A42148  29.966  24.753   6.694
 3152POPC   C3A42149  29.874  24.554   7.067
 3152POPC   C4A42150  30.078  24.282   7.370
 3152POPC   C1B42151  29.502  24.613   6.227
 3152POPC   C2B42152  29.388  24.427   6.610
 3152POPC   C3B42153  29.434  24.200   7.000
 3152POPC   C4B42154  29.535  24.382   7.401
 3153POPC   NC342155  10.748  23.757   5.363
 3153POPC   PO442156  10.196  23.458   5.530
 3153POPC   GL142157  10.419  23.668   5.819
 3153POPC   GL242158  10.746  23.559   5.849
 3153POPC   C1A42159  10.500  23.829   6.231
 3153POPC   D2A42160  10.643  23.825   6.638
 3153POPC   C3A42161  10.318  23.756   6.931
 3153POPC   C4A42162  10.353  23.864   7.350
 3153POPC   C1B42163  10.931  23.552   6.269
 3153POPC   C2B42164  10.839  23.363   6.694
 3153POPC   C3B42165  10.796  23.580   7.100
 3153POPC   C4B42166  10.829  23.733   7.546
 3154POPC   NC342167  22.291  12.380   5.226
 3154POPC   PO442168  21.884  12.670   5.702
 3154POPC   GL142169  22.248  12.361   5.748
 3154POPC   GL242170  22.234  11.962   5.690
 3154POPC   C1A42171  22.231  12.204   6.154
 3154POPC   D2A42172  22.116  12.320   6.560
 3154POPC   C3A42173  22.316  12.183   6.941
 3154POPC   C4A42174  22.119  12.234   7.346
 3154POPC   C1B42175  22.353  11.730   6.103
 3154POPC   C2B42176  22.202  11.800   6.536
 3154POPC   C3B42177  22.286  11.680   6.972
 3154POPC   C4B42178  22.376  11.799   7.376
 3155POPC   NC342179  19.195  27.963   5.628
 3155POPC   PO442180  19.321  28.582   5.332
 3155POPC   GL142181  19.197  28.651   5.817
 3155POPC   GL242182  19.059  28.344   5.899
 3155POPC   C1A42183  19.052  28.658   6.285
 3155POPC   D2A42184  19.267  28.651   6.684
 3155POPC   C3A42185  19.083  28.474   7.052
 3155POPC   C4A42186  19.193  28.329   7.473
 3155POPC   C1B42187  18.774  28.188   6.213
 3155POPC   C2B42188  18.802  28.314   6.624
 3155POPC   C3B42189  18.567  28.363   6.971
 3155POPC   C4B42190  18.686  28.374   7.380
 3156POPC   NC342191   6.417   6.255   5.678
 3156POPC   PO442192   6.610   5.668   5.409
 3156POPC   GL142193   6.681   5.835   5.830
 3156POPC   GL242194   6.863   6.162   5.912
 3156POPC   C1A42195   6.404   5.712   6.179
 3156POPC   D2A42196   6.304   5.877   6.592
 3156POPC   C3A42197   6.241   5.617   6.961
 3156POPC   C4A42198   6.286   5.833   7.335
 3156POPC   C1B42199   6.813   5.980   6.328
 3156POPC   C2B42200   6.788   5.674   6.667
 3156POPC   C3B42201   6.639   5.937   6.989
 3156POPC   C4B42202   6.731   6.238   7.279
 3157POPC   NC342203  27.985  31.868   5.459
 3157POPC   PO442204  27.583  32.407   5.588
 3157POPC   GL142205  27.755  32.248   5.951
 3157POPC   GL242206  27.812  31.904   5.925
 3157POPC   C1A42207  27.529  32.058   6.309
 3157POPC   D2A42208  27.487  31.906   6.716
 3157POPC   C3A42209  27.330  32.301   6.874
 3157POPC   C4A42210  27.359  32.469   7.258
 3157POPC   C1B42211  28.019  31.833   6.299
 3157POPC   C2B42212  28.005  32.036   6.700
 3157POPC   C3B42213  27.773  32.161   7.088
 3157POPC   C4B42214  27.701  32.144   7.529
 3158POPC   NC342215  30.424  22.466   5.569
 3158POPC   PO442216  30.668  21.912   5.222
 3158POPC   GL142217  30.613  21.851   5.695
 3158POPC   GL242218  30.810  22.102   5.917
 3158POPC   C1A42219  30.458  21.839   6.155
 3158POPC   D2A42220  30.517  22.203   6.424
 3158POPC   C3A42221  30.691  22.171   6.838
 3158POPC   C4A42222  30.475  22.290   7.230
 3158POPC   C1B42223  30.968  22.406   6.214
 3158POPC   C2B42224  30.841  22.625   6.568
 3158POPC   C3B42225  30.845  22.613   7.015
 3158POPC   C4B42226  31.021  22.309   7.311
 3159POPC   NC342227  24.036   4.501   5.239
 3159POPC   PO442228  24.150   3.955   5.531
 3159POPC   GL142229  23.814   4.159   5.821
 3159POPC   GL242230  23.746   4.502   5.690
 3159POPC   C1A42231  23.645   4.116   6.271
 3159POPC   D2A42232  23.618   4.044   6.710
 3159POPC   C3A42233  23.582   4.286   7.080
 3159POPC   C4A42234  23.640   4.239   7.520
 3159POPC   C1B42235  23.795   4.573   6.146
 3159POPC   C2B42236  23.500   4.547   6.536
 3159POPC   C3B42237  23.509   4.775   6.956
 3159POPC   C4B42238  23.552   4.756   7.419
 3160POPC   NC342239   5.812  36.234   5.337
 3160POPC   PO442240   6.108  35.602   5.384
 3160POPC   GL142241   6.116  35.877   5.771
 3160POPC   GL242242   5.948  36.215   5.812
 3160POPC   C1A42243   5.946  35.906   6.208
 3160POPC   D2A42244   6.060  36.112   6.568
 3160POPC   C3A42245   5.799  36.036   6.904
 3160POPC   C4A42246   6.034  36.128   7.245
 3160POPC   C1B42247   5.617  36.410   6.033
 3160POPC   C2B42248   5.608  36.375   6.474
 3160POPC   C3B42249   5.539  36.490   6.907
 3160POPC   C4B42250   5.369  36.302   7.255
 3161POPC   NC342251  28.968  26.322   5.462
 3161POPC   PO442252  29.454  25.911   5.425
 3161POPC   GL142253  29.386  26.194   5.765
 3161POPC   GL242254  29.111  25.982   5.840
 3161POPC   C1A42255  29.523  26.198   6.204
 3161POPC   D2A42256  29.550  25.930   6.587
 3161POPC   C3A42257  29.225  25.964   6.909
 3161POPC   C4A42258  29.144  26.258   7.238
 3161POPC   C1B42259  29.083  25.870   6.281
 3161POPC   C2B42260  28.803  25.804   6.636
 3161POPC   C3B42261  28.882  25.598   7.020
 3161POPC   C4B42262  29.010  25.658   7.453
 3162POPC   NC342263  17.017  40.130   5.266
 3162POPC   PO442264  16.334  40.177   5.376
 3162POPC   GL142265  16.510  40.122   5.761
 3162POPC   GL242266  16.883  40.042   5.750
 3162POPC   C1A42267  16.340  40.145   6.158
 3162POPC   D2A42268  16.401  39.952   6.537
 3162POPC   C3A42269  16.495  40.153   6.906
 3162POPC   C4A42270  16.681  40.093   7.286
 3162POPC   C1B42271  16.789  39.884   6.168
 3162POPC   C2B42272  16.921  39.935   6.594
 3162POPC   C3B42273  17.020  40.217   6.930
 3162POPC   C4B42274  17.250  40.254   7.317
 3163POPC   NC342275  33.846  30.435   5.311
 3163POPC   PO442276  33.291  30.688   5.296
 3163POPC   GL142277  33.361  30.662   5.752
 3163POPC   GL242278  33.229  30.378   5.841
 3163POPC   C1A42279  33.593  30.808   6.134
 3163POPC   D2A42280  34.009  30.657   6.342
 3163POPC   C3A42281  34.040  30.673   6.801
 3163POPC   C4A42282  34.171  30.796   7.202
 3163POPC   C1B42283  33.430  30.338   6.240
 3163POPC   C2B42284  33.596  30.478   6.620
 3163POPC   C3B42285  33.701  30.318   7.011
 3163POPC   C4B42286  33.741  30.574   7.365
 3164POPC   NC342287  34.272  37.243   5.500
 3164POPC   PO442288  34.900  36.967   5.565
 3164POPC   GL142289  34.720  36.727   5.906
 3164POPC   GL242290  34.451  36.967   5.910
 3164POPC   C1A42291  34.476  36.689   6.331
 3164POPC   D2A42292  34.179  36.779   6.651
 3164POPC   C3A42293  34.333  36.840   7.060
 3164POPC   C4A42294  34.590  36.845   7.407
 3164POPC   C1B42295  34.730  37.125   6.256
 3164POPC   C2B42296  34.694  36.998   6.698
 3164POPC   C3B42297  34.667  37.236   7.074
 3164POPC   C4B42298  34.842  37.279   7.479
 3165POPC   NC342299  41.908  18.770   5.542
 3165POPC   PO442300  42.381  19.194   5.345
 3165POPC   GL142301  42.260  19.124   5.764
 3165POPC   GL242302  41.940  19.282   5.704
 3165POPC   C1A42303  42.360  19.008   6.211
 3165POPC   D2A42304  42.559  19.157   6.596
 3165POPC   C3A42305  42.432  18.980   7.014
 3165POPC   C4A42306  42.140  18.843   7.337
 3165POPC   C1B42307  42.075  19.477   6.088
 3165POPC   C2B42308  42.101  19.357   6.510
 3165POPC   C3B42309  42.224  19.453   6.910
 3165POPC   C4B42310  41.927  19.491   7.203
 3166POPC   NC342311  11.027  28.881   4.960
 3166POPC   PO442312  11.445  28.937   5.342
 3166POPC   GL142313  11.422  28.934   5.819
 3166POPC   GL242314  11.616  29.227   5.917
 3166POPC   C1A42315  11.496  28.916   6.310
 3166POPC   D2A42316  11.609  28.975   6.784
 3166POPC   C3A42317  11.272  28.959   7.135
 3166POPC   C4A42318  11.278  28.823   7.591
 3166POPC   C1B42319  11.709  29.392   6.334
 3166POPC   C2B42320  11.654  29.502   6.779
 3166POPC   C3B42321  11.629  29.315   7.178
 3166POPC   C4B42322  11.423  29.302   7.549
 3167POPC   NC342323  13.783   8.589   5.349
 3167POPC   PO442324  13.347   9.077   5.346
 3167POPC   GL142325  13.464   8.865   5.700
 3167POPC   GL242326  13.175   8.995   5.830
 3167POPC   C1A42327  13.671   9.005   6.095
 3167POPC   D2A42328  13.742   9.293   6.481
 3167POPC   C3A42329  13.767   9.158   6.936
 3167POPC   C4A42330  14.057   9.175   7.301
 3167POPC   C1B42331  13.235   8.728   6.167
 3167POPC   C2B42332  13.437   8.888   6.544
 3167POPC   C3B42333  13.361   8.845   6.969
 3167POPC   C4B42334  13.555   8.696   7.344
 3168POPC   NC342335   5.512  16.082   5.379
 3168POPC   PO442336   4.841  15.909   5.445
 3168POPC   GL142337   4.835  15.794   5.855
 3168POPC   GL242338   4.552  16.008   5.878
 3168POPC   C1A42339   5.054  16.026   6.231
 3168POPC   D2A42340   5.187  16.290   6.616
 3168POPC   C3A42341   5.238  16.092   7.065
 3168POPC   C4A42342   5.047  15.989   7.503
 3168POPC   C1B42343   4.576  15.832   6.292
 3168POPC   C2B42344   4.749  15.998   6.642
 3168POPC   C3B42345   4.739  16.030   7.050
 3168POPC   C4B42346   4.688  15.669   7.261
 3169POPC   NC342347  42.117  39.263   5.381
 3169POPC   PO442348  42.646  38.879   5.417
 3169POPC   GL142349  42.494  39.129   5.769
 3169POPC   GL242350  42.464  39.494   5.765
 3169POPC   C1A42351  42.383  39.167   6.211
 3169POPC   D2A42352  42.584  39.097   6.600
 3169POPC   C3A42353  42.293  39.216   6.914
 3169POPC   C4A42354  42.058  39.037   7.222
 3169POPC   C1B42355  42.329  39.661   6.148
 3169POPC   C2B42356  42.435  39.654   6.581
 3169POPC   C3B42357  42.334  39.708   7.012
 3169POPC   C4B42358  42.041  39.521   7.339
 3170POPC   NC342359  24.077  10.808   5.409
 3170POPC   PO442360  23.771  10.221   5.449
 3170POPC   GL142361  23.783  10.513   5.766
 3170POPC   GL242362  23.472  10.609   5.757
 3170POPC   C1A42363  23.780  10.712   6.198
 3170POPC   D2A42364  23.809  10.861   6.633
 3170POPC   C3A42365  23.733  10.596   6.995
 3170POPC   C4A42366  23.586  10.820   7.326
 3170POPC   C1B42367  23.462  10.294   6.107
 3170POPC   C2B42368  23.462  10.275   6.563
 3170POPC   C3B42369  23.242  10.462   6.937
 3170POPC   C4B42370  23.365  10.368   7.389
 3171POPC   NC342371  42.084  28.630   5.457
 3171POPC   PO442372  42.468  28.037   5.538
 3171POPC   GL142373  42.273  28.300   5.826
 3171POPC   GL242374  42.367  28.644   5.898
 3171POPC   C1A42375  42.380  28.230   6.238
 3171POPC   D2A42376  42.104  28.039   6.486
 3171POPC   C3A42377  42.223  28.103   6.860
 3171POPC   C4A42378  42.158  28.269   7.285
 3171POPC   C1B42379  42.570  28.703   6.290
 3171POPC   C2B42380  42.460  28.531   6.691
 3171POPC   C3B42381  42.576  28.692   7.087
 3171POPC   C4B42382  42.807  28.878   7.430
 3172POPC   NC342383  37.085  23.526   5.074
 3172POPC   PO442384  36.541  23.799   5.456
 3172POPC   GL142385  36.792  23.861   5.799
 3172POPC   GL242386  36.738  23.506   5.839
 3172POPC   C1A42387  37.106  23.737   6.162
 3172POPC   D2A42388  37.323  23.490   6.513
 3172POPC   C3A42389  37.134  23.512   6.919
 3172POPC   C4A42390  36.979  23.940   7.008
 3172POPC   C1B42391  36.604  23.672   6.222
 3172POPC   C2B42392  36.760  23.479   6.572
 3172POPC   C3B42393  36.624  23.458   6.994
 3172POPC   C4B42394  36.558  23.797   7.235
 3173POPC   NC342395  39.140  19.459   5.473
 3173POPC   PO442396  39.210  20.112   5.374
 3173POPC   GL142397  39.305  19.890   5.763
 3173POPC   GL242398  39.510  19.585   5.817
 3173POPC   C1A42399  39.299  19.943   6.212
 3173POPC   D2A42400  38.955  20.005   6.519
 3173POPC   C3A42401  39.111  19.868   6.890
 3173POPC   C4A42402  39.475  19.921   7.104
 3173POPC   C1B42403  39.232  19.406   6.136
 3173POPC   C2B42404  39.125  19.461   6.565
 3173POPC   C3B42405  39.352  19.400   6.968
 3173POPC   C4B42406  39.225  19.526   7.366
 3174POPC   NC342407  17.063  30.588   5.490
 3174POPC   PO442408  17.726  30.404   5.341
 3174POPC   GL142409  17.481  30.362   5.730
 3174POPC   GL242410  17.633  30.691   5.797
 3174POPC   C1A42411  17.305  30.566   6.140
 3174POPC   D2A42412  17.624  30.549   6.476
 3174POPC   C3A42413  17.563  30.628   6.891
 3174POPC   C4A42414  17.860  30.716   7.180
 3174POPC   C1B42415  17.610  30.970   6.174
 3174POPC   C2B42416  17.370  30.982   6.570
 3174POPC   C3B42417  17.394  31.122   6.998
 3174POPC   C4B42418  17.428  31.319   7.420
 3175POPC   NC342419  18.382  32.717   4.766
 3175POPC   PO442420  18.362  33.082   5.286
 3175POPC   GL142421  18.555  32.972   5.676
 3175POPC   GL242422  18.671  32.635   5.799
 3175POPC   C1A42423  18.553  33.087   6.100
 3175POPC   D2A42424  18.664  33.041   6.546
 3175POPC   C3A42425  18.401  33.108   6.958
 3175POPC   C4A42426  18.205  33.058   7.373
 3175POPC   C1B42427  18.546  32.582   6.259
 3175POPC   C2B42428  18.405  32.631   6.729
 3175POPC   C3B42429  18.515  32.639   7.183
 3175POPC   C4B42430  18.842  32.538   7.510
 3176POPC   NC342431  30.646  34.539   5.415
 3176POPC   PO442432  30.977  35.211   5.389
 3176POPC   GL142433  31.021  34.799   5.693
 3176POPC   GL242434  30.929  34.387   5.791
 3176POPC   C1A42435  30.846  34.759   6.135
 3176POPC   D2A42436  30.888  34.555   6.544
 3176POPC   C3A42437  30.710  34.741   6.921
 3176POPC   C4A42438  30.859  34.610   7.326
 3176POPC   C1B42439  30.684  34.248   6.179
 3176POPC   C2B42440  30.518  34.186   6.612
 3176POPC   C3B42441  30.665  34.248   7.021
 3176POPC   C4B42442  30.545  34.262   7.496
 3177POPC   NC342443  37.382  14.152   5.558
 3177POPC   PO442444  38.024  14.168   5.342
 3177POPC   GL142445  37.899  14.484   5.689
 3177POPC   GL242446  37.575  14.449   5.915
 3177POPC   C1A42447  37.987  14.557   6.155
 3177POPC   D2A42448  37.691  14.513   6.509
 3177POPC   C3A42449  37.738  14.282   6.901
 3177POPC   C4A42450  37.409  14.439   7.180
 3177POPC   C1B42451  37.625  14.078   6.231
 3177POPC   C2B42452  37.459  13.818   6.595
 3177POPC   C3B42453  37.373  13.930   7.048
 3177POPC   C4B42454  37.692  13.958   7.386
 3178POPC   NC342455  25.411  33.991   5.332
 3178POPC   PO442456  24.927  33.625   5.317
 3178POPC   GL142457  25.172  33.750   5.732
 3178POPC   GL242458  25.165  34.126   5.772
 3178POPC   C1A42459  25.410  33.849   6.155
 3178POPC   D2A42460  25.589  33.808   6.608
 3178POPC   C3A42461  25.222  33.735   6.903
 3178POPC   C4A42462  25.219  33.833   7.333
 3178POPC   C1B42463  25.255  34.351   6.155
 3178POPC   C2B42464  25.249  34.179   6.568
 3178POPC   C3B42465  25.362  34.217   7.008
 3178POPC   C4B42466  25.636  34.124   7.374
 3179POPC   NC342467  21.441  39.025   5.148
 3179POPC   PO442468  21.059  39.300   5.695
 3179POPC   GL142469  21.487  39.187   5.739
 3179POPC   GL242470  21.629  39.539   5.786
 3179POPC   C1A42471  21.522  38.887   6.104
 3179POPC   D2A42472  21.213  38.764   6.448
 3179POPC   C3A42473  21.269  38.959   6.862
 3179POPC   C4A42474  21.592  39.040   7.160
 3179POPC   C1B42475  21.529  39.389   6.218
 3179POPC   C2B42476  21.660  39.231   6.621
 3179POPC   C3B42477  21.706  39.494   6.983
 3179POPC   C4B42478  21.265  39.466   7.039
 3180POPC   NC342479   6.707   9.215   5.459
 3180POPC   PO442480   6.583   8.583   5.458
 3180POPC   GL142481   6.713   8.816   5.829
 3180POPC   GL242482   6.938   9.123   5.936
 3180POPC   C1A42483   6.803   8.770   6.289
 3180POPC   D2A42484   6.897   9.055   6.636
 3180POPC   C3A42485   6.874   8.801   6.982
 3180POPC   C4A42486   6.480   8.825   7.243
 3180POPC   C1B42487   6.527   9.191   6.130
 3180POPC   C2B42488   6.345   9.288   6.519
 3180POPC   C3B42489   6.390   9.178   6.896
 3180POPC   C4B42490   6.309   9.313   7.304
 3181POPC   NC342491  23.338  13.973   5.388
 3181POPC   PO442492  23.790  13.465   5.223
 3181POPC   GL142493  23.778  13.738   5.629
 3181POPC   GL242494  23.484  13.850   5.849
 3181POPC   C1A42495  23.851  13.630   6.095
 3181POPC   D2A42496  23.852  13.739   6.530
 3181POPC   C3A42497  23.521  13.786   6.829
 3181POPC   C4A42498  23.694  14.016   7.182
 3181POPC   C1B42499  23.330  13.662   6.224
 3181POPC   C2B42500  23.098  13.382   6.491
 3181POPC   C3B42501  23.074  13.435   6.937
 3181POPC   C4B42502  23.337  13.569   7.293
 3182POPC   NC342503  28.013  21.880   5.508
 3182POPC   PO442504  27.436  22.181   5.412
 3182POPC   GL142505  27.670  22.099   5.801
 3182POPC   GL242506  27.856  22.361   5.971
 3182POPC   C1A42507  27.635  21.946   6.236
 3182POPC   D2A42508  27.880  22.031   6.623
 3182POPC   C3A42509  27.743  22.086   7.038
 3182POPC   C4A42510  27.676  21.760   7.309
 3182POPC   C1B42511  27.391  22.395   6.109
 3182POPC   C2B42512  27.201  22.240   6.476
 3182POPC   C3B42513  27.174  22.378   6.889
 3182POPC   C4B42514  27.276  22.319   7.273
 3183POPC   NC342515  42.974  19.805   5.455
 3183POPC   PO442516  43.562  19.825   5.549
 3183POPC   GL142517  43.255  19.678   5.843
 3183POPC   GL242518  42.925  19.862   5.948
 3183POPC   C1A42519  43.216  19.398   6.138
 3183POPC   D2A42520  43.044  19.364   6.525
 3183POPC   C3A42521  43.334  19.357   6.859
 3183POPC   C4A42522  43.242  19.593   7.194
 3183POPC   C1B42523  43.159  19.870   6.343
 3183POPC   C2B42524  43.086  19.876   6.779
 3183POPC   C3B42525  42.776  20.064   7.069
 3183POPC   C4B42526  42.842  20.197   7.520
 3184POPC   NC342527  35.141  22.233   5.409
 3184POPC   PO442528  35.743  22.712   5.492
 3184POPC   GL142529  35.592  22.345   5.711
 3184POPC   GL242530  35.632  22.038   5.841
 3184POPC   C1A42531  35.312  22.356   6.084
 3184POPC   D2A42532  35.222  22.494   6.497
 3184POPC   C3A42533  35.140  22.307   6.865
 3184POPC   C4A42534  35.342  21.982   7.081
 3184POPC   C1B42535  35.662  22.040   6.285
 3184POPC   C2B42536  35.597  21.809   6.646
 3184POPC   C3B42537  35.834  21.877   6.989
 3184POPC   C4B42538  35.856  21.720   7.358
 3185POPC   NC342539  19.294  42.196   5.246
 3185POPC   PO442540  19.129  42.777   5.151
 3185POPC   GL142541  19.097  42.566   5.602
 3185POPC   GL242542  18.761  42.497   5.776
 3185POPC   C1A42543  19.197  42.318   6.020
 3185POPC   D2A42544  19.294  42.400   6.477
 3185POPC   C3A42545  19.258  42.330   6.930
 3185POPC   C4A42546  19.197  42.241   7.387
 3185POPC   C1B42547  18.729  42.213   6.175
 3185POPC   C2B42548  18.816  42.220   6.647
 3185POPC   C3B42549  18.748  42.284   7.112
 3185POPC   C4B42550  18.707  42.048   7.489
 3186POPC   NC342551  34.335   4.473   5.283
 3186POPC   PO442552  34.994   4.543   5.292
 3186POPC   GL142553  34.830   4.566   5.739
 3186POPC   GL242554  34.467   4.633   5.768
 3186POPC   C1A42555  34.690   4.329   6.128
 3186POPC   D2A42556  34.554   4.124   6.530
 3186POPC   C3A42557  34.728   4.210   6.945
 3186POPC   C4A42558  34.533   4.400   7.300
 3186POPC   C1B42559  34.215   4.533   6.139
 3186POPC   C2B42560  34.126   4.433   6.577
 3186POPC   C3B42561  34.215   4.617   6.985
 3186POPC   C4B42562  34.092   4.604   7.435
 3187POPC   NC342563  33.570   6.596   5.423
 3187POPC   PO442564  34.191   6.823   5.549
 3187POPC   GL142565  33.931   6.623   5.805
 3187POPC   GL242566  33.645   6.840   5.863
 3187POPC   C1A42567  33.839   6.412   6.179
 3187POPC   D2A42568  34.079   6.289   6.511
 3187POPC   C3A42569  33.871   6.394   6.860
 3187POPC   C4A42570  33.920   6.409   7.265
 3187POPC   C1B42571  33.894   6.947   6.204
 3187POPC   C2B42572  34.055   6.785   6.574
 3187POPC   C3B42573  33.949   6.907   6.990
 3187POPC   C4B42574  33.609   6.858   7.280
 3188POPC   NC342575  30.248  36.340   5.531
 3188POPC   PO442576  29.577  36.303   5.277
 3188POPC   GL142577  29.726  36.151   5.748
 3188POPC   GL242578  29.991  35.943   5.819
 3188POPC   C1A42579  29.779  36.273   6.174
 3188POPC   D2A42580  29.921  36.106   6.544
 3188POPC   C3A42581  29.725  36.307   6.903
 3188POPC   C4A42582  29.900  36.572   7.220
 3188POPC   C1B42583  30.205  35.756   6.225
 3188POPC   C2B42584  30.191  35.618   6.668
 3188POPC   C3B42585  29.972  35.862   6.989
 3188POPC   C4B42586  30.035  36.090   7.366
 3189POPC   NC342587  44.148  22.423   5.389
 3189POPC   PO442588  43.718  21.914   5.299
 3189POPC   GL142589  43.679  22.213   5.638
 3189POPC   GL242590  43.993  22.112   5.750
 3189POPC   C1A42591  43.575  22.295   6.091
 3189POPC   D2A42592  43.569  22.087   6.522
 3189POPC   C3A42593  43.800  22.301   6.871
 3189POPC   C4A42594  43.733  22.462   7.290
 3189POPC   C1B42595  44.106  22.278   6.139
 3189POPC   C2B42596  44.118  22.069   6.508
 3189POPC   C3B42597  44.357  22.026   6.857
 3189POPC   C4B42598  44.170  22.200   7.225
 3190POPC   NC342599  29.887   1.560   5.072
 3190POPC   PO442600  29.986   1.049   5.480
 3190POPC   GL142601  29.886   1.240   5.843
 3190POPC   GL242602  29.623   1.405   5.715
 3190POPC   C1A42603  29.922   1.102   6.247
 3190POPC   D2A42604  29.859   0.879   6.596
 3190POPC   C3A42605  29.965   1.133   6.947
 3190POPC   C4A42606  29.933   0.993   7.337
 3190POPC   C1B42607  29.452   1.097   6.019
 3190POPC   C2B42608  29.394   1.136   6.456
 3190POPC   C3B42609  29.476   1.091   6.868
 3190POPC   C4B42610  29.492   1.209   7.264
 3191POPC   NC342611   3.131  17.566   5.315
 3191POPC   PO442612   3.787  17.347   5.300
 3191POPC   GL142613   3.721  17.259   5.754
 3191POPC   GL242614   4.055  17.203   5.860
 3191POPC   C1A42615   3.499  17.473   6.149
 3191POPC   D2A42616   3.131  17.508   6.480
 3191POPC   C3A42617   3.220  17.429   6.942
 3191POPC   C4A42618   3.498  17.736   7.140
 3191POPC   C1B42619   3.898  17.152   6.283
 3191POPC   C2B42620   3.562  17.215   6.594
 3191POPC   C3B42621   3.709  17.249   7.026
 3191POPC   C4B42622   4.027  17.125   7.334
 3192POPC   NC342623  41.382  17.922   5.609
 3192POPC   PO442624  41.439  17.302   5.275
 3192POPC   GL142625  41.504  17.397   5.730
 3192POPC   GL242626  41.819  17.177   5.787
 3192POPC   C1A42627  41.532  17.646   6.175
 3192POPC   D2A42628  41.395  17.800   6.619
 3192POPC   C3A42629  41.655  17.664   6.993
 3192POPC   C4A42630  41.776  17.784   7.416
 3192POPC   C1B42631  41.584  17.131   6.168
 3192POPC   C2B42632  41.619  17.318   6.571
 3192POPC   C3B42633  41.475  17.180   6.947
 3192POPC   C4B42634  41.450  17.327   7.381
 3193POPC   NC342635   3.696  11.000   5.595
 3193POPC   PO442636   3.211  11.358   5.313
 3193POPC   GL142637   3.310  11.313   5.737
 3193POPC   GL242638   3.183  11.576   5.879
 3193POPC   C1A42639   3.478  11.274   6.172
 3193POPC   D2A42640   3.631  11.501   6.524
 3193POPC   C3A42641   3.608  11.324   6.941
 3193POPC   C4A42642   3.425  11.138   7.309
 3193POPC   C1B42643   3.174  11.669   6.329
 3193POPC   C2B42644   3.145  11.482   6.725
 3193POPC   C3B42645   3.193  11.561   7.160
 3193POPC   C4B42646   3.048  11.405   7.540
 3194POPC   NC342647   4.980   1.626   5.615
 3194POPC   PO442648   5.590   2.003   5.536
 3194POPC   GL142649   5.310   2.215   5.789
 3194POPC   GL242650   4.992   2.092   5.850
 3194POPC   C1A42651   5.279   2.421   6.169
 3194POPC   D2A42652   5.124   2.357   6.564
 3194POPC   C3A42653   5.360   2.276   6.905
 3194POPC   C4A42654   5.251   2.210   7.305
 3194POPC   C1B42655   5.098   1.909   6.244
 3194POPC   C2B42656   5.164   1.824   6.667
 3194POPC   C3B42657   4.941   1.954   6.990
 3194POPC   C4B42658   4.917   1.747   7.374
 3195POPC   NC342659  23.357  16.483   5.466
 3195POPC   PO442660  23.975  16.859   5.561
 3195POPC   GL142661  23.788  16.977   5.929
 3195POPC   GL242662  23.441  16.874   5.912
 3195POPC   C1A42663  23.691  16.964   6.367
 3195POPC   D2A42664  23.796  16.704   6.727
 3195POPC   C3A42665  23.812  16.744   7.175
 3195POPC   C4A42666  23.852  16.474   7.544
 3195POPC   C1B42667  23.375  16.570   6.238
 3195POPC   C2B42668  23.272  16.664   6.660
 3195POPC   C3B42669  23.421  16.471   7.012
 3195POPC   C4B42670  23.369  16.266   7.383
 3196POPC   NC342671  16.862  42.150   5.470
 3196POPC   PO442672  16.626  42.751   5.255
 3196POPC   GL142673  16.776  42.573   5.740
 3196POPC   GL242674  16.552  42.287   5.860
 3196POPC   C1A42675  16.695  42.603   6.227
 3196POPC   D2A42676  16.508  42.340   6.546
 3196POPC   C3A42677  16.695  42.409   6.955
 3196POPC   C4A42678  17.122  42.492   7.104
 3196POPC   C1B42679  16.882  42.150   6.180
 3196POPC   C2B42680  16.854  41.924   6.554
 3196POPC   C3B42681  16.956  41.983   6.951
 3196POPC   C4B42682  16.919  42.086   7.343
 3197POPC   NC342683  27.764  29.455   5.459
 3197POPC   PO442684  28.065  30.107   5.378
 3197POPC   GL142685  27.829  29.983   5.759
 3197POPC   GL242686  27.484  29.835   5.752
 3197POPC   C1A42687  27.828  29.866   6.182
 3197POPC   D2A42688  27.552  29.744   6.491
 3197POPC   C3A42689  27.710  29.793   6.865
 3197POPC   C4A42690  27.695  30.027   7.192
 3197POPC   C1B42691  27.333  30.052   6.124
 3197POPC   C2B42692  27.150  30.039   6.530
 3197POPC   C3B42693  27.262  30.132   6.927
 3197POPC   C4B42694  27.206  30.123   7.341
 3198POPC   NC342695  40.955  38.566   5.341
 3198POPC   PO442696  40.402  38.207   5.423
 3198POPC   GL142697  40.594  38.532   5.760
 3198POPC   GL242698  40.894  38.771   5.809
 3198POPC   C1A42699  40.690  38.530   6.215
 3198POPC   D2A42700  40.881  38.272   6.553
 3198POPC   C3A42701  40.629  38.160   6.899
 3198POPC   C4A42702  40.760  38.311   7.253
 3198POPC   C1B42703  41.067  38.902   6.210
 3198POPC   C2B42704  40.805  38.877   6.568
 3198POPC   C3B42705  40.804  38.691   6.919
 3198POPC   C4B42706  41.108  38.824   7.195
 3199POPC   NC342707  36.213  19.485   5.482
 3199POPC   PO442708  36.119  18.787   5.363
 3199POPC   GL142709  36.249  18.865   5.786
 3199POPC   GL242710  36.004  19.158   5.815
 3199POPC   C1A42711  36.279  19.042   6.216
 3199POPC   D2A42712  36.240  19.240   6.614
 3199POPC   C3A42713  36.431  18.998   6.940
 3199POPC   C4A42714  36.068  18.757   7.123
 3199POPC   C1B42715  36.021  19.489   6.145
 3199POPC   C2B42716  35.785  19.546   6.519
 3199POPC   C3B42717  35.877  19.600   6.926
 3199POPC   C4B42718  36.074  19.277   7.152
 3200POPC   NC342719   1.664  12.522   5.595
 3200POPC   PO442720   2.320  12.821   5.472
 3200POPC   GL142721   2.003  12.879   5.804
 3200POPC   GL242722   1.796  13.189   5.752
 3200POPC   C1A42723   1.831  12.759   6.229
 3200POPC   D2A42724   1.998  12.679   6.643
 3200POPC   C3A42725   1.689  12.564   6.952
 3200POPC   C4A42726   1.980  12.500   7.265
 3200POPC   C1B42727   1.955  13.248   6.187
 3200POPC   C2B42728   1.776  13.140   6.619
 3200POPC   C3B42729   1.850  13.045   7.071
 3200POPC   C4B42730   2.193  13.181   7.419
 3201POPC   NC342731  20.361   0.042   5.471
 3201POPC   PO442732  20.812   0.538   5.317
 3201POPC   GL142733  20.584   0.501   5.685
 3201POPC   GL242734  20.762   0.276   5.850
 3201POPC   C1A42735  20.498   0.566   6.133
 3201POPC   D2A42736  20.527   0.428   6.517
 3201POPC   C3A42737  20.426   0.682   6.854
 3201POPC   C4A42738  20.662   0.907   7.182
 3201POPC   C1B42739  20.977   0.357   6.232
 3201POPC   C2B42740  20.936   0.137   6.628
 3201POPC   C3B42741  20.705   0.254   6.963
 3201POPC   C4B42742  20.528   0.433   7.301
 3202POPC   NC342743  38.123  10.233   5.308
 3202POPC   PO442744  38.807  10.462   5.448
 3202POPC   GL142745  38.615  10.581   5.813
 3202POPC   GL242746  38.402  10.317   5.744
 3202POPC   C1A42747  38.428  10.604   6.218
 3202POPC   D2A42748  38.533  10.830   6.604
 3202POPC   C3A42749  38.291  10.808   6.993
 3202POPC   C4A42750  38.614  10.870   7.303
 3202POPC   C1B42751  38.169  10.151   6.045
 3202POPC   C2B42752  38.164  10.220   6.462
 3202POPC   C3B42753  38.412  10.341   6.806
 3202POPC   C4B42754  38.409  10.356   7.249
 3203POPC   NC342755  40.964   6.588   5.054
 3203POPC   PO442756  41.606   6.536   5.327
 3203POPC   GL142757  41.577   6.701   5.734
 3203POPC   GL242758  41.866   6.519   5.827
 3203POPC   C1A42759  41.497   6.676   6.176
 3203POPC   D2A42760  41.765   6.560   6.578
 3203POPC   C3A42761  41.671   6.792   6.975
 3203POPC   C4A42762  41.306   6.782   7.257
 3203POPC   C1B42763  42.028   6.308   6.182
 3203POPC   C2B42764  42.001   6.106   6.584
 3203POPC   C3B42765  42.017   6.348   7.020
 3203POPC   C4B42766  41.775   6.485   7.426
 3204POPC   NC342767  32.234  33.457   5.316
 3204POPC   PO442768  32.381  32.786   5.291
 3204POPC   GL142769  32.405  33.050   5.721
 3204POPC   GL242770  32.124  33.293   5.793
 3204POPC   C1A42771  32.535  32.937   6.174
 3204POPC   D2A42772  32.505  32.748   6.613
 3204POPC   C3A42773  32.431  32.922   7.035
 3204POPC   C4A42774  32.013  32.884   7.249
 3204POPC   C1B42775  32.341  33.405   6.178
 3204POPC   C2B42776  32.324  33.232   6.593
 3204POPC   C3B42777  32.070  33.308   6.943
 3204POPC   C4B42778  32.295  33.377   7.273
 3205POPC   NC342779  33.518  29.546   5.630
 3205POPC   PO442780  34.049  29.198   5.333
 3205POPC   GL142781  33.845  29.165   5.740
 3205POPC   GL242782  33.627  28.822   5.748
 3205POPC   C1A42783  33.934  29.435   6.137
 3205POPC   D2A42784  33.837  29.601   6.542
 3205POPC   C3A42785  34.011  29.418   6.888
 3205POPC   C4A42786  33.770  29.378   7.220
 3205POPC   C1B42787  33.582  29.036   6.147
 3205POPC   C2B42788  33.756  29.097   6.535
 3205POPC   C3B42789  33.652  28.931   6.905
 3205POPC   C4B42790  33.662  28.881   7.302
 3206POPC   NC342791  41.513  41.700   5.446
 3206POPC   PO442792  42.055  41.282   5.405
 3206POPC   GL142793  41.746  41.335   5.794
 3206POPC   GL242794  41.585  41.627   5.935
 3206POPC   C1A42795  41.641  41.223   6.249
 3206POPC   D2A42796  41.817  41.377   6.645
 3206POPC   C3A42797  41.488  41.438   6.911
 3206POPC   C4A42798  41.227  41.686   7.110
 3206POPC   C1B42799  41.705  41.839   6.296
 3206POPC   C2B42800  41.511  41.943   6.701
 3206POPC   C3B42801  41.685  41.926   7.115
 3206POPC   C4B42802  41.739  42.086   7.537
 3207POPC   NC342803  37.255  10.165   5.359
 3207POPC   PO442804  36.714   9.770   5.291
 3207POPC   GL142805  36.857   9.957   5.666
 3207POPC   GL242806  36.549  10.126   5.780
 3207POPC   C1A42807  36.939   9.963   6.122
 3207POPC   D2A42808  36.759  10.040   6.550
 3207POPC   C3A42809  37.077   9.940   6.911
 3207POPC   C4A42810  37.311   9.566   7.126
 3207POPC   C1B42811  36.475   9.736   6.047
 3207POPC   C2B42812  36.400   9.613   6.504
 3207POPC   C3B42813  36.693   9.500   6.860
 3207POPC   C4B42814  36.823   9.673   7.276
 3208POPC   NC342815  16.193  25.503   5.415
 3208POPC   PO442816  15.871  24.992   5.343
 3208POPC   GL142817  15.901  25.265   5.754
 3208POPC   GL242818  15.629  25.444   5.825
 3208POPC   C1A42819  16.132  25.468   6.154
 3208POPC   D2A42820  16.169  25.767   6.532
 3208POPC   C3A42821  16.269  25.624   6.971
 3208POPC   C4A42822  16.134  25.562   7.408
 3208POPC   C1B42823  15.633  25.475   6.252
 3208POPC   C2B42824  15.760  25.396   6.679
 3208POPC   C3B42825  15.741  25.318   7.136
 3208POPC   C4B42826  15.716  25.311   7.601
 3209POPC   NC342827  39.776  21.609   5.079
 3209POPC   PO442828  40.008  21.183   5.539
 3209POPC   GL142829  40.077  21.277   5.926
 3209POPC   GL242830  40.273  20.964   5.931
 3209POPC   C1A42831  39.913  21.429   6.330
 3209POPC   D2A42832  39.654  21.216   6.651
 3209POPC   C3A42833  39.815  21.283   7.081
 3209POPC   C4A42834  39.943  21.147   7.490
 3209POPC   C1B42835  40.246  21.036   6.336
 3209POPC   C2B42836  40.150  21.044   6.728
 3209POPC   C3B42837  40.384  21.119   7.073
 3209POPC   C4B42838  40.410  20.962   7.463
 3210POPC   NC342839  11.170  39.948   5.357
 3210POPC   PO442840  11.501  40.478   5.531
 3210POPC   GL142841  11.174  40.310   5.770
 3210POPC   GL242842  11.282  39.960   5.872
 3210POPC   C1A42843  10.999  40.270   6.191
 3210POPC   D2A42844  11.104  40.052   6.566
 3210POPC   C3A42845  11.395  40.182   6.898
 3210POPC   C4A42846  11.212  40.168   7.290
 3210POPC   C1B42847  11.298  39.669   6.220
 3210POPC   C2B42848  11.190  39.559   6.645
 3210POPC   C3B42849  11.251  39.674   7.070
 3210POPC   C4B42850  10.951  39.754   7.388
 3211POPC   NC342851  11.397  19.285   5.293
 3211POPC   PO442852  10.925  18.743   5.516
 3211POPC   GL142853  10.971  19.037   5.908
 3211POPC   GL242854  11.328  19.083   5.974
 3211POPC   C1A42855  11.018  19.081   6.403
 3211POPC   D2A42856  11.433  19.090   6.579
 3211POPC   C3A42857  11.463  19.186   7.010
 3211POPC   C4A42858  11.534  19.489   7.326
 3211POPC   C1B42859  11.302  18.695   6.248
 3211POPC   C2B42860  11.452  18.588   6.673
 3211POPC   C3B42861  11.225  18.570   7.048
 3211POPC   C4B42862  11.015  18.935   7.104
 3212POPC   NC342863  12.234  10.884   5.671
 3212POPC   PO442864  11.693  10.533   5.461
 3212POPC   GL142865  11.938  10.529   5.875
 3212POPC   GL242866  11.836  10.855   6.005
 3212POPC   C1A42867  12.021  10.471   6.343
 3212POPC   D2A42868  12.395  10.466   6.675
 3212POPC   C3A42869  12.244  10.425   7.114
 3212POPC   C4A42870  11.816  10.417   7.342
 3212POPC   C1B42871  12.107  10.971   6.355
 3212POPC   C2B42872  12.027  10.810   6.776
 3212POPC   C3B42873  12.010  10.873   7.217
 3212POPC   C4B42874  12.289  11.053   7.482
 3213POPC   NC342875  22.471  37.989   5.575
 3213POPC   PO442876  23.123  37.972   5.359
 3213POPC   GL142877  22.960  37.783   5.708
 3213POPC   GL242878  22.809  37.962   5.933
 3213POPC   C1A42879  23.092  37.569   6.086
 3213POPC   D2A42880  23.130  37.618   6.515
 3213POPC   C3A42881  22.949  37.469   6.865
 3213POPC   C4A42882  22.708  37.656   7.161
 3213POPC   C1B42883  22.709  37.887   6.335
 3213POPC   C2B42884  22.863  38.038   6.697
 3213POPC   C3B42885  22.786  38.160   7.082
 3213POPC   C4B42886  23.091  38.238   7.371
 3214POPC   NC342887  11.170  18.371   5.615
 3214POPC   PO442888  11.677  18.041   5.515
 3214POPC   GL142889  11.655  18.269   5.898
 3214POPC   GL242890  11.610  18.632   5.854
 3214POPC   C1A42891  11.471  18.216   6.319
 3214POPC   D2A42892  11.188  18.152   6.683
 3214POPC   C3A42893  11.321  18.082   7.104
 3214POPC   C4A42894  11.048  18.215   7.449
 3214POPC   C1B42895  11.835  18.576   6.261
 3214POPC   C2B42896  11.920  18.393   6.649
 3214POPC   C3B42897  11.745  18.409   7.056
 3214POPC   C4B42898  11.579  18.798   7.302
 3215POPC   NC342899  15.477  40.893   5.297
 3215POPC   PO442900  14.847  40.999   5.244
 3215POPC   GL142901  14.922  40.884   5.695
 3215POPC   GL242902  15.200  40.653   5.701
 3215POPC   C1A42903  14.982  40.924   6.177
 3215POPC   D2A42904  14.835  40.930   6.636
 3215POPC   C3A42905  15.146  40.887   6.948
 3215POPC   C4A42906  15.181  40.864   7.407
 3215POPC   C1B42907  15.210  40.451   6.118
 3215POPC   C2B42908  15.257  40.567   6.557
 3215POPC   C3B42909  15.408  40.434   6.968
 3215POPC   C4B42910  15.283  40.206   7.348
 3216POPC   NC342911  38.515  41.172   5.404
 3216POPC   PO442912  38.094  41.706   5.195
 3216POPC   GL142913  38.154  41.581   5.680
 3216POPC   GL242914  38.375  41.297   5.892
 3216POPC   C1A42915  38.333  41.741   6.121
 3216POPC   D2A42916  38.289  41.538   6.504
 3216POPC   C3A42917  38.509  41.448   6.845
 3216POPC   C4A42918  38.305  41.550   7.214
 3216POPC   C1B42919  38.724  41.432   6.237
 3216POPC   C2B42920  38.753  41.802   6.565
 3216POPC   C3B42921  38.827  41.788   7.044
 3216POPC   C4B42922  38.806  41.350   7.249
 3217POPC   NC342923   0.577  39.530   5.232
 3217POPC   PO442924   0.842  39.034   5.625
 3217POPC   GL142925   0.491  39.183   5.919
 3217POPC   GL242926   0.382  39.513   5.896
 3217POPC   C1A42927   0.361  38.916   6.243
 3217POPC   D2A42928   0.575  38.848   6.599
 3217POPC   C3A42929   0.410  39.146   6.866
 3217POPC   C4A42930   0.262  39.343   7.210
 3217POPC   C1B42931   0.238  39.400   6.336
 3217POPC   C2B42932   0.016  39.454   6.744
 3217POPC   C3B42933   0.168  39.797   7.038
 3217POPC   C4B42934   0.262  39.788   7.517
 3218POPC   NC342935  27.807  31.042   5.569
 3218POPC   PO442936  27.481  31.659   5.386
 3218POPC   GL142937  27.428  31.563   5.837
 3218POPC   GL242938  27.419  31.206   5.881
 3218POPC   C1A42939  27.563  31.553   6.293
 3218POPC   D2A42940  27.843  31.530   6.663
 3218POPC   C3A42941  27.785  31.648   7.096
 3218POPC   C4A42942  27.790  31.313   7.413
 3218POPC   C1B42943  27.164  31.240   6.271
 3218POPC   C2B42944  27.139  31.495   6.636
 3218POPC   C3B42945  27.315  31.451   7.043
 3218POPC   C4B42946  27.286  31.214   7.416
 3219POPC   NC342947  43.266   2.995   5.520
 3219POPC   PO442948  42.784   2.486   5.456
 3219POPC   GL142949  43.001   2.625   5.825
 3219POPC   GL242950  42.957   2.938   6.010
 3219POPC   C1A42951  43.219   2.500   6.214
 3219POPC   D2A42952  43.427   2.644   6.626
 3219POPC   C3A42953  43.114   2.618   6.957
 3219POPC   C4A42954  42.867   2.895   7.191
 3219POPC   C1B42955  43.388   2.996   6.185
 3219POPC   C2B42956  43.741   3.054   6.477
 3219POPC   C3B42957  43.732   3.083   6.911
 3219POPC   C4B42958  43.532   2.798   7.223
 3220POPC   NC342959  14.379  22.883   5.433
 3220POPC   PO442960  14.799  23.419   5.461
 3220POPC   GL142961  14.660  23.084   5.819
 3220POPC   GL242962  14.692  22.691   5.860
 3220POPC   C1A42963  14.299  22.913   6.099
 3220POPC   D2A42964  14.266  22.982   6.562
 3220POPC   C3A42965  14.366  23.069   7.021
 3220POPC   C4A42966  14.511  22.853   7.393
 3220POPC   C1B42967  14.688  22.738   6.359
 3220POPC   C2B42968  14.788  22.941   6.776
 3220POPC   C3B42969  14.963  23.002   7.239
 3220POPC   C4B42970  14.865  22.997   7.728
 3221POPC   NC342971  34.660  44.414   5.571
 3221POPC   PO442972  34.041  44.830   5.429
 3221POPC   GL142973  34.354  44.741   5.838
 3221POPC   GL242974  34.701  44.882   5.822
 3221POPC   C1A42975  34.416  44.684   6.294
 3221POPC   D2A42976  34.309  44.860   6.709
 3221POPC   C3A42977  34.556  44.743   7.058
 3221POPC   C4A42978  34.321  44.507   7.334
 3221POPC   C1B42979  34.910  44.789   6.228
 3221POPC   C2B42980  34.968  44.604   6.648
 3221POPC   C3B42981  35.070  44.868   7.001
 3221POPC   C4B42982  34.891   0.081   7.319
 3222POPC   NC342983  14.168  10.772   5.209
 3222POPC   PO442984  14.728  10.329   5.301
 3222POPC   GL142985  14.513  10.489   5.726
 3222POPC   GL242986  14.360  10.819   5.713
 3222POPC   C1A42987  14.292  10.528   6.180
 3222POPC   D2A42988  14.157  10.504   6.657
 3222POPC   C3A42989  14.367  10.246   6.984
 3222POPC   C4A42990  14.703  10.335   7.268
 3222POPC   C1B42991  14.495  11.046   6.096
 3222POPC   C2B42992  14.512  10.875   6.529
 3222POPC   C3B42993  14.539  10.741   6.948
 3222POPC   C4B42994  14.161  10.681   7.184
 3223POPC   NC342995  16.667  20.842   5.107
 3223POPC   PO442996  16.650  20.381   5.546
 3223POPC   GL142997  16.820  20.484   5.909
 3223POPC   GL242998  17.197  20.512   5.873
 3223POPC   C1A42999  16.660  20.682   6.285
 3223POPC   D2A43000  16.821  20.711   6.697
 3223POPC   C3A43001  16.597  20.520   7.012
 3223POPC   C4A43002  16.556  20.848   7.300
 3223POPC   C1B43003  17.117  20.433   6.317
 3223POPC   C2B43004  17.193  20.347   6.730
 3223POPC   C3B43005  17.096  20.465   7.138
 3223POPC   C4B43006  17.074  20.208   7.506
 3224POPC   NC343007  43.996   2.948   5.381
 3224POPC   PO443008  43.653   2.351   5.455
 3224POPC   GL143009  43.542   2.638   5.796
 3224POPC   GL243010  43.746   2.965   5.832
 3224POPC   C1A43011  43.728   2.593   6.205
 3224POPC   D2A43012  44.034   2.584   6.512
 3224POPC   C3A43013  43.871   2.586   6.900
 3224POPC   C4A43014  43.982   2.515   7.299
 3224POPC   C1B43015  44.128   2.931   6.119
 3224POPC   C2B43016  44.266   3.051   6.551
 3224POPC   C3B43017  44.283   2.892   6.965
 3224POPC   C4B43018  44.033   3.043   7.310
 3225POPC   NC343019  44.218  32.319   5.462
 3225POPC   PO443020  44.797  32.160   5.272
 3225POPC   GL143021  44.796  32.071   5.759
 3225POPC   GL243022  44.640  32.343   5.900
 3225POPC   C1A43023  44.711  32.034   6.279
 3225POPC   D2A43024  44.625  32.252   6.714
 3225POPC   C3A43025  44.808  32.134   7.151
 3225POPC   C4A43026  44.945  31.864   7.535
 3225POPC   C1B43027  44.394  32.475   6.293
 3225POPC   C2B43028  44.440  32.742   6.682
 3225POPC   C3B43029  44.572  32.626   7.111
 3225POPC   C4B43030  44.378  32.354   7.406
 3226POPC   NC343031  34.327  30.025   5.288
 3226POPC   PO443032  34.841  29.651   5.299
 3226POPC   GL143033  34.741  29.935   5.660
 3226POPC   GL243034  34.411  29.938   5.776
 3226POPC   C1A43035  34.856  30.067   6.084
 3226POPC   D2A43036  34.769  29.943   6.504
 3226POPC   C3A43037  34.542  30.149   6.828
 3226POPC   C4A43038  34.597  30.034   7.258
 3226POPC   C1B43039  34.400  29.767   6.150
 3226POPC   C2B43040  34.330  29.694   6.564
 3226POPC   C3B43041  34.495  29.642   6.955
 3226POPC   C4B43042  34.257  29.579   7.334
 3227POPC   NC343043   1.151  28.804   5.484
 3227POPC   PO443044   1.328  29.495   5.527
 3227POPC   GL143045   1.096  29.380   5.911
 3227POPC   GL243046   1.054  29.031   5.928
 3227POPC   C1A43047   1.113  29.278   6.376
 3227POPC   D2A43048   1.434  29.125   6.657
 3227POPC   C3A43049   1.315  29.202   7.047
 3227POPC   C4A43050   0.962  29.177   7.260
 3227POPC   C1B43051   1.239  28.776   6.287
 3227POPC   C2B43052   1.412  28.598   6.687
 3227POPC   C3B43053   1.593  28.698   7.105
 3227POPC   C4B43054   1.831  28.709   7.504
 3228POPC   NC343055  39.177  14.306   5.430
 3228POPC   PO443056  38.739  14.867   5.351
 3228POPC   GL143057  38.912  14.610   5.748
 3228POPC   GL243058  39.313  14.548   5.849
 3228POPC   C1A43059  38.960  14.344   6.145
 3228POPC   D2A43060  38.994  14.526   6.549
 3228POPC   C3A43061  39.050  14.252   6.897
 3228POPC   C4A43062  39.327  14.413   7.214
 3228POPC   C1B43063  39.439  14.590   6.294
 3228POPC   C2B43064  39.495  14.561   6.727
 3228POPC   C3B43065  39.793  14.436   7.006
 3228POPC   C4B43066  39.680  14.055   7.167
 3229POPC   NC343067   0.966  24.777   5.072
 3229POPC   PO443068   1.240  24.174   5.341
 3229POPC   GL143069   1.176  24.520   5.585
 3229POPC   GL243070   0.885  24.410   5.763
 3229POPC   C1A43071   1.261  24.654   6.019
 3229POPC   D2A43072   1.074  24.525   6.402
 3229POPC   C3A43073   1.309  24.618   6.783
 3229POPC   C4A43074   1.259  24.554   7.221
 3229POPC   C1B43075   0.798  24.166   6.120
 3229POPC   C2B43076   0.948  24.033   6.551
 3229POPC   C3B43077   1.159  24.124   6.947
 3229POPC   C4B43078   1.040  24.112   7.369
 3230POPC   NC343079  42.946  13.758   5.407
 3230POPC   PO443080  43.106  13.103   5.288
 3230POPC   GL143081  43.217  13.444   5.702
 3230POPC   GL243082  43.341  13.833   5.700
 3230POPC   C1A43083  43.120  13.557   6.146
 3230POPC   D2A43084  43.262  13.338   6.529
 3230POPC   C3A43085  43.265  13.528   6.960
 3230POPC   C4A43086  42.988  13.768   7.234
 3230POPC   C1B43087  43.396  14.044   6.094
 3230POPC   C2B43088  43.417  13.848   6.507
 3230POPC   C3B43089  43.317  14.046   6.916
 3230POPC   C4B43090  43.482  13.959   7.310
 3231POPC   NC343091  15.102  15.513   5.096
 3231POPC   PO443092  14.997  14.955   5.319
 3231POPC   GL143093  15.261  14.940   5.728
 3231POPC   GL243094  15.067  14.727   5.898
 3231POPC   C1A43095  15.498  15.083   6.126
 3231POPC   D2A43096  15.663  15.321   6.499
 3231POPC   C3A43097  15.323  15.407   6.794
 3231POPC   C4A43098  15.247  15.153   7.168
 3231POPC   C1B43099  14.980  15.110   6.153
 3231POPC   C2B43100  14.879  15.216   6.595
 3231POPC   C3B43101  14.741  15.163   7.039
 3231POPC   C4B43102  14.876  15.394   7.410
 3232POPC   NC343103  44.979  23.354   5.484
 3232POPC   PO443104  44.539  22.744   5.392
 3232POPC   GL143105  44.635  23.014   5.746
 3232POPC   GL243106  44.963  22.947   5.860
 3232POPC   C1A43107  44.532  23.011   6.180
 3232POPC   D2A43108  44.793  22.843   6.533
 3232POPC   C3A43109  44.542  22.905   6.904
 3232POPC   C4A43110  44.602  23.091   7.297
 3232POPC   C1B43111  44.942  23.315   6.149
 3232POPC   C2B43112   0.126  23.445   6.541
 3232POPC   C3B43113   0.028  23.321   6.970
 3232POPC   C4B43114  44.866  23.514   7.341
 3233POPC   NC343115  28.671  32.494   5.357
 3233POPC   PO443116  28.460  31.856   5.423
 3233POPC   GL143117  28.287  32.107   5.794
 3233POPC   GL243118  28.453  32.409   5.799
 3233POPC   C1A43119  28.198  32.297   6.220
 3233POPC   D2A43120  28.414  32.399   6.597
 3233POPC   C3A43121  28.232  32.379   7.007
 3233POPC   C4A43122  28.239  31.945   7.169
 3233POPC   C1B43123  28.712  32.214   6.094
 3233POPC   C2B43124  28.861  32.140   6.488
 3233POPC   C3B43125  28.783  32.224   6.910
 3233POPC   C4B43126  28.619  32.282   7.317
 3234POPC   NC343127  32.812  32.914   5.439
 3234POPC   PO443128  33.458  33.161   5.480
 3234POPC   GL143129  33.167  33.217   5.816
 3234POPC   GL243130  33.032  32.896   5.957
 3234POPC   C1A43131  32.981  33.374   6.199
 3234POPC   D2A43132  32.831  33.138   6.533
 3234POPC   C3A43133  32.833  33.267   6.931
 3234POPC   C4A43134  33.175  33.135   7.160
 3234POPC   C1B43135  32.965  32.676   6.365
 3234POPC   C2B43136  32.956  32.746   6.854
 3234POPC   C3B43137  32.840  32.726   7.308
 3234POPC   C4B43138  32.739  32.654   7.752
 3235POPC   NC343139   5.894  32.911   5.443
 3235POPC   PO443140   6.295  33.433   5.389
 3235POPC   GL143141   6.052  33.323   5.807
 3235POPC   GL243142   5.901  32.967   5.951
 3235POPC   C1A43143   5.682  33.413   6.100
 3235POPC   D2A43144   5.510  33.239   6.500
 3235POPC   C3A43145   5.607  33.415   6.880
 3235POPC   C4A43146   5.601  33.259   7.272
 3235POPC   C1B43147   5.544  32.787   6.234
 3235POPC   C2B43148   5.427  32.719   6.693
 3235POPC   C3B43149   5.697  32.782   7.070
 3235POPC   C4B43150   6.105  32.548   7.124
 3236POPC   NC343151   1.257  25.691   5.387
 3236POPC   PO443152   1.295  24.995   5.365
 3236POPC   GL143153   1.231  25.273   5.739
 3236POPC   GL243154   0.874  25.371   5.820
 3236POPC   C1A43155   1.545  25.425   6.076
 3236POPC   D2A43156   1.546  25.588   6.517
 3236POPC   C3A43157   1.328  25.295   6.781
 3236POPC   C4A43158   1.410  25.026   7.131
 3236POPC   C1B43159   0.938  25.058   6.189
 3236POPC   C2B43160   0.750  24.908   6.568
 3236POPC   C3B43161   0.929  24.945   6.959
 3236POPC   C4B43162   0.976  25.340   7.160
 3237POPC   NC343163  28.678  21.806   5.314
 3237POPC   PO443164  28.246  22.374   5.530
 3237POPC   GL143165  28.354  22.082   5.825
 3237POPC   GL243166  28.694  22.033   5.769
 3237POPC   C1A43167  28.212  21.967   6.222
 3237POPC   D2A43168  28.406  21.776   6.587
 3237POPC   C3A43169  28.273  21.996   6.972
 3237POPC   C4A43170  28.425  22.366   7.138
 3237POPC   C1B43171  28.722  21.766   6.122
 3237POPC   C2B43172  28.931  21.754   6.539
 3237POPC   C3B43173  28.806  21.919   6.915
 3237POPC   C4B43174  28.615  21.699   7.204
 3238POPC   NC343175   6.077  37.191   5.455
 3238POPC   PO443176   5.712  36.671   5.233
 3238POPC   GL143177   5.773  36.767   5.685
 3238POPC   GL243178   6.104  36.719   5.778
 3238POPC   C1A43179   5.786  36.913   6.159
 3238POPC   D2A43180   5.885  37.098   6.605
 3238POPC   C3A43181   5.671  36.967   6.988
 3238POPC   C4A43182   5.439  37.178   7.332
 3238POPC   C1B43183   6.096  36.504   6.220
 3238POPC   C2B43184   6.017  36.611   6.699
 3238POPC   C3B43185   6.009  36.634   7.189
 3238POPC   C4B43186   6.066  36.667   7.676
 3239POPC   NC343187  39.760  22.372   5.230
 3239POPC   PO443188  40.250  21.879   5.314
 3239POPC   GL143189  40.168  21.839   5.730
 3239POPC   GL243190  39.999  22.152   5.797
 3239POPC   C1A43191  40.298  21.861   6.160
 3239POPC   D2A43192  40.112  22.039   6.513
 3239POPC   C3A43193  40.115  21.846   6.850
 3239POPC   C4A43194  40.254  22.108   7.197
 3239POPC   C1B43195  39.787  21.909   6.135
 3239POPC   C2B43196  39.609  21.948   6.522
 3239POPC   C3B43197  39.721  22.147   6.899
 3239POPC   C4B43198  39.788  21.860   7.247
 3240POPC   NC343199  10.713   9.318   5.296
 3240POPC   PO443200  10.074   9.275   5.505
 3240POPC   GL143201  10.274   9.135   5.839
 3240POPC   GL243202  10.555   8.936   5.701
 3240POPC   C1A43203  10.411   9.011   6.234
 3240POPC   D2A43204  10.698   9.240   6.484
 3240POPC   C3A43205  10.669   9.038   6.859
 3240POPC   C4A43206  10.291   8.945   7.028
 3240POPC   C1B43207  10.765   8.689   6.044
 3240POPC   C2B43208  10.685   8.551   6.480
 3240POPC   C3B43209  10.820   8.534   6.908
 3240POPC   C4B43210  10.738   8.748   7.290
 3241POPC   NC343211   0.908  20.066   5.239
 3241POPC   PO443212   1.409  19.772   5.563
 3241POPC   GL143213   1.167  19.983   5.869
 3241POPC   GL243214   0.973  19.684   5.960
 3241POPC   C1A43215   1.168  20.053   6.326
 3241POPC   D2A43216   1.140  19.836   6.737
 3241POPC   C3A43217   1.382  19.917   7.102
 3241POPC   C4A43218   1.393  20.242   7.429
 3241POPC   C1B43219   1.303  19.553   6.312
 3241POPC   C2B43220   1.426  19.429   6.768
 3241POPC   C3B43221   1.222  19.431   7.180
 3241POPC   C4B43222   1.002  19.449   7.590
 3242POPC   NC343223  43.416  16.678   5.550
 3242POPC   PO443224  42.707  16.655   5.391
 3242POPC   GL143225  42.915  16.605   5.822
 3242POPC   GL243226  42.705  16.825   6.040
 3242POPC   C1A43227  43.082  16.579   6.272
 3242POPC   D2A43228  42.925  16.858   6.607
 3242POPC   C3A43229  42.982  16.680   7.004
 3242POPC   C4A43230  43.125  16.380   7.329
 3242POPC   C1B43231  43.077  17.086   6.151
 3242POPC   C2B43232  43.278  17.255   6.528
 3242POPC   C3B43233  43.204  17.142   6.961
 3242POPC   C4B43234  43.168  16.999   7.389
 3243POPC   NC343235   0.957   4.033   5.327
 3243POPC   PO443236   1.514   3.903   5.458
 3243POPC   GL143237   1.151   4.045   5.794
 3243POPC   GL243238   0.759   3.930   5.808
 3243POPC   C1A43239   1.191   4.281   6.202
 3243POPC   D2A43240   0.925   4.392   6.571
 3243POPC   C3A43241   1.119   4.532   6.940
 3243POPC   C4A43242   1.446   4.325   7.141
 3243POPC   C1B43243   0.812   3.961   6.253
 3243POPC   C2B43244   0.690   3.970   6.691
 3243POPC   C3B43245   1.005   4.036   7.036
 3243POPC   C4B43246   1.110   4.102   7.471
 3244POPC   NC343247  17.942  12.298   5.365
 3244POPC   PO443248  17.962  11.609   5.458
 3244POPC   GL143249  18.226  11.812   5.780
 3244POPC   GL243250  18.224  12.189   5.828
 3244POPC   C1A43251  18.278  11.897   6.243
 3244POPC   D2A43252  18.111  12.114   6.610
 3244POPC   C3A43253  18.111  11.922   7.028
 3244POPC   C4A43254  18.514  11.946   7.210
 3244POPC   C1B43255  18.293  12.417   6.228
 3244POPC   C2B43256  18.195  12.626   6.639
 3244POPC   C3B43257  18.302  12.418   7.006
 3244POPC   C4B43258  18.478  12.440   7.391
 3245POPC   NC343259  18.112  38.803   5.493
 3245POPC   PO443260  18.292  39.401   5.578
 3245POPC   GL143261  18.028  39.148   5.872
 3245POPC   GL243262  18.351  38.982   5.947
 3245POPC   C1A43263  17.969  39.124   6.345
 3245POPC   D2A43264  18.197  39.409   6.656
 3245POPC   C3A43265  18.491  39.189   6.939
 3245POPC   C4A43266  18.432  39.089   7.371
 3245POPC   C1B43267  18.560  38.717   6.265
 3245POPC   C2B43268  18.353  38.710   6.677
 3245POPC   C3B43269  18.012  38.981   6.889
 3245POPC   C4B43270  17.967  39.279   7.233
 3246POPC   NC343271  15.385  18.820   5.382
 3246POPC   PO443272  14.955  19.384   5.379
 3246POPC   GL143273  15.157  19.317   5.782
 3246POPC   GL243274  15.501  19.252   5.802
 3246POPC   C1A43275  15.179  18.981   6.125
 3246POPC   D2A43276  15.103  19.110   6.567
 3246POPC   C3A43277  14.846  18.884   6.864
 3246POPC   C4A43278  15.008  18.885   7.257
 3246POPC   C1B43279  15.434  19.405   6.254
 3246POPC   C2B43280  15.409  19.518   6.715
 3246POPC   C3B43281  15.216  19.316   7.063
 3246POPC   C4B43282  15.301  19.310   7.521
 3247POPC   NC343283  44.592  44.784   5.329
 3247POPC   PO443284   0.030  44.298   5.436
 3247POPC   GL143285  44.724  44.535   5.790
 3247POPC   GL243286  44.449  44.812   5.815
 3247POPC   C1A43287  44.617  44.616   6.260
 3247POPC   D2A43288  44.869  44.806   6.548
 3247POPC   C3A43289  44.937  44.615   6.926
 3247POPC   C4A43290  44.783  44.785   7.277
 3247POPC   C1B43291  44.179  44.475   6.043
 3247POPC   C2B43292  44.151  44.459   6.517
 3247POPC   C3B43293  44.430  44.664   6.852
 3247POPC   C4B43294  44.298  44.956   7.231
 3248POPC   NC343295  30.304   0.697   5.485
 3248POPC   PO443296  29.916   0.075   5.320
 3248POPC   GL143297  30.027   0.238   5.738
 3248POPC   GL243298  29.700   0.284   5.783
 3248POPC   C1A43299  30.051   0.548   6.144
 3248POPC   D2A43300  30.246   0.527   6.594
 3248POPC   C3A43301  29.987   0.568   6.983
 3248POPC   C4A43302  29.990   0.313   7.330
 3248POPC   C1B43303  29.766   0.129   6.182
 3248POPC   C2B43304  29.746   0.340   6.554
 3248POPC   C3B43305  29.662   0.147   6.940
 3248POPC   C4B43306  29.472   0.258   7.330
 3249POPC   NC343307   2.418  28.556   5.587
 3249POPC   PO443308   1.838  28.684   5.814
 3249POPC   GL143309   1.836  28.402   6.055
 3249POPC   GL243310   2.064  28.224   5.924
 3249POPC   C1A43311   1.830  28.355   6.452
 3249POPC   D2A43312   2.160  28.480   6.695
 3249POPC   C3A43313   2.072  28.520   7.093
 3249POPC   C4A43314   2.374  28.591   7.372
 3249POPC   C1B43315   2.319  28.198   6.290
 3249POPC   C2B43316   2.367  27.984   6.688
 3249POPC   C3B43317   2.215  28.033   7.128
 3249POPC   C4B43318   1.805  27.957   7.376
 3250POPC   NC343319   5.917   9.573   5.305
 3250POPC   PO443320   5.379   9.943   5.210
 3250POPC   GL143321   5.539   9.671   5.626
 3250POPC   GL243322   5.906   9.804   5.750
 3250POPC   C1A43323   5.608   9.649   6.112
 3250POPC   D2A43324   5.649   9.895   6.512
 3250POPC   C3A43325   5.631   9.707   6.918
 3250POPC   C4A43326   5.699   9.877   7.313
 3250POPC   C1B43327   6.046   9.932   6.176
 3250POPC   C2B43328   6.174   9.793   6.608
 3250POPC   C3B43329   6.128   9.704   7.039
 3250POPC   C4B43330   6.171   9.802   7.483
 3251POPC   NC343331  25.870   0.852   5.357
 3251POPC   PO443332  25.984   1.479   5.231
 3251POPC   GL143333  25.899   1.285   5.652
 3251POPC   GL243334  26.241   1.160   5.718
 3251POPC   C1A43335  25.934   1.261   6.132
 3251POPC   D2A43336  26.130   1.282   6.570
 3251POPC   C3A43337  25.824   1.064   6.866
 3251POPC   C4A43338  25.755   1.086   7.332
 3251POPC   C1B43339  26.451   1.086   6.122
 3251POPC   C2B43340  26.592   0.881   6.512
 3251POPC   C3B43341  26.443   0.954   6.882
 3251POPC   C4B43342  26.228   1.202   7.139
 3252POPC   NC343343  40.965  36.117   5.106
 3252POPC   PO443344  41.537  35.905   5.461
 3252POPC   GL143345  41.510  36.016   5.902
 3252POPC   GL243346  41.292  35.728   5.902
 3252POPC   C1A43347  41.730  36.254   6.248
 3252POPC   D2A43348  41.836  36.467   6.651
 3252POPC   C3A43349  41.580  36.391   7.028
 3252POPC   C4A43350  41.816  36.211   7.393
 3252POPC   C1B43351  41.290  35.772   6.327
 3252POPC   C2B43352  41.479  36.029   6.646
 3252POPC   C3B43353  41.614  35.893   7.037
 3252POPC   C4B43354  41.462  35.857   7.456
 3253POPC   NC343355   0.798   0.558   5.355
 3253POPC   PO443356   1.448   0.283   5.460
 3253POPC   GL143357   1.329   0.535   5.829
 3253POPC   GL243358   0.940   0.476   5.844
 3253POPC   C1A43359   1.557   0.506   6.257
 3253POPC   D2A43360   1.625   0.152   6.581
 3253POPC   C3A43361   1.524   0.310   6.995
 3253POPC   C4A43362   1.357   0.700   7.099
 3253POPC   C1B43363   1.065   0.331   6.247
 3253POPC   C2B43364   1.156   0.533   6.636
 3253POPC   C3B43365   0.962   0.430   7.033
 3253POPC   C4B43366   1.164   0.209   7.395
 3254POPC   NC343367  21.943  40.324   5.367
 3254POPC   PO443368  22.453  39.807   5.453
 3254POPC   GL143369  22.292  40.082   5.746
 3254POPC   GL243370  21.931  39.987   5.743
 3254POPC   C1A43371  22.508  40.238   6.131
 3254POPC   D2A43372  22.656  40.134   6.558
 3254POPC   C3A43373  22.329  40.089   6.857
 3254POPC   C4A43374  22.195  40.095   7.298
 3254POPC   C1B43375  21.998  39.919   6.169
 3254POPC   C2B43376  21.902  40.089   6.562
 3254POPC   C3B43377  21.785  40.011   6.997
 3254POPC   C4B43378  21.717  40.086   7.444
 3255POPC   NC343379  24.178  33.542   5.516
 3255POPC   PO443380  23.526  33.930   5.490
 3255POPC   GL143381  23.629  33.727   5.837
 3255POPC   GL243382  23.981  33.809   5.909
 3255POPC   C1A43383  23.461  33.838   6.249
 3255POPC   D2A43384  23.208  33.840   6.635
 3255POPC   C3A43385  23.474  34.032   6.948
 3255POPC   C4A43386  23.637  34.005   7.341
 3255POPC   C1B43387  23.861  33.475   6.208
 3255POPC   C2B43388  23.587  33.447   6.582
 3255POPC   C3B43389  23.538  33.520   7.030
 3255POPC   C4B43390  23.918  33.557   7.290
 3256POPC   NC343391   3.860  14.212   5.643
 3256POPC   PO443392   4.472  14.288   5.371
 3256POPC   GL143393   4.464  14.476   5.788
 3256POPC   GL243394   4.679  14.750   5.795
 3256POPC   C1A43395   4.308  14.415   6.230
 3256POPC   D2A43396   4.276  14.076   6.537
 3256POPC   C3A43397   4.291  14.189   6.981
 3256POPC   C4A43398   4.598  14.066   7.285
 3256POPC   C1B43399   4.680  14.777   6.256
 3256POPC   C2B43400   4.597  14.531   6.658
 3256POPC   C3B43401   4.609  14.563   7.108
 3256POPC   C4B43402   4.541  14.870   7.423
 3257POPC   NC343403  43.640  17.591   5.209
 3257POPC   PO443404  44.274  17.511   5.305
 3257POPC   GL143405  44.143  17.480   5.725
 3257POPC   GL243406  43.793  17.610   5.739
 3257POPC   C1A43407  44.175  17.684   6.139
 3257POPC   D2A43408  43.946  17.754   6.524
 3257POPC   C3A43409  44.065  17.609   6.939
 3257POPC   C4A43410  43.909  17.577   7.358
 3257POPC   C1B43411  43.686  17.476   6.162
 3257POPC   C2B43412  43.808  17.273   6.539
 3257POPC   C3B43413  43.631  17.392   6.900
 3257POPC   C4B43414  43.682  17.143   7.229
 3258POPC   NC343415   9.846  37.598   5.290
 3258POPC   PO443416   9.262  37.330   5.530
 3258POPC   GL143417   9.682  37.397   5.756
 3258POPC   GL243418   9.833  37.774   5.765
 3258POPC   C1A43419   9.816  37.508   6.188
 3258POPC   D2A43420   9.612  37.805   6.510
 3258POPC   C3A43421   9.571  37.719   6.963
 3258POPC   C4A43422   9.843  37.518   7.263
 3258POPC   C1B43423   9.972  37.984   6.162
 3258POPC   C2B43424  10.134  37.780   6.572
 3258POPC   C3B43425  10.100  37.884   7.024
 3258POPC   C4B43426   9.787  38.010   7.378
 3259POPC   NC343427  40.954  26.769   5.134
 3259POPC   PO443428  40.542  26.789   5.675
 3259POPC   GL143429  40.855  26.905   5.910
 3259POPC   GL243430  40.761  26.701   6.169
 3259POPC   C1A43431  40.977  27.205   6.217
 3259POPC   D2A43432  40.843  27.081   6.595
 3259POPC   C3A43433  41.049  27.037   6.958
 3259POPC   C4A43434  40.786  26.925   7.282
 3259POPC   C1B43435  40.454  27.035   6.256
 3259POPC   C2B43436  40.351  27.178   6.639
 3259POPC   C3B43437  40.351  26.893   6.978
 3259POPC   C4B43438  40.417  26.519   7.222
 3260POPC   NC343439   2.250  14.145   5.409
 3260POPC   PO443440   2.024  14.823   5.351
 3260POPC   GL143441   2.015  14.515   5.693
 3260POPC   GL243442   2.296  14.574   5.888
 3260POPC   C1A43443   1.851  14.387   6.117
 3260POPC   D2A43444   2.023  14.435   6.525
 3260POPC   C3A43445   1.862  14.329   6.937
 3260POPC   C4A43446   1.951  14.493   7.340
 3260POPC   C1B43447   2.334  14.211   6.134
 3260POPC   C2B43448   2.394  14.062   6.525
 3260POPC   C3B43449   2.215  13.939   6.860
 3260POPC   C4B43450   2.175  14.049   7.253
 3261POPC   NC343451   4.619  20.132   5.087
 3261POPC   PO443452   4.167  19.728   5.400
 3261POPC   GL143453   4.266  19.643   5.802
 3261POPC   GL243454   4.067  19.948   5.865
 3261POPC   C1A43455   4.388  19.752   6.232
 3261POPC   D2A43456   4.419  19.537   6.626
 3261POPC   C3A43457   4.523  19.752   6.994
 3261POPC   C4A43458   4.607  19.692   7.474
 3261POPC   C1B43459   4.016  20.198   6.213
 3261POPC   C2B43460   3.881  20.245   6.638
 3261POPC   C3B43461   3.986  20.075   7.023
 3261POPC   C4B43462   3.976  20.143   7.445
 3262POPC   NC343463  18.640  11.883   5.455
 3262POPC   PO443464  19.310  12.070   5.276
 3262POPC   GL143465  19.075  12.043   5.675
 3262POPC   GL243466  18.768  12.288   5.785
 3262POPC   C1A43467  19.079  12.071   6.118
 3262POPC   D2A43468  19.107  12.304   6.492
 3262POPC   C3A43469  19.268  12.119   6.848
 3262POPC   C4A43470  19.050  11.887   7.195
 3262POPC   C1B43471  18.794  12.561   6.183
 3262POPC   C2B43472  18.705  12.584   6.658
 3262POPC   C3B43473  18.823  12.323   7.026
 3262POPC   C4B43474  18.942  12.292   7.503
 3263POPC   NC343475  38.495  25.732   5.479
 3263POPC   PO443476  38.847  26.333   5.481
 3263POPC   GL143477  38.657  26.273   5.867
 3263POPC   GL243478  38.339  26.117   5.808
 3263POPC   C1A43479  38.673  26.011   6.235
 3263POPC   D2A43480  38.488  26.084   6.622
 3263POPC   C3A43481  38.693  26.117   7.019
 3263POPC   C4A43482  38.633  25.927   7.421
 3263POPC   C1B43483  38.154  25.987   6.211
 3263POPC   C2B43484  37.934  25.993   6.613
 3263POPC   C3B43485  38.158  25.940   6.976
 3263POPC   C4B43486  38.202  26.159   7.332
 3264POPC   NC343487   0.112  30.972   5.334
 3264POPC   PO443488  44.699  30.407   5.202
 3264POPC   GL143489  44.638  30.422   5.678
 3264POPC   GL243490  44.953  30.533   5.816
 3264POPC   C1A43491  44.489  30.476   6.128
 3264POPC   D2A43492  44.678  30.473   6.567
 3264POPC   C3A43493  44.539  30.753   6.926
 3264POPC   C4A43494  44.720  31.002   7.295
 3264POPC   C1B43495  44.906  30.783   6.192
 3264POPC   C2B43496   0.082  30.792   6.618
 3264POPC   C3B43497   0.031  30.622   7.034
 3264POPC   C4B43498  44.908  30.433   7.414
 3265POPC   NC343499  18.197  15.640   5.534
 3265POPC   PO443500  18.331  15.091   5.163
 3265POPC   GL143501  18.443  15.096   5.742
 3265POPC   GL243502  18.706  14.993   5.841
 3265POPC   C1A43503  18.227  15.240   6.249
 3265POPC   D2A43504  17.911  15.329   6.621
 3265POPC   C3A43505  18.113  15.219   7.011
 3265POPC   C4A43506  18.442  15.393   7.221
 3265POPC   C1B43507  18.584  14.894   6.245
 3265POPC   C2B43508  18.495  15.043   6.680
 3265POPC   C3B43509  18.669  14.947   7.079
 3265POPC   C4B43510  18.801  14.916   7.494
 3266POPC   NC343511  32.382   1.466   5.358
 3266POPC   PO443512  31.736   1.099   5.438
 3266POPC   GL143513  31.999   1.332   5.729
 3266POPC   GL243514  32.362   1.241   5.789
 3266POPC   C1A43515  32.047   1.294   6.173
 3266POPC   D2A43516  32.088   1.074   6.534
 3266POPC   C3A43517  32.026   1.335   6.908
 3266POPC   C4A43518  32.088   1.393   7.348
 3266POPC   C1B43519  32.557   1.374   6.184
 3266POPC   C2B43520  32.458   1.440   6.625
 3266POPC   C3B43521  32.666   1.359   7.022
 3266POPC   C4B43522  32.641   1.459   7.445
 3267POPC   NC343523  24.023  43.179   5.577
 3267POPC   PO443524  23.451  43.029   5.281
 3267POPC   GL143525  23.502  43.026   5.735
 3267POPC   GL243526  23.370  42.700   5.801
 3267POPC   C1A43527  23.635  43.179   6.179
 3267POPC   D2A43528  23.555  43.050   6.618
 3267POPC   C3A43529  23.580  43.358   6.941
 3267POPC   C4A43530  23.780  43.205   7.308
 3267POPC   C1B43531  23.786  42.698   6.044
 3267POPC   C2B43532  23.982  42.855   6.424
 3267POPC   C3B43533  23.979  42.921   6.890
 3267POPC   C4B43534  24.118  42.769   7.274
 3268POPC   NC343535  19.324   2.847   5.458
 3268POPC   PO443536  18.720   2.452   5.424
 3268POPC   GL143537  19.032   2.567   5.777
 3268POPC   GL243538  19.049   2.924   5.893
 3268POPC   C1A43539  19.160   2.565   6.234
 3268POPC   D2A43540  18.981   2.689   6.653
 3268POPC   C3A43541  19.240   2.547   6.985
 3268POPC   C4A43542  19.225   2.638   7.425
 3268POPC   C1B43543  19.161   3.089   6.334
 3268POPC   C2B43544  19.344   3.244   6.730
 3268POPC   C3B43545  19.198   3.052   7.119
 3268POPC   C4B43546  19.233   3.113   7.601
 3269POPC   NC343547  42.120  38.370   5.110
 3269POPC   PO443548  41.437  38.383   5.410
 3269POPC   GL143549  41.394  38.591   5.826
 3269POPC   GL243550  41.752  38.645   5.943
 3269POPC   C1A43551  41.261  38.425   6.239
 3269POPC   D2A43552  41.246  38.615   6.669
 3269POPC   C3A43553  41.342  38.352   7.017
 3269POPC   C4A43554  41.645  38.183   7.313
 3269POPC   C1B43555  41.605  38.783   6.325
 3269POPC   C2B43556  41.715  38.444   6.575
 3269POPC   C3B43557  41.903  38.298   6.902
 3269POPC   C4B43558  41.989  38.547   7.228
 3270POPC   NC343559  44.227  23.998   5.626
 3270POPC   PO443560  44.646  24.521   5.350
 3270POPC   GL143561  44.569  24.399   5.786
 3270POPC   GL243562  44.804  24.104   5.792
 3270POPC   C1A43563  44.295  24.413   6.191
 3270POPC   D2A43564  44.415  24.160   6.556
 3270POPC   C3A43565  44.351  24.299   6.972
 3270POPC   C4A43566  44.417  24.708   7.058
 3270POPC   C1B43567  44.809  24.320   6.247
 3270POPC   C2B43568  44.902  24.268   6.732
 3270POPC   C3B43569  44.893  24.288   7.220
 3270POPC   C4B43570   0.001  24.352   7.649
 3271POPC   NC343571  24.262  17.201   5.425
 3271POPC   PO443572  24.763  17.730   5.396
 3271POPC   GL143573  24.541  17.492   5.754
 3271POPC   GL243574  24.207  17.665   5.828
 3271POPC   C1A43575  24.496  17.553   6.241
 3271POPC   D2A43576  24.564  17.793   6.648
 3271POPC   C3A43577  24.493  17.551   7.040
 3271POPC   C4A43578  24.622  17.141   7.254
 3271POPC   C1B43579  24.004  17.400   6.152
 3271POPC   C2B43580  24.065  17.258   6.579
 3271POPC   C3B43581  24.130  17.129   6.998
 3271POPC   C4B43582  24.148  17.325   7.373
 3272POPC   NC343583  42.591  20.482   5.327
 3272POPC   PO443584  43.243  20.619   5.409
 3272POPC   GL143585  43.003  20.397   5.681
 3272POPC   GL243586  42.815  20.702   5.762
 3272POPC   C1A43587  42.967  20.330   6.150
 3272POPC   D2A43588  42.764  20.292   6.570
 3272POPC   C3A43589  43.037  20.475   6.895
 3272POPC   C4A43590  43.215  20.615   7.276
 3272POPC   C1B43591  43.036  20.854   6.195
 3272POPC   C2B43592  43.224  20.904   6.658
 3272POPC   C3B43593  43.177  21.098   7.108
 3272POPC   C4B43594  43.123  21.083   7.599
 3273POPC   NC343595  21.690  44.381   5.498
 3273POPC   PO443596  21.198  44.737   5.230
 3273POPC   GL143597  21.384  44.751   5.723
 3273POPC   GL243598  21.206   0.030   5.840
 3273POPC   C1A43599  21.625  44.575   6.167
 3273POPC   D2A43600  21.663  44.303   6.590
 3273POPC   C3A43601  21.390  44.426   6.982
 3273POPC   C4A43602  21.337  44.683   7.390
 3273POPC   C1B43603  21.221  44.887   6.262
 3273POPC   C2B43604  21.366  44.863   6.691
 3273POPC   C3B43605  21.197   0.052   7.068
 3273POPC   C4B43606  20.854  44.933   7.317
 3274POPC   NC343607  18.834   3.619   5.300
 3274POPC   PO443608  19.470   3.270   5.263
 3274POPC   GL143609  19.110   3.325   5.559
 3274POPC   GL243610  19.271   3.645   5.650
 3274POPC   C1A43611  18.952   3.429   6.004
 3274POPC   D2A43612  18.980   3.610   6.446
 3274POPC   C3A43613  19.051   3.659   6.917
 3274POPC   C4A43614  18.869   3.874   7.283
 3274POPC   C1B43615  19.383   3.716   6.107
 3274POPC   C2B43616  19.427   3.803   6.572
 3274POPC   C3B43617  19.570   3.715   6.974
 3274POPC   C4B43618  19.493   3.450   7.316
 3275POPC   NC343619   9.243  44.004   5.087
 3275POPC   PO443620   8.803  43.588   5.394
 3275POPC   GL143621   8.756  43.920   5.704
 3275POPC   GL243622   9.100  44.037   5.767
 3275POPC   C1A43623   8.772  44.016   6.169
 3275POPC   D2A43624   8.858  43.815   6.576
 3275POPC   C3A43625   8.902  43.990   6.987
 3275POPC   C4A43626   8.711  43.644   7.248
 3275POPC   C1B43627   9.278  43.748   6.115
 3275POPC   C2B43628   9.253  43.495   6.495
 3275POPC   C3B43629   9.264  43.622   6.925
 3275POPC   C4B43630   9.198  43.752   7.335
 3276POPC   NC343631  42.791  31.580   5.067
 3276POPC   PO443632  43.174  31.664   5.684
 3276POPC   GL143633  43.089  31.416   5.997
 3276POPC   GL243634  42.821  31.275   5.871
 3276POPC   C1A43635  42.980  31.629   6.365
 3276POPC   D2A43636  43.228  31.846   6.677
 3276POPC   C3A43637  43.209  31.547   7.008
 3276POPC   C4A43638  42.855  31.637   7.285
 3276POPC   C1B43639  42.734  31.009   6.189
 3276POPC   C2B43640  42.839  31.147   6.570
 3276POPC   C3B43641  42.749  31.256   6.965
 3276POPC   C4B43642  43.011  31.157   7.298
 3277POPC   NC343643  22.610  28.533   5.130
 3277POPC   PO443644  23.235  28.512   5.170
 3277POPC   GL143645  23.115  28.529   5.679
 3277POPC   GL243646  22.892  28.255   5.820
 3277POPC   C1A43647  23.066  28.555   6.201
 3277POPC   D2A43648  22.865  28.693   6.629
 3277POPC   C3A43649  22.917  28.530   7.035
 3277POPC   C4A43650  23.171  28.322   7.348
 3277POPC   C1B43651  22.669  28.205   6.238
 3277POPC   C2B43652  22.829  28.162   6.664
 3277POPC   C3B43653  22.802  28.037   7.100
 3277POPC   C4B43654  22.867  27.970   7.566
 3278POPC   NC343655  33.820  20.199   5.160
 3278POPC   PO443656  33.811  20.801   5.408
 3278POPC   GL143657  33.963  20.489   5.665
 3278POPC   GL243658  33.618  20.395   5.723
 3278POPC   C1A43659  34.005  20.431   6.116
 3278POPC   D2A43660  33.949  20.693   6.476
 3278POPC   C3A43661  33.941  20.510   6.846
 3278POPC   C4A43662  34.189  20.420   7.225
 3278POPC   C1B43663  33.503  20.617   6.143
 3278POPC   C2B43664  33.485  20.905   6.543
 3278POPC   C3B43665  33.432  20.757   6.981
 3278POPC   C4B43666  33.659  20.433   7.238
 3279POPC   NC343667  37.827  17.699   5.276
 3279POPC   PO443668  37.782  17.070   5.359
 3279POPC   GL143669  37.626  17.411   5.659
 3279POPC   GL243670  37.954  17.586   5.767
 3279POPC   C1A43671  37.597  17.541   6.131
 3279POPC   D2A43672  37.614  17.774   6.537
 3279POPC   C3A43673  37.657  17.742   6.989
 3279POPC   C4A43674  37.584  17.555   7.395
 3279POPC   C1B43675  37.926  17.164   5.993
 3279POPC   C2B43676  37.788  17.114   6.407
 3279POPC   C3B43677  37.770  17.291   6.810
 3279POPC   C4B43678  37.924  17.181   7.206
 3280POPC   NC343679   9.050  41.832   5.391
 3280POPC   PO443680   8.854  41.311   5.207
 3280POPC   GL143681   8.949  41.466   5.723
 3280POPC   GL243682   9.194  41.691   5.857
 3280POPC   C1A43683   8.766  41.628   6.121
 3280POPC   D2A43684   8.769  41.462   6.520
 3280POPC   C3A43685   9.127  41.410   6.799
 3280POPC   C4A43686   9.068  41.345   7.234
 3280POPC   C1B43687   9.275  41.475   6.224
 3280POPC   C2B43688   9.391  41.748   6.525
 3280POPC   C3B43689   9.122  41.977   6.774
 3280POPC   C4B43690   9.215  41.810   7.148
 3281POPC   NC343691   7.394  30.716   5.004
 3281POPC   PO443692   7.444  30.705   5.460
 3281POPC   GL143693   7.523  30.693   5.924
 3281POPC   GL243694   7.179  30.674   6.017
 3281POPC   C1A43695   7.523  30.764   6.403
 3281POPC   D2A43696   7.400  31.029   6.769
 3281POPC   C3A43697   7.527  30.935   7.201
 3281POPC   C4A43698   7.542  31.020   7.647
 3281POPC   C1B43699   7.197  30.366   6.350
 3281POPC   C2B43700   7.432  30.373   6.742
 3281POPC   C3B43701   7.255  30.491   7.132
 3281POPC   C4B43702   6.885  30.402   7.403
 3282POPC   NC343703  13.621  10.381   5.194
 3282POPC   PO443704  13.843  10.894   5.525
 3282POPC   GL143705  13.622  10.589   5.807
 3282POPC   GL243706  13.727  10.257   5.695
 3282POPC   C1A43707  13.376  10.597   6.217
 3282POPC   D2A43708  13.295  10.626   6.658
 3282POPC   C3A43709  13.335  10.337   6.946
 3282POPC   C4A43710  13.380  10.464   7.344
 3282POPC   C1B43711  13.625  10.162   6.127
 3282POPC   C2B43712  13.682  10.306   6.568
 3282POPC   C3B43713  13.835  10.271   7.030
 3282POPC   C4B43714  14.071  10.018   7.339
 3283POPC   NC343715   2.791  12.998   5.462
 3283POPC   PO443716   2.917  12.287   5.393
 3283POPC   GL143717   2.826  12.512   5.803
 3283POPC   GL243718   2.471  12.585   5.898
 3283POPC   C1A43719   2.860  12.852   6.126
 3283POPC   D2A43720   2.878  13.043   6.527
 3283POPC   C3A43721   2.764  12.772   6.840
 3283POPC   C4A43722   2.806  12.892   7.253
 3283POPC   C1B43723   2.347  12.905   6.201
 3283POPC   C2B43724   2.339  13.064   6.619
 3283POPC   C3B43725   2.313  12.853   7.034
 3283POPC   C4B43726   2.401  12.695   7.454
 3284POPC   NC343727   2.131   8.683   4.906
 3284POPC   PO443728   1.887   8.397   5.359
 3284POPC   GL143729   1.911   8.310   5.869
 3284POPC   GL243730   2.028   7.972   6.009
 3284POPC   C1A43731   1.941   8.555   6.294
 3284POPC   D2A43732   1.683   8.690   6.679
 3284POPC   C3A43733   1.923   8.642   7.086
 3284POPC   C4A43734   1.724   8.499   7.451
 3284POPC   C1B43735   2.194   8.090   6.416
 3284POPC   C2B43736   1.991   8.289   6.738
 3284POPC   C3B43737   1.620   8.215   7.014
 3284POPC   C4B43738   1.420   8.092   7.447
 3285POPC   NC343739  38.953  21.408   5.327
 3285POPC   PO443740  38.316  21.421   5.369
 3285POPC   GL143741  38.451  21.487   5.796
 3285POPC   GL243742  38.660  21.750   5.721
 3285POPC   C1A43743  38.486  21.304   6.232
 3285POPC   D2A43744  38.630  21.271   6.682
 3285POPC   C3A43745  38.370  21.258   7.053
 3285POPC   C4A43746  38.265  21.691   7.224
 3285POPC   C1B43747  38.653  21.799   6.173
 3285POPC   C2B43748  38.804  21.774   6.583
 3285POPC   C3B43749  38.959  21.582   6.927
 3285POPC   C4B43750  38.749  21.507   7.262
 3286POPC   NC343751  34.915  41.277   5.414
 3286POPC   PO443752  34.280  41.636   5.473
 3286POPC   GL143753  34.612  41.585   5.763
 3286POPC   GL243754  34.832  41.844   5.647
 3286POPC   C1A43755  34.550  41.516   6.211
 3286POPC   D2A43756  34.465  41.306   6.581
 3286POPC   C3A43757  34.631  41.464   6.932
 3286POPC   C4A43758  34.386  41.715   7.228
 3286POPC   C1B43759  34.926  41.849   6.111
 3286POPC   C2B43760  34.741  41.869   6.574
 3286POPC   C3B43761  34.907  41.869   7.038
 3286POPC   C4B43762  34.786  41.925   7.498
 3287POPC   NC343763   5.515  37.817   5.568
 3287POPC   PO443764   4.823  37.875   5.378
 3287POPC   GL143765   5.008  37.510   5.658
 3287POPC   GL243766   4.754  37.380   5.893
 3287POPC   C1A43767   5.212  37.393   6.113
 3287POPC   D2A43768   5.195  37.500   6.592
 3287POPC   C3A43769   5.373  37.883   6.791
 3287POPC   C4A43770   5.406  37.933   7.224
 3287POPC   C1B43771   4.831  37.769   6.104
 3287POPC   C2B43772   4.924  37.958   6.507
 3287POPC   C3B43773   4.890  37.816   6.952
 3287POPC   C4B43774   5.103  37.497   7.147
 3288POPC   NC343775  43.930   6.371   5.413
 3288POPC   PO443776  44.272   7.024   5.284
 3288POPC   GL143777  44.010   6.841   5.669
 3288POPC   GL243778  43.656   6.924   5.713
 3288POPC   C1A43779  43.876   6.686   6.112
 3288POPC   D2A43780  43.797   6.806   6.565
 3288POPC   C3A43781  43.918   6.494   6.886
 3288POPC   C4A43782  44.242   6.370   7.158
 3288POPC   C1B43783  43.513   7.045   6.174
 3288POPC   C2B43784  43.305   6.900   6.576
 3288POPC   C3B43785  43.482   6.764   6.988
 3288POPC   C4B43786  43.562   6.563   7.410
 3289POPC   NC343787  12.454  34.443   5.500
 3289POPC   PO443788  12.906  34.958   5.496
 3289POPC   GL143789  12.656  34.824   5.853
 3289POPC   GL243790  12.344  34.947   5.951
 3289POPC   C1A43791  12.739  34.766   6.307
 3289POPC   D2A43792  12.682  34.927   6.718
 3289POPC   C3A43793  12.932  34.782   7.084
 3289POPC   C4A43794  13.164  34.393   7.224
 3289POPC   C1B43795  12.310  34.551   6.148
 3289POPC   C2B43796  12.398  34.306   6.522
 3289POPC   C3B43797  12.448  34.511   6.911
 3289POPC   C4B43798  12.655  34.392   7.258
 3290POPC   NC343799   3.983  41.986   5.193
 3290POPC   PO443800   3.411  41.691   5.539
 3290POPC   GL143801   3.361  41.534   5.932
 3290POPC   GL243802   3.359  41.850   6.012
 3290POPC   C1A43803   3.335  41.528   6.391
 3290POPC   D2A43804   3.610  41.512   6.711
 3290POPC   C3A43805   3.424  41.458   7.080
 3290POPC   C4A43806   3.772  41.479   7.298
 3290POPC   C1B43807   3.770  41.764   6.290
 3290POPC   C2B43808   3.819  42.025   6.648
 3290POPC   C3B43809   3.643  41.919   7.039
 3290POPC   C4B43810   3.835  41.967   7.458
 3291POPC   NC343811   9.119  23.548   5.404
 3291POPC   PO443812   8.509  23.852   5.274
 3291POPC   GL143813   8.720  23.725   5.688
 3291POPC   GL243814   9.011  23.928   5.780
 3291POPC   C1A43815   8.902  23.518   6.077
 3291POPC   D2A43816   8.961  23.577   6.522
 3291POPC   C3A43817   8.689  23.410   6.834
 3291POPC   C4A43818   8.698  23.456   7.251
 3291POPC   C1B43819   9.140  23.985   6.207
 3291POPC   C2B43820   9.343  23.913   6.609
 3291POPC   C3B43821   9.047  23.907   6.927
 3291POPC   C4B43822   9.036  23.815   7.330
 3292POPC   NC343823  31.693  24.311   5.435
 3292POPC   PO443824  31.341  24.787   5.205
 3292POPC   GL143825  31.471  24.775   5.668
 3292POPC   GL243826  31.757  24.641   5.921
 3292POPC   C1A43827  31.293  24.732   6.095
 3292POPC   D2A43828  31.524  24.607   6.488
 3292POPC   C3A43829  31.425  24.445   6.902
 3292POPC   C4A43830  31.660  24.604   7.263
 3292POPC   C1B43831  31.895  24.334   6.253
 3292POPC   C2B43832  31.990  24.119   6.667
 3292POPC   C3B43833  31.812  24.128   7.093
 3292POPC   C4B43834  31.831  24.194   7.551
 3293POPC   NC343835  29.683  26.752   5.666
 3293POPC   PO443836  30.074  27.201   5.183
 3293POPC   GL143837  30.048  27.101   5.668
 3293POPC   GL243838  30.145  26.763   5.864
 3293POPC   C1A43839  30.167  27.225   6.080
 3293POPC   D2A43840  29.954  27.092   6.436
 3293POPC   C3A43841  30.123  27.067   6.829
 3293POPC   C4A43842  29.868  26.962   7.174
 3293POPC   C1B43843  29.934  26.611   6.241
 3293POPC   C2B43844  29.938  26.627   6.674
 3293POPC   C3B43845  30.176  26.544   7.047
 3293POPC   C4B43846  29.929  26.477   7.423
 3294POPC   NC343847   5.428   0.564   4.962
 3294POPC   PO443848   5.911   0.456   5.373
 3294POPC   GL143849   5.730   0.242   5.701
 3294POPC   GL243850   6.016   0.344   5.887
 3294POPC   C1A43851   5.558   0.176   6.108
 3294POPC   D2A43852   5.610   0.263   6.538
 3294POPC   C3A43853   5.387   0.555   6.783
 3294POPC   C4A43854   5.409   0.303   7.168
 3294POPC   C1B43855   6.084   0.655   6.200
 3294POPC   C2B43856   5.974   0.613   6.604
 3294POPC   C3B43857   5.854   0.448   6.976
 3294POPC   C4B43858   5.957   0.597   7.380
 3295POPC   NC343859  40.251  23.985   5.461
 3295POPC   PO443860  39.817  23.451   5.512
 3295POPC   GL143861  39.892  23.792   5.767
 3295POPC   GL243862  40.237  23.736   5.891
 3295POPC   C1A43863  39.822  23.818   6.178
 3295POPC   D2A43864  40.042  23.674   6.506
 3295POPC   C3A43865  39.768  23.587   6.833
 3295POPC   C4A43866  39.874  23.789   7.172
 3295POPC   C1B43867  40.286  24.050   6.207
 3295POPC   C2B43868  40.491  23.930   6.593
 3295POPC   C3B43869  40.379  23.753   6.967
 3295POPC   C4B43870  40.357  23.991   7.298
 3296POPC   NC343871  38.737  43.898   5.256
 3296POPC   PO443872  38.161  44.281   5.381
 3296POPC   GL143873  38.233  44.132   5.775
 3296POPC   GL243874  38.576  44.034   5.742
 3296POPC   C1A43875  38.213  43.766   6.078
 3296POPC   D2A43876  38.143  43.598   6.507
 3296POPC   C3A43877  38.333  43.708   6.903
 3296POPC   C4A43878  38.366  44.110   7.153
 3296POPC   C1B43879  38.727  43.743   6.088
 3296POPC   C2B43880  38.716  43.667   6.524
 3296POPC   C3B43881  38.836  43.851   6.922
 3296POPC   C4B43882  38.879  43.821   7.365
 3297POPC   NC343883  43.410  15.679   5.512
 3297POPC   PO443884  43.116  15.139   5.184
 3297POPC   GL143885  43.102  15.007   5.636
 3297POPC   GL243886  43.382  15.202   5.740
 3297POPC   C1A43887  43.046  15.054   6.112
 3297POPC   D2A43888  43.154  15.239   6.543
 3297POPC   C3A43889  42.953  15.127   6.933
 3297POPC   C4A43890  43.111  14.852   7.238
 3297POPC   C1B43891  43.508  15.305   6.169
 3297POPC   C2B43892  43.613  15.536   6.573
 3297POPC   C3B43893  43.422  15.670   6.978
 3297POPC   C4B43894  43.088  15.523   7.271
 3298POPC   NC343895  39.816  43.544   5.472
 3298POPC   PO443896  40.221  44.083   5.378
 3298POPC   GL143897  39.996  43.944   5.777
 3298POPC   GL243898  39.637  43.872   5.811
 3298POPC   C1A43899  39.860  44.007   6.225
 3298POPC   D2A43900  40.025  43.954   6.633
 3298POPC   C3A43901  39.783  44.010   7.011
 3298POPC   C4A43902  40.109  44.047   7.315
 3298POPC   C1B43903  39.683  43.511   6.134
 3298POPC   C2B43904  39.723  43.303   6.585
 3298POPC   C3B43905  39.801  43.483   7.009
 3298POPC   C4B43906  39.817  43.668   7.437
 3299POPC   NC343907  24.679  44.817   5.197
 3299POPC   PO443908  24.145  44.949   5.565
 3299POPC   GL143909  24.389  44.665   5.760
 3299POPC   GL243910  24.704  44.838   5.732
 3299POPC   C1A43911  24.281  44.535   6.174
 3299POPC   D2A43912  24.404  44.276   6.521
 3299POPC   C3A43913  24.417  44.523   6.893
 3299POPC   C4A43914  24.308  44.657   7.289
 3299POPC   C1B43915  24.762  44.492   6.064
 3299POPC   C2B43916  24.800  44.571   6.522
 3299POPC   C3B43917  24.862  44.904   6.810
 3299POPC   C4B43918  24.767  44.875   7.244
 3300POPC   NC343919  38.533   8.760   5.390
 3300POPC   PO443920  38.391   8.089   5.378
 3300POPC   GL143921  38.457   8.313   5.773
 3300POPC   GL243922  38.249   8.592   5.780
 3300POPC   C1A43923  38.602   8.176   6.199
 3300POPC   D2A43924  38.763   8.040   6.608
 3300POPC   C3A43925  38.511   8.028   6.974
 3300POPC   C4A43926  38.652   8.158   7.350
 3300POPC   C1B43927  38.435   8.649   6.212
 3300POPC   C2B43928  38.379   8.421   6.627
 3300POPC   C3B43929  38.401   8.526   7.063
 3300POPC   C4B43930  38.354   8.544   7.492
 3301POPC   NC343931  44.897  14.533   5.377
 3301POPC   PO443932   0.201  13.944   5.338
 3301POPC   GL143933  44.795  14.101   5.626
 3301POPC   GL243934  44.557  14.433   5.744
 3301POPC   C1A43935  44.823  14.228   6.105
 3301POPC   D2A43936  44.680  14.364   6.523
 3301POPC   C3A43937  44.816  14.322   6.963
 3301POPC   C4A43938  44.743  14.501   7.377
 3301POPC   C1B43939  44.301  14.674   6.070
 3301POPC   C2B43940  44.374  14.773   6.526
 3301POPC   C3B43941  44.299  14.587   6.965
 3301POPC   C4B43942  44.320  14.826   7.356
 3302POPC   NC343943  12.875  10.162   5.411
 3302POPC   PO443944  12.660  10.744   5.604
 3302POPC   GL143945  12.962  10.574   5.905
 3302POPC   GL243946  13.187  10.281   5.829
 3302POPC   C1A43947  12.880  10.550   6.358
 3302POPC   D2A43948  12.846  10.853   6.697
 3302POPC   C3A43949  12.942  10.632   7.076
 3302POPC   C4A43950  12.676  10.661   7.423
 3302POPC   C1B43951  12.805  10.114   6.087
 3302POPC   C2B43952  12.706  10.063   6.537
 3302POPC   C3B43953  12.761  10.167   6.964
 3302POPC   C4B43954  12.595  10.163   7.395
 3303POPC   NC343955  10.233  38.370   5.396
 3303POPC   PO443956  10.702  38.874   5.459
 3303POPC   GL143957  10.590  38.609   5.846
 3303POPC   GL243958  10.436  38.263   5.881
 3303POPC   C1A43959  10.588  38.565   6.319
 3303POPC   D2A43960  10.703  38.734   6.728
 3303POPC   C3A43961  10.801  38.600   7.160
 3303POPC   C4A43962  10.846  38.393   7.566
 3303POPC   C1B43963  10.453  38.083   6.303
 3303POPC   C2B43964  10.400  38.288   6.714
 3303POPC   C3B43965  10.501  38.206   7.126
 3303POPC   C4B43966  10.278  38.128   7.470
 3304POPC   NC343967   4.295  37.384   5.646
 3304POPC   PO443968   4.094  36.694   5.516
 3304POPC   GL143969   4.256  36.645   5.907
 3304POPC   GL243970   4.401  36.960   5.914
 3304POPC   C1A43971   4.114  36.828   6.313
 3304POPC   D2A43972   4.247  37.045   6.702
 3304POPC   C3A43973   4.092  36.840   7.050
 3304POPC   C4A43974   4.247  36.720   7.430
 3304POPC   C1B43975   4.477  37.233   6.282
 3304POPC   C2B43976   4.680  37.484   6.593
 3304POPC   C3B43977   4.613  37.373   7.021
 3304POPC   C4B43978   4.401  37.192   7.365
 3305POPC   NC343979  34.401  40.448   5.193
 3305POPC   PO443980  34.568  41.088   5.196
 3305POPC   GL143981  34.552  41.057   5.683
 3305POPC   GL243982  34.286  40.829   5.746
 3305POPC   C1A43983  34.821  41.113   6.081
 3305POPC   D2A43984  34.923  41.115   6.543
 3305POPC   C3A43985  34.655  40.870   6.837
 3305POPC   C4A43986  34.730  40.515   7.154
 3305POPC   C1B43987  34.340  40.963   6.186
 3305POPC   C2B43988  34.129  40.923   6.576
 3305POPC   C3B43989  34.166  40.710   6.954
 3305POPC   C4B43990  34.329  40.772   7.330
 3306POPC   NC343991  18.579   5.210   5.394
 3306POPC   PO443992  18.153   4.774   5.436
 3306POPC   GL143993  18.427   4.897   5.774
 3306POPC   GL243994  18.245   5.155   5.802
 3306POPC   C1A43995  18.650   5.103   6.114
 3306POPC   D2A43996  18.833   4.966   6.492
 3306POPC   C3A43997  18.634   5.066   6.901
 3306POPC   C4A43998  18.659   5.399   7.183
 3306POPC   C1B43999  18.142   4.992   6.227
 3306POPC   C2B44000  18.179   4.912   6.686
 3306POPC   C3B44001  18.109   5.068   7.125
 3306POPC   C4B44002  17.907   4.935   7.538
 3307POPC   NC344003   7.110  38.518   5.451
 3307POPC   PO444004   7.764  38.236   5.291
 3307POPC   GL144005   7.703  38.414   5.713
 3307POPC   GL244006   7.440  38.679   5.798
 3307POPC   C1A44007   7.646  38.432   6.182
 3307POPC   D2A44008   7.706  38.615   6.595
 3307POPC   C3A44009   7.394  38.474   6.881
 3307POPC   C4A44010   7.334  38.364   7.294
 3307POPC   C1B44011   7.128  38.511   6.134
 3307POPC   C2B44012   6.972  38.414   6.573
 3307POPC   C3B44013   6.890  38.319   7.029
 3307POPC   C4B44014   6.863  38.385   7.486
 3308POPC   NC344015   4.121  19.252   5.380
 3308POPC   PO444016   4.729  19.595   5.540
 3308POPC   GL144017   4.574  19.214   5.806
 3308POPC   GL244018   4.241  18.986   5.791
 3308POPC   C1A44019   4.352  19.217   6.219
 3308POPC   D2A44020   4.048  19.163   6.556
 3308POPC   C3A44021   4.392  19.056   6.804
 3308POPC   C4A44022   4.552  19.268   7.144
 3308POPC   C1B44023   3.987  18.812   6.161
 3308POPC   C2B44024   4.047  18.612   6.588
 3308POPC   C3B44025   4.107  18.698   7.032
 3308POPC   C4B44026   4.055  19.088   7.161
 3309POPC   NC344027  18.832  34.430   5.324
 3309POPC   PO444028  19.483  34.320   5.213
 3309POPC   GL144029  19.244  34.488   5.614
 3309POPC   GL244030  19.057  34.221   5.770
 3309POPC   C1A44031  19.187  34.668   6.058
 3309POPC   D2A44032  18.882  34.819   6.373
 3309POPC   C3A44033  18.952  34.822   6.860
 3309POPC   C4A44034  18.876  34.856   7.320
 3309POPC   C1B44035  19.273  34.190   6.213
 3309POPC   C2B44036  19.137  34.429   6.561
 3309POPC   C3B44037  19.069  34.344   6.979
 3309POPC   C4B44038  18.961  34.345   7.394
 3310POPC   NC344039  27.819  27.225   5.422
 3310POPC   PO444040  27.591  27.905   5.377
 3310POPC   GL144041  27.854  27.743   5.765
 3310POPC   GL244042  27.964  27.361   5.877
 3310POPC   C1A44043  27.575  27.601   6.098
 3310POPC   D2A44044  27.349  27.526   6.480
 3310POPC   C3A44045  27.438  27.584   6.907
 3310POPC   C4A44046  27.262  27.523   7.302
 3310POPC   C1B44047  27.875  27.259   6.323
 3310POPC   C2B44048  27.914  27.454   6.724
 3310POPC   C3B44049  27.877  27.542   7.174
 3310POPC   C4B44050  27.720  27.450   7.578
 3311POPC   NC344051  28.006   6.867   5.480
 3311POPC   PO444052  28.648   6.650   5.383
 3311POPC   GL144053  28.532   6.617   5.810
 3311POPC   GL244054  28.161   6.548   5.854
 3311POPC   C1A44055  28.667   6.738   6.235
 3311POPC   D2A44056  28.682   6.487   6.626
 3311POPC   C3A44057  28.654   6.745   6.966
 3311POPC   C4A44058  28.440   6.814   7.356
 3311POPC   C1B44059  28.204   6.924   6.141
 3311POPC   C2B44060  28.355   6.942   6.590
 3311POPC   C3B44061  28.127   6.865   6.943
 3311POPC   C4B44062  27.971   6.996   7.325
 3312POPC   NC344063  26.463   9.508   5.541
 3312POPC   PO444064  26.658   9.969   5.130
 3312POPC   GL144065  26.804   9.882   5.604
 3312POPC   GL244066  27.137   9.840   5.741
 3312POPC   C1A44067  26.765   9.873   6.104
 3312POPC   D2A44068  26.559   9.979   6.515
 3312POPC   C3A44069  26.735   9.927   6.945
 3312POPC   C4A44070  26.556  10.113   7.322
 3312POPC   C1B44071  27.270   9.752   6.145
 3312POPC   C2B44072  27.070   9.782   6.545
 3312POPC   C3B44073  27.226   9.822   6.964
 3312POPC   C4B44074  27.027   9.755   7.366
 3313POPC   NC344075  25.023  27.084   5.336
 3313POPC   PO444076  25.377  26.457   5.348
 3313POPC   GL144077  25.340  26.558   5.812
 3313POPC   GL244078  25.132  26.858   5.815
 3313POPC   C1A44079  25.419  26.745   6.257
 3313POPC   D2A44080  25.537  26.648   6.688
 3313POPC   C3A44081  25.551  26.961   6.975
 3313POPC   C4A44082  25.418  27.049   7.377
 3313POPC   C1B44083  24.966  26.976   6.227
 3313POPC   C2B44084  25.021  26.735   6.635
 3313POPC   C3B44085  25.106  26.695   7.071
 3313POPC   C4B44086  24.957  26.894   7.453
 3314POPC   NC344087  12.503  23.456   5.627
 3314POPC   PO444088  13.080  23.663   5.256
 3314POPC   GL144089  13.034  23.606   5.738
 3314POPC   GL244090  12.900  23.302   5.911
 3314POPC   C1A44091  12.789  23.757   6.131
 3314POPC   D2A44092  12.812  23.675   6.564
 3314POPC   C3A44093  12.789  23.935   6.918
 3314POPC   C4A44094  13.151  23.859   7.144
 3314POPC   C1B44095  12.595  23.213   6.250
 3314POPC   C2B44096  12.551  23.267   6.696
 3314POPC   C3B44097  12.762  23.407   7.051
 3314POPC   C4B44098  12.496  23.385   7.408
 3315POPC   NC344099  31.003  36.932   5.249
 3315POPC   PO444100  31.653  36.836   5.254
 3315POPC   GL144101  31.549  36.932   5.689
 3315POPC   GL244102  31.221  37.076   5.694
 3315POPC   C1A44103  31.670  37.024   6.143
 3315POPC   D2A44104  31.629  37.260   6.531
 3315POPC   C3A44105  31.679  36.968   6.856
 3315POPC   C4A44106  31.672  36.694   7.217
 3315POPC   C1B44107  31.213  36.762   6.029
 3315POPC   C2B44108  31.114  36.720   6.491
 3315POPC   C3B44109  31.178  36.931   6.887
 3315POPC   C4B44110  31.306  37.051   7.280
 3316POPC   NC344111  35.197  12.086   5.568
 3316POPC   PO444112  35.800  11.822   5.543
 3316POPC   GL144113  35.670  11.989   5.918
 3316POPC   GL244114  35.544  12.297   5.942
 3316POPC   C1A44115  35.652  11.992   6.358
 3316POPC   D2A44116  35.328  11.918   6.619
 3316POPC   C3A44117  35.408  12.101   6.993
 3316POPC   C4A44118  35.304  11.961   7.382
 3316POPC   C1B44119  35.202  12.217   6.201
 3316POPC   C2B44120  35.196  12.394   6.571
 3316POPC   C3B44121  35.178  12.553   6.913
 3316POPC   C4B44122  35.100  12.425   7.290
 3317POPC   NC344123  44.796  12.231   5.027
 3317POPC   PO444124  44.295  12.172   5.471
 3317POPC   GL144125  44.586  11.995   5.782
 3317POPC   GL244126  44.336  11.743   5.883
 3317POPC   C1A44127  44.657  12.201   6.233
 3317POPC   D2A44128  44.623  12.514   6.610
 3317POPC   C3A44129  44.585  12.350   7.017
 3317POPC   C4A44130   0.008  12.326   7.136
 3317POPC   C1B44131  44.232  11.905   6.310
 3317POPC   C2B44132  44.490  11.949   6.678
 3317POPC   C3B44133  44.867  11.855   6.900
 3317POPC   C4B44134   0.029  11.829   7.314
 3318POPC   NC344135  41.383  43.990   5.399
 3318POPC   PO444136  41.865  43.549   5.390
 3318POPC   GL144137  41.600  43.665   5.734
 3318POPC   GL244138  41.751  43.984   5.813
 3318POPC   C1A44139  41.551  43.600   6.175
 3318POPC   D2A44140  41.547  43.425   6.599
 3318POPC   C3A44141  41.442  43.689   6.928
 3318POPC   C4A44142  41.664  43.844   7.249
 3318POPC   C1B44143  41.636  44.194   6.182
 3318POPC   C2B44144  41.556  44.043   6.597
 3318POPC   C3B44145  41.516  44.233   6.965
 3318POPC   C4B44146  41.250  44.348   7.267
 3319POPC   NC344147  42.081   4.748   5.414
 3319POPC   PO444148  42.519   5.115   5.557
 3319POPC   GL144149  42.583   4.930   5.950
 3319POPC   GL244150  42.326   4.689   5.873
 3319POPC   C1A44151  42.663   5.266   6.280
 3319POPC   D2A44152  42.717   5.515   6.668
 3319POPC   C3A44153  42.585   5.282   7.030
 3319POPC   C4A44154  42.457   5.377   7.412
 3319POPC   C1B44155  42.153   4.863   6.242
 3319POPC   C2B44156  42.297   5.100   6.604
 3319POPC   C3B44157  42.343   4.841   6.925
 3319POPC   C4B44158  42.076   4.639   7.195
 3320POPC   NC344159  39.400   9.429   5.394
 3320POPC   PO444160  39.043   8.847   5.368
 3320POPC   GL144161  39.261   8.911   5.798
 3320POPC   GL244162  39.496   9.206   5.872
 3320POPC   C1A44163  39.367   8.822   6.243
 3320POPC   D2A44164  39.625   8.685   6.605
 3320POPC   C3A44165  39.379   8.687   6.994
 3320POPC   C4A44166  39.425   8.808   7.413
 3320POPC   C1B44167  39.249   9.332   6.249
 3320POPC   C2B44168  39.335   9.411   6.695
 3320POPC   C3B44169  39.346   9.209   7.080
 3320POPC   C4B44170  39.319   9.384   7.466
 3321POPC   NC344171  31.089   9.813   5.401
 3321POPC   PO444172  30.549   9.608   5.155
 3321POPC   GL144173  30.672   9.613   5.633
 3321POPC   GL244174  30.969   9.399   5.717
 3321POPC   C1A44175  30.715   9.740   6.108
 3321POPC   D2A44176  30.530   9.618   6.531
 3321POPC   C3A44177  30.687   9.789   6.915
 3321POPC   C4A44178  30.613   9.952   7.347
 3321POPC   C1B44179  31.074   9.332   6.136
 3321POPC   C2B44180  30.867   9.234   6.506
 3321POPC   C3B44181  30.988   9.323   6.926
 3321POPC   C4B44182  30.946   9.556   7.289
 3322POPC   NC344183  12.096  37.718   5.490
 3322POPC   PO444184  11.468  37.728   5.142
 3322POPC   GL144185  11.603  37.748   5.636
 3322POPC   GL244186  11.834  38.042   5.775
 3322POPC   C1A44187  11.685  37.685   6.121
 3322POPC   D2A44188  12.006  37.593   6.488
 3322POPC   C3A44189  11.935  37.672   6.971
 3322POPC   C4A44190  12.045  37.348   7.309
 3322POPC   C1B44191  12.144  38.076   6.128
 3322POPC   C2B44192  12.289  38.020   6.564
 3322POPC   C3B44193  12.218  38.109   6.997
 3322POPC   C4B44194  12.367  37.758   7.275
 3323POPC   NC344195   9.325   3.687   5.393
 3323POPC   PO444196   9.870   3.236   5.250
 3323POPC   GL144197   9.868   3.432   5.661
 3323POPC   GL244198   9.556   3.362   5.798
 3323POPC   C1A44199   9.929   3.566   6.096
 3323POPC   D2A44200  10.025   3.473   6.521
 3323POPC   C3A44201   9.767   3.561   6.864
 3323POPC   C4A44202   9.906   3.597   7.323
 3323POPC   C1B44203   9.314   3.125   6.131
 3323POPC   C2B44204   9.216   3.101   6.564
 3323POPC   C3B44205   9.369   3.087   6.990
 3323POPC   C4B44206   9.479   3.339   7.360
 3324POPC   NC344207   4.557  37.518   5.222
 3324POPC   PO444208   4.041  37.858   5.534
 3324POPC   GL144209   4.187  37.798   5.917
 3324POPC   GL244210   3.868  37.609   5.939
 3324POPC   C1A44211   4.387  37.907   6.335
 3324POPC   D2A44212   4.492  38.070   6.754
 3324POPC   C3A44213   4.374  37.829   7.105
 3324POPC   C4A44214   4.250  37.911   7.531
 3324POPC   C1B44215   4.043  37.516   6.307
 3324POPC   C2B44216   4.190  37.553   6.688
 3324POPC   C3B44217   4.068  37.398   7.037
 3324POPC   C4B44218   3.991  37.488   7.445
 3325POPC   NC344219   9.378  12.785   5.186
 3325POPC   PO444220   8.841  12.558   5.253
 3325POPC   GL144221   8.895  12.517   5.694
 3325POPC   GL244222   8.668  12.743   5.869
 3325POPC   C1A44223   9.039  12.531   6.140
 3325POPC   D2A44224   8.759  12.606   6.484
 3325POPC   C3A44225   8.985  12.666   6.850
 3325POPC   C4A44226   9.155  12.814   7.252
 3325POPC   C1B44227   8.583  13.021   6.235
 3325POPC   C2B44228   8.631  13.073   6.708
 3325POPC   C3B44229   8.649  12.973   7.166
 3325POPC   C4B44230   8.385  13.109   7.517
 3326POPC   NC344231  21.701   7.812   5.524
 3326POPC   PO444232  21.304   8.365   5.388
 3326POPC   GL144233  21.390   8.185   5.768
 3326POPC   GL244234  21.534   8.491   5.868
 3326POPC   C1A44235  21.464   8.044   6.209
 3326POPC   D2A44236  21.514   7.844   6.624
 3326POPC   C3A44237  21.656   7.987   7.020
 3326POPC   C4A44238  21.279   8.023   7.213
 3326POPC   C1B44239  21.727   8.459   6.272
 3326POPC   C2B44240  21.543   8.492   6.692
 3326POPC   C3B44241  21.458   8.537   7.141
 3326POPC   C4B44242  21.526   8.749   7.549
 3327POPC   NC344243  16.616  29.588   5.390
 3327POPC   PO444244  16.962  30.175   5.278
 3327POPC   GL144245  16.723  30.046   5.623
 3327POPC   GL244246  16.998  30.158   5.804
 3327POPC   C1A44247  16.492  30.017   6.027
 3327POPC   D2A44248  16.484  29.882   6.491
 3327POPC   C3A44249  16.361  30.040   6.922
 3327POPC   C4A44250  16.226  30.035   7.361
 3327POPC   C1B44251  16.950  29.902   6.177
 3327POPC   C2B44252  16.989  29.915   6.631
 3327POPC   C3B44253  16.881  30.137   7.019
 3327POPC   C4B44254  16.928  30.430   7.368
 3328POPC   NC344255  29.504  30.206   5.496
 3328POPC   PO444256  28.790  30.080   5.394
 3328POPC   GL144257  28.999  30.127   5.781
 3328POPC   GL244258  29.260  29.887   5.787
 3328POPC   C1A44259  28.863  30.002   6.186
 3328POPC   D2A44260  28.697  29.668   6.473
 3328POPC   C3A44261  28.912  29.774   6.860
 3328POPC   C4A44262  29.053  30.036   7.227
 3328POPC   C1B44263  29.363  30.012   6.185
 3328POPC   C2B44264  29.366  29.794   6.580
 3328POPC   C3B44265  29.476  29.865   7.019
 3328POPC   C4B44266  29.525  29.790   7.476
 3329POPC   NC344267  40.322  23.169   5.400
 3329POPC   PO444268  39.785  22.748   5.484
 3329POPC   GL144269  39.912  22.661   5.879
 3329POPC   GL244270  40.277  22.636   5.843
 3329POPC   C1A44271  40.056  22.897   6.235
 3329POPC   D2A44272  39.920  23.180   6.520
 3329POPC   C3A44273  40.177  23.302   6.834
 3329POPC   C4A44274  39.997  23.149   7.184
 3329POPC   C1B44275  40.217  22.412   6.204
 3329POPC   C2B44276  39.917  22.518   6.559
 3329POPC   C3B44277  39.895  22.669   6.988
 3329POPC   C4B44278  40.196  22.647   7.350
 3330POPC   NC344279   0.467  23.424   5.054
 3330POPC   PO444280   0.338  22.934   5.456
 3330POPC   GL144281   0.433  23.190   5.815
 3330POPC   GL244282   0.794  23.283   5.843
 3330POPC   C1A44283   0.352  23.027   6.252
 3330POPC   D2A44284   0.270  22.678   6.563
 3330POPC   C3A44285   0.099  22.789   6.996
 3330POPC   C4A44286   0.370  22.990   7.327
 3330POPC   C1B44287   0.866  22.994   6.195
 3330POPC   C2B44288   0.753  22.907   6.634
 3330POPC   C3B44289   0.805  22.831   7.086
 3330POPC   C4B44290   0.789  22.732   7.548
 3331POPC   NC344291  28.454  36.536   5.427
 3331POPC   PO444292  27.828  36.193   5.208
 3331POPC   GL144293  28.123  36.158   5.630
 3331POPC   GL244294  28.320  36.385   5.872
 3331POPC   C1A44295  28.159  35.945   6.080
 3331POPC   D2A44296  28.354  36.032   6.456
 3331POPC   C3A44297  28.225  35.951   6.847
 3331POPC   C4A44298  28.409  35.898   7.222
 3331POPC   C1B44299  28.537  36.434   6.232
 3331POPC   C2B44300  28.388  36.490   6.646
 3331POPC   C3B44301  28.667  36.246   6.864
 3331POPC   C4B44302  28.835  36.555   7.163
 3332POPC   NC344303  20.146   5.938   5.385
 3332POPC   PO444304  19.851   5.422   5.302
 3332POPC   GL144305  20.093   5.483   5.684
 3332POPC   GL244306  19.807   5.415   5.850
 3332POPC   C1A44307  20.162   5.681   6.109
 3332POPC   D2A44308  19.967   5.839   6.497
 3332POPC   C3A44309  20.051   5.710   6.922
 3332POPC   C4A44310  19.825   5.507   7.266
 3332POPC   C1B44311  19.608   5.630   6.178
 3332POPC   C2B44312  19.448   5.777   6.564
 3332POPC   C3B44313  19.425   5.644   6.978
 3332POPC   C4B44314  19.067   5.701   7.157
 3333POPC   NC344315   7.922  25.347   5.404
 3333POPC   PO444316   8.541  25.063   5.483
 3333POPC   GL144317   8.265  25.157   5.768
 3333POPC   GL244318   7.966  24.979   5.809
 3333POPC   C1A44319   8.337  25.247   6.170
 3333POPC   D2A44320   8.323  25.033   6.538
 3333POPC   C3A44321   8.357  25.335   6.853
 3333POPC   C4A44322   8.297  25.429   7.256
 3333POPC   C1B44323   7.870  24.899   6.270
 3333POPC   C2B44324   7.863  24.912   6.723
 3333POPC   C3B44325   8.086  24.981   7.109
 3333POPC   C4B44326   7.964  24.802   7.481
 3334POPC   NC344327   5.088  39.124   5.367
 3334POPC   PO444328   5.273  39.606   5.098
 3334POPC   GL144329   5.291  39.424   5.679
 3334POPC   GL244330   4.979  39.302   5.817
 3334POPC   C1A44331   5.360  39.303   6.145
 3334POPC   D2A44332   5.202  39.436   6.572
 3334POPC   C3A44333   5.377  39.249   6.930
 3334POPC   C4A44334   5.246  39.297   7.307
 3334POPC   C1B44335   4.762  39.107   6.143
 3334POPC   C2B44336   4.664  39.169   6.552
 3334POPC   C3B44337   4.863  39.198   6.933
 3334POPC   C4B44338   4.737  39.313   7.351
 3335POPC   NC344339  14.102  30.087   5.346
 3335POPC   PO444340  14.609  29.647   5.373
 3335POPC   GL144341  14.481  29.887   5.701
 3335POPC   GL244342  14.225  29.701   5.831
 3335POPC   C1A44343  14.493  29.983   6.153
 3335POPC   D2A44344  14.329  30.027   6.573
 3335POPC   C3A44345  14.597  29.946   6.894
 3335POPC   C4A44346  14.616  29.986   7.293
 3335POPC   C1B44347  14.020  29.515   6.206
 3335POPC   C2B44348  14.213  29.528   6.619
 3335POPC   C3B44349  14.145  29.763   6.993
 3335POPC   C4B44350  13.811  29.738   7.245
 3336POPC   NC344351  32.954  36.293   5.566
 3336POPC   PO444352  32.321  36.103   5.380
 3336POPC   GL144353  32.183  36.184   5.790
 3336POPC   GL244354  32.526  36.092   5.881
 3336POPC   C1A44355  32.122  36.155   6.240
 3336POPC   D2A44356  32.189  35.998   6.646
 3336POPC   C3A44357  32.038  36.283   6.963
 3336POPC   C4A44358  32.125  36.235   7.373
 3336POPC   C1B44359  32.574  35.884   6.277
 3336POPC   C2B44360  32.706  35.913   6.707
 3336POPC   C3B44361  32.523  36.059   7.069
 3336POPC   C4B44362  32.464  35.871   7.485
 3337POPC   NC344363   6.074   3.419   5.304
 3337POPC   PO444364   5.732   3.958   5.305
 3337POPC   GL144365   5.731   3.642   5.672
 3337POPC   GL244366   5.735   3.256   5.695
 3337POPC   C1A44367   5.744   3.719   6.133
 3337POPC   D2A44368   5.915   3.818   6.564
 3337POPC   C3A44369   5.713   3.736   6.954
 3337POPC   C4A44370   5.936   3.764   7.326
 3337POPC   C1B44371   5.934   3.210   6.131
 3337POPC   C2B44372   6.082   3.105   6.554
 3337POPC   C3B44373   6.001   3.306   6.952
 3337POPC   C4B44374   6.158   3.306   7.375
 3338POPC   NC344375  35.769  20.355   5.658
 3338POPC   PO444376  36.232  19.948   5.349
 3338POPC   GL144377  36.308  19.892   5.766
 3338POPC   GL244378  35.985  19.929   5.855
 3338POPC   C1A44379  36.394  19.890   6.177
 3338POPC   D2A44380  36.257  19.746   6.541
 3338POPC   C3A44381  36.310  19.896   6.923
 3338POPC   C4A44382  36.175  19.760   7.320
 3338POPC   C1B44383  35.869  19.990   6.262
 3338POPC   C2B44384  35.930  20.160   6.662
 3338POPC   C3B44385  35.862  20.116   7.089
 3338POPC   C4B44386  35.525  19.932   7.283
 3339POPC   NC344387  15.655  13.688   5.318
 3339POPC   PO444388  16.364  13.486   5.337
 3339POPC   GL144389  16.191  13.452   5.718
 3339POPC   GL244390  15.938  13.677   5.772
 3339POPC   C1A44391  16.209  13.404   6.149
 3339POPC   D2A44392  16.168  13.668   6.515
 3339POPC   C3A44393  15.931  13.550   6.884
 3339POPC   C4A44394  16.090  13.662   7.261
 3339POPC   C1B44395  15.735  13.592   6.190
 3339POPC   C2B44396  15.674  13.859   6.564
 3339POPC   C3B44397  15.595  13.934   6.984
 3339POPC   C4B44398  15.567  13.613   7.288
 3340POPC   NC344399  16.211   0.999   5.123
 3340POPC   PO444400  16.076   1.554   5.304
 3340POPC   GL144401  16.050   1.426   5.746
 3340POPC   GL244402  15.750   1.274   5.889
 3340POPC   C1A44403  16.163   1.360   6.207
 3340POPC   D2A44404  16.256   1.075   6.574
 3340POPC   C3A44405  16.018   1.151   6.973
 3340POPC   C4A44406  16.084   1.318   7.367
 3340POPC   C1B44407  15.814   0.979   6.272
 3340POPC   C2B44408  15.728   0.811   6.715
 3340POPC   C3B44409  15.557   0.942   7.131
 3340POPC   C4B44410  15.571   1.260   7.475
 3341POPC   NC344411   6.036  43.419   5.590
 3341POPC   PO444412   5.417  43.315   5.265
 3341POPC   GL144413   5.556  43.118   5.694
 3341POPC   GL244414   5.892  42.948   5.712
 3341POPC   C1A44415   5.524  43.129   6.204
 3341POPC   D2A44416   5.535  43.044   6.699
 3341POPC   C3A44417   5.857  43.244   6.985
 3341POPC   C4A44418   6.259  43.484   7.076
 3341POPC   C1B44419   6.073  42.963   6.120
 3341POPC   C2B44420   6.022  42.900   6.559
 3341POPC   C3B44421   6.290  42.997   6.907
 3341POPC   C4B44422   6.222  43.035   7.348
 3342POPC   NC344423  28.346  26.757   5.318
 3342POPC   PO444424  27.849  26.364   5.565
 3342POPC   GL144425  28.273  26.552   5.822
 3342POPC   GL244426  28.372  26.913   5.797
 3342POPC   C1A44427  28.538  26.704   6.245
 3342POPC   D2A44428  28.619  26.740   6.705
 3342POPC   C3A44429  28.258  26.709   6.979
 3342POPC   C4A44430  28.147  26.680   7.391
 3342POPC   C1B44431  28.359  27.173   6.153
 3342POPC   C2B44432  28.279  27.087   6.579
 3342POPC   C3B44433  28.301  27.220   6.993
 3342POPC   C4B44434  28.143  27.184   7.400
 3343POPC   NC344435  33.260   8.851   5.340
 3343POPC   PO444436  32.786   9.405   5.441
 3343POPC   GL144437  32.920   9.038   5.712
 3343POPC   GL244438  33.267   8.970   5.845
 3343POPC   C1A44439  32.826   8.871   6.126
 3343POPC   D2A44440  32.772   9.034   6.533
 3343POPC   C3A44441  33.016   9.061   6.883
 3343POPC   C4A44442  32.784   8.920   7.207
 3343POPC   C1B44443  33.435   8.981   6.260
 3343POPC   C2B44444  33.185   8.717   6.532
 3343POPC   C3B44445  33.067   8.557   6.947
 3343POPC   C4B44446  33.268   8.803   7.292
 3344POPC   NC344447  38.450  38.688   5.516
 3344POPC   PO444448  38.805  38.170   5.416
 3344POPC   GL144449  38.514  38.248   5.847
 3344POPC   GL244450  38.179  38.462   5.872
 3344POPC   C1A44451  38.254  38.147   6.269
 3344POPC   D2A44452  38.045  38.205   6.702
 3344POPC   C3A44453  38.282  38.301   7.083
 3344POPC   C4A44454  38.739  38.215   7.171
 3344POPC   C1B44455  38.311  38.675   6.256
 3344POPC   C2B44456  38.414  38.837   6.680
 3344POPC   C3B44457  38.541  38.730   7.100
 3344POPC   C4B44458  38.277  38.651   7.478
 3345POPC   NC344459  32.773  22.726   5.385
 3345POPC   PO444460  33.226  23.176   5.370
 3345POPC   GL144461  33.235  23.075   5.801
 3345POPC   GL244462  32.879  22.987   5.821
 3345POPC   C1A44463  33.151  22.973   6.256
 3345POPC   D2A44464  33.110  22.630   6.533
 3345POPC   C3A44465  33.051  22.682   6.962
 3345POPC   C4A44466  33.018  22.720   7.389
 3345POPC   C1B44467  32.660  23.130   6.209
 3345POPC   C2B44468  32.776  23.021   6.649
 3345POPC   C3B44469  32.938  23.160   7.063
 3345POPC   C4B44470  32.660  23.093   7.423
 3346POPC   NC344471   1.784   0.630   5.508
 3346POPC   PO444472   2.372   0.256   5.523
 3346POPC   GL144473   2.127   0.412   5.847
 3346POPC   GL244474   2.077   0.777   5.907
 3346POPC   C1A44475   2.063   0.332   6.262
 3346POPC   D2A44476   1.982   0.512   6.612
 3346POPC   C3A44477   2.038   0.268   6.939
 3346POPC   C4A44478   1.914   0.286   7.355
 3346POPC   C1B44479   1.866   0.943   6.294
 3346POPC   C2B44480   1.624   0.850   6.683
 3346POPC   C3B44481   1.865   0.734   7.094
 3346POPC   C4B44482   1.963   0.748   7.556
 3347POPC   NC344483  33.589  38.464   5.351
 3347POPC   PO444484  34.138  38.116   5.470
 3347POPC   GL144485  34.010  38.207   5.891
 3347POPC   GL244486  33.722  38.423   5.873
 3347POPC   C1A44487  33.976  38.387   6.327
 3347POPC   D2A44488  33.914  38.121   6.671
 3347POPC   C3A44489  33.982  38.237   7.106
 3347POPC   C4A44490  33.889  38.682   7.127
 3347POPC   C1B44491  33.446  38.522   6.242
 3347POPC   C2B44492  33.544  38.560   6.660
 3347POPC   C3B44493  33.499  38.327   6.996
 3347POPC   C4B44494  33.522  38.397   7.409
 3348POPC   NC344495   8.413  44.251   5.394
 3348POPC   PO444496   7.995  44.784   5.259
 3348POPC   GL144497   8.096  44.610   5.631
 3348POPC   GL244498   8.396  44.780   5.618
 3348POPC   C1A44499   7.995  44.569   6.065
 3348POPC   D2A44500   8.131  44.607   6.514
 3348POPC   C3A44501   8.042  44.348   6.902
 3348POPC   C4A44502   8.028  44.255   7.350
 3348POPC   C1B44503   8.476  44.740   6.062
 3348POPC   C2B44504   8.633  44.713   6.493
 3348POPC   C3B44505   8.482  44.674   6.914
 3348POPC   C4B44506   8.329  44.784   7.289
 3349POPC   NC344507  13.309  21.749   5.543
 3349POPC   PO444508  13.725  22.259   5.330
 3349POPC   GL144509  13.838  22.179   5.758
 3349POPC   GL244510  13.510  22.151   5.853
 3349POPC   C1A44511  13.951  22.179   6.212
 3349POPC   D2A44512  13.946  22.034   6.659
 3349POPC   C3A44513  13.994  22.361   6.983
 3349POPC   C4A44514  13.599  22.550   7.117
 3349POPC   C1B44515  13.410  22.240   6.293
 3349POPC   C2B44516  13.416  22.046   6.702
 3349POPC   C3B44517  13.627  22.026   7.108
 3349POPC   C4B44518  13.783  21.813   7.487
 3350POPC   NC344519  36.252  32.719   5.475
 3350POPC   PO444520  36.346  33.340   5.338
 3350POPC   GL144521  36.075  33.196   5.685
 3350POPC   GL244522  36.387  33.075   5.832
 3350POPC   C1A44523  35.961  33.010   6.117
 3350POPC   D2A44524  35.845  33.153   6.553
 3350POPC   C3A44525  35.908  32.893   6.912
 3350POPC   C4A44526  35.807  32.601   7.241
 3350POPC   C1B44527  36.480  33.024   6.254
 3350POPC   C2B44528  36.384  33.169   6.642
 3350POPC   C3B44529  36.422  32.882   6.946
 3350POPC   C4B44530  36.454  32.690   7.320
 3351POPC   NC344531   3.000  36.060   5.395
 3351POPC   PO444532   2.579  36.531   5.251
 3351POPC   GL144533   2.658  36.339   5.668
 3351POPC   GL244534   2.986  36.476   5.772
 3351POPC   C1A44535   2.555  36.108   6.073
 3351POPC   D2A44536   2.456  36.157   6.511
 3351POPC   C3A44537   2.624  35.950   6.866
 3351POPC   C4A44538   3.044  35.957   7.071
 3351POPC   C1B44539   2.995  36.333   6.203
 3351POPC   C2B44540   2.907  36.393   6.649
 3351POPC   C3B44541   2.746  36.403   7.070
 3351POPC   C4B44542   3.027  36.371   7.409
 3352POPC   NC344543   0.171  13.153   5.125
 3352POPC   PO444544   0.198  12.426   5.160
 3352POPC   GL144545   0.283  12.521   5.687
 3352POPC   GL244546   0.418  12.860   5.772
 3352POPC   C1A44547   0.469  12.479   6.147
 3352POPC   D2A44548   0.610  12.649   6.556
 3352POPC   C3A44549   0.441  12.540   6.972
 3352POPC   C4A44550   0.344  12.735   7.394
 3352POPC   C1B44551   0.372  12.998   6.223
 3352POPC   C2B44552   0.590  13.140   6.609
 3352POPC   C3B44553   0.438  13.082   6.989
 3352POPC   C4B44554   0.319  13.263   7.342
 3353POPC   NC344555  34.680  30.922   5.555
 3353POPC   PO444556  34.293  30.488   5.292
 3353POPC   GL144557  34.479  30.439   5.728
 3353POPC   GL244558  34.791  30.579   5.916
 3353POPC   C1A44559  34.425  30.318   6.180
 3353POPC   D2A44560  34.759  30.475   6.453
 3353POPC   C3A44561  34.563  30.673   6.795
 3353POPC   C4A44562  34.646  30.538   7.188
 3353POPC   C1B44563  34.503  30.845   6.181
 3353POPC   C2B44564  34.317  31.067   6.516
 3353POPC   C3B44565  34.500  31.185   6.894
 3353POPC   C4B44566  34.615  31.022   7.270
 3354POPC   NC344567  44.497  40.831   5.665
 3354POPC   PO444568  44.954  40.374   5.574
 3354POPC   GL144569  44.866  40.549   5.982
 3354POPC   GL244570  44.917  40.905   5.909
 3354POPC   C1A44571  44.614  40.738   6.337
 3354POPC   D2A44572  44.502  41.046   6.689
 3354POPC   C3A44573  44.494  40.813   7.083
 3354POPC   C4A44574  44.719  40.565   7.406
 3354POPC   C1B44575  44.732  41.203   6.179
 3354POPC   C2B44576   0.008  41.284   6.482
 3354POPC   C3B44577   0.001  41.121   6.867
 3354POPC   C4B44578  44.725  41.245   7.205
 3355POPC   NC344579   7.716  12.240   5.238
 3355POPC   PO444580   8.444  12.170   5.354
 3355POPC   GL144581   8.170  12.017   5.677
 3355POPC   GL244582   8.036  11.674   5.643
 3355POPC   C1A44583   8.151  12.104   6.110
 3355POPC   D2A44584   7.998  12.322   6.486
 3355POPC   C3A44585   8.141  12.211   6.901
 3355POPC   C4A44586   8.371  12.213   7.297
 3355POPC   C1B44587   8.014  11.618   6.084
 3355POPC   C2B44588   8.122  11.782   6.512
 3355POPC   C3B44589   7.852  11.797   6.861
 3355POPC   C4B44590   8.124  11.762   7.215
 3356POPC   NC344591  35.033  37.243   5.199
 3356POPC   PO444592  35.577  37.592   5.502
 3356POPC   GL144593  35.468  37.789   5.873
 3356POPC   GL244594  35.113  37.820   5.883
 3356POPC   C1A44595  35.547  37.730   6.314
 3356POPC   D2A44596  35.263  37.859   6.655
 3356POPC   C3A44597  35.403  37.925   7.076
 3356POPC   C4A44598  35.737  37.684   7.248
 3356POPC   C1B44599  35.134  37.475   6.234
 3356POPC   C2B44600  34.950  37.432   6.631
 3356POPC   C3B44601  35.096  37.504   7.033
 3356POPC   C4B44602  34.955  37.831   7.290
 3357POPC   NC344603  29.393   3.372   5.465
 3357POPC   PO444604  28.750   3.621   5.387
 3357POPC   GL144605  28.923   3.408   5.726
 3357POPC   GL244606  29.151   3.679   5.810
 3357POPC   C1A44607  29.036   3.297   6.141
 3357POPC   D2A44608  28.899   3.481   6.533
 3357POPC   C3A44609  29.024   3.358   6.930
 3357POPC   C4A44610  29.027   3.532   7.337
 3357POPC   C1B44611  29.141   3.824   6.244
 3357POPC   C2B44612  29.354   3.763   6.660
 3357POPC   C3B44613  29.502   3.513   7.036
 3357POPC   C4B44614  29.491   3.401   7.493
 3358POPC   NC344615  38.371  27.434   5.034
 3358POPC   PO444616  38.541  27.959   5.411
 3358POPC   GL144617  38.486  27.570   5.625
 3358POPC   GL244618  38.790  27.450   5.750
 3358POPC   C1A44619  38.325  27.575   6.068
 3358POPC   D2A44620  38.361  27.873   6.452
 3358POPC   C3A44621  38.330  27.759   6.910
 3358POPC   C4A44622  38.165  27.365   7.121
 3358POPC   C1B44623  38.812  27.593   6.206
 3358POPC   C2B44624  38.672  27.479   6.659
 3358POPC   C3B44625  38.678  27.467   7.152
 3358POPC   C4B44626  38.725  27.233   7.594
 3359POPC   NC344627   5.594  31.220   5.327
 3359POPC   PO444628   5.967  31.772   5.411
 3359POPC   GL144629   5.812  31.502   5.757
 3359POPC   GL244630   6.110  31.340   5.928
 3359POPC   C1A44631   5.708  31.416   6.225
 3359POPC   D2A44632   5.876  31.361   6.672
 3359POPC   C3A44633   5.603  31.412   6.990
 3359POPC   C4A44634   5.447  31.780   7.038
 3359POPC   C1B44635   6.081  31.058   6.307
 3359POPC   C2B44636   6.191  30.986   6.764
 3359POPC   C3B44637   6.104  31.234   7.151
 3359POPC   C4B44638   6.180  31.170   7.599
 3360POPC   NC344639  35.298  29.540   5.308
 3360POPC   PO444640  35.747  30.071   5.362
 3360POPC   GL144641  35.523  30.088   5.749
 3360POPC   GL244642  35.257  29.834   5.740
 3360POPC   C1A44643  35.642  30.167   6.185
 3360POPC   D2A44644  35.700  29.923   6.576
 3360POPC   C3A44645  35.489  30.110   6.964
 3360POPC   C4A44646  35.405  30.159   7.422
 3360POPC   C1B44647  35.296  29.811   6.179
 3360POPC   C2B44648  35.211  29.693   6.593
 3360POPC   C3B44649  35.004  29.849   6.959
 3360POPC   C4B44650  35.057  29.810   7.389
 3361POPC   NC344651  21.148  38.003   5.436
 3361POPC   PO444652  21.555  38.562   5.245
 3361POPC   GL144653  21.463  38.350   5.674
 3361POPC   GL244654  21.590  37.987   5.684
 3361POPC   C1A44655  21.184  38.390   6.080
 3361POPC   D2A44656  20.989  38.266   6.493
 3361POPC   C3A44657  21.160  38.445   6.858
 3361POPC   C4A44658  21.480  38.552   7.127
 3361POPC   C1B44659  21.369  37.918   6.100
 3361POPC   C2B44660  21.455  38.103   6.526
 3361POPC   C3B44661  21.602  38.066   6.937
 3361POPC   C4B44662  21.838  38.202   7.286
 3362POPC   NC344663   0.677  42.379   5.582
 3362POPC   PO444664   0.385  41.822   5.394
 3362POPC   GL144665   0.152  42.070   5.756
 3362POPC   GL244666   0.160  42.442   5.747
 3362POPC   C1A44667   0.320  42.186   6.173
 3362POPC   D2A44668   0.568  42.282   6.545
 3362POPC   C3A44669   0.348  42.092   6.847
 3362POPC   C4A44670   0.243  42.116   7.271
 3362POPC   C1B44671   0.340  42.692   6.118
 3362POPC   C2B44672   0.220  42.697   6.555
 3362POPC   C3B44673   0.208  42.571   6.981
 3362POPC   C4B44674   0.300  42.952   7.196
 3363POPC   NC344675   1.597  30.222   5.426
 3363POPC   PO444676   1.994  29.771   5.299
 3363POPC   GL144677   1.936  29.959   5.712
 3363POPC   GL244678   1.685  29.740   5.834
 3363POPC   C1A44679   2.095  30.055   6.132
 3363POPC   D2A44680   2.149  29.860   6.532
 3363POPC   C3A44681   2.156  30.104   6.903
 3363POPC   C4A44682   1.953  30.167   7.281
 3363POPC   C1B44683   1.668  29.604   6.265
 3363POPC   C2B44684   1.830  29.471   6.663
 3363POPC   C3B44685   1.826  29.647   7.058
 3363POPC   C4B44686   1.511  29.567   7.399
 3364POPC   NC344687  28.592  11.954   5.384
 3364POPC   PO444688  28.100  12.360   5.219
 3364POPC   GL144689  28.309  12.284   5.657
 3364POPC   GL244690  28.243  11.942   5.759
 3364POPC   C1A44691  28.346  12.216   6.155
 3364POPC   D2A44692  28.532  12.282   6.567
 3364POPC   C3A44693  28.343  12.218   6.967
 3364POPC   C4A44694  28.573  12.073   7.315
 3364POPC   C1B44695  28.130  11.759   6.168
 3364POPC   C2B44696  28.083  11.956   6.571
 3364POPC   C3B44697  27.909  11.960   6.992
 3364POPC   C4B44698  28.069  11.980   7.392
 3365POPC   NC344699  43.558  13.195   5.453
 3365POPC   PO444700  44.185  12.807   5.644
 3365POPC   GL144701  44.151  13.024   5.997
 3365POPC   GL244702  43.844  13.129   5.887
 3365POPC   C1A44703  44.186  13.051   6.430
 3365POPC   D2A44704  43.980  12.785   6.667
 3365POPC   C3A44705  43.856  12.822   7.054
 3365POPC   C4A44706  44.036  12.490   7.251
 3365POPC   C1B44707  43.699  12.875   6.248
 3365POPC   C2B44708  43.510  12.936   6.682
 3365POPC   C3B44709  43.326  13.027   7.071
 3365POPC   C4B44710  43.396  13.058   7.519
 3366POPC   NC344711  14.359   6.551   5.307
 3366POPC   PO444712  14.771   6.929   5.561
 3366POPC   GL144713  14.399   6.749   5.812
 3366POPC   GL244714  14.178   6.426   5.778
 3366POPC   C1A44715  14.272   6.706   6.268
 3366POPC   D2A44716  14.214   6.622   6.728
 3366POPC   C3A44717  14.390   6.791   7.138
 3366POPC   C4A44718  14.187   7.031   7.493
 3366POPC   C1B44719  14.552   6.330   6.050
 3366POPC   C2B44720  14.575   6.314   6.515
 3366POPC   C3B44721  14.759   6.276   6.937
 3366POPC   C4B44722  14.610   6.354   7.333
 3367POPC   NC344723  25.515  18.785   5.573
 3367POPC   PO444724  25.557  19.294   5.150
 3367POPC   GL144725  25.319  19.333   5.664
 3367POPC   GL244726  25.159  19.065   5.840
 3367POPC   C1A44727  25.335  19.376   6.185
 3367POPC   D2A44728  25.444  19.462   6.643
 3367POPC   C3A44729  25.671  19.183   6.908
 3367POPC   C4A44730  25.513  18.862   7.185
 3367POPC   C1B44731  24.931  18.987   6.226
 3367POPC   C2B44732  25.007  19.180   6.588
 3367POPC   C3B44733  25.156  19.205   6.976
 3367POPC   C4B44734  24.901  19.366   7.231
 3368POPC   NC344735   6.544   2.171   5.131
 3368POPC   PO444736   7.001   1.772   5.445
 3368POPC   GL144737   6.793   1.806   5.866
 3368POPC   GL244738   6.600   2.069   5.720
 3368POPC   C1A44739   6.789   1.943   6.354
 3368POPC   D2A44740   6.574   2.095   6.743
 3368POPC   C3A44741   6.708   1.937   7.152
 3368POPC   C4A44742   6.861   1.668   7.477
 3368POPC   C1B44743   6.560   2.315   6.105
 3368POPC   C2B44744   6.790   2.492   6.484
 3368POPC   C3B44745   6.651   2.628   6.910
 3368POPC   C4B44746   6.539   2.453   7.319
 3369POPC   NC344747  25.706  34.530   5.426
 3369POPC   PO444748  26.286  34.775   5.495
 3369POPC   GL144749  26.049  34.665   5.834
 3369POPC   GL244750  25.919  34.323   5.852
 3369POPC   C1A44751  26.183  34.534   6.245
 3369POPC   D2A44752  26.137  34.680   6.659
 3369POPC   C3A44753  26.338  34.484   7.020
 3369POPC   C4A44754  26.248  34.747   7.377
 3369POPC   C1B44755  25.768  34.208   6.274
 3369POPC   C2B44756  25.700  34.410   6.680
 3369POPC   C3B44757  25.845  34.505   7.111
 3369POPC   C4B44758  26.113  34.265   7.446
 3370POPC   NC344759  24.079  38.817   5.462
 3370POPC   PO444760  23.470  38.675   5.178
 3370POPC   GL144761  23.612  38.499   5.648
 3370POPC   GL244762  23.819  38.689   5.897
 3370POPC   C1A44763  23.677  38.257   6.106
 3370POPC   D2A44764  23.822  38.290   6.563
 3370POPC   C3A44765  23.779  38.111   7.000
 3370POPC   C4A44766  23.912  38.199   7.438
 3370POPC   C1B44767  23.703  38.737   6.339
 3370POPC   C2B44768  23.809  38.777   6.769
 3370POPC   C3B44769  23.812  38.651   7.213
 3370POPC   C4B44770  23.691  38.812   7.624
 3371POPC   NC344771  19.704   1.439   5.061
 3371POPC   PO444772  19.404   1.093   5.633
 3371POPC   GL144773  19.692   1.229   5.905
 3371POPC   GL244774  19.924   0.994   5.916
 3371POPC   C1A44775  19.748   1.119   6.354
 3371POPC   D2A44776  19.456   0.954   6.642
 3371POPC   C3A44777  19.692   1.023   7.005
 3371POPC   C4A44778  19.893   1.392   7.196
 3371POPC   C1B44779  20.140   1.362   6.100
 3371POPC   C2B44780  20.096   1.453   6.564
 3371POPC   C3B44781  20.200   1.134   6.889
 3371POPC   C4B44782  20.163   0.873   7.283
 3372POPC   NC344783  42.064   8.527   5.668
 3372POPC   PO444784  42.490   8.992   5.345
 3372POPC   GL144785  42.613   9.089   5.727
 3372POPC   GL244786  42.709   8.753   5.865
 3372POPC   C1A44787  42.457   9.244   6.118
 3372POPC   D2A44788  42.369   9.143   6.539
 3372POPC   C3A44789  42.631   8.945   6.827
 3372POPC   C4A44790  42.509   8.983   7.224
 3372POPC   C1B44791  42.405   8.731   6.196
 3372POPC   C2B44792  42.331   8.613   6.609
 3372POPC   C3B44793  42.204   8.618   7.040
 3372POPC   C4B44794  41.959   8.952   7.217
 3373POPC   NC344795  23.499  24.882   5.556
 3373POPC   PO444796  23.958  24.446   5.411
 3373POPC   GL144797  23.777  24.489   5.795
 3373POPC   GL244798  23.977  24.779   5.850
 3373POPC   C1A44799  23.543  24.304   6.159
 3373POPC   D2A44800  23.439  24.407   6.603
 3373POPC   C3A44801  23.830  24.278   6.817
 3373POPC   C4A44802  24.077  24.340   7.166
 3373POPC   C1B44803  23.895  24.664   6.267
 3373POPC   C2B44804  23.794  24.768   6.664
 3373POPC   C3B44805  23.583  24.684   7.070
 3373POPC   C4B44806  23.208  24.911   7.167
 3374POPC   NC344807  22.516  31.584   5.553
 3374POPC   PO444808  21.915  31.401   5.498
 3374POPC   GL144809  22.049  31.430   5.876
 3374POPC   GL244810  22.255  31.135   5.838
 3374POPC   C1A44811  21.916  31.207   6.243
 3374POPC   D2A44812  22.046  31.038   6.631
 3374POPC   C3A44813  21.821  31.263   6.921
 3374POPC   C4A44814  21.566  31.042   7.202
 3374POPC   C1B44815  22.432  31.326   6.208
 3374POPC   C2B44816  22.278  31.486   6.610
 3374POPC   C3B44817  22.372  31.287   7.014
 3374POPC   C4B44818  22.507  31.571   7.390
 3375POPC   NC344819  34.051   1.003   5.476
 3375POPC   PO444820  33.640   1.454   5.454
 3375POPC   GL144821  33.771   1.236   5.855
 3375POPC   GL244822  34.019   0.957   5.971
 3375POPC   C1A44823  33.565   1.155   6.258
 3375POPC   D2A44824  33.690   1.275   6.672
 3375POPC   C3A44825  33.723   0.910   6.899
 3375POPC   C4A44826  33.371   0.764   7.101
 3375POPC   C1B44827  34.228   1.320   6.141
 3375POPC   C2B44828  34.285   1.443   6.544
 3375POPC   C3B44829  34.181   1.171   6.846
 3375POPC   C4B44830  34.049   1.112   7.248
 3376POPC   NC344831  39.043  36.853   5.377
 3376POPC   PO444832  39.684  36.859   5.448
 3376POPC   GL144833  39.385  36.809   5.806
 3376POPC   GL244834  39.169  37.063   5.833
 3376POPC   C1A44835  39.231  36.753   6.259
 3376POPC   D2A44836  39.266  36.668   6.700
 3376POPC   C3A44837  39.348  36.905   7.046
 3376POPC   C4A44838  39.092  36.629   7.236
 3376POPC   C1B44839  39.278  37.247   6.204
 3376POPC   C2B44840  39.365  37.204   6.611
 3376POPC   C3B44841  39.200  37.391   6.954
 3376POPC   C4B44842  39.348  37.393   7.329
 3377POPC   NC344843  17.791   4.493   5.387
 3377POPC   PO444844  17.190   4.540   5.571
 3377POPC   GL144845  17.549   4.371   5.841
 3377POPC   GL244846  17.390   4.077   5.801
 3377POPC   C1A44847  17.829   4.402   6.245
 3377POPC   D2A44848  18.069   4.396   6.654
 3377POPC   C3A44849  17.837   4.561   7.044
 3377POPC   C4A44850  17.531   4.475   7.425
 3377POPC   C1B44851  17.126   4.237   6.166
 3377POPC   C2B44852  17.101   4.309   6.607
 3377POPC   C3B44853  17.405   4.202   6.917
 3377POPC   C4B44854  17.348   4.011   7.281
 3378POPC   NC344855  43.776  28.483   5.357
 3378POPC   PO444856  44.002  27.799   5.474
 3378POPC   GL144857  44.042  28.191   5.700
 3378POPC   GL244858  43.736  28.338   5.848
 3378POPC   C1A44859  44.210  28.262   6.110
 3378POPC   D2A44860  44.301  28.158   6.556
 3378POPC   C3A44861  44.014  28.444   6.806
 3378POPC   C4A44862  43.994  28.572   7.248
 3378POPC   C1B44863  43.744  28.418   6.294
 3378POPC   C2B44864  43.483  28.418   6.664
 3378POPC   C3B44865  43.586  28.337   7.083
 3378POPC   C4B44866  43.543  28.436   7.523
 3379POPC   NC344867  24.956  17.311   5.410
 3379POPC   PO444868  25.271  17.916   5.389
 3379POPC   GL144869  25.382  17.855   5.784
 3379POPC   GL244870  25.058  17.711   5.841
 3379POPC   C1A44871  25.454  17.802   6.215
 3379POPC   D2A44872  25.437  17.876   6.662
 3379POPC   C3A44873  25.482  17.516   6.954
 3379POPC   C4A44874  25.408  17.517   7.418
 3379POPC   C1B44875  24.940  17.847   6.268
 3379POPC   C2B44876  25.020  17.586   6.658
 3379POPC   C3B44877  25.005  17.448   7.104
 3379POPC   C4B44878  25.219  17.046   7.269
 3380POPC   NC344879  36.462  18.463   5.362
 3380POPC   PO444880  35.833  18.141   5.368
 3380POPC   GL144881  36.042  18.378   5.705
 3380POPC   GL244882  36.390  18.286   5.835
 3380POPC   C1A44883  35.995  18.419   6.159
 3380POPC   D2A44884  36.108  18.168   6.511
 3380POPC   C3A44885  35.882  17.994   6.860
 3380POPC   C4A44886  36.176  18.099   7.210
 3380POPC   C1B44887  36.508  18.582   6.152
 3380POPC   C2B44888  36.356  18.650   6.566
 3380POPC   C3B44889  36.453  18.472   6.974
 3380POPC   C4B44890  36.520  18.539   7.427
 3381POPC   NC344891  40.209  44.945   5.312
 3381POPC   PO444892  39.679  44.693   5.576
 3381POPC   GL144893  39.990  44.479   5.832
 3381POPC   GL244894  40.224  44.755   5.838
 3381POPC   C1A44895  40.096  44.445   6.298
 3381POPC   D2A44896  39.816  44.427   6.664
 3381POPC   C3A44897  40.092  44.442   7.003
 3381POPC   C4A44898  40.072  44.525   7.474
 3381POPC   C1B44899  39.905  44.888   6.157
 3381POPC   C2B44900  39.977  44.915   6.596
 3381POPC   C3B44901  40.087  44.939   6.995
 3381POPC   C4B44902  39.931   0.007   7.356
 3382POPC   NC344903  41.829  31.038   5.382
 3382POPC   PO444904  41.366  30.499   5.489
 3382POPC   GL144905  41.430  30.673   5.887
 3382POPC   GL244906  41.778  30.684   5.788
 3382POPC   C1A44907  41.424  30.484   6.318
 3382POPC   D2A44908  41.690  30.521   6.692
 3382POPC   C3A44909  41.522  30.629   7.083
 3382POPC   C4A44910  41.215  30.926   7.161
 3382POPC   C1B44911  41.853  30.741   6.224
 3382POPC   C2B44912  41.967  30.932   6.616
 3382POPC   C3B44913  42.008  30.767   7.041
 3382POPC   C4B44914  41.986  30.948   7.447
 3383POPC   NC344915  10.029   9.766   5.394
 3383POPC   PO444916   9.322   9.793   5.361
 3383POPC   GL144917   9.607   9.544   5.685
 3383POPC   GL244918   9.956   9.579   5.886
 3383POPC   C1A44919   9.534   9.511   6.162
 3383POPC   D2A44920   9.763   9.600   6.586
 3383POPC   C3A44921   9.553   9.854   6.933
 3383POPC   C4A44922   9.723  10.036   7.304
 3383POPC   C1B44923  10.267   9.504   6.247
 3383POPC   C2B44924  10.273   9.473   6.723
 3383POPC   C3B44925  10.027   9.681   7.071
 3383POPC   C4B44926  10.062   9.706   7.554
 3384POPC   NC344927  26.007  24.525   5.110
 3384POPC   PO444928  26.241  24.106   5.579
 3384POPC   GL144929  26.160  24.443   5.849
 3384POPC   GL244930  25.853  24.528   5.925
 3384POPC   C1A44931  26.218  24.662   6.252
 3384POPC   D2A44932  26.293  24.409   6.602
 3384POPC   C3A44933  26.251  24.647   6.947
 3384POPC   C4A44934  26.040  24.660   7.319
 3384POPC   C1B44935  25.844  24.305   6.303
 3384POPC   C2B44936  25.794  24.475   6.725
 3384POPC   C3B44937  25.857  24.260   7.084
 3384POPC   C4B44938  25.695  24.234   7.505
 3385POPC   NC344939   2.160  21.933   5.384
 3385POPC   PO444940   1.547  22.325   5.300
 3385POPC   GL144941   1.830  22.198   5.692
 3385POPC   GL244942   2.184  22.341   5.775
 3385POPC   C1A44943   1.959  22.096   6.146
 3385POPC   D2A44944   1.886  21.845   6.515
 3385POPC   C3A44945   1.885  22.056   6.905
 3385POPC   C4A44946   1.764  22.437   7.107
 3385POPC   C1B44947   2.206  22.566   6.166
 3385POPC   C2B44948   2.102  22.419   6.569
 3385POPC   C3B44949   2.234  22.555   6.964
 3385POPC   C4B44950   2.259  22.301   7.271
 3386POPC   NC344951  29.924  30.941   5.199
 3386POPC   PO444952  29.964  30.245   5.332
 3386POPC   GL144953  29.982  30.525   5.733
 3386POPC   GL244954  29.858  30.855   5.792
 3386POPC   C1A44955  30.167  30.652   6.159
 3386POPC   D2A44956  30.000  30.561   6.594
 3386POPC   C3A44957  29.808  30.853   6.865
 3386POPC   C4A44958  29.676  30.795   7.257
 3386POPC   C1B44959  29.641  30.663   6.138
 3386POPC   C2B44960  29.483  30.633   6.537
 3386POPC   C3B44961  29.528  30.418   6.915
 3386POPC   C4B44962  29.524  30.298   7.318
 3387POPC   NC344963  12.275   9.417   5.227
 3387POPC   PO444964  11.676   9.536   5.541
 3387POPC   GL144965  11.938   9.711   5.827
 3387POPC   GL244966  12.167   9.907   5.648
 3387POPC   C1A44967  12.007   9.639   6.243
 3387POPC   D2A44968  12.202   9.514   6.634
 3387POPC   C3A44969  11.958   9.567   7.023
 3387POPC   C4A44970  11.737   9.493   7.433
 3387POPC   C1B44971  12.228  10.094   6.067
 3387POPC   C2B44972  12.208  10.016   6.521
 3387POPC   C3B44973  12.309   9.935   6.947
 3387POPC   C4B44974  12.054   9.965   7.326
 3388POPC   NC344975  21.882  30.115   5.394
 3388POPC   PO444976  22.408  29.683   5.521
 3388POPC   GL144977  22.270  29.940   5.843
 3388POPC   GL244978  21.897  29.981   5.887
 3388POPC   C1A44979  22.167  29.740   6.238
 3388POPC   D2A44980  22.242  29.515   6.614
 3388POPC   C3A44981  22.193  29.768   6.998
 3388POPC   C4A44982  22.018  29.644   7.377
 3388POPC   C1B44983  22.121  30.266   6.201
 3388POPC   C2B44984  22.272  30.205   6.615
 3388POPC   C3B44985  22.013  30.228   6.974
 3388POPC   C4B44986  21.716  30.026   7.195
 3389POPC   NC344987  32.884  15.658   5.649
 3389POPC   PO444988  33.470  15.871   5.292
 3389POPC   GL144989  33.462  15.946   5.775
 3389POPC   GL244990  33.142  16.102   5.813
 3389POPC   C1A44991  33.459  15.992   6.227
 3389POPC   D2A44992  33.134  15.831   6.502
 3389POPC   C3A44993  33.239  15.783   6.922
 3389POPC   C4A44994  33.136  15.938   7.298
 3389POPC   C1B44995  32.836  16.128   6.163
 3389POPC   C2B44996  32.815  16.265   6.568
 3389POPC   C3B44997  32.750  16.126   6.974
 3389POPC   C4B44998  32.775  16.311   7.374
 3390POPC   NC344999  36.338  16.528   5.457
 3390POPC   PO445000  36.224  17.220   5.364
 3390POPC   GL145001  36.290  17.014   5.763
 3390POPC   GL245002  36.044  16.774   5.819
 3390POPC   C1A45003  36.393  16.918   6.213
 3390POPC   D2A45004  36.457  17.044   6.637
 3390POPC   C3A45005  36.573  16.813   6.939
 3390POPC   C4A45006  36.364  16.996   7.249
 3390POPC   C1B45007  35.883  17.022   6.160
 3390POPC   C2B45008  35.999  16.856   6.562
 3390POPC   C3B45009  35.958  16.800   7.001
 3390POPC   C4B45010  36.203  16.489   7.165
 3391POPC   NC345011  21.276  22.689   5.416
 3391POPC   PO445012  21.825  22.422   5.457
 3391POPC   GL145013  21.668  22.633   5.863
 3391POPC   GL245014  21.302  22.559   5.914
 3391POPC   C1A45015  21.491  22.856   6.280
 3391POPC   D2A45016  21.227  22.924   6.673
 3391POPC   C3A45017  21.438  22.995   7.089
 3391POPC   C4A45018  21.348  23.135   7.522
 3391POPC   C1B45019  21.115  22.487   6.336
 3391POPC   C2B45020  20.967  22.490   6.766
 3391POPC   C3B45021  21.178  22.543   7.151
 3391POPC   C4B45022  21.249  22.310   7.535
 3392POPC   NC345023  35.760  21.547   5.792
 3392POPC   PO445024  36.235  21.259   5.371
 3392POPC   GL145025  36.174  21.249   5.839
 3392POPC   GL245026  35.857  21.119   6.048
 3392POPC   C1A45027  36.238  21.358   6.288
 3392POPC   D2A45028  36.095  21.639   6.603
 3392POPC   C3A45029  36.205  21.508   7.011
 3392POPC   C4A45030  36.436  21.162   7.182
 3392POPC   C1B45031  35.733  21.310   6.446
 3392POPC   C2B45032  35.728  21.373   6.883
 3392POPC   C3B45033  35.852  21.216   7.277
 3392POPC   C4B45034  35.805  20.965   7.651
 3393POPC   NC345035   7.725  20.020   4.977
 3393POPC   PO445036   8.194  19.756   5.475
 3393POPC   GL145037   8.109  19.909   5.862
 3393POPC   GL245038   7.821  20.099   5.849
 3393POPC   C1A45039   8.126  19.745   6.257
 3393POPC   D2A45040   8.196  19.901   6.649
 3393POPC   C3A45041   8.527  19.790   6.906
 3393POPC   C4A45042   8.456  19.535   7.248
 3393POPC   C1B45043   7.890  20.197   6.306
 3393POPC   C2B45044   7.840  20.236   6.769
 3393POPC   C3B45045   7.789  19.952   7.142
 3393POPC   C4B45046   7.590  20.077   7.519
 3394POPC   NC345047  19.108  17.936   5.218
 3394POPC   PO445048  18.939  18.585   5.382
 3394POPC   GL145049  18.924  18.491   5.795
 3394POPC   GL245050  18.896  18.119   5.795
 3394POPC   C1A45051  19.150  18.502   6.176
 3394POPC   D2A45052  19.012  18.491   6.596
 3394POPC   C3A45053  18.804  18.474   6.975
 3394POPC   C4A45054  19.038  18.459   7.351
 3394POPC   C1B45055  19.203  17.993   6.103
 3394POPC   C2B45056  19.330  18.102   6.538
 3394POPC   C3B45057  19.183  18.109   6.987
 3394POPC   C4B45058  19.077  17.937   7.411
 3395POPC   NC345059   5.658  23.740   5.375
 3395POPC   PO445060   6.238  23.484   5.575
 3395POPC   GL145061   5.925  23.720   5.845
 3395POPC   GL245062   5.600  23.857   5.925
 3395POPC   C1A45063   5.958  23.658   6.282
 3395POPC   D2A45064   6.115  23.388   6.615
 3395POPC   C3A45065   5.960  23.522   7.013
 3395POPC   C4A45066   6.162  23.943   7.102
 3395POPC   C1B45067   5.489  23.954   6.356
 3395POPC   C2B45068   5.540  24.009   6.809
 3395POPC   C3B45069   5.658  23.889   7.243
 3395POPC   C4B45070   5.569  23.920   7.684
 3396POPC   NC345071  17.162   1.102   5.414
 3396POPC   PO445072  17.688   1.481   5.361
 3396POPC   GL145073  17.511   1.408   5.776
 3396POPC   GL245074  17.498   1.033   5.801
 3396POPC   C1A45075  17.655   1.288   6.205
 3396POPC   D2A45076  17.474   1.062   6.568
 3396POPC   C3A45077  17.415   1.318   6.942
 3396POPC   C4A45078  17.434   1.509   7.324
 3396POPC   C1B45079  17.393   0.761   6.159
 3396POPC   C2B45080  17.316   0.559   6.572
 3396POPC   C3B45081  17.243   0.803   6.973
 3396POPC   C4B45082  17.020   1.103   7.209
 3397POPC   NC345083  42.175   0.407   5.442
 3397POPC   PO445084  42.880   0.501   5.504
 3397POPC   GL145085  42.516   0.646   5.762
 3397POPC   GL245086  42.480   0.292   5.903
 3397POPC   C1A45087  42.252   0.662   6.154
 3397POPC   D2A45088  42.414   0.344   6.453
 3397POPC   C3A45089  42.579   0.429   6.872
 3397POPC   C4A45090  42.384   0.418   7.285
 3397POPC   C1B45091  42.052   0.184   6.085
 3397POPC   C2B45092  41.892   0.347   6.472
 3397POPC   C3B45093  42.074   0.295   6.882
 3397POPC   C4B45094  42.014   0.059   7.274
 3398POPC   NC345095  16.030  12.034   5.388
 3398POPC   PO445096  16.050  12.684   5.434
 3398POPC   GL145097  15.873  12.415   5.818
 3398POPC   GL245098  15.816  12.026   5.854
 3398POPC   C1A45099  15.707  12.331   6.246
 3398POPC   D2A45100  15.673  12.032   6.576
 3398POPC   C3A45101  15.754  12.196   6.969
 3398POPC   C4A45102  16.033  12.157   7.290
 3398POPC   C1B45103  16.044  11.863   6.242
 3398POPC   C2B45104  16.015  11.670   6.695
 3398POPC   C3B45105  16.242  11.678   7.120
 3398POPC   C4B45106  16.344  11.861   7.549
 3399POPC   NC345107  41.349  25.034   5.137
 3399POPC   PO445108  41.675  25.512   5.360
 3399POPC   GL145109  41.321  25.418   5.637
 3399POPC   GL245110  41.354  25.075   5.743
 3399POPC   C1A45111  41.434  25.445   6.094
 3399POPC   D2A45112  41.672  25.314   6.466
 3399POPC   C3A45113  41.476  25.301   6.848
 3399POPC   C4A45114  41.638  25.458   7.215
 3399POPC   C1B45115  41.617  24.944   6.118
 3399POPC   C2B45116  41.713  24.760   6.526
 3399POPC   C3B45117  41.796  24.877   6.954
 3399POPC   C4B45118  41.506  24.982   7.256
 3400POPC   NC345119   2.599  43.257   5.468
 3400POPC   PO445120   3.173  42.827   5.420
 3400POPC   GL145121   2.915  42.975   5.730
 3400POPC   GL245122   2.954  43.309   5.825
 3400POPC   C1A45123   2.672  42.976   6.103
 3400POPC   D2A45124   2.625  43.132   6.517
 3400POPC   C3A45125   2.764  42.900   6.847
 3400POPC   C4A45126   2.619  43.058   7.230
 3400POPC   C1B45127   3.061  43.309   6.221
 3400POPC   C2B45128   3.129  43.155   6.611
 3400POPC   C3B45129   2.932  43.350   6.944
 3400POPC   C4B45130   2.905  43.449   7.357
 3401POPC   NC345131  31.734   4.581   5.399
 3401POPC   PO445132  32.251   4.279   5.477
 3401POPC   GL145133  32.265   4.353   5.896
 3401POPC   GL245134  31.919   4.251   5.885
 3401POPC   C1A45135  32.336   4.283   6.349
 3401POPC   D2A45136  32.463   4.466   6.766
 3401POPC   C3A45137  32.327   4.204   7.109
 3401POPC   C4A45138  32.466   3.779   7.196
 3401POPC   C1B45139  31.879   4.530   6.216
 3401POPC   C2B45140  31.967   4.508   6.644
 3401POPC   C3B45141  32.044   4.660   7.053
 3401POPC   C4B45142  32.134   4.541   7.464
 3402POPC   NC345143   7.904   6.170   5.537
 3402POPC   PO445144   8.526   5.672   5.469
 3402POPC   GL145145   8.473   5.826   5.878
 3402POPC   GL245146   8.141   5.995   5.946
 3402POPC   C1A45147   8.422   5.794   6.330
 3402POPC   D2A45148   8.170   6.050   6.617
 3402POPC   C3A45149   8.219   5.871   7.020
 3402POPC   C4A45150   8.236   5.514   7.299
 3402POPC   C1B45151   7.939   5.694   6.214
 3402POPC   C2B45152   8.079   5.525   6.613
 3402POPC   C3B45153   7.835   5.533   6.961
 3402POPC   C4B45154   7.718   5.595   7.351
 3403POPC   NC345155   6.282  12.019   5.553
 3403POPC   PO445156   5.885  12.271   5.010
 3403POPC   GL145157   5.847  12.252   5.538
 3403POPC   GL245158   5.750  11.885   5.685
 3403POPC   C1A45159   5.875  12.226   6.031
 3403POPC   D2A45160   5.782  12.452   6.418
 3403POPC   C3A45161   5.819  12.309   6.866
 3403POPC   C4A45162   6.093  12.110   7.172
 3403POPC   C1B45163   5.843  11.744   6.152
 3403POPC   C2B45164   5.986  11.820   6.591
 3403POPC   C3B45165   5.759  11.786   6.976
 3403POPC   C4B45166   5.656  11.480   7.261
 3404POPC   NC345167   5.584  14.204   5.375
 3404POPC   PO445168   6.101  14.718   5.389
 3404POPC   GL145169   5.908  14.644   5.799
 3404POPC   GL245170   5.590  14.533   5.766
 3404POPC   C1A45171   5.839  14.403   6.209
 3404POPC   D2A45172   6.131  14.316   6.540
 3404POPC   C3A45173   6.026  14.222   6.951
 3404POPC   C4A45174   6.015  14.618   7.138
 3404POPC   C1B45175   5.467  14.112   5.993
 3404POPC   C2B45176   5.440  14.123   6.424
 3404POPC   C3B45177   5.575  14.413   6.739
 3404POPC   C4B45178   5.563  14.294   7.162
 3405POPC   NC345179  23.600  13.031   5.152
 3405POPC   PO445180  22.970  12.801   5.277
 3405POPC   GL145181  22.958  12.714   5.720
 3405POPC   GL245182  22.913  13.064   5.850
 3405POPC   C1A45183  23.246  12.717   6.090
 3405POPC   D2A45184  23.267  12.891   6.507
 3405POPC   C3A45185  23.277  12.744   6.921
 3405POPC   C4A45186  23.163  13.028   7.247
 3405POPC   C1B45187  22.805  12.965   6.307
 3405POPC   C2B45188  22.836  12.992   6.778
 3405POPC   C3B45189  22.798  12.705   7.146
 3405POPC   C4B45190  22.814  12.813   7.587
 3406POPC   NC345191  11.014  22.081   5.624
 3406POPC   PO445192  11.609  22.244   5.417
 3406POPC   GL145193  11.478  22.184   5.817
 3406POPC   GL245194  11.438  21.851   5.885
 3406POPC   C1A45195  11.480  22.349   6.210
 3406POPC   D2A45196  11.323  22.288   6.609
 3406POPC   C3A45197  11.431  22.520   6.969
 3406POPC   C4A45198  11.473  22.322   7.400
 3406POPC   C1B45199  11.154  21.866   6.258
 3406POPC   C2B45200  11.022  21.886   6.710
 3406POPC   C3B45201  11.159  22.095   7.092
 3406POPC   C4B45202  11.039  22.078   7.573
 3407POPC   NC345203  44.683  33.187   5.633
 3407POPC   PO445204  44.847  33.715   5.057
 3407POPC   GL145205  44.725  33.692   5.514
 3407POPC   GL245206  44.531  33.945   5.638
 3407POPC   C1A45207  44.826  33.760   6.005
 3407POPC   D2A45208  44.887  33.986   6.432
 3407POPC   C3A45209  44.956  33.696   6.791
 3407POPC   C4A45210  44.747  33.534   7.163
 3407POPC   C1B45211  44.352  33.938   6.078
 3407POPC   C2B45212  44.451  33.739   6.473
 3407POPC   C3B45213  44.499  33.915   6.882
 3407POPC   C4B45214  44.677  34.102   7.233
 3408POPC   NC345215  17.876   2.718   5.435
 3408POPC   PO445216  17.570   3.204   5.138
 3408POPC   GL145217  17.558   3.085   5.605
 3408POPC   GL245218  17.245   3.119   5.808
 3408POPC   C1A45219  17.690   2.914   6.027
 3408POPC   D2A45220  17.635   2.951   6.467
 3408POPC   C3A45221  17.572   2.608   6.783
 3408POPC   C4A45222  17.520   2.730   7.215
 3408POPC   C1B45223  17.208   2.710   6.041
 3408POPC   C2B45224  17.137   2.644   6.485
 3408POPC   C3B45225  17.091   2.714   6.915
 3408POPC   C4B45226  17.110   2.424   7.231
 3409POPC   NC345227   0.639  13.954   5.498
 3409POPC   PO445228   0.350  14.652   5.433
 3409POPC   GL145229   0.473  14.410   5.786
 3409POPC   GL245230   0.262  14.144   5.818
 3409POPC   C1A45231   0.356  14.409   6.248
 3409POPC   D2A45232   0.457  14.583   6.657
 3409POPC   C3A45233   0.207  14.657   7.024
 3409POPC   C4A45234   0.534  14.551   7.246
 3409POPC   C1B45235   0.175  13.900   6.216
 3409POPC   C2B45236   0.118  14.091   6.598
 3409POPC   C3B45237   0.317  14.156   6.976
 3409POPC   C4B45238   0.171  14.247   7.399
 3410POPC   NC345239  28.642   4.019   5.604
 3410POPC   PO445240  29.172   4.524   5.465
 3410POPC   GL145241  29.050   4.534   5.916
 3410POPC   GL245242  29.046   4.190   5.873
 3410POPC   C1A45243  29.102   4.697   6.361
 3410POPC   D2A45244  29.226   4.804   6.802
 3410POPC   C3A45245  29.199   4.440   7.057
 3410POPC   C4A45246  29.424   4.044   7.103
 3410POPC   C1B45247  28.821   4.236   6.257
 3410POPC   C2B45248  29.010   4.166   6.629
 3410POPC   C3B45249  28.949   3.904   6.968
 3410POPC   C4B45250  28.938   4.108   7.356
 3411POPC   NC345251  27.289  42.886   5.499
 3411POPC   PO445252  27.387  43.553   5.497
 3411POPC   GL145253  27.629  43.406   5.873
 3411POPC   GL245254  27.617  43.037   5.877
 3411POPC   C1A45255  27.566  43.300   6.335
 3411POPC   D2A45256  27.340  43.276   6.760
 3411POPC   C3A45257  27.636  43.373   7.097
 3411POPC   C4A45258  28.000  43.126   7.217
 3411POPC   C1B45259  27.401  42.831   6.234
 3411POPC   C2B45260  27.416  42.752   6.689
 3411POPC   C3B45261  27.571  42.849   7.121
 3411POPC   C4B45262  27.557  42.871   7.581
 3412POPC   NC345263  44.564  19.646   5.329
 3412POPC   PO445264  44.801  20.197   5.030
 3412POPC   GL145265  44.808  20.061   5.511
 3412POPC   GL245266  44.990  19.728   5.590
 3412POPC   C1A45267  44.596  19.999   5.949
 3412POPC   D2A45268  44.634  20.122   6.410
 3412POPC   C3A45269  44.540  19.912   6.822
 3412POPC   C4A45270  44.872  19.924   7.156
 3412POPC   C1B45271  44.880  19.562   6.019
 3412POPC   C2B45272  44.889  19.670   6.467
 3412POPC   C3B45273  44.828  19.493   6.876
 3412POPC   C4B45274  44.563  19.542   7.268
 3413POPC   NC345275  17.682  19.695   5.289
 3413POPC   PO445276  17.469  20.247   5.495
 3413POPC   GL145277  17.400  19.936   5.857
 3413POPC   GL245278  17.464  19.603   5.740
 3413POPC   C1A45279  17.325  19.959   6.311
 3413POPC   D2A45280  17.572  19.996   6.727
 3413POPC   C3A45281  17.355  20.027   7.125
 3413POPC   C4A45282  17.140  19.731   7.411
 3413POPC   C1B45283  17.314  19.443   6.134
 3413POPC   C2B45284  17.411  19.535   6.562
 3413POPC   C3B45285  17.362  19.543   6.998
 3413POPC   C4B45286  17.658  19.638   7.331
 3414POPC   NC345287  31.695  42.104   5.399
 3414POPC   PO445288  31.176  42.467   5.357
 3414POPC   GL145289  31.355  42.391   5.796
 3414POPC   GL245290  31.642  42.166   5.902
 3414POPC   C1A45291  31.465  42.514   6.236
 3414POPC   D2A45292  31.306  42.569   6.645
 3414POPC   C3A45293  31.518  42.545   7.052
 3414POPC   C4A45294  31.271  42.716   7.375
 3414POPC   C1B45295  31.605  42.027   6.342
 3414POPC   C2B45296  31.528  42.095   6.797
 3414POPC   C3B45297  31.515  42.044   7.266
 3414POPC   C4B45298  31.540  41.887   7.717
 3415POPC   NC345299  26.877  32.770   5.175
 3415POPC   PO445300  26.636  33.359   5.479
 3415POPC   GL145301  26.682  32.984   5.752
 3415POPC   GL245302  27.046  32.951   5.824
 3415POPC   C1A45303  26.729  32.818   6.208
 3415POPC   D2A45304  26.929  33.020   6.572
 3415POPC   C3A45305  27.015  32.870   6.989
 3415POPC   C4A45306  26.694  33.092   7.183
 3415POPC   C1B45307  27.071  33.300   6.144
 3415POPC   C2B45308  27.272  33.390   6.564
 3415POPC   C3B45309  27.103  33.375   7.003
 3415POPC   C4B45310  27.066  33.282   7.449
 3416POPC   NC345311  36.343  31.104   5.380
 3416POPC   PO445312  35.889  31.610   5.402
 3416POPC   GL145313  36.050  31.687   5.779
 3416POPC   GL245314  36.084  31.332   5.813
 3416POPC   C1A45315  36.085  31.691   6.221
 3416POPC   D2A45316  36.037  31.445   6.600
 3416POPC   C3A45317  36.328  31.419   6.931
 3416POPC   C4A45318  36.169  31.590   7.336
 3416POPC   C1B45319  36.123  31.127   6.212
 3416POPC   C2B45320  35.844  30.972   6.546
 3416POPC   C3B45321  35.690  31.143   6.885
 3416POPC   C4B45322  35.971  31.139   7.211
 3417POPC   NC345323  26.833  14.713   5.552
 3417POPC   PO445324  26.529  14.126   5.397
 3417POPC   GL145325  26.668  14.259   5.765
 3417POPC   GL245326  26.456  14.528   5.865
 3417POPC   C1A45327  26.689  14.198   6.213
 3417POPC   D2A45328  26.525  14.445   6.554
 3417POPC   C3A45329  26.756  14.406   6.934
 3417POPC   C4A45330  26.867  14.490   7.358
 3417POPC   C1B45331  26.683  14.760   6.196
 3417POPC   C2B45332  26.826  14.853   6.641
 3417POPC   C3B45333  26.624  14.876   7.062
 3417POPC   C4B45334  26.595  14.929   7.507
 3418POPC   NC345335   4.425  15.699   5.466
 3418POPC   PO445336   4.242  16.318   5.427
 3418POPC   GL145337   4.124  16.286   5.862
 3418POPC   GL245338   4.036  15.928   5.938
 3418POPC   C1A45339   4.282  16.244   6.252
 3418POPC   D2A45340   4.244  16.084   6.655
 3418POPC   C3A45341   4.332  16.341   7.012
 3418POPC   C4A45342   4.107  16.259   7.376
 3418POPC   C1B45343   4.081  15.677   6.349
 3418POPC   C2B45344   4.340  15.585   6.731
 3418POPC   C3B45345   4.251  15.838   7.114
 3418POPC   C4B45346   4.227  15.745   7.571
 3419POPC   NC345347  22.256  22.551   5.563
 3419POPC   PO445348  22.439  23.166   5.322
 3419POPC   GL145349  22.504  23.013   5.755
 3419POPC   GL245350  22.149  22.974   5.851
 3419POPC   C1A45351  22.512  22.828   6.190
 3419POPC   D2A45352  22.387  22.943   6.635
 3419POPC   C3A45353  22.425  22.768   7.065
 3419POPC   C4A45354  22.294  23.026   7.411
 3419POPC   C1B45355  22.007  22.860   6.273
 3419POPC   C2B45356  21.853  22.959   6.694
 3419POPC   C3B45357  21.918  22.835   7.114
 3419POPC   C4B45358  21.669  22.546   7.354
 3420POPC   NC345359  15.663  17.988   5.359
 3420POPC   PO445360  15.672  18.603   5.673
 3420POPC   GL145361  16.015  18.341   5.864
 3420POPC   GL245362  16.013  17.994   5.791
 3420POPC   C1A45363  16.213  18.150   6.226
 3420POPC   D2A45364  15.897  17.975   6.495
 3420POPC   C3A45365  16.001  17.966   6.908
 3420POPC   C4A45366  16.137  18.294   7.177
 3420POPC   C1B45367  15.605  18.067   6.053
 3420POPC   C2B45368  15.463  18.267   6.461
 3420POPC   C3B45369  15.606  18.312   6.892
 3420POPC   C4B45370  15.630  18.041   7.250
 3421POPC   NC345371  16.395  16.335   5.389
 3421POPC   PO445372  15.738  16.635   5.204
 3421POPC   GL145373  15.801  16.726   5.685
 3421POPC   GL245374  16.101  16.759   5.805
 3421POPC   C1A45375  15.740  16.721   6.160
 3421POPC   D2A45376  15.820  16.964   6.542
 3421POPC   C3A45377  15.811  16.794   6.938
 3421POPC   C4A45378  15.881  17.035   7.322
 3421POPC   C1B45379  16.270  16.697   6.211
 3421POPC   C2B45380  16.157  16.592   6.601
 3421POPC   C3B45381  16.317  16.548   6.996
 3421POPC   C4B45382  16.133  16.329   7.295
 3422POPC   NC345383  13.485   7.102   5.599
 3422POPC   PO445384  13.883   6.653   5.193
 3422POPC   GL145385  13.662   6.622   5.569
 3422POPC   GL245386  13.909   6.861   5.707
 3422POPC   C1A45387  13.609   6.601   6.022
 3422POPC   D2A45388  13.813   6.528   6.391
 3422POPC   C3A45389  13.719   6.590   6.819
 3422POPC   C4A45390  13.953   6.537   7.182
 3422POPC   C1B45391  13.879   7.026   6.134
 3422POPC   C2B45392  13.868   7.021   6.562
 3422POPC   C3B45393  13.951   7.025   6.988
 3422POPC   C4B45394  13.607   6.913   7.215
 3423POPC   NC345395  10.042   8.777   5.542
 3423POPC   PO445396   9.505   8.949   5.232
 3423POPC   GL145397   9.572   8.744   5.717
 3423POPC   GL245398   9.715   9.060   5.823
 3423POPC   C1A45399   9.744   8.637   6.184
 3423POPC   D2A45400   9.571   8.720   6.623
 3423POPC   C3A45401   9.803   8.732   7.013
 3423POPC   C4A45402   9.592   8.983   7.310
 3423POPC   C1B45403   9.888   9.144   6.201
 3423POPC   C2B45404   9.987   9.040   6.592
 3423POPC   C3B45405   9.861   9.228   6.946
 3423POPC   C4B45406  10.022   9.245   7.352
 3424POPC   NC345407  41.414  37.852   5.517
 3424POPC   PO445408  41.877  37.395   5.460
 3424POPC   GL145409  41.725  37.578   5.838
 3424POPC   GL245410  41.426  37.478   5.878
 3424POPC   C1A45411  41.536  37.830   6.214
 3424POPC   D2A45412  41.374  38.043   6.582
 3424POPC   C3A45413  41.589  37.869   6.917
 3424POPC   C4A45414  41.479  37.691   7.302
 3424POPC   C1B45415  41.258  37.380   6.278
 3424POPC   C2B45416  41.298  37.531   6.665
 3424POPC   C3B45417  41.244  37.323   7.032
 3424POPC   C4B45418  41.091  37.331   7.426
 3425POPC   NC345419  25.309  11.069   5.114
 3425POPC   PO445420  25.434  10.428   5.478
 3425POPC   GL145421  25.393  10.630   5.825
 3425POPC   GL245422  25.462  10.959   5.670
 3425POPC   C1A45423  25.371  10.419   6.215
 3425POPC   D2A45424  25.048  10.329   6.514
 3425POPC   C3A45425  25.266  10.341   6.900
 3425POPC   C4A45426  25.174  10.574   7.263
 3425POPC   C1B45427  25.595  10.972   6.131
 3425POPC   C2B45428  25.608  10.743   6.536
 3425POPC   C3B45429  25.387  10.869   6.901
 3425POPC   C4B45430  25.535  11.008   7.334
 3426POPC   NC345431  41.795  30.212   5.441
 3426POPC   PO445432  41.228  29.738   5.439
 3426POPC   GL145433  41.483  29.891   5.788
 3426POPC   GL245434  41.611  30.205   5.904
 3426POPC   C1A45435  41.497  29.850   6.242
 3426POPC   D2A45436  41.140  29.767   6.458
 3426POPC   C3A45437  41.137  30.028   6.785
 3426POPC   C4A45438  41.394  30.069   7.150
 3426POPC   C1B45439  41.853  30.208   6.290
 3426POPC   C2B45440  41.695  30.023   6.713
 3426POPC   C3B45441  41.881  30.222   7.099
 3426POPC   C4B45442  41.794  30.453   7.493
 3427POPC   NC345443  19.694  29.588   5.414
 3427POPC   PO445444  20.088  29.059   5.338
 3427POPC   GL145445  19.808  29.119   5.736
 3427POPC   GL245446  19.416  29.144   5.798
 3427POPC   C1A45447  19.934  29.188   6.176
 3427POPC   D2A45448  20.192  29.358   6.495
 3427POPC   C3A45449  20.049  29.224   6.912
 3427POPC   C4A45450  20.068  29.421   7.320
 3427POPC   C1B45451  19.496  28.927   6.218
 3427POPC   C2B45452  19.688  28.917   6.659
 3427POPC   C3B45453  19.458  28.968   7.056
 3427POPC   C4B45454  19.304  28.803   7.446
 3428POPC   NC345455  27.147  27.788   5.507
 3428POPC   PO445456  26.635  27.362   5.385
 3428POPC   GL145457  26.831  27.411   5.822
 3428POPC   GL245458  26.794  27.769   5.912
 3428POPC   C1A45459  26.826  27.466   6.314
 3428POPC   D2A45460  26.916  27.758   6.671
 3428POPC   C3A45461  26.805  27.624   7.064
 3428POPC   C4A45462  26.704  27.236   7.166
 3428POPC   C1B45463  27.142  27.896   6.222
 3428POPC   C2B45464  27.327  28.042   6.685
 3428POPC   C3B45465  27.121  28.024   7.153
 3428POPC   C4B45466  27.179  27.875   7.657
 3429POPC   NC345467   0.254   0.080   5.311
 3429POPC   PO445468   0.351   0.720   5.438
 3429POPC   GL145469   0.294   0.544   5.831
 3429POPC   GL245470   0.445   0.232   5.774
 3429POPC   C1A45471   0.122   0.529   6.278
 3429POPC   D2A45472   0.160   0.223   6.665
 3429POPC   C3A45473   0.435   0.378   7.018
 3429POPC   C4A45474   0.611   0.791   7.148
 3429POPC   C1B45475   0.464   0.153   6.223
 3429POPC   C2B45476   0.708   0.142   6.625
 3429POPC   C3B45477   0.761  44.987   7.060
 3429POPC   C4B45478   0.667   0.131   7.501
 3430POPC   NC345479   6.771  44.244   5.506
 3430POPC   PO445480   6.229  43.840   5.495
 3430POPC   GL145481   6.487  43.958   5.814
 3430POPC   GL245482   6.788  43.743   5.814
 3430POPC   C1A45483   6.605  44.043   6.228
 3430POPC   D2A45484   6.627  43.890   6.642
 3430POPC   C3A45485   6.526  44.221   6.901
 3430POPC   C4A45486   6.533  44.311   7.340
 3430POPC   C1B45487   7.077  43.897   6.140
 3430POPC   C2B45488   7.167  43.864   6.590
 3430POPC   C3B45489   6.990  43.981   7.013
 3430POPC   C4B45490   6.641  43.806   7.187
 3431POPC   NC345491   9.792  11.775   4.998
 3431POPC   PO445492  10.044  12.114   5.524
 3431POPC   GL145493   9.761  12.283   5.759
 3431POPC   GL245494   9.756  11.963   5.953
 3431POPC   C1A45495   9.600  12.378   6.161
 3431POPC   D2A45496   9.562  12.084   6.491
 3431POPC   C3A45497   9.497  12.256   6.892
 3431POPC   C4A45498   9.912  12.367   7.043
 3431POPC   C1B45499   9.993  11.675   6.186
 3431POPC   C2B45500   9.953  11.753   6.569
 3431POPC   C3B45501   9.768  11.831   6.945
 3431POPC   C4B45502   9.938  11.741   7.295
 3432POPC   NC345503  36.662  17.181   5.179
 3432POPC   PO445504  36.796  16.517   5.340
 3432POPC   GL145505  37.040  16.677   5.703
 3432POPC   GL245506  36.739  16.749   5.881
 3432POPC   C1A45507  37.129  17.010   6.061
 3432POPC   D2A45508  36.901  16.924   6.442
 3432POPC   C3A45509  37.086  16.941   6.853
 3432POPC   C4A45510  36.957  16.894   7.310
 3432POPC   C1B45511  37.036  16.508   6.187
 3432POPC   C2B45512  37.050  16.451   6.662
 3432POPC   C3B45513  37.216  16.503   7.103
 3432POPC   C4B45514  36.958  16.404   7.510
 3433POPC   NC345515  36.832  28.369   5.068
 3433POPC   PO445516  36.739  28.038   5.600
 3433POPC   GL145517  36.949  28.269   5.885
 3433POPC   GL245518  37.144  28.524   5.705
 3433POPC   C1A45519  36.873  28.297   6.315
 3433POPC   D2A45520  37.052  28.198   6.703
 3433POPC   C3A45521  36.919  28.391   7.076
 3433POPC   C4A45522  36.746  28.117   7.389
 3433POPC   C1B45523  37.236  28.602   6.133
 3433POPC   C2B45524  37.113  28.703   6.560
 3433POPC   C3B45525  37.305  28.735   6.966
 3433POPC   C4B45526  37.093  28.815   7.336
 3434POPC   NC345527   3.788  20.023   5.428
 3434POPC   PO445528   3.425  19.551   5.243
 3434POPC   GL145529   3.454  19.695   5.674
 3434POPC   GL245530   3.771  19.539   5.705
 3434POPC   C1A45531   3.595  19.884   6.093
 3434POPC   D2A45532   3.427  19.987   6.506
 3434POPC   C3A45533   3.553  19.777   6.865
 3434POPC   C4A45534   3.640  19.775   7.285
 3434POPC   C1B45535   3.927  19.501   6.143
 3434POPC   C2B45536   3.942  19.728   6.527
 3434POPC   C3B45537   4.022  19.564   6.942
 3434POPC   C4B45538   4.142  19.680   7.326
 3435POPC   NC345539  26.742   8.342   5.416
 3435POPC   PO445540  27.318   8.600   5.619
 3435POPC   GL145541  27.003   8.368   5.882
 3435POPC   GL245542  26.754   8.068   5.874
 3435POPC   C1A45543  26.815   8.425   6.293
 3435POPC   D2A45544  26.662   8.410   6.723
 3435POPC   C3A45545  26.981   8.415   7.041
 3435POPC   C4A45546  26.911   8.343   7.480
 3435POPC   C1B45547  27.004   7.935   6.237
 3435POPC   C2B45548  26.948   7.968   6.714
 3435POPC   C3B45549  26.792   7.936   7.148
 3435POPC   C4B45550  26.875   7.788   7.584
 3436POPC   NC345551  35.297  32.701   5.179
 3436POPC   PO445552  35.543  33.273   5.478
 3436POPC   GL145553  35.311  33.216   5.849
 3436POPC   GL245554  35.001  33.453   5.890
 3436POPC   C1A45555  35.441  32.945   6.241
 3436POPC   D2A45556  35.483  32.729   6.657
 3436POPC   C3A45557  35.398  32.889   7.082
 3436POPC   C4A45558  35.087  32.926   7.401
 3436POPC   C1B45559  35.178  33.361   6.303
 3436POPC   C2B45560  35.298  33.216   6.698
 3436POPC   C3B45561  35.251  33.399   7.106
 3436POPC   C4B45562  35.363  33.449   7.530
 3437POPC   NC345563  35.811  22.637   5.032
 3437POPC   PO445564  36.303  22.882   5.389
 3437POPC   GL145565  36.210  22.910   5.791
 3437POPC   GL245566  36.425  22.659   5.887
 3437POPC   C1A45567  35.939  23.074   6.097
 3437POPC   D2A45568  35.967  23.119   6.516
 3437POPC   C3A45569  35.905  22.804   6.793
 3437POPC   C4A45570  35.835  22.854   7.196
 3437POPC   C1B45571  36.262  22.725   6.283
 3437POPC   C2B45572  36.328  22.569   6.644
 3437POPC   C3B45573  36.474  22.678   7.003
 3437POPC   C4B45574  36.280  22.608   7.344
 3438POPC   NC345575   7.682  44.450   5.344
 3438POPC   PO445576   7.102  44.555   5.645
 3438POPC   GL145577   7.535  44.654   5.806
 3438POPC   GL245578   7.714  44.976   5.658
 3438POPC   C1A45579   7.532  44.636   6.256
 3438POPC   D2A45580   7.321  44.864   6.547
 3438POPC   C3A45581   7.447  44.725   6.922
 3438POPC   C4A45582   7.305  44.696   7.329
 3438POPC   C1B45583   7.781   0.082   6.092
 3438POPC   C2B45584   7.824   0.024   6.534
 3438POPC   C3B45585   7.957  44.893   6.933
 3438POPC   C4B45586   7.807  44.694   7.270
 3439POPC   NC345587  19.816  10.779   5.129
 3439POPC   PO445588  19.646  10.866   5.715
 3439POPC   GL145589  19.990  10.663   5.925
 3439POPC   GL245590  20.062  10.316   5.849
 3439POPC   C1A45591  20.137  10.644   6.319
 3439POPC   D2A45592  20.190  10.392   6.660
 3439POPC   C3A45593  20.051  10.586   7.017
 3439POPC   C4A45594  19.990  10.456   7.420
 3439POPC   C1B45595  19.784  10.292   6.240
 3439POPC   C2B45596  19.681  10.479   6.665
 3439POPC   C3B45597  19.576  10.382   7.123
 3439POPC   C4B45598  19.441  10.447   7.572
 3440POPC   NC345599  42.637  34.102   5.552
 3440POPC   PO445600  42.046  33.748   5.480
 3440POPC   GL145601  42.236  33.879   5.858
 3440POPC   GL245602  42.533  33.692   5.871
 3440POPC   C1A45603  42.341  33.868   6.322
 3440POPC   D2A45604  42.324  34.162   6.694
 3440POPC   C3A45605  42.284  33.919   7.068
 3440POPC   C4A45606  42.068  33.517   7.138
 3440POPC   C1B45607  42.775  33.461   6.167
 3440POPC   C2B45608  42.799  33.538   6.562
 3440POPC   C3B45609  42.502  33.532   6.830
 3440POPC   C4B45610  42.591  33.560   7.240
 3441POPC   NC345611  25.849  40.798   5.335
 3441POPC   PO445612  26.231  41.171   5.475
 3441POPC   GL145613  26.013  40.866   5.849
 3441POPC   GL245614  25.981  40.497   5.737
 3441POPC   C1A45615  25.979  40.847   6.373
 3441POPC   D2A45616  26.181  40.730   6.822
 3441POPC   C3A45617  25.956  40.756   7.235
 3441POPC   C4A45618  25.693  41.066   7.403
 3441POPC   C1B45619  25.845  40.393   6.176
 3441POPC   C2B45620  25.773  40.452   6.662
 3441POPC   C3B45621  25.973  40.290   7.044
 3441POPC   C4B45622  26.069  40.201   7.463
 3442POPC   NC345623  24.678  38.431   5.252
 3442POPC   PO445624  24.149  38.375   5.612
 3442POPC   GL145625  24.510  38.399   5.883
 3442POPC   GL245626  24.720  38.640   5.747
 3442POPC   C1A45627  24.516  38.392   6.340
 3442POPC   D2A45628  24.275  38.507   6.724
 3442POPC   C3A45629  24.326  38.317   7.135
 3442POPC   C4A45630  24.284  38.527   7.537
 3442POPC   C1B45631  24.695  38.878   6.183
 3442POPC   C2B45632  24.730  38.777   6.637
 3442POPC   C3B45633  24.683  38.717   7.094
 3442POPC   C4B45634  24.791  38.555   7.510
 3443POPC   NC345635  29.428  22.492   5.487
 3443POPC   PO445636  29.418  23.055   5.153
 3443POPC   GL145637  29.608  23.150   5.592
 3443POPC   GL245638  29.561  22.867   5.787
 3443POPC   C1A45639  29.632  23.272   6.071
 3443POPC   D2A45640  29.491  23.402   6.495
 3443POPC   C3A45641  29.427  23.155   6.878
 3443POPC   C4A45642  29.155  22.962   7.193
 3443POPC   C1B45643  29.271  22.792   6.115
 3443POPC   C2B45644  29.234  22.756   6.556
 3443POPC   C3B45645  29.403  22.628   6.923
 3443POPC   C4B45646  29.444  22.557   7.368
 3444POPC   NC345647  24.388  23.843   5.390
 3444POPC   PO445648  24.626  23.238   5.303
 3444POPC   GL145649  24.536  23.477   5.747
 3444POPC   GL245650  24.489  23.867   5.876
 3444POPC   C1A45651  24.526  23.483   6.216
 3444POPC   D2A45652  24.328  23.527   6.607
 3444POPC   C3A45653  24.549  23.350   6.936
 3444POPC   C4A45654  24.694  23.571   7.277
 3444POPC   C1B45655  24.695  23.991   6.261
 3444POPC   C2B45656  24.725  23.813   6.677
 3444POPC   C3B45657  24.410  23.875   6.998
 3444POPC   C4B45658  24.440  24.050   7.389
 3445POPC   NC345659  18.234   3.682   5.497
 3445POPC   PO445660  18.567   3.255   5.086
 3445POPC   GL145661  18.571   3.320   5.630
 3445POPC   GL245662  18.535   3.691   5.882
 3445POPC   C1A45663  18.481   3.252   6.095
 3445POPC   D2A45664  18.479   3.569   6.442
 3445POPC   C3A45665  18.557   3.452   6.853
 3445POPC   C4A45666  18.381   3.717   7.139
 3445POPC   C1B45667  18.108   3.576   6.111
 3445POPC   C2B45668  18.046   3.289   6.471
 3445POPC   C3B45669  18.020   3.371   6.922
 3445POPC   C4B45670  17.867   3.123   7.260
 3446POPC   NC345671   7.116  42.161   5.465
 3446POPC   PO445672   7.734  42.360   5.371
 3446POPC   GL145673   7.644  42.510   5.754
 3446POPC   GL245674   7.298  42.485   5.824
 3446POPC   C1A45675   7.644  42.593   6.195
 3446POPC   D2A45676   7.630  42.307   6.529
 3446POPC   C3A45677   7.629  42.497   6.890
 3446POPC   C4A45678   7.610  42.405   7.279
 3446POPC   C1B45679   7.368  42.121   6.120
 3446POPC   C2B45680   7.214  42.001   6.554
 3446POPC   C3B45681   7.329  42.083   6.978
 3446POPC   C4B45682   7.167  42.196   7.394
 3447POPC   NC345683   7.251   0.625   5.357
 3447POPC   PO445684   7.880   0.529   5.529
 3447POPC   GL145685   7.506   0.504   5.784
 3447POPC   GL245686   7.296   0.823   5.812
 3447POPC   C1A45687   7.391   0.446   6.196
 3447POPC   D2A45688   7.635   0.495   6.556
 3447POPC   C3A45689   7.467   0.257   6.863
 3447POPC   C4A45690   7.559   0.147   7.249
 3447POPC   C1B45691   7.621   0.908   6.128
 3447POPC   C2B45692   7.838   0.975   6.518
 3447POPC   C3B45693   7.719   0.854   6.920
 3447POPC   C4B45694   7.411   0.682   7.188
 3448POPC   NC345695  33.352  26.972   5.485
 3448POPC   PO445696  32.814  26.590   5.408
 3448POPC   GL145697  32.921  26.890   5.772
 3448POPC   GL245698  33.207  27.109   5.940
 3448POPC   C1A45699  32.748  27.002   6.159
 3448POPC   D2A45700  32.789  26.804   6.527
 3448POPC   C3A45701  32.750  26.912   6.921
 3448POPC   C4A45702  32.942  26.985   7.303
 3448POPC   C1B45703  33.233  26.957   6.341
 3448POPC   C2B45704  33.186  27.127   6.747
 3448POPC   C3B45705  33.414  27.037   7.115
 3448POPC   C4B45706  33.383  26.783   7.479
 3449POPC   NC345707  26.784   6.229   5.497
 3449POPC   PO445708  26.746   6.865   5.258
 3449POPC   GL145709  26.737   6.762   5.694
 3449POPC   GL245710  27.020   6.642   5.725
 3449POPC   C1A45711  26.528   6.872   6.100
 3449POPC   D2A45712  26.512   6.666   6.479
 3449POPC   C3A45713  26.466   6.916   6.839
 3449POPC   C4A45714  26.597   6.798   7.231
 3449POPC   C1B45715  26.859   6.477   6.123
 3449POPC   C2B45716  27.012   6.486   6.526
 3449POPC   C3B45717  26.983   6.625   6.929
 3449POPC   C4B45718  27.274   6.537   7.250
 3450POPC   NC345719  19.918  31.091   5.549
 3450POPC   PO445720  20.092  30.472   5.561
 3450POPC   GL145721  19.946  30.493   5.977
 3450POPC   GL245722  19.756  30.773   5.937
 3450POPC   C1A45723  19.687  30.499   6.384
 3450POPC   D2A45724  19.754  30.756   6.776
 3450POPC   C3A45725  19.855  30.598   7.218
 3450POPC   C4A45726  20.090  30.728   7.564
 3450POPC   C1B45727  19.596  31.006   6.306
 3450POPC   C2B45728  19.493  31.204   6.731
 3450POPC   C3B45729  19.699  31.128   7.143
 3450POPC   C4B45730  19.644  30.972   7.569
 3451POPC   NC345731  30.206  32.913   5.331
 3451POPC   PO445732  30.883  33.025   5.340
 3451POPC   GL145733  30.770  33.125   5.793
 3451POPC   GL245734  30.400  33.152   5.778
 3451POPC   C1A45735  30.850  33.192   6.231
 3451POPC   D2A45736  30.895  32.946   6.609
 3451POPC   C3A45737  30.733  33.175   6.934
 3451POPC   C4A45738  30.830  33.388   7.260
 3451POPC   C1B45739  30.399  32.934   6.157
 3451POPC   C2B45740  30.369  33.095   6.569
 3451POPC   C3B45741  30.363  32.831   6.931
 3451POPC   C4B45742  30.583  32.854   7.335
 3452POPC   NC345743  24.913  40.456   5.419
 3452POPC   PO445744  25.552  40.476   5.415
 3452POPC   GL145745  25.489  40.656   5.845
 3452POPC   GL245746  25.118  40.745   5.852
 3452POPC   C1A45747  25.471  40.698   6.331
 3452POPC   D2A45748  25.231  40.706   6.748
 3452POPC   C3A45749  25.424  40.618   7.165
 3452POPC   C4A45750  25.211  40.369   7.531
 3452POPC   C1B45751  25.048  40.947   6.265
 3452POPC   C2B45752  25.001  41.159   6.681
 3452POPC   C3B45753  25.167  41.138   7.111
 3452POPC   C4B45754  25.185  41.411   7.482
 3453POPC   NC345755  19.389  43.416   5.402
 3453POPC   PO445756  20.019  43.182   5.363
 3453POPC   GL145757  19.831  43.246   5.806
 3453POPC   GL245758  19.495  43.425   5.912
 3453POPC   C1A45759  19.880  43.213   6.278
 3453POPC   D2A45760  20.136  43.220   6.666
 3453POPC   C3A45761  19.911  43.169   7.051
 3453POPC   C4A45762  20.023  43.286   7.494
 3453POPC   C1B45763  19.382  43.224   6.262
 3453POPC   C2B45764  19.500  43.248   6.697
 3453POPC   C3B45765  19.367  43.286   7.116
 3453POPC   C4B45766  19.567  43.023   7.396
 3454POPC   NC345767  39.756  27.856   5.451
 3454POPC   PO445768  40.246  27.361   5.430
 3454POPC   GL145769  40.094  27.339   5.844
 3454POPC   GL245770  39.871  27.631   5.894
 3454POPC   C1A45771  40.004  27.306   6.276
 3454POPC   D2A45772  40.132  27.630   6.511
 3454POPC   C3A45773  40.196  27.586   6.932
 3454POPC   C4A45774  40.372  27.906   7.187
 3454POPC   C1B45775  39.660  27.713   6.278
 3454POPC   C2B45776  39.645  27.545   6.661
 3454POPC   C3B45777  39.707  27.526   7.064
 3454POPC   C4B45778  39.584  27.446   7.465
 3455POPC   NC345779  23.295  34.777   5.333
 3455POPC   PO445780  22.697  34.408   5.338
 3455POPC   GL145781  22.866  34.558   5.750
 3455POPC   GL245782  23.091  34.850   5.793
 3455POPC   C1A45783  22.802  34.638   6.200
 3455POPC   D2A45784  22.512  34.615   6.564
 3455POPC   C3A45785  22.709  34.616   6.977
 3455POPC   C4A45786  22.583  34.710   7.398
 3455POPC   C1B45787  23.276  34.843   6.211
 3455POPC   C2B45788  23.093  34.829   6.648
 3455POPC   C3B45789  23.371  34.958   7.028
 3455POPC   C4B45790  23.346  34.947   7.490
 3456POPC   NC345791   5.086  10.065   5.566
 3456POPC   PO445792   4.725   9.452   5.435
 3456POPC   GL145793   4.927   9.633   5.786
 3456POPC   GL245794   4.843   9.393   5.998
 3456POPC   C1A45795   5.137   9.768   6.186
 3456POPC   D2A45796   5.231   9.579   6.597
 3456POPC   C3A45797   5.146   9.867   6.962
 3456POPC   C4A45798   5.232  10.038   7.402
 3456POPC   C1B45799   4.666   9.663   6.328
 3456POPC   C2B45800   4.657   9.518   6.738
 3456POPC   C3B45801   4.836   9.509   7.134
 3456POPC   C4B45802   4.750   9.910   7.318
 3457POPC   NC345803  42.364  18.032   5.455
 3457POPC   PO445804  42.334  18.621   5.656
 3457POPC   GL145805  42.365  18.267   5.923
 3457POPC   GL245806  42.079  18.160   5.862
 3457POPC   C1A45807  42.299  18.340   6.345
 3457POPC   D2A45808  42.470  18.636   6.613
 3457POPC   C3A45809  42.358  18.461   6.986
 3457POPC   C4A45810  42.515  18.383   7.360
 3457POPC   C1B45811  42.004  17.937   6.237
 3457POPC   C2B45812  42.206  17.895   6.648
 3457POPC   C3B45813  42.074  18.026   7.058
 3457POPC   C4B45814  42.252  17.970   7.501
 3458POPC   NC345815  44.563  11.532   5.462
 3458POPC   PO445816  44.815  10.920   5.532
 3458POPC   GL145817  44.898  11.114   5.861
 3458POPC   GL245818  44.558  11.245   5.873
 3458POPC   C1A45819  44.877  11.261   6.261
 3458POPC   D2A45820  44.740  11.103   6.631
 3458POPC   C3A45821  44.929  11.172   7.003
 3458POPC   C4A45822  44.679  10.933   7.267
 3458POPC   C1B45823  44.349  11.383   6.242
 3458POPC   C2B45824  44.244  11.206   6.626
 3458POPC   C3B45825  44.251  11.522   6.931
 3458POPC   C4B45826  44.609  11.514   7.210
 3459POPC   NC345827  43.706   9.323   5.377
 3459POPC   PO445828  44.051   8.656   5.362
 3459POPC   GL145829  43.983   8.958   5.691
 3459POPC   GL245830  43.653   8.930   5.696
 3459POPC   C1A45831  44.000   9.099   6.135
 3459POPC   D2A45832  44.027   9.179   6.588
 3459POPC   C3A45833  43.960   8.935   6.972
 3459POPC   C4A45834  44.275   8.817   7.255
 3459POPC   C1B45835  43.484   9.068   6.072
 3459POPC   C2B45836  43.547   9.066   6.485
 3459POPC   C3B45837  43.573   9.257   6.868
 3459POPC   C4B45838  43.552   9.057   7.286
 3460POPC   NC345839  17.766  40.936   5.071
 3460POPC   PO445840  17.263  40.525   5.251
 3460POPC   GL145841  17.287  40.501   5.726
 3460POPC   GL245842  17.634  40.466   5.893
 3460POPC   C1A45843  17.259  40.657   6.164
 3460POPC   D2A45844  17.257  40.450   6.551
 3460POPC   C3A45845  17.345  40.646   6.960
 3460POPC   C4A45846  17.344  41.092   7.098
 3460POPC   C1B45847  17.746  40.838   6.197
 3460POPC   C2B45848  18.005  40.967   6.595
 3460POPC   C3B45849  17.940  41.067   7.043
 3460POPC   C4B45850  17.697  40.785   7.320
 3461POPC   NC345851  39.406   0.061   5.465
 3461POPC   PO445852  39.026  44.365   5.404
 3461POPC   GL145853  39.171  44.645   5.745
 3461POPC   GL245854  38.983  44.953   5.836
 3461POPC   C1A45855  39.255  44.519   6.179
 3461POPC   D2A45856  39.006  44.603   6.564
 3461POPC   C3A45857  39.215  44.577   6.969
 3461POPC   C4A45858  39.619  44.488   7.190
 3461POPC   C1B45859  39.144   0.001   6.283
 3461POPC   C2B45860  39.466  44.828   6.576
 3461POPC   C3B45861  39.566  44.957   6.997
 3461POPC   C4B45862  39.427   0.113   7.406
 3462POPC   NC345863  38.984  25.057   5.397
 3462POPC   PO445864  38.351  25.275   5.328
 3462POPC   GL145865  38.374  25.311   5.761
 3462POPC   GL245866  38.681  25.133   5.791
 3462POPC   C1A45867  38.474  25.516   6.175
 3462POPC   D2A45868  38.269  25.601   6.581
 3462POPC   C3A45869  38.387  25.392   6.965
 3462POPC   C4A45870  38.143  25.180   7.257
 3462POPC   C1B45871  38.634  25.010   6.210
 3462POPC   C2B45872  38.724  25.133   6.617
 3462POPC   C3B45873  38.687  24.913   6.986
 3462POPC   C4B45874  38.609  24.952   7.386
 3463POPC   NC345875  13.910  37.828   5.557
 3463POPC   PO445876  13.379  37.462   5.448
 3463POPC   GL145877  13.572  37.583   5.849
 3463POPC   GL245878  13.860  37.357   5.821
 3463POPC   C1A45879  13.809  37.824   6.204
 3463POPC   D2A45880  14.116  37.885   6.554
 3463POPC   C3A45881  13.869  37.903   6.953
 3463POPC   C4A45882  13.437  37.873   7.177
 3463POPC   C1B45883  13.733  37.297   6.234
 3463POPC   C2B45884  13.745  37.508   6.627
 3463POPC   C3B45885  13.863  37.402   7.042
 3463POPC   C4B45886  13.626  37.430   7.413
 3464POPC   NC345887   0.006  27.789   5.190
 3464POPC   PO445888   0.520  27.505   5.550
 3464POPC   GL145889   0.527  27.710   5.902
 3464POPC   GL245890   0.535  28.070   5.810
 3464POPC   C1A45891   0.649  27.512   6.282
 3464POPC   D2A45892   0.505  27.358   6.663
 3464POPC   C3A45893   0.589  27.533   7.079
 3464POPC   C4A45894   0.472  27.454   7.502
 3464POPC   C1B45895   0.671  28.041   6.253
 3464POPC   C2B45896   0.533  28.083   6.665
 3464POPC   C3B45897   0.479  28.065   7.100
 3464POPC   C4B45898   0.158  27.865   7.320
 3465POPC   NC345899  36.067  43.933   5.155
 3465POPC   PO445900  35.874  43.480   5.637
 3465POPC   GL145901  36.090  43.806   5.875
 3465POPC   GL245902  36.195  44.107   5.718
 3465POPC   C1A45903  36.191  43.821   6.291
 3465POPC   D2A45904  35.999  43.662   6.676
 3465POPC   C3A45905  36.230  43.709   7.054
 3465POPC   C4A45906  36.188  43.558   7.489
 3465POPC   C1B45907  35.925  44.269   6.092
 3465POPC   C2B45908  35.845  44.133   6.541
 3465POPC   C3B45909  35.942  44.148   7.005
 3465POPC   C4B45910  36.276  44.169   7.349
 3466POPC   NC345911  20.864   4.393   5.307
 3466POPC   PO445912  20.406   4.068   5.611
 3466POPC   GL145913  20.506   4.444   5.863
 3466POPC   GL245914  20.822   4.589   5.801
 3466POPC   C1A45915  20.483   4.448   6.318
 3466POPC   D2A45916  20.191   4.453   6.639
 3466POPC   C3A45917  20.327   4.633   7.015
 3466POPC   C4A45918  20.272   4.245   7.228
 3466POPC   C1B45919  20.908   4.253   6.102
 3466POPC   C2B45920  20.935   4.213   6.545
 3466POPC   C3B45921  20.714   4.314   6.912
 3466POPC   C4B45922  20.743   4.149   7.336
 3467POPC   NC345923  19.573  17.634   5.516
 3467POPC   PO445924  19.793  16.992   5.434
 3467POPC   GL145925  19.866  17.285   5.805
 3467POPC   GL245926  20.076  17.602   5.727
 3467POPC   C1A45927  19.758  17.532   6.208
 3467POPC   D2A45928  19.608  17.682   6.641
 3467POPC   C3A45929  19.831  17.559   7.031
 3467POPC   C4A45930  19.648  17.227   7.295
 3467POPC   C1B45931  20.124  17.884   6.109
 3467POPC   C2B45932  20.122  17.753   6.557
 3467POPC   C3B45933  20.146  17.986   6.959
 3467POPC   C4B45934  20.172  17.880   7.403
 3468POPC   NC345935  31.038  24.573   5.480
 3468POPC   PO445936  30.423  24.227   5.400
 3468POPC   GL145937  30.544  24.469   5.765
 3468POPC   GL245938  30.467  24.835   5.733
 3468POPC   C1A45939  30.816  24.447   6.145
 3468POPC   D2A45940  30.998  24.664   6.500
 3468POPC   C3A45941  30.911  24.538   6.914
 3468POPC   C4A45942  31.093  24.699   7.292
 3468POPC   C1B45943  30.362  24.779   6.164
 3468POPC   C2B45944  30.465  24.528   6.523
 3468POPC   C3B45945  30.387  24.564   6.941
 3468POPC   C4B45946  30.573  24.513   7.328
 3469POPC   NC345947   4.709  16.408   5.397
 3469POPC   PO445948   4.303  16.997   5.474
 3469POPC   GL145949   4.381  16.737   5.779
 3469POPC   GL245950   4.720  16.784   5.774
 3469POPC   C1A45951   4.279  16.774   6.192
 3469POPC   D2A45952   4.207  16.599   6.587
 3469POPC   C3A45953   4.219  16.852   6.944
 3469POPC   C4A45954   4.361  16.745   7.350
 3469POPC   C1B45955   4.767  16.958   6.191
 3469POPC   C2B45956   4.555  16.992   6.585
 3469POPC   C3B45957   4.703  16.955   7.002
 3469POPC   C4B45958   4.827  16.946   7.446
 3470POPC   NC345959   2.179  20.398   5.360
 3470POPC   PO445960   1.634  20.737   5.553
 3470POPC   GL145961   1.882  20.577   5.863
 3470POPC   GL245962   2.158  20.735   5.765
 3470POPC   C1A45963   1.916  20.470   6.335
 3470POPC   D2A45964   1.811  20.488   6.798
 3470POPC   C3A45965   2.087  20.431   7.181
 3470POPC   C4A45966   2.256  20.639   7.555
 3470POPC   C1B45967   2.126  20.918   6.181
 3470POPC   C2B45968   2.220  20.801   6.609
 3470POPC   C3B45969   2.039  20.915   6.993
 3470POPC   C4B45970   2.077  21.283   7.161
 3471POPC   NC345971   4.109  32.297   5.684
 3471POPC   PO445972   3.481  32.207   5.469
 3471POPC   GL145973   3.587  32.135   5.864
 3471POPC   GL245974   3.705  31.806   5.831
 3471POPC   C1A45975   3.691  32.200   6.305
 3471POPC   D2A45976   3.467  32.333   6.673
 3471POPC   C3A45977   3.770  32.456   6.957
 3471POPC   C4A45978   3.903  32.681   7.287
 3471POPC   C1B45979   3.423  31.734   6.167
 3471POPC   C2B45980   3.428  31.824   6.573
 3471POPC   C3B45981   3.811  31.966   6.792
 3471POPC   C4B45982   3.684  32.029   7.203
 3472POPC   NC345983  40.099  18.294   5.117
 3472POPC   PO445984  39.517  18.436   5.539
 3472POPC   GL145985  39.925  18.238   5.768
 3472POPC   GL245986  40.190  18.429   5.955
 3472POPC   C1A45987  40.006  18.012   6.168
 3472POPC   D2A45988  40.018  18.203   6.592
 3472POPC   C3A45989  39.867  18.007   6.975
 3472POPC   C4A45990  40.156  17.884   7.285
 3472POPC   C1B45991  39.782  18.484   6.190
 3472POPC   C2B45992  39.672  18.592   6.620
 3472POPC   C3B45993  39.928  18.556   7.011
 3472POPC   C4B45994  39.997  18.458   7.463
 3473POPC   NC345995  37.261  29.801   5.443
 3473POPC   PO445996  36.625  29.711   5.223
 3473POPC   GL145997  36.845  29.814   5.716
 3473POPC   GL245998  36.993  30.168   5.732
 3473POPC   C1A45999  36.762  29.872   6.213
 3473POPC   D2A46000  36.813  30.129   6.589
 3473POPC   C3A46001  37.017  29.957   6.953
 3473POPC   C4A46002  36.709  29.958   7.257
 3473POPC   C1B46003  37.221  30.091   6.129
 3473POPC   C2B46004  37.285  30.300   6.538
 3473POPC   C3B46005  37.295  30.387   6.973
 3473POPC   C4B46006  37.112  30.245   7.358
 3474POPC   NC346007  29.154  31.799   5.445
 3474POPC   PO446008  29.157  32.474   5.329
 3474POPC   GL146009  29.076  32.271   5.714
 3474POPC   GL246010  28.952  32.581   5.834
 3474POPC   C1A46011  29.176  31.987   6.084
 3474POPC   D2A46012  29.398  31.843   6.453
 3474POPC   C3A46013  29.140  31.843   6.811
 3474POPC   C4A46014  29.211  32.111   7.169
 3474POPC   C1B46015  29.168  32.494   6.227
 3474POPC   C2B46016  29.288  32.336   6.650
 3474POPC   C3B46017  29.142  32.601   6.964
 3474POPC   C4B46018  29.041  32.564   7.367
 3475POPC   NC346019  37.873  35.029   5.651
 3475POPC   PO446020  37.793  34.456   5.309
 3475POPC   GL146021  37.598  34.471   5.715
 3475POPC   GL246022  37.820  34.237   5.782
 3475POPC   C1A46023  37.638  34.552   6.183
 3475POPC   D2A46024  37.685  34.348   6.594
 3475POPC   C3A46025  37.541  34.563   6.997
 3475POPC   C4A46026  37.562  34.572   7.471
 3475POPC   C1B46027  37.883  34.080   6.175
 3475POPC   C2B46028  38.171  34.211   6.479
 3475POPC   C3B46029  38.123  34.441   6.814
 3475POPC   C4B46030  37.909  34.263   7.139
 3476POPC   NC346031  38.030  18.560   5.525
 3476POPC   PO446032  37.580  18.065   5.430
 3476POPC   GL146033  37.650  18.294   5.797
 3476POPC   GL246034  37.375  18.520   5.893
 3476POPC   C1A46035  37.845  18.063   6.135
 3476POPC   D2A46036  37.953  18.183   6.537
 3476POPC   C3A46037  37.684  18.236   6.891
 3476POPC   C4A46038  37.810  18.101   7.324
 3476POPC   C1B46039  37.724  18.575   6.231
 3476POPC   C2B46040  38.082  18.704   6.519
 3476POPC   C3B46041  38.126  18.531   6.897
 3476POPC   C4B46042  37.828  18.638   7.183
 3477POPC   NC346043   5.827   2.455   5.404
 3477POPC   PO446044   6.202   3.051   5.545
 3477POPC   GL146045   6.039   2.733   5.841
 3477POPC   GL246046   5.706   2.531   5.874
 3477POPC   C1A46047   6.001   2.627   6.282
 3477POPC   D2A46048   5.649   2.539   6.569
 3477POPC   C3A46049   5.837   2.494   6.984
 3477POPC   C4A46050   6.108   2.825   7.162
 3477POPC   C1B46051   5.565   2.854   6.117
 3477POPC   C2B46052   5.559   3.039   6.530
 3477POPC   C3B46053   5.625   2.951   6.978
 3477POPC   C4B46054   5.650   2.823   7.435
 3478POPC   NC346055  44.034  16.204   5.540
 3478POPC   PO446056  43.355  16.171   5.494
 3478POPC   GL146057  43.673  15.973   5.828
 3478POPC   GL246058  44.058  15.831   5.903
 3478POPC   C1A46059  43.800  16.130   6.217
 3478POPC   D2A46060  44.056  15.995   6.545
 3478POPC   C3A46061  43.903  15.889   6.914
 3478POPC   C4A46062  44.036  16.207   7.199
 3478POPC   C1B46063  44.377  15.742   6.253
 3478POPC   C2B46064  44.408  15.635   6.676
 3478POPC   C3B46065  44.365  15.768   7.100
 3478POPC   C4B46066  44.032  15.685   7.375
 3479POPC   NC346067  15.979  10.964   5.415
 3479POPC   PO446068  15.821  11.620   5.453
 3479POPC   GL146069  15.749  11.485   5.889
 3479POPC   GL246070  15.815  11.108   5.950
 3479POPC   C1A46071  15.631  11.582   6.324
 3479POPC   D2A46072  15.650  11.298   6.683
 3479POPC   C3A46073  15.822  11.396   7.102
 3479POPC   C4A46074  15.835  11.710   7.444
 3479POPC   C1B46075  16.039  11.267   6.332
 3479POPC   C2B46076  16.192  11.192   6.781
 3479POPC   C3B46077  16.226  11.092   7.230
 3479POPC   C4B46078  16.053  10.737   7.477
 3480POPC   NC346079  37.068  18.058   5.438
 3480POPC   PO446080  36.890  18.668   5.589
 3480POPC   GL146081  36.908  18.287   5.888
 3480POPC   GL246082  37.204  18.044   5.933
 3480POPC   C1A46083  36.874  18.263   6.342
 3480POPC   D2A46084  36.866  18.580   6.683
 3480POPC   C3A46085  36.980  18.454   7.088
 3480POPC   C4A46086  36.718  18.113   7.219
 3480POPC   C1B46087  37.376  18.180   6.342
 3480POPC   C2B46088  37.214  18.026   6.761
 3480POPC   C3B46089  37.217  17.937   7.213
 3480POPC   C4B46090  37.382  17.965   7.628
 3481POPC   NC346091  36.742  26.634   5.273
 3481POPC   PO446092  37.202  27.006   5.456
 3481POPC   GL146093  36.840  26.900   5.702
 3481POPC   GL246094  36.757  26.524   5.766
 3481POPC   C1A46095  36.662  26.896   6.111
 3481POPC   D2A46096  36.561  27.157   6.435
 3481POPC   C3A46097  36.757  26.993   6.788
 3481POPC   C4A46098  36.653  26.959   7.219
 3481POPC   C1B46099  36.665  26.389   6.175
 3481POPC   C2B46100  36.848  26.537   6.552
 3481POPC   C3B46101  36.666  26.528   6.960
 3481POPC   C4B46102  36.903  26.433   7.307
 3482POPC   NC346103  41.066  20.840   5.025
 3482POPC   PO446104  40.607  20.424   5.286
 3482POPC   GL146105  40.722  20.743   5.659
 3482POPC   GL246106  40.532  20.526   5.868
 3482POPC   C1A46107  40.745  20.896   6.138
 3482POPC   D2A46108  40.625  20.840   6.593
 3482POPC   C3A46109  40.860  20.714   6.928
 3482POPC   C4A46110  40.858  20.791   7.336
 3482POPC   C1B46111  40.618  20.393   6.297
 3482POPC   C2B46112  40.824  20.101   6.566
 3482POPC   C3B46113  41.048  20.139   6.938
 3482POPC   C4B46114  40.797  20.276   7.252
 3483POPC   NC346115  23.566  20.459   5.405
 3483POPC   PO446116  23.803  21.098   5.455
 3483POPC   GL146117  23.789  20.781   5.761
 3483POPC   GL246118  23.423  20.753   5.852
 3483POPC   C1A46119  23.834  20.506   6.134
 3483POPC   D2A46120  23.663  20.480   6.555
 3483POPC   C3A46121  23.785  20.230   6.896
 3483POPC   C4A46122  23.711  20.392   7.284
 3483POPC   C1B46123  23.145  20.866   6.226
 3483POPC   C2B46124  23.046  20.869   6.698
 3483POPC   C3B46125  23.372  20.710   7.000
 3483POPC   C4B46126  23.528  20.844   7.436
 3484POPC   NC346127  33.908   5.668   5.264
 3484POPC   PO446128  33.486   6.160   5.303
 3484POPC   GL146129  33.693   5.942   5.686
 3484POPC   GL246130  34.014   6.110   5.797
 3484POPC   C1A46131  33.598   5.904   6.160
 3484POPC   D2A46132  33.537   6.161   6.561
 3484POPC   C3A46133  33.556   5.932   6.988
 3484POPC   C4A46134  33.525   5.648   7.373
 3484POPC   C1B46135  34.106   5.900   6.171
 3484POPC   C2B46136  33.927   5.819   6.591
 3484POPC   C3B46137  34.062   5.945   6.999
 3484POPC   C4B46138  34.164   5.647   7.252
 3485POPC   NC346139  42.910  28.044   5.478
 3485POPC   PO446140  43.325  28.541   5.427
 3485POPC   GL146141  43.169  28.528   5.866
 3485POPC   GL246142  42.836  28.322   5.901
 3485POPC   C1A46143  43.078  28.550   6.323
 3485POPC   D2A46144  42.980  28.543   6.760
 3485POPC   C3A46145  43.118  28.196   6.996
 3485POPC   C4A46146  43.006  28.234   7.451
 3485POPC   C1B46147  42.835  27.985   6.217
 3485POPC   C2B46148  42.741  28.107   6.640
 3485POPC   C3B46149  42.642  28.199   7.081
 3485POPC   C4B46150  42.656  27.840   7.247
 3486POPC   NC346151  28.380   1.270   5.377
 3486POPC   PO446152  28.866   0.758   5.404
 3486POPC   GL146153  28.625   1.028   5.758
 3486POPC   GL246154  28.265   1.109   5.840
 3486POPC   C1A46155  28.565   1.420   6.101
 3486POPC   D2A46156  28.680   1.664   6.484
 3486POPC   C3A46157  28.580   1.453   6.887
 3486POPC   C4A46158  28.266   1.574   7.218
 3486POPC   C1B46159  28.420   0.933   6.233
 3486POPC   C2B46160  28.530   0.904   6.681
 3486POPC   C3B46161  28.557   0.925   7.163
 3486POPC   C4B46162  28.288   1.122   7.467
 3487POPC   NC346163  31.104  27.668   5.591
 3487POPC   PO446164  31.563  27.191   5.460
 3487POPC   GL146165  31.541  27.484   5.817
 3487POPC   GL246166  31.273  27.410   5.980
 3487POPC   C1A46167  31.637  27.653   6.252
 3487POPC   D2A46168  31.354  27.823   6.579
 3487POPC   C3A46169  31.312  27.630   6.970
 3487POPC   C4A46170  31.578  27.683   7.315
 3487POPC   C1B46171  31.428  27.190   6.304
 3487POPC   C2B46172  31.444  27.212   6.698
 3487POPC   C3B46173  31.511  27.170   7.106
 3487POPC   C4B46174  31.274  27.254   7.461
 3488POPC   NC346175   5.404  10.432   5.280
 3488POPC   PO446176   4.810  10.720   5.502
 3488POPC   GL146177   4.842  10.454   5.815
 3488POPC   GL246178   5.208  10.529   5.792
 3488POPC   C1A46179   4.917  10.229   6.195
 3488POPC   D2A46180   5.208  10.180   6.547
 3488POPC   C3A46181   5.127  10.391   6.974
 3488POPC   C4A46182   5.458  10.485   7.300
 3488POPC   C1B46183   5.210  10.634   6.237
 3488POPC   C2B46184   4.855  10.629   6.546
 3488POPC   C3B46185   4.705  10.847   6.912
 3488POPC   C4B46186   5.092  10.941   7.141
 3489POPC   NC346187  43.341  39.460   5.482
 3489POPC   PO446188  42.837  39.852   5.360
 3489POPC   GL146189  43.097  39.855   5.764
 3489POPC   GL246190  43.435  39.995   5.832
 3489POPC   C1A46191  43.196  39.784   6.230
 3489POPC   D2A46192  43.092  40.016   6.623
 3489POPC   C3A46193  43.112  39.783   7.007
 3489POPC   C4A46194  43.274  39.786   7.431
 3489POPC   C1B46195  43.588  40.116   6.280
 3489POPC   C2B46196  43.505  40.346   6.688
 3489POPC   C3B46197  43.430  40.156   7.108
 3489POPC   C4B46198  43.474  40.233   7.571
 3490POPC   NC346199  43.960  14.000   5.373
 3490POPC   PO446200  43.777  14.623   5.318
 3490POPC   GL146201  43.940  14.485   5.742
 3490POPC   GL246202  44.113  14.178   5.809
 3490POPC   C1A46203  43.823  14.425   6.201
 3490POPC   D2A46204  43.679  14.265   6.620
 3490POPC   C3A46205  43.916  14.234   7.014
 3490POPC   C4A46206  43.949  14.450   7.414
 3490POPC   C1B46207  44.315  14.181   6.180
 3490POPC   C2B46208  44.184  14.296   6.555
 3490POPC   C3B46209  44.376  14.070   6.875
 3490POPC   C4B46210  44.371  14.145   7.305
 3491POPC   NC346211  24.338  18.836   5.498
 3491POPC   PO446212  25.023  18.684   5.552
 3491POPC   GL146213  24.690  18.768   5.862
 3491POPC   GL246214  24.517  19.096   5.901
 3491POPC   C1A46215  24.413  18.725   6.248
 3491POPC   D2A46216  24.305  18.849   6.688
 3491POPC   C3A46217  24.656  18.997   6.965
 3491POPC   C4A46218  24.990  18.783   7.202
 3491POPC   C1B46219  24.098  19.121   6.129
 3491POPC   C2B46220  23.884  19.110   6.527
 3491POPC   C3B46221  23.988  19.304   6.915
 3491POPC   C4B46222  24.356  19.376   7.186
 3492POPC   NC346223   1.927  35.700   5.551
 3492POPC   PO446224   2.261  35.092   5.529
 3492POPC   GL146225   2.125  35.331   5.862
 3492POPC   GL246226   2.364  35.621   5.803
 3492POPC   C1A46227   1.826  35.294   6.200
 3492POPC   D2A46228   1.908  35.438   6.600
 3492POPC   C3A46229   1.752  35.385   6.994
 3492POPC   C4A46230   1.885  35.198   7.368
 3492POPC   C1B46231   2.260  35.687   6.226
 3492POPC   C2B46232   2.429  35.551   6.606
 3492POPC   C3B46233   2.286  35.385   6.978
 3492POPC   C4B46234   2.401  35.386   7.379
 3493POPC   NC346235  40.063  26.908   5.539
 3493POPC   PO446236  40.532  26.407   5.336
 3493POPC   GL146237  40.247  26.347   5.747
 3493POPC   GL246238  39.857  26.384   5.778
 3493POPC   C1A46239  40.139  26.586   6.151
 3493POPC   D2A46240  40.044  26.775   6.547
 3493POPC   C3A46241  39.880  27.107   6.782
 3493POPC   C4A46242  39.972  27.123   7.214
 3493POPC   C1B46243  39.625  26.426   6.177
 3493POPC   C2B46244  39.538  26.565   6.618
 3493POPC   C3B46245  39.810  26.631   6.992
 3493POPC   C4B46246  39.951  26.545   7.411
 3494POPC   NC346247   2.713  37.587   5.348
 3494POPC   PO446248   3.286  37.206   5.461
 3494POPC   GL146249   3.065  37.559   5.741
 3494POPC   GL246250   2.805  37.891   5.753
 3494POPC   C1A46251   2.937  37.651   6.183
 3494POPC   D2A46252   3.065  37.867   6.546
 3494POPC   C3A46253   2.875  37.841   6.929
 3494POPC   C4A46254   3.015  37.695   7.305
 3494POPC   C1B46255   2.551  37.962   6.159
 3494POPC   C2B46256   2.484  37.757   6.583
 3494POPC   C3B46257   2.480  37.535   7.007
 3494POPC   C4B46258   2.689  37.304   7.320
 3495POPC   NC346259  32.134  28.567   5.524
 3495POPC   PO446260  32.251  27.918   5.472
 3495POPC   GL146261  32.374  28.121   5.840
 3495POPC   GL246262  32.033  28.233   5.932
 3495POPC   C1A46263  32.415  28.193   6.296
 3495POPC   D2A46264  32.062  28.185   6.580
 3495POPC   C3A46265  32.135  28.346   6.982
 3495POPC   C4A46266  32.458  28.352   7.272
 3495POPC   C1B46267  31.916  28.565   6.242
 3495POPC   C2B46268  31.922  28.729   6.672
 3495POPC   C3B46269  31.757  28.646   7.111
 3495POPC   C4B46270  32.047  28.590   7.453
 3496POPC   NC346271  23.860  32.377   5.623
 3496POPC   PO446272  23.323  31.965   5.516
 3496POPC   GL146273  23.517  32.125   5.907
 3496POPC   GL246274  23.830  31.953   5.939
 3496POPC   C1A46275  23.787  32.349   6.267
 3496POPC   D2A46276  23.909  32.147   6.679
 3496POPC   C3A46277  23.831  32.342   7.083
 3496POPC   C4A46278  23.826  32.686   7.388
 3496POPC   C1B46279  23.635  31.859   6.329
 3496POPC   C2B46280  23.598  31.733   6.735
 3496POPC   C3B46281  23.687  31.842   7.156
 3496POPC   C4B46282  23.486  31.791   7.572
 3497POPC   NC346283  10.700   8.388   5.290
 3497POPC   PO446284  10.147   8.144   5.208
 3497POPC   GL146285  10.388   8.299   5.671
 3497POPC   GL246286  10.707   8.257   5.782
 3497POPC   C1A46287  10.327   8.362   6.138
 3497POPC   D2A46288  10.347   8.145   6.551
 3497POPC   C3A46289  10.325   8.401   6.937
 3497POPC   C4A46290  10.519   8.291   7.310
 3497POPC   C1B46291  10.769   8.099   6.184
 3497POPC   C2B46292  10.836   8.048   6.593
 3497POPC   C3B46293  10.693   7.957   6.973
 3497POPC   C4B46294  10.916   7.946   7.339
 3498POPC   NC346295  36.804  39.403   5.377
 3498POPC   PO446296  37.317  39.034   5.242
 3498POPC   GL146297  37.035  39.145   5.734
 3498POPC   GL246298  36.681  39.063   5.728
 3498POPC   C1A46299  37.156  39.222   6.171
 3498POPC   D2A46300  36.895  39.245   6.535
 3498POPC   C3A46301  37.005  39.147   6.916
 3498POPC   C4A46302  37.027  39.393   7.234
 3498POPC   C1B46303  36.678  39.003   6.140
 3498POPC   C2B46304  36.405  39.069   6.471
 3498POPC   C3B46305  36.369  39.057   6.893
 3498POPC   C4B46306  36.594  39.126   7.253
 3499POPC   NC346307  43.192  40.172   5.343
 3499POPC   PO446308  43.361  40.839   5.357
 3499POPC   GL146309  43.226  40.814   5.768
 3499POPC   GL246310  43.412  40.499   5.751
 3499POPC   C1A46311  43.005  40.846   6.176
 3499POPC   D2A46312  43.013  40.532   6.514
 3499POPC   C3A46313  43.006  40.761   6.889
 3499POPC   C4A46314  42.906  40.693   7.314
 3499POPC   C1B46315  43.424  40.565   6.177
 3499POPC   C2B46316  43.438  40.842   6.491
 3499POPC   C3B46317  43.522  40.903   6.891
 3499POPC   C4B46318  43.411  40.649   7.208
 3500POPC   NC346319  43.343   7.813   5.476
 3500POPC   PO446320  42.709   7.505   5.481
 3500POPC   GL146321  42.659   7.368   5.872
 3500POPC   GL246322  43.012   7.332   5.920
 3500POPC   C1A46323  42.724   7.333   6.327
 3500POPC   D2A46324  43.016   7.309   6.695
 3500POPC   C3A46325  42.837   7.428   7.079
 3500POPC   C4A46326  42.980   7.561   7.500
 3500POPC   C1B46327  43.231   7.471   6.253
 3500POPC   C2B46328  43.286   7.752   6.593
 3500POPC   C3B46329  43.303   7.642   7.026
 3500POPC   C4B46330  43.475   7.555   7.426
 3501POPC   NC346331  14.518  43.729   5.569
 3501POPC   PO446332  13.886  43.882   5.507
 3501POPC   GL146333  14.121  43.838   5.925
 3501POPC   GL246334  14.378  44.104   5.917
 3501POPC   C1A46335  14.170  43.621   6.358
 3501POPC   D2A46336  14.450  43.771   6.729
 3501POPC   C3A46337  14.473  43.616   7.130
 3501POPC   C4A46338  14.118  43.603   7.451
 3501POPC   C1B46339  14.674  44.311   6.210
 3501POPC   C2B46340  14.693  44.254   6.659
 3501POPC   C3B46341  14.425  44.208   7.062
 3501POPC   C4B46342  14.330  44.477   7.474
 3502POPC   NC346343  16.246  20.236   5.382
 3502POPC   PO446344  16.231  20.924   5.196
 3502POPC   GL146345  16.108  20.743   5.636
 3502POPC   GL246346  15.808  20.561   5.721
 3502POPC   C1A46347  16.204  20.533   6.059
 3502POPC   D2A46348  16.232  20.522   6.539
 3502POPC   C3A46349  16.096  20.597   6.990
 3502POPC   C4A46350  16.207  20.234   7.286
 3502POPC   C1B46351  15.706  20.561   6.180
 3502POPC   C2B46352  15.738  20.727   6.611
 3502POPC   C3B46353  15.574  20.612   6.996
 3502POPC   C4B46354  15.758  20.465   7.370
 3503POPC   NC346355  40.754  25.537   5.262
 3503POPC   PO446356  40.910  24.901   5.157
 3503POPC   GL146357  40.838  25.174   5.603
 3503POPC   GL246358  40.642  25.492   5.736
 3503POPC   C1A46359  40.948  25.296   6.058
 3503POPC   D2A46360  41.126  25.253   6.462
 3503POPC   C3A46361  40.900  25.102   6.809
 3503POPC   C4A46362  41.082  25.247   7.207
 3503POPC   C1B46363  40.570  25.665   6.139
 3503POPC   C2B46364  40.574  25.489   6.542
 3503POPC   C3B46365  40.749  25.562   6.938
 3503POPC   C4B46366  40.587  25.418   7.297
 3504POPC   NC346367  38.385   9.340   5.016
 3504POPC   PO446368  38.182   9.051   5.554
 3504POPC   GL146369  38.409   9.075   5.908
 3504POPC   GL246370  38.741   9.007   5.801
 3504POPC   C1A46371  38.367   9.163   6.332
 3504POPC   D2A46372  38.527   8.925   6.666
 3504POPC   C3A46373  38.258   9.007   7.005
 3504POPC   C4A46374  38.480   9.022   7.371
 3504POPC   C1B46375  38.855   8.988   6.237
 3504POPC   C2B46376  39.061   8.978   6.650
 3504POPC   C3B46377  38.899   8.926   7.065
 3504POPC   C4B46378  38.978   9.030   7.502
 3505POPC   NC346379  37.582  21.411   5.393
 3505POPC   PO446380  37.962  20.901   5.615
 3505POPC   GL146381  37.939  21.360   5.782
 3505POPC   GL246382  37.648  21.610   5.853
 3505POPC   C1A46383  37.969  21.475   6.225
 3505POPC   D2A46384  38.088  21.257   6.590
 3505POPC   C3A46385  37.897  21.386   6.963
 3505POPC   C4A46386  37.914  21.164   7.379
 3505POPC   C1B46387  37.452  21.385   6.177
 3505POPC   C2B46388  37.548  21.228   6.598
 3505POPC   C3B46389  37.403  21.213   6.986
 3505POPC   C4B46390  37.530  21.520   7.269
 3506POPC   NC346391  24.269  16.460   5.429
 3506POPC   PO446392  24.665  16.967   5.369
 3506POPC   GL146393  24.474  16.873   5.788
 3506POPC   GL246394  24.232  16.607   5.900
 3506POPC   C1A46395  24.642  16.626   6.172
 3506POPC   D2A46396  24.624  16.438   6.571
 3506POPC   C3A46397  24.760  16.731   6.891
 3506POPC   C4A46398  24.750  16.584   7.293
 3506POPC   C1B46399  24.202  16.906   6.227
 3506POPC   C2B46400  24.294  16.810   6.636
 3506POPC   C3B46401  24.291  16.624   7.037
 3506POPC   C4B46402  24.274  16.819   7.417
 3507POPC   NC346403  43.066  24.747   5.274
 3507POPC   PO446404  42.907  24.075   5.313
 3507POPC   GL146405  43.044  24.410   5.666
 3507POPC   GL246406  42.818  24.644   5.841
 3507POPC   C1A46407  43.172  24.410   6.125
 3507POPC   D2A46408  43.140  24.593   6.546
 3507POPC   C3A46409  43.419  24.532   6.893
 3507POPC   C4A46410  43.197  24.279   7.174
 3507POPC   C1B46411  42.692  24.661   6.300
 3507POPC   C2B46412  42.701  24.852   6.741
 3507POPC   C3B46413  42.722  24.765   7.201
 3507POPC   C4B46414  42.783  24.601   7.676
 3508POPC   NC346415  31.319  33.096   5.495
 3508POPC   PO446416  31.938  32.828   5.624
 3508POPC   GL146417  31.634  33.093   5.909
 3508POPC   GL246418  31.618  33.466   5.808
 3508POPC   C1A46419  31.317  32.931   6.261
 3508POPC   D2A46420  31.378  32.614   6.622
 3508POPC   C3A46421  31.476  32.764   7.057
 3508POPC   C4A46422  31.075  32.839   7.217
 3508POPC   C1B46423  31.323  33.445   6.188
 3508POPC   C2B46424  31.122  33.463   6.596
 3508POPC   C3B46425  31.249  33.240   6.962
 3508POPC   C4B46426  31.622  33.231   7.249
 3509POPC   NC346427  27.826  22.583   5.503
 3509POPC   PO446428  27.569  23.172   5.423
 3509POPC   GL146429  27.484  22.964   5.836
 3509POPC   GL246430  27.200  23.171   5.865
 3509POPC   C1A46431  27.660  22.802   6.278
 3509POPC   D2A46432  27.630  22.498   6.672
 3509POPC   C3A46433  27.712  22.589   7.150
 3509POPC   C4A46434  27.981  22.574   7.558
 3509POPC   C1B46435  27.319  23.178   6.271
 3509POPC   C2B46436  27.577  23.254   6.613
 3509POPC   C3B46437  27.465  23.000   6.949
 3509POPC   C4B46438  27.264  22.974   7.318
 3510POPC   NC346439  43.762  11.666   5.285
 3510POPC   PO446440  44.230  11.177   5.466
 3510POPC   GL146441  44.041  11.296   5.825
 3510POPC   GL246442  43.700  11.372   5.766
 3510POPC   C1A46443  43.926  11.091   6.225
 3510POPC   D2A46444  43.749  11.310   6.599
 3510POPC   C3A46445  43.874  11.148   6.977
 3510POPC   C4A46446  44.217  11.118   7.233
 3510POPC   C1B46447  43.822  11.601   6.181
 3510POPC   C2B46448  43.804  11.837   6.608
 3510POPC   C3B46449  43.741  11.655   7.019
 3510POPC   C4B46450  43.666  11.553   7.452
 3511POPC   NC346451  34.509  12.379   5.381
 3511POPC   PO446452  34.709  13.039   5.402
 3511POPC   GL146453  34.704  12.821   5.785
 3511POPC   GL246454  34.382  12.915   5.905
 3511POPC   C1A46455  34.844  12.995   6.185
 3511POPC   D2A46456  34.672  13.254   6.533
 3511POPC   C3A46457  34.621  13.036   6.903
 3511POPC   C4A46458  34.955  12.929   7.165
 3511POPC   C1B46459  34.381  12.863   6.359
 3511POPC   C2B46460  34.247  12.714   6.738
 3511POPC   C3B46461  34.246  12.741   7.174
 3511POPC   C4B46462  34.212  12.704   7.598
 3512POPC   NC346463  16.577  41.444   5.572
 3512POPC   PO446464  17.284  41.479   5.485
 3512POPC   GL146465  17.002  41.572   5.834
 3512POPC   GL246466  16.746  41.808   5.870
 3512POPC   C1A46467  16.864  41.455   6.239
 3512POPC   D2A46468  17.020  41.340   6.637
 3512POPC   C3A46469  16.729  41.529   6.879
 3512POPC   C4A46470  16.661  41.539   7.285
 3512POPC   C1B46471  16.437  41.885   6.229
 3512POPC   C2B46472  16.348  41.868   6.694
 3512POPC   C3B46473  16.457  41.972   7.128
 3512POPC   C4B46474  16.283  41.785   7.541
 3513POPC   NC346475  32.618   9.856   5.462
 3513POPC   PO446476  32.098   9.443   5.446
 3513POPC   GL146477  32.296   9.604   5.780
 3513POPC   GL246478  32.209   9.936   5.763
 3513POPC   C1A46479  32.155   9.665   6.197
 3513POPC   D2A46480  32.236   9.885   6.557
 3513POPC   C3A46481  32.211   9.633   6.920
 3513POPC   C4A46482  31.908   9.607   7.249
 3513POPC   C1B46483  32.526  10.050   6.097
 3513POPC   C2B46484  32.593  10.265   6.508
 3513POPC   C3B46485  32.506  10.122   6.924
 3513POPC   C4B46486  32.200  10.042   7.233
 3514POPC   NC346487   2.163  10.744   5.378
 3514POPC   PO446488   1.583  10.478   5.218
 3514POPC   GL146489   1.744  10.454   5.631
 3514POPC   GL246490   1.774  10.769   5.752
 3514POPC   C1A46491   1.786  10.375   6.094
 3514POPC   D2A46492   1.913  10.503   6.531
 3514POPC   C3A46493   1.693  10.404   6.951
 3514POPC   C4A46494   1.754  10.287   7.413
 3514POPC   C1B46495   2.092  10.796   6.075
 3514POPC   C2B46496   2.113  10.972   6.487
 3514POPC   C3B46497   2.046  10.802   6.922
 3514POPC   C4B46498   2.193  10.478   7.213
 3515POPC   NC346499  31.357  43.569   5.336
 3515POPC   PO446500  31.597  44.199   5.115
 3515POPC   GL146501  31.487  44.038   5.607
 3515POPC   GL246502  31.296  43.760   5.790
 3515POPC   C1A46503  31.608  43.986   6.100
 3515POPC   D2A46504  31.788  43.898   6.541
 3515POPC   C3A46505  31.590  43.928   6.963
 3515POPC   C4A46506  31.661  43.915   7.440
 3515POPC   C1B46507  31.355  43.525   6.167
 3515POPC   C2B46508  31.292  43.707   6.559
 3515POPC   C3B46509  31.129  43.541   6.899
 3515POPC   C4B46510  31.320  43.591   7.252
 3516POPC   NC346511  30.730  20.472   5.405
 3516POPC   PO446512  30.889  19.820   5.272
 3516POPC   GL146513  30.974  20.081   5.670
 3516POPC   GL246514  30.638  20.142   5.778
 3516POPC   C1A46515  31.045  20.020   6.137
 3516POPC   D2A46516  31.181  20.154   6.577
 3516POPC   C3A46517  30.950  20.024   6.962
 3516POPC   C4A46518  30.675  19.660   7.063
 3516POPC   C1B46519  30.519  20.005   6.201
 3516POPC   C2B46520  30.537  19.987   6.660
 3516POPC   C3B46521  30.413  20.115   7.084
 3516POPC   C4B46522  30.046  20.166   7.302
 3517POPC   NC346523  23.982  12.145   5.416
 3517POPC   PO446524  23.356  11.882   5.354
 3517POPC   GL146525  23.578  11.992   5.731
 3517POPC   GL246526  23.448  11.743   5.965
 3517POPC   C1A46527  23.816  12.155   6.096
 3517POPC   D2A46528  24.055  12.260   6.482
 3517POPC   C3A46529  23.861  12.250   6.904
 3517POPC   C4A46530  24.006  12.242   7.304
 3517POPC   C1B46531  23.725  11.694   6.320
 3517POPC   C2B46532  23.739  11.751   6.766
 3517POPC   C3B46533  23.847  11.759   7.187
 3517POPC   C4B46534  23.955  11.843   7.625
 3518POPC   NC346535  28.125   9.227   5.743
 3518POPC   PO446536  27.636   9.193   5.278
 3518POPC   GL146537  27.586   9.013   5.696
 3518POPC   GL246538  27.208   9.063   5.785
 3518POPC   C1A46539  27.745   8.824   6.098
 3518POPC   D2A46540  27.861   9.119   6.447
 3518POPC   C3A46541  27.637   9.134   6.846
 3518POPC   C4A46542  27.752   8.882   7.186
 3518POPC   C1B46543  27.217   8.821   6.188
 3518POPC   C2B46544  27.456   8.792   6.508
 3518POPC   C3B46545  27.416   8.665   6.876
 3518POPC   C4B46546  27.199   8.907   7.124
 3519POPC   NC346547  34.736  14.078   5.666
 3519POPC   PO446548  34.324  14.442   5.393
 3519POPC   GL146549  34.338  14.377   5.833
 3519POPC   GL246550  34.670  14.558   5.871
 3519POPC   C1A46551  34.468  14.255   6.250
 3519POPC   D2A46552  34.314  14.232   6.644
 3519POPC   C3A46553  34.630  14.222   6.951
 3519POPC   C4A46554  34.656  14.440   7.333
 3519POPC   C1B46555  34.876  14.610   6.284
 3519POPC   C2B46556  34.845  14.648   6.738
 3519POPC   C3B46557  34.887  14.838   7.129
 3519POPC   C4B46558  34.850  14.873   7.567
 3520POPC   NC346559  33.033  38.820   5.491
 3520POPC   PO446560  33.255  38.143   5.315
 3520POPC   GL146561  33.285  38.181   5.780
 3520POPC   GL246562  33.134  38.463   5.836
 3520POPC   C1A46563  33.068  38.097   6.176
 3520POPC   D2A46564  32.778  38.141   6.493
 3520POPC   C3A46565  33.019  38.152   6.863
 3520POPC   C4A46566  33.051  38.479   7.160
 3520POPC   C1B46567  32.912  38.603   6.200
 3520POPC   C2B46568  33.006  38.618   6.617
 3520POPC   C3B46569  33.213  38.945   6.817
 3520POPC   C4B46570  33.434  38.887   7.179
 3521POPC   NC346571   3.331  32.645   5.339
 3521POPC   PO446572   3.690  33.173   5.619
 3521POPC   GL146573   3.349  32.909   5.828
 3521POPC   GL246574   3.217  32.535   5.809
 3521POPC   C1A46575   3.404  32.813   6.270
 3521POPC   D2A46576   3.779  32.742   6.526
 3521POPC   C3A46577   3.729  32.958   6.911
 3521POPC   C4A46578   3.836  33.197   7.268
 3521POPC   C1B46579   3.219  32.359   6.189
 3521POPC   C2B46580   2.996  32.489   6.535
 3521POPC   C3B46581   3.089  32.516   6.995
 3521POPC   C4B46582   3.249  32.902   7.182
 3522POPC   NC346583  37.896  25.371   5.358
 3522POPC   PO446584  37.152  25.450   5.387
 3522POPC   GL146585  37.547  25.252   5.710
 3522POPC   GL246586  37.860  25.430   5.851
 3522POPC   C1A46587  37.621  25.084   6.176
 3522POPC   D2A46588  37.809  25.134   6.631
 3522POPC   C3A46589  37.631  25.055   7.083
 3522POPC   C4A46590  37.763  24.944   7.534
 3522POPC   C1B46591  37.807  25.605   6.252
 3522POPC   C2B46592  37.616  25.597   6.645
 3522POPC   C3B46593  37.841  25.527   7.011
 3522POPC   C4B46594  37.721  25.442   7.447
 3523POPC   NC346595  37.283  38.760   5.605
 3523POPC   PO446596  37.796  38.377   5.421
 3523POPC   GL146597  37.675  38.512   5.840
 3523POPC   GL246598  37.758  38.856   5.854
 3523POPC   C1A46599  37.766  38.355   6.271
 3523POPC   D2A46600  37.533  38.285   6.664
 3523POPC   C3A46601  37.658  38.373   7.085
 3523POPC   C4A46602  37.452  38.340   7.495
 3523POPC   C1B46603  37.652  38.868   6.286
 3523POPC   C2B46604  37.894  38.714   6.636
 3523POPC   C3B46605  38.003  38.769   7.061
 3523POPC   C4B46606  37.776  38.735   7.483
 3524POPC   NC346607  27.307  32.027   5.604
 3524POPC   PO446608  26.720  32.364   5.370
 3524POPC   GL146609  26.715  32.264   5.782
 3524POPC   GL246610  26.774  31.912   5.765
 3524POPC   C1A46611  26.939  32.318   6.174
 3524POPC   D2A46612  26.947  32.517   6.589
 3524POPC   C3A46613  26.605  32.608   6.883
 3524POPC   C4A46614  26.849  32.419   7.216
 3524POPC   C1B46615  26.596  31.942   6.177
 3524POPC   C2B46616  26.532  32.228   6.507
 3524POPC   C3B46617  26.584  32.101   6.915
 3524POPC   C4B46618  26.606  31.901   7.285
 3525POPC   NC346619  17.038  20.144   5.569
 3525POPC   PO446620  16.538  19.879   5.283
 3525POPC   GL146621  16.695  19.834   5.743
 3525POPC   GL246622  16.960  19.619   5.752
 3525POPC   C1A46623  16.815  20.031   6.172
 3525POPC   D2A46624  16.689  20.238   6.565
 3525POPC   C3A46625  16.835  20.060   6.959
 3525POPC   C4A46626  16.668  19.931   7.338
 3525POPC   C1B46627  16.821  19.519   6.180
 3525POPC   C2B46628  16.934  19.369   6.592
 3525POPC   C3B46629  16.842  19.554   6.972
 3525POPC   C4B46630  16.524  19.445   7.226
 3526POPC   NC346631  25.044  26.116   5.340
 3526POPC   PO446632  24.425  26.154   5.391
 3526POPC   GL146633  24.387  26.000   5.792
 3526POPC   GL246634  24.068  26.031   5.988
 3526POPC   C1A46635  24.605  25.863   6.134
 3526POPC   D2A46636  24.377  25.772   6.488
 3526POPC   C3A46637  24.271  26.079   6.831
 3526POPC   C4A46638  24.170  25.888   7.221
 3526POPC   C1B46639  24.338  26.249   6.294
 3526POPC   C2B46640  24.713  26.144   6.577
 3526POPC   C3B46641  24.714  26.263   7.010
 3526POPC   C4B46642  24.576  26.105   7.391
 3527POPC   NC346643   3.050   2.938   5.382
 3527POPC   PO446644   2.489   2.671   5.279
 3527POPC   GL146645   2.748   2.636   5.693
 3527POPC   GL246646   2.598   2.388   5.876
 3527POPC   C1A46647   2.898   2.777   6.128
 3527POPC   D2A46648   2.724   2.846   6.579
 3527POPC   C3A46649   2.898   2.801   7.020
 3527POPC   C4A46650   3.191   3.083   7.308
 3527POPC   C1B46651   2.661   2.389   6.335
 3527POPC   C2B46652   2.727   2.360   6.762
 3527POPC   C3B46653   2.435   2.424   7.075
 3527POPC   C4B46654   2.529   2.660   7.393
 3528POPC   NC346655  39.030  18.584   5.515
 3528POPC   PO446656  39.071  17.911   5.449
 3528POPC   GL146657  39.117  18.200   5.842
 3528POPC   GL246658  38.833  18.473   5.961
 3528POPC   C1A46659  39.262  18.417   6.252
 3528POPC   D2A46660  39.149  18.470   6.699
 3528POPC   C3A46661  39.443  18.341   7.024
 3528POPC   C4A46662  39.476  18.523   7.430
 3528POPC   C1B46663  38.820  18.151   6.262
 3528POPC   C2B46664  38.948  18.007   6.658
 3528POPC   C3B46665  38.855  18.157   7.064
 3528POPC   C4B46666  39.013  18.541   7.228
 3529POPC   NC346667  26.321   7.867   5.283
 3529POPC   PO446668  26.088   7.211   5.357
 3529POPC   GL146669  26.043   7.513   5.686
 3529POPC   GL246670  26.371   7.620   5.771
 3529POPC   C1A46671  25.885   7.679   6.096
 3529POPC   D2A46672  26.012   7.648   6.524
 3529POPC   C3A46673  25.715   7.590   6.840
 3529POPC   C4A46674  25.869   7.558   7.212
 3529POPC   C1B46675  26.273   7.349   6.134
 3529POPC   C2B46676  26.438   7.344   6.534
 3529POPC   C3B46677  26.290   7.439   6.935
 3529POPC   C4B46678  26.230   7.155   7.245
 3530POPC   NC346679  43.180  21.071   5.478
 3530POPC   PO446680  42.861  21.703   5.504
 3530POPC   GL146681  43.091  21.517   5.819
 3530POPC   GL246682  42.845  21.225   5.847
 3530POPC   C1A46683  43.295  21.666   6.213
 3530POPC   D2A46684  43.389  21.419   6.578
 3530POPC   C3A46685  43.361  21.596   6.991
 3530POPC   C4A46686  43.361  21.478   7.436
 3530POPC   C1B46687  42.856  21.366   6.275
 3530POPC   C2B46688  42.907  21.307   6.713
 3530POPC   C3B46689  42.837  21.483   7.096
 3530POPC   C4B46690  42.661  21.342   7.446
 3531POPC   NC346691   3.699   0.218   5.497
 3531POPC   PO446692   3.797   0.874   5.301
 3531POPC   GL146693   3.564   0.684   5.683
 3531POPC   GL246694   3.766   0.872   5.846
 3531POPC   C1A46695   3.549   0.516   6.164
 3531POPC   D2A46696   3.544   0.240   6.573
 3531POPC   C3A46697   3.423   0.358   6.995
 3531POPC   C4A46698   3.383   0.122   7.438
 3531POPC   C1B46699   4.064   0.588   6.079
 3531POPC   C2B46700   4.041   0.334   6.479
 3531POPC   C3B46701   3.930   0.413   6.929
 3531POPC   C4B46702   3.761   0.460   7.351
 3532POPC   NC346703  35.427  23.864   5.140
 3532POPC   PO446704  35.089  23.426   5.489
 3532POPC   GL146705  35.210  23.631   5.828
 3532POPC   GL246706  35.405  23.891   5.728
 3532POPC   C1A46707  35.052  23.863   6.159
 3532POPC   D2A46708  35.190  24.021   6.534
 3532POPC   C3A46709  35.031  23.797   6.890
 3532POPC   C4A46710  35.102  23.641   7.292
 3532POPC   C1B46711  35.588  23.899   6.173
 3532POPC   C2B46712  35.791  23.907   6.618
 3532POPC   C3B46713  35.617  23.803   7.047
 3532POPC   C4B46714  35.370  24.075   7.323
 3533POPC   NC346715  15.459  19.618   5.373
 3533POPC   PO446716  14.987  20.080   5.497
 3533POPC   GL146717  15.202  19.839   5.793
 3533POPC   GL246718  15.522  19.767   5.881
 3533POPC   C1A46719  15.055  19.730   6.193
 3533POPC   D2A46720  15.125  19.906   6.539
 3533POPC   C3A46721  14.985  19.751   6.903
 3533POPC   C4A46722  15.078  19.763   7.312
 3533POPC   C1B46723  15.415  20.129   6.166
 3533POPC   C2B46724  15.420  20.335   6.562
 3533POPC   C3B46725  15.344  20.140   6.930
 3533POPC   C4B46726  15.354  20.187   7.321
 3534POPC   NC346727  11.203   5.487   5.169
 3534POPC   PO446728  11.537   6.145   5.259
 3534POPC   GL146729  11.458   6.033   5.680
 3534POPC   GL246730  11.470   6.379   5.738
 3534POPC   C1A46731  11.258   5.791   6.047
 3534POPC   D2A46732  11.078   5.919   6.467
 3534POPC   C3A46733  10.945   5.694   6.844
 3534POPC   C4A46734  11.242   5.766   7.153
 3534POPC   C1B46735  11.291   6.287   6.144
 3534POPC   C2B46736  11.268   6.396   6.563
 3534POPC   C3B46737  11.371   6.179   6.909
 3534POPC   C4B46738  11.239   6.263   7.317
 3535POPC   NC346739   3.862  20.737   5.335
 3535POPC   PO446740   3.340  20.281   5.503
 3535POPC   GL146741   3.639  20.326   5.827
 3535POPC   GL246742   3.614  20.662   5.829
 3535POPC   C1A46743   3.557  20.419   6.272
 3535POPC   D2A46744   3.349  20.490   6.668
 3535POPC   C3A46745   3.499  20.263   7.011
 3535POPC   C4A46746   3.565  20.435   7.407
 3535POPC   C1B46747   3.479  20.926   6.217
 3535POPC   C2B46748   3.347  21.012   6.675
 3535POPC   C3B46749   3.469  20.898   7.116
 3535POPC   C4B46750   3.778  20.891   7.461
 3536POPC   NC346751  28.156  34.008   5.553
 3536POPC   PO446752  27.465  33.968   5.368
 3536POPC   GL146753  27.628  33.654   5.700
 3536POPC   GL246754  27.910  33.707   5.893
 3536POPC   C1A46755  27.450  33.664   6.142
 3536POPC   D2A46756  27.660  33.753   6.536
 3536POPC   C3A46757  27.503  33.680   6.956
 3536POPC   C4A46758  27.509  33.483   7.349
 3536POPC   C1B46759  27.877  34.063   6.182
 3536POPC   C2B46760  27.748  34.273   6.562
 3536POPC   C3B46761  27.837  34.057   6.919
 3536POPC   C4B46762  27.765  33.930   7.337
 3537POPC   NC346763  30.550  10.519   5.292
 3537POPC   PO446764  29.874  10.555   5.201
 3537POPC   GL146765  29.925  10.614   5.656
 3537POPC   GL246766  30.182  10.335   5.656
 3537POPC   C1A46767  29.977  10.642   6.150
 3537POPC   D2A46768  30.041  10.536   6.637
 3537POPC   C3A46769  29.913  10.766   7.068
 3537POPC   C4A46770  29.942  10.725   7.553
 3537POPC   C1B46771  30.258  10.211   6.102
 3537POPC   C2B46772  30.405  10.141   6.553
 3537POPC   C3B46773  30.261  10.135   6.987
 3537POPC   C4B46774  29.958  10.296   7.271
 3538POPC   NC346775  40.271  20.811   5.427
 3538POPC   PO446776  39.738  20.461   5.321
 3538POPC   GL146777  39.773  20.726   5.706
 3538POPC   GL246778  40.026  20.527   5.830
 3538POPC   C1A46779  39.780  20.886   6.160
 3538POPC   D2A46780  39.744  20.689   6.603
 3538POPC   C3A46781  39.896  20.754   7.068
 3538POPC   C4A46782  40.005  20.642   7.518
 3538POPC   C1B46783  40.132  20.538   6.280
 3538POPC   C2B46784  40.235  20.502   6.718
 3538POPC   C3B46785  40.409  20.599   7.125
 3538POPC   C4B46786  40.469  20.451   7.589
 3539POPC   NC346787  18.213  28.557   5.518
 3539POPC   PO446788  18.807  28.161   5.412
 3539POPC   GL146789  18.552  28.289   5.775
 3539POPC   GL246790  18.631  28.619   5.901
 3539POPC   C1A46791  18.231  28.236   6.113
 3539POPC   D2A46792  18.289  28.178   6.549
 3539POPC   C3A46793  18.037  28.166   6.911
 3539POPC   C4A46794  18.171  28.345   7.310
 3539POPC   C1B46795  18.515  28.612   6.322
 3539POPC   C2B46796  18.274  28.687   6.680
 3539POPC   C3B46797  18.326  28.841   7.072
 3539POPC   C4B46798  18.372  28.804   7.480
 3540POPC   NC346799  20.043  41.769   5.360
 3540POPC   PO446800  19.661  41.200   5.359
 3540POPC   GL146801  19.708  41.422   5.775
 3540POPC   GL246802  19.380  41.412   5.917
 3540POPC   C1A46803  19.883  41.560   6.212
 3540POPC   D2A46804  20.136  41.464   6.597
 3540POPC   C3A46805  19.932  41.557   7.017
 3540POPC   C4A46806  19.772  41.184   7.231
 3540POPC   C1B46807  19.541  41.168   6.260
 3540POPC   C2B46808  19.636  41.275   6.699
 3540POPC   C3B46809  19.424  41.502   7.023
 3540POPC   C4B46810  19.518  41.926   7.129
 3541POPC   NC346811  16.950   4.151   5.503
 3541POPC   PO446812  16.318   4.252   5.462
 3541POPC   GL146813  16.520   4.024   5.804
 3541POPC   GL246814  16.683   4.323   5.920
 3541POPC   C1A46815  16.707   3.925   6.229
 3541POPC   D2A46816  16.629   4.046   6.671
 3541POPC   C3A46817  16.905   4.022   6.999
 3541POPC   C4A46818  17.020   4.380   7.249
 3541POPC   C1B46819  16.659   4.460   6.372
 3541POPC   C2B46820  16.677   4.515   6.851
 3541POPC   C3B46821  16.777   4.813   7.190
 3541POPC   C4B46822  17.034   4.777   7.591
 3542POPC   NC346823   9.474   2.798   5.170
 3542POPC   PO446824   8.872   2.724   5.361
 3542POPC   GL146825   8.965   2.807   5.804
 3542POPC   GL246826   9.296   2.742   5.820
 3542POPC   C1A46827   8.810   2.897   6.220
 3542POPC   D2A46828   8.824   2.755   6.645
 3542POPC   C3A46829   8.867   2.967   7.035
 3542POPC   C4A46830   9.105   2.973   7.424
 3542POPC   C1B46831   9.198   2.586   6.263
 3542POPC   C2B46832   9.178   2.389   6.697
 3542POPC   C3B46833   9.223   2.520   7.138
 3542POPC   C4B46834   9.491   2.330   7.447
 3543POPC   NC346835  14.800   5.669   5.708
 3543POPC   PO446836  15.031   6.032   5.203
 3543POPC   GL146837  15.241   5.970   5.655
 3543POPC   GL246838  14.999   6.129   5.853
 3543POPC   C1A46839  15.334   5.736   6.076
 3543POPC   D2A46840  15.223   5.667   6.540
 3543POPC   C3A46841  15.476   5.778   6.944
 3543POPC   C4A46842  15.510   5.733   7.423
 3543POPC   C1B46843  14.913   6.001   6.277
 3543POPC   C2B46844  14.749   5.846   6.665
 3543POPC   C3B46845  14.972   5.771   7.079
 3543POPC   C4B46846  15.128   6.061   7.383
 3544POPC   NC346847   3.786   2.812   5.387
 3544POPC   PO446848   3.163   2.475   5.403
 3544POPC   GL146849   3.407   2.699   5.722
 3544POPC   GL246850   3.748   2.564   5.811
 3544POPC   C1A46851   3.412   2.746   6.160
 3544POPC   D2A46852   3.247   2.942   6.518
 3544POPC   C3A46853   3.409   2.825   6.887
 3544POPC   C4A46854   3.306   2.591   7.230
 3544POPC   C1B46855   3.778   2.395   6.181
 3544POPC   C2B46856   3.745   2.544   6.563
 3544POPC   C3B46857   3.678   2.395   6.943
 3544POPC   C4B46858   3.804   2.625   7.281
 3545POPC   NC346859  14.396  36.134   5.302
 3545POPC   PO446860  14.831  35.662   5.498
 3545POPC   GL146861  14.518  35.934   5.795
 3545POPC   GL246862  14.422  36.302   5.776
 3545POPC   C1A46863  14.412  36.090   6.253
 3545POPC   D2A46864  14.592  36.181   6.686
 3545POPC   C3A46865  14.368  36.045   7.093
 3545POPC   C4A46866  14.189  36.185   7.526
 3545POPC   C1B46867  14.271  36.567   6.106
 3545POPC   C2B46868  14.430  36.673   6.517
 3545POPC   C3B46869  14.295  36.523   6.911
 3545POPC   C4B46870  14.528  36.487   7.285
 3546POPC   NC346871  39.358  39.104   5.465
 3546POPC   PO446872  39.013  39.652   5.418
 3546POPC   GL146873  39.179  39.477   5.803
 3546POPC   GL246874  38.998  39.158   5.898
 3546POPC   C1A46875  39.311  39.354   6.236
 3546POPC   D2A46876  39.104  39.125   6.587
 3546POPC   C3A46877  39.344  39.237   6.945
 3546POPC   C4A46878  39.261  39.465   7.314
 3546POPC   C1B46879  39.233  38.833   6.169
 3546POPC   C2B46880  39.356  38.656   6.590
 3546POPC   C3B46881  39.548  38.761   7.013
 3546POPC   C4B46882  39.365  38.976   7.416
 3547POPC   NC346883   4.198  22.435   5.288
 3547POPC   PO446884   4.702  21.943   5.388
 3547POPC   GL146885   4.304  22.016   5.709
 3547POPC   GL246886   3.967  22.264   5.741
 3547POPC   C1A46887   4.241  22.084   6.177
 3547POPC   D2A46888   4.559  21.922   6.496
 3547POPC   C3A46889   4.549  22.138   6.887
 3547POPC   C4A46890   4.538  22.087   7.320
 3547POPC   C1B46891   3.908  22.536   6.136
 3547POPC   C2B46892   3.894  22.418   6.571
 3547POPC   C3B46893   4.079  22.378   7.002
 3547POPC   C4B46894   4.063  22.203   7.431
 3548POPC   NC346895  43.481  44.512   5.555
 3548POPC   PO446896  44.135  44.736   5.348
 3548POPC   GL146897  43.938  44.819   5.745
 3548POPC   GL246898  43.627  44.835   5.911
 3548POPC   C1A46899  44.028  44.966   6.164
 3548POPC   D2A46900  43.758  44.936   6.499
 3548POPC   C3A46901  43.987  44.888   6.822
 3548POPC   C4A46902  43.994  44.555   7.122
 3548POPC   C1B46903  43.684  44.481   6.246
 3548POPC   C2B46904  43.642  44.478   6.719
 3548POPC   C3B46905  43.522  44.841   6.992
 3548POPC   C4B46906  43.768  44.985   7.296
 3549POPC   NC346907   2.492  24.346   5.444
 3549POPC   PO446908   3.153  24.520   5.473
 3549POPC   GL146909   2.822  24.629   5.789
 3549POPC   GL246910   2.580  24.390   5.931
 3549POPC   C1A46911   2.840  24.692   6.248
 3549POPC   D2A46912   2.975  24.442   6.611
 3549POPC   C3A46913   2.936  24.531   7.085
 3549POPC   C4A46914   3.065  24.291   7.480
 3549POPC   C1B46915   2.328  24.707   6.127
 3549POPC   C2B46916   2.246  24.837   6.530
 3549POPC   C3B46917   2.419  24.808   6.940
 3549POPC   C4B46918   2.240  24.789   7.329
 3550POPC   NC346919  11.847  29.007   5.519
 3550POPC   PO446920  12.398  29.231   5.414
 3550POPC   GL146921  12.232  29.196   5.824
 3550POPC   GL246922  12.310  28.842   5.802
 3550POPC   C1A46923  12.234  29.384   6.250
 3550POPC   D2A46924  12.072  29.212   6.651
 3550POPC   C3A46925  12.107  29.423   7.049
 3550POPC   C4A46926  12.041  29.176   7.441
 3550POPC   C1B46927  12.311  28.876   6.276
 3550POPC   C2B46928  12.405  28.830   6.742
 3550POPC   C3B46929  12.191  28.764   7.157
 3550POPC   C4B46930  12.119  28.667   7.624
 3551POPC   NC346931  25.154  19.492   5.215
 3551POPC   PO446932  25.466  20.075   5.280
 3551POPC   GL146933  25.469  19.996   5.752
 3551POPC   GL246934  25.780  19.822   5.877
 3551POPC   C1A46935  25.278  19.987   6.181
 3551POPC   D2A46936  25.022  19.705   6.460
 3551POPC   C3A46937  25.083  19.727   6.902
 3551POPC   C4A46938  25.053  20.117   7.072
 3551POPC   C1B46939  25.704  19.728   6.295
 3551POPC   C2B46940  25.549  19.951   6.710
 3551POPC   C3B46941  25.497  19.913   7.188
 3551POPC   C4B46942  25.582  19.933   7.645
 3552POPC   NC346943  29.525  44.887   5.510
 3552POPC   PO446944  29.200  44.310   5.377
 3552POPC   GL146945  29.378  44.494   5.814
 3552POPC   GL246946  29.359  44.886   5.969
 3552POPC   C1A46947  29.245  44.497   6.258
 3552POPC   D2A46948  29.404  44.356   6.627
 3552POPC   C3A46949  29.526  44.633   6.908
 3552POPC   C4A46950  29.267  44.523   7.247
 3552POPC   C1B46951  29.138   0.165   6.247
 3552POPC   C2B46952  29.212   0.174   6.677
 3552POPC   C3B46953  29.158  44.989   7.062
 3552POPC   C4B46954  28.955   0.121   7.440
 3553POPC   NC346955  31.290  30.746   5.361
 3553POPC   PO446956  31.884  30.394   5.414
 3553POPC   GL146957  31.670  30.703   5.709
 3553POPC   GL246958  31.296  30.667   5.854
 3553POPC   C1A46959  31.651  30.908   6.119
 3553POPC   D2A46960  31.420  30.815   6.498
 3553POPC   C3A46961  31.384  31.132   6.787
 3553POPC   C4A46962  31.640  30.956   7.108
 3553POPC   C1B46963  31.010  30.697   6.205
 3553POPC   C2B46964  31.013  30.521   6.633
 3553POPC   C3B46965  31.175  30.713   7.037
 3553POPC   C4B46966  31.258  30.678   7.503
 3554POPC   NC346967   1.506  34.018   5.393
 3554POPC   PO446968   2.134  33.623   5.457
 3554POPC   GL146969   1.947  33.970   5.669
 3554POPC   GL246970   1.645  33.836   5.836
 3554POPC   C1A46971   2.005  34.102   6.084
 3554POPC   D2A46972   2.090  33.878   6.456
 3554POPC   C3A46973   1.902  33.954   6.800
 3554POPC   C4A46974   2.208  33.792   7.016
 3554POPC   C1B46975   1.848  33.572   6.134
 3554POPC   C2B46976   1.681  33.517   6.555
 3554POPC   C3B46977   1.815  33.456   6.973
 3554POPC   C4B46978   1.804  33.740   7.326
 3555POPC   NC346979  34.366  15.773   5.132
 3555POPC   PO446980  33.977  15.981   5.568
 3555POPC   GL146981  33.969  15.751   5.936
 3555POPC   GL246982  34.351  15.739   5.839
 3555POPC   C1A46983  33.861  15.653   6.393
 3555POPC   D2A46984  33.685  15.939   6.717
 3555POPC   C3A46985  33.670  15.933   7.176
 3555POPC   C4A46986  33.883  15.691   7.508
 3555POPC   C1B46987  34.249  16.094   6.170
 3555POPC   C2B46988  34.238  15.959   6.573
 3555POPC   C3B46989  34.146  15.817   6.972
 3555POPC   C4B46990  34.148  16.084   7.321
 3556POPC   NC346991  30.210   7.058   5.575
 3556POPC   PO446992  29.508   7.247   5.703
 3556POPC   GL146993  29.888   7.262   5.914
 3556POPC   GL246994  29.986   7.528   5.678
 3556POPC   C1A46995  30.153   7.238   6.317
 3556POPC   D2A46996  30.202   7.289   6.780
 3556POPC   C3A46997  29.836   7.464   6.999
 3556POPC   C4A46998  29.565   7.251   7.275
 3556POPC   C1B46999  29.912   7.749   6.094
 3556POPC   C2B47000  30.058   7.718   6.523
 3556POPC   C3B47001  30.242   7.777   6.908
 3556POPC   C4B47002  30.031   7.885   7.285
 3557POPC   NC347003  40.087  32.465   5.141
 3557POPC   PO447004  39.738  31.955   5.456
 3557POPC   GL147005  39.919  32.198   5.765
 3557POPC   GL247006  40.009  32.542   5.644
 3557POPC   C1A47007  40.171  31.987   6.099
 3557POPC   D2A47008  39.980  31.817   6.488
 3557POPC   C3A47009  40.092  32.000   6.900
 3557POPC   C4A47010  40.322  31.875   7.277
 3557POPC   C1B47011  40.260  32.499   6.021
 3557POPC   C2B47012  40.199  32.346   6.449
 3557POPC   C3B47013  40.176  32.525   6.846
 3557POPC   C4B47014  40.178  32.389   7.248
 3558POPC   NC347015   7.721  19.775   5.479
 3558POPC   PO447016   7.351  20.211   5.190
 3558POPC   GL147017   7.308  20.105   5.673
 3558POPC   GL247018   7.179  19.787   5.777
 3558POPC   C1A47019   7.087  20.130   6.128
 3558POPC   D2A47020   7.174  19.896   6.535
 3558POPC   C3A47021   7.346  20.049   6.898
 3558POPC   C4A47022   7.135  20.188   7.257
 3558POPC   C1B47023   7.503  19.836   6.134
 3558POPC   C2B47024   7.676  19.785   6.562
 3558POPC   C3B47025   7.520  19.556   6.925
 3558POPC   C4B47026   7.228  19.688   7.234
 3559POPC   NC347027  32.524  23.608   5.430
 3559POPC   PO447028  31.941  23.923   5.421
 3559POPC   GL147029  32.122  23.751   5.823
 3559POPC   GL247030  32.428  23.564   5.914
 3559POPC   C1A47031  31.960  23.803   6.248
 3559POPC   D2A47032  31.894  23.576   6.623
 3559POPC   C3A47033  32.140  23.710   6.970
 3559POPC   C4A47034  32.261  23.981   7.294
 3559POPC   C1B47035  32.199  23.353   6.210
 3559POPC   C2B47036  32.338  23.312   6.618
 3559POPC   C3B47037  32.456  23.315   7.028
 3559POPC   C4B47038  32.378  23.522   7.447
 3560POPC   NC347039   0.717  41.516   5.540
 3560POPC   PO447040   0.094  41.270   5.578
 3560POPC   GL147041   0.290  41.581   5.872
 3560POPC   GL247042   0.584  41.842   5.895
 3560POPC   C1A47043   0.478  41.460   6.259
 3560POPC   D2A47044   0.659  41.124   6.493
 3560POPC   C3A47045   0.719  41.202   6.948
 3560POPC   C4A47046   0.359  41.356   7.174
 3560POPC   C1B47047   0.775  41.875   6.289
 3560POPC   C2B47048   0.684  41.688   6.701
 3560POPC   C3B47049   0.612  41.800   7.135
 3560POPC   C4B47050   0.793  41.992   7.502
 3561POPC   NC347051   8.861  12.108   5.142
 3561POPC   PO447052   9.532  12.134   5.130
 3561POPC   GL147053   9.263  12.149   5.588
 3561POPC   GL247054   8.929  12.007   5.657
 3561POPC   C1A47055   9.204  12.047   6.086
 3561POPC   D2A47056   9.066  12.181   6.538
 3561POPC   C3A47057   9.095  11.910   6.937
 3561POPC   C4A47058   8.771  11.892   7.282
 3561POPC   C1B47059   8.664  12.179   6.024
 3561POPC   C2B47060   8.500  12.177   6.467
 3561POPC   C3B47061   8.668  12.195   6.874
 3561POPC   C4B47062   8.841  12.397   7.250
 3562POPC   NC347063   6.234   6.827   5.292
 3562POPC   PO447064   6.767   6.470   5.495
 3562POPC   GL147065   6.714   6.645   5.863
 3562POPC   GL247066   6.743   6.991   5.838
 3562POPC   C1A47067   6.701   6.484   6.304
 3562POPC   D2A47068   6.849   6.367   6.722
 3562POPC   C3A47069   6.598   6.616   6.983
 3562POPC   C4A47070   6.253   6.419   7.205
 3562POPC   C1B47071   7.044   6.833   6.170
 3562POPC   C2B47072   7.096   6.786   6.572
 3562POPC   C3B47073   7.059   6.859   6.981
 3562POPC   C4B47074   6.997   6.646   7.361
 3563POPC   NC347075   5.769  22.078   5.100
 3563POPC   PO447076   6.113  22.594   5.350
 3563POPC   GL147077   5.764  22.428   5.646
 3563POPC   GL247078   5.704  22.046   5.716
 3563POPC   C1A47079   5.739  22.394   6.102
 3563POPC   D2A47080   5.994  22.545   6.449
 3563POPC   C3A47081   5.725  22.523   6.809
 3563POPC   C4A47082   5.682  22.459   7.248
 3563POPC   C1B47083   5.819  21.883   6.136
 3563POPC   C2B47084   5.872  22.051   6.560
 3563POPC   C3B47085   5.758  21.927   6.984
 3563POPC   C4B47086   5.836  21.766   7.398
 3564POPC   NC347087  32.852  21.733   5.469
 3564POPC   PO447088  33.217  21.183   5.559
 3564POPC   GL147089  33.010  21.388   5.859
 3564POPC   GL247090  32.801  21.081   5.872
 3564POPC   C1A47091  33.175  21.667   6.175
 3564POPC   D2A47092  33.106  21.600   6.611
 3564POPC   C3A47093  33.306  21.303   6.909
 3564POPC   C4A47094  33.101  21.331   7.300
 3564POPC   C1B47095  32.686  21.098   6.285
 3564POPC   C2B47096  32.849  21.120   6.700
 3564POPC   C3B47097  32.607  21.177   7.055
 3564POPC   C4B47098  32.638  21.191   7.512
 3565POPC   NC347099  19.660  12.384   5.291
 3565POPC   PO447100  19.934  11.782   5.522
 3565POPC   GL147101  19.907  12.068   5.794
 3565POPC   GL247102  19.564  11.935   5.846
 3565POPC   C1A47103  20.138  12.053   6.179
 3565POPC   D2A47104  20.016  12.181   6.568
 3565POPC   C3A47105  20.028  11.889   6.879
 3565POPC   C4A47106  19.869  12.068   7.230
 3565POPC   C1B47107  19.547  12.306   6.087
 3565POPC   C2B47108  19.587  12.459   6.493
 3565POPC   C3B47109  19.685  12.426   6.922
 3565POPC   C4B47110  19.418  12.307   7.282
 3566POPC   NC347111  11.415  14.172   5.386
 3566POPC   PO447112  10.875  14.212   5.610
 3566POPC   GL147113  11.186  14.149   5.909
 3566POPC   GL247114  11.469  14.325   5.869
 3566POPC   C1A47115  11.297  14.236   6.363
 3566POPC   D2A47116  11.401  14.212   6.837
 3566POPC   C3A47117  11.150  14.472   7.147
 3566POPC   C4A47118  11.121  14.442   7.603
 3566POPC   C1B47119  11.756  14.432   6.210
 3566POPC   C2B47120  11.721  14.593   6.628
 3566POPC   C3B47121  11.624  14.638   7.062
 3566POPC   C4B47122  11.589  14.344   7.392
 3567POPC   NC347123   0.942  32.385   5.530
 3567POPC   PO447124   1.572  32.178   5.567
 3567POPC   GL147125   1.271  32.185   5.860
 3567POPC   GL247126   1.337  32.542   5.872
 3567POPC   C1A47127   1.014  32.235   6.240
 3567POPC   D2A47128   0.824  32.404   6.620
 3567POPC   C3A47129   0.995  32.129   6.956
 3567POPC   C4A47130   1.365  31.864   7.057
 3567POPC   C1B47131   1.536  32.357   6.252
 3567POPC   C2B47132   1.406  32.168   6.629
 3567POPC   C3B47133   1.439  32.377   7.027
 3567POPC   C4B47134   1.433  32.609   7.360
 3568POPC   NC347135  31.554  20.883   5.174
 3568POPC   PO447136  31.377  21.616   5.349
 3568POPC   GL147137  31.359  21.414   5.746
 3568POPC   GL247138  31.714  21.299   5.683
 3568POPC   C1A47139  31.268  21.303   6.206
 3568POPC   D2A47140  31.406  21.629   6.499
 3568POPC   C3A47141  31.184  21.608   6.857
 3568POPC   C4A47142  31.255  21.556   7.273
 3568POPC   C1B47143  31.744  21.442   6.110
 3568POPC   C2B47144  31.699  21.189   6.504
 3568POPC   C3B47145  31.594  21.316   6.910
 3568POPC   C4B47146  31.725  21.381   7.345
 3569POPC   NC347147  28.036  42.240   5.342
 3569POPC   PO447148  27.608  42.582   5.407
 3569POPC   GL147149  27.610  42.507   5.859
 3569POPC   GL247150  27.707  42.173   5.826
 3569POPC   C1A47151  27.679  42.410   6.331
 3569POPC   D2A47152  27.436  42.230   6.675
 3569POPC   C3A47153  27.516  42.326   7.090
 3569POPC   C4A47154  27.360  42.399   7.507
 3569POPC   C1B47155  27.892  41.968   6.172
 3569POPC   C2B47156  27.826  41.921   6.608
 3569POPC   C3B47157  27.649  41.822   7.021
 3569POPC   C4B47158  27.878  41.867   7.398
 3570POPC   NC347159  30.478  28.935   5.230
 3570POPC   PO447160  30.670  29.465   5.574
 3570POPC   GL147161  30.662  29.016   5.745
 3570POPC   GL247162  30.992  28.818   5.834
 3570POPC   C1A47163  30.536  29.110   6.156
 3570POPC   D2A47164  30.685  29.366   6.500
 3570POPC   C3A47165  30.569  29.234   6.932
 3570POPC   C4A47166  30.500  29.444   7.340
 3570POPC   C1B47167  31.053  29.033   6.227
 3570POPC   C2B47168  30.986  29.004   6.658
 3570POPC   C3B47169  31.059  29.137   7.044
 3570POPC   C4B47170  30.897  29.005   7.401
 3571POPC   NC347171  17.152  38.469   5.670
 3571POPC   PO447172  17.615  38.840   5.350
 3571POPC   GL147173  17.714  38.682   5.780
 3571POPC   GL247174  17.604  38.380   5.831
 3571POPC   C1A47175  17.582  38.692   6.233
 3571POPC   D2A47176  17.569  38.885   6.638
 3571POPC   C3A47177  17.591  38.629   7.018
 3571POPC   C4A47178  17.726  38.831   7.350
 3571POPC   C1B47179  17.276  38.286   6.243
 3571POPC   C2B47180  17.337  38.383   6.656
 3571POPC   C3B47181  17.284  38.219   7.051
 3571POPC   C4B47182  17.201  38.005   7.449
 3572POPC   NC347183  20.050  27.865   5.354
 3572POPC   PO447184  19.338  27.596   5.167
 3572POPC   GL147185  19.540  27.582   5.656
 3572POPC   GL247186  19.879  27.478   5.669
 3572POPC   C1A47187  19.684  27.784   6.060
 3572POPC   D2A47188  19.682  27.881   6.509
 3572POPC   C3A47189  19.598  27.568   6.841
 3572POPC   C4A47190  19.735  27.796   7.214
 3572POPC   C1B47191  20.132  27.532   6.042
 3572POPC   C2B47192  20.012  27.497   6.457
 3572POPC   C3B47193  20.108  27.647   6.874
 3572POPC   C4B47194  20.064  27.415   7.257
 3573POPC   NC347195  22.452  28.219   5.570
 3573POPC   PO447196  22.155  28.472   5.053
 3573POPC   GL147197  22.060  28.561   5.568
 3573POPC   GL247198  21.944  28.265   5.765
 3573POPC   C1A47199  22.135  28.572   6.093
 3573POPC   D2A47200  22.391  28.632   6.470
 3573POPC   C3A47201  22.423  28.422   6.873
 3573POPC   C4A47202  22.266  28.537   7.265
 3573POPC   C1B47203  22.012  28.047   6.135
 3573POPC   C2B47204  22.230  28.101   6.504
 3573POPC   C3B47205  22.147  27.984   6.928
 3573POPC   C4B47206  21.892  28.138   7.270
 3574POPC   NC347207   8.646  40.217   5.514
 3574POPC   PO447208   9.233  39.765   5.473
 3574POPC   GL147209   8.951  39.833   5.806
 3574POPC   GL247210   9.029  40.146   5.849
 3574POPC   C1A47211   8.741  39.925   6.228
 3574POPC   D2A47212   8.894  40.049   6.655
 3574POPC   C3A47213   8.836  39.764   7.011
 3574POPC   C4A47214   8.772  39.788   7.494
 3574POPC   C1B47215   9.231  40.066   6.228
 3574POPC   C2B47216   9.432  40.272   6.529
 3574POPC   C3B47217   9.266  40.316   6.926
 3574POPC   C4B47218   9.150  40.062   7.267
 3575POPC   NC347219   8.430  12.621   5.438
 3575POPC   PO447220   7.778  12.675   5.407
 3575POPC   GL147221   8.037  12.513   5.754
 3575POPC   GL247222   8.127  12.859   5.796
 3575POPC   C1A47223   8.306  12.573   6.161
 3575POPC   D2A47224   8.242  12.779   6.530
 3575POPC   C3A47225   8.409  12.635   6.880
 3575POPC   C4A47226   8.216  12.685   7.260
 3575POPC   C1B47227   8.067  13.115   6.173
 3575POPC   C2B47228   8.009  13.234   6.605
 3575POPC   C3B47229   8.140  13.128   7.017
 3575POPC   C4B47230   7.890  13.194   7.404
 3576POPC   NC347231   5.041  15.467   5.469
 3576POPC   PO447232   5.315  14.757   5.393
 3576POPC   GL147233   5.153  14.940   5.808
 3576POPC   GL247234   4.888  15.231   5.895
 3576POPC   C1A47235   5.137  15.007   6.265
 3576POPC   D2A47236   5.376  14.921   6.617
 3576POPC   C3A47237   5.257  15.165   6.972
 3576POPC   C4A47238   5.353  15.156   7.436
 3576POPC   C1B47239   5.032  15.514   6.277
 3576POPC   C2B47240   5.064  15.615   6.766
 3576POPC   C3B47241   5.195  15.597   7.229
 3576POPC   C4B47242   5.187  15.549   7.711
 3577POPC   NC347243  43.028  44.060   5.468
 3577POPC   PO447244  42.709  43.436   5.445
 3577POPC   GL147245  43.089  43.680   5.781
 3577POPC   GL247246  42.964  43.993   5.973
 3577POPC   C1A47247  43.388  43.810   6.201
 3577POPC   D2A47248  43.280  44.143   6.510
 3577POPC   C3A47249  43.405  44.006   6.918
 3577POPC   C4A47250  43.203  44.037   7.338
 3577POPC   C1B47251  42.952  43.582   6.252
 3577POPC   C2B47252  43.195  43.581   6.639
 3577POPC   C3B47253  42.934  43.802   6.915
 3577POPC   C4B47254  42.733  43.811   7.300
 3578POPC   NC347255  26.342  28.483   5.147
 3578POPC   PO447256  26.820  28.112   5.539
 3578POPC   GL147257  26.976  28.290   5.915
 3578POPC   GL247258  26.700  28.429   6.101
 3578POPC   C1A47259  27.134  28.383   6.341
 3578POPC   D2A47260  26.892  28.294   6.721
 3578POPC   C3A47261  27.149  28.527   7.016
 3578POPC   C4A47262  27.046  28.728   7.401
 3578POPC   C1B47263  26.662  28.056   6.309
 3578POPC   C2B47264  26.438  27.908   6.641
 3578POPC   C3B47265  26.517  28.039   7.009
 3578POPC   C4B47266  26.675  28.410   7.191
 3579POPC   NC347267   4.539   0.098   5.564
 3579POPC   PO447268   4.422   0.730   5.359
 3579POPC   GL147269   4.531   0.810   5.789
 3579POPC   GL247270   4.748   0.540   5.788
 3579POPC   C1A47271   4.588   0.910   6.207
 3579POPC   D2A47272   4.343   0.736   6.521
 3579POPC   C3A47273   4.493   0.657   6.920
 3579POPC   C4A47274   4.209   0.711   7.257
 3579POPC   C1B47275   4.547   0.399   6.160
 3579POPC   C2B47276   4.599   0.261   6.558
 3579POPC   C3B47277   4.344   0.158   6.879
 3579POPC   C4B47278   4.512   0.261   7.249
 3580POPC   NC347279  32.656  42.370   5.482
 3580POPC   PO447280  32.082  42.140   5.627
 3580POPC   GL147281  32.188  42.542   5.796
 3580POPC   GL247282  31.837  42.660   5.880
 3580POPC   C1A47283  32.442  42.510   6.164
 3580POPC   D2A47284  32.395  42.122   6.447
 3580POPC   C3A47285  32.459  42.137   6.887
 3580POPC   C4A47286  32.505  42.294   7.307
 3580POPC   C1B47287  31.960  42.392   6.251
 3580POPC   C2B47288  31.959  42.369   6.687
 3580POPC   C3B47289  31.980  42.169   7.085
 3580POPC   C4B47290  32.029  42.463   7.400
 3581POPC   NC347291  15.467  27.679   5.436
 3581POPC   PO447292  14.995  27.273   5.568
 3581POPC   GL147293  15.267  27.487   5.864
 3581POPC   GL247294  15.493  27.228   5.969
 3581POPC   C1A47295  15.391  27.680   6.257
 3581POPC   D2A47296  15.425  27.542   6.678
 3581POPC   C3A47297  15.118  27.723   6.967
 3581POPC   C4A47298  15.161  27.755   7.415
 3581POPC   C1B47299  15.136  27.252   6.319
 3581POPC   C2B47300  15.046  27.209   6.777
 3581POPC   C3B47301  15.098  27.271   7.222
 3581POPC   C4B47302  14.938  27.278   7.664
 3582POPC   NC347303  43.288   0.672   5.379
 3582POPC   PO447304  43.426  44.968   5.445
 3582POPC   GL147305  43.276   0.283   5.761
 3582POPC   GL247306  43.359   0.645   5.870
 3582POPC   C1A47307  43.026   0.289   6.152
 3582POPC   D2A47308  42.866   0.075   6.538
 3582POPC   C3A47309  43.046   0.203   6.940
 3582POPC   C4A47310  42.912   0.487   7.276
 3582POPC   C1B47311  43.076   0.821   6.176
 3582POPC   C2B47312  42.978   0.620   6.567
 3582POPC   C3B47313  43.219   0.706   6.914
 3582POPC   C4B47314  43.110   1.032   7.183
 3583POPC   NC347315  25.072  38.856   5.348
 3583POPC   PO447316  25.151  39.404   5.420
 3583POPC   GL147317  24.906  39.296   5.797
 3583POPC   GL247318  25.068  38.985   5.849
 3583POPC   C1A47319  24.898  39.346   6.269
 3583POPC   D2A47320  24.957  39.621   6.651
 3583POPC   C3A47321  25.307  39.542   6.934
 3583POPC   C4A47322  25.623  39.307   7.172
 3583POPC   C1B47323  25.209  38.932   6.270
 3583POPC   C2B47324  25.126  39.099   6.676
 3583POPC   C3B47325  25.123  39.091   7.099
 3583POPC   C4B47326  24.975  39.013   7.465
 3584POPC   NC347327  41.065  16.562   5.171
 3584POPC   PO447328  40.549  17.059   5.156
 3584POPC   GL147329  40.585  16.799   5.557
 3584POPC   GL247330  40.612  17.099   5.762
 3584POPC   C1A47331  40.658  16.648   6.020
 3584POPC   D2A47332  40.546  16.580   6.491
 3584POPC   C3A47333  40.844  16.671   6.854
 3584POPC   C4A47334  41.097  16.913   7.150
 3584POPC   C1B47335  40.467  17.124   6.200
 3584POPC   C2B47336  40.550  17.342   6.578
 3584POPC   C3B47337  40.611  17.173   7.005
 3584POPC   C4B47338  40.450  16.776   7.175
 3585POPC   NC347339  14.435  26.681   5.468
 3585POPC   PO447340  14.072  27.318   5.558
 3585POPC   GL147341  14.059  27.096   6.020
 3585POPC   GL247342  14.118  26.723   6.053
 3585POPC   C1A47343  14.307  26.981   6.449
 3585POPC   D2A47344  14.676  26.822   6.698
 3585POPC   C3A47345  14.721  26.930   7.129
 3585POPC   C4A47346  14.638  26.715   7.493
 3585POPC   C1B47347  13.827  26.747   6.404
 3585POPC   C2B47348  13.882  27.035   6.732
 3585POPC   C3B47349  14.213  26.911   7.008
 3585POPC   C4B47350  14.010  26.540   7.139
 3586POPC   NC347351  23.484  25.642   5.513
 3586POPC   PO447352  23.976  25.159   5.504
 3586POPC   GL147353  23.721  25.253   5.820
 3586POPC   GL247354  23.823  25.555   5.897
 3586POPC   C1A47355  23.680  25.148   6.238
 3586POPC   D2A47356  23.570  25.430   6.564
 3586POPC   C3A47357  23.668  25.168   6.915
 3586POPC   C4A47358  23.654  25.216   7.311
 3586POPC   C1B47359  24.033  25.495   6.266
 3586POPC   C2B47360  24.058  25.439   6.720
 3586POPC   C3B47361  23.770  25.639   7.044
 3586POPC   C4B47362  23.844  25.640   7.524
 3587POPC   NC347363  20.477  43.191   5.322
 3587POPC   PO447364  21.014  43.262   5.620
 3587POPC   GL147365  20.694  43.061   5.815
 3587POPC   GL247366  20.317  42.976   5.751
 3587POPC   C1A47367  20.811  43.007   6.226
 3587POPC   D2A47368  20.665  43.259   6.524
 3587POPC   C3A47369  20.741  43.094   6.903
 3587POPC   C4A47370  20.422  43.195   7.159
 3587POPC   C1B47371  20.313  42.969   6.209
 3587POPC   C2B47372  20.423  42.780   6.613
 3587POPC   C3B47373  20.234  42.743   7.035
 3587POPC   C4B47374  20.357  42.834   7.504
 3588POPC   NC347375  43.688  27.487   5.313
 3588POPC   PO447376  43.024  27.588   5.462
 3588POPC   GL147377  43.136  27.761   5.849
 3588POPC   GL247378  43.335  28.045   5.747
 3588POPC   C1A47379  43.334  27.587   6.202
 3588POPC   D2A47380  43.250  27.397   6.586
 3588POPC   C3A47381  42.962  27.647   6.856
 3588POPC   C4A47382  43.070  27.560   7.272
 3588POPC   C1B47383  43.336  28.129   6.174
 3588POPC   C2B47384  43.258  27.954   6.558
 3588POPC   C3B47385  43.443  27.791   6.921
 3588POPC   C4B47386  43.395  27.943   7.331
 3589POPC   NC347387   3.442  41.227   5.469
 3589POPC   PO447388   3.448  40.602   5.571
 3589POPC   GL147389   3.605  40.916   5.833
 3589POPC   GL247390   3.296  40.982   5.968
 3589POPC   C1A47391   3.682  41.216   6.161
 3589POPC   D2A47392   3.496  41.047   6.516
 3589POPC   C3A47393   3.570  41.003   6.946
 3589POPC   C4A47394   3.239  40.980   7.235
 3589POPC   C1B47395   3.441  40.619   6.247
 3589POPC   C2B47396   3.585  40.558   6.680
 3589POPC   C3B47397   3.438  40.506   7.115
 3589POPC   C4B47398   3.545  40.506   7.568
 3590POPC   NC347399   5.267  24.306   5.512
 3590POPC   PO447400   5.513  24.903   5.395
 3590POPC   GL147401   5.211  24.817   5.800
 3590POPC   GL247402   5.086  24.478   5.955
 3590POPC   C1A47403   5.203  24.840   6.293
 3590POPC   D2A47404   5.133  24.813   6.743
 3590POPC   C3A47405   5.240  24.439   6.973
 3590POPC   C4A47406   5.260  24.332   7.425
 3590POPC   C1B47407   5.071  24.309   6.397
 3590POPC   C2B47408   4.774  24.402   6.741
 3590POPC   C3B47409   4.783  24.311   7.181
 3590POPC   C4B47410   4.740  24.433   7.657
 3591POPC   NC347411  41.494  27.419   5.066
 3591POPC   PO447412  41.861  27.375   5.676
 3591POPC   GL147413  41.560  27.629   5.897
 3591POPC   GL247414  41.441  27.970   5.770
 3591POPC   C1A47415  41.485  27.423   6.295
 3591POPC   D2A47416  41.755  27.314   6.645
 3591POPC   C3A47417  41.555  27.442   6.998
 3591POPC   C4A47418  41.333  27.859   7.037
 3591POPC   C1B47419  41.614  28.029   6.212
 3591POPC   C2B47420  41.664  27.835   6.639
 3591POPC   C3B47421  41.799  27.969   7.061
 3591POPC   C4B47422  41.563  28.168   7.396
 3592POPC   NC347423  38.599  18.959   5.284
 3592POPC   PO447424  39.197  19.008   5.389
 3592POPC   GL147425  39.173  19.012   5.791
 3592POPC   GL247426  38.794  18.998   5.768
 3592POPC   C1A47427  39.427  18.912   6.176
 3592POPC   D2A47428  39.525  19.085   6.590
 3592POPC   C3A47429  39.394  18.867   6.994
 3592POPC   C4A47430  39.269  19.013   7.424
 3592POPC   C1B47431  38.904  18.956   6.209
 3592POPC   C2B47432  39.014  18.961   6.640
 3592POPC   C3B47433  38.906  19.099   7.052
 3592POPC   C4B47434  38.725  18.902   7.412
 3593POPC   NC347435  32.325  32.537   5.688
 3593POPC   PO447436  32.030  31.920   5.427
 3593POPC   GL147437  32.234  32.029   5.798
 3593POPC   GL247438  32.592  32.054   5.803
 3593POPC   C1A47439  32.075  32.202   6.216
 3593POPC   D2A47440  32.188  32.339   6.654
 3593POPC   C3A47441  32.098  32.184   7.072
 3593POPC   C4A47442  31.830  32.416   7.379
 3593POPC   C1B47443  32.582  32.195   6.223
 3593POPC   C2B47444  32.693  32.288   6.605
 3593POPC   C3B47445  32.611  32.326   7.007
 3593POPC   C4B47446  32.553  31.920   7.224
 3594POPC   NC347447  11.103  39.214   5.410
 3594POPC   PO447448  11.573  39.758   5.497
 3594POPC   GL147449  11.399  39.422   5.766
 3594POPC   GL247450  11.038  39.457   5.854
 3594POPC   C1A47451  11.388  39.160   6.145
 3594POPC   D2A47452  11.600  39.269   6.528
 3594POPC   C3A47453  11.429  39.188   6.925
 3594POPC   C4A47454  11.605  39.312   7.306
 3594POPC   C1B47455  10.910  39.318   6.262
 3594POPC   C2B47456  11.054  39.074   6.591
 3594POPC   C3B47457  10.921  39.099   7.037
 3594POPC   C4B47458  11.102  39.275   7.402
 3595POPC   NC347459  30.773  23.918   5.397
 3595POPC   PO447460  30.515  23.326   5.299
 3595POPC   GL147461  30.544  23.562   5.733
 3595POPC   GL247462  30.401  23.903   5.779
 3595POPC   C1A47463  30.825  23.701   6.135
 3595POPC   D2A47464  30.995  23.657   6.589
 3595POPC   C3A47465  30.772  23.626   6.984
 3595POPC   C4A47466  30.901  23.712   7.429
 3595POPC   C1B47467  30.358  24.155   6.141
 3595POPC   C2B47468  30.596  24.032   6.499
 3595POPC   C3B47469  30.630  24.112   6.928
 3595POPC   C4B47470  30.498  23.996   7.326
 3596POPC   NC347471  16.095   3.849   5.508
 3596POPC   PO447472  15.526   3.423   5.472
 3596POPC   GL147473  15.758   3.620   5.812
 3596POPC   GL247474  16.098   3.455   5.844
 3596POPC   C1A47475  15.917   3.807   6.205
 3596POPC   D2A47476  16.186   3.809   6.593
 3596POPC   C3A47477  15.962   3.769   6.999
 3596POPC   C4A47478  15.526   3.889   7.170
 3596POPC   C1B47479  16.336   3.392   6.244
 3596POPC   C2B47480  16.350   3.199   6.691
 3596POPC   C3B47481  16.229   3.311   7.134
 3596POPC   C4B47482  16.200   3.202   7.584
 3597POPC   NC347483   1.724  15.163   5.469
 3597POPC   PO447484   2.375  15.415   5.478
 3597POPC   GL147485   2.063  15.386   5.793
 3597POPC   GL247486   2.053  15.033   5.825
 3597POPC   C1A47487   1.879  15.404   6.203
 3597POPC   D2A47488   2.005  15.474   6.621
 3597POPC   C3A47489   1.856  15.243   6.992
 3597POPC   C4A47490   2.128  14.897   7.101
 3597POPC   C1B47491   1.919  14.880   6.219
 3597POPC   C2B47492   1.770  14.903   6.633
 3597POPC   C3B47493   1.629  14.766   7.046
 3597POPC   C4B47494   1.724  14.930   7.451
 3598POPC   NC347495  17.670  26.421   5.588
 3598POPC   PO447496  17.611  25.824   5.791
 3598POPC   GL147497  17.520  26.125   6.064
 3598POPC   GL247498  17.352  26.411   5.987
 3598POPC   C1A47499  17.588  26.035   6.485
 3598POPC   D2A47500  17.578  25.653   6.720
 3598POPC   C3A47501  17.572  25.831   7.115
 3598POPC   C4A47502  17.799  26.197   7.152
 3598POPC   C1B47503  17.131  26.246   6.368
 3598POPC   C2B47504  17.170  26.095   6.782
 3598POPC   C3B47505  17.272  26.252   7.182
 3598POPC   C4B47506  17.355  26.108   7.554
 3599POPC   NC347507  13.773  24.120   5.606
 3599POPC   PO447508  13.369  24.608   5.409
 3599POPC   GL147509  13.545  24.555   5.831
 3599POPC   GL247510  13.899  24.559   5.858
 3599POPC   C1A47511  13.393  24.570   6.282
 3599POPC   D2A47512  13.454  24.853   6.660
 3599POPC   C3A47513  13.782  24.743   6.954
 3599POPC   C4A47514  13.675  24.563   7.361
 3599POPC   C1B47515  13.861  24.317   6.245
 3599POPC   C2B47516  13.687  24.333   6.662
 3599POPC   C3B47517  13.865  24.222   7.047
 3599POPC   C4B47518  14.175  24.096   7.322
 3600POPC   NC347519  42.819  25.347   5.465
 3600POPC   PO447520  43.379  25.082   5.369
 3600POPC   GL147521  43.156  25.101   5.757
 3600POPC   GL247522  43.197  25.460   5.873
 3600POPC   C1A47523  43.232  24.930   6.160
 3600POPC   D2A47524  43.484  24.968   6.553
 3600POPC   C3A47525  43.183  24.988   6.880
 3600POPC   C4A47526  43.106  25.268   7.170
 3600POPC   C1B47527  43.237  25.419   6.350
 3600POPC   C2B47528  43.347  25.503   6.777
 3600POPC   C3B47529  43.189  25.762   7.129
 3600POPC   C4B47530  42.902  25.637   7.480
 3601POPC   NC347531   3.707  34.334   5.219
 3601POPC   PO447532   3.227  34.824   5.425
 3601POPC   GL147533   3.453  34.597   5.777
 3601POPC   GL247534   3.675  34.332   5.720
 3601POPC   C1A47535   3.643  34.621   6.204
 3601POPC   D2A47536   3.551  34.714   6.661
 3601POPC   C3A47537   3.752  34.573   7.028
 3601POPC   C4A47538   3.528  34.582   7.402
 3601POPC   C1B47539   3.438  34.160   6.072
 3601POPC   C2B47540   3.533  34.221   6.511
 3601POPC   C3B47541   3.374  34.270   6.920
 3601POPC   C4B47542   3.589  34.118   7.261
 3602POPC   NC347543  41.265   9.036   5.348
 3602POPC   PO447544  41.756   9.543   5.512
 3602POPC   GL147545  41.807   9.268   5.861
 3602POPC   GL247546  41.727   8.910   5.816
 3602POPC   C1A47547  41.966   9.075   6.244
 3602POPC   D2A47548  41.905   8.900   6.664
 3602POPC   C3A47549  41.517   9.024   6.837
 3602POPC   C4A47550  41.427   9.039   7.236
 3602POPC   C1B47551  41.517   8.820   6.249
 3602POPC   C2B47552  41.494   8.562   6.644
 3602POPC   C3B47553  41.634   8.584   7.108
 3602POPC   C4B47554  41.658   8.742   7.592
 3603POPC   NC347555  33.286  14.606   5.040
 3603POPC   PO447556  32.959  14.315   5.513
 3603POPC   GL147557  33.014  14.214   5.906
 3603POPC   GL247558  32.985  14.570   5.991
 3603POPC   C1A47559  32.784  14.210   6.284
 3603POPC   D2A47560  32.900  14.176   6.686
 3603POPC   C3A47561  32.754  14.424   7.005
 3603POPC   C4A47562  33.017  14.241   7.299
 3603POPC   C1B47563  33.264  14.392   6.321
 3603POPC   C2B47564  33.373  14.478   6.738
 3603POPC   C3B47565  33.492  14.284   7.095
 3603POPC   C4B47566  33.592  14.454   7.461
 3604POPC   NC347567   8.738  39.508   5.465
 3604POPC   PO447568   9.236  38.998   5.451
 3604POPC   GL147569   9.136  39.299   5.772
 3604POPC   GL247570   8.836  39.154   5.818
 3604POPC   C1A47571   9.107  39.529   6.175
 3604POPC   D2A47572   8.854  39.538   6.546
 3604POPC   C3A47573   9.060  39.329   6.845
 3604POPC   C4A47574   9.308  39.537   7.158
 3604POPC   C1B47575   8.610  39.292   6.169
 3604POPC   C2B47576   8.611  39.092   6.596
 3604POPC   C3B47577   8.533  39.334   6.965
 3604POPC   C4B47578   8.835  39.330   7.284
 3605POPC   NC347579  12.687  15.924   5.383
 3605POPC   PO447580  13.149  16.404   5.610
 3605POPC   GL147581  13.014  16.072   5.808
 3605POPC   GL247582  13.120  15.768   5.735
 3605POPC   C1A47583  12.857  16.061   6.211
 3605POPC   D2A47584  13.034  16.193   6.597
 3605POPC   C3A47585  12.863  16.079   7.018
 3605POPC   C4A47586  12.985  15.692   7.243
 3605POPC   C1B47587  13.104  15.596   6.141
 3605POPC   C2B47588  13.346  15.634   6.521
 3605POPC   C3B47589  13.408  15.501   6.931
 3605POPC   C4B47590  13.496  15.690   7.297
 3606POPC   NC347591  25.401   3.687   5.449
 3606POPC   PO447592  25.666   3.079   5.610
 3606POPC   GL147593  25.388   3.322   5.803
 3606POPC   GL247594  25.037   3.308   5.736
 3606POPC   C1A47595  25.431   3.453   6.202
 3606POPC   D2A47596  25.658   3.315   6.540
 3606POPC   C3A47597  25.428   3.408   6.897
 3606POPC   C4A47598  25.421   3.757   7.177
 3606POPC   C1B47599  24.926   3.562   6.124
 3606POPC   C2B47600  24.962   3.776   6.548
 3606POPC   C3B47601  24.935   3.627   6.991
 3606POPC   C4B47602  24.972   3.836   7.396
 3607POPC   NC347603   5.219  21.799   5.403
 3607POPC   PO447604   4.874  21.165   5.366
 3607POPC   GL147605   5.066  21.132   5.778
 3607POPC   GL247606   5.161  21.460   5.796
 3607POPC   C1A47607   5.073  21.170   6.242
 3607POPC   D2A47608   5.154  21.014   6.676
 3607POPC   C3A47609   4.868  21.244   6.975
 3607POPC   C4A47610   4.693  21.354   7.382
 3607POPC   C1B47611   5.354  21.666   6.136
 3607POPC   C2B47612   5.526  21.651   6.549
 3607POPC   C3B47613   5.396  21.426   6.900
 3607POPC   C4B47614   5.389  21.559   7.289
 3608POPC   NC347615   9.037  11.126   5.088
 3608POPC   PO447616   9.208  11.568   5.586
 3608POPC   GL147617   8.876  11.447   5.804
 3608POPC   GL247618   8.757  11.132   5.586
 3608POPC   C1A47619   8.978  11.469   6.271
 3608POPC   D2A47620   9.012  11.333   6.721
 3608POPC   C3A47621   8.985  11.442   7.149
 3608POPC   C4A47622   9.213  11.203   7.434
 3608POPC   C1B47623   8.775  11.020   6.052
 3608POPC   C2B47624   8.614  11.138   6.459
 3608POPC   C3B47625   8.620  11.053   6.905
 3608POPC   C4B47626   8.739  11.032   7.321
 3609POPC   NC347627   2.509  33.284   5.423
 3609POPC   PO447628   2.883  32.734   5.224
 3609POPC   GL147629   2.863  32.908   5.662
 3609POPC   GL247630   2.902  33.245   5.829
 3609POPC   C1A47631   2.877  32.823   6.130
 3609POPC   D2A47632   2.553  32.812   6.474
 3609POPC   C3A47633   2.741  32.873   6.857
 3609POPC   C4A47634   2.699  32.909   7.258
 3609POPC   C1B47635   2.627  33.291   6.233
 3609POPC   C2B47636   2.568  33.335   6.712
 3609POPC   C3B47637   2.424  33.347   7.146
 3609POPC   C4B47638   2.533  33.287   7.571
 3610POPC   NC347639  26.940  10.311   5.304
 3610POPC   PO447640  26.662  10.879   5.626
 3610POPC   GL147641  26.943  10.655   5.859
 3610POPC   GL247642  26.889  10.326   5.826
 3610POPC   C1A47643  26.928  10.705   6.283
 3610POPC   D2A47644  26.535  10.542   6.461
 3610POPC   C3A47645  26.542  10.422   6.889
 3610POPC   C4A47646  26.701  10.640   7.232
 3610POPC   C1B47647  27.092  10.231   6.229
 3610POPC   C2B47648  26.982  10.285   6.622
 3610POPC   C3B47649  27.108  10.325   7.005
 3610POPC   C4B47650  27.007  10.266   7.386
 3611POPC   NC347651  35.457  27.871   4.998
 3611POPC   PO447652  35.425  28.380   5.490
 3611POPC   GL147653  35.306  28.123   5.833
 3611POPC   GL247654  34.994  28.059   5.918
 3611POPC   C1A47655  35.528  28.040   6.203
 3611POPC   D2A47656  35.618  28.271   6.553
 3611POPC   C3A47657  35.491  28.137   6.926
 3611POPC   C4A47658  35.581  28.367   7.308
 3611POPC   C1B47659  35.128  28.378   6.269
 3611POPC   C2B47660  35.160  28.490   6.742
 3611POPC   C3B47661  35.064  28.357   7.201
 3611POPC   C4B47662  34.909  28.517   7.619
 3612POPC   NC347663   6.274   0.703   5.557
 3612POPC   PO447664   6.886   0.434   5.574
 3612POPC   GL147665   6.890   0.519   5.990
 3612POPC   GL247666   6.525   0.465   5.951
 3612POPC   C1A47667   6.920   0.477   6.417
 3612POPC   D2A47668   6.842   0.049   6.564
 3612POPC   C3A47669   7.003  44.991   6.966
 3612POPC   C4A47670   7.023   0.379   7.126
 3612POPC   C1B47671   6.438   0.333   6.352
 3612POPC   C2B47672   6.482   0.644   6.651
 3612POPC   C3B47673   6.290   0.724   6.997
 3612POPC   C4B47674   6.325   0.301   7.104
 3613POPC   NC347675  39.200  38.387   5.254
 3613POPC   PO447676  38.852  38.951   5.466
 3613POPC   GL147677  39.069  38.611   5.706
 3613POPC   GL247678  39.380  38.364   5.733
 3613POPC   C1A47679  38.973  38.383   6.080
 3613POPC   D2A47680  38.817  38.598   6.421
 3613POPC   C3A47681  38.919  38.483   6.800
 3613POPC   C4A47682  39.105  38.585   7.200
 3613POPC   C1B47683  39.400  38.100   6.112
 3613POPC   C2B47684  39.230  38.161   6.509
 3613POPC   C3B47685  39.351  38.223   6.936
 3613POPC   C4B47686  39.428  38.232   7.385
 3614POPC   NC347687  31.140  42.922   5.249
 3614POPC   PO447688  31.756  43.280   5.408
 3614POPC   GL147689  31.561  43.162   5.806
 3614POPC   GL247690  31.304  42.899   5.744
 3614POPC   C1A47691  31.636  42.984   6.227
 3614POPC   D2A47692  31.725  42.862   6.662
 3614POPC   C3A47693  31.574  43.066   7.052
 3614POPC   C4A47694  31.753  42.887   7.435
 3614POPC   C1B47695  31.145  43.051   6.134
 3614POPC   C2B47696  31.273  43.117   6.569
 3614POPC   C3B47697  31.086  42.974   6.932
 3614POPC   C4B47698  31.043  43.180   7.280
 3615POPC   NC347699  25.409  44.313   5.345
 3615POPC   PO447700  25.197  43.766   5.013
 3615POPC   GL147701  25.156  43.890   5.500
 3615POPC   GL247702  25.498  43.864   5.681
 3615POPC   C1A47703  25.029  43.923   5.977
 3615POPC   D2A47704  25.058  43.678   6.380
 3615POPC   C3A47705  24.914  43.843   6.775
 3615POPC   C4A47706  25.026  43.776   7.218
 3615POPC   C1B47707  25.505  43.929   6.139
 3615POPC   C2B47708  25.359  44.045   6.516
 3615POPC   C3B47709  25.414  43.924   6.923
 3615POPC   C4B47710  25.572  43.853   7.346
 3616POPC   NC347711  36.169  20.778   5.302
 3616POPC   PO447712  35.627  20.790   5.730
 3616POPC   GL147713  36.098  20.733   5.798
 3616POPC   GL247714  36.247  20.399   5.796
 3616POPC   C1A47715  36.333  20.864   6.137
 3616POPC   D2A47716  36.137  20.703   6.507
 3616POPC   C3A47717  36.074  20.978   6.852
 3616POPC   C4A47718  36.109  20.777   7.262
 3616POPC   C1B47719  36.461  20.379   6.155
 3616POPC   C2B47720  36.424  20.264   6.554
 3616POPC   C3B47721  36.295  20.425   6.929
 3616POPC   C4B47722  36.290  20.293   7.326
 3617POPC   NC347723  10.730  21.402   5.436
 3617POPC   PO447724  10.164  21.778   5.354
 3617POPC   GL147725  10.298  21.589   5.764
 3617POPC   GL247726  10.569  21.358   5.903
 3617POPC   C1A47727  10.470  21.757   6.180
 3617POPC   D2A47728  10.621  21.565   6.548
 3617POPC   C3A47729  10.436  21.670   6.954
 3617POPC   C4A47730  10.227  21.544   7.354
 3617POPC   C1B47731  10.545  21.093   6.256
 3617POPC   C2B47732  10.373  21.091   6.670
 3617POPC   C3B47733  10.451  21.135   7.112
 3617POPC   C4B47734  10.690  21.318   7.453
 3618POPC   NC347735  25.166  29.711   5.429
 3618POPC   PO447736  25.597  30.218   5.659
 3618POPC   GL147737  25.348  29.882   5.872
 3618POPC   GL247738  25.157  30.112   5.971
 3618POPC   C1A47739  25.321  29.745   6.302
 3618POPC   D2A47740  25.267  29.929   6.738
 3618POPC   C3A47741  25.235  29.679   7.108
 3618POPC   C4A47742  25.165  29.822   7.559
 3618POPC   C1B47743  24.925  30.071   6.356
 3618POPC   C2B47744  24.795  30.221   6.767
 3618POPC   C3B47745  24.925  30.087   7.169
 3618POPC   C4B47746  24.987  30.299   7.631
 3619POPC   NC347747  33.651  10.273   5.358
 3619POPC   PO447748  33.877  10.833   5.112
 3619POPC   GL147749  33.805  10.668   5.647
 3619POPC   GL247750  33.496  10.491   5.784
 3619POPC   C1A47751  33.893  10.463   6.100
 3619POPC   D2A47752  34.093  10.313   6.476
 3619POPC   C3A47753  33.942  10.484   6.852
 3619POPC   C4A47754  33.936  10.546   7.267
 3619POPC   C1B47755  33.419  10.616   6.212
 3619POPC   C2B47756  33.501  10.405   6.611
 3619POPC   C3B47757  33.466  10.529   7.056
 3619POPC   C4B47758  33.495  10.629   7.516
 3620POPC   NC347759  34.088  11.945   5.530
 3620POPC   PO447760  34.740  12.061   5.608
 3620POPC   GL147761  34.394  12.089   5.909
 3620POPC   GL247762  34.291  12.387   5.848
 3620POPC   C1A47763  34.426  11.933   6.326
 3620POPC   D2A47764  34.817  12.048   6.525
 3620POPC   C3A47765  34.905  12.065   6.958
 3620POPC   C4A47766  34.767  11.853   7.325
 3620POPC   C1B47767  34.645  12.458   6.170
 3620POPC   C2B47768  34.761  12.632   6.581
 3620POPC   C3B47769  34.673  12.527   6.988
 3620POPC   C4B47770  34.454  12.245   7.217
 3621POPC   NC347771   0.895  38.823   5.217
 3621POPC   PO447772   1.431  38.494   5.513
 3621POPC   GL147773   1.158  38.499   5.859
 3621POPC   GL247774   0.962  38.764   6.033
 3621POPC   C1A47775   1.245  38.327   6.236
 3621POPC   D2A47776   1.603  38.138   6.453
 3621POPC   C3A47777   1.558  38.298   6.859
 3621POPC   C4A47778   1.189  38.432   7.100
 3621POPC   C1B47779   1.236  38.918   6.360
 3621POPC   C2B47780   1.400  38.844   6.785
 3621POPC   C3B47781   1.319  38.948   7.214
 3621POPC   C4B47782   0.977  38.789   7.475
 3622POPC   NC347783  33.201   1.596   5.420
 3622POPC   PO447784  32.697   1.130   5.385
 3622POPC   GL147785  32.885   1.209   5.760
 3622POPC   GL247786  32.785   1.544   5.746
 3622POPC   C1A47787  32.961   1.041   6.179
 3622POPC   D2A47788  32.941   1.297   6.555
 3622POPC   C3A47789  33.167   1.208   6.896
 3622POPC   C4A47790  33.030   1.088   7.302
 3622POPC   C1B47791  33.039   1.579   6.123
 3622POPC   C2B47792  33.347   1.605   6.457
 3622POPC   C3B47793  33.394   1.671   6.897
 3622POPC   C4B47794  33.139   1.585   7.234
 3623POPC   NC347795  44.275  29.033   5.644
 3623POPC   PO447796  43.679  29.315   5.418
 3623POPC   GL147797  43.779  29.162   5.819
 3623POPC   GL247798  43.639  28.833   5.755
 3623POPC   C1A47799  44.015  29.149   6.224
 3623POPC   D2A47800  44.227  29.446   6.503
 3623POPC   C3A47801  43.994  29.294   6.869
 3623POPC   C4A47802  44.106  29.067   7.231
 3623POPC   C1B47803  43.509  28.852   6.185
 3623POPC   C2B47804  43.742  28.861   6.581
 3623POPC   C3B47805  43.641  28.859   7.002
 3623POPC   C4B47806  43.563  29.229   7.193
 3624POPC   NC347807  39.390  23.490   5.324
 3624POPC   PO447808  39.116  24.111   5.369
 3624POPC   GL147809  39.383  23.918   5.733
 3624POPC   GL247810  39.437  23.563   5.896
 3624POPC   C1A47811  39.354  24.011   6.191
 3624POPC   D2A47812  39.306  24.291   6.547
 3624POPC   C3A47813  39.370  24.074   6.962
 3624POPC   C4A47814  39.041  23.884   7.243
 3624POPC   C1B47815  39.463  23.482   6.382
 3624POPC   C2B47816  39.264  23.569   6.812
 3624POPC   C3B47817  39.407  23.511   7.238
 3624POPC   C4B47818  39.732  23.403   7.549
 3625POPC   NC347819  26.299   2.194   5.342
 3625POPC   PO447820  25.666   2.068   5.605
 3625POPC   GL147821  26.068   2.012   5.786
 3625POPC   GL247822  26.204   1.698   5.670
 3625POPC   C1A47823  26.087   2.021   6.221
 3625POPC   D2A47824  25.872   1.932   6.605
 3625POPC   C3A47825  26.047   2.138   6.955
 3625POPC   C4A47826  25.790   2.002   7.271
 3625POPC   C1B47827  26.335   1.594   6.124
 3625POPC   C2B47828  26.367   1.762   6.573
 3625POPC   C3B47829  26.276   1.684   7.005
 3625POPC   C4B47830  26.329   1.924   7.374
 3626POPC   NC347831  44.611  36.562   5.470
 3626POPC   PO447832  44.476  35.959   5.326
 3626POPC   GL147833  44.693  35.878   5.719
 3626POPC   GL247834  44.946  36.142   5.745
 3626POPC   C1A47835  44.674  36.006   6.169
 3626POPC   D2A47836  44.496  36.221   6.528
 3626POPC   C3A47837  44.625  36.121   6.939
 3626POPC   C4A47838  44.398  35.952   7.257
 3626POPC   C1B47839   0.138  36.266   6.139
 3626POPC   C2B47840   0.040  36.275   6.587
 3626POPC   C3B47841   0.073  36.322   7.044
 3626POPC   C4B47842  44.887  36.153   7.416
 3627POPC   NC347843  17.989   1.079   5.327
 3627POPC   PO447844  18.493   1.504   5.201
 3627POPC   GL147845  18.357   1.252   5.628
 3627POPC   GL247846  18.028   1.382   5.770
 3627POPC   C1A47847  18.336   1.170   6.121
 3627POPC   D2A47848  18.509   1.187   6.570
 3627POPC   C3A47849  18.349   1.058   6.966
 3627POPC   C4A47850  18.365   1.380   7.246
 3627POPC   C1B47851  18.048   1.628   6.180
 3627POPC   C2B47852  18.104   1.589   6.648
 3627POPC   C3B47853  17.905   1.557   7.069
 3627POPC   C4B47854  17.923   1.416   7.510
 3628POPC   NC347855  28.141  35.682   5.487
 3628POPC   PO447856  28.590  35.127   5.408
 3628POPC   GL147857  28.505  35.380   5.745
 3628POPC   GL247858  28.787  35.611   5.764
 3628POPC   C1A47859  28.209  35.430   6.087
 3628POPC   D2A47860  28.167  35.565   6.494
 3628POPC   C3A47861  28.260  35.239   6.751
 3628POPC   C4A47862  28.303  35.034   7.123
 3628POPC   C1B47863  28.631  35.684   6.202
 3628POPC   C2B47864  28.657  35.680   6.674
 3628POPC   C3B47865  28.594  35.461   7.065
 3628POPC   C4B47866  28.704  35.576   7.496
 3629POPC   NC347867   5.254   2.166   5.274
 3629POPC   PO447868   5.455   2.808   5.322
 3629POPC   GL147869   5.230   2.724   5.700
 3629POPC   GL247870   4.917   2.548   5.649
 3629POPC   C1A47871   5.052   2.885   6.081
 3629POPC   D2A47872   5.035   3.134   6.462
 3629POPC   C3A47873   5.134   2.838   6.781
 3629POPC   C4A47874   5.221   2.710   7.182
 3629POPC   C1B47875   4.693   2.497   6.075
 3629POPC   C2B47876   4.707   2.659   6.519
 3629POPC   C3B47877   4.755   2.458   6.934
 3629POPC   C4B47878   4.816   2.489   7.375
 3630POPC   NC347879  26.009  13.322   5.182
 3630POPC   PO447880  26.048  12.692   5.338
 3630POPC   GL147881  26.198  12.739   5.747
 3630POPC   GL247882  25.935  12.886   5.866
 3630POPC   C1A47883  26.276  12.643   6.180
 3630POPC   D2A47884  26.011  12.412   6.485
 3630POPC   C3A47885  26.072  12.542   6.919
 3630POPC   C4A47886  26.184  12.892   7.240
 3630POPC   C1B47887  25.802  13.134   6.154
 3630POPC   C2B47888  25.739  13.102   6.555
 3630POPC   C3B47889  25.905  13.194   6.919
 3630POPC   C4B47890  25.750  13.178   7.290
 3631POPC   NC347891   4.188  31.305   5.364
 3631POPC   PO447892   4.286  30.626   5.455
 3631POPC   GL147893   4.196  30.690   5.838
 3631POPC   GL247894   4.101  31.039   5.819
 3631POPC   C1A47895   4.284  30.492   6.231
 3631POPC   D2A47896   4.074  30.372   6.609
 3631POPC   C3A47897   4.332  30.475   6.960
 3631POPC   C4A47898   4.538  30.657   7.313
 3631POPC   C1B47899   4.247  30.996   6.239
 3631POPC   C2B47900   4.409  30.842   6.623
 3631POPC   C3B47901   4.230  30.983   7.029
 3631POPC   C4B47902   4.009  31.135   7.402
 3632POPC   NC347903  21.804  16.557   5.119
 3632POPC   PO447904  22.101  17.096   5.475
 3632POPC   GL147905  22.171  16.788   5.779
 3632POPC   GL247906  22.501  16.652   5.838
 3632POPC   C1A47907  22.093  16.722   6.197
 3632POPC   D2A47908  21.866  16.845   6.542
 3632POPC   C3A47909  22.006  16.895   6.955
 3632POPC   C4A47910  22.086  16.821   7.435
 3632POPC   C1B47911  22.600  16.772   6.280
 3632POPC   C2B47912  22.461  16.968   6.662
 3632POPC   C3B47913  22.504  16.910   7.123
 3632POPC   C4B47914  22.543  16.646   7.503
 3633POPC   NC347915  17.671  41.259   5.608
 3633POPC   PO447916  18.105  41.737   5.509
 3633POPC   GL147917  17.864  41.650   5.911
 3633POPC   GL247918  17.503  41.607   5.929
 3633POPC   C1A47919  17.714  41.590   6.375
 3633POPC   D2A47920  17.632  41.314   6.721
 3633POPC   C3A47921  17.657  41.504   7.148
 3633POPC   C4A47922  17.780  41.639   7.551
 3633POPC   C1B47923  17.266  41.795   6.295
 3633POPC   C2B47924  17.348  41.734   6.763
 3633POPC   C3B47925  17.158  41.574   7.180
 3633POPC   C4B47926  17.092  41.358   7.600
 3634POPC   NC347927  15.623   2.973   5.415
 3634POPC   PO447928  16.237   2.719   5.462
 3634POPC   GL147929  16.054   2.904   5.852
 3634POPC   GL247930  15.995   2.570   5.936
 3634POPC   C1A47931  16.009   2.988   6.332
 3634POPC   D2A47932  16.108   2.749   6.761
 3634POPC   C3A47933  16.281   2.811   7.198
 3634POPC   C4A47934  16.148   2.692   7.641
 3634POPC   C1B47935  15.932   2.445   6.372
 3634POPC   C2B47936  15.855   2.307   6.801
 3634POPC   C3B47937  15.880   2.490   7.212
 3634POPC   C4B47938  15.801   2.929   7.357
 3635POPC   NC347939  35.186   7.669   5.443
 3635POPC   PO447940  35.447   7.058   5.636
 3635POPC   GL147941  35.383   7.466   5.897
 3635POPC   GL247942  35.011   7.584   5.912
 3635POPC   C1A47943  35.298   7.505   6.359
 3635POPC   D2A47944  35.479   7.664   6.752
 3635POPC   C3A47945  35.418   7.383   7.117
 3635POPC   C4A47946  35.282   7.178   7.544
 3635POPC   C1B47947  34.913   7.892   6.214
 3635POPC   C2B47948  35.037   7.893   6.626
 3635POPC   C3B47949  35.033   7.716   7.034
 3635POPC   C4B47950  35.052   7.618   7.465
 3636POPC   NC347951  34.735  15.538   5.483
 3636POPC   PO447952  34.663  16.137   5.216
 3636POPC   GL147953  34.750  16.025   5.672
 3636POPC   GL247954  35.019  15.762   5.832
 3636POPC   C1A47955  34.752  16.093   6.126
 3636POPC   D2A47956  34.865  16.040   6.554
 3636POPC   C3A47957  34.581  16.135   6.896
 3636POPC   C4A47958  34.611  16.332   7.276
 3636POPC   C1B47959  34.744  15.562   6.147
 3636POPC   C2B47960  34.597  15.583   6.553
 3636POPC   C3B47961  34.778  15.674   6.943
 3636POPC   C4B47962  34.582  15.810   7.296
 3637POPC   NC347963  10.097  44.134   5.590
 3637POPC   PO447964   9.644  43.743   5.230
 3637POPC   GL147965   9.722  43.784   5.736
 3637POPC   GL247966   9.608  44.125   5.796
 3637POPC   C1A47967   9.770  43.936   6.231
 3637POPC   D2A47968   9.804  44.190   6.644
 3637POPC   C3A47969   9.950  43.976   7.044
 3637POPC   C4A47970  10.189  43.571   7.099
 3637POPC   C1B47971   9.367  44.230   6.197
 3637POPC   C2B47972   9.344  44.006   6.599
 3637POPC   C3B47973   9.419  44.134   7.041
 3637POPC   C4B47974   9.609  44.034   7.460
 3638POPC   NC347975  41.446   7.925   5.433
 3638POPC   PO447976  41.646   8.561   5.426
 3638POPC   GL147977  41.612   8.325   5.799
 3638POPC   GL247978  41.738   7.986   5.842
 3638POPC   C1A47979  41.497   8.273   6.214
 3638POPC   D2A47980  41.521   8.051   6.623
 3638POPC   C3A47981  41.319   8.160   7.038
 3638POPC   C4A47982  41.493   8.249   7.475
 3638POPC   C1B47983  41.859   7.867   6.256
 3638POPC   C2B47984  41.965   7.782   6.693
 3638POPC   C3B47985  41.640   7.669   6.960
 3638POPC   C4B47986  41.552   7.760   7.351
 3639POPC   NC347987   0.153  15.073   5.342
 3639POPC   PO447988   0.691  15.453   5.366
 3639POPC   GL147989   0.544  15.131   5.699
 3639POPC   GL247990   0.201  15.223   5.814
 3639POPC   C1A47991   0.525  14.921   6.131
 3639POPC   D2A47992   0.652  15.056   6.562
 3639POPC   C3A47993   0.506  15.066   6.979
 3639POPC   C4A47994   0.709  15.008   7.378
 3639POPC   C1B47995   0.062  15.157   6.212
 3639POPC   C2B47996   0.169  15.271   6.611
 3639POPC   C3B47997   0.007  15.239   7.002
 3639POPC   C4B47998   0.209  15.285   7.365
 3640POPC   NC347999  20.069  13.835   5.380
 3640POPC   PO448000  19.657  14.446   5.427
 3640POPC   GL148001  19.789  14.144   5.718
 3640POPC   GL248002  20.061  14.378   5.817
 3640POPC   C1A48003  19.842  14.015   6.157
 3640POPC   D2A48004  19.742  14.196   6.573
 3640POPC   C3A48005  19.964  14.248   6.980
 3640POPC   C4A48006  19.920  14.231   7.405
 3640POPC   C1B48007  19.837  14.537   6.209
 3640POPC   C2B48008  19.896  14.668   6.669
 3640POPC   C3B48009  20.051  14.785   7.077
 3640POPC   C4B48010  19.992  14.717   7.577
 3641POPC   NC348011  36.023  13.138   5.495
 3641POPC   PO448012  36.271  12.572   5.466
 3641POPC   GL148013  36.153  12.724   5.818
 3641POPC   GL248014  35.825  12.702   5.799
 3641POPC   C1A48015  36.314  12.791   6.214
 3641POPC   D2A48016  36.143  12.696   6.609
 3641POPC   C3A48017  36.345  12.762   6.994
 3641POPC   C4A48018  36.229  12.465   7.306
 3641POPC   C1B48019  35.801  12.890   6.204
 3641POPC   C2B48020  36.005  13.182   6.481
 3641POPC   C3B48021  35.935  13.262   6.911
 3641POPC   C4B48022  35.947  12.989   7.248
 3642POPC   NC348023  24.720  34.366   5.457
 3642POPC   PO448024  24.526  35.021   5.276
 3642POPC   GL148025  24.629  34.859   5.702
 3642POPC   GL248026  24.294  34.742   5.800
 3642POPC   C1A48027  24.748  34.531   6.055
 3642POPC   D2A48028  24.818  34.450   6.478
 3642POPC   C3A48029  24.521  34.561   6.806
 3642POPC   C4A48030  24.481  34.359   7.208
 3642POPC   C1B48031  24.263  34.608   6.244
 3642POPC   C2B48032  24.042  34.461   6.636
 3642POPC   C3B48033  24.028  34.185   7.035
 3642POPC   C4B48034  24.052  34.274   7.492
 3643POPC   NC348035   6.609  26.985   4.996
 3643POPC   PO448036   6.408  26.986   5.613
 3643POPC   GL148037   6.489  26.794   5.959
 3643POPC   GL248038   6.720  26.527   5.860
 3643POPC   C1A48039   6.670  26.985   6.304
 3643POPC   D2A48040   6.805  27.217   6.639
 3643POPC   C3A48041   6.604  26.997   6.951
 3643POPC   C4A48042   6.744  26.629   7.139
 3643POPC   C1B48043   6.713  26.479   6.299
 3643POPC   C2B48044   6.576  26.469   6.687
 3643POPC   C3B48045   6.421  26.247   6.978
 3643POPC   C4B48046   6.136  26.433   7.176
 3644POPC   NC348047  21.224  30.410   5.483
 3644POPC   PO448048  21.511  29.829   5.457
 3644POPC   GL148049  21.438  29.709   5.830
 3644POPC   GL248050  21.088  29.841   5.780
 3644POPC   C1A48051  21.629  29.690   6.242
 3644POPC   D2A48052  21.850  29.849   6.618
 3644POPC   C3A48053  21.720  29.577   6.941
 3644POPC   C4A48054  21.338  29.716   7.077
 3644POPC   C1B48055  21.112  29.708   6.204
 3644POPC   C2B48056  21.114  29.848   6.614
 3644POPC   C3B48057  20.855  29.719   6.956
 3644POPC   C4B48058  20.925  29.918   7.343
 3645POPC   NC348059   8.417  19.347   5.543
 3645POPC   PO448060   8.078  18.766   5.562
 3645POPC   GL148061   8.031  19.117   5.844
 3645POPC   GL248062   7.920  19.430   5.781
 3645POPC   C1A48063   8.254  19.240   6.213
 3645POPC   D2A48064   8.200  18.915   6.534
 3645POPC   C3A48065   8.166  19.011   6.960
 3645POPC   C4A48066   8.559  19.059   7.141
 3645POPC   C1B48067   7.759  19.403   6.195
 3645POPC   C2B48068   7.928  19.350   6.595
 3645POPC   C3B48069   8.037  19.526   6.959
 3645POPC   C4B48070   7.974  19.317   7.323
 3646POPC   NC348071   5.179   9.384   5.387
 3646POPC   PO448072   5.322   8.620   5.405
 3646POPC   GL148073   5.186   8.958   5.750
 3646POPC   GL248074   5.344   9.266   5.867
 3646POPC   C1A48075   5.040   8.970   6.221
 3646POPC   D2A48076   4.981   9.114   6.688
 3646POPC   C3A48077   5.107   8.839   7.080
 3646POPC   C4A48078   5.253   8.711   7.513
 3646POPC   C1B48079   5.484   9.189   6.293
 3646POPC   C2B48080   5.490   9.067   6.712
 3646POPC   C3B48081   5.338   9.290   7.034
 3646POPC   C4B48082   5.333   9.536   7.333
 3647POPC   NC348083  33.838  18.650   5.406
 3647POPC   PO448084  33.956  18.001   5.451
 3647POPC   GL148085  33.900  18.315   5.795
 3647POPC   GL248086  33.581  18.433   5.814
 3647POPC   C1A48087  33.842  18.491   6.228
 3647POPC   D2A48088  33.903  18.256   6.587
 3647POPC   C3A48089  33.829  18.504   6.913
 3647POPC   C4A48090  34.031  18.679   7.262
 3647POPC   C1B48091  33.420  18.206   6.170
 3647POPC   C2B48092  33.377  18.289   6.591
 3647POPC   C3B48093  33.523  18.095   6.937
 3647POPC   C4B48094  33.790  18.158   7.255
 3648POPC   NC348095  22.989   2.305   5.413
 3648POPC   PO448096  23.432   1.748   5.347
 3648POPC   GL148097  23.108   1.894   5.689
 3648POPC   GL248098  22.783   1.799   5.831
 3648POPC   C1A48099  23.043   2.203   6.066
 3648POPC   D2A48100  22.901   2.333   6.493
 3648POPC   C3A48101  22.975   2.211   6.914
 3648POPC   C4A48102  22.826   1.945   7.215
 3648POPC   C1B48103  22.673   1.911   6.290
 3648POPC   C2B48104  22.775   1.744   6.717
 3648POPC   C3B48105  22.900   1.466   7.087
 3648POPC   C4B48106  22.970   1.606   7.562
 3649POPC   NC348107  22.166   4.898   5.374
 3649POPC   PO448108  22.216   5.558   5.427
 3649POPC   GL148109  22.251   5.346   5.842
 3649POPC   GL248110  22.107   5.019   5.853
 3649POPC   C1A48111  22.089   5.310   6.301
 3649POPC   D2A48112  21.754   5.326   6.639
 3649POPC   C3A48113  21.773   5.395   7.082
 3649POPC   C4A48114  22.030   5.253   7.402
 3649POPC   C1B48115  22.039   4.779   6.205
 3649POPC   C2B48116  22.182   4.862   6.588
 3649POPC   C3B48117  22.100   4.989   6.968
 3649POPC   C4B48118  22.273   4.810   7.327
 3650POPC   NC348119  38.606  22.933   5.414
 3650POPC   PO448120  37.962  22.920   5.422
 3650POPC   GL148121  38.187  23.155   5.746
 3650POPC   GL248122  38.539  23.079   5.890
 3650POPC   C1A48123  38.168  23.217   6.205
 3650POPC   D2A48124  38.195  22.899   6.523
 3650POPC   C3A48125  38.516  22.917   6.863
 3650POPC   C4A48126  38.394  22.745   7.279
 3650POPC   C1B48127  38.671  22.994   6.321
 3650POPC   C2B48128  38.921  23.235   6.617
 3650POPC   C3B48129  39.049  23.131   7.022
 3650POPC   C4B48130  38.772  23.054   7.311
 3651POPC   NC348131   2.402  29.817   5.512
 3651POPC   PO448132   3.034  29.613   5.413
 3651POPC   GL148133   2.847  29.851   5.773
 3651POPC   GL248134   2.989  30.171   5.801
 3651POPC   C1A48135   2.747  29.817   6.223
 3651POPC   D2A48136   2.943  29.586   6.559
 3651POPC   C3A48137   3.109  29.762   6.965
 3651POPC   C4A48138   2.886  29.783   7.326
 3651POPC   C1B48139   2.793  30.327   6.176
 3651POPC   C2B48140   2.551  30.221   6.542
 3651POPC   C3B48141   2.650  30.010   6.935
 3651POPC   C4B48142   2.435  30.008   7.369
 3652POPC   NC348143  38.255  13.067   5.308
 3652POPC   PO448144  38.903  13.072   5.495
 3652POPC   GL148145  38.543  12.849   5.668
 3652POPC   GL248146  38.629  12.596   5.844
 3652POPC   C1A48147  38.232  12.829   6.031
 3652POPC   D2A48148  38.286  12.974   6.465
 3652POPC   C3A48149  38.379  12.731   6.814
 3652POPC   C4A48150  38.166  12.794   7.156
 3652POPC   C1B48151  38.722  12.923   6.178
 3652POPC   C2B48152  38.859  13.219   6.497
 3652POPC   C3B48153  38.941  13.091   6.916
 3652POPC   C4B48154  38.624  13.003   7.186
 3653POPC   NC348155  20.063  35.620   5.569
 3653POPC   PO448156  19.577  35.200   5.485
 3653POPC   GL148157  19.890  35.205   5.813
 3653POPC   GL248158  19.700  35.491   5.926
 3653POPC   C1A48159  19.980  35.240   6.281
 3653POPC   D2A48160  19.884  35.010   6.685
 3653POPC   C3A48161  19.752  35.216   7.060
 3653POPC   C4A48162  19.525  35.326   7.408
 3653POPC   C1B48163  19.545  35.553   6.332
 3653POPC   C2B48164  19.616  35.626   6.776
 3653POPC   C3B48165  19.585  35.829   7.188
 3653POPC   C4B48166  19.493  35.756   7.672
 3654POPC   NC348167  15.965  17.040   5.309
 3654POPC   PO448168  16.054  17.733   5.356
 3654POPC   GL148169  15.774  17.558   5.670
 3654POPC   GL248170  15.885  17.247   5.760
 3654POPC   C1A48171  15.821  17.615   6.116
 3654POPC   D2A48172  15.831  17.470   6.521
 3654POPC   C3A48173  15.814  17.354   6.923
 3654POPC   C4A48174  15.908  17.596   7.266
 3654POPC   C1B48175  16.050  17.153   6.125
 3654POPC   C2B48176  16.285  17.165   6.469
 3654POPC   C3B48177  16.241  17.063   6.886
 3654POPC   C4B48178  16.329  17.271   7.247
 3655POPC   NC348179  13.625  18.551   5.372
 3655POPC   PO448180  13.876  17.946   5.358
 3655POPC   GL148181  13.882  18.256   5.704
 3655POPC   GL248182  13.525  18.241   5.809
 3655POPC   C1A48183  13.897  18.419   6.137
 3655POPC   D2A48184  13.788  18.217   6.523
 3655POPC   C3A48185  14.026  18.129   6.909
 3655POPC   C4A48186  13.789  18.399   7.144
 3655POPC   C1B48187  13.373  18.478   6.186
 3655POPC   C2B48188  13.442  18.628   6.596
 3655POPC   C3B48189  13.291  18.527   6.998
 3655POPC   C4B48190  13.379  18.548   7.414
 3656POPC   NC348191  32.783   8.109   5.451
 3656POPC   PO448192  33.450   8.223   5.316
 3656POPC   GL148193  33.199   8.348   5.695
 3656POPC   GL248194  33.169   8.039   5.870
 3656POPC   C1A48195  32.951   8.385   6.136
 3656POPC   D2A48196  32.712   8.487   6.525
 3656POPC   C3A48197  32.733   8.136   6.826
 3656POPC   C4A48198  32.696   7.983   7.251
 3656POPC   C1B48199  33.269   7.805   6.243
 3656POPC   C2B48200  33.160   7.771   6.682
 3656POPC   C3B48201  33.211   8.067   7.027
 3656POPC   C4B48202  33.432   8.322   7.312
 3657POPC   NC348203  19.851   3.055   5.473
 3657POPC   PO448204  19.570   2.452   5.495
 3657POPC   GL148205  19.563   2.632   5.873
 3657POPC   GL248206  19.910   2.702   5.849
 3657POPC   C1A48207  19.626   2.786   6.286
 3657POPC   D2A48208  19.834   3.007   6.581
 3657POPC   C3A48209  19.651   2.853   6.926
 3657POPC   C4A48210  19.643   2.960   7.327
 3657POPC   C1B48211  20.147   2.733   6.250
 3657POPC   C2B48212  20.277   2.727   6.706
 3657POPC   C3B48213  20.066   2.639   7.124
 3657POPC   C4B48214  20.047   2.802   7.557
 3658POPC   NC348215  17.961  37.886   5.595
 3658POPC   PO448216  18.446  37.412   5.479
 3658POPC   GL148217  18.355  37.593   5.822
 3658POPC   GL248218  18.024  37.448   5.856
 3658POPC   C1A48219  18.576  37.678   6.197
 3658POPC   D2A48220  18.419  37.607   6.619
 3658POPC   C3A48221  18.600  37.717   7.020
 3658POPC   C4A48222  18.652  37.371   7.326
 3658POPC   C1B48223  18.092  37.770   6.222
 3658POPC   C2B48224  18.135  38.017   6.591
 3658POPC   C3B48225  18.084  37.743   6.965
 3658POPC   C4B48226  18.183  37.596   7.349
 3659POPC   NC348227  32.440   9.061   5.504
 3659POPC   PO448228  31.908   8.619   5.506
 3659POPC   GL148229  32.168   8.775   5.880
 3659POPC   GL248230  32.127   9.143   5.935
 3659POPC   C1A48231  32.319   8.829   6.342
 3659POPC   D2A48232  32.314   9.111   6.743
 3659POPC   C3A48233  32.254   8.913   7.159
 3659POPC   C4A48234  32.033   8.574   7.424
 3659POPC   C1B48235  32.522   9.312   6.171
 3659POPC   C2B48236  32.630   9.528   6.597
 3659POPC   C3B48237  32.663   9.405   7.064
 3659POPC   C4B48238  32.541   9.254   7.506
 3660POPC   NC348239   6.333  12.359   5.079
 3660POPC   PO448240   6.742  12.129   5.496
 3660POPC   GL148241   6.791  12.050   5.895
 3660POPC   GL248242   6.571  11.793   5.910
 3660POPC   C1A48243   6.896  11.986   6.327
 3660POPC   D2A48244   6.934  12.242   6.694
 3660POPC   C3A48245   6.567  12.306   7.027
 3660POPC   C4A48246   6.588  12.323   7.546
 3660POPC   C1B48247   6.358  12.009   6.245
 3660POPC   C2B48248   6.505  11.938   6.668
 3660POPC   C3B48249   6.835  11.846   6.981
 3660POPC   C4B48250   6.533  11.878   7.268
 3661POPC   NC348251   6.278  12.954   5.709
 3661POPC   PO448252   5.689  13.097   5.322
 3661POPC   GL148253   5.605  12.928   5.725
 3661POPC   GL248254   5.876  12.682   5.855
 3661POPC   C1A48255   5.759  13.112   6.102
 3661POPC   D2A48256   6.019  12.938   6.447
 3661POPC   C3A48257   5.763  12.822   6.787
 3661POPC   C4A48258   5.762  12.755   7.203
 3661POPC   C1B48259   6.248  12.526   6.180
 3661POPC   C2B48260   6.249  12.389   6.602
 3661POPC   C3B48261   6.257  12.702   6.923
 3661POPC   C4B48262   6.224  12.577   7.328
 3662POPC   NC348263  21.105  40.440   5.432
 3662POPC   PO448264  21.654  40.849   5.299
 3662POPC   GL148265  21.403  40.833   5.671
 3662POPC   GL248266  21.194  40.620   5.888
 3662POPC   C1A48267  21.565  40.873   6.104
 3662POPC   D2A48268  21.784  40.751   6.477
 3662POPC   C3A48269  21.598  40.894   6.839
 3662POPC   C4A48270  21.584  40.982   7.287
 3662POPC   C1B48271  20.976  40.543   6.285
 3662POPC   C2B48272  21.043  40.674   6.717
 3662POPC   C3B48273  21.137  40.937   7.069
 3662POPC   C4B48274  21.154  40.800   7.530
 3663POPC   NC348275  30.309  30.556   5.357
 3663POPC   PO448276  30.925  30.483   5.482
 3663POPC   GL148277  30.634  30.555   5.816
 3663POPC   GL248278  30.438  30.871   5.766
 3663POPC   C1A48279  30.642  30.339   6.222
 3663POPC   D2A48280  30.495  30.569   6.561
 3663POPC   C3A48281  30.664  30.622   6.981
 3663POPC   C4A48282  30.875  30.307   7.137
 3663POPC   C1B48283  30.599  31.015   6.189
 3663POPC   C2B48284  30.674  31.023   6.653
 3663POPC   C3B48285  30.301  30.959   6.867
 3663POPC   C4B48286  30.217  30.685   7.208
 3664POPC   NC348287   1.133  15.642   5.404
 3664POPC   PO448288   1.277  15.017   5.520
 3664POPC   GL148289   1.353  15.338   5.825
 3664POPC   GL248290   0.987  15.432   5.839
 3664POPC   C1A48291   1.454  15.143   6.247
 3664POPC   D2A48292   1.239  14.954   6.597
 3664POPC   C3A48293   1.289  15.121   7.014
 3664POPC   C4A48294   1.233  15.051   7.461
 3664POPC   C1B48295   0.970  15.295   6.251
 3664POPC   C2B48296   1.004  15.416   6.688
 3664POPC   C3B48297   0.896  15.416   7.121
 3664POPC   C4B48298   0.913  15.442   7.592
 3665POPC   NC348299  30.393   2.337   5.447
 3665POPC   PO448300  29.855   2.784   5.310
 3665POPC   GL148301  30.049   2.733   5.734
 3665POPC   GL248302  29.728   2.751   5.949
 3665POPC   C1A48303  30.180   2.693   6.186
 3665POPC   D2A48304  30.038   2.841   6.601
 3665POPC   C3A48305  30.217   2.641   6.969
 3665POPC   C4A48306  30.050   2.559   7.375
 3665POPC   C1B48307  29.467   2.983   6.269
 3665POPC   C2B48308  29.521   3.041   6.727
 3665POPC   C3B48309  29.750   2.831   7.061
 3665POPC   C4B48310  29.698   2.891   7.531
 3666POPC   NC348311   0.153  43.353   5.265
 3666POPC   PO448312   0.538  42.827   5.462
 3666POPC   GL148313   0.445  43.098   5.821
 3666POPC   GL248314   0.177  43.333   5.779
 3666POPC   C1A48315   0.632  43.174   6.236
 3666POPC   D2A48316   0.574  43.049   6.670
 3666POPC   C3A48317   0.699  43.253   7.045
 3666POPC   C4A48318   0.545  43.401   7.471
 3666POPC   C1B48319   0.103  43.165   6.211
 3666POPC   C2B48320  44.934  43.340   6.544
 3666POPC   C3B48321   0.178  43.351   6.880
 3666POPC   C4B48322   0.082  43.434   7.278
 3667POPC   NC348323  27.413  26.564   5.622
 3667POPC   PO448324  27.893  26.828   5.189
 3667POPC   GL148325  27.840  26.838   5.766
 3667POPC   GL248326  27.786  26.531   6.007
 3667POPC   C1A48327  27.538  26.893   6.214
 3667POPC   D2A48328  27.466  27.071   6.645
 3667POPC   C3A48329  27.723  27.085   7.028
 3667POPC   C4A48330  27.441  27.056   7.350
 3667POPC   C1B48331  28.036  26.742   6.264
 3667POPC   C2B48332  27.872  26.758   6.647
 3667POPC   C3B48333  27.537  26.632   6.923
 3667POPC   C4B48334  27.656  26.607   7.337
 3668POPC   NC348335  28.097  25.838   5.548
 3668POPC   PO448336  28.534  26.334   5.364
 3668POPC   GL148337  28.635  26.188   5.853
 3668POPC   GL248338  28.626  25.867   6.023
 3668POPC   C1A48339  28.624  26.225   6.355
 3668POPC   D2A48340  28.280  26.358   6.602
 3668POPC   C3A48341  28.314  26.159   7.000
 3668POPC   C4A48342  28.642  25.973   7.238
 3668POPC   C1B48343  28.205  25.957   6.211
 3668POPC   C2B48344  28.026  25.747   6.573
 3668POPC   C3B48345  28.258  25.620   6.945
 3668POPC   C4B48346  28.176  25.780   7.336
 3669POPC   NC348347  28.619   0.431   5.643
 3669POPC   PO448348  29.207   0.308   5.311
 3669POPC   GL148349  29.202   0.379   5.757
 3669POPC   GL248350  29.035   0.661   5.864
 3669POPC   C1A48351  29.445   0.560   6.138
 3669POPC   D2A48352  29.229   0.661   6.511
 3669POPC   C3A48353  29.438   0.594   6.876
 3669POPC   C4A48354  29.370   0.730   7.246
 3669POPC   C1B48355  28.789   0.587   6.257
 3669POPC   C2B48356  28.720   0.419   6.679
 3669POPC   C3B48357  28.955   0.484   7.057
 3669POPC   C4B48358  28.926   0.628   7.494
 3670POPC   NC348359  28.791  20.471   5.473
 3670POPC   PO448360  29.399  20.591   5.333
 3670POPC   GL148361  29.264  20.664   5.763
 3670POPC   GL248362  28.966  20.875   5.744
 3670POPC   C1A48363  29.327  20.589   6.228
 3670POPC   D2A48364  29.212  20.755   6.631
 3670POPC   C3A48365  29.184  20.528   7.018
 3670POPC   C4A48366  29.234  20.535   7.468
 3670POPC   C1B48367  28.849  20.811   6.183
 3670POPC   C2B48368  28.691  20.881   6.595
 3670POPC   C3B48369  28.846  20.930   6.984
 3670POPC   C4B48370  28.769  20.741   7.362
 3671POPC   NC348371  22.547  20.399   5.584
 3671POPC   PO448372  23.161  20.228   5.311
 3671POPC   GL148373  23.054  20.419   5.699
 3671POPC   GL248374  22.904  20.753   5.692
 3671POPC   C1A48375  22.982  20.354   6.137
 3671POPC   D2A48376  23.158  20.420   6.540
 3671POPC   C3A48377  22.971  20.391   6.945
 3671POPC   C4A48378  23.170  20.463   7.387
 3671POPC   C1B48379  22.669  20.764   6.106
 3671POPC   C2B48380  22.646  20.554   6.508
 3671POPC   C3B48381  22.511  20.648   6.931
 3671POPC   C4B48382  22.731  20.689   7.304
 3672POPC   NC348383  39.960  24.933   5.327
 3672POPC   PO448384  40.300  25.512   5.355
 3672POPC   GL148385  40.209  25.213   5.667
 3672POPC   GL248386  40.408  24.879   5.645
 3672POPC   C1A48387  39.901  25.077   6.001
 3672POPC   D2A48388  39.663  25.282   6.345
 3672POPC   C3A48389  39.820  25.216   6.770
 3672POPC   C4A48390  39.747  25.527   7.089
 3672POPC   C1B48391  40.472  25.093   6.068
 3672POPC   C2B48392  40.223  25.136   6.440
 3672POPC   C3B48393  40.353  25.150   6.881
 3672POPC   C4B48394  40.129  25.202   7.263
 3673POPC   NC348395  19.901  19.538   5.549
 3673POPC   PO448396  19.695  20.141   5.346
 3673POPC   GL148397  19.732  19.985   5.724
 3673POPC   GL248398  20.051  19.986   5.857
 3673POPC   C1A48399  19.629  19.980   6.147
 3673POPC   D2A48400  19.653  19.727   6.513
 3673POPC   C3A48401  19.832  19.964   6.827
 3673POPC   C4A48402  19.657  20.102   7.196
 3673POPC   C1B48403  20.039  19.652   6.161
 3673POPC   C2B48404  20.144  19.564   6.569
 3673POPC   C3B48405  19.880  19.456   6.904
 3673POPC   C4B48406  19.823  19.640   7.281
 3674POPC   NC348407   9.335   8.518   5.327
 3674POPC   PO448408   9.908   8.320   5.614
 3674POPC   GL148409   9.624   8.185   5.860
 3674POPC   GL248410   9.393   7.886   5.757
 3674POPC   C1A48411   9.862   8.131   6.262
 3674POPC   D2A48412   9.904   8.347   6.645
 3674POPC   C3A48413   9.658   8.244   6.981
 3674POPC   C4A48414   9.342   8.466   7.120
 3674POPC   C1B48415   9.418   7.907   6.206
 3674POPC   C2B48416   9.637   7.844   6.618
 3674POPC   C3B48417   9.370   7.825   6.953
 3674POPC   C4B48418   9.231   7.624   7.302
 3675POPC   NC348419  15.857  29.486   5.323
 3675POPC   PO448420  16.211  28.895   5.361
 3675POPC   GL148421  16.180  29.099   5.781
 3675POPC   GL248422  15.817  29.169   5.788
 3675POPC   C1A48423  16.090  29.022   6.240
 3675POPC   D2A48424  16.032  28.819   6.640
 3675POPC   C3A48425  15.941  29.079   6.988
 3675POPC   C4A48426  16.095  29.127   7.370
 3675POPC   C1B48427  15.763  29.413   6.196
 3675POPC   C2B48428  15.707  29.324   6.594
 3675POPC   C3B48429  15.677  29.544   6.960
 3675POPC   C4B48430  15.744  29.486   7.356
 3676POPC   NC348431  23.544  21.441   5.214
 3676POPC   PO448432  23.442  22.022   5.326
 3676POPC   GL148433  23.521  21.709   5.782
 3676POPC   GL248434  23.540  21.336   5.804
 3676POPC   C1A48435  23.769  21.571   6.198
 3676POPC   D2A48436  23.819  21.368   6.610
 3676POPC   C3A48437  24.129  21.556   6.835
 3676POPC   C4A48438  23.881  21.784   7.112
 3676POPC   C1B48439  23.678  21.067   6.167
 3676POPC   C2B48440  23.508  20.973   6.559
 3676POPC   C3B48441  23.446  21.209   6.910
 3676POPC   C4B48442  23.803  21.248   7.139
 3677POPC   NC348443  20.507  32.666   5.538
 3677POPC   PO448444  20.880  32.149   5.292
 3677POPC   GL148445  20.821  32.259   5.744
 3677POPC   GL248446  20.484  32.291   5.881
 3677POPC   C1A48447  20.828  31.996   6.126
 3677POPC   D2A48448  20.964  31.844   6.520
 3677POPC   C3A48449  20.849  32.157   6.798
 3677POPC   C4A48450  20.676  32.324   7.137
 3677POPC   C1B48451  20.541  32.442   6.290
 3677POPC   C2B48452  20.375  32.448   6.699
 3677POPC   C3B48453  20.338  32.674   7.071
 3677POPC   C4B48454  20.529  32.726   7.454
 3678POPC   NC348455  41.132  23.585   5.408
 3678POPC   PO448456  40.498  23.598   5.354
 3678POPC   GL148457  40.758  23.681   5.761
 3678POPC   GL248458  41.063  23.920   5.798
 3678POPC   C1A48459  40.978  23.533   6.150
 3678POPC   D2A48460  41.049  23.739   6.574
 3678POPC   C3A48461  40.905  23.532   6.964
 3678POPC   C4A48462  40.724  23.650   7.351
 3678POPC   C1B48463  40.827  24.039   6.184
 3678POPC   C2B48464  40.903  24.240   6.604
 3678POPC   C3B48465  40.789  24.104   7.019
 3678POPC   C4B48466  40.801  24.156   7.470
 3679POPC   NC348467  23.540   1.222   5.238
 3679POPC   PO448468  24.305   1.264   5.290
 3679POPC   GL148469  23.967   1.049   5.627
 3679POPC   GL248470  23.600   1.163   5.744
 3679POPC   C1A48471  23.923   0.948   6.107
 3679POPC   D2A48472  23.757   1.009   6.543
 3679POPC   C3A48473  23.995   0.900   6.906
 3679POPC   C4A48474  23.849   1.116   7.249
 3679POPC   C1B48475  23.491   1.278   6.181
 3679POPC   C2B48476  23.677   1.561   6.486
 3679POPC   C3B48477  23.787   1.578   6.899
 3679POPC   C4B48478  23.654   1.607   7.292
 3680POPC   NC348479  31.130   4.623   5.424
 3680POPC   PO448480  31.539   4.159   5.331
 3680POPC   GL148481  31.443   4.107   5.771
 3680POPC   GL248482  31.354   4.452   5.880
 3680POPC   C1A48483  31.548   4.119   6.238
 3680POPC   D2A48484  31.453   4.447   6.565
 3680POPC   C3A48485  31.622   4.320   6.962
 3680POPC   C4A48486  31.497   4.077   7.274
 3680POPC   C1B48487  31.068   4.289   6.229
 3680POPC   C2B48488  31.046   3.995   6.598
 3680POPC   C3B48489  31.074   4.126   7.020
 3680POPC   C4B48490  31.185   4.572   7.076
 3681POPC   NC348491  27.148  44.961   5.642
 3681POPC   PO448492  26.493  44.937   5.412
 3681POPC   GL148493  26.639  44.733   5.796
 3681POPC   GL248494  26.946  44.510   5.848
 3681POPC   C1A48495  26.568  44.533   6.203
 3681POPC   D2A48496  26.663  44.720   6.603
 3681POPC   C3A48497  26.850  44.427   6.871
 3681POPC   C4A48498  26.968  44.474   7.283
 3681POPC   C1B48499  27.069  44.686   6.247
 3681POPC   C2B48500  27.161  44.918   6.631
 3681POPC   C3B48501  26.978  44.931   7.043
 3681POPC   C4B48502  27.105  44.942   7.497
 3682POPC   NC348503   5.495   8.191   5.530
 3682POPC   PO448504   5.126   7.617   5.521
 3682POPC   GL148505   5.245   7.929   5.891
 3682POPC   GL248506   5.598   7.939   6.001
 3682POPC   C1A48507   5.343   8.352   6.154
 3682POPC   D2A48508   5.523   8.611   6.499
 3682POPC   C3A48509   5.433   8.436   6.924
 3682POPC   C4A48510   5.102   8.315   7.229
 3682POPC   C1B48511   5.335   7.881   6.397
 3682POPC   C2B48512   5.225   7.923   6.858
 3682POPC   C3B48513   4.984   7.799   7.248
 3682POPC   C4B48514   5.175   7.638   7.673
 3683POPC   NC348515   1.297  10.785   5.450
 3683POPC   PO448516   1.261  10.219   5.682
 3683POPC   GL148517   1.326  10.572   5.938
 3683POPC   GL248518   1.235  10.928   5.943
 3683POPC   C1A48519   1.440  10.663   6.355
 3683POPC   D2A48520   1.206  10.784   6.687
 3683POPC   C3A48521   1.192  10.525   7.057
 3683POPC   C4A48522   1.325  10.119   7.214
 3683POPC   C1B48523   0.913  10.734   6.238
 3683POPC   C2B48524   0.707  10.773   6.650
 3683POPC   C3B48525   0.894  10.946   7.050
 3683POPC   C4B48526   0.915  10.804   7.481
 3684POPC   NC348527   6.790  36.096   5.495
 3684POPC   PO448528   6.251  36.393   5.413
 3684POPC   GL148529   6.443  36.322   5.798
 3684POPC   GL248530   6.697  36.565   5.724
 3684POPC   C1A48531   6.447  36.053   6.173
 3684POPC   D2A48532   6.731  35.965   6.526
 3684POPC   C3A48533   6.689  36.133   6.936
 3684POPC   C4A48534   6.532  35.979   7.307
 3684POPC   C1B48535   6.764  36.476   6.163
 3684POPC   C2B48536   6.490  36.417   6.536
 3684POPC   C3B48537   6.470  36.598   6.945
 3684POPC   C4B48538   6.474  36.490   7.389
 3685POPC   NC348539  44.728  42.670   5.460
 3685POPC   PO448540  44.707  43.377   5.376
 3685POPC   GL148541  44.676  43.141   5.782
 3685POPC   GL248542  44.931  42.890   5.849
 3685POPC   C1A48543  44.583  43.104   6.239
 3685POPC   D2A48544  44.389  43.159   6.667
 3685POPC   C3A48545  44.652  43.377   6.992
 3685POPC   C4A48546  44.601  43.473   7.437
 3685POPC   C1B48547  44.834  42.652   6.209
 3685POPC   C2B48548  44.661  42.681   6.603
 3685POPC   C3B48549  44.858  42.932   6.891
 3685POPC   C4B48550  44.791  42.998   7.325
 3686POPC   NC348551   2.806  26.320   5.479
 3686POPC   PO448552   2.943  25.636   5.530
 3686POPC   GL148553   2.767  25.927   5.834
 3686POPC   GL248554   2.990  26.234   5.940
 3686POPC   C1A48555   2.578  25.796   6.223
 3686POPC   D2A48556   2.810  25.652   6.562
 3686POPC   C3A48557   2.674  25.728   6.974
 3686POPC   C4A48558   2.972  25.776   7.337
 3686POPC   C1B48559   2.648  26.299   6.223
 3686POPC   C2B48560   2.608  26.152   6.647
 3686POPC   C3B48561   2.581  26.294   7.060
 3686POPC   C4B48562   2.393  26.698   7.046
 3687POPC   NC348563  34.427  18.076   5.292
 3687POPC   PO448564  34.210  18.729   5.140
 3687POPC   GL148565  34.387  18.463   5.636
 3687POPC   GL248566  34.379  18.110   5.784
 3687POPC   C1A48567  34.671  18.421   6.089
 3687POPC   D2A48568  34.687  18.658   6.518
 3687POPC   C3A48569  34.803  18.493   6.953
 3687POPC   C4A48570  34.719  18.055   7.095
 3687POPC   C1B48571  34.235  18.165   6.184
 3687POPC   C2B48572  34.438  18.161   6.573
 3687POPC   C3B48573  34.317  18.361   6.919
 3687POPC   C4B48574  34.275  18.235   7.300
 3688POPC   NC348575   6.324  20.477   5.421
 3688POPC   PO448576   5.711  20.774   5.435
 3688POPC   GL148577   5.919  20.767   5.809
 3688POPC   GL248578   5.958  20.409   5.791
 3688POPC   C1A48579   5.914  20.767   6.268
 3688POPC   D2A48580   6.094  20.909   6.662
 3688POPC   C3A48581   6.098  20.655   7.030
 3688POPC   C4A48582   5.742  20.584   7.253
 3688POPC   C1B48583   6.144  20.308   6.189
 3688POPC   C2B48584   6.038  20.347   6.622
 3688POPC   C3B48585   6.020  20.120   7.034
 3688POPC   C4B48586   5.787  20.108   7.425
 3689POPC   NC348587   7.489  20.663   5.151
 3689POPC   PO448588   7.001  20.828   5.599
 3689POPC   GL148589   7.362  20.609   5.659
 3689POPC   GL248590   7.523  20.886   5.623
 3689POPC   C1A48591   7.501  20.436   6.049
 3689POPC   D2A48592   7.411  20.349   6.488
 3689POPC   C3A48593   7.447  20.549   6.920
 3689POPC   C4A48594   7.806  20.474   7.234
 3689POPC   C1B48595   7.458  20.945   6.064
 3689POPC   C2B48596   7.369  20.879   6.489
 3689POPC   C3B48597   7.030  20.875   6.784
 3689POPC   C4B48598   6.994  20.658   7.188
 3690POPC   NC348599  21.938  32.393   5.400
 3690POPC   PO448600  22.502  32.649   5.535
 3690POPC   GL148601  22.246  32.374   5.814
 3690POPC   GL248602  22.121  32.006   5.717
 3690POPC   C1A48603  22.130  32.404   6.223
 3690POPC   D2A48604  22.356  32.380   6.592
 3690POPC   C3A48605  22.103  32.464   6.960
 3690POPC   C4A48606  22.141  32.289   7.377
 3690POPC   C1B48607  21.947  31.909   6.136
 3690POPC   C2B48608  22.015  31.981   6.591
 3690POPC   C3B48609  22.062  31.776   7.009
 3690POPC   C4B48610  21.880  31.841   7.415
 3691POPC   NC348611  22.382  44.348   5.301
 3691POPC   PO448612  21.892  44.793   5.559
 3691POPC   GL148613  22.062  44.471   5.851
 3691POPC   GL248614  22.403  44.542   5.835
 3691POPC   C1A48615  22.188  44.387   6.303
 3691POPC   D2A48616  22.226  44.615   6.707
 3691POPC   C3A48617  21.833  44.713   6.913
 3691POPC   C4A48618  21.790  44.490   7.279
 3691POPC   C1B48619  22.414  44.959   6.136
 3691POPC   C2B48620  22.490   0.160   6.568
 3691POPC   C3B48621  22.544  44.977   6.975
 3691POPC   C4B48622  22.234  44.765   7.232
 3692POPC   NC348623  18.058  29.302   5.399
 3692POPC   PO448624  18.520  28.913   5.512
 3692POPC   GL148625  18.220  28.979   5.823
 3692POPC   GL248626  18.406  29.307   5.850
 3692POPC   C1A48627  18.210  29.021   6.274
 3692POPC   D2A48628  18.375  29.410   6.481
 3692POPC   C3A48629  18.561  29.272   6.848
 3692POPC   C4A48630  18.551  29.296   7.272
 3692POPC   C1B48631  18.017  29.417   6.040
 3692POPC   C2B48632  17.866  29.342   6.478
 3692POPC   C3B48633  18.053  29.229   6.864
 3692POPC   C4B48634  18.049  29.303   7.292
 3693POPC   NC348635  17.934  27.087   5.338
 3693POPC   PO448636  17.323  26.721   5.455
 3693POPC   GL148637  17.571  26.892   5.762
 3693POPC   GL248638  17.403  27.175   5.745
 3693POPC   C1A48639  17.699  26.785   6.173
 3693POPC   D2A48640  17.502  26.572   6.490
 3693POPC   C3A48641  17.639  26.741   6.857
 3693POPC   C4A48642  17.584  26.640   7.239
 3693POPC   C1B48643  17.550  27.276   6.150
 3693POPC   C2B48644  17.416  27.103   6.548
 3693POPC   C3B48645  17.316  27.126   6.992
 3693POPC   C4B48646  17.393  27.062   7.426
 3694POPC   NC348647  16.268  40.616   5.610
 3694POPC   PO448648  15.895  41.075   5.342
 3694POPC   GL148649  15.892  40.984   5.783
 3694POPC   GL248650  15.721  40.669   5.830
 3694POPC   C1A48651  16.057  40.895   6.213
 3694POPC   D2A48652  16.276  40.572   6.427
 3694POPC   C3A48653  16.338  40.626   6.849
 3694POPC   C4A48654  16.094  40.849   7.120
 3694POPC   C1B48655  15.545  40.845   6.237
 3694POPC   C2B48656  15.629  40.889   6.719
 3694POPC   C3B48657  15.610  40.847   7.176
 3694POPC   C4B48658  15.567  40.566   7.573
 3695POPC   NC348659  26.919  43.515   5.458
 3695POPC   PO448660  26.652  42.867   5.473
 3695POPC   GL148661  26.776  43.144   5.830
 3695POPC   GL248662  27.135  43.254   5.851
 3695POPC   C1A48663  26.566  43.169   6.246
 3695POPC   D2A48664  26.371  43.163   6.634
 3695POPC   C3A48665  26.582  43.070   7.014
 3695POPC   C4A48666  26.750  43.060   7.453
 3695POPC   C1B48667  27.072  43.219   6.279
 3695POPC   C2B48668  26.930  42.941   6.625
 3695POPC   C3B48669  27.066  42.913   7.055
 3695POPC   C4B48670  27.236  43.191   7.353
 3696POPC   NC348671   3.600  36.860   5.391
 3696POPC   PO448672   3.982  37.386   5.311
 3696POPC   GL148673   3.846  37.148   5.730
 3696POPC   GL248674   3.757  36.804   5.871
 3696POPC   C1A48675   3.637  37.210   6.151
 3696POPC   D2A48676   3.771  37.177   6.568
 3696POPC   C3A48677   3.569  37.288   6.915
 3696POPC   C4A48678   3.712  37.109   7.257
 3696POPC   C1B48679   3.351  36.736   6.067
 3696POPC   C2B48680   3.332  36.883   6.495
 3696POPC   C3B48681   3.571  36.780   6.855
 3696POPC   C4B48682   3.399  36.684   7.237
 3697POPC   NC348683  20.620   6.817   5.330
 3697POPC   PO448684  20.460   6.257   5.455
 3697POPC   GL148685  20.760   6.506   5.749
 3697POPC   GL248686  20.795   6.228   5.908
 3697POPC   C1A48687  20.917   6.564   6.232
 3697POPC   D2A48688  20.778   6.260   6.576
 3697POPC   C3A48689  20.668   6.477   6.955
 3697POPC   C4A48690  20.906   6.751   7.230
 3697POPC   C1B48691  20.438   6.368   6.179
 3697POPC   C2B48692  20.263   6.258   6.607
 3697POPC   C3B48693  20.150   6.377   7.032
 3697POPC   C4B48694  20.355   6.618   7.371
 3698POPC   NC348695  26.742  37.851   5.309
 3698POPC   PO448696  26.461  37.234   5.105
 3698POPC   GL148697  26.488  37.434   5.622
 3698POPC   GL248698  26.506  37.789   5.799
 3698POPC   C1A48699  26.518  37.399   6.120
 3698POPC   D2A48700  26.761  37.488   6.516
 3698POPC   C3A48701  26.494  37.668   6.832
 3698POPC   C4A48702  26.470  37.637   7.246
 3698POPC   C1B48703  26.556  37.927   6.274
 3698POPC   C2B48704  26.787  38.051   6.677
 3698POPC   C3B48705  26.911  37.878   7.119
 3698POPC   C4B48706  27.154  37.944   7.546
 3699POPC   NC348707   5.772   0.925   5.367
 3699POPC   PO448708   5.347   1.424   5.431
 3699POPC   GL148709   5.720   1.197   5.784
 3699POPC   GL248710   5.729   0.784   5.841
 3699POPC   C1A48711   6.067   1.157   6.121
 3699POPC   D2A48712   6.209   1.092   6.567
 3699POPC   C3A48713   5.999   1.398   6.826
 3699POPC   C4A48714   5.829   1.518   7.241
 3699POPC   C1B48715   5.575   0.702   6.253
 3699POPC   C2B48716   5.665   1.013   6.573
 3699POPC   C3B48717   5.795   0.966   6.993
 3699POPC   C4B48718   5.502   0.794   7.242
 3700POPC   NC348719  23.095  14.856   5.530
 3700POPC   PO448720  22.936  14.199   5.347
 3700POPC   GL148721  22.914  14.364   5.732
 3700POPC   GL248722  23.228  14.299   5.859
 3700POPC   C1A48723  22.719  14.423   6.144
 3700POPC   D2A48724  22.966  14.364   6.505
 3700POPC   C3A48725  22.830  14.361   6.924
 3700POPC   C4A48726  22.596  14.613   7.198
 3700POPC   C1B48727  23.167  14.676   6.141
 3700POPC   C2B48728  23.292  14.756   6.558
 3700POPC   C3B48729  23.130  14.783   6.976
 3700POPC   C4B48730  23.109  14.565   7.363
 3701POPC   NC348731  44.376  25.696   5.436
 3701POPC   PO448732  43.745  26.063   5.446
 3701POPC   GL148733  44.092  26.124   5.709
 3701POPC   GL248734  43.872  26.199   5.975
 3701POPC   C1A48735  44.318  25.999   6.102
 3701POPC   D2A48736  44.396  26.147   6.541
 3701POPC   C3A48737  44.104  26.037   6.864
 3701POPC   C4A48738  43.810  25.710   6.802
 3701POPC   C1B48739  43.687  25.922   6.317
 3701POPC   C2B48740  43.442  26.024   6.708
 3701POPC   C3B48741  43.610  26.103   7.118
 3701POPC   C4B48742  43.981  26.353   7.256
 3702POPC   NC348743  23.919  43.669   5.097
 3702POPC   PO448744  23.617  43.956   5.618
 3702POPC   GL148745  23.879  43.874   5.902
 3702POPC   GL248746  24.103  44.162   5.838
 3702POPC   C1A48747  23.774  43.679   6.285
 3702POPC   D2A48748  23.830  43.866   6.690
 3702POPC   C3A48749  23.546  43.879   7.011
 3702POPC   C4A48750  23.825  43.739   7.315
 3702POPC   C1B48751  23.954  44.179   6.289
 3702POPC   C2B48752  23.943  44.412   6.671
 3702POPC   C3B48753  23.990  44.273   7.088
 3702POPC   C4B48754  23.724  44.236   7.434
 3703POPC   NC348755  13.211   5.495   5.577
 3703POPC   PO448756  13.564   5.131   5.162
 3703POPC   GL148757  13.729   5.149   5.616
 3703POPC   GL248758  13.718   4.818   5.808
 3703POPC   C1A48759  13.764   5.235   6.077
 3703POPC   D2A48760  13.850   5.207   6.520
 3703POPC   C3A48761  13.568   5.211   6.853
 3703POPC   C4A48762  13.578   5.048   7.270
 3703POPC   C1B48763  13.837   4.746   6.268
 3703POPC   C2B48764  13.737   4.735   6.737
 3703POPC   C3B48765  13.300   4.770   6.957
 3703POPC   C4B48766  13.028   4.718   7.344
 3704POPC   NC348767   2.741   2.247   5.351
 3704POPC   PO448768   3.111   1.737   5.103
 3704POPC   GL148769   3.084   1.708   5.620
 3704POPC   GL248770   2.909   1.990   5.768
 3704POPC   C1A48771   3.116   1.693   6.123
 3704POPC   D2A48772   2.942   1.971   6.491
 3704POPC   C3A48773   2.802   1.853   6.921
 3704POPC   C4A48774   3.137   1.776   7.207
 3704POPC   C1B48775   2.607   1.942   6.116
 3704POPC   C2B48776   2.430   1.983   6.565
 3704POPC   C3B48777   2.284   1.952   6.998
 3704POPC   C4B48778   2.477   1.956   7.399
 3705POPC   NC348779  40.001  38.106   5.200
 3705POPC   PO448780  39.995  37.514   5.468
 3705POPC   GL148781  39.912  37.782   5.807
 3705POPC   GL248782  40.142  37.624   6.003
 3705POPC   C1A48783  39.935  38.012   6.235
 3705POPC   D2A48784  39.921  37.832   6.659
 3705POPC   C3A48785  40.174  37.934   7.006
 3705POPC   C4A48786  40.413  37.952   7.393
 3705POPC   C1B48787  40.054  37.327   6.296
 3705POPC   C2B48788  39.862  37.313   6.666
 3705POPC   C3B48789  39.924  37.410   7.072
 3705POPC   C4B48790  40.042  37.630   7.398
 3706POPC   NC348791   4.525  44.119   5.380
 3706POPC   PO448792   4.654  43.579   5.739
 3706POPC   GL148793   4.467  43.959   5.913
 3706POPC   GL248794   4.163  44.161   5.869
 3706POPC   C1A48795   4.304  43.883   6.321
 3706POPC   D2A48796   4.039  43.857   6.680
 3706POPC   C3A48797   4.318  43.699   6.951
 3706POPC   C4A48798   4.335  43.677   7.350
 3706POPC   C1B48799   4.278  44.387   6.245
 3706POPC   C2B48800   4.358  44.276   6.670
 3706POPC   C3B48801   4.330  44.204   7.097
 3706POPC   C4B48802   4.580  44.214   7.434
 3707POPC   NC348803  44.258  27.407   5.622
 3707POPC   PO448804  43.846  27.046   5.290
 3707POPC   GL148805  43.756  27.240   5.750
 3707POPC   GL248806  43.630  27.620   5.790
 3707POPC   C1A48807  43.849  27.413   6.173
 3707POPC   D2A48808  44.121  27.611   6.457
 3707POPC   C3A48809  43.878  27.506   6.788
 3707POPC   C4A48810  43.675  27.166   6.994
 3707POPC   C1B48811  43.803  27.913   6.133
 3707POPC   C2B48812  43.798  28.006   6.593
 3707POPC   C3B48813  43.919  27.961   7.032
 3707POPC   C4B48814  43.776  27.605   7.265
 3708POPC   NC348815  35.664  32.019   5.390
 3708POPC   PO448816  35.120  32.277   5.145
 3708POPC   GL148817  35.244  32.326   5.645
 3708POPC   GL248818  35.596  32.253   5.827
 3708POPC   C1A48819  35.220  32.362   6.144
 3708POPC   D2A48820  35.400  32.227   6.568
 3708POPC   C3A48821  35.265  32.362   6.985
 3708POPC   C4A48822  35.325  32.073   7.313
 3708POPC   C1B48823  35.605  31.943   6.187
 3708POPC   C2B48824  35.807  31.906   6.629
 3708POPC   C3B48825  35.807  32.070   7.088
 3708POPC   C4B48826  35.744  32.192   7.555
 3709POPC   NC348827  31.096  29.193   5.536
 3709POPC   PO448828  31.704  28.779   5.408
 3709POPC   GL148829  31.515  28.967   5.752
 3709POPC   GL248830  31.571  29.336   5.784
 3709POPC   C1A48831  31.633  29.006   6.170
 3709POPC   D2A48832  31.464  28.901   6.545
 3709POPC   C3A48833  31.574  29.083   6.926
 3709POPC   C4A48834  31.425  28.959   7.347
 3709POPC   C1B48835  31.367  29.461   6.205
 3709POPC   C2B48836  31.225  29.454   6.661
 3709POPC   C3B48837  31.392  29.520   7.111
 3709POPC   C4B48838  31.328  29.391   7.583
 3710POPC   NC348839  42.407  16.410   5.128
 3710POPC   PO448840  41.726  16.451   5.303
 3710POPC   GL148841  42.005  16.569   5.680
 3710POPC   GL248842  42.269  16.314   5.642
 3710POPC   C1A48843  42.198  16.677   6.117
 3710POPC   D2A48844  42.395  16.972   6.446
 3710POPC   C3A48845  42.405  16.892   6.914
 3710POPC   C4A48846  42.458  17.124   7.316
 3710POPC   C1B48847  42.533  16.291   6.035
 3710POPC   C2B48848  42.593  16.490   6.450
 3710POPC   C3B48849  42.531  16.398   6.890
 3710POPC   C4B48850  42.605  16.590   7.321
 3711POPC   NC348851  26.455  28.363   5.667
 3711POPC   PO448852  26.014  28.124   5.196
 3711POPC   GL148853  26.024  28.319   5.880
 3711POPC   GL248854  26.223  28.625   6.034
 3711POPC   C1A48855  26.160  28.166   6.263
 3711POPC   D2A48856  26.290  28.403   6.607
 3711POPC   C3A48857  26.044  28.210   6.912
 3711POPC   C4A48858  26.075  27.970   7.268
 3711POPC   C1B48859  25.853  28.672   6.281
 3711POPC   C2B48860  25.805  28.639   6.728
 3711POPC   C3B48861  26.007  28.676   7.136
 3711POPC   C4B48862  25.830  28.696   7.556
 3712POPC   NC348863   3.588  26.549   5.272
 3712POPC   PO448864   3.642  27.148   5.510
 3712POPC   GL148865   3.360  26.900   5.764
 3712POPC   GL248866   3.176  27.143   5.948
 3712POPC   C1A48867   3.379  26.551   6.054
 3712POPC   D2A48868   3.560  26.355   6.432
 3712POPC   C3A48869   3.436  26.438   6.864
 3712POPC   C4A48870   3.646  26.508   7.267
 3712POPC   C1B48871   3.329  27.010   6.317
 3712POPC   C2B48872   3.229  27.087   6.734
 3712POPC   C3B48873   3.327  26.898   7.077
 3712POPC   C4B48874   3.304  26.870   7.477
 3713POPC   NC348875   0.382  19.405   5.323
 3713POPC   PO448876   0.807  18.976   5.496
 3713POPC   GL148877   0.651  19.277   5.805
 3713POPC   GL248878   0.435  19.569   5.817
 3713POPC   C1A48879   0.457  19.076   6.163
 3713POPC   D2A48880   0.630  18.902   6.556
 3713POPC   C3A48881   0.304  18.799   6.858
 3713POPC   C4A48882   0.381  18.861   7.282
 3713POPC   C1B48883   0.352  19.643   6.215
 3713POPC   C2B48884   0.340  19.381   6.558
 3713POPC   C3B48885   0.322  19.289   6.967
 3713POPC   C4B48886   0.007  19.215   7.255
 3714POPC   NC348887  33.257  42.220   5.478
 3714POPC   PO448888  32.627  41.844   5.402
 3714POPC   GL148889  32.962  41.900   5.773
 3714POPC   GL248890  33.224  42.143   5.964
 3714POPC   C1A48891  33.056  41.746   6.208
 3714POPC   D2A48892  32.870  41.853   6.624
 3714POPC   C3A48893  33.145  42.093   6.891
 3714POPC   C4A48894  33.047  42.147   7.318
 3714POPC   C1B48895  32.848  42.205   6.217
 3714POPC   C2B48896  32.757  42.459   6.570
 3714POPC   C3B48897  32.837  42.494   6.971
 3714POPC   C4B48898  32.869  42.643   7.366
 3715POPC   NC348899  41.424  11.816   5.520
 3715POPC   PO448900  41.330  12.527   5.544
 3715POPC   GL148901  41.487  12.302   5.814
 3715POPC   GL248902  41.172  12.141   5.834
 3715POPC   C1A48903  41.817  12.254   6.107
 3715POPC   D2A48904  41.779  12.055   6.515
 3715POPC   C3A48905  41.807  12.249   6.894
 3715POPC   C4A48906  41.716  12.061   7.253
 3715POPC   C1B48907  41.387  11.954   6.181
 3715POPC   C2B48908  41.239  11.843   6.541
 3715POPC   C3B48909  41.078  11.883   6.907
 3715POPC   C4B48910  41.225  12.108   7.216
 3716POPC   NC348911  32.155  35.660   5.403
 3716POPC   PO448912  32.453  35.128   5.560
 3716POPC   GL148913  32.122  35.333   5.814
 3716POPC   GL248914  32.000  35.049   5.934
 3716POPC   C1A48915  32.159  35.569   6.236
 3716POPC   D2A48916  32.527  35.449   6.552
 3716POPC   C3A48917  32.475  35.546   6.993
 3716POPC   C4A48918  32.111  35.771   7.109
 3716POPC   C1B48919  32.245  35.080   6.303
 3716POPC   C2B48920  32.040  35.233   6.665
 3716POPC   C3B48921  32.095  35.225   7.102
 3716POPC   C4B48922  32.476  35.044   7.294
 3717POPC   NC348923  15.380  27.007   5.462
 3717POPC   PO448924  14.737  26.909   5.206
 3717POPC   GL148925  14.955  26.757   5.643
 3717POPC   GL248926  15.152  26.444   5.672
 3717POPC   C1A48927  15.217  26.795   6.091
 3717POPC   D2A48928  15.423  26.894   6.554
 3717POPC   C3A48929  15.184  26.759   6.953
 3717POPC   C4A48930  14.965  26.425   7.170
 3717POPC   C1B48931  15.425  26.327   6.031
 3717POPC   C2B48932  15.579  26.379   6.442
 3717POPC   C3B48933  15.615  26.503   6.869
 3717POPC   C4B48934  15.457  26.481   7.311
 3718POPC   NC348935  42.758  39.367   5.371
 3718POPC   PO448936  43.361  39.067   5.222
 3718POPC   GL148937  43.052  39.046   5.648
 3718POPC   GL248938  42.964  39.370   5.822
 3718POPC   C1A48939  42.886  38.968   6.099
 3718POPC   D2A48940  43.094  38.974   6.508
 3718POPC   C3A48941  43.376  39.245   6.774
 3718POPC   C4A48942  43.261  39.339   7.202
 3718POPC   C1B48943  42.798  39.467   6.213
 3718POPC   C2B48944  42.931  39.493   6.631
 3718POPC   C3B48945  42.771  39.369   7.043
 3718POPC   C4B48946  42.510  39.300   7.427
 3719POPC   NC348947  30.538  35.463   5.424
 3719POPC   PO448948  30.919  35.947   5.603
 3719POPC   GL148949  30.872  35.548   5.827
 3719POPC   GL248950  30.696  35.203   5.821
 3719POPC   C1A48951  30.834  35.464   6.266
 3719POPC   D2A48952  30.721  35.652   6.679
 3719POPC   C3A48953  30.908  35.403   7.020
 3719POPC   C4A48954  31.132  34.995   7.075
 3719POPC   C1B48955  30.456  35.119   6.176
 3719POPC   C2B48956  30.622  35.134   6.587
 3719POPC   C3B48957  30.438  35.219   6.943
 3719POPC   C4B48958  30.337  34.941   7.249
 3720POPC   NC348959  34.539  39.581   5.528
 3720POPC   PO448960  34.874  40.146   5.332
 3720POPC   GL148961  34.707  40.095   5.797
 3720POPC   GL248962  34.657  39.774   5.978
 3720POPC   C1A48963  34.528  40.190   6.245
 3720POPC   D2A48964  34.177  40.008   6.487
 3720POPC   C3A48965  34.127  40.217   6.860
 3720POPC   C4A48966  34.349  40.198   7.238
 3720POPC   C1B48967  34.925  39.845   6.344
 3720POPC   C2B48968  34.861  39.935   6.807
 3720POPC   C3B48969  34.693  39.735   7.193
 3720POPC   C4B48970  34.691  39.630   7.648
 3721POPC   NC348971   0.254  20.095   5.131
 3721POPC   PO448972   0.758  19.677   5.452
 3721POPC   GL148973   0.674  20.020   5.694
 3721POPC   GL248974   0.345  20.072   5.687
 3721POPC   C1A48975   0.672  20.101   6.125
 3721POPC   D2A48976   0.681  19.867   6.513
 3721POPC   C3A48977   0.713  20.039   6.918
 3721POPC   C4A48978   0.827  19.746   7.209
 3721POPC   C1B48979   0.091  20.083   6.077
 3721POPC   C2B48980   0.141  20.120   6.545
 3721POPC   C3B48981   0.257  19.804   6.832
 3721POPC   C4B48982   0.329  19.704   7.250
 3722POPC   NC348983  23.162  31.569   5.321
 3722POPC   PO448984  22.674  31.151   5.549
 3722POPC   GL148985  22.932  31.348   5.850
 3722POPC   GL248986  22.961  31.707   5.789
 3722POPC   C1A48987  22.950  31.150   6.257
 3722POPC   D2A48988  22.723  31.211   6.625
 3722POPC   C3A48989  22.778  31.547   6.883
 3722POPC   C4A48990  22.924  31.288   7.196
 3722POPC   C1B48991  23.122  31.888   6.160
 3722POPC   C2B48992  23.119  31.810   6.601
 3722POPC   C3B48993  23.189  31.780   7.047
 3722POPC   C4B48994  22.999  31.745   7.425
 3723POPC   NC348995  27.485  36.441   5.458
 3723POPC   PO448996  28.090  36.839   5.446
 3723POPC   GL148997  27.845  36.965   5.877
 3723POPC   GL248998  27.468  37.005   5.869
 3723POPC   C1A48999  27.634  36.745   6.270
 3723POPC   D2A49000  27.506  36.605   6.692
 3723POPC   C3A49001  27.624  36.796   7.069
 3723POPC   C4A49002  27.635  36.550   7.432
 3723POPC   C1B49003  27.534  37.239   6.275
 3723POPC   C2B49004  27.613  37.181   6.727
 3723POPC   C3B49005  27.554  37.346   7.161
 3723POPC   C4B49006  27.455  37.498   7.607
 3724POPC   NC349007  32.398  26.799   5.391
 3724POPC   PO449008  31.821  26.501   5.485
 3724POPC   GL149009  32.107  26.726   5.796
 3724POPC   GL249010  32.488  26.578   5.846
 3724POPC   C1A49011  32.258  26.886   6.179
 3724POPC   D2A49012  32.269  26.767   6.580
 3724POPC   C3A49013  32.255  27.096   6.866
 3724POPC   C4A49014  32.409  27.093   7.262
 3724POPC   C1B49015  32.541  26.436   6.275
 3724POPC   C2B49016  32.585  26.400   6.742
 3724POPC   C3B49017  32.388  26.609   7.082
 3724POPC   C4B49018  32.576  26.672   7.490
 3725POPC   NC349019  21.946   0.244   5.490
 3725POPC   PO449020  22.629   0.463   5.465
 3725POPC   GL149021  22.322   0.504   5.822
 3725POPC   GL249022  22.029   0.732   5.724
 3725POPC   C1A49023  22.318   0.600   6.273
 3725POPC   D2A49024  22.344   0.815   6.673
 3725POPC   C3A49025  22.434   0.495   7.037
 3725POPC   C4A49026  22.362   0.215   7.426
 3725POPC   C1B49027  21.851   0.659   6.097
 3725POPC   C2B49028  21.824   0.610   6.548
 3725POPC   C3B49029  21.957   0.673   6.981
 3725POPC   C4B49030  22.044   0.593   7.404
 3726POPC   NC349031  20.159  16.248   5.494
 3726POPC   PO449032  19.586  15.981   5.296
 3726POPC   GL149033  19.812  15.935   5.722
 3726POPC   GL249034  20.058  15.672   5.785
 3726POPC   C1A49035  19.885  16.035   6.176
 3726POPC   D2A49036  19.691  16.057   6.570
 3726POPC   C3A49037  19.927  16.266   6.878
 3726POPC   C4A49038  19.869  16.244   7.340
 3726POPC   C1B49039  19.700  15.573   6.134
 3726POPC   C2B49040  19.670  15.533   6.612
 3726POPC   C3B49041  19.700  15.800   7.005
 3726POPC   C4B49042  19.887  15.723   7.393
 3727POPC   NC349043  18.220   1.780   5.465
 3727POPC   PO449044  18.096   2.378   5.189
 3727POPC   GL149045  18.258   2.407   5.663
 3727POPC   GL249046  18.442   2.132   5.780
 3727POPC   C1A49047  18.191   2.335   6.152
 3727POPC   D2A49048  18.011   2.092   6.529
 3727POPC   C3A49049  18.236   2.002   6.939
 3727POPC   C4A49050  18.222   1.844   7.386
 3727POPC   C1B49051  18.478   1.923   6.275
 3727POPC   C2B49052  18.619   1.727   6.701
 3727POPC   C3B49053  18.679   1.786   7.154
 3727POPC   C4B49054  18.723   1.912   7.602
 3728POPC   NC349055  25.096  24.288   5.447
 3728POPC   PO449056  25.688  24.495   5.440
 3728POPC   GL149057  25.400  24.350   5.840
 3728POPC   GL249058  25.165  24.615   5.862
 3728POPC   C1A49059  25.205  24.123   6.227
 3728POPC   D2A49060  24.999  24.241   6.655
 3728POPC   C3A49061  25.310  24.288   7.025
 3728POPC   C4A49062  25.543  24.639   7.223
 3728POPC   C1B49063  24.831  24.489   6.149
 3728POPC   C2B49064  24.653  24.677   6.506
 3728POPC   C3B49065  24.801  24.870   6.867
 3728POPC   C4B49066  25.051  24.720   7.196
 3729POPC   NC349067  40.530  11.418   5.312
 3729POPC   PO449068  41.012  11.660   5.711
 3729POPC   GL149069  40.759  11.443   6.015
 3729POPC   GL249070  40.495  11.263   5.830
 3729POPC   C1A49071  40.944  11.227   6.347
 3729POPC   D2A49072  41.230  11.339   6.651
 3729POPC   C3A49073  41.000  11.382   6.970
 3729POPC   C4A49074  41.017  11.236   7.352
 3729POPC   C1B49075  40.439  11.108   6.253
 3729POPC   C2B49076  40.418  11.313   6.680
 3729POPC   C3B49077  40.525  11.235   7.114
 3729POPC   C4B49078  40.525  11.194   7.568
 3730POPC   NC349079  35.550   3.230   5.473
 3730POPC   PO449080  35.151   3.701   5.329
 3730POPC   GL149081  35.159   3.590   5.784
 3730POPC   GL249082  35.501   3.582   5.864
 3730POPC   C1A49083  35.199   3.686   6.265
 3730POPC   D2A49084  35.501   3.647   6.636
 3730POPC   C3A49085  35.430   3.711   7.086
 3730POPC   C4A49086  35.029   3.779   7.221
 3730POPC   C1B49087  35.571   3.305   6.230
 3730POPC   C2B49088  35.517   3.120   6.649
 3730POPC   C3B49089  35.580   3.233   7.096
 3730POPC   C4B49090  35.460   3.419   7.515
 3731POPC   NC349091  28.770   4.763   5.572
 3731POPC   PO449092  28.414   4.255   5.272
 3731POPC   GL149093  28.240   4.303   5.733
 3731POPC   GL249094  28.524   4.454   5.889
 3731POPC   C1A49095  28.295   4.145   6.208
 3731POPC   D2A49096  28.090   4.068   6.622
 3731POPC   C3A49097  28.178   4.387   6.961
 3731POPC   C4A49098  28.369   4.626   7.287
 3731POPC   C1B49099  28.580   4.733   6.248
 3731POPC   C2B49100  28.648   4.737   6.701
 3731POPC   C3B49101  28.697   4.379   6.991
 3731POPC   C4B49102  28.466   4.003   7.160
 3732POPC   NC349103  12.899  27.128   5.419
 3732POPC   PO449104  12.588  27.720   5.508
 3732POPC   GL149105  12.916  27.551   5.820
 3732POPC   GL249106  13.161  27.254   5.853
 3732POPC   C1A49107  12.783  27.694   6.221
 3732POPC   D2A49108  12.626  27.546   6.604
 3732POPC   C3A49109  12.770  27.723   6.972
 3732POPC   C4A49110  12.567  27.975   7.301
 3732POPC   C1B49111  13.020  27.261   6.293
 3732POPC   C2B49112  13.069  27.338   6.732
 3732POPC   C3B49113  12.948  27.241   7.145
 3732POPC   C4B49114  12.803  27.217   7.569
 3733POPC   NC349115  31.397  35.009   5.358
 3733POPC   PO449116  31.209  34.443   5.336
 3733POPC   GL149117  31.433  34.456   5.725
 3733POPC   GL249118  31.650  34.728   5.737
 3733POPC   C1A49119  31.268  34.407   6.156
 3733POPC   D2A49120  31.410  34.452   6.565
 3733POPC   C3A49121  31.167  34.354   6.931
 3733POPC   C4A49122  31.286  34.335   7.336
 3733POPC   C1B49123  31.645  34.782   6.204
 3733POPC   C2B49124  31.834  34.716   6.632
 3733POPC   C3B49125  31.570  34.726   7.003
 3733POPC   C4B49126  31.630  35.077   7.237
 3734POPC   NC349127   0.350  36.022   5.237
 3734POPC   PO449128   0.071  36.565   5.504
 3734POPC   GL149129   0.485  36.330   5.630
 3734POPC   GL249130   0.458  35.992   5.746
 3734POPC   C1A49131   0.654  36.334   6.091
 3734POPC   D2A49132   0.568  36.215   6.560
 3734POPC   C3A49133   0.593  36.313   7.040
 3734POPC   C4A49134   0.341  36.433   7.456
 3734POPC   C1B49135   0.627  35.816   6.130
 3734POPC   C2B49136   0.535  35.688   6.557
 3734POPC   C3B49137   0.267  35.884   6.855
 3734POPC   C4B49138   0.301  35.904   7.290
 3735POPC   NC349139  24.650  14.597   5.542
 3735POPC   PO449140  24.193  14.139   5.444
 3735POPC   GL149141  24.263  14.422   5.840
 3735POPC   GL249142  24.124  14.772   5.842
 3735POPC   C1A49143  24.575  14.446   6.218
 3735POPC   D2A49144  24.834  14.553   6.618
 3735POPC   C3A49145  24.702  14.292   6.986
 3735POPC   C4A49146  24.528  14.291   7.422
 3735POPC   C1B49147  24.107  14.668   6.293
 3735POPC   C2B49148  24.320  14.519   6.677
 3735POPC   C3B49149  24.420  14.717   7.067
 3735POPC   C4B49150  24.409  14.766   7.511
 3736POPC   NC349151  19.990   2.231   5.390
 3736POPC   PO449152  20.085   1.621   5.286
 3736POPC   GL149153  20.029   1.800   5.728
 3736POPC   GL249154  20.153   2.142   5.857
 3736POPC   C1A49155  19.870   1.785   6.173
 3736POPC   D2A49156  19.672   1.980   6.537
 3736POPC   C3A49157  19.829   1.813   6.903
 3736POPC   C4A49158  19.646   1.840   7.304
 3736POPC   C1B49159  19.877   2.306   6.180
 3736POPC   C2B49160  19.846   2.460   6.615
 3736POPC   C3B49161  19.681   2.304   6.993
 3736POPC   C4B49162  19.696   2.400   7.423
 3737POPC   NC349163  21.332   7.148   5.492
 3737POPC   PO449164  21.239   7.749   5.482
 3737POPC   GL149165  21.374   7.660   5.887
 3737POPC   GL249166  21.107   7.666   6.105
 3737POPC   C1A49167  21.585   7.512   6.252
 3737POPC   D2A49168  21.580   7.164   6.527
 3737POPC   C3A49169  21.651   7.206   6.945
 3737POPC   C4A49170  21.448   7.543   7.139
 3737POPC   C1B49171  21.181   7.183   6.172
 3737POPC   C2B49172  21.126   6.920   6.558
 3737POPC   C3B49173  21.153   7.122   6.989
 3737POPC   C4B49174  21.109   7.267   7.423
 3738POPC   NC349175  42.595  36.472   5.392
 3738POPC   PO449176  43.159  36.059   5.258
 3738POPC   GL149177  43.062  36.182   5.702
 3738POPC   GL249178  43.362  36.360   5.826
 3738POPC   C1A49179  43.046  36.150   6.192
 3738POPC   D2A49180  43.349  36.108   6.568
 3738POPC   C3A49181  43.188  35.870   6.949
 3738POPC   C4A49182  42.833  36.024   7.205
 3738POPC   C1B49183  43.432  36.557   6.246
 3738POPC   C2B49184  43.324  36.632   6.698
 3738POPC   C3B49185  43.375  36.339   7.051
 3738POPC   C4B49186  43.284  36.179   7.455
 3739POPC   NC349187  44.018  34.736   5.393
 3739POPC   PO449188  43.711  34.112   5.311
 3739POPC   GL149189  43.731  34.432   5.731
 3739POPC   GL249190  44.048  34.607   5.887
 3739POPC   C1A49191  43.656  34.655   6.178
 3739POPC   D2A49192  43.787  34.511   6.566
 3739POPC   C3A49193  43.656  34.702   6.944
 3739POPC   C4A49194  43.730  34.400   7.279
 3739POPC   C1B49195  44.333  34.805   6.181
 3739POPC   C2B49196  44.278  34.736   6.626
 3739POPC   C3B49197  44.121  34.898   7.055
 3739POPC   C4B49198  44.179  35.102   7.478
 3740POPC   NC349199  42.925   9.530   5.434
 3740POPC   PO449200  43.558   9.845   5.424
 3740POPC   GL149201  43.315   9.831   5.751
 3740POPC   GL249202  43.339   9.492   5.829
 3740POPC   C1A49203  43.410   9.974   6.139
 3740POPC   D2A49204  43.208  10.062   6.495
 3740POPC   C3A49205  43.212   9.698   6.738
 3740POPC   C4A49206  42.947   9.792   7.051
 3740POPC   C1B49207  43.041   9.617   6.174
 3740POPC   C2B49208  42.805   9.421   6.517
 3740POPC   C3B49209  42.609   9.443   6.915
 3740POPC   C4B49210  42.788   9.404   7.339
 3741POPC   NC349211  42.152  44.412   5.531
 3741POPC   PO449212  42.428   0.011   5.474
 3741POPC   GL149213  42.567  44.781   5.857
 3741POPC   GL249214  42.443  44.446   5.964
 3741POPC   C1A49215  42.423  44.840   6.305
 3741POPC   D2A49216  42.415  44.935   6.774
 3741POPC   C3A49217  42.330  44.610   7.094
 3741POPC   C4A49218  42.205  44.639   7.541
 3741POPC   C1B49219  42.148  44.243   6.236
 3741POPC   C2B49220  41.990  44.294   6.665
 3741POPC   C3B49221  42.025  44.190   7.104
 3741POPC   C4B49222  42.386  44.182   7.413
 3742POPC   NC349223  15.011  17.909   5.211
 3742POPC   PO449224  15.437  18.393   5.187
 3742POPC   GL149225  15.279  18.213   5.636
 3742POPC   GL249226  14.928  18.066   5.696
 3742POPC   C1A49227  15.132  18.349   6.084
 3742POPC   D2A49228  14.998  18.542   6.512
 3742POPC   C3A49229  15.093  18.422   6.974
 3742POPC   C4A49230  15.412  18.560   7.306
 3742POPC   C1B49231  14.918  17.887   6.102
 3742POPC   C2B49232  14.923  18.019   6.517
 3742POPC   C3B49233  14.974  17.904   6.932
 3742POPC   C4B49234  15.125  17.999   7.311
 3743POPC   NC349235  39.796   7.127   5.273
 3743POPC   PO449236  40.260   7.588   5.265
 3743POPC   GL149237  40.324   7.460   5.686
 3743POPC   GL249238  40.277   7.783   5.739
 3743POPC   C1A49239  40.165   7.300   6.092
 3743POPC   D2A49240  39.896   7.377   6.463
 3743POPC   C3A49241  40.098   7.273   6.865
 3743POPC   C4A49242  39.980   7.049   7.235
 3743POPC   C1B49243  39.972   7.785   6.059
 3743POPC   C2B49244  39.841   7.919   6.461
 3743POPC   C3B49245  39.860   7.752   6.856
 3743POPC   C4B49246  39.857   7.563   7.235
 3744POPC   NC349247  18.908  27.385   5.233
 3744POPC   PO449248  19.294  26.830   5.391
 3744POPC   GL149249  19.051  26.822   5.760
 3744POPC   GL249250  18.955  27.159   5.737
 3744POPC   C1A49251  18.876  26.746   6.204
 3744POPC   D2A49252  19.167  26.714   6.583
 3744POPC   C3A49253  19.024  26.657   7.017
 3744POPC   C4A49254  19.165  26.675   7.469
 3744POPC   C1B49255  19.194  27.120   6.125
 3744POPC   C2B49256  19.031  27.198   6.530
 3744POPC   C3B49257  19.217  27.165   6.888
 3744POPC   C4B49258  19.020  27.107   7.243
 3745POPC   NC349259  22.727  22.798   5.332
 3745POPC   PO449260  23.412  22.908   5.287
 3745POPC   GL149261  23.114  23.031   5.664
 3745POPC   GL249262  22.999  23.345   5.782
 3745POPC   C1A49263  23.009  22.939   6.130
 3745POPC   D2A49264  22.858  23.081   6.521
 3745POPC   C3A49265  22.894  22.771   6.868
 3745POPC   C4A49266  22.946  22.845   7.275
 3745POPC   C1B49267  23.366  23.292   6.076
 3745POPC   C2B49268  23.416  23.243   6.498
 3745POPC   C3B49269  23.206  23.176   6.874
 3745POPC   C4B49270  23.272  23.241   7.263
 3746POPC   NC349271  27.803  32.831   5.549
 3746POPC   PO449272  27.360  33.215   5.502
 3746POPC   GL149273  27.541  33.182   5.911
 3746POPC   GL249274  27.547  32.830   5.992
 3746POPC   C1A49275  27.837  33.325   6.236
 3746POPC   D2A49276  27.975  33.351   6.675
 3746POPC   C3A49277  27.620  33.177   6.926
 3746POPC   C4A49278  27.425  32.973   7.271
 3746POPC   C1B49279  27.963  32.772   6.202
 3746POPC   C2B49280  27.943  32.578   6.606
 3746POPC   C3B49281  27.776  32.673   7.005
 3746POPC   C4B49282  27.915  32.577   7.402
 3747POPC   NC349283  29.624   6.251   5.343
 3747POPC   PO449284  29.931   6.846   5.280
 3747POPC   GL149285  29.866   6.734   5.731
 3747POPC   GL249286  29.876   6.406   5.823
 3747POPC   C1A49287  30.053   6.741   6.175
 3747POPC   D2A49288  30.146   6.783   6.633
 3747POPC   C3A49289  29.919   6.946   7.002
 3747POPC   C4A49290  29.976   7.010   7.443
 3747POPC   C1B49291  29.588   6.217   6.178
 3747POPC   C2B49292  29.512   6.247   6.655
 3747POPC   C3B49293  29.675   6.484   7.016
 3747POPC   C4B49294  30.085   6.543   7.248
 3748POPC   NC349295   0.569  20.973   5.491
 3748POPC   PO449296   0.122  20.447   5.414
 3748POPC   GL149297   0.283  20.567   5.806
 3748POPC   GL249298   0.634  20.525   5.785
 3748POPC   C1A49299   0.354  20.486   6.250
 3748POPC   D2A49300   0.186  20.779   6.514
 3748POPC   C3A49301   0.184  20.673   6.940
 3748POPC   C4A49302   0.281  20.257   7.093
 3748POPC   C1B49303   0.653  20.852   6.103
 3748POPC   C2B49304   0.703  20.788   6.551
 3748POPC   C3B49305   0.696  20.561   6.921
 3748POPC   C4B49306   0.579  20.786   7.277
 3749POPC   NC349307   1.741  31.814   5.337
 3749POPC   PO449308   2.091  31.249   5.427
 3749POPC   GL149309   1.823  31.435   5.706
 3749POPC   GL249310   2.093  31.676   5.713
 3749POPC   C1A49311   1.667  31.198   6.088
 3749POPC   D2A49312   1.985  31.042   6.403
 3749POPC   C3A49313   1.911  31.108   6.834
 3749POPC   C4A49314   1.917  31.274   7.255
 3749POPC   C1B49315   2.091  31.477   6.134
 3749POPC   C2B49316   1.783  31.552   6.471
 3749POPC   C3B49317   1.900  31.608   6.885
 3749POPC   C4B49318   2.335  31.471   7.020
 3750POPC   NC349319  30.339   6.888   5.056
 3750POPC   PO449320  30.915   6.808   5.442
 3750POPC   GL149321  30.775   6.536   5.707
 3750POPC   GL249322  30.400   6.582   5.668
 3750POPC   C1A49323  30.936   6.489   6.138
 3750POPC   D2A49324  31.037   6.688   6.538
 3750POPC   C3A49325  30.888   6.680   6.959
 3750POPC   C4A49326  30.792   6.659   7.413
 3750POPC   C1B49327  30.446   6.403   6.087
 3750POPC   C2B49328  30.567   6.481   6.510
 3750POPC   C3B49329  30.439   6.471   6.904
 3750POPC   C4B49330  30.479   6.201   7.244
 3751POPC   NC349331  21.354  43.549   5.698
 3751POPC   PO449332  21.340  44.189   5.729
 3751POPC   GL149333  21.564  43.922   5.992
 3751POPC   GL249334  21.869  44.047   6.086
 3751POPC   C1A49335  21.369  43.870   6.385
 3751POPC   D2A49336  21.136  44.168   6.622
 3751POPC   C3A49337  21.028  44.030   7.028
 3751POPC   C4A49338  21.295  43.729   7.237
 3751POPC   C1B49339  21.843  43.699   6.393
 3751POPC   C2B49340  21.625  43.699   6.805
 3751POPC   C3B49341  21.726  43.997   7.107
 3751POPC   C4B49342  21.879  44.060   7.515
 3752POPC   NC349343   7.860  42.826   5.395
 3752POPC   PO449344   7.336  43.276   5.423
 3752POPC   GL149345   7.588  43.274   5.793
 3752POPC   GL249346   7.474  42.970   5.846
 3752POPC   C1A49347   7.578  43.190   6.278
 3752POPC   D2A49348   7.560  42.982   6.675
 3752POPC   C3A49349   7.486  43.240   7.032
 3752POPC   C4A49350   7.512  43.433   7.450
 3752POPC   C1B49351   7.188  42.859   6.211
 3752POPC   C2B49352   7.197  42.629   6.620
 3752POPC   C3B49353   7.254  42.761   7.091
 3752POPC   C4B49354   7.622  42.898   7.383
 3753POPC   NC349355   6.928  26.051   5.154
 3753POPC   PO449356   6.269  26.133   5.110
 3753POPC   GL149357   6.485  26.157   5.584
 3753POPC   GL249358   6.800  26.009   5.732
 3753POPC   C1A49359   6.444  26.108   6.093
 3753POPC   D2A49360   6.667  26.004   6.504
 3753POPC   C3A49361   6.577  25.749   6.870
 3753POPC   C4A49362   6.607  25.889   7.292
 3753POPC   C1B49363   6.894  25.746   6.124
 3753POPC   C2B49364   7.108  25.745   6.562
 3753POPC   C3B49365   7.098  25.708   7.048
 3753POPC   C4B49366   7.156  25.826   7.499
 3754POPC   NC349367  15.900  40.187   5.214
 3754POPC   PO449368  15.655  39.596   5.141
 3754POPC   GL149369  15.875  39.836   5.579
 3754POPC   GL249370  15.930  40.188   5.719
 3754POPC   C1A49371  15.951  39.800   6.066
 3754POPC   D2A49372  15.893  39.917   6.540
 3754POPC   C3A49373  16.129  39.771   6.945
 3754POPC   C4A49374  15.902  39.538   7.289
 3754POPC   C1B49375  15.699  40.247   6.111
 3754POPC   C2B49376  15.778  40.446   6.499
 3754POPC   C3B49377  15.915  40.315   6.900
 3754POPC   C4B49378  15.683  39.974   7.084
 3755POPC   NC349379  42.103   3.140   5.472
 3755POPC   PO449380  42.339   3.716   5.455
 3755POPC   GL149381  42.459   3.640   5.851
 3755POPC   GL249382  42.178   3.783   6.041
 3755POPC   C1A49383  42.431   3.392   6.218
 3755POPC   D2A49384  42.101   3.410   6.549
 3755POPC   C3A49385  42.262   3.361   6.965
 3755POPC   C4A49386  42.710   3.363   7.074
 3755POPC   C1B49387  42.597   3.934   6.246
 3755POPC   C2B49388  42.724   3.930   6.698
 3755POPC   C3B49389  42.480   3.841   7.100
 3755POPC   C4B49390  42.040   3.729   7.290
 3756POPC   NC349391   3.416  35.267   5.431
 3756POPC   PO449392   4.069  35.364   5.417
 3756POPC   GL149393   3.743  35.398   5.802
 3756POPC   GL249394   3.505  35.093   5.896
 3756POPC   C1A49395   3.479  35.505   6.191
 3756POPC   D2A49396   3.544  35.392   6.639
 3756POPC   C3A49397   3.343  35.509   7.030
 3756POPC   C4A49398   3.749  35.486   7.235
 3756POPC   C1B49399   3.347  35.028   6.320
 3756POPC   C2B49400   3.166  35.078   6.753
 3756POPC   C3B49401   3.418  35.016   7.118
 3756POPC   C4B49402   3.581  35.058   7.528
 3757POPC   NC349403   5.727  14.990   5.421
 3757POPC   PO449404   5.507  15.601   5.460
 3757POPC   GL149405   5.550  15.260   5.830
 3757POPC   GL249406   5.908  15.173   5.881
 3757POPC   C1A49407   5.611  14.879   6.148
 3757POPC   D2A49408   5.888  14.806   6.529
 3757POPC   C3A49409   5.777  15.014   6.916
 3757POPC   C4A49410   5.522  14.780   7.158
 3757POPC   C1B49411   5.815  15.302   6.344
 3757POPC   C2B49412   5.982  15.452   6.766
 3757POPC   C3B49413   6.201  15.327   7.152
 3757POPC   C4B49414   6.163  15.446   7.581
 3758POPC   NC349415  32.002  25.184   5.479
 3758POPC   PO449416  32.493  25.603   5.555
 3758POPC   GL149417  32.314  25.418   5.898
 3758POPC   GL249418  32.310  25.072   5.871
 3758POPC   C1A49419  32.538  25.326   6.292
 3758POPC   D2A49420  32.583  25.613   6.662
 3758POPC   C3A49421  32.321  25.487   7.030
 3758POPC   C4A49422  32.402  25.185   7.328
 3758POPC   C1B49423  32.031  25.074   6.240
 3758POPC   C2B49424  31.877  24.953   6.663
 3758POPC   C3B49425  31.940  25.028   7.098
 3758POPC   C4B49426  31.894  25.264   7.477
 3759POPC   NC349427  37.517   0.510   5.486
 3759POPC   PO449428  38.094   0.815   5.778
 3759POPC   GL149429  37.865   0.436   5.846
 3759POPC   GL249430  37.648   0.657   5.978
 3759POPC   C1A49431  37.493   0.243   6.146
 3759POPC   D2A49432  37.492   0.126   6.557
 3759POPC   C3A49433  37.394   0.428   6.885
 3759POPC   C4A49434  37.331   0.291   7.275
 3759POPC   C1B49435  37.946   0.406   6.335
 3759POPC   C2B49436  37.921   0.372   6.810
 3759POPC   C3B49437  37.787   0.510   7.243
 3759POPC   C4B49438  37.828   0.873   7.505
 3760POPC   NC349439  31.037   8.236   5.459
 3760POPC   PO449440  31.613   8.221   5.114
 3760POPC   GL149441  31.548   8.258   5.574
 3760POPC   GL249442  31.712   7.961   5.691
 3760POPC   C1A49443  31.424   8.433   6.013
 3760POPC   D2A49444  31.260   8.409   6.472
 3760POPC   C3A49445  31.417   8.229   6.885
 3760POPC   C4A49446  31.188   8.034   7.224
 3760POPC   C1B49447  31.817   8.109   6.106
 3760POPC   C2B49448  31.755   8.008   6.534
 3760POPC   C3B49449  31.751   7.787   6.911
 3760POPC   C4B49450  31.672   7.892   7.294
 3761POPC   NC349451  38.002  29.887   5.354
 3761POPC   PO449452  37.446  30.237   5.446
 3761POPC   GL149453  37.619  29.975   5.783
 3761POPC   GL249454  37.960  30.083   5.834
 3761POPC   C1A49455  37.520  29.625   6.102
 3761POPC   D2A49456  37.674  29.491   6.544
 3761POPC   C3A49457  37.478  29.680   6.911
 3761POPC   C4A49458  37.565  29.994   7.258
 3761POPC   C1B49459  38.149  30.217   6.221
 3761POPC   C2B49460  38.176  30.339   6.656
 3761POPC   C3B49461  38.150  30.110   7.053
 3761POPC   C4B49462  38.137  30.253   7.457
 3762POPC   NC349463  32.189  41.709   5.520
 3762POPC   PO449464  32.479  41.135   5.496
 3762POPC   GL149465  32.592  41.524   5.811
 3762POPC   GL249466  32.463  41.914   5.902
 3762POPC   C1A49467  32.578  41.598   6.272
 3762POPC   D2A49468  32.325  41.478   6.578
 3762POPC   C3A49469  32.305  41.638   6.990
 3762POPC   C4A49470  32.151  41.304   7.193
 3762POPC   C1B49471  32.094  41.805   6.197
 3762POPC   C2B49472  31.983  41.856   6.640
 3762POPC   C3B49473  31.787  41.675   6.993
 3762POPC   C4B49474  31.883  41.672   7.414
 3763POPC   NC349475   1.192  17.097   5.441
 3763POPC   PO449476   1.358  17.706   5.412
 3763POPC   GL149477   1.244  17.461   5.812
 3763POPC   GL249478   0.968  17.172   5.886
 3763POPC   C1A49479   1.128  17.561   6.239
 3763POPC   D2A49480   1.208  17.816   6.569
 3763POPC   C3A49481   1.158  17.652   6.962
 3763POPC   C4A49482   1.245  17.509   7.334
 3763POPC   C1B49483   0.711  17.268   6.250
 3763POPC   C2B49484   0.763  17.467   6.669
 3763POPC   C3B49485   0.777  17.290   7.096
 3763POPC   C4B49486   0.973  17.041   7.460
 3764POPC   NC349487  14.803  36.995   5.347
 3764POPC   PO449488  15.457  37.058   5.151
 3764POPC   GL149489  15.259  37.114   5.564
 3764POPC   GL249490  15.491  37.291   5.756
 3764POPC   C1A49491  15.199  36.969   6.026
 3764POPC   D2A49492  15.436  36.916   6.447
 3764POPC   C3A49493  15.161  36.814   6.839
 3764POPC   C4A49494  14.979  36.744   7.285
 3764POPC   C1B49495  15.403  37.400   6.214
 3764POPC   C2B49496  15.067  37.254   6.525
 3764POPC   C3B49497  15.023  37.297   6.956
 3764POPC   C4B49498  15.347  37.108   7.237
 3765POPC   NC349499  24.347  37.495   5.376
 3765POPC   PO449500  24.763  37.974   5.320
 3765POPC   GL149501  24.421  37.898   5.725
 3765POPC   GL249502  24.166  37.707   5.796
 3765POPC   C1A49503  24.519  37.800   6.232
 3765POPC   D2A49504  24.787  38.023   6.568
 3765POPC   C3A49505  24.554  37.864   6.914
 3765POPC   C4A49506  24.608  37.439   7.086
 3765POPC   C1B49507  24.032  37.893   6.158
 3765POPC   C2B49508  24.062  37.681   6.547
 3765POPC   C3B49509  24.136  37.496   6.933
 3765POPC   C4B49510  24.169  37.793   7.252
 3766POPC   NC349511   6.954  20.424   5.371
 3766POPC   PO449512   6.454  20.966   5.411
 3766POPC   GL149513   6.530  20.830   5.832
 3766POPC   GL249514   6.744  20.534   5.926
 3766POPC   C1A49515   6.441  20.813   6.266
 3766POPC   D2A49516   6.506  20.588   6.638
 3766POPC   C3A49517   6.570  20.852   6.987
 3766POPC   C4A49518   6.539  20.807   7.410
 3766POPC   C1B49519   6.955  20.577   6.343
 3766POPC   C2B49520   6.955  20.369   6.759
 3766POPC   C3B49521   6.615  20.357   7.098
 3766POPC   C4B49522   6.742  20.372   7.579
 3767POPC   NC349523  21.573  41.258   5.108
 3767POPC   PO449524  21.213  41.742   5.384
 3767POPC   GL149525  21.510  41.626   5.707
 3767POPC   GL249526  21.639  41.279   5.706
 3767POPC   C1A49527  21.445  41.659   6.146
 3767POPC   D2A49528  21.265  41.563   6.567
 3767POPC   C3A49529  21.354  41.829   6.902
 3767POPC   C4A49530  21.632  41.882   7.257
 3767POPC   C1B49531  21.839  41.293   6.135
 3767POPC   C2B49532  21.755  41.374   6.581
 3767POPC   C3B49533  21.679  41.415   7.018
 3767POPC   C4B49534  21.933  41.403   7.380
 3768POPC   NC349535  26.099   4.152   5.166
 3768POPC   PO449536  26.022   4.831   5.125
 3768POPC   GL149537  25.936   4.767   5.614
 3768POPC   GL249538  25.970   4.394   5.670
 3768POPC   C1A49539  25.819   4.652   6.081
 3768POPC   D2A49540  25.760   4.416   6.476
 3768POPC   C3A49541  25.898   4.534   6.902
 3768POPC   C4A49542  25.947   4.258   7.257
 3768POPC   C1B49543  26.191   4.294   6.081
 3768POPC   C2B49544  26.400   4.117   6.425
 3768POPC   C3B49545  26.309   4.133   6.841
 3768POPC   C4B49546  26.487   4.303   7.181
 3769POPC   NC349547  24.598  11.460   5.291
 3769POPC   PO449548  24.029  11.733   5.630
 3769POPC   GL149549  24.439  11.504   5.772
 3769POPC   GL249550  24.530  11.126   5.663
 3769POPC   C1A49551  24.712  11.434   6.137
 3769POPC   D2A49552  24.624  11.569   6.564
 3769POPC   C3A49553  24.453  11.456   6.962
 3769POPC   C4A49554  24.223  11.387   7.305
 3769POPC   C1B49555  24.432  11.038   6.078
 3769POPC   C2B49556  24.262  10.828   6.406
 3769POPC   C3B49557  24.290  10.992   6.802
 3769POPC   C4B49558  24.565  10.969   7.142
 3770POPC   NC349559  25.631  32.624   5.474
 3770POPC   PO449560  24.913  32.631   5.423
 3770POPC   GL149561  25.149  32.275   5.679
 3770POPC   GL249562  25.423  32.380   5.888
 3770POPC   C1A49563  25.071  32.000   6.086
 3770POPC   D2A49564  25.135  31.871   6.525
 3770POPC   C3A49565  25.102  32.080   6.922
 3770POPC   C4A49566  25.096  31.938   7.341
 3770POPC   C1B49567  25.027  32.501   6.114
 3770POPC   C2B49568  25.138  32.415   6.521
 3770POPC   C3B49569  25.486  32.441   6.798
 3770POPC   C4B49570  25.450  32.308   7.238
 3771POPC   NC349571  21.746  26.018   5.471
 3771POPC   PO449572  22.423  26.140   5.326
 3771POPC   GL149573  22.258  26.183   5.769
 3771POPC   GL249574  21.990  26.005   5.908
 3771POPC   C1A49575  22.307  26.227   6.243
 3771POPC   D2A49576  22.311  26.028   6.653
 3771POPC   C3A49577  22.252  26.224   7.036
 3771POPC   C4A49578  22.143  26.307   7.455
 3771POPC   C1B49579  21.993  25.795   6.305
 3771POPC   C2B49580  21.947  25.668   6.737
 3771POPC   C3B49581  21.923  25.794   7.149
 3771POPC   C4B49582  21.504  25.749   7.259
 3772POPC   NC349583  32.078  34.885   5.461
 3772POPC   PO449584  31.925  34.271   5.483
 3772POPC   GL149585  32.167  34.281   5.822
 3772POPC   GL249586  32.345  34.601   5.788
 3772POPC   C1A49587  32.280  34.140   6.214
 3772POPC   D2A49588  32.462  34.072   6.609
 3772POPC   C3A49589  32.305  34.271   6.957
 3772POPC   C4A49590  32.506  34.525   7.267
 3772POPC   C1B49591  32.126  34.620   6.171
 3772POPC   C2B49592  32.312  34.572   6.525
 3772POPC   C3B49593  32.299  34.793   6.879
 3772POPC   C4B49594  32.031  34.720   7.229
 3773POPC   NC349595  38.301   0.509   5.500
 3773POPC   PO449596  38.698   1.100   5.520
 3773POPC   GL149597  38.611   0.729   5.876
 3773POPC   GL249598  38.462   0.373   5.944
 3773POPC   C1A49599  38.502   0.637   6.353
 3773POPC   D2A49600  38.540   0.393   6.744
 3773POPC   C3A49601  38.306   0.546   7.119
 3773POPC   C4A49602  38.505   0.751   7.491
 3773POPC   C1B49603  38.558   0.109   6.275
 3773POPC   C2B49604  38.232   0.027   6.566
 3773POPC   C3B49605  38.309  44.996   6.987
 3773POPC   C4B49606  38.063   0.097   7.287
 3774POPC   NC349607  35.823  24.193   5.542
 3774POPC   PO449608  36.340  24.564   5.231
 3774POPC   GL149609  36.239  24.547   5.654
 3774POPC   GL249610  36.392  24.230   5.718
 3774POPC   C1A49611  36.078  24.542   6.092
 3774POPC   D2A49612  36.121  24.341   6.497
 3774POPC   C3A49613  35.952  24.543   6.865
 3774POPC   C4A49614  35.835  24.267   7.195
 3774POPC   C1B49615  36.525  24.203   6.168
 3774POPC   C2B49616  36.501  24.014   6.613
 3774POPC   C3B49617  36.330  24.199   6.999
 3774POPC   C4B49618  36.491  24.276   7.414
 3775POPC   NC349619  43.062  12.678   5.138
 3775POPC   PO449620  43.585  12.757   5.559
 3775POPC   GL149621  43.224  12.859   5.849
 3775POPC   GL249622  42.868  12.701   5.932
 3775POPC   C1A49623  43.202  12.756   6.302
 3775POPC   D2A49624  43.007  12.824   6.648
 3775POPC   C3A49625  43.170  12.560   6.918
 3775POPC   C4A49626  43.033  12.689   7.313
 3775POPC   C1B49627  42.854  13.107   6.195
 3775POPC   C2B49628  42.753  13.256   6.628
 3775POPC   C3B49629  42.750  13.063   7.044
 3775POPC   C4B49630  42.937  13.243   7.394
 3776POPC   NC349631  30.381   4.012   5.528
 3776POPC   PO449632  30.680   4.652   5.470
 3776POPC   GL149633  30.728   4.467   5.884
 3776POPC   GL249634  30.664   4.105   5.949
 3776POPC   C1A49635  30.573   4.459   6.335
 3776POPC   D2A49636  30.810   4.435   6.713
 3776POPC   C3A49637  30.686   4.455   7.168
 3776POPC   C4A49638  30.819   4.741   7.521
 3776POPC   C1B49639  30.250   4.068   6.196
 3776POPC   C2B49640  30.285   4.053   6.624
 3776POPC   C3B49641  30.608   3.959   6.877
 3776POPC   C4B49642  30.641   3.934   7.305
 3777POPC   NC349643  11.940  42.804   5.674
 3777POPC   PO449644  12.243  42.282   5.339
 3777POPC   GL149645  12.185  42.331   5.799
 3777POPC   GL249646  11.955  42.056   5.943
 3777POPC   C1A49647  12.068  42.495   6.212
 3777POPC   D2A49648  11.856  42.284   6.502
 3777POPC   C3A49649  12.171  42.213   6.784
 3777POPC   C4A49650  12.189  42.458   7.147
 3777POPC   C1B49651  12.308  42.048   6.237
 3777POPC   C2B49652  12.637  42.128   6.538
 3777POPC   C3B49653  12.565  41.872   6.869
 3777POPC   C4B49654  12.212  41.924   7.219
 3778POPC   NC349655  32.025   8.199   5.333
 3778POPC   PO449656  32.648   8.608   5.446
 3778POPC   GL149657  32.446   8.335   5.785
 3778POPC   GL249658  32.225   8.019   5.791
 3778POPC   C1A49659  32.296   8.303   6.211
 3778POPC   D2A49660  32.246   8.123   6.607
 3778POPC   C3A49661  32.282   8.488   6.825
 3778POPC   C4A49662  32.535   8.483   7.146
 3778POPC   C1B49663  32.201   7.778   6.197
 3778POPC   C2B49664  32.098   7.573   6.583
 3778POPC   C3B49665  32.257   7.729   6.994
 3778POPC   C4B49666  32.132   8.125   7.167
 3779POPC   NC349667   3.983   4.336   5.193
 3779POPC   PO449668   3.411   4.088   5.080
 3779POPC   GL149669   3.400   4.211   5.571
 3779POPC   GL249670   3.623   4.468   5.698
 3779POPC   C1A49671   3.443   4.039   6.046
 3779POPC   D2A49672   3.586   3.934   6.526
 3779POPC   C3A49673   3.452   4.087   6.978
 3779POPC   C4A49674   3.667   4.038   7.413
 3779POPC   C1B49675   3.669   4.480   6.170
 3779POPC   C2B49676   3.686   4.451   6.644
 3779POPC   C3B49677   3.915   4.301   7.033
 3779POPC   C4B49678   4.050   4.374   7.475
 3780POPC   NC349679  21.536   3.652   5.299
 3780POPC   PO449680  21.112   3.068   5.300
 3780POPC   GL149681  21.190   3.418   5.624
 3780POPC   GL249682  21.453   3.688   5.785
 3780POPC   C1A49683  21.275   3.303   6.052
 3780POPC   D2A49684  21.186   3.192   6.451
 3780POPC   C3A49685  21.310   3.437   6.786
 3780POPC   C4A49686  21.377   3.318   7.189
 3780POPC   C1B49687  21.457   3.778   6.234
 3780POPC   C2B49688  21.782   3.877   6.531
 3780POPC   C3B49689  21.709   3.739   6.957
 3780POPC   C4B49690  21.323   3.823   7.189
 3781POPC   NC349691  30.126  36.897   5.128
 3781POPC   PO449692  29.864  36.603   5.588
 3781POPC   GL149693  30.053  36.938   5.721
 3781POPC   GL249694  30.324  36.746   5.854
 3781POPC   C1A49695  29.806  37.033   6.098
 3781POPC   D2A49696  29.639  36.767   6.451
 3781POPC   C3A49697  29.743  37.015   6.816
 3781POPC   C4A49698  29.970  37.075   7.179
 3781POPC   C1B49699  30.130  36.688   6.267
 3781POPC   C2B49700  30.084  36.630   6.716
 3781POPC   C3B49701  30.357  36.800   7.051
 3781POPC   C4B49702  30.368  36.903   7.524
 3782POPC   NC349703  16.937  27.796   5.438
 3782POPC   PO449704  16.522  27.345   5.318
 3782POPC   GL149705  16.571  27.393   5.758
 3782POPC   GL249706  16.923  27.400   5.757
 3782POPC   C1A49707  16.615  27.581   6.178
 3782POPC   D2A49708  16.784  27.762   6.571
 3782POPC   C3A49709  16.786  27.580   7.001
 3782POPC   C4A49710  16.615  27.687   7.441
 3782POPC   C1B49711  17.040  27.314   6.163
 3782POPC   C2B49712  16.827  27.249   6.548
 3782POPC   C3B49713  16.811  27.058   6.934
 3782POPC   C4B49714  16.901  27.227   7.357
 3783POPC   NC349715  42.512  14.527   5.349
 3783POPC   PO449716  42.099  14.054   5.553
 3783POPC   GL149717  42.235  14.367   5.833
 3783POPC   GL249718  42.593  14.399   5.838
 3783POPC   C1A49719  42.283  14.460   6.277
 3783POPC   D2A49720  42.499  14.372   6.660
 3783POPC   C3A49721  42.261  14.349   7.044
 3783POPC   C4A49722  42.137  14.002   7.365
 3783POPC   C1B49723  42.610  14.791   6.090
 3783POPC   C2B49724  42.740  14.835   6.534
 3783POPC   C3B49725  42.580  14.774   6.972
 3783POPC   C4B49726  42.667  14.642   7.378
 3784POPC   NC349727  23.942  21.567   5.537
 3784POPC   PO449728  24.605  21.311   5.608
 3784POPC   GL149729  24.436  21.361   5.919
 3784POPC   GL249730  24.084  21.283   5.912
 3784POPC   C1A49731  24.696  21.484   6.256
 3784POPC   D2A49732  24.618  21.639   6.657
 3784POPC   C3A49733  24.705  21.383   7.022
 3784POPC   C4A49734  24.716  21.535   7.442
 3784POPC   C1B49735  24.229  21.335   6.353
 3784POPC   C2B49736  24.485  21.122   6.611
 3784POPC   C3B49737  24.292  21.084   6.987
 3784POPC   C4B49738  24.245  21.404   7.309
 3785POPC   NC349739  42.566  10.321   5.508
 3785POPC   PO449740  42.256  10.940   5.481
 3785POPC   GL149741  42.223  10.614   5.808
 3785POPC   GL249742  42.124  10.230   5.762
 3785POPC   C1A49743  42.419  10.577   6.234
 3785POPC   D2A49744  42.305  10.648   6.682
 3785POPC   C3A49745  42.589  10.536   7.051
 3785POPC   C4A49746  42.828  10.214   7.291
 3785POPC   C1B49747  42.179  10.115   6.202
 3785POPC   C2B49748  42.195  10.145   6.656
 3785POPC   C3B49749  42.098  10.323   7.072
 3785POPC   C4B49750  42.366  10.285   7.460
 3786POPC   NC349751  11.053  37.740   5.407
 3786POPC   PO449752  11.375  38.188   5.603
 3786POPC   GL149753  11.201  37.922   5.931
 3786POPC   GL249754  11.188  37.551   5.870
 3786POPC   C1A49755  11.284  37.878   6.386
 3786POPC   D2A49756  11.534  37.577   6.668
 3786POPC   C3A49757  11.377  37.662   7.073
 3786POPC   C4A49758  10.995  37.954   7.107
 3786POPC   C1B49759  11.255  37.387   6.270
 3786POPC   C2B49760  11.039  37.498   6.653
 3786POPC   C3B49761  10.917  37.396   7.017
 3786POPC   C4B49762  11.007  37.540   7.411
 3787POPC   NC349763  36.898  15.409   5.643
 3787POPC   PO449764  36.775  14.787   5.301
 3787POPC   GL149765  36.763  14.912   5.755
 3787POPC   GL249766  37.132  14.967   5.813
 3787POPC   C1A49767  36.593  15.057   6.184
 3787POPC   D2A49768  36.723  15.368   6.520
 3787POPC   C3A49769  36.901  15.153   6.889
 3787POPC   C4A49770  36.836  15.118   7.341
 3787POPC   C1B49771  37.075  14.878   6.247
 3787POPC   C2B49772  36.986  14.698   6.646
 3787POPC   C3B49773  36.934  14.666   7.075
 3787POPC   C4B49774  37.278  14.941   7.176
 3788POPC   NC349775  43.101  11.768   5.550
 3788POPC   PO449776  42.746  12.369   5.291
 3788POPC   GL149777  43.107  12.365   5.608
 3788POPC   GL249778  42.930  12.155   5.859
 3788POPC   C1A49779  43.347  12.348   6.047
 3788POPC   D2A49780  43.137  12.174   6.427
 3788POPC   C3A49781  43.304  11.963   6.806
 3788POPC   C4A49782  43.249  11.698   7.179
 3788POPC   C1B49783  42.760  11.869   6.203
 3788POPC   C2B49784  42.653  11.897   6.663
 3788POPC   C3B49785  42.749  11.872   7.116
 3788POPC   C4B49786  42.860  11.696   7.529
 3789POPC   NC349787   7.849   0.988   5.475
 3789POPC   PO449788   8.117   1.601   5.425
 3789POPC   GL149789   8.307   1.382   5.768
 3789POPC   GL249790   8.487   1.074   5.804
 3789POPC   C1A49791   8.218   1.516   6.159
 3789POPC   D2A49792   7.932   1.481   6.453
 3789POPC   C3A49793   8.040   1.337   6.865
 3789POPC   C4A49794   8.073   1.070   7.218
 3789POPC   C1B49795   8.260   1.007   6.192
 3789POPC   C2B49796   8.402   1.049   6.621
 3789POPC   C3B49797   8.472   0.837   7.019
 3789POPC   C4B49798   8.544   0.913   7.467
 3790POPC   NC349799  10.010  43.459   5.085
 3790POPC   PO449800  10.072  42.856   5.406
 3790POPC   GL149801   9.990  42.862   5.838
 3790POPC   GL249802   9.765  43.172   5.854
 3790POPC   C1A49803   9.983  42.989   6.287
 3790POPC   D2A49804   9.831  43.153   6.682
 3790POPC   C3A49805   9.939  42.939   7.055
 3790POPC   C4A49806   9.655  42.708   7.252
 3790POPC   C1B49807   9.711  43.439   6.242
 3790POPC   C2B49808   9.729  43.652   6.686
 3790POPC   C3B49809   9.700  43.448   7.133
 3790POPC   C4B49810   9.955  43.248   7.481
 3791POPC   NC349811  40.097  35.781   5.138
 3791POPC   PO449812  40.108  35.146   5.415
 3791POPC   GL149813  39.970  35.325   5.817
 3791POPC   GL249814  40.238  35.535   5.980
 3791POPC   C1A49815  39.842  35.266   6.264
 3791POPC   D2A49816  39.876  34.941   6.616
 3791POPC   C3A49817  39.765  35.013   7.053
 3791POPC   C4A49818  39.941  35.049   7.461
 3791POPC   C1B49819  40.309  35.903   6.249
 3791POPC   C2B49820  40.035  35.944   6.608
 3791POPC   C3B49821  39.872  35.597   6.854
 3791POPC   C4B49822  39.881  35.522   7.277
 3792POPC   NC349823  29.324  12.445   5.501
 3792POPC   PO449824  29.044  11.820   5.430
 3792POPC   GL149825  29.184  12.030   5.796
 3792POPC   GL249826  28.870  12.242   5.770
 3792POPC   C1A49827  29.293  12.302   6.186
 3792POPC   D2A49828  28.996  12.519   6.503
 3792POPC   C3A49829  29.058  12.383   6.942
 3792POPC   C4A49830  29.340  12.035   7.046
 3792POPC   C1B49831  28.839  12.082   6.192
 3792POPC   C2B49832  29.044  11.994   6.573
 3792POPC   C3B49833  28.859  11.894   6.946
 3792POPC   C4B49834  29.009  11.713   7.309
 3793POPC   NC349835  37.703  15.465   5.368
 3793POPC   PO449836  38.098  14.967   5.349
 3793POPC   GL149837  38.014  15.195   5.702
 3793POPC   GL249838  37.751  14.964   5.829
 3793POPC   C1A49839  37.851  15.414   6.066
 3793POPC   D2A49840  37.590  15.541   6.416
 3793POPC   C3A49841  37.811  15.487   6.802
 3793POPC   C4A49842  37.594  15.352   7.175
 3793POPC   C1B49843  37.616  14.969   6.269
 3793POPC   C2B49844  37.595  15.001   6.737
 3793POPC   C3B49845  37.769  14.860   7.138
 3793POPC   C4B49846  37.604  14.794   7.572
 3794POPC   NC349847  41.949   8.328   5.169
 3794POPC   PO449848  42.492   8.449   5.527
 3794POPC   GL149849  42.493   8.257   5.916
 3794POPC   GL249850  42.167   8.214   6.041
 3794POPC   C1A49851  42.587   8.238   6.339
 3794POPC   D2A49852  42.652   8.268   6.767
 3794POPC   C3A49853  42.363   8.023   6.919
 3794POPC   C4A49854  42.426   8.188   7.268
 3794POPC   C1B49855  41.942   8.479   6.317
 3794POPC   C2B49856  41.932   8.330   6.724
 3794POPC   C3B49857  41.835   8.122   7.060
 3794POPC   C4B49858  42.039   7.855   7.286
 3795POPC   NC349859  28.456  25.118   5.394
 3795POPC   PO449860  28.644  25.758   5.532
 3795POPC   GL149861  28.441  25.454   5.804
 3795POPC   GL249862  28.540  25.119   5.914
 3795POPC   C1A49863  28.264  25.439   6.207
 3795POPC   D2A49864  28.256  25.241   6.585
 3795POPC   C3A49865  27.866  25.276   6.820
 3795POPC   C4A49866  27.916  25.328   7.255
 3795POPC   C1B49867  28.607  24.910   6.324
 3795POPC   C2B49868  28.513  24.847   6.786
 3795POPC   C3B49869  28.491  25.126   7.103
 3795POPC   C4B49870  28.548  25.451   7.360
 3796POPC   NC349871   1.238  37.071   5.345
 3796POPC   PO449872   1.637  36.443   5.489
 3796POPC   GL149873   1.369  36.764   5.719
 3796POPC   GL249874   1.462  37.143   5.788
 3796POPC   C1A49875   1.111  36.861   6.069
 3796POPC   D2A49876   0.934  36.603   6.419
 3796POPC   C3A49877   0.905  36.715   6.846
 3796POPC   C4A49878   1.063  36.742   7.267
 3796POPC   C1B49879   1.513  37.183   6.213
 3796POPC   C2B49880   1.290  36.971   6.539
 3796POPC   C3B49881   1.291  37.053   6.944
 3796POPC   C4B49882   1.576  36.962   7.257
 3797POPC   NC349883  21.423  10.910   5.563
 3797POPC   PO449884  21.543  11.497   5.691
 3797POPC   GL149885  21.159  11.524   5.887
 3797POPC   GL249886  21.247  11.211   6.008
 3797POPC   C1A49887  20.977  11.586   6.256
 3797POPC   D2A49888  21.263  11.438   6.524
 3797POPC   C3A49889  21.274  11.608   6.922
 3797POPC   C4A49890  21.374  11.314   7.231
 3797POPC   C1B49891  21.576  11.075   6.283
 3797POPC   C2B49892  21.643  11.131   6.709
 3797POPC   C3B49893  21.781  11.014   7.078
 3797POPC   C4B49894  21.567  10.877   7.415
 3798POPC   NC349895  24.052  27.261   5.495
 3798POPC   PO449896  23.522  27.796   5.554
 3798POPC   GL149897  23.785  27.575   5.812
 3798POPC   GL249898  23.627  27.292   5.843
 3798POPC   C1A49899  23.905  27.387   6.259
 3798POPC   D2A49900  23.814  27.322   6.721
 3798POPC   C3A49901  24.052  27.593   7.013
 3798POPC   C4A49902  23.893  27.835   7.385
 3798POPC   C1B49903  23.437  27.597   6.167
 3798POPC   C2B49904  23.390  27.721   6.565
 3798POPC   C3B49905  23.518  27.677   6.974
 3798POPC   C4B49906  23.249  27.816   7.279
 3799POPC   NC349907  29.378  28.222   5.428
 3799POPC   PO449908  28.767  28.241   5.582
 3799POPC   GL149909  29.109  28.410   5.822
 3799POPC   GL249910  29.380  28.683   5.758
 3799POPC   C1A49911  29.206  28.420   6.234
 3799POPC   D2A49912  29.153  28.214   6.602
 3799POPC   C3A49913  28.926  28.431   6.919
 3799POPC   C4A49914  28.933  28.203   7.301
 3799POPC   C1B49915  29.614  28.709   6.180
 3799POPC   C2B49916  29.626  28.428   6.563
 3799POPC   C3B49917  29.431  28.479   6.977
 3799POPC   C4B49918  29.663  28.607   7.306
 3800POPC   NC349919  43.331  17.868   5.651
 3800POPC   PO449920  42.980  18.393   5.371
 3800POPC   GL149921  42.814  18.428   5.748
 3800POPC   GL249922  42.904  18.114   5.912
 3800POPC   C1A49923  42.743  18.535   6.168
 3800POPC   D2A49924  42.893  18.312   6.497
 3800POPC   C3A49925  42.864  18.399   6.936
 3800POPC   C4A49926  42.996  18.054   7.204
 3800POPC   C1B49927  43.247  18.425   6.022
 3800POPC   C2B49928  43.381  18.515   6.412
 3800POPC   C3B49929  43.338  18.290   6.782
 3800POPC   C4B49930  43.342  18.426   7.194
 3801POPC   NC349931  28.245  34.821   5.514
 3801POPC   PO449932  28.680  34.149   5.507
 3801POPC   GL149933  28.468  34.384   5.818
 3801POPC   GL249934  28.620  34.721   5.851
 3801POPC   C1A49935  28.370  34.420   6.265
 3801POPC   D2A49936  28.326  34.745   6.611
 3801POPC   C3A49937  28.409  34.541   6.998
 3801POPC   C4A49938  28.197  34.249   7.253
 3801POPC   C1B49939  28.585  35.063   6.150
 3801POPC   C2B49940  28.740  35.184   6.538
 3801POPC   C3B49941  28.753  34.965   6.909
 3801POPC   C4B49942  28.814  35.075   7.329
 3802POPC   NC349943  32.650   7.345   5.400
 3802POPC   PO449944  33.155   7.758   5.449
 3802POPC   GL149945  33.138   7.511   5.851
 3802POPC   GL249946  32.822   7.412   5.858
 3802POPC   C1A49947  33.017   7.353   6.323
 3802POPC   D2A49948  33.049   7.009   6.663
 3802POPC   C3A49949  33.291   7.172   6.973
 3802POPC   C4A49950  33.222   7.589   7.198
 3802POPC   C1B49951  32.724   7.761   6.119
 3802POPC   C2B49952  32.605   7.710   6.559
 3802POPC   C3B49953  32.776   7.564   6.958
 3802POPC   C4B49954  32.821   7.133   7.152
 3803POPC   NC349955  44.024  10.006   5.380
 3803POPC   PO449956  44.177   9.355   5.406
 3803POPC   GL149957  43.870   9.484   5.807
 3803POPC   GL249958  43.840   9.865   5.863
 3803POPC   C1A49959  43.682   9.537   6.246
 3803POPC   D2A49960  43.725   9.910   6.548
 3803POPC   C3A49961  43.700   9.798   6.977
 3803POPC   C4A49962  43.973   9.486   7.076
 3803POPC   C1B49963  44.129  10.075   6.188
 3803POPC   C2B49964  44.316  10.147   6.634
 3803POPC   C3B49965  44.280   9.933   7.073
 3803POPC   C4B49966  44.164   9.781   7.507
 3804POPC   NC349967  24.189  32.773   5.133
 3804POPC   PO449968  24.501  33.288   5.283
 3804POPC   GL149969  24.426  33.044   5.672
 3804POPC   GL249970  24.692  32.875   5.854
 3804POPC   C1A49971  24.274  33.138   6.094
 3804POPC   D2A49972  24.501  33.162   6.486
 3804POPC   C3A49973  24.362  33.027   6.898
 3804POPC   C4A49974  24.507  32.755   7.238
 3804POPC   C1B49975  24.934  32.998   6.247
 3804POPC   C2B49976  24.978  33.286   6.645
 3804POPC   C3B49977  24.852  33.137   7.062
 3804POPC   C4B49978  24.951  32.932   7.480
 3805POPC   NC349979  36.536  42.927   5.372
 3805POPC   PO449980  36.985  42.348   5.229
 3805POPC   GL149981  36.889  42.431   5.701
 3805POPC   GL249982  36.659  42.167   5.782
 3805POPC   C1A49983  36.822  42.547   6.175
 3805POPC   D2A49984  36.624  42.635   6.593
 3805POPC   C3A49985  36.732  42.455   7.001
 3805POPC   C4A49986  36.467  42.442   7.376
 3805POPC   C1B49987  36.958  42.056   6.124
 3805POPC   C2B49988  36.794  42.121   6.532
 3805POPC   C3B49989  36.837  41.963   6.948
 3805POPC   C4B49990  36.691  41.994   7.371
 3806POPC   NC349991  41.968  31.846   5.171
 3806POPC   PO449992  41.450  31.394   5.379
 3806POPC   GL149993  41.515  31.187   5.768
 3806POPC   GL249994  41.861  31.180   5.869
 3806POPC   C1A49995  41.481  31.087   6.203
 3806POPC   D2A49996  41.564  31.324   6.560
 3806POPC   C3A49997  41.638  31.127   6.938
 3806POPC   C4A49998  41.621  31.278   7.315
 3806POPC   C1B49999  41.966  31.514   6.140
 3806POPC   C2B50000  41.853  31.774   6.457
 3806POPC   C3B50001  41.936  31.602   6.845
 3806POPC   C4B50002  41.761  31.752   7.210
 3807POPC   NC350003  15.299  37.716   5.526
 3807POPC   PO450004  14.711  37.414   5.520
 3807POPC   GL150005  14.803  37.675   5.879
 3807POPC   GL250006  14.960  38.006   5.875
 3807POPC   C1A50007  14.953  37.681   6.294
 3807POPC   D2A50008  15.271  37.732   6.607
 3807POPC   C3A50009  15.070  37.894   6.934
 3807POPC   C4A50010  14.778  37.701   7.168
 3807POPC   C1B50011  15.371  37.935   6.133
 3807POPC   C2B50012  15.619  38.103   6.494
 3807POPC   C3B50013  15.636  37.956   6.933
 3807POPC   C4B50014  15.442  37.587   7.095
 3808POPC   NC350015   2.312  39.092   5.544
 3808POPC   PO450016   2.972  39.343   5.453
 3808POPC   GL150017   2.726  39.268   5.799
 3808POPC   GL250018   2.519  39.536   5.792
 3808POPC   C1A50019   2.695  39.149   6.219
 3808POPC   D2A50020   2.976  39.185   6.555
 3808POPC   C3A50021   2.746  39.165   6.931
 3808POPC   C4A50022   2.710  39.005   7.338
 3808POPC   C1B50023   2.363  39.556   6.193
 3808POPC   C2B50024   2.569  39.539   6.566
 3808POPC   C3B50025   2.350  39.487   6.906
 3808POPC   C4B50026   2.500  39.463   7.300
 3809POPC   NC350027  28.767  10.984   5.361
 3809POPC   PO450028  28.342  11.557   5.442
 3809POPC   GL150029  28.492  11.499   5.876
 3809POPC   GL250030  28.756  11.718   5.841
 3809POPC   C1A50031  28.436  11.304   6.321
 3809POPC   D2A50032  28.550  11.097   6.746
 3809POPC   C3A50033  28.201  11.142   7.058
 3809POPC   C4A50034  28.093  11.481   7.337
 3809POPC   C1B50035  28.864  11.577   6.262
 3809POPC   C2B50036  28.562  11.761   6.546
 3809POPC   C3B50037  28.370  11.702   6.947
 3809POPC   C4B50038  28.609  11.433   7.172
 3810POPC   NC350039  16.647   2.514   5.405
 3810POPC   PO450040  16.942   1.875   5.342
 3810POPC   GL150041  16.747   1.934   5.740
 3810POPC   GL250042  16.857   2.263   5.888
 3810POPC   C1A50043  16.837   1.768   6.162
 3810POPC   D2A50044  17.048   1.773   6.546
 3810POPC   C3A50045  16.796   2.023   6.836
 3810POPC   C4A50046  16.781   2.034   7.282
 3810POPC   C1B50047  16.731   2.288   6.356
 3810POPC   C2B50048  16.362   2.273   6.663
 3810POPC   C3B50049  16.247   2.138   7.101
 3810POPC   C4B50050  16.090   2.155   7.564
 3811POPC   NC350051   3.291   1.361   5.287
 3811POPC   PO450052   2.809   0.989   5.404
 3811POPC   GL150053   2.890   1.217   5.780
 3811POPC   GL250054   2.683   1.499   5.892
 3811POPC   C1A50055   2.797   1.048   6.175
 3811POPC   D2A50056   2.766   1.036   6.595
 3811POPC   C3A50057   2.849   0.710   6.858
 3811POPC   C4A50058   2.771   0.865   7.255
 3811POPC   C1B50059   2.698   1.515   6.369
 3811POPC   C2B50060   3.031   1.462   6.688
 3811POPC   C3B50061   2.981   1.302   7.104
 3811POPC   C4B50062   2.738   1.453   7.434
 3812POPC   NC350063   8.716   6.752   5.499
 3812POPC   PO450064   8.102   6.536   5.307
 3812POPC   GL150065   8.091   6.562   5.810
 3812POPC   GL250066   8.218   6.886   5.944
 3812POPC   C1A50067   7.993   6.505   6.284
 3812POPC   D2A50068   7.925   6.633   6.745
 3812POPC   C3A50069   8.046   6.350   7.081
 3812POPC   C4A50070   8.444   6.320   7.271
 3812POPC   C1B50071   8.537   7.049   6.257
 3812POPC   C2B50072   8.699   6.946   6.695
 3812POPC   C3B50073   8.431   6.829   7.050
 3812POPC   C4B50074   8.047   6.823   7.264
 3813POPC   NC350075   6.782  23.786   5.273
 3813POPC   PO450076   7.530  23.649   5.293
 3813POPC   GL150077   7.641  23.768   5.725
 3813POPC   GL250078   7.344  23.923   5.817
 3813POPC   C1A50079   7.516  23.581   6.149
 3813POPC   D2A50080   7.230  23.498   6.516
 3813POPC   C3A50081   7.448  23.557   6.893
 3813POPC   C4A50082   7.605  23.766   7.252
 3813POPC   C1B50083   7.138  23.953   6.218
 3813POPC   C2B50084   7.330  24.023   6.608
 3813POPC   C3B50085   7.313  24.114   7.013
 3813POPC   C4B50086   7.192  23.993   7.427
 3814POPC   NC350087  41.040  18.398   5.440
 3814POPC   PO450088  41.760  18.031   5.378
 3814POPC   GL150089  41.643  18.354   5.731
 3814POPC   GL250090  41.329  18.408   5.870
 3814POPC   C1A50091  41.785  18.447   6.177
 3814POPC   D2A50092  41.823  18.252   6.603
 3814POPC   C3A50093  41.857  18.498   6.991
 3814POPC   C4A50094  41.985  18.377   7.408
 3814POPC   C1B50095  41.312  18.240   6.307
 3814POPC   C2B50096  40.973  18.195   6.629
 3814POPC   C3B50097  41.055  18.127   7.073
 3814POPC   C4B50098  41.435  18.278   7.324
 3815POPC   NC350099   4.519  34.228   5.563
 3815POPC   PO450100   4.564  33.527   5.582
 3815POPC   GL150101   4.381  33.800   5.870
 3815POPC   GL250102   4.080  33.997   5.755
 3815POPC   C1A50103   4.313  33.904   6.291
 3815POPC   D2A50104   3.924  33.845   6.523
 3815POPC   C3A50105   4.001  33.609   6.901
 3815POPC   C4A50106   4.334  33.757   7.180
 3815POPC   C1B50107   3.947  34.218   6.136
 3815POPC   C2B50108   4.012  34.392   6.554
 3815POPC   C3B50109   4.003  34.139   6.944
 3815POPC   C4B50110   4.063  34.159   7.386
 3816POPC   NC350111  13.935  27.764   5.518
 3816POPC   PO450112  13.291  27.504   5.416
 3816POPC   GL150113  13.490  27.659   5.758
 3816POPC   GL250114  13.430  28.017   5.826
 3816POPC   C1A50115  13.700  27.503   6.122
 3816POPC   D2A50116  13.557  27.413   6.557
 3816POPC   C3A50117  13.750  27.629   6.914
 3816POPC   C4A50118  13.703  27.887   7.297
 3816POPC   C1B50119  13.278  27.761   6.217
 3816POPC   C2B50120  13.246  27.823   6.689
 3816POPC   C3B50121  13.270  27.642   7.117
 3816POPC   C4B50122  12.966  27.693   7.452
 3817POPC   NC350123  12.092  24.278   5.439
 3817POPC   PO450124  12.376  24.680   5.860
 3817POPC   GL150125  12.252  24.240   5.946
 3817POPC   GL250126  11.887  24.148   5.901
 3817POPC   C1A50127  12.366  24.176   6.372
 3817POPC   D2A50128  12.371  24.570   6.637
 3817POPC   C3A50129  12.230  24.531   7.064
 3817POPC   C4A50130  12.477  24.199   7.238
 3817POPC   C1B50131  11.868  24.404   6.282
 3817POPC   C2B50132  11.870  24.673   6.638
 3817POPC   C3B50133  11.815  24.860   7.042
 3817POPC   C4B50134  11.862  24.749   7.471
 3818POPC   NC350135   5.441  39.826   5.455
 3818POPC   PO450136   6.079  39.980   5.364
 3818POPC   GL150137   5.879  39.890   5.764
 3818POPC   GL250138   5.678  39.679   5.861
 3818POPC   C1A50139   5.920  40.012   6.187
 3818POPC   D2A50140   6.122  40.081   6.566
 3818POPC   C3A50141   6.016  39.799   6.870
 3818POPC   C4A50142   5.870  39.685   7.259
 3818POPC   C1B50143   5.435  39.812   6.170
 3818POPC   C2B50144   5.634  39.714   6.523
 3818POPC   C3B50145   5.494  39.740   6.906
 3818POPC   C4B50146   5.367  39.810   7.286
 3819POPC   NC350147  14.154  15.779   5.288
 3819POPC   PO450148  14.457  16.339   5.516
 3819POPC   GL150149  14.409  15.970   5.803
 3819POPC   GL250150  14.676  15.728   5.745
 3819POPC   C1A50151  14.493  15.980   6.268
 3819POPC   D2A50152  14.598  16.031   6.731
 3819POPC   C3A50153  14.266  16.132   7.009
 3819POPC   C4A50154  14.166  15.878   7.343
 3819POPC   C1B50155  14.836  15.616   6.161
 3819POPC   C2B50156  14.995  15.744   6.554
 3819POPC   C3B50157  14.866  15.640   6.951
 3819POPC   C4B50158  14.664  15.871   7.252
 3820POPC   NC350159  13.242  12.030   5.619
 3820POPC   PO450160  13.856  12.101   5.523
 3820POPC   GL150161  13.760  12.165   5.922
 3820POPC   GL250162  13.624  11.843   5.923
 3820POPC   C1A50163  13.521  12.324   6.261
 3820POPC   D2A50164  13.492  12.509   6.665
 3820POPC   C3A50165  13.847  12.356   6.894
 3820POPC   C4A50166  13.837  11.979   7.131
 3820POPC   C1B50167  13.309  11.844   6.231
 3820POPC   C2B50168  13.292  11.610   6.594
 3820POPC   C3B50169  13.364  11.750   6.988
 3820POPC   C4B50170  13.284  11.510   7.328
 3821POPC   NC350171   8.110  42.091   5.430
 3821POPC   PO450172   8.341  42.766   5.446
 3821POPC   GL150173   8.226  42.448   5.798
 3821POPC   GL250174   7.969  42.151   5.899
 3821POPC   C1A50175   8.154  42.487   6.238
 3821POPC   D2A50176   7.981  42.689   6.592
 3821POPC   C3A50177   8.127  42.544   7.001
 3821POPC   C4A50178   8.455  42.569   7.293
 3821POPC   C1B50179   7.904  41.956   6.275
 3821POPC   C2B50180   8.130  42.128   6.630
 3821POPC   C3B50181   8.339  42.082   7.013
 3821POPC   C4B50182   7.998  41.975   7.289
 3822POPC   NC350183  40.853   1.299   5.386
 3822POPC   PO450184  40.191   1.266   5.360
 3822POPC   GL150185  40.489   1.115   5.741
 3822POPC   GL250186  40.880   1.111   5.841
 3822POPC   C1A50187  40.577   1.087   6.224
 3822POPC   D2A50188  40.396   1.078   6.631
 3822POPC   C3A50189  40.662   1.208   6.980
 3822POPC   C4A50190  40.638   1.205   7.418
 3822POPC   C1B50191  41.077   1.243   6.215
 3822POPC   C2B50192  41.005   1.031   6.603
 3822POPC   C3B50193  41.286   0.978   6.915
 3822POPC   C4B50194  41.151   1.250   7.259
 3823POPC   NC350195  37.879  16.108   5.364
 3823POPC   PO450196  37.267  15.642   5.453
 3823POPC   GL150197  37.583  15.850   5.695
 3823POPC   GL250198  37.381  16.124   5.788
 3823POPC   C1A50199  37.859  15.926   6.045
 3823POPC   D2A50200  37.971  15.873   6.463
 3823POPC   C3A50201  37.858  16.033   6.857
 3823POPC   C4A50202  37.907  15.762   7.233
 3823POPC   C1B50203  37.496  16.267   6.186
 3823POPC   C2B50204  37.387  16.043   6.553
 3823POPC   C3B50205  37.384  15.783   6.901
 3823POPC   C4B50206  37.494  16.045   7.220
 3824POPC   NC350207  25.464  22.510   5.500
 3824POPC   PO450208  24.835  22.273   5.460
 3824POPC   GL150209  24.886  22.090   5.875
 3824POPC   GL250210  25.226  22.206   5.918
 3824POPC   C1A50211  25.027  21.884   6.285
 3824POPC   D2A50212  25.389  21.997   6.550
 3824POPC   C3A50213  25.310  22.011   6.977
 3824POPC   C4A50214  25.176  22.032   7.413
 3824POPC   C1B50215  25.036  22.403   6.309
 3824POPC   C2B50216  25.091  22.438   6.778
 3824POPC   C3B50217  25.045  22.498   7.239
 3824POPC   C4B50218  25.136  22.434   7.696
 3825POPC   NC350219   6.406   8.244   5.728
 3825POPC   PO450220   5.875   8.223   5.254
 3825POPC   GL150221   5.900   8.484   5.690
 3825POPC   GL250222   6.165   8.753   5.703
 3825POPC   C1A50223   5.869   8.390   6.193
 3825POPC   D2A50224   5.732   8.138   6.585
 3825POPC   C3A50225   5.883   8.151   7.028
 3825POPC   C4A50226   5.902   7.967   7.489
 3825POPC   C1B50227   6.291   8.722   6.151
 3825POPC   C2B50228   6.247   8.479   6.542
 3825POPC   C3B50229   6.330   8.414   6.970
 3825POPC   C4B50230   6.152   8.442   7.363
 3826POPC   NC350231  16.477  17.887   5.450
 3826POPC   PO450232  17.014  17.550   5.468
 3826POPC   GL150233  16.737  17.452   5.776
 3826POPC   GL250234  16.410  17.272   5.671
 3826POPC   C1A50235  16.803  17.448   6.230
 3826POPC   D2A50236  16.737  17.293   6.656
 3826POPC   C3A50237  16.814  17.527   7.018
 3826POPC   C4A50238  16.747  17.501   7.436
 3826POPC   C1B50239  16.319  17.579   6.017
 3826POPC   C2B50240  16.317  17.679   6.432
 3826POPC   C3B50241  16.330  17.585   6.849
 3826POPC   C4B50242  16.394  17.834   7.232
 3827POPC   NC350243  12.661  12.762   5.369
 3827POPC   PO450244  12.006  12.976   5.278
 3827POPC   GL150245  12.186  12.834   5.629
 3827POPC   GL250246  11.907  12.828   5.807
 3827POPC   C1A50247  12.357  12.977   6.019
 3827POPC   D2A50248  12.387  13.013   6.456
 3827POPC   C3A50249  12.088  13.101   6.765
 3827POPC   C4A50250  12.158  12.877   7.156
 3827POPC   C1B50251  11.841  12.985   6.223
 3827POPC   C2B50252  11.618  12.853   6.590
 3827POPC   C3B50253  11.703  12.829   6.988
 3827POPC   C4B50254  11.698  13.026   7.408
 3828POPC   NC350255  27.395  35.445   5.435
 3828POPC   PO450256  28.029  35.239   5.429
 3828POPC   GL150257  27.784  35.290   5.825
 3828POPC   GL250258  27.456  35.444   5.963
 3828POPC   C1A50259  27.801  35.173   6.262
 3828POPC   D2A50260  27.757  35.313   6.668
 3828POPC   C3A50261  27.787  35.075   7.029
 3828POPC   C4A50262  27.437  35.191   7.249
 3828POPC   C1B50263  27.709  35.711   6.269
 3828POPC   C2B50264  27.748  35.824   6.686
 3828POPC   C3B50265  27.635  35.631   7.046
 3828POPC   C4B50266  28.057  35.503   7.160
 3829POPC   NC350267  10.593  35.646   5.148
 3829POPC   PO450268  10.632  35.297   5.798
 3829POPC   GL150269  10.504  35.557   6.071
 3829POPC   GL250270  10.234  35.690   5.848
 3829POPC   C1A50271  10.815  35.732   6.312
 3829POPC   D2A50272  10.964  35.767   6.715
 3829POPC   C3A50273  10.674  35.627   7.003
 3829POPC   C4A50274  10.751  35.403   7.381
 3829POPC   C1B50275  10.052  35.528   6.260
 3829POPC   C2B50276  10.327  35.412   6.619
 3829POPC   C3B50277  10.155  35.538   6.991
 3829POPC   C4B50278  10.130  35.542   7.411
 3830POPC   NC350279   6.954  24.580   5.398
 3830POPC   PO450280   6.437  24.205   5.256
 3830POPC   GL150281   6.518  24.471   5.674
 3830POPC   GL250282   6.458  24.870   5.683
 3830POPC   C1A50283   6.812  24.505   6.051
 3830POPC   D2A50284   7.123  24.457   6.390
 3830POPC   C3A50285   6.990  24.505   6.821
 3830POPC   C4A50286   6.835  24.206   7.127
 3830POPC   C1B50287   6.435  24.885   6.143
 3830POPC   C2B50288   6.535  24.586   6.490
 3830POPC   C3B50289   6.451  24.489   6.915
 3830POPC   C4B50290   6.707  24.676   7.247
 3831POPC   NC350291  40.446  43.756   5.141
 3831POPC   PO450292  41.063  43.633   5.436
 3831POPC   GL150293  41.002  43.818   5.823
 3831POPC   GL250294  41.231  44.105   5.866
 3831POPC   C1A50295  40.698  43.930   6.176
 3831POPC   D2A50296  40.551  44.244   6.498
 3831POPC   C3A50297  40.461  44.067   6.886
 3831POPC   C4A50298  40.566  43.852   7.251
 3831POPC   C1B50299  41.193  43.944   6.272
 3831POPC   C2B50300  41.048  44.105   6.644
 3831POPC   C3B50301  41.014  43.953   7.042
 3831POPC   C4B50302  41.185  43.763   7.395
 3832POPC   NC350303   7.899  22.569   5.654
 3832POPC   PO450304   8.164  22.889   5.147
 3832POPC   GL150305   8.329  22.893   5.585
 3832POPC   GL250306   8.064  23.070   5.724
 3832POPC   C1A50307   8.449  22.801   6.030
 3832POPC   D2A50308   8.244  22.967   6.414
 3832POPC   C3A50309   8.423  22.923   6.820
 3832POPC   C4A50310   8.259  22.799   7.223
 3832POPC   C1B50311   7.788  23.088   6.101
 3832POPC   C2B50312   7.740  23.273   6.508
 3832POPC   C3B50313   7.940  23.107   6.858
 3832POPC   C4B50314   8.226  23.299   7.156
 3833POPC   NC350315  43.905  26.587   5.173
 3833POPC   PO450316  44.423  26.894   5.533
 3833POPC   GL150317  44.117  26.862   5.792
 3833POPC   GL250318  43.809  26.684   5.695
 3833POPC   C1A50319  44.156  27.015   6.191
 3833POPC   D2A50320  43.904  27.050   6.530
 3833POPC   C3A50321  44.181  27.075   6.852
 3833POPC   C4A50322  44.130  26.888   7.224
 3833POPC   C1B50323  43.792  26.659   6.160
 3833POPC   C2B50324  43.754  26.428   6.539
 3833POPC   C3B50325  43.820  26.659   6.882
 3833POPC   C4B50326  43.639  26.732   7.256
 3834POPC   NC350327  30.480  26.438   5.327
 3834POPC   PO450328  30.523  25.704   5.407
 3834POPC   GL150329  30.454  25.896   5.807
 3834POPC   GL250330  30.464  26.277   5.841
 3834POPC   C1A50331  30.506  25.928   6.245
 3834POPC   D2A50332  30.734  25.908   6.602
 3834POPC   C3A50333  30.502  25.955   6.958
 3834POPC   C4A50334  30.695  25.805   7.283
 3834POPC   C1B50335  30.707  26.394   6.245
 3834POPC   C2B50336  30.633  26.399   6.709
 3834POPC   C3B50337  30.667  26.457   7.177
 3834POPC   C4B50338  30.942  26.516   7.542
 3835POPC   NC350339  26.851   3.611   5.005
 3835POPC   PO450340  26.473   3.340   5.518
 3835POPC   GL150341  26.705   3.554   5.823
 3835POPC   GL250342  27.086   3.536   5.775
 3835POPC   C1A50343  26.657   3.473   6.260
 3835POPC   D2A50344  26.713   3.767   6.619
 3835POPC   C3A50345  27.065   3.763   6.895
 3835POPC   C4A50346  26.835   3.666   7.228
 3835POPC   C1B50347  27.154   3.339   6.188
 3835POPC   C2B50348  26.989   3.326   6.612
 3835POPC   C3B50349  27.100   3.244   7.039
 3835POPC   C4B50350  27.347   3.429   7.330
 3836POPC   NC350351   2.129  34.666   5.476
 3836POPC   PO450352   1.478  34.474   5.462
 3836POPC   GL150353   1.764  34.546   5.800
 3836POPC   GL250354   1.805  34.908   5.830
 3836POPC   C1A50355   2.081  34.606   6.150
 3836POPC   D2A50356   1.973  34.382   6.522
 3836POPC   C3A50357   2.122  34.433   6.948
 3836POPC   C4A50358   2.380  34.206   7.250
 3836POPC   C1B50359   1.619  34.802   6.230
 3836POPC   C2B50360   1.884  34.889   6.559
 3836POPC   C3B50361   2.025  34.947   6.936
 3836POPC   C4B50362   2.312  34.901   7.253
 3837POPC   NC350363  10.400  39.906   5.490
 3837POPC   PO450364  10.730  40.475   5.376
 3837POPC   GL150365  10.646  40.310   5.768
 3837POPC   GL250366  10.782  39.976   5.810
 3837POPC   C1A50367  10.444  40.204   6.153
 3837POPC   D2A50368  10.555  40.289   6.571
 3837POPC   C3A50369  10.270  40.305   6.929
 3837POPC   C4A50370  10.486  40.413   7.342
 3837POPC   C1B50371  10.796  39.804   6.210
 3837POPC   C2B50372  10.693  39.743   6.649
 3837POPC   C3B50373  10.648  39.978   7.050
 3837POPC   C4B50374  10.492  39.938   7.495
 3838POPC   NC350375  19.176  35.448   5.537
 3838POPC   PO450376  18.870  34.871   5.443
 3838POPC   GL150377  18.918  35.137   5.868
 3838POPC   GL250378  18.891  35.550   5.943
 3838POPC   C1A50379  19.130  35.250   6.262
 3838POPC   D2A50380  19.364  35.153   6.641
 3838POPC   C3A50381  19.177  35.282   7.030
 3838POPC   C4A50382  19.143  35.636   7.314
 3838POPC   C1B50383  18.720  35.560   6.352
 3838POPC   C2B50384  18.798  35.250   6.655
 3838POPC   C3B50385  18.649  35.231   7.054
 3838POPC   C4B50386  18.365  35.573   7.172
 3839POPC   NC350387  36.085   8.106   5.431
 3839POPC   PO450388  36.718   8.019   5.242
 3839POPC   GL150389  36.461   7.952   5.752
 3839POPC   GL250390  36.145   8.212   5.911
 3839POPC   C1A50391  36.553   8.115   6.164
 3839POPC   D2A50392  36.287   8.292   6.465
 3839POPC   C3A50393  36.369   8.052   6.818
 3839POPC   C4A50394  36.179   8.069   7.201
 3839POPC   C1B50395  35.735   8.353   6.077
 3839POPC   C2B50396  35.714   8.588   6.475
 3839POPC   C3B50397  35.941   8.475   6.867
 3839POPC   C4B50398  35.817   8.414   7.282
 3840POPC   NC350399   2.343  44.025   5.472
 3840POPC   PO450400   2.946  43.629   5.427
 3840POPC   GL150401   2.981  43.813   5.818
 3840POPC   GL250402   2.624  43.784   5.846
 3840POPC   C1A50403   2.960  43.814   6.258
 3840POPC   D2A50404   2.774  43.714   6.641
 3840POPC   C3A50405   3.026  43.846   7.023
 3840POPC   C4A50406   3.041  43.892   7.495
 3840POPC   C1B50407   2.537  43.510   6.186
 3840POPC   C2B50408   2.290  43.507   6.579
 3840POPC   C3B50409   2.449  43.533   7.024
 3840POPC   C4B50410   2.543  43.818   7.363
 3841POPC   NC350411  34.308   0.171   5.581
 3841POPC   PO450412  34.817   0.553   5.437
 3841POPC   GL150413  34.713   0.410   5.825
 3841POPC   GL250414  34.452   0.613   5.854
 3841POPC   C1A50415  34.585   0.207   6.220
 3841POPC   D2A50416  34.751   0.083   6.620
 3841POPC   C3A50417  34.547   0.255   6.974
 3841POPC   C4A50418  34.760   0.551   7.194
 3841POPC   C1B50419  34.312   0.639   6.265
 3841POPC   C2B50420  34.180   0.426   6.632
 3841POPC   C3B50421  34.223   0.671   7.002
 3841POPC   C4B50422  34.306   0.712   7.416
 3842POPC   NC350423  41.152  40.769   5.495
 3842POPC   PO450424  40.502  40.667   5.375
 3842POPC   GL150425  40.627  40.897   5.754
 3842POPC   GL250426  40.762  40.608   5.829
 3842POPC   C1A50427  40.939  40.990   6.129
 3842POPC   D2A50428  41.193  41.122   6.517
 3842POPC   C3A50429  41.065  40.906   6.903
 3842POPC   C4A50430  40.651  41.002   7.099
 3842POPC   C1B50431  40.594  40.578   6.185
 3842POPC   C2B50432  40.819  40.663   6.533
 3842POPC   C3B50433  40.721  40.534   6.946
 3842POPC   C4B50434  40.505  40.581   7.360
 3843POPC   NC350435  39.649  11.369   5.464
 3843POPC   PO450436  38.950  11.431   5.514
 3843POPC   GL150437  39.130  11.283   5.902
 3843POPC   GL250438  39.485  11.197   5.949
 3843POPC   C1A50439  39.096  11.432   6.322
 3843POPC   D2A50440  39.033  11.627   6.720
 3843POPC   C3A50441  39.027  11.439   7.122
 3843POPC   C4A50442  39.007  11.752   7.496
 3843POPC   C1B50443  39.479  11.106   6.402
 3843POPC   C2B50444  39.494  11.329   6.810
 3843POPC   C3B50445  39.515  11.290   7.279
 3843POPC   C4B50446  39.507  11.104   7.697
 3844POPC   NC350447  35.819  42.916   5.159
 3844POPC   PO450448  35.240  43.173   5.491
 3844POPC   GL150449  35.038  43.194   5.856
 3844POPC   GL250450  35.382  43.144   6.021
 3844POPC   C1A50451  34.949  43.243   6.265
 3844POPC   D2A50452  35.220  43.077   6.563
 3844POPC   C3A50453  35.117  43.201   6.973
 3844POPC   C4A50454  35.290  43.495   7.223
 3844POPC   C1B50455  35.574  42.788   6.266
 3844POPC   C2B50456  35.687  42.595   6.631
 3844POPC   C3B50457  35.768  42.809   6.969
 3844POPC   C4B50458  35.579  43.032   7.259
 3845POPC   NC350459  27.103  23.231   5.375
 3845POPC   PO450460  26.644  22.792   5.438
 3845POPC   GL150461  26.736  22.947   5.810
 3845POPC   GL250462  26.698  23.298   5.713
 3845POPC   C1A50463  26.978  22.812   6.174
 3845POPC   D2A50464  27.209  22.781   6.558
 3845POPC   C3A50465  26.951  22.861   6.920
 3845POPC   C4A50466  26.850  22.639   7.286
 3845POPC   C1B50467  26.808  23.343   6.140
 3845POPC   C2B50468  26.842  23.180   6.521
 3845POPC   C3B50469  26.695  23.319   6.887
 3845POPC   C4B50470  26.894  23.296   7.232
 3846POPC   NC350471   7.257  23.302   5.409
 3846POPC   PO450472   7.482  22.628   5.449
 3846POPC   GL150473   7.207  22.857   5.767
 3846POPC   GL250474   7.028  22.596   5.951
 3846POPC   C1A50475   7.278  23.105   6.184
 3846POPC   D2A50476   7.365  22.947   6.626
 3846POPC   C3A50477   7.346  23.062   7.068
 3846POPC   C4A50478   7.686  23.253   7.263
 3846POPC   C1B50479   7.460  22.635   6.189
 3846POPC   C2B50480   7.800  22.706   6.507
 3846POPC   C3B50481   7.669  22.668   6.942
 3846POPC   C4B50482   7.260  22.543   7.158
 3847POPC   NC350483   4.293  35.652   5.144
 3847POPC   PO450484   4.754  35.381   5.475
 3847POPC   GL150485   4.541  35.585   5.821
 3847POPC   GL250486   4.255  35.350   5.895
 3847POPC   C1A50487   4.355  35.713   6.244
 3847POPC   D2A50488   4.038  35.533   6.530
 3847POPC   C3A50489   4.191  35.445   6.954
 3847POPC   C4A50490   4.370  35.508   7.340
 3847POPC   C1B50491   4.491  35.146   6.184
 3847POPC   C2B50492   4.472  35.218   6.581
 3847POPC   C3B50493   4.580  35.064   6.955
 3847POPC   C4B50494   4.397  35.010   7.294
 3848POPC   NC350495   0.821  35.499   5.108
 3848POPC   PO450496   1.405  35.470   5.513
 3848POPC   GL150497   1.376  35.397   5.936
 3848POPC   GL250498   1.123  35.153   5.900
 3848POPC   C1A50499   1.404  35.551   6.381
 3848POPC   D2A50500   1.495  35.892   6.672
 3848POPC   C3A50501   1.238  35.729   6.942
 3848POPC   C4A50502   1.282  35.348   7.144
 3848POPC   C1B50503   1.211  35.089   6.311
 3848POPC   C2B50504   1.445  35.125   6.661
 3848POPC   C3B50505   1.504  34.896   7.009
 3848POPC   C4B50506   1.380  34.932   7.424
 3849POPC   NC350507   6.489  33.837   5.281
 3849POPC   PO450508   6.960  34.286   5.384
 3849POPC   GL150509   6.848  33.952   5.726
 3849POPC   GL250510   6.740  33.610   5.704
 3849POPC   C1A50511   6.853  33.914   6.183
 3849POPC   D2A50512   6.812  34.174   6.585
 3849POPC   C3A50513   6.877  33.949   6.991
 3849POPC   C4A50514   6.877  34.046   7.458
 3849POPC   C1B50515   6.515  33.538   6.088
 3849POPC   C2B50516   6.444  33.783   6.497
 3849POPC   C3B50517   6.509  33.589   6.900
 3849POPC   C4B50518   6.529  33.708   7.313
 3850POPC   NC350519  27.070  29.091   5.363
 3850POPC   PO450520  26.450  28.962   5.210
 3850POPC   GL150521  26.587  28.917   5.667
 3850POPC   GL250522  26.589  29.283   5.715
 3850POPC   C1A50523  26.678  28.919   6.143
 3850POPC   D2A50524  26.882  28.785   6.556
 3850POPC   C3A50525  27.104  29.057   6.856
 3850POPC   C4A50526  27.005  29.221   7.263
 3850POPC   C1B50527  26.682  29.417   6.165
 3850POPC   C2B50528  26.621  29.252   6.574
 3850POPC   C3B50529  26.673  29.452   6.953
 3850POPC   C4B50530  26.510  29.355   7.357
 3851POPC   NC350531   3.393  23.185   5.527
 3851POPC   PO450532   3.864  22.764   5.296
 3851POPC   GL150533   3.713  22.781   5.714
 3851POPC   GL250534   3.372  22.672   5.656
 3851POPC   C1A50535   3.679  23.007   6.130
 3851POPC   D2A50536   3.787  22.933   6.566
 3851POPC   C3A50537   3.528  23.139   6.872
 3851POPC   C4A50538   3.438  22.987   7.271
 3851POPC   C1B50539   3.333  22.631   6.102
 3851POPC   C2B50540   3.257  22.887   6.490
 3851POPC   C3B50541   3.102  22.808   6.916
 3851POPC   C4B50542   3.206  22.530   7.278
 3852POPC   NC350543  37.615  27.128   5.613
 3852POPC   PO450544  37.910  26.515   5.491
 3852POPC   GL150545  37.627  26.576   5.822
 3852POPC   GL250546  37.280  26.593   5.726
 3852POPC   C1A50547  37.688  26.775   6.206
 3852POPC   D2A50548  37.780  27.063   6.529
 3852POPC   C3A50549  37.913  26.885   6.914
 3852POPC   C4A50550  37.736  27.060   7.261
 3852POPC   C1B50551  37.175  26.816   6.085
 3852POPC   C2B50552  37.248  26.869   6.489
 3852POPC   C3B50553  37.380  26.973   6.865
 3852POPC   C4B50554  37.374  26.696   7.170
 3853POPC   NC350555   9.234   9.332   5.340
 3853POPC   PO450556   8.881   8.739   5.421
 3853POPC   GL150557   8.872   9.011   5.773
 3853POPC   GL250558   9.197   9.077   5.785
 3853POPC   C1A50559   8.847   8.864   6.185
 3853POPC   D2A50560   9.052   8.680   6.551
 3853POPC   C3A50561   9.174   8.899   6.944
 3853POPC   C4A50562   9.119   8.826   7.409
 3853POPC   C1B50563   9.362   8.966   6.198
 3853POPC   C2B50564   9.450   9.201   6.571
 3853POPC   C3B50565   9.381   9.372   6.965
 3853POPC   C4B50566   9.190   9.317   7.342
 3854POPC   NC350567   6.931  11.687   5.516
 3854POPC   PO450568   6.288  11.541   5.420
 3854POPC   GL150569   6.526  11.320   5.733
 3854POPC   GL250570   6.759  11.045   5.708
 3854POPC   C1A50571   6.812  11.376   6.098
 3854POPC   D2A50572   6.790  11.192   6.485
 3854POPC   C3A50573   6.575  11.428   6.813
 3854POPC   C4A50574   6.729  11.406   7.229
 3854POPC   C1B50575   6.479  10.975   6.114
 3854POPC   C2B50576   6.314  11.035   6.566
 3854POPC   C3B50577   6.445  10.983   7.024
 3854POPC   C4B50578   6.734  10.923   7.404
 3855POPC   NC350579  10.754  36.621   5.297
 3855POPC   PO450580  10.909  37.307   5.516
 3855POPC   GL150581  10.717  37.184   5.925
 3855POPC   GL250582  10.487  36.905   5.801
 3855POPC   C1A50583  10.552  36.945   6.312
 3855POPC   D2A50584  10.714  36.697   6.679
 3855POPC   C3A50585  10.618  36.969   6.994
 3855POPC   C4A50586  10.737  37.113   7.397
 3855POPC   C1B50587  10.264  36.576   6.082
 3855POPC   C2B50588  10.319  36.426   6.531
 3855POPC   C3B50589  10.187  36.581   6.959
 3855POPC   C4B50590  10.343  36.795   7.372
 3856POPC   NC350591   1.304  38.051   5.615
 3856POPC   PO450592   1.385  37.499   5.424
 3856POPC   GL150593   1.182  37.584   5.805
 3856POPC   GL250594   0.956  37.283   5.771
 3856POPC   C1A50595   1.295  37.779   6.241
 3856POPC   D2A50596   1.131  38.003   6.607
 3856POPC   C3A50597   1.244  37.856   6.974
 3856POPC   C4A50598   1.028  37.837   7.340
 3856POPC   C1B50599   1.028  37.356   6.223
 3856POPC   C2B50600   1.154  37.473   6.643
 3856POPC   C3B50601   0.950  37.419   7.055
 3856POPC   C4B50602   1.143  37.227   7.428
 3857POPC   NC350603  38.244  12.268   5.513
 3857POPC   PO450604  38.915  12.291   5.565
 3857POPC   GL150605  38.715  12.087   5.864
 3857POPC   GL250606  38.513  11.847   5.680
 3857POPC   C1A50607  38.439  12.262   6.174
 3857POPC   D2A50608  38.256  12.291   6.565
 3857POPC   C3A50609  38.511  12.230   6.931
 3857POPC   C4A50610  38.905  12.010   7.051
 3857POPC   C1B50611  38.475  11.736   6.137
 3857POPC   C2B50612  38.601  11.898   6.548
 3857POPC   C3B50613  38.464  11.731   6.951
 3857POPC   C4B50614  38.157  11.721   7.294
 3858POPC   NC350615  24.687  43.800   5.160
 3858POPC   PO450616  24.441  44.379   5.241
 3858POPC   GL150617  24.645  44.157   5.639
 3858POPC   GL250618  24.678  43.754   5.672
 3858POPC   C1A50619  24.520  44.027   6.086
 3858POPC   D2A50620  24.267  43.787   6.403
 3858POPC   C3A50621  24.310  43.911   6.863
 3858POPC   C4A50622  24.616  44.124   7.136
 3858POPC   C1B50623  24.669  43.536   6.119
 3858POPC   C2B50624  24.572  43.432   6.585
 3858POPC   C3B50625  24.601  43.537   7.043
 3858POPC   C4B50626  24.337  43.738   7.376
 3859POPC   NC350627  37.821  30.486   5.533
 3859POPC   PO450628  37.466  31.063   5.399
 3859POPC   GL150629  37.529  30.835   5.797
 3859POPC   GL250630  37.376  30.528   5.849
 3859POPC   C1A50631  37.477  30.855   6.250
 3859POPC   D2A50632  37.651  30.645   6.626
 3859POPC   C3A50633  37.469  30.878   6.973
 3859POPC   C4A50634  37.245  30.775   7.308
 3859POPC   C1B50635  37.653  30.376   6.151
 3859POPC   C2B50636  37.685  30.033   6.400
 3859POPC   C3B50637  37.715  30.135   6.802
 3859POPC   C4B50638  37.784  30.477   7.121
 3860POPC   NC350639  29.001  35.292   5.321
 3860POPC   PO450640  29.452  35.698   5.487
 3860POPC   GL150641  29.260  35.360   5.773
 3860POPC   GL250642  28.974  35.100   5.788
 3860POPC   C1A50643  29.065  35.416   6.186
 3860POPC   D2A50644  29.166  35.594   6.580
 3860POPC   C3A50645  29.077  35.381   6.928
 3860POPC   C4A50646  29.187  35.476   7.331
 3860POPC   C1B50647  29.081  34.901   6.197
 3860POPC   C2B50648  29.202  34.941   6.655
 3860POPC   C3B50649  29.361  34.991   7.107
 3860POPC   C4B50650  29.257  35.022   7.567
 3861POPC   NC350651  28.957  33.676   5.055
 3861POPC   PO450652  29.464  33.947   5.455
 3861POPC   GL150653  29.461  33.975   5.895
 3861POPC   GL250654  29.444  33.624   5.899
 3861POPC   C1A50655  29.252  33.947   6.297
 3861POPC   D2A50656  29.114  33.652   6.631
 3861POPC   C3A50657  29.394  33.432   6.889
 3861POPC   C4A50658  29.457  33.703   7.189
 3861POPC   C1B50659  29.154  33.443   6.174
 3861POPC   C2B50660  28.729  33.372   6.432
 3861POPC   C3B50661  28.651  33.591   6.818
 3861POPC   C4B50662  28.967  33.593   7.146
 3862POPC   NC350663  42.712  12.931   5.505
 3862POPC   PO450664  42.039  13.067   5.410
 3862POPC   GL150665  42.197  12.853   5.741
 3862POPC   GL250666  42.417  13.105   5.901
 3862POPC   C1A50667  42.148  12.742   6.170
 3862POPC   D2A50668  42.485  12.841   6.432
 3862POPC   C3A50669  42.403  12.738   6.825
 3862POPC   C4A50670  42.226  12.560   7.169
 3862POPC   C1B50671  42.358  13.337   6.288
 3862POPC   C2B50672  42.258  13.336   6.734
 3862POPC   C3B50673  42.226  13.110   7.119
 3862POPC   C4B50674  42.441  13.159   7.503
 3863POPC   NC350675   5.389  13.506   5.334
 3863POPC   PO450676   4.768  13.338   5.465
 3863POPC   GL150677   4.964  13.618   5.799
 3863POPC   GL250678   5.295  13.621   5.815
 3863POPC   C1A50679   5.070  13.814   6.214
 3863POPC   D2A50680   5.277  13.651   6.591
 3863POPC   C3A50681   5.038  13.623   6.973
 3863POPC   C4A50682   5.053  13.750   7.424
 3863POPC   C1B50683   5.286  13.337   6.171
 3863POPC   C2B50684   5.517  13.192   6.536
 3863POPC   C3B50685   5.492  13.273   6.975
 3863POPC   C4B50686   5.164  13.256   7.295
 3864POPC   NC350687   2.305  15.932   5.434
 3864POPC   PO450688   1.613  15.725   5.485
 3864POPC   GL150689   1.749  15.798   5.902
 3864POPC   GL250690   2.067  15.921   5.890
 3864POPC   C1A50691   1.797  15.900   6.362
 3864POPC   D2A50692   1.729  15.930   6.819
 3864POPC   C3A50693   2.047  16.105   7.099
 3864POPC   C4A50694   2.010  16.154   7.556
 3864POPC   C1B50695   2.300  15.716   6.233
 3864POPC   C2B50696   2.386  15.820   6.670
 3864POPC   C3B50697   2.235  15.631   7.042
 3864POPC   C4B50698   1.858  15.666   7.264
 3865POPC   NC350699  20.173  10.035   5.347
 3865POPC   PO450700  20.778   9.887   5.263
 3865POPC   GL150701  20.877   9.967   5.684
 3865POPC   GL250702  20.518  10.075   5.758
 3865POPC   C1A50703  20.801   9.828   6.110
 3865POPC   D2A50704  20.635   9.672   6.494
 3865POPC   C3A50705  20.865   9.717   6.882
 3865POPC   C4A50706  20.835   9.942   7.254
 3865POPC   C1B50707  20.457  10.232   6.215
 3865POPC   C2B50708  20.648  10.170   6.666
 3865POPC   C3B50709  20.451  10.247   7.117
 3865POPC   C4B50710  20.255  10.026   7.507
 3866POPC   NC350711  25.750  20.407   5.059
 3866POPC   PO450712  26.153  20.887   5.384
 3866POPC   GL150713  26.220  20.498   5.667
 3866POPC   GL250714  25.878  20.328   5.732
 3866POPC   C1A50715  26.170  20.498   6.138
 3866POPC   D2A50716  26.166  20.889   6.394
 3866POPC   C3A50717  26.248  20.880   6.822
 3866POPC   C4A50718  26.023  20.654   7.168
 3866POPC   C1B50719  25.748  20.233   6.194
 3866POPC   C2B50720  25.913  20.323   6.643
 3866POPC   C3B50721  25.946  20.151   7.089
 3866POPC   C4B50722  25.930  20.314   7.559
 3867POPC   NC350723  41.702  14.204   5.390
 3867POPC   PO450724  41.315  14.708   5.256
 3867POPC   GL150725  41.506  14.605   5.663
 3867POPC   GL250726  41.455  14.259   5.835
 3867POPC   C1A50727  41.442  14.706   6.095
 3867POPC   D2A50728  41.631  14.764   6.492
 3867POPC   C3A50729  41.428  14.499   6.796
 3867POPC   C4A50730  41.571  14.625   7.168
 3867POPC   C1B50731  41.795  14.334   6.163
 3867POPC   C2B50732  41.922  14.343   6.622
 3867POPC   C3B50733  41.787  14.178   7.022
 3867POPC   C4B50734  41.398  14.108   7.236
 3868POPC   NC350735  21.751  42.824   5.414
 3868POPC   PO450736  22.367  43.043   5.195
 3868POPC   GL150737  22.188  43.106   5.663
 3868POPC   GL250738  21.968  42.868   5.860
 3868POPC   C1A50739  22.360  43.029   6.121
 3868POPC   D2A50740  22.142  42.832   6.501
 3868POPC   C3A50741  22.258  42.888   6.961
 3868POPC   C4A50742  22.183  43.201   7.306
 3868POPC   C1B50743  21.836  43.152   6.189
 3868POPC   C2B50744  21.704  43.229   6.610
 3868POPC   C3B50745  21.761  43.105   7.030
 3868POPC   C4B50746  21.737  43.016   7.467
 3869POPC   NC350747   5.894  25.883   5.042
 3869POPC   PO450748   6.163  25.761   5.640
 3869POPC   GL150749   5.854  25.876   5.936
 3869POPC   GL250750   5.673  25.545   6.010
 3869POPC   C1A50751   5.849  26.216   6.231
 3869POPC   D2A50752   6.028  26.345   6.631
 3869POPC   C3A50753   5.803  26.141   6.957
 3869POPC   C4A50754   6.091  25.911   7.192
 3869POPC   C1B50755   5.443  25.835   6.246
 3869POPC   C2B50756   5.706  25.812   6.583
 3869POPC   C3B50757   5.698  25.629   6.984
 3869POPC   C4B50758   5.567  25.826   7.320
 3870POPC   NC350759  17.428  28.557   5.582
 3870POPC   PO450760  17.989  28.113   5.509
 3870POPC   GL150761  17.713  28.234   5.849
 3870POPC   GL250762  17.842  28.561   5.932
 3870POPC   C1A50763  17.422  28.286   6.221
 3870POPC   D2A50764  17.531  28.387   6.648
 3870POPC   C3A50765  17.286  28.309   6.990
 3870POPC   C4A50766  17.559  28.168   7.308
 3870POPC   C1B50767  17.658  28.827   6.244
 3870POPC   C2B50768  17.771  28.840   6.691
 3870POPC   C3B50769  17.767  28.589   7.087
 3870POPC   C4B50770  17.667  28.611   7.565
 3871POPC   NC350771   9.787  42.499   5.494
 3871POPC   PO450772   9.187  42.271   5.363
 3871POPC   GL150773   9.459  42.105   5.718
 3871POPC   GL250774   9.814  42.123   5.899
 3871POPC   C1A50775   9.392  42.104   6.167
 3871POPC   D2A50776   9.724  42.135   6.491
 3871POPC   C3A50777   9.603  42.066   6.909
 3871POPC   C4A50778   9.689  41.895   7.312
 3871POPC   C1B50779   9.772  42.519   6.170
 3871POPC   C2B50780   9.881  42.606   6.634
 3871POPC   C3B50781   9.963  42.379   7.043
 3871POPC   C4B50782  10.131  42.520   7.440
 3872POPC   NC350783  30.244   8.312   5.532
 3872POPC   PO450784  30.782   7.798   5.455
 3872POPC   GL150785  30.630   8.073   5.768
 3872POPC   GL250786  30.337   7.875   5.770
 3872POPC   C1A50787  30.682   8.349   6.162
 3872POPC   D2A50788  30.659   8.582   6.560
 3872POPC   C3A50789  30.910   8.404   6.885
 3872POPC   C4A50790  30.804   8.370   7.295
 3872POPC   C1B50791  30.419   7.887   6.205
 3872POPC   C2B50792  30.628   8.055   6.571
 3872POPC   C3B50793  30.764   7.912   6.946
 3872POPC   C4B50794  30.529   7.884   7.294
 3873POPC   NC350795  12.859   6.239   5.444
 3873POPC   PO450796  13.178   6.823   5.355
 3873POPC   GL150797  13.035   6.673   5.735
 3873POPC   GL250798  13.235   6.373   5.758
 3873POPC   C1A50799  12.762   6.797   6.109
 3873POPC   D2A50800  12.886   6.919   6.542
 3873POPC   C3A50801  12.808   6.659   6.903
 3873POPC   C4A50802  12.676   6.837   7.291
 3873POPC   C1B50803  13.155   6.485   6.200
 3873POPC   C2B50804  13.261   6.574   6.619
 3873POPC   C3B50805  13.290   6.505   7.078
 3873POPC   C4B50806  13.095   6.278   7.421
 3874POPC   NC350807  14.484  23.877   5.390
 3874POPC   PO450808  13.864  23.804   5.279
 3874POPC   GL150809  14.090  23.725   5.671
 3874POPC   GL250810  14.284  23.427   5.720
 3874POPC   C1A50811  14.071  23.779   6.130
 3874POPC   D2A50812  13.970  23.912   6.569
 3874POPC   C3A50813  14.184  23.764   6.940
 3874POPC   C4A50814  14.566  23.820   7.170
 3874POPC   C1B50815  14.413  23.403   6.187
 3874POPC   C2B50816  14.490  23.439   6.648
 3874POPC   C3B50817  14.771  23.403   7.000
 3874POPC   C4B50818  14.662  23.369   7.444
 3875POPC   NC350819  22.257  19.540   5.060
 3875POPC   PO450820  22.180  20.108   5.461
 3875POPC   GL150821  22.219  19.894   5.803
 3875POPC   GL250822  22.301  19.547   5.637
 3875POPC   C1A50823  22.166  20.044   6.241
 3875POPC   D2A50824  22.004  20.100   6.669
 3875POPC   C3A50825  22.149  20.043   7.104
 3875POPC   C4A50826  21.914  19.697   7.288
 3875POPC   C1B50827  22.288  19.498   6.098
 3875POPC   C2B50828  22.391  19.669   6.507
 3875POPC   C3B50829  22.249  19.571   6.911
 3875POPC   C4B50830  22.432  19.660   7.307
 3876POPC   NC350831   4.737  41.508   5.392
 3876POPC   PO450832   5.411  41.634   5.377
 3876POPC   GL150833   5.105  41.560   5.737
 3876POPC   GL250834   5.167  41.199   5.709
 3876POPC   C1A50835   4.864  41.380   6.125
 3876POPC   D2A50836   4.683  41.303   6.562
 3876POPC   C3A50837   4.987  41.446   6.893
 3876POPC   C4A50838   4.983  41.606   7.298
 3876POPC   C1B50839   5.378  41.302   6.098
 3876POPC   C2B50840   5.228  41.185   6.516
 3876POPC   C3B50841   5.393  41.129   6.924
 3876POPC   C4B50842   5.360  41.295   7.328
 3877POPC   NC350843   0.843  10.276   5.482
 3877POPC   PO450844   0.451   9.672   5.573
 3877POPC   GL150845   0.351   9.796   5.909
 3877POPC   GL250846   0.309  10.141   5.865
 3877POPC   C1A50847   0.109   9.829   6.261
 3877POPC   D2A50848   0.171   9.924   6.685
 3877POPC   C3A50849   0.216   9.674   7.071
 3877POPC   C4A50850   0.505   9.388   7.303
 3877POPC   C1B50851   0.625  10.106   6.197
 3877POPC   C2B50852   0.878  10.312   6.534
 3877POPC   C3B50853   0.858  10.152   6.950
 3877POPC   C4B50854   0.763   9.836   7.276
 3878POPC   NC350855  25.705  26.320   5.045
 3878POPC   PO450856  25.335  25.755   5.276
 3878POPC   GL150857  25.247  25.813   5.701
 3878POPC   GL250858  25.537  26.059   5.761
 3878POPC   C1A50859  25.060  26.093   6.033
 3878POPC   D2A50860  25.295  26.269   6.382
 3878POPC   C3A50861  25.173  26.214   6.801
 3878POPC   C4A50862  25.029  25.903   7.148
 3878POPC   C1B50863  25.461  25.803   6.156
 3878POPC   C2B50864  25.436  25.757   6.603
 3878POPC   C3B50865  25.508  25.908   7.021
 3878POPC   C4B50866  25.477  26.330   7.198
 3879POPC   NC350867   6.455  35.281   5.293
 3879POPC   PO450868   6.996  35.715   5.358
 3879POPC   GL150869   6.779  35.449   5.654
 3879POPC   GL250870   6.619  35.721   5.801
 3879POPC   C1A50871   6.712  35.198   6.038
 3879POPC   D2A50872   6.586  35.220   6.485
 3879POPC   C3A50873   6.727  35.240   6.931
 3879POPC   C4A50874   6.522  35.411   7.280
 3879POPC   C1B50875   6.901  35.652   6.165
 3879POPC   C2B50876   6.994  35.545   6.622
 3879POPC   C3B50877   6.936  35.684   7.079
 3879POPC   C4B50878   6.877  35.681   7.552
 3880POPC   NC350879  26.549  21.116   5.517
 3880POPC   PO450880  26.864  21.782   5.414
 3880POPC   GL150881  26.676  21.573   5.739
 3880POPC   GL250882  26.989  21.400   5.776
 3880POPC   C1A50883  26.674  21.438   6.168
 3880POPC   D2A50884  26.908  21.419   6.532
 3880POPC   C3A50885  26.609  21.284   6.843
 3880POPC   C4A50886  26.475  21.329   7.259
 3880POPC   C1B50887  27.023  21.047   6.068
 3880POPC   C2B50888  27.191  20.943   6.483
 3880POPC   C3B50889  27.173  21.149   6.869
 3880POPC   C4B50890  26.926  21.146   7.201
 3881POPC   NC350891  44.717  24.049   5.192
 3881POPC   PO450892  44.578  23.562   5.624
 3881POPC   GL150893  44.384  23.602   5.945
 3881POPC   GL250894  44.430  23.936   6.080
 3881POPC   C1A50895  44.451  23.491   6.317
 3881POPC   D2A50896  44.641  23.304   6.599
 3881POPC   C3A50897  44.511  23.432   6.944
 3881POPC   C4A50898  44.362  23.593   7.323
 3881POPC   C1B50899  44.843  23.814   6.225
 3881POPC   C2B50900  44.753  23.787   6.633
 3881POPC   C3B50901  44.669  23.893   7.024
 3881POPC   C4B50902   0.101  23.837   7.047
 3882POPC   NC350903  33.704  40.199   5.486
 3882POPC   PO450904  34.067  39.664   5.501
 3882POPC   GL150905  33.905  39.900   5.820
 3882POPC   GL250906  34.191  39.989   5.938
 3882POPC   C1A50907  33.750  40.049   6.212
 3882POPC   D2A50908  33.627  39.833   6.559
 3882POPC   C3A50909  33.652  40.040   6.887
 3882POPC   C4A50910  33.865  40.007   7.254
 3882POPC   C1B50911  34.060  39.600   6.179
 3882POPC   C2B50912  34.056  39.503   6.599
 3882POPC   C3B50913  34.216  39.710   6.933
 3882POPC   C4B50914  34.180  39.615   7.323
 3883POPC   NC350915  16.673  44.688   5.226
 3883POPC   PO450916  17.045  44.158   5.528
 3883POPC   GL150917  16.911  44.500   5.814
 3883POPC   GL250918  16.593  44.635   5.757
 3883POPC   C1A50919  16.971  44.633   6.275
 3883POPC   D2A50920  17.057  44.450   6.681
 3883POPC   C3A50921  17.141  44.719   7.033
 3883POPC   C4A50922  16.908  44.791   7.401
 3883POPC   C1B50923  16.528  44.402   6.164
 3883POPC   C2B50924  16.524  44.490   6.630
 3883POPC   C3B50925  16.638  44.471   7.076
 3883POPC   C4B50926  16.412  44.724   7.390
 3884POPC   NC350927   9.206  34.130   5.411
 3884POPC   PO450928   9.081  33.556   5.148
 3884POPC   GL150929   9.069  33.660   5.622
 3884POPC   GL250930   8.730  33.821   5.680
 3884POPC   C1A50931   9.098  33.865   6.060
 3884POPC   D2A50932   9.064  33.717   6.455
 3884POPC   C3A50933   9.259  33.733   6.814
 3884POPC   C4A50934   9.122  33.750   7.223
 3884POPC   C1B50935   8.645  33.685   6.131
 3884POPC   C2B50936   8.571  33.758   6.562
 3884POPC   C3B50937   8.729  33.956   6.943
 3884POPC   C4B50938   8.638  33.724   7.336
 3885POPC   NC350939  19.769  42.803   5.440
 3885POPC   PO450940  19.753  42.143   5.324
 3885POPC   GL150941  19.765  42.299   5.771
 3885POPC   GL250942  19.571  42.578   5.841
 3885POPC   C1A50943  19.723  42.233   6.243
 3885POPC   D2A50944  19.749  41.947   6.644
 3885POPC   C3A50945  19.985  42.120   7.018
 3885POPC   C4A50946  20.100  42.404   7.389
 3885POPC   C1B50947  19.592  42.759   6.229
 3885POPC   C2B50948  19.795  42.816   6.606
 3885POPC   C3B50949  19.548  42.783   6.946
 3885POPC   C4B50950  19.616  42.502   7.280
 3886POPC   NC350951  30.515  27.322   4.861
 3886POPC   PO450952  30.650  27.597   5.484
 3886POPC   GL150953  30.744  27.554   5.927
 3886POPC   GL250954  31.001  27.832   6.079
 3886POPC   C1A50955  30.449  27.633   6.236
 3886POPC   D2A50956  30.533  27.848   6.606
 3886POPC   C3A50957  30.778  27.743   6.960
 3886POPC   C4A50958  30.513  27.797   7.347
 3886POPC   C1B50959  30.942  27.522   6.418
 3886POPC   C2B50960  30.571  27.332   6.633
 3886POPC   C3B50961  30.444  27.384   7.053
 3886POPC   C4B50962  30.691  27.355   7.450
 3887POPC   NC350963  34.511  21.674   5.492
 3887POPC   PO450964  34.737  20.957   5.435
 3887POPC   GL150965  34.578  21.209   5.784
 3887POPC   GL250966  34.834  21.447   5.865
 3887POPC   C1A50967  34.404  21.385   6.206
 3887POPC   D2A50968  34.631  21.444   6.605
 3887POPC   C3A50969  34.502  21.313   6.987
 3887POPC   C4A50970  34.654  21.331   7.415
 3887POPC   C1B50971  34.815  21.120   6.230
 3887POPC   C2B50972  34.869  20.991   6.690
 3887POPC   C3B50973  34.860  20.941   7.154
 3887POPC   C4B50974  34.870  20.915   7.621
 3888POPC   NC350975  34.347  22.481   5.401
 3888POPC   PO450976  34.745  21.988   5.262
 3888POPC   GL150977  34.789  22.013   5.769
 3888POPC   GL250978  35.073  21.938   5.939
 3888POPC   C1A50979  34.802  22.283   6.208
 3888POPC   D2A50980  34.517  22.453   6.529
 3888POPC   C3A50981  34.507  22.248   6.928
 3888POPC   C4A50982  34.340  22.415   7.298
 3888POPC   C1B50983  34.739  21.778   6.230
 3888POPC   C2B50984  34.382  21.879   6.494
 3888POPC   C3B50985  34.225  21.783   6.891
 3888POPC   C4B50986  34.535  21.785   7.213
 3889POPC   NC350987  44.795  16.239   5.069
 3889POPC   PO450988  44.454  16.055   5.664
 3889POPC   GL150989  44.721  15.867   5.936
 3889POPC   GL250990  44.761  15.496   5.898
 3889POPC   C1A50991  44.792  16.113   6.335
 3889POPC   D2A50992  44.558  16.113   6.729
 3889POPC   C3A50993  44.703  16.161   7.153
 3889POPC   C4A50994  44.453  16.330   7.474
 3889POPC   C1B50995  44.865  15.597   6.331
 3889POPC   C2B50996   0.072  15.803   6.635
 3889POPC   C3B50997  44.854  15.718   6.931
 3889POPC   C4B50998  44.866  15.674   7.311
 3890POPC   NC350999  44.467  24.951   5.444
 3890POPC   PO451000  44.771  25.461   5.537
 3890POPC   GL151001  44.649  25.265   5.890
 3890POPC   GL251002  44.836  24.986   5.797
 3890POPC   C1A51003  44.889  25.217   6.288
 3890POPC   D2A51004  44.772  25.144   6.734
 3890POPC   C3A51005  44.666  25.453   7.069
 3890POPC   C4A51006  44.803  25.738   7.367
 3890POPC   C1B51007  44.591  24.821   6.155
 3890POPC   C2B51008  44.635  24.669   6.584
 3890POPC   C3B51009  44.904  24.724   6.964
 3890POPC   C4B51010   0.062  25.099   7.159
 3891POPC   NC351011  39.576  35.606   5.546
 3891POPC   PO451012  39.117  35.125   5.544
 3891POPC   GL151013  39.353  35.248   5.890
 3891POPC   GL251014  39.047  35.378   6.020
 3891POPC   C1A51015  39.356  35.103   6.321
 3891POPC   D2A51016  39.484  35.271   6.693
 3891POPC   C3A51017  39.247  35.090   6.987
 3891POPC   C4A51018  39.012  35.346   7.216
 3891POPC   C1B51019  39.388  35.602   6.298
 3891POPC   C2B51020  39.425  35.817   6.705
 3891POPC   C3B51021  39.401  35.721   7.161
 3891POPC   C4B51022  39.548  35.748   7.608
 3892POPC   NC351023  31.885  13.435   5.164
 3892POPC   PO451024  31.190  13.530   5.312
 3892POPC   GL151025  31.305  13.667   5.748
 3892POPC   GL251026  31.155  13.372   5.870
 3892POPC   C1A51027  31.492  13.800   6.155
 3892POPC   D2A51028  31.649  13.484   6.466
 3892POPC   C3A51029  31.564  13.531   6.917
 3892POPC   C4A51030  31.475  13.944   7.130
 3892POPC   C1B51031  31.038  13.562   6.231
 3892POPC   C2B51032  31.209  13.747   6.616
 3892POPC   C3B51033  31.043  13.694   7.022
 3892POPC   C4B51034  31.242  13.435   7.306
 3893POPC   NC351035   5.953  10.559   5.466
 3893POPC   PO451036   5.527  10.162   5.654
 3893POPC   GL151037   5.711  10.424   5.916
 3893POPC   GL251038   5.644  10.769   5.981
 3893POPC   C1A51039   5.720  10.373   6.334
 3893POPC   D2A51040   6.090  10.296   6.557
 3893POPC   C3A51041   5.909  10.169   6.928
 3893POPC   C4A51042   5.998  10.274   7.338
 3893POPC   C1B51043   5.996  10.786   6.242
 3893POPC   C2B51044   5.892  10.759   6.676
 3893POPC   C3B51045   5.920  10.732   7.099
 3893POPC   C4B51046   6.055  11.057   7.347
 3894POPC   NC351047  15.389  20.313   5.552
 3894POPC   PO451048  15.500  20.938   5.515
 3894POPC   GL151049  15.316  20.675   5.871
 3894POPC   GL251050  14.980  20.480   5.828
 3894POPC   C1A51051  15.143  20.632   6.276
 3894POPC   D2A51052  15.216  20.806   6.651
 3894POPC   C3A51053  15.016  20.742   7.001
 3894POPC   C4A51054  15.240  20.693   7.368
 3894POPC   C1B51055  14.845  20.225   6.202
 3894POPC   C2B51056  14.916  20.352   6.661
 3894POPC   C3B51057  14.868  20.239   7.105
 3894POPC   C4B51058  14.746  20.569   7.397
 3895POPC   NC351059  23.740   7.118   5.325
 3895POPC   PO451060  23.844   6.374   5.499
 3895POPC   GL151061  23.689   6.740   5.747
 3895POPC   GL251062  23.970   6.777   5.947
 3895POPC   C1A51063  23.495   6.767   6.179
 3895POPC   D2A51064  23.468   6.466   6.540
 3895POPC   C3A51065  23.312   6.595   6.937
 3895POPC   C4A51066  23.535   6.706   7.250
 3895POPC   C1B51067  23.826   6.375   6.154
 3895POPC   C2B51068  23.937   6.226   6.570
 3895POPC   C3B51069  23.802   6.363   6.969
 3895POPC   C4B51070  23.979   6.517   7.355
 3896POPC   NC351071   8.714  25.492   5.585
 3896POPC   PO451072   8.864  26.133   5.349
 3896POPC   GL151073   8.981  26.132   5.795
 3896POPC   GL251074   9.089  25.793   5.852
 3896POPC   C1A51075   8.807  26.176   6.244
 3896POPC   D2A51076   8.973  26.065   6.648
 3896POPC   C3A51077   8.927  26.204   7.105
 3896POPC   C4A51078   9.040  26.228   7.572
 3896POPC   C1B51079   9.348  25.647   6.190
 3896POPC   C2B51080   9.233  25.508   6.611
 3896POPC   C3B51081   9.113  25.721   6.985
 3896POPC   C4B51082   8.976  25.747   7.398
 3897POPC   NC351083  23.224  42.315   5.434
 3897POPC   PO451084  22.668  42.091   5.133
 3897POPC   GL151085  22.834  42.040   5.628
 3897POPC   GL251086  22.794  42.326   5.832
 3897POPC   C1A51087  23.002  41.996   6.123
 3897POPC   D2A51088  23.096  42.256   6.514
 3897POPC   C3A51089  22.893  42.172   6.880
 3897POPC   C4A51090  22.988  42.166   7.289
 3897POPC   C1B51091  23.002  42.598   6.147
 3897POPC   C2B51092  23.122  42.770   6.552
 3897POPC   C3B51093  23.208  42.597   6.980
 3897POPC   C4B51094  23.097  42.648   7.438
 3898POPC   NC351095  39.127  36.215   5.292
 3898POPC   PO451096  39.665  35.922   5.204
 3898POPC   GL151097  39.466  36.086   5.652
 3898POPC   GL251098  39.238  35.843   5.884
 3898POPC   C1A51099  39.202  36.330   5.969
 3898POPC   D2A51100  39.184  36.224   6.446
 3898POPC   C3A51101  39.144  36.208   6.928
 3898POPC   C4A51102  39.240  36.166   7.385
 3898POPC   C1B51103  38.929  35.820   6.294
 3898POPC   C2B51104  38.908  35.761   6.804
 3898POPC   C3B51105  38.889  35.828   7.288
 3898POPC   C4B51106  38.894  35.985   7.747
 3899POPC   NC351107   9.729   2.031   5.231
 3899POPC   PO451108   9.528   1.704   5.753
 3899POPC   GL151109   9.690   2.080   5.868
 3899POPC   GL251110   9.414   2.252   5.909
 3899POPC   C1A51111   9.950   2.115   6.242
 3899POPC   D2A51112  10.174   1.873   6.559
 3899POPC   C3A51113   9.898   1.884   6.883
 3899POPC   C4A51114   9.920   2.177   7.202
 3899POPC   C1B51115   9.373   2.104   6.296
 3899POPC   C2B51116   9.431   1.890   6.653
 3899POPC   C3B51117   9.444   2.037   7.048
 3899POPC   C4B51118   9.407   1.793   7.427
 3900POPC   NC351119   0.885  29.646   5.503
 3900POPC   PO451120   1.149  30.294   5.409
 3900POPC   GL151121   1.242  30.005   5.769
 3900POPC   GL251122   1.496  30.241   5.926
 3900POPC   C1A51123   1.162  29.799   6.208
 3900POPC   D2A51124   1.322  29.659   6.654
 3900POPC   C3A51125   1.106  29.680   7.068
 3900POPC   C4A51126   1.122  29.921   7.486
 3900POPC   C1B51127   1.608  30.094   6.310
 3900POPC   C2B51128   1.678  30.013   6.735
 3900POPC   C3B51129   1.495  30.012   7.146
 3900POPC   C4B51130   1.578  30.121   7.598
 3901POPC   NC351131  37.791  40.608   5.361
 3901POPC   PO451132  37.241  40.531   5.749
 3901POPC   GL151133  37.618  40.478   5.971
 3901POPC   GL251134  37.765  40.768   5.839
 3901POPC   C1A51135  37.696  40.497   6.441
 3901POPC   D2A51136  37.667  40.862   6.719
 3901POPC   C3A51137  37.611  40.804   7.140
 3901POPC   C4A51138  37.644  40.390   7.315
 3901POPC   C1B51139  37.652  41.011   6.196
 3901POPC   C2B51140  37.988  41.136   6.450
 3901POPC   C3B51141  38.086  41.169   6.881
 3901POPC   C4B51142  37.908  41.211   7.279
 3902POPC   NC351143  37.263  31.496   5.365
 3902POPC   PO451144  36.577  31.508   5.295
 3902POPC   GL151145  36.581  31.514   5.750
 3902POPC   GL251146  36.953  31.525   5.853
 3902POPC   C1A51147  36.563  31.477   6.215
 3902POPC   D2A51148  36.891  31.532   6.550
 3902POPC   C3A51149  36.792  31.690   6.946
 3902POPC   C4A51150  36.679  31.458   7.304
 3902POPC   C1B51151  37.267  31.433   6.192
 3902POPC   C2B51152  37.335  31.261   6.588
 3902POPC   C3B51153  37.265  31.494   6.950
 3902POPC   C4B51154  37.199  31.298   7.317
 3903POPC   NC351155  35.884   9.045   5.351
 3903POPC   PO451156  35.237   9.111   5.312
 3903POPC   GL151157  35.461   9.047   5.727
 3903POPC   GL251158  35.276   8.762   5.893
 3903POPC   C1A51159  35.525   9.021   6.223
 3903POPC   D2A51160  35.275   8.880   6.571
 3903POPC   C3A51161  35.487   8.698   6.923
 3903POPC   C4A51162  35.584   8.858   7.303
 3903POPC   C1B51163  35.020   9.088   6.124
 3903POPC   C2B51164  34.944   9.286   6.533
 3903POPC   C3B51165  35.096   9.198   6.958
 3903POPC   C4B51166  35.246   9.212   7.393
 3904POPC   NC351167  11.161  33.513   5.371
 3904POPC   PO451168  11.110  34.255   5.427
 3904POPC   GL151169  11.026  33.994   5.827
 3904POPC   GL251170  11.144  33.622   5.894
 3904POPC   C1A51171  11.118  34.042   6.278
 3904POPC   D2A51172  11.433  33.953   6.584
 3904POPC   C3A51173  11.350  33.818   6.990
 3904POPC   C4A51174  10.968  33.983   7.157
 3904POPC   C1B51175  11.302  33.504   6.323
 3904POPC   C2B51176  11.300  33.353   6.745
 3904POPC   C3B51177  11.344  33.299   7.195
 3904POPC   C4B51178  11.022  33.259   7.516
 3905POPC   NC351179  29.488  11.669   5.464
 3905POPC   PO451180  29.235  11.004   5.306
 3905POPC   GL151181  29.104  11.119   5.733
 3905POPC   GL251182  29.209  11.465   5.856
 3905POPC   C1A51183  29.081  11.058   6.173
 3905POPC   D2A51184  29.293  11.280   6.488
 3905POPC   C3A51185  29.040  11.419   6.833
 3905POPC   C4A51186  29.089  11.188   7.217
 3905POPC   C1B51187  29.351  11.750   6.216
 3905POPC   C2B51188  29.506  11.707   6.668
 3905POPC   C3B51189  29.472  11.541   7.109
 3905POPC   C4B51190  29.475  11.805   7.488
 3906POPC   NC351191  36.415  30.135   5.147
 3906POPC   PO451192  36.361  29.867   5.720
 3906POPC   GL151193  36.015  29.985   5.922
 3906POPC   GL251194  35.771  29.693   5.996
 3906POPC   C1A51195  36.127  30.171   6.326
 3906POPC   D2A51196  36.282  30.029   6.678
 3906POPC   C3A51197  36.000  30.071   6.985
 3906POPC   C4A51198  36.264  30.224   7.253
 3906POPC   C1B51199  36.133  29.664   6.311
 3906POPC   C2B51200  36.425  29.533   6.638
 3906POPC   C3B51201  36.295  29.657   7.056
 3906POPC   C4B51202  35.889  29.582   7.213
 3907POPC   NC351203  42.041  20.585   5.441
 3907POPC   PO451204  42.590  20.045   5.465
 3907POPC   GL151205  42.559  20.241   5.868
 3907POPC   GL251206  42.319  20.397   5.805
 3907POPC   C1A51207  42.559  20.646   6.183
 3907POPC   D2A51208  42.647  20.877   6.569
 3907POPC   C3A51209  42.559  20.668   6.963
 3907POPC   C4A51210  42.753  20.847   7.322
 3907POPC   C1B51211  42.155  20.365   6.248
 3907POPC   C2B51212  42.142  20.755   6.501
 3907POPC   C3B51213  42.063  20.830   6.934
 3907POPC   C4B51214  42.157  20.570   7.289
 3908POPC   NC351215  33.585   7.887   5.620
 3908POPC   PO451216  33.839   7.402   5.173
 3908POPC   GL151217  33.839   7.288   5.642
 3908POPC   GL251218  33.955   7.574   5.817
 3908POPC   C1A51219  33.578   7.334   6.056
 3908POPC   D2A51220  33.578   7.245   6.515
 3908POPC   C3A51221  33.618   7.546   6.845
 3908POPC   C4A51222  33.665   7.354   7.254
 3908POPC   C1B51223  34.064   7.465   6.238
 3908POPC   C2B51224  34.096   7.649   6.648
 3908POPC   C3B51225  34.091   7.492   7.064
 3908POPC   C4B51226  34.001   7.583   7.553
 3909POPC   NC351227  40.403  35.551   5.500
 3909POPC   PO451228  40.999  35.777   5.440
 3909POPC   GL151229  40.862  35.489   5.792
 3909POPC   GL251230  40.675  35.206   5.795
 3909POPC   C1A51231  40.768  35.646   6.225
 3909POPC   D2A51232  40.896  35.695   6.669
 3909POPC   C3A51233  40.874  35.287   6.899
 3909POPC   C4A51234  40.700  35.173   7.278
 3909POPC   C1B51235  40.506  35.194   6.218
 3909POPC   C2B51236  40.257  35.308   6.573
 3909POPC   C3B51237  40.367  35.422   6.979
 3909POPC   C4B51238  40.725  35.681   7.169
 3910POPC   NC351239  24.604   4.073   5.521
 3910POPC   PO451240  24.500   4.598   5.210
 3910POPC   GL151241  24.501   4.586   5.671
 3910POPC   GL251242  24.248   4.406   5.745
 3910POPC   C1A51243  24.398   4.644   6.152
 3910POPC   D2A51244  24.138   4.493   6.521
 3910POPC   C3A51245  24.326   4.589   6.900
 3910POPC   C4A51246  24.481   4.388   7.228
 3910POPC   C1B51247  24.214   4.147   6.148
 3910POPC   C2B51248  24.093   3.960   6.546
 3910POPC   C3B51249  24.085   4.121   7.012
 3910POPC   C4B51250  24.136   4.136   7.511
 3911POPC   NC351251  28.770   6.193   5.470
 3911POPC   PO451252  29.433   5.735   5.363
 3911POPC   GL151253  29.144   5.755   5.699
 3911POPC   GL251254  29.097   6.078   5.847
 3911POPC   C1A51255  29.207   5.637   6.118
 3911POPC   D2A51256  29.392   5.766   6.478
 3911POPC   C3A51257  29.205   5.620   6.865
 3911POPC   C4A51258  28.956   5.639   7.243
 3911POPC   C1B51259  28.884   6.041   6.254
 3911POPC   C2B51260  28.990   6.077   6.710
 3911POPC   C3B51261  28.758   6.191   7.118
 3911POPC   C4B51262  28.827   6.175   7.599
 3912POPC   NC351263  35.812  27.003   5.263
 3912POPC   PO451264  36.509  27.056   5.281
 3912POPC   GL151265  36.305  26.870   5.669
 3912POPC   GL251266  35.956  27.002   5.740
 3912POPC   C1A51267  36.186  26.742   6.110
 3912POPC   D2A51268  36.371  26.685   6.511
 3912POPC   C3A51269  36.267  26.897   6.880
 3912POPC   C4A51270  36.235  26.633   7.255
 3912POPC   C1B51271  35.762  27.036   6.157
 3912POPC   C2B51272  35.855  26.818   6.552
 3912POPC   C3B51273  35.769  26.943   6.973
 3912POPC   C4B51274  36.010  27.275   7.165
 3913POPC   NC351275  14.434  39.436   5.396
 3913POPC   PO451276  13.829  39.005   5.493
 3913POPC   GL151277  14.228  39.143   5.783
 3913POPC   GL251278  14.591  39.181   5.815
 3913POPC   C1A51279  14.353  39.232   6.247
 3913POPC   D2A51280  14.468  39.542   6.534
 3913POPC   C3A51281  14.518  39.405   6.942
 3913POPC   C4A51282  14.346  39.336   7.367
 3913POPC   C1B51283  14.833  39.003   6.147
 3913POPC   C2B51284  14.842  39.205   6.527
 3913POPC   C3B51285  15.023  39.338   6.889
 3913POPC   C4B51286  14.859  39.266   7.296
 3914POPC   NC351287  10.375   7.838   5.456
 3914POPC   PO451288  10.553   7.169   5.433
 3914POPC   GL151289  10.623   7.376   5.833
 3914POPC   GL251290  10.667   7.722   5.858
 3914POPC   C1A51291  10.605   7.326   6.267
 3914POPC   D2A51292  10.419   7.059   6.563
 3914POPC   C3A51293  10.586   7.199   6.926
 3914POPC   C4A51294  10.746   7.485   7.219
 3914POPC   C1B51295  10.355   7.766   6.189
 3914POPC   C2B51296  10.437   7.635   6.629
 3914POPC   C3B51297  10.272   7.660   7.020
 3914POPC   C4B51298  10.060   8.003   7.180
 3915POPC   NC351299  44.023  14.992   5.263
 3915POPC   PO451300  43.963  15.596   5.456
 3915POPC   GL151301  43.888  15.355   5.813
 3915POPC   GL251302  43.872  15.003   5.764
 3915POPC   C1A51303  43.999  15.426   6.241
 3915POPC   D2A51304  44.114  15.218   6.622
 3915POPC   C3A51305  43.886  15.372   6.975
 3915POPC   C4A51306  43.476  15.182   7.103
 3915POPC   C1B51307  43.896  14.934   6.221
 3915POPC   C2B51308  43.873  14.741   6.648
 3915POPC   C3B51309  43.886  14.865   7.082
 3915POPC   C4B51310  43.951  15.178   7.435
 3916POPC   NC351311  35.839   2.221   5.516
 3916POPC   PO451312  35.122   2.209   5.561
 3916POPC   GL151313  35.231   1.970   5.895
 3916POPC   GL251314  35.527   2.143   5.937
 3916POPC   C1A51315  35.270   1.689   6.231
 3916POPC   D2A51316  35.135   1.566   6.619
 3916POPC   C3A51317  35.330   1.743   6.943
 3916POPC   C4A51318  35.444   1.767   7.356
 3916POPC   C1B51319  35.246   2.299   6.304
 3916POPC   C2B51320  35.293   2.315   6.766
 3916POPC   C3B51321  35.178   2.182   7.175
 3916POPC   C4B51322  35.350   2.202   7.603
 3917POPC   NC351323   5.559   6.464   5.403
 3917POPC   PO451324   5.843   7.093   5.332
 3917POPC   GL151325   5.882   6.798   5.677
 3917POPC   GL251326   6.214   6.712   5.776
 3917POPC   C1A51327   5.815   6.589   6.077
 3917POPC   D2A51328   5.728   6.733   6.496
 3917POPC   C3A51329   5.797   6.514   6.840
 3917POPC   C4A51330   5.789   6.596   7.249
 3917POPC   C1B51331   6.361   6.844   6.177
 3917POPC   C2B51332   6.246   6.727   6.588
 3917POPC   C3B51333   6.141   6.879   6.977
 3917POPC   C4B51334   6.421   7.028   7.226
 3918POPC   NC351335  39.404   8.518   5.457
 3918POPC   PO451336  39.373   7.903   5.401
 3918POPC   GL151337  39.195   8.129   5.790
 3918POPC   GL251338  39.407   8.403   5.943
 3918POPC   C1A51339  39.149   8.123   6.280
 3918POPC   D2A51340  39.313   8.272   6.698
 3918POPC   C3A51341  39.248   8.097   7.148
 3918POPC   C4A51342  39.451   7.770   7.466
 3918POPC   C1B51343  38.965   8.534   6.038
 3918POPC   C2B51344  38.864   8.535   6.492
 3918POPC   C3B51345  38.886   8.428   6.943
 3918POPC   C4B51346  39.003   8.517   7.388
 3919POPC   NC351347  39.481  30.844   5.293
 3919POPC   PO451348  38.961  30.553   5.586
 3919POPC   GL151349  39.362  30.722   5.802
 3919POPC   GL251350  39.526  30.419   5.948
 3919POPC   C1A51351  39.453  30.904   6.247
 3919POPC   D2A51352  39.148  30.891   6.609
 3919POPC   C3A51353  39.146  30.939   7.054
 3919POPC   C4A51354  39.523  30.798   7.253
 3919POPC   C1B51355  39.154  30.487   6.225
 3919POPC   C2B51356  39.031  30.358   6.644
 3919POPC   C3B51357  39.194  30.420   7.060
 3919POPC   C4B51358  38.951  30.575   7.376
 3920POPC   NC351359  10.085  44.397   5.013
 3920POPC   PO451360   9.695  44.736   5.338
 3920POPC   GL151361   9.676  44.641   5.771
 3920POPC   GL251362   9.328  44.556   5.792
 3920POPC   C1A51363   9.840  44.453   6.161
 3920POPC   D2A51364  10.114  44.570   6.497
 3920POPC   C3A51365   9.939  44.647   6.890
 3920POPC   C4A51366   9.764   0.002   7.106
 3920POPC   C1B51367   9.377  44.732   6.228
 3920POPC   C2B51368   9.431  44.558   6.664
 3920POPC   C3B51369   9.393  44.659   7.121
 3920POPC   C4B51370   9.519  44.521   7.525
 3921POPC   NC351371   2.022   2.774   5.256
 3921POPC   PO451372   1.638   2.177   5.241
 3921POPC   GL151373   1.761   2.367   5.674
 3921POPC   GL251374   2.107   2.530   5.728
 3921POPC   C1A51375   1.755   2.503   6.143
 3921POPC   D2A51376   1.735   2.722   6.574
 3921POPC   C3A51377   1.921   2.664   7.010
 3921POPC   C4A51378   1.764   2.625   7.418
 3921POPC   C1B51379   2.275   2.701   6.150
 3921POPC   C2B51380   2.265   2.616   6.618
 3921POPC   C3B51381   2.382   2.927   6.988
 3921POPC   C4B51382   2.656   3.138   7.351
 3922POPC   NC351383  15.549  39.164   5.314
 3922POPC   PO451384  14.817  39.105   5.379
 3922POPC   GL151385  15.121  39.164   5.746
 3922POPC   GL251386  15.386  38.922   5.744
 3922POPC   C1A51387  15.208  39.371   6.184
 3922POPC   D2A51388  15.450  39.271   6.557
 3922POPC   C3A51389  15.506  39.508   6.934
 3922POPC   C4A51390  15.398  39.299   7.308
 3922POPC   C1B51391  15.411  38.908   6.176
 3922POPC   C2B51392  15.152  38.811   6.545
 3922POPC   C3B51393  15.343  38.929   6.931
 3922POPC   C4B51394  15.501  38.781   7.320
 3923POPC   NC351395   4.570   0.056   5.033
 3923POPC   PO451396   4.083  44.933   5.486
 3923POPC   GL151397   4.094  44.736   5.868
 3923POPC   GL251398   4.397  44.610   5.804
 3923POPC   C1A51399   4.092  44.860   6.279
 3923POPC   D2A51400   3.893  44.840   6.655
 3923POPC   C3A51401   4.174  44.679   6.952
 3923POPC   C4A51402   4.240  44.864   7.332
 3923POPC   C1B51403   4.585  44.861   6.158
 3923POPC   C2B51404   4.503  44.764   6.568
 3923POPC   C3B51405   4.731  44.860   6.914
 3923POPC   C4B51406   4.690  44.679   7.280
 3924POPC   NC351407  38.550  33.654   5.489
 3924POPC   PO451408  37.926  33.893   5.372
 3924POPC   GL151409  38.190  33.898   5.788
 3924POPC   GL251410  38.480  34.017   5.856
 3924POPC   C1A51411  38.222  33.711   6.256
 3924POPC   D2A51412  38.206  33.444   6.676
 3924POPC   C3A51413  38.438  33.577   7.102
 3924POPC   C4A51414  38.245  33.852   7.479
 3924POPC   C1B51415  38.596  34.058   6.251
 3924POPC   C2B51416  38.525  33.898   6.657
 3924POPC   C3B51417  38.361  34.053   7.016
 3924POPC   C4B51418  38.689  34.056   7.314
 3925POPC   NC351419   6.547  39.951   5.362
 3925POPC   PO451420   7.046  39.892   5.780
 3925POPC   GL151421   6.689  40.163   5.842
 3925POPC   GL251422   6.322  40.138   5.808
 3925POPC   C1A51423   6.570  40.340   6.208
 3925POPC   D2A51424   6.652  40.129   6.584
 3925POPC   C3A51425   6.769  40.354   6.932
 3925POPC   C4A51426   6.856  40.174   7.316
 3925POPC   C1B51427   6.403  39.816   6.171
 3925POPC   C2B51428   6.459  39.664   6.635
 3925POPC   C3B51429   6.470  39.939   7.041
 3925POPC   C4B51430   6.276  39.892   7.465
 3926POPC   NC351431  35.036   4.970   5.495
 3926POPC   PO451432  34.279   4.925   5.364
 3926POPC   GL151433  34.375   5.137   5.786
 3926POPC   GL251434  34.728   5.096   5.881
 3926POPC   C1A51435  34.378   5.052   6.256
 3926POPC   D2A51436  34.651   5.133   6.623
 3926POPC   C3A51437  34.431   5.192   7.013
 3926POPC   C4A51438  34.443   4.924   7.353
 3926POPC   C1B51439  34.848   4.804   6.205
 3926POPC   C2B51440  34.760   4.607   6.598
 3926POPC   C3B51441  34.808   4.754   7.025
 3926POPC   C4B51442  34.869   4.728   7.491
 3927POPC   NC351443  25.307   9.593   5.239
 3927POPC   PO451444  25.802   9.934   5.218
 3927POPC   GL151445  25.467   9.928   5.632
 3927POPC   GL251446  25.247   9.649   5.726
 3927POPC   C1A51447  25.201   9.949   6.104
 3927POPC   D2A51448  25.367   9.923   6.514
 3927POPC   C3A51449  25.257   9.822   6.934
 3927POPC   C4A51450  24.958  10.037   7.207
 3927POPC   C1B51451  25.273   9.430   6.126
 3927POPC   C2B51452  25.142   9.451   6.535
 3927POPC   C3B51453  25.276   9.292   6.901
 3927POPC   C4B51454  25.266   9.434   7.314
 3928POPC   NC351455  23.459  29.918   5.429
 3928POPC   PO451456  24.118  29.767   5.599
 3928POPC   GL151457  23.848  29.908   5.866
 3928POPC   GL251458  23.546  29.731   5.895
 3928POPC   C1A51459  23.911  30.117   6.223
 3928POPC   D2A51460  23.631  30.212   6.562
 3928POPC   C3A51461  23.801  30.008   6.905
 3928POPC   C4A51462  23.870  30.043   7.346
 3928POPC   C1B51463  23.547  29.735   6.323
 3928POPC   C2B51464  23.585  29.484   6.679
 3928POPC   C3B51465  23.448  29.681   7.026
 3928POPC   C4B51466  23.376  30.078   7.188
 3929POPC   NC351467  28.274   5.386   5.150
 3929POPC   PO451468  28.309   4.850   5.631
 3929POPC   GL151469  28.530   5.138   5.846
 3929POPC   GL251470  28.597   5.357   5.571
 3929POPC   C1A51471  28.448   5.239   6.283
 3929POPC   D2A51472  28.118   5.131   6.585
 3929POPC   C3A51473  28.218   5.008   6.995
 3929POPC   C4A51474  28.116   5.100   7.443
 3929POPC   C1B51475  28.733   5.591   5.963
 3929POPC   C2B51476  28.795   5.575   6.450
 3929POPC   C3B51477  28.481   5.466   6.790
 3929POPC   C4B51478  28.541   5.322   7.233
 3930POPC   NC351479   5.011  43.406   5.494
 3930POPC   PO451480   5.037  42.677   5.540
 3930POPC   GL151481   5.184  42.821   5.904
 3930POPC   GL251482   4.973  43.139   5.990
 3930POPC   C1A51483   5.152  42.743   6.327
 3930POPC   D2A51484   5.040  43.071   6.571
 3930POPC   C3A51485   5.076  43.028   6.983
 3930POPC   C4A51486   5.347  43.288   7.188
 3930POPC   C1B51487   4.661  43.319   6.343
 3930POPC   C2B51488   4.611  43.275   6.800
 3930POPC   C3B51489   4.789  43.405   7.205
 3930POPC   C4B51490   5.023  43.330   7.616
 3931POPC   NC351491  18.568  44.601   5.593
 3931POPC   PO451492  19.126  44.855   5.392
 3931POPC   GL151493  18.993  44.817   5.821
 3931POPC   GL251494  18.677   0.012   5.888
 3931POPC   C1A51495  19.210  44.866   6.225
 3931POPC   D2A51496  19.509  44.625   6.483
 3931POPC   C3A51497  19.300  44.499   6.841
 3931POPC   C4A51498  19.020  44.687   7.149
 3931POPC   C1B51499  18.706  44.753   6.280
 3931POPC   C2B51500  18.771  44.555   6.701
 3931POPC   C3B51501  18.545  44.500   7.117
 3931POPC   C4B51502  18.640  44.701   7.503
 3932POPC   NC351503  42.710  31.663   5.577
 3932POPC   PO451504  42.071  31.449   5.448
 3932POPC   GL151505  42.331  31.371   5.786
 3932POPC   GL251506  42.378  30.993   5.786
 3932POPC   C1A51507  42.497  31.538   6.185
 3932POPC   D2A51508  42.358  31.788   6.514
 3932POPC   C3A51509  42.523  31.715   6.896
 3932POPC   C4A51510  42.263  31.688   7.232
 3932POPC   C1B51511  42.239  31.086   6.216
 3932POPC   C2B51512  42.326  31.290   6.623
 3932POPC   C3B51513  42.235  31.220   7.062
 3932POPC   C4B51514  42.485  31.286   7.451
 3933POPC   NC351515   0.859   9.478   5.509
 3933POPC   PO451516   1.559   9.526   5.526
 3933POPC   GL151517   1.340   9.228   5.831
 3933POPC   GL251518   0.998   9.300   5.989
 3933POPC   C1A51519   1.387   9.083   6.281
 3933POPC   D2A51520   1.174   9.342   6.601
 3933POPC   C3A51521   1.353   9.265   7.003
 3933POPC   C4A51522   1.506   8.893   7.180
 3933POPC   C1B51523   0.894   8.997   6.335
 3933POPC   C2B51524   1.141   8.842   6.711
 3933POPC   C3B51525   0.992   8.909   7.148
 3933POPC   C4B51526   0.755   8.987   7.545
 3934POPC   NC351527  27.289   7.015   5.088
 3934POPC   PO451528  27.695   6.560   5.325
 3934POPC   GL151529  27.648   6.572   5.744
 3934POPC   GL251530  27.413   6.346   5.742
 3934POPC   C1A51531  27.653   6.798   6.136
 3934POPC   D2A51532  27.389   6.853   6.520
 3934POPC   C3A51533  27.586   6.810   6.934
 3934POPC   C4A51534  27.798   6.506   7.207
 3934POPC   C1B51535  27.385   6.362   6.159
 3934POPC   C2B51536  27.651   6.400   6.507
 3934POPC   C3B51537  27.419   6.315   6.821
 3934POPC   C4B51538  27.043   6.097   6.962
 3935POPC   NC351539  28.445   3.814   5.105
 3935POPC   PO451540  28.185   3.300   5.342
 3935POPC   GL151541  28.383   3.500   5.737
 3935POPC   GL251542  28.086   3.374   5.914
 3935POPC   C1A51543  28.620   3.684   6.142
 3935POPC   D2A51544  28.571   3.875   6.574
 3935POPC   C3A51545  28.552   3.565   6.911
 3935POPC   C4A51546  28.506   3.450   7.351
 3935POPC   C1B51547  28.107   3.648   6.269
 3935POPC   C2B51548  28.023   3.542   6.694
 3935POPC   C3B51549  28.086   3.636   7.115
 3935POPC   C4B51550  28.011   3.399   7.497
 3936POPC   NC351551   2.451  31.564   5.306
 3936POPC   PO451552   2.824  30.965   5.354
 3936POPC   GL151553   2.862  31.401   5.626
 3936POPC   GL251554   2.633  31.688   5.766
 3936POPC   C1A51555   2.979  31.507   6.068
 3936POPC   D2A51556   2.963  31.352   6.488
 3936POPC   C3A51557   3.051  31.519   6.908
 3936POPC   C4A51558   2.799  31.438   7.292
 3936POPC   C1B51559   2.524  31.709   6.243
 3936POPC   C2B51560   2.443  31.872   6.687
 3936POPC   C3B51561   2.612  31.918   7.133
 3936POPC   C4B51562   2.449  31.903   7.577
 3937POPC   NC351563  34.146  41.179   5.376
 3937POPC   PO451564  33.945  40.543   5.301
 3937POPC   GL151565  33.809  40.667   5.740
 3937POPC   GL251566  33.923  40.428   5.902
 3937POPC   C1A51567  33.833  40.940   6.117
 3937POPC   D2A51568  33.644  41.106   6.494
 3937POPC   C3A51569  33.731  40.966   6.895
 3937POPC   C4A51570  33.862  40.950   7.323
 3937POPC   C1B51571  34.014  40.486   6.326
 3937POPC   C2B51572  33.738  40.513   6.671
 3937POPC   C3B51573  33.723  40.491   7.131
 3937POPC   C4B51574  33.968  40.451   7.506
 3938POPC   NC351575   9.420   6.976   5.316
 3938POPC   PO451576   9.065   6.421   5.498
 3938POPC   GL151577   9.049   6.635   5.862
 3938POPC   GL251578   9.140   6.965   5.769
 3938POPC   C1A51579   8.809   6.610   6.228
 3938POPC   D2A51580   9.017   6.537   6.581
 3938POPC   C3A51581   8.809   6.475   6.959
 3938POPC   C4A51582   8.977   6.268   7.312
 3938POPC   C1B51583   9.138   7.011   6.219
 3938POPC   C2B51584   9.310   6.946   6.618
 3938POPC   C3B51585   9.194   6.785   7.003
 3938POPC   C4B51586   9.109   6.746   7.431
 3939POPC   NC351587   2.449  17.306   5.530
 3939POPC   PO451588   2.845  17.819   5.570
 3939POPC   GL151589   2.861  17.446   5.813
 3939POPC   GL251590   3.184  17.290   5.784
 3939POPC   C1A51591   2.676  17.508   6.221
 3939POPC   D2A51592   2.573  17.811   6.536
 3939POPC   C3A51593   2.828  17.771   6.910
 3939POPC   C4A51594   2.749  17.451   7.229
 3939POPC   C1B51595   2.977  17.097   6.194
 3939POPC   C2B51596   2.934  17.066   6.680
 3939POPC   C3B51597   2.930  16.987   7.158
 3939POPC   C4B51598   3.107  17.106   7.572
 3940POPC   NC351599  26.758  26.909   5.371
 3940POPC   PO451600  27.413  27.031   5.572
 3940POPC   GL151601  27.020  26.881   5.823
 3940POPC   GL251602  26.714  26.631   5.821
 3940POPC   C1A51603  26.904  26.800   6.257
 3940POPC   D2A51604  27.162  26.637   6.563
 3940POPC   C3A51605  27.036  26.814   6.959
 3940POPC   C4A51606  27.158  26.607   7.293
 3940POPC   C1B51607  26.427  26.578   6.164
 3940POPC   C2B51608  26.388  26.886   6.472
 3940POPC   C3B51609  26.511  26.878   6.867
 3940POPC   C4B51610  26.576  26.769   7.271
 3941POPC   NC351611   1.458  43.836   5.047
 3941POPC   PO451612   1.976  43.684   5.405
 3941POPC   GL151613   2.099  43.722   5.807
 3941POPC   GL251614   2.204  43.397   5.824
 3941POPC   C1A51615   2.180  43.894   6.220
 3941POPC   D2A51616   1.924  43.894   6.596
 3941POPC   C3A51617   2.083  44.028   7.022
 3941POPC   C4A51618   1.843  44.353   7.281
 3941POPC   C1B51619   1.873  43.463   6.169
 3941POPC   C2B51620   1.779  43.369   6.583
 3941POPC   C3B51621   1.926  43.507   6.953
 3941POPC   C4B51622   2.049  43.609   7.342
 3942POPC   NC351623  36.357  38.723   5.428
 3942POPC   PO451624  35.980  38.172   5.379
 3942POPC   GL151625  36.062  38.468   5.789
 3942POPC   GL251626  36.344  38.700   5.925
 3942POPC   C1A51627  36.079  38.452   6.253
 3942POPC   D2A51628  36.178  38.246   6.582
 3942POPC   C3A51629  35.946  38.381   6.879
 3942POPC   C4A51630  36.101  38.358   7.250
 3942POPC   C1B51631  36.559  38.563   6.348
 3942POPC   C2B51632  36.740  38.747   6.719
 3942POPC   C3B51633  36.633  38.576   7.121
 3942POPC   C4B51634  36.554  38.149   7.304
 3943POPC   NC351635  38.759  30.139   5.521
 3943POPC   PO451636  38.377  29.594   5.364
 3943POPC   GL151637  38.313  29.666   5.779
 3943POPC   GL251638  37.982  29.565   5.797
 3943POPC   C1A51639  38.514  29.840   6.166
 3943POPC   D2A51640  38.602  30.041   6.580
 3943POPC   C3A51641  38.514  29.766   6.925
 3943POPC   C4A51642  38.538  29.885   7.341
 3943POPC   C1B51643  38.013  29.717   6.199
 3943POPC   C2B51644  38.103  29.815   6.613
 3943POPC   C3B51645  38.002  29.598   7.003
 3943POPC   C4B51646  38.052  29.723   7.419
 3944POPC   NC351647   5.416   4.060   5.641
 3944POPC   PO451648   5.327   4.566   5.185
 3944POPC   GL151649   5.215   4.574   5.633
 3944POPC   GL251650   4.970   4.319   5.616
 3944POPC   C1A51651   5.328   4.667   6.095
 3944POPC   D2A51652   5.298   4.810   6.553
 3944POPC   C3A51653   5.318   4.595   6.984
 3944POPC   C4A51654   5.350   4.501   7.435
 3944POPC   C1B51655   4.989   4.283   6.088
 3944POPC   C2B51656   5.152   4.323   6.517
 3944POPC   C3B51657   4.973   4.238   6.936
 3944POPC   C4B51658   4.968   4.174   7.382
 3945POPC   NC351659  40.449  28.577   5.431
 3945POPC   PO451660  40.938  28.052   5.450
 3945POPC   GL151661  41.005  28.252   5.868
 3945POPC   GL251662  41.047  28.643   5.814
 3945POPC   C1A51663  40.776  28.076   6.263
 3945POPC   D2A51664  40.442  28.076   6.605
 3945POPC   C3A51665  40.659  28.277   6.958
 3945POPC   C4A51666  41.091  28.316   7.147
 3945POPC   C1B51667  40.762  28.596   6.171
 3945POPC   C2B51668  40.802  28.682   6.628
 3945POPC   C3B51669  40.668  28.780   7.072
 3945POPC   C4B51670  40.977  28.792   7.410
 3946POPC   NC351671   9.500  20.510   5.027
 3946POPC   PO451672   8.917  20.423   5.470
 3946POPC   GL151673   8.884  20.612   5.837
 3946POPC   GL251674   9.080  20.932   5.807
 3946POPC   C1A51675   8.893  20.549   6.273
 3946POPC   D2A51676   9.168  20.550   6.607
 3946POPC   C3A51677   8.959  20.631   6.979
 3946POPC   C4A51678   8.640  20.481   7.229
 3946POPC   C1B51679   9.334  20.823   6.176
 3946POPC   C2B51680   9.396  21.001   6.591
 3946POPC   C3B51681   9.448  20.830   7.004
 3946POPC   C4B51682   9.224  20.798   7.386
 3947POPC   NC351683  18.380   2.728   5.267
 3947POPC   PO451684  18.049   3.264   5.495
 3947POPC   GL151685  18.213   2.938   5.758
 3947POPC   GL251686  18.558   2.808   5.789
 3947POPC   C1A51687  18.180   2.849   6.185
 3947POPC   D2A51688  18.051   2.637   6.534
 3947POPC   C3A51689  17.988   2.858   6.865
 3947POPC   C4A51690  17.982   2.529   7.200
 3947POPC   C1B51691  18.695   2.837   6.244
 3947POPC   C2B51692  18.461   2.963   6.615
 3947POPC   C3B51693  18.443   2.702   6.977
 3947POPC   C4B51694  18.783   2.672   7.168
 3948POPC   NC351695   6.569  36.635   5.189
 3948POPC   PO451696   6.502  37.285   5.265
 3948POPC   GL151697   6.542  37.062   5.674
 3948POPC   GL251698   6.851  37.202   5.786
 3948POPC   C1A51699   6.438  36.883   6.100
 3948POPC   D2A51700   6.370  37.073   6.495
 3948POPC   C3A51701   6.581  37.133   6.870
 3948POPC   C4A51702   6.372  37.028   7.202
 3948POPC   C1B51703   6.904  37.001   6.197
 3948POPC   C2B51704   6.801  36.799   6.571
 3948POPC   C3B51705   6.974  36.690   6.989
 3948POPC   C4B51706   6.883  37.011   7.306
 3949POPC   NC351707  21.335  14.902   5.511
 3949POPC   PO451708  21.007  15.556   5.360
 3949POPC   GL151709  21.185  15.486   5.767
 3949POPC   GL251710  21.508  15.325   5.764
 3949POPC   C1A51711  21.164  15.291   6.177
 3949POPC   D2A51712  21.402  15.167   6.534
 3949POPC   C3A51713  21.326  15.345   6.919
 3949POPC   C4A51714  21.150  15.285   7.321
 3949POPC   C1B51715  21.690  15.053   6.109
 3949POPC   C2B51716  21.864  14.956   6.539
 3949POPC   C3B51717  21.750  15.030   6.993
 3949POPC   C4B51718  21.658  15.063   7.458
 3950POPC   NC351719  30.312  12.920   5.085
 3950POPC   PO451720  29.783  13.142   5.406
 3950POPC   GL151721  29.916  12.900   5.802
 3950POPC   GL251722  30.256  12.779   5.882
 3950POPC   C1A51723  29.851  12.644   6.203
 3950POPC   D2A51724  29.691  12.726   6.634
 3950POPC   C3A51725  29.905  12.682   7.033
 3950POPC   C4A51726  29.812  12.819   7.440
 3950POPC   C1B51727  30.197  13.046   6.258
 3950POPC   C2B51728  30.104  13.064   6.713
 3950POPC   C3B51729  30.149  13.151   7.154
 3950POPC   C4B51730  30.310  13.394   7.498
 3951POPC   NC351731  27.926   2.197   5.408
 3951POPC   PO451732  27.637   1.786   5.055
 3951POPC   GL151733  27.712   1.745   5.549
 3951POPC   GL251734  28.088   1.689   5.609
 3951POPC   C1A51735  27.612   1.849   6.046
 3951POPC   D2A51736  27.442   1.992   6.500
 3951POPC   C3A51737  27.430   1.985   6.971
 3951POPC   C4A51738  27.569   2.332   7.263
 3951POPC   C1B51739  28.062   1.605   6.076
 3951POPC   C2B51740  27.770   1.555   6.450
 3951POPC   C3B51741  27.902   1.674   6.863
 3951POPC   C4B51742  27.806   1.812   7.289
 3952POPC   NC351743  21.178   4.879   5.523
 3952POPC   PO451744  21.650   5.271   5.443
 3952POPC   GL151745  21.437   5.272   5.825
 3952POPC   GL251746  21.085   5.302   5.786
 3952POPC   C1A51747  21.583   5.108   6.208
 3952POPC   D2A51748  21.579   4.793   6.525
 3952POPC   C3A51749  21.576   4.929   6.951
 3952POPC   C4A51750  21.338   4.806   7.292
 3952POPC   C1B51751  21.066   5.150   6.203
 3952POPC   C2B51752  21.224   5.178   6.634
 3952POPC   C3B51753  21.168   5.256   7.085
 3952POPC   C4B51754  21.156   5.499   7.467
 3953POPC   NC351755  16.989  12.116   5.124
 3953POPC   PO451756  16.419  12.204   5.191
 3953POPC   GL151757  16.600  12.295   5.621
 3953POPC   GL251758  16.326  12.189   5.839
 3953POPC   C1A51759  16.791  12.041   5.984
 3953POPC   D2A51760  16.694  11.987   6.431
 3953POPC   C3A51761  16.997  12.093   6.757
 3953POPC   C4A51762  17.017  12.079   7.201
 3953POPC   C1B51763  16.223  12.357   6.262
 3953POPC   C2B51764  16.233  12.123   6.664
 3953POPC   C3B51765  16.497  12.125   7.051
 3953POPC   C4B51766  16.467  12.441   7.357
 3954POPC   NC351767  19.286  19.876   5.309
 3954POPC   PO451768  18.773  19.464   5.494
 3954POPC   GL151769  19.006  19.719   5.834
 3954POPC   GL251770  19.230  20.003   5.810
 3954POPC   C1A51771  19.195  19.754   6.274
 3954POPC   D2A51772  19.190  19.543   6.668
 3954POPC   C3A51773  19.327  19.667   7.100
 3954POPC   C4A51774  18.901  19.487   7.209
 3954POPC   C1B51775  18.916  20.139   6.118
 3954POPC   C2B51776  18.971  20.199   6.538
 3954POPC   C3B51777  19.014  19.998   6.910
 3954POPC   C4B51778  18.813  19.977   7.311
 3955POPC   NC351779   6.166  23.035   5.511
 3955POPC   PO451780   5.489  23.223   5.344
 3955POPC   GL151781   5.638  23.026   5.737
 3955POPC   GL251782   5.875  23.226   5.888
 3955POPC   C1A51783   5.627  22.893   6.178
 3955POPC   D2A51784   5.794  22.999   6.585
 3955POPC   C3A51785   5.514  23.035   6.930
 3955POPC   C4A51786   5.533  22.940   7.351
 3955POPC   C1B51787   6.149  22.991   6.167
 3955POPC   C2B51788   6.448  23.017   6.482
 3955POPC   C3B51789   6.334  22.990   6.877
 3955POPC   C4B51790   5.968  22.884   7.091
 3956POPC   NC351791  17.391  13.295   5.446
 3956POPC   PO451792  18.059  13.489   5.425
 3956POPC   GL151793  17.696  13.590   5.738
 3956POPC   GL251794  17.665  13.932   5.859
 3956POPC   C1A51795  17.444  13.572   6.155
 3956POPC   D2A51796  17.629  13.567   6.591
 3956POPC   C3A51797  17.494  13.609   7.021
 3956POPC   C4A51798  17.184  13.403   7.271
 3956POPC   C1B51799  17.867  13.893   6.257
 3956POPC   C2B51800  18.068  13.815   6.659
 3956POPC   C3B51801  17.904  14.035   7.008
 3956POPC   C4B51802  17.604  13.992   7.339
 3957POPC   NC351803  11.577  34.465   5.462
 3957POPC   PO451804  12.168  34.794   5.497
 3957POPC   GL151805  11.871  34.797   5.793
 3957POPC   GL251806  11.908  34.458   5.854
 3957POPC   C1A51807  11.785  34.780   6.230
 3957POPC   D2A51808  12.043  34.658   6.593
 3957POPC   C3A51809  11.923  34.555   7.020
 3957POPC   C4A51810  12.248  34.715   7.343
 3957POPC   C1B51811  11.940  34.238   6.257
 3957POPC   C2B51812  11.915  34.071   6.652
 3957POPC   C3B51813  12.155  34.099   6.948
 3957POPC   C4B51814  12.192  34.209   7.305
 3958POPC   NC351815   8.459  10.777   5.213
 3958POPC   PO451816   8.123  10.230   5.292
 3958POPC   GL151817   8.133  10.486   5.698
 3958POPC   GL251818   8.437  10.730   5.730
 3958POPC   C1A51819   7.957  10.431   6.132
 3958POPC   D2A51820   7.973  10.214   6.552
 3958POPC   C3A51821   7.973  10.386   6.989
 3958POPC   C4A51822   8.352  10.246   7.230
 3958POPC   C1B51823   8.295  10.841   6.144
 3958POPC   C2B51824   8.045  10.771   6.504
 3958POPC   C3B51825   8.143  10.845   6.902
 3958POPC   C4B51826   8.344  10.735   7.283
 3959POPC   NC351827  32.177   6.218   5.334
 3959POPC   PO451828  32.346   6.950   5.482
 3959POPC   GL151829  32.114   6.783   5.827
 3959POPC   GL251830  31.884   6.529   5.681
 3959POPC   C1A51831  32.244   6.746   6.261
 3959POPC   D2A51832  32.385   6.585   6.663
 3959POPC   C3A51833  32.296   6.807   7.033
 3959POPC   C4A51834  32.515   6.813   7.431
 3959POPC   C1B51835  31.837   6.421   6.112
 3959POPC   C2B51836  31.872   6.525   6.552
 3959POPC   C3B51837  31.984   6.400   6.971
 3959POPC   C4B51838  31.953   6.141   7.313
 3960POPC   NC351839  36.117  35.142   5.438
 3960POPC   PO451840  35.723  35.704   5.399
 3960POPC   GL151841  35.926  35.525   5.772
 3960POPC   GL251842  36.265  35.378   5.853
 3960POPC   C1A51843  35.916  35.381   6.212
 3960POPC   D2A51844  36.257  35.396   6.469
 3960POPC   C3A51845  36.070  35.488   6.856
 3960POPC   C4A51846  36.199  35.409   7.235
 3960POPC   C1B51847  36.340  34.964   6.052
 3960POPC   C2B51848  36.361  34.843   6.478
 3960POPC   C3B51849  36.380  35.071   6.864
 3960POPC   C4B51850  36.189  34.908   7.222
 3961POPC   NC351851  21.494  33.228   5.254
 3961POPC   PO451852  20.908  32.938   5.246
 3961POPC   GL151853  21.312  33.013   5.676
 3961POPC   GL251854  21.657  33.194   5.740
 3961POPC   C1A51855  21.343  32.824   6.186
 3961POPC   D2A51856  21.263  33.035   6.608
 3961POPC   C3A51857  21.469  32.954   7.001
 3961POPC   C4A51858  21.535  32.664   7.289
 3961POPC   C1B51859  21.544  33.279   6.186
 3961POPC   C2B51860  21.733  33.278   6.594
 3961POPC   C3B51861  21.550  33.455   6.950
 3961POPC   C4B51862  21.174  33.323   7.166
 3962POPC   NC351863   1.585   9.985   5.443
 3962POPC   PO451864   0.886   9.858   5.272
 3962POPC   GL151865   0.888   9.882   5.799
 3962POPC   GL251866   1.205   9.735   5.819
 3962POPC   C1A51867   1.108   9.964   6.253
 3962POPC   D2A51868   1.304  10.066   6.673
 3962POPC   C3A51869   1.153   9.733   6.941
 3962POPC   C4A51870   1.231   9.636   7.373
 3962POPC   C1B51871   1.433   9.585   6.202
 3962POPC   C2B51872   1.587   9.635   6.641
 3962POPC   C3B51873   1.644   9.703   7.087
 3962POPC   C4B51874   1.689   9.347   7.399
 3963POPC   NC351875   4.519  20.022   5.575
 3963POPC   PO451876   5.076  20.058   5.144
 3963POPC   GL151877   5.086  20.112   5.616
 3963POPC   GL251878   5.163  19.780   5.770
 3963POPC   C1A51879   5.110  20.213   6.077
 3963POPC   D2A51880   4.883  19.987   6.421
 3963POPC   C3A51881   4.884  20.123   6.851
 3963POPC   C4A51882   4.976  19.877   7.190
 3963POPC   C1B51883   5.313  19.741   6.221
 3963POPC   C2B51884   5.374  19.573   6.671
 3963POPC   C3B51885   5.365  19.542   7.146
 3963POPC   C4B51886   5.451  19.398   7.623
 3964POPC   NC351887  29.275  36.110   5.556
 3964POPC   PO451888  28.636  36.115   5.557
 3964POPC   GL151889  28.860  36.103   5.964
 3964POPC   GL251890  29.211  36.282   6.025
 3964POPC   C1A51891  28.963  36.038   6.401
 3964POPC   D2A51892  29.412  36.051   6.528
 3964POPC   C3A51893  29.374  35.922   6.968
 3964POPC   C4A51894  28.941  35.864   7.095
 3964POPC   C1B51895  29.129  36.517   6.420
 3964POPC   C2B51896  29.158  36.361   6.821
 3964POPC   C3B51897  29.319  36.407   7.220
 3964POPC   C4B51898  29.092  36.442   7.596
 3965POPC   NC351899   7.847  39.592   5.414
 3965POPC   PO451900   8.449  39.824   5.640
 3965POPC   GL151901   8.089  39.931   5.767
 3965POPC   GL251902   8.195  40.265   5.866
 3965POPC   C1A51903   7.968  39.785   6.139
 3965POPC   D2A51904   7.950  39.862   6.550
 3965POPC   C3A51905   8.347  39.883   6.787
 3965POPC   C4A51906   8.355  39.748   7.214
 3965POPC   C1B51907   8.289  40.181   6.317
 3965POPC   C2B51908   8.102  40.357   6.713
 3965POPC   C3B51909   8.183  40.244   7.143
 3965POPC   C4B51910   8.629  40.191   7.194
 3966POPC   NC351911  40.757  15.645   5.426
 3966POPC   PO451912  40.687  16.288   5.231
 3966POPC   GL151913  40.745  16.090   5.712
 3966POPC   GL251914  40.576  15.766   5.879
 3966POPC   C1A51915  40.628  16.148   6.180
 3966POPC   D2A51916  40.573  15.917   6.573
 3966POPC   C3A51917  40.586  16.201   6.887
 3966POPC   C4A51918  40.728  16.334   7.270
 3966POPC   C1B51919  40.867  15.670   6.225
 3966POPC   C2B51920  41.162  15.759   6.581
 3966POPC   C3B51921  41.006  15.731   7.005
 3966POPC   C4B51922  40.628  15.820   7.254
 3967POPC   NC351923   7.439  36.792   5.431
 3967POPC   PO451924   7.289  37.434   5.511
 3967POPC   GL151925   7.358  37.117   5.824
 3967POPC   GL251926   7.153  36.778   5.837
 3967POPC   C1A51927   7.401  37.055   6.223
 3967POPC   D2A51928   7.286  36.869   6.579
 3967POPC   C3A51929   7.293  37.093   6.957
 3967POPC   C4A51930   7.381  36.918   7.330
 3967POPC   C1B51931   7.444  36.557   6.103
 3967POPC   C2B51932   7.547  36.434   6.512
 3967POPC   C3B51933   7.569  36.613   6.919
 3967POPC   C4B51934   7.474  36.425   7.285
 3968POPC   NC351935  21.665  42.013   5.395
 3968POPC   PO451936  21.258  42.479   5.267
 3968POPC   GL151937  21.305  42.232   5.698
 3968POPC   GL251938  21.659  42.216   5.908
 3968POPC   C1A51939  21.232  42.198   6.171
 3968POPC   D2A51940  21.203  42.424   6.581
 3968POPC   C3A51941  21.430  42.333   6.943
 3968POPC   C4A51942  21.220  42.208   7.280
 3968POPC   C1B51943  21.733  42.579   6.247
 3968POPC   C2B51944  21.656  42.719   6.684
 3968POPC   C3B51945  21.834  42.606   7.109
 3968POPC   C4B51946  21.769  42.327   7.474
 3969POPC   NC351947  44.100  33.875   5.373
 3969POPC   PO451948  43.577  33.533   5.586
 3969POPC   GL151949  43.872  33.801   5.822
 3969POPC   GL251950  44.178  33.585   5.775
 3969POPC   C1A51951  43.886  34.138   6.167
 3969POPC   D2A51952  44.152  34.154   6.563
 3969POPC   C3A51953  43.983  34.041   6.973
 3969POPC   C4A51954  43.860  33.844   7.365
 3969POPC   C1B51955  44.096  33.482   6.188
 3969POPC   C2B51956  43.977  33.624   6.598
 3969POPC   C3B51957  44.172  33.545   6.961
 3969POPC   C4B51958  44.061  33.357   7.306
 3970POPC   NC351959  44.163  43.456   5.359
 3970POPC   PO451960  44.249  42.739   5.345
 3970POPC   GL151961  44.164  43.043   5.710
 3970POPC   GL251962  43.854  43.221   5.742
 3970POPC   C1A51963  44.074  43.058   6.190
 3970POPC   D2A51964  43.711  43.076   6.507
 3970POPC   C3A51965  43.854  43.082   6.950
 3970POPC   C4A51966  44.196  43.279   7.178
 3970POPC   C1B51967  43.790  43.485   6.147
 3970POPC   C2B51968  43.981  43.516   6.554
 3970POPC   C3B51969  43.797  43.599   6.960
 3970POPC   C4B51970  43.792  43.496   7.398
 3971POPC   NC351971   0.928  26.305   5.375
 3971POPC   PO451972   1.587  26.048   5.445
 3971POPC   GL151973   1.221  26.078   5.727
 3971POPC   GL251974   1.204  25.776   5.906
 3971POPC   C1A51975   1.051  26.227   6.111
 3971POPC   D2A51976   1.149  26.055   6.526
 3971POPC   C3A51977   1.059  26.293   6.914
 3971POPC   C4A51978   1.210  26.150   7.311
 3971POPC   C1B51979   1.077  25.547   6.281
 3971POPC   C2B51980   0.886  25.611   6.686
 3971POPC   C3B51981   1.167  25.771   6.974
 3971POPC   C4B51982   1.549  25.618   7.141
 3972POPC   NC351983  36.108  10.974   4.886
 3972POPC   PO451984  36.146  10.421   5.307
 3972POPC   GL151985  36.124  10.512   5.742
 3972POPC   GL251986  35.829  10.682   5.788
 3972POPC   C1A51987  36.194  10.645   6.187
 3972POPC   D2A51988  36.466  10.531   6.528
 3972POPC   C3A51989  36.316  10.611   6.926
 3972POPC   C4A51990  36.415  10.378   7.280
 3972POPC   C1B51991  35.791  10.322   6.120
 3972POPC   C2B51992  35.902  10.449   6.578
 3972POPC   C3B51993  35.786  10.706   6.968
 3972POPC   C4B51994  36.034  10.729   7.356
 3973POPC   NC351995  31.498  40.463   5.304
 3973POPC   PO451996  31.679  39.901   5.377
 3973POPC   GL151997  31.704  39.976   5.804
 3973POPC   GL251998  31.716  40.349   5.753
 3973POPC   C1A51999  31.721  39.884   6.290
 3973POPC   D2A52000  31.468  39.823   6.681
 3973POPC   C3A52001  31.523  39.823   7.134
 3973POPC   C4A52002  31.124  39.872   7.358
 3973POPC   C1B52003  31.489  40.312   6.123
 3973POPC   C2B52004  31.489  40.333   6.570
 3973POPC   C3B52005  31.290  40.230   6.966
 3973POPC   C4B52006  31.431  40.291   7.395
 3974POPC   NC352007  18.901  37.550   5.538
 3974POPC   PO452008  19.062  38.177   5.291
 3974POPC   GL152009  19.213  37.934   5.735
 3974POPC   GL252010  19.358  37.555   5.765
 3974POPC   C1A52011  19.076  37.712   6.160
 3974POPC   D2A52012  18.912  37.573   6.560
 3974POPC   C3A52013  19.095  37.630   6.933
 3974POPC   C4A52014  19.029  37.735   7.326
 3974POPC   C1B52015  19.345  37.270   6.132
 3974POPC   C2B52016  19.371  37.376   6.577
 3974POPC   C3B52017  19.440  37.288   7.041
 3974POPC   C4B52018  19.156  37.220   7.390
 3975POPC   NC352019  22.894  11.646   5.373
 3975POPC   PO452020  23.337  11.119   5.528
 3975POPC   GL152021  23.093  11.395   5.822
 3975POPC   GL252022  22.752  11.577   5.842
 3975POPC   C1A52023  22.931  11.326   6.254
 3975POPC   D2A52024  22.671  11.572   6.538
 3975POPC   C3A52025  22.685  11.374   6.910
 3975POPC   C4A52026  22.926  11.299   7.245
 3975POPC   C1B52027  22.914  11.827   6.155
 3975POPC   C2B52028  23.211  11.735   6.459
 3975POPC   C3B52029  23.169  11.599   6.864
 3975POPC   C4B52030  23.328  11.632   7.283
 3976POPC   NC352031  33.033  36.040   5.113
 3976POPC   PO452032  33.407  36.414   5.513
 3976POPC   GL152033  33.359  36.028   5.746
 3976POPC   GL252034  33.019  35.921   5.902
 3976POPC   C1A52035  33.423  36.016   6.178
 3976POPC   D2A52036  33.173  35.864   6.521
 3976POPC   C3A52037  33.199  36.062   6.921
 3976POPC   C4A52038  32.993  35.970   7.311
 3976POPC   C1B52039  32.931  36.238   6.243
 3976POPC   C2B52040  32.832  36.402   6.664
 3976POPC   C3B52041  32.871  36.414   7.112
 3976POPC   C4B52042  32.613  36.364   7.468
 3977POPC   NC352043  31.871   7.216   5.434
 3977POPC   PO452044  32.423   7.765   5.399
 3977POPC   GL152045  32.285   7.484   5.740
 3977POPC   GL252046  31.950   7.521   5.845
 3977POPC   C1A52047  32.428   7.304   6.146
 3977POPC   D2A52048  32.566   7.076   6.496
 3977POPC   C3A52049  32.409   7.256   6.846
 3977POPC   C4A52050  32.366   7.298   7.289
 3977POPC   C1B52051  31.943   7.169   6.164
 3977POPC   C2B52052  32.001   7.053   6.611
 3977POPC   C3B52053  31.920   7.278   7.023
 3977POPC   C4B52054  31.899   7.452   7.438
 3978POPC   NC352055  35.780   1.301   5.302
 3978POPC   PO452056  35.126   1.369   5.426
 3978POPC   GL152057  35.330   1.451   5.781
 3978POPC   GL252058  35.125   1.221   5.932
 3978POPC   C1A52059  35.628   1.311   6.112
 3978POPC   D2A52060  35.663   1.451   6.547
 3978POPC   C3A52061  35.439   1.237   6.864
 3978POPC   C4A52062  35.535   1.257   7.277
 3978POPC   C1B52063  35.176   1.162   6.342
 3978POPC   C2B52064  35.132   0.875   6.668
 3978POPC   C3B52065  35.149   0.851   7.084
 3978POPC   C4B52066  35.038   1.220   7.225
 3979POPC   NC352067  16.992  27.070   5.329
 3979POPC   PO452068  16.473  26.593   5.317
 3979POPC   GL152069  16.623  26.882   5.687
 3979POPC   GL252070  16.978  26.892   5.793
 3979POPC   C1A52071  16.657  26.953   6.159
 3979POPC   D2A52072  16.444  26.755   6.507
 3979POPC   C3A52073  16.417  26.702   6.949
 3979POPC   C4A52074  16.603  26.818   7.324
 3979POPC   C1B52075  17.180  26.838   6.153
 3979POPC   C2B52076  17.003  26.763   6.512
 3979POPC   C3B52077  17.131  26.621   6.860
 3979POPC   C4B52078  17.077  26.724   7.250
 3980POPC   NC352079   1.389  44.191   5.477
 3980POPC   PO452080   1.309  43.490   5.328
 3980POPC   GL152081   1.518  43.742   5.678
 3980POPC   GL252082   1.196  43.915   5.873
 3980POPC   C1A52083   1.656  43.929   6.096
 3980POPC   D2A52084   1.397  44.021   6.468
 3980POPC   C3A52085   1.478  43.798   6.846
 3980POPC   C4A52086   1.640  43.892   7.230
 3980POPC   C1B52087   0.911  43.851   6.269
 3980POPC   C2B52088   0.851  43.605   6.671
 3980POPC   C3B52089   1.019  43.706   7.077
 3980POPC   C4B52090   1.166  44.125   7.240
 3981POPC   NC352091  24.667  27.612   5.479
 3981POPC   PO452092  24.053  27.697   5.368
 3981POPC   GL152093  24.281  27.592   5.848
 3981POPC   GL252094  24.659  27.628   5.975
 3981POPC   C1A52095  24.328  27.687   6.338
 3981POPC   D2A52096  24.733  27.575   6.596
 3981POPC   C3A52097  24.737  27.667   7.047
 3981POPC   C4A52098  24.411  27.770   7.313
 3981POPC   C1B52099  24.525  27.247   6.186
 3981POPC   C2B52100  24.613  27.072   6.589
 3981POPC   C3B52101  24.829  27.140   6.965
 3981POPC   C4B52102  24.585  27.241   7.322
 3982POPC   NC352103   1.321  42.369   5.261
 3982POPC   PO452104   0.978  41.936   5.577
 3982POPC   GL152105   1.191  42.135   5.911
 3982POPC   GL252106   1.497  42.294   5.774
 3982POPC   C1A52107   1.091  42.263   6.352
 3982POPC   D2A52108   1.084  42.030   6.760
 3982POPC   C3A52109   0.845  42.268   7.056
 3982POPC   C4A52110   0.709  42.694   7.013
 3982POPC   C1B52111   1.512  42.505   6.189
 3982POPC   C2B52112   1.500  42.382   6.646
 3982POPC   C3B52113   1.412  42.499   7.088
 3982POPC   C4B52114   1.502  42.465   7.527
 3983POPC   NC352115  44.779   3.193   5.412
 3983POPC   PO452116  44.842   3.812   5.483
 3983POPC   GL152117  44.607   3.593   5.796
 3983POPC   GL252118  44.372   3.314   5.738
 3983POPC   C1A52119  44.598   3.753   6.217
 3983POPC   D2A52120  44.545   4.028   6.583
 3983POPC   C3A52121  44.575   3.785   6.959
 3983POPC   C4A52122  44.874   3.649   7.272
 3983POPC   C1B52123  44.212   3.431   6.135
 3983POPC   C2B52124  44.224   3.598   6.554
 3983POPC   C3B52125  44.180   3.415   6.943
 3983POPC   C4B52126  44.493   3.300   7.237
 3984POPC   NC352127  30.662  44.216   5.362
 3984POPC   PO452128  30.897  43.646   5.511
 3984POPC   GL152129  30.648  43.858   5.774
 3984POPC   GL252130  30.879  44.102   5.810
 3984POPC   C1A52131  30.543  43.822   6.177
 3984POPC   D2A52132  30.762  43.657   6.521
 3984POPC   C3A52133  30.697  43.826   6.898
 3984POPC   C4A52134  30.510  43.737   7.228
 3984POPC   C1B52135  31.029  43.943   6.182
 3984POPC   C2B52136  30.920  44.142   6.550
 3984POPC   C3B52137  31.115  44.102   6.900
 3984POPC   C4B52138  30.994  43.979   7.283
 3985POPC   NC352139   2.078  19.645   5.446
 3985POPC   PO452140   1.808  20.151   5.196
 3985POPC   GL152141   1.913  20.074   5.696
 3985POPC   GL252142   2.191  20.190   5.917
 3985POPC   C1A52143   1.707  20.047   6.126
 3985POPC   D2A52144   1.625  20.048   6.593
 3985POPC   C3A52145   1.859  19.778   6.882
 3985POPC   C4A52146   1.730  19.495   7.207
 3985POPC   C1B52147   2.209  20.031   6.344
 3985POPC   C2B52148   2.413  19.866   6.721
 3985POPC   C3B52149   2.294  19.971   7.142
 3985POPC   C4B52150   2.243  20.108   7.603
 3986POPC   NC352151   8.799  33.201   5.252
 3986POPC   PO452152   9.320  32.836   5.514
 3986POPC   GL152153   8.986  33.054   5.779
 3986POPC   GL252154   8.687  33.297   5.736
 3986POPC   C1A52155   8.976  32.906   6.220
 3986POPC   D2A52156   8.708  32.809   6.590
 3986POPC   C3A52157   8.895  32.955   7.013
 3986POPC   C4A52158   8.941  33.277   7.368
 3986POPC   C1B52159   8.564  33.183   6.148
 3986POPC   C2B52160   8.808  33.300   6.498
 3986POPC   C3B52161   8.799  33.444   6.911
 3986POPC   C4B52162   8.484  33.206   7.188
 3987POPC   NC352163  31.374  14.764   5.493
 3987POPC   PO452164  31.766  15.442   5.427
 3987POPC   GL152165  31.614  15.344   5.808
 3987POPC   GL252166  31.669  15.020   5.786
 3987POPC   C1A52167  31.367  15.216   6.169
 3987POPC   D2A52168  31.276  14.951   6.515
 3987POPC   C3A52169  31.206  15.213   6.874
 3987POPC   C4A52170  31.007  15.276   7.292
 3987POPC   C1B52171  31.723  14.842   6.163
 3987POPC   C2B52172  31.794  15.006   6.525
 3987POPC   C3B52173  31.632  14.941   6.896
 3987POPC   C4B52174  31.441  15.028   7.263
 3988POPC   NC352175  25.754  36.364   5.123
 3988POPC   PO452176  26.131  36.845   5.499
 3988POPC   GL152177  26.190  37.029   5.880
 3988POPC   GL252178  25.876  36.876   5.947
 3988POPC   C1A52179  26.226  36.830   6.305
 3988POPC   D2A52180  26.043  36.858   6.708
 3988POPC   C3A52181  26.268  36.636   7.003
 3988POPC   C4A52182  26.432  36.832   7.343
 3988POPC   C1B52183  25.714  36.694   6.316
 3988POPC   C2B52184  25.541  36.840   6.683
 3988POPC   C3B52185  25.679  37.115   6.993
 3988POPC   C4B52186  25.921  36.900   7.273
 3989POPC   NC352187  11.421  25.239   5.618
 3989POPC   PO452188  10.901  24.779   5.572
 3989POPC   GL152189  11.129  24.923   5.942
 3989POPC   GL252190  11.170  25.288   6.048
 3989POPC   C1A52191  11.494  24.912   6.227
 3989POPC   D2A52192  11.585  25.092   6.610
 3989POPC   C3A52193  11.341  25.028   6.972
 3989POPC   C4A52194  11.537  25.206   7.331
 3989POPC   C1B52195  11.536  25.477   6.254
 3989POPC   C2B52196  11.420  25.585   6.668
 3989POPC   C3B52197  11.227  25.518   7.070
 3989POPC   C4B52198  11.166  25.535   7.518
 3990POPC   NC352199  13.506  12.656   5.419
 3990POPC   PO452200  12.993  13.090   5.316
 3990POPC   GL152201  12.852  13.064   5.752
 3990POPC   GL252202  13.089  12.798   5.766
 3990POPC   C1A52203  12.849  13.005   6.218
 3990POPC   D2A52204  12.834  13.145   6.673
 3990POPC   C3A52205  12.646  12.840   6.986
 3990POPC   C4A52206  12.558  12.899   7.459
 3990POPC   C1B52207  13.077  12.552   6.140
 3990POPC   C2B52208  12.998  12.675   6.580
 3990POPC   C3B52209  13.154  12.748   6.971
 3990POPC   C4B52210  13.359  12.457   7.216
 3991POPC   NC352211  12.640  22.487   5.449
 3991POPC   PO452212  12.842  21.839   5.539
 3991POPC   GL152213  12.814  22.077   5.887
 3991POPC   GL252214  13.099  21.894   6.024
 3991POPC   C1A52215  12.898  22.381   6.231
 3991POPC   D2A52216  13.054  22.458   6.665
 3991POPC   C3A52217  12.712  22.448   6.970
 3991POPC   C4A52218  12.580  22.116   7.251
 3991POPC   C1B52219  12.820  21.894   6.375
 3991POPC   C2B52220  12.720  21.985   6.776
 3991POPC   C3B52221  13.072  22.108   7.087
 3991POPC   C4B52222  13.123  22.522   7.259
 3992POPC   NC352223   3.798  16.223   5.474
 3992POPC   PO452224   3.644  15.576   5.458
 3992POPC   GL152225   3.545  15.882   5.784
 3992POPC   GL252226   3.611  16.248   5.944
 3992POPC   C1A52227   3.581  15.750   6.171
 3992POPC   D2A52228   3.456  15.831   6.593
 3992POPC   C3A52229   3.820  15.774   6.845
 3992POPC   C4A52230   3.795  15.694   7.296
 3992POPC   C1B52231   3.797  16.149   6.380
 3992POPC   C2B52232   3.760  16.271   6.821
 3992POPC   C3B52233   3.606  16.179   7.267
 3992POPC   C4B52234   3.729  16.138   7.708
 3993POPC   NC352235  13.663  37.331   5.116
 3993POPC   PO452236  13.656  36.708   5.349
 3993POPC   GL152237  13.649  36.881   5.786
 3993POPC   GL252238  13.402  37.100   5.822
 3993POPC   C1A52239  13.732  36.731   6.184
 3993POPC   D2A52240  13.939  36.613   6.518
 3993POPC   C3A52241  13.762  36.622   6.873
 3993POPC   C4A52242  13.629  36.927   7.115
 3993POPC   C1B52243  13.311  37.006   6.221
 3993POPC   C2B52244  13.532  37.021   6.615
 3993POPC   C3B52245  13.376  37.318   6.947
 3993POPC   C4B52246  13.227  37.150   7.311
 3994POPC   NC352247  24.010  14.556   5.362
 3994POPC   PO452248  23.401  14.514   5.372
 3994POPC   GL152249  23.643  14.581   5.730
 3994POPC   GL252250  23.777  14.257   5.733
 3994POPC   C1A52251  23.623  14.487   6.176
 3994POPC   D2A52252  23.431  14.151   6.395
 3994POPC   C3A52253  23.366  14.281   6.828
 3994POPC   C4A52254  23.176  14.052   7.167
 3994POPC   C1B52255  23.958  14.130   6.152
 3994POPC   C2B52256  23.889  14.260   6.590
 3994POPC   C3B52257  23.931  14.449   6.999
 3994POPC   C4B52258  23.584  14.513   7.239
 3995POPC   NC352259  31.879  36.502   5.469
 3995POPC   PO452260  31.333  36.132   5.231
 3995POPC   GL152261  31.290  36.302   5.682
 3995POPC   GL252262  31.589  36.424   5.879
 3995POPC   C1A52263  31.166  36.266   6.130
 3995POPC   D2A52264  31.449  36.224   6.476
 3995POPC   C3A52265  31.348  36.424   6.872
 3995POPC   C4A52266  31.190  36.547   7.273
 3995POPC   C1B52267  31.676  35.988   6.030
 3995POPC   C2B52268  31.733  35.786   6.455
 3995POPC   C3B52269  31.667  35.940   6.874
 3995POPC   C4B52270  31.601  36.174   7.261
 3996POPC   NC352271  26.298   6.879   5.104
 3996POPC   PO452272  26.303   6.222   5.299
 3996POPC   GL152273  26.336   6.449   5.749
 3996POPC   GL252274  26.231   6.785   5.638
 3996POPC   C1A52275  26.096   6.477   6.217
 3996POPC   D2A52276  26.117   6.407   6.713
 3996POPC   C3A52277  26.062   6.662   7.121
 3996POPC   C4A52278  25.760   6.683   7.527
 3996POPC   C1B52279  26.005   6.933   6.006
 3996POPC   C2B52280  26.093   6.962   6.448
 3996POPC   C3B52281  25.938   7.094   6.823
 3996POPC   C4B52282  25.744   7.064   7.208
 3997POPC   NC352283  14.746  19.714   5.635
 3997POPC   PO452284  14.175  19.855   5.306
 3997POPC   GL152285  14.213  19.842   5.774
 3997POPC   GL252286  14.291  19.543   5.813
 3997POPC   C1A52287  14.495  19.776   6.213
 3997POPC   D2A52288  14.599  19.967   6.612
 3997POPC   C3A52289  14.499  19.813   7.024
 3997POPC   C4A52290  14.604  19.830   7.460
 3997POPC   C1B52291  14.022  19.600   6.202
 3997POPC   C2B52292  14.163  19.598   6.634
 3997POPC   C3B52293  14.004  19.695   7.045
 3997POPC   C4B52294  14.211  19.529   7.396
 3998POPC   NC352295  10.009  41.674   5.516
 3998POPC   PO452296   9.408  41.364   5.534
 3998POPC   GL152297   9.684  41.523   5.885
 3998POPC   GL252298   9.973  41.297   5.876
 3998POPC   C1A52299   9.923  41.711   6.241
 3998POPC   D2A52300  10.012  41.774   6.705
 3998POPC   C3A52301   9.667  41.563   6.916
 3998POPC   C4A52302   9.575  41.312   7.235
 3998POPC   C1B52303  10.180  41.235   6.265
 3998POPC   C2B52304  10.022  41.258   6.662
 3998POPC   C3B52305  10.095  41.342   7.097
 3998POPC   C4B52306  10.181  41.725   7.204
 3999POPC   NC352307  43.493  25.638   5.431
 3999POPC   PO452308  44.089  25.220   5.449
 3999POPC   GL152309  43.761  25.328   5.730
 3999POPC   GL252310  43.840  25.672   5.833
 3999POPC   C1A52311  43.658  25.245   6.131
 3999POPC   D2A52312  43.895  25.293   6.503
 3999POPC   C3A52313  43.761  25.216   6.922
 3999POPC   C4A52314  43.561  25.022   7.221
 3999POPC   C1B52315  44.189  25.484   6.067
 3999POPC   C2B52316  44.401  25.281   6.411
 3999POPC   C3B52317  44.272  25.200   6.848
 3999POPC   C4B52318  44.141  25.536   7.130
 4000POPC   NC352319  22.303   7.368   5.392
 4000POPC   PO452320  21.717   7.352   5.633
 4000POPC   GL152321  22.116   7.492   5.895
 4000POPC   GL252322  22.496   7.575   5.802
 4000POPC   C1A52323  22.325   7.314   6.307
 4000POPC   D2A52324  22.382   7.046   6.705
 4000POPC   C3A52325  22.135   7.143   7.088
 4000POPC   C4A52326  21.986   7.551   7.154
 4000POPC   C1B52327  22.446   7.791   6.192
 4000POPC   C2B52328  22.586   7.688   6.611
 4000POPC   C3B52329  22.516   7.458   6.993
 4000POPC   C4B52330  22.458   7.626   7.404
 4001POPC   NC352331   7.264  35.353   5.296
 4001POPC   PO452332   7.657  34.983   5.553
 4001POPC   GL152333   7.251  35.141   5.793
 4001POPC   GL252334   7.255  35.512   5.797
 4001POPC   C1A52335   7.175  35.202   6.248
 4001POPC   D2A52336   7.416  35.264   6.626
 4001POPC   C3A52337   7.248  35.241   7.049
 4001POPC   C4A52338   7.486  35.178   7.464
 4001POPC   C1B52339   7.435  35.638   6.188
 4001POPC   C2B52340   7.398  35.860   6.561
 4001POPC   C3B52341   7.442  35.700   6.969
 4001POPC   C4B52342   7.368  35.664   7.415
 4002POPC   NC352343  20.697  35.138   5.388
 4002POPC   PO452344  20.493  35.667   5.757
 4002POPC   GL152345  20.422  35.260   5.873
 4002POPC   GL252346  20.775  35.249   5.878
 4002POPC   C1A52347  20.486  35.286   6.314
 4002POPC   D2A52348  20.696  35.594   6.578
 4002POPC   C3A52349  20.549  35.565   6.995
 4002POPC   C4A52350  20.282  35.214   7.177
 4002POPC   C1B52351  20.916  35.018   6.231
 4002POPC   C2B52352  20.786  35.067   6.665
 4002POPC   C3B52353  20.780  35.080   7.077
 4002POPC   C4B52354  20.939  34.936   7.455
 4003POPC   NC352355   3.209  27.302   5.471
 4003POPC   PO452356   2.517  27.409   5.420
 4003POPC   GL152357   2.677  27.567   5.828
 4003POPC   GL252358   2.993  27.626   5.808
 4003POPC   C1A52359   2.668  27.708   6.255
 4003POPC   D2A52360   2.638  27.502   6.624
 4003POPC   C3A52361   2.471  27.591   7.028
 4003POPC   C4A52362   2.548  27.362   7.400
 4003POPC   C1B52363   3.171  27.811   6.150
 4003POPC   C2B52364   3.162  27.573   6.519
 4003POPC   C3B52365   3.054  27.533   6.943
 4003POPC   C4B52366   3.069  27.320   7.299
 4004POPC   NC352367  35.704  34.196   5.520
 4004POPC   PO452368  35.971  34.746   5.259
 4004POPC   GL152369  36.026  34.666   5.720
 4004POPC   GL252370  35.706  34.631   5.857
 4004POPC   C1A52371  36.071  34.394   6.111
 4004POPC   D2A52372  36.239  34.172   6.465
 4004POPC   C3A52373  36.174  34.450   6.803
 4004POPC   C4A52374  36.156  34.407   7.234
 4004POPC   C1B52375  35.874  34.865   6.236
 4004POPC   C2B52376  35.873  35.018   6.663
 4004POPC   C3B52377  35.747  34.717   6.985
 4004POPC   C4B52378  35.760  34.709   7.424
 4005POPC   NC352379  23.552  24.124   5.484
 4005POPC   PO452380  23.979  23.554   5.408
 4005POPC   GL152381  23.737  23.711   5.752
 4005POPC   GL252382  23.951  23.994   5.856
 4005POPC   C1A52383  23.510  23.776   6.154
 4005POPC   D2A52384  23.559  23.907   6.572
 4005POPC   C3A52385  23.447  23.621   6.903
 4005POPC   C4A52386  23.622  23.602   7.316
 4005POPC   C1B52387  24.025  23.620   6.151
 4005POPC   C2B52388  23.840  23.493   6.543
 4005POPC   C3B52389  23.941  23.693   6.920
 4005POPC   C4B52390  24.137  23.487   7.248
 4006POPC   NC352391  22.723  25.808   5.509
 4006POPC   PO452392  23.194  25.255   5.535
 4006POPC   GL152393  22.975  25.427   5.822
 4006POPC   GL252394  23.300  25.498   6.011
 4006POPC   C1A52395  22.805  25.435   6.223
 4006POPC   D2A52396  22.908  25.564   6.648
 4006POPC   C3A52397  22.799  25.290   7.023
 4006POPC   C4A52398  22.699  25.518   7.417
 4006POPC   C1B52399  23.183  25.108   6.233
 4006POPC   C2B52400  23.185  25.114   6.684
 4006POPC   C3B52401  23.267  25.447   6.998
 4006POPC   C4B52402  23.163  25.335   7.415
 4007POPC   NC352403  13.709  44.312   5.498
 4007POPC   PO452404  13.098  44.451   5.336
 4007POPC   GL152405  13.297  44.455   5.787
 4007POPC   GL252406  13.493  44.756   5.874
 4007POPC   C1A52407  13.563  44.346   6.195
 4007POPC   D2A52408  13.632  44.151   6.614
 4007POPC   C3A52409  13.676  44.349   7.042
 4007POPC   C4A52410  13.467  44.209   7.448
 4007POPC   C1B52411  13.276  44.756   6.284
 4007POPC   C2B52412  13.449  44.657   6.683
 4007POPC   C3B52413  13.542  44.876   7.057
 4007POPC   C4B52414  13.546   0.114   7.431
 4008POPC   NC352415  34.598  16.550   5.422
 4008POPC   PO452416  34.551  17.206   5.328
 4008POPC   GL152417  34.632  17.000   5.741
 4008POPC   GL252418  34.308  16.824   5.749
 4008POPC   C1A52419  34.724  17.054   6.216
 4008POPC   D2A52420  34.799  17.148   6.682
 4008POPC   C3A52421  34.643  16.791   6.988
 4008POPC   C4A52422  34.656  16.827   7.435
 4008POPC   C1B52423  34.507  16.587   6.107
 4008POPC   C2B52424  34.439  16.489   6.558
 4008POPC   C3B52425  34.223  16.486   6.990
 4008POPC   C4B52426  34.208  16.568   7.481
 4009POPC   NC352427  39.890  12.254   5.064
 4009POPC   PO452428  39.895  11.757   5.526
 4009POPC   GL152429  40.016  11.967   5.892
 4009POPC   GL252430  40.170  12.288   5.861
 4009POPC   C1A52431  39.952  11.982   6.328
 4009POPC   D2A52432  40.150  12.087   6.707
 4009POPC   C3A52433  39.842  12.008   7.037
 4009POPC   C4A52434  39.794  12.274   7.385
 4009POPC   C1B52435  40.338  12.315   6.266
 4009POPC   C2B52436  40.317  12.618   6.603
 4009POPC   C3B52437  40.388  12.469   7.001
 4009POPC   C4B52438  40.306  12.078   7.209
 4010POPC   NC352439  30.226   3.213   5.333
 4010POPC   PO452440  29.740   3.736   5.470
 4010POPC   GL152441  29.920   3.497   5.807
 4010POPC   GL252442  29.593   3.397   5.966
 4010POPC   C1A52443  30.051   3.563   6.249
 4010POPC   D2A52444  29.794   3.473   6.575
 4010POPC   C3A52445  30.033   3.282   6.879
 4010POPC   C4A52446  29.907   3.260   7.262
 4010POPC   C1B52447  29.639   3.833   6.126
 4010POPC   C2B52448  29.795   4.000   6.506
 4010POPC   C3B52449  29.891   3.851   6.934
 4010POPC   C4B52450  29.793   3.793   7.383
 4011POPC   NC352451  23.138  36.563   5.529
 4011POPC   PO452452  23.094  35.889   5.264
 4011POPC   GL152453  23.153  36.082   5.727
 4011POPC   GL252454  22.863  36.152   5.894
 4011POPC   C1A52455  23.218  36.303   6.187
 4011POPC   D2A52456  23.189  36.088   6.607
 4011POPC   C3A52457  23.114  36.245   7.059
 4011POPC   C4A52458  23.122  35.910   7.411
 4011POPC   C1B52459  22.673  36.361   6.263
 4011POPC   C2B52460  22.639  36.362   6.725
 4011POPC   C3B52461  22.563  36.373   7.161
 4011POPC   C4B52462  22.800  36.269   7.522
 4012POPC   NC352463  13.456  22.660   5.315
 4012POPC   PO452464  13.927  23.134   5.435
 4012POPC   GL152465  13.627  22.923   5.733
 4012POPC   GL252466  13.321  23.108   5.692
 4012POPC   C1A52467  13.552  22.756   6.170
 4012POPC   D2A52468  13.735  22.570   6.561
 4012POPC   C3A52469  13.883  22.879   6.871
 4012POPC   C4A52470  14.000  22.835   7.318
 4012POPC   C1B52471  13.366  23.239   6.132
 4012POPC   C2B52472  13.524  23.160   6.571
 4012POPC   C3B52473  13.426  23.329   6.991
 4012POPC   C4B52474  13.367  23.062   7.313
 4013POPC   NC352475  33.468   2.857   5.419
 4013POPC   PO452476  32.896   2.740   5.223
 4013POPC   GL152477  33.029   2.698   5.689
 4013POPC   GL252478  33.295   2.456   5.802
 4013POPC   C1A52479  33.223   2.911   6.087
 4013POPC   D2A52480  33.390   3.022   6.519
 4013POPC   C3A52481  33.124   2.954   6.868
 4013POPC   C4A52482  33.179   3.104   7.270
 4013POPC   C1B52483  32.961   2.450   6.162
 4013POPC   C2B52484  32.986   2.498   6.639
 4013POPC   C3B52485  32.754   2.348   6.968
 4013POPC   C4B52486  32.878   2.355   7.399
 4014POPC   NC352487  25.571   1.666   5.389
 4014POPC   PO452488  25.452   0.976   5.517
 4014POPC   GL152489  25.199   1.136   5.772
 4014POPC   GL252490  25.193   1.456   5.679
 4014POPC   C1A52491  25.185   1.128   6.214
 4014POPC   D2A52492  24.990   1.163   6.595
 4014POPC   C3A52493  25.270   1.013   6.876
 4014POPC   C4A52494  25.259   1.178   7.247
 4014POPC   C1B52495  25.419   1.570   6.088
 4014POPC   C2B52496  25.577   1.438   6.530
 4014POPC   C3B52497  25.568   1.543   6.994
 4014POPC   C4B52498  25.214   1.706   7.251
 4015POPC   NC352499  14.980  29.856   5.189
 4015POPC   PO452500  15.544  29.621   5.651
 4015POPC   GL152501  15.140  29.836   5.703
 4015POPC   GL252502  14.881  29.592   5.836
 4015POPC   C1A52503  14.981  30.082   6.046
 4015POPC   D2A52504  14.889  30.017   6.495
 4015POPC   C3A52505  15.087  30.080   6.944
 4015POPC   C4A52506  15.063  30.191   7.418
 4015POPC   C1B52507  15.118  29.602   6.220
 4015POPC   C2B52508  15.257  29.647   6.642
 4015POPC   C3B52509  15.145  29.559   7.052
 4015POPC   C4B52510  15.384  29.824   7.300
 4016POPC   NC352511  20.438  44.498   5.050
 4016POPC   PO452512  20.796  44.899   5.550
 4016POPC   GL152513  20.527  44.701   5.840
 4016POPC   GL252514  20.841  44.672   6.006
 4016POPC   C1A52515  20.442  44.538   6.291
 4016POPC   D2A52516  20.873  44.597   6.501
 4016POPC   C3A52517  20.913  44.618   6.908
 4016POPC   C4A52518  20.532  44.549   7.076
 4016POPC   C1B52519  20.615  44.997   6.258
 4016POPC   C2B52520  20.474  44.895   6.697
 4016POPC   C3B52521  20.296  44.980   7.145
 4016POPC   C4B52522  20.177   0.154   7.559
 4017POPC   NC352523  17.423   1.890   5.373
 4017POPC   PO452524  17.759   2.343   5.677
 4017POPC   GL152525  17.617   1.930   5.870
 4017POPC   GL252526  17.248   1.881   5.866
 4017POPC   C1A52527  17.523   1.765   6.287
 4017POPC   D2A52528  17.573   1.761   6.723
 4017POPC   C3A52529  17.731   2.093   6.994
 4017POPC   C4A52530  17.725   1.931   7.416
 4017POPC   C1B52531  17.223   2.175   6.248
 4017POPC   C2B52532  17.265   2.202   6.728
 4017POPC   C3B52533  17.262   1.948   7.117
 4017POPC   C4B52534  17.254   1.968   7.580
 4018POPC   NC352535   9.507  35.301   5.287
 4018POPC   PO452536  10.144  35.583   5.329
 4018POPC   GL152537   9.918  35.338   5.639
 4018POPC   GL252538  10.131  35.158   5.899
 4018POPC   C1A52539   9.633  35.316   5.979
 4018POPC   D2A52540   9.555  35.368   6.418
 4018POPC   C3A52541   9.453  35.228   6.843
 4018POPC   C4A52542   9.677  35.412   7.176
 4018POPC   C1B52543  10.229  35.017   6.322
 4018POPC   C2B52544   9.943  35.074   6.704
 4018POPC   C3B52545   9.963  34.992   7.165
 4018POPC   C4B52546  10.181  34.839   7.558
 4019POPC   NC352547  16.400   3.141   5.561
 4019POPC   PO452548  16.953   2.872   5.412
 4019POPC   GL152549  16.766   2.884   5.815
 4019POPC   GL252550  16.516   2.657   5.884
 4019POPC   C1A52551  16.799   2.948   6.258
 4019POPC   D2A52552  16.954   3.144   6.666
 4019POPC   C3A52553  16.714   3.045   7.050
 4019POPC   C4A52554  16.786   2.833   7.447
 4019POPC   C1B52555  16.388   2.667   6.298
 4019POPC   C2B52556  16.616   2.720   6.674
 4019POPC   C3B52557  16.645   2.491   7.039
 4019POPC   C4B52558  16.507   2.411   7.443
 4020POPC   NC352559  41.603   0.828   5.432
 4020POPC   PO452560  41.663   0.197   5.347
 4020POPC   GL152561  41.468   0.347   5.702
 4020POPC   GL252562  41.200   0.115   5.760
 4020POPC   C1A52563  41.552   0.524   6.111
 4020POPC   D2A52564  41.375   0.548   6.558
 4020POPC   C3A52565  41.708   0.665   6.843
 4020POPC   C4A52566  41.875   0.579   7.267
 4020POPC   C1B52567  41.215   0.166   6.172
 4020POPC   C2B52568  41.474   0.042   6.483
 4020POPC   C3B52569  41.591   0.156   6.866
 4020POPC   C4B52570  41.373   0.420   7.129
 4021POPC   NC352571  40.896  36.997   5.501
 4021POPC   PO452572  41.203  36.512   5.210
 4021POPC   GL152573  40.928  36.561   5.737
 4021POPC   GL252574  40.687  36.816   5.912
 4021POPC   C1A52575  41.051  36.642   6.208
 4021POPC   D2A52576  41.067  36.787   6.635
 4021POPC   C3A52577  40.763  36.626   6.884
 4021POPC   C4A52578  40.397  36.649   7.106
 4021POPC   C1B52579  40.828  37.095   6.274
 4021POPC   C2B52580  40.827  37.246   6.732
 4021POPC   C3B52581  40.763  37.052   7.170
 4021POPC   C4B52582  40.727  37.008   7.647
 4022POPC   NC352583  16.754  14.844   5.595
 4022POPC   PO452584  16.805  14.315   5.305
 4022POPC   GL152585  16.579  14.309   5.718
 4022POPC   GL252586  16.282  14.076   5.713
 4022POPC   C1A52587  16.714  14.448   6.131
 4022POPC   D2A52588  16.961  14.421   6.507
 4022POPC   C3A52589  16.701  14.581   6.841
 4022POPC   C4A52590  16.773  14.473   7.248
 4022POPC   C1B52591  16.320  13.987   6.141
 4022POPC   C2B52592  16.487  14.170   6.521
 4022POPC   C3B52593  16.650  14.076   6.904
 4022POPC   C4B52594  16.434  14.071   7.255
 4023POPC   NC352595   3.874  16.900   5.363
 4023POPC   PO452596   3.404  16.438   5.393
 4023POPC   GL152597   3.504  16.755   5.706
 4023POPC   GL252598   3.848  16.724   5.841
 4023POPC   C1A52599   3.454  16.966   6.094
 4023POPC   D2A52600   3.304  16.792   6.476
 4023POPC   C3A52601   3.347  16.882   6.923
 4023POPC   C4A52602   3.272  16.595   7.219
 4023POPC   C1B52603   3.783  16.637   6.282
 4023POPC   C2B52604   3.772  16.773   6.717
 4023POPC   C3B52605   3.823  16.641   7.170
 4023POPC   C4B52606   3.930  16.654   7.637
 4024POPC   NC352607  34.494  27.876   5.268
 4024POPC   PO452608  34.321  27.503   5.703
 4024POPC   GL152609  34.560  27.358   5.955
 4024POPC   GL252610  34.832  27.564   5.837
 4024POPC   C1A52611  34.408  27.317   6.384
 4024POPC   D2A52612  34.401  27.671   6.651
 4024POPC   C3A52613  34.352  27.528   7.056
 4024POPC   C4A52614  34.218  27.778   7.375
 4024POPC   C1B52615  34.854  27.581   6.307
 4024POPC   C2B52616  34.912  27.290   6.644
 4024POPC   C3B52617  34.838  27.401   7.056
 4024POPC   C4B52618  34.743  27.864   7.155
 4025POPC   NC352619  13.474  42.545   5.245
 4025POPC   PO452620  13.921  42.143   5.487
 4025POPC   GL152621  13.642  42.238   5.794
 4025POPC   GL252622  13.454  42.535   5.756
 4025POPC   C1A52623  13.688  42.225   6.222
 4025POPC   D2A52624  13.455  42.239   6.569
 4025POPC   C3A52625  13.613  42.136   6.983
 4025POPC   C4A52626  13.372  42.019   7.334
 4025POPC   C1B52627  13.462  42.697   6.163
 4025POPC   C2B52628  13.724  42.672   6.528
 4025POPC   C3B52629  13.495  42.634   6.907
 4025POPC   C4B52630  13.539  42.793   7.292
 4026POPC   NC352631   6.208  40.869   5.157
 4026POPC   PO452632   6.666  40.468   5.438
 4026POPC   GL152633   6.447  40.652   5.791
 4026POPC   GL252634   6.111  40.751   5.780
 4026POPC   C1A52635   6.457  40.867   6.195
 4026POPC   D2A52636   6.772  40.850   6.538
 4026POPC   C3A52637   6.717  40.862   6.997
 4026POPC   C4A52638   7.060  40.681   7.234
 4026POPC   C1B52639   6.073  40.526   6.210
 4026POPC   C2B52640   6.343  40.529   6.620
 4026POPC   C3B52641   6.274  40.455   7.049
 4026POPC   C4B52642   6.251  40.811   7.319
 4027POPC   NC352643  21.987  25.141   5.397
 4027POPC   PO452644  22.570  25.473   5.232
 4027POPC   GL152645  22.401  25.358   5.663
 4027POPC   GL252646  22.072  25.525   5.735
 4027POPC   C1A52647  22.335  25.251   6.128
 4027POPC   D2A52648  22.398  25.536   6.527
 4027POPC   C3A52649  22.333  25.484   7.002
 4027POPC   C4A52650  22.366  25.095   7.241
 4027POPC   C1B52651  21.835  25.361   6.090
 4027POPC   C2B52652  21.969  25.207   6.505
 4027POPC   C3B52653  21.904  25.167   6.972
 4027POPC   C4B52654  21.596  25.231   7.291
 4028POPC   NC352655   9.361  20.574   5.551
 4028POPC   PO452656   9.931  20.522   5.221
 4028POPC   GL152657   9.905  20.670   5.663
 4028POPC   GL252658   9.766  20.373   5.811
 4028POPC   C1A52659   9.856  20.732   6.155
 4028POPC   D2A52660   9.699  20.594   6.584
 4028POPC   C3A52661   9.915  20.592   7.002
 4028POPC   C4A52662   9.892  20.877   7.362
 4028POPC   C1B52663   9.442  20.311   6.176
 4028POPC   C2B52664   9.467  20.145   6.619
 4028POPC   C3B52665   9.373  20.315   7.025
 4028POPC   C4B52666   9.588  20.456   7.394
 4029POPC   NC352667   0.360  35.050   5.400
 4029POPC   PO452668   0.335  34.317   5.409
 4029POPC   GL152669   0.229  34.429   5.822
 4029POPC   GL252670   0.303  34.763   5.825
 4029POPC   C1A52671   0.467  34.423   6.199
 4029POPC   D2A52672   0.429  34.526   6.598
 4029POPC   C3A52673   0.592  34.349   6.961
 4029POPC   C4A52674   0.384  34.424   7.351
 4029POPC   C1B52675   0.347  34.956   6.239
 4029POPC   C2B52676   0.531  35.032   6.635
 4029POPC   C3B52677   0.447  34.825   7.016
 4029POPC   C4B52678   0.815  34.692   7.293
 4030POPC   NC352679  36.742  12.519   5.492
 4030POPC   PO452680  37.108  13.118   5.436
 4030POPC   GL152681  37.147  12.987   5.855
 4030POPC   GL252682  37.259  12.663   5.771
 4030POPC   C1A52683  36.931  12.767   6.201
 4030POPC   D2A52684  36.671  12.675   6.557
 4030POPC   C3A52685  36.894  12.683   6.922
 4030POPC   C4A52686  36.765  12.787   7.288
 4030POPC   C1B52687  37.430  12.593   6.169
 4030POPC   C2B52688  37.328  12.578   6.624
 4030POPC   C3B52689  37.396  12.833   6.991
 4030POPC   C4B52690  37.112  13.142   7.152
 4031POPC   NC352691  38.718  30.920   5.440
 4031POPC   PO452692  38.250  30.339   5.450
 4031POPC   GL152693  38.447  30.489   5.788
 4031POPC   GL252694  38.316  30.830   5.771
 4031POPC   C1A52695  38.631  30.386   6.179
 4031POPC   D2A52696  38.720  30.712   6.425
 4031POPC   C3A52697  38.708  30.693   6.884
 4031POPC   C4A52698  38.610  30.320   7.093
 4031POPC   C1B52699  38.196  30.736   6.196
 4031POPC   C2B52700  38.271  30.857   6.606
 4031POPC   C3B52701  38.190  30.761   6.996
 4031POPC   C4B52702  38.115  31.069   7.290
 4032POPC   NC352703  32.310  12.424   5.242
 4032POPC   PO452704  32.173  13.103   5.317
 4032POPC   GL152705  32.430  12.887   5.660
 4032POPC   GL252706  32.451  12.542   5.729
 4032POPC   C1A52707  32.281  12.883   6.082
 4032POPC   D2A52708  32.038  12.951   6.409
 4032POPC   C3A52709  32.202  12.967   6.799
 4032POPC   C4A52710  32.087  13.212   7.144
 4032POPC   C1B52711  32.372  12.397   6.128
 4032POPC   C2B52712  32.137  12.455   6.498
 4032POPC   C3B52713  32.029  12.481   6.910
 4032POPC   C4B52714  32.222  12.697   7.253
 4033POPC   NC352715  32.326  30.314   5.311
 4033POPC   PO452716  32.186  29.654   5.394
 4033POPC   GL152717  32.314  29.972   5.697
 4033POPC   GL252718  32.612  29.820   5.705
 4033POPC   C1A52719  32.168  30.112   6.108
 4033POPC   D2A52720  32.070  29.837   6.466
 4033POPC   C3A52721  32.189  29.991   6.877
 4033POPC   C4A52722  32.139  29.822   7.301
 4033POPC   C1B52723  32.498  29.725   6.121
 4033POPC   C2B52724  32.572  29.831   6.523
 4033POPC   C3B52725  32.560  29.642   6.918
 4033POPC   C4B52726  32.622  29.740   7.332
 4034POPC   NC352727   4.916  39.897   5.153
 4034POPC   PO452728   5.409  40.294   5.480
 4034POPC   GL152729   5.222  40.139   5.825
 4034POPC   GL252730   5.010  39.840   5.794
 4034POPC   C1A52731   5.038  40.160   6.221
 4034POPC   D2A52732   5.134  39.946   6.581
 4034POPC   C3A52733   5.168  40.169   6.941
 4034POPC   C4A52734   5.311  40.305   7.315
 4034POPC   C1B52735   4.914  39.621   6.202
 4034POPC   C2B52736   4.701  39.675   6.624
 4034POPC   C3B52737   4.949  39.700   7.016
 4034POPC   C4B52738   4.906  39.986   7.392
 4035POPC   NC352739   8.810  38.791   5.408
 4035POPC   PO452740   8.879  38.117   5.442
 4035POPC   GL152741   8.767  38.440   5.782
 4035POPC   GL252742   9.070  38.688   5.843
 4035POPC   C1A52743   8.669  38.407   6.229
 4035POPC   D2A52744   8.935  38.390   6.623
 4035POPC   C3A52745   8.789  38.382   7.053
 4035POPC   C4A52746   9.033  38.433   7.442
 4035POPC   C1B52747   8.926  38.858   6.243
 4035POPC   C2B52748   9.165  38.866   6.640
 4035POPC   C3B52749   9.038  38.854   7.066
 4035POPC   C4B52750   8.600  38.847   7.072
 4036POPC   NC352751  20.223  39.981   5.538
 4036POPC   PO452752  19.591  40.248   5.337
 4036POPC   GL152753  19.582  40.119   5.812
 4036POPC   GL252754  19.846  39.866   5.869
 4036POPC   C1A52755  19.745  40.148   6.276
 4036POPC   D2A52756  19.853  39.794   6.596
 4036POPC   C3A52757  19.651  39.825   7.021
 4036POPC   C4A52758  19.638  40.197   7.281
 4036POPC   C1B52759  20.200  39.922   6.182
 4036POPC   C2B52760  20.310  40.076   6.580
 4036POPC   C3B52761  20.129  40.010   6.971
 4036POPC   C4B52762  20.312  39.916   7.335
 4037POPC   NC352763  10.638  19.547   5.291
 4037POPC   PO452764  10.433  20.090   5.569
 4037POPC   GL152765  10.508  19.814   5.916
 4037POPC   GL252766  10.334  20.077   6.074
 4037POPC   C1A52767  10.745  19.742   6.339
 4037POPC   D2A52768  10.704  19.436   6.716
 4037POPC   C3A52769  10.527  19.569   7.116
 4037POPC   C4A52770  10.779  19.868   7.246
 4037POPC   C1B52771  10.249  19.825   6.414
 4037POPC   C2B52772  10.478  19.942   6.775
 4037POPC   C3B52773  10.304  20.080   7.153
 4037POPC   C4B52774  10.206  19.941   7.534
 4038POPC   NC352775  12.841  28.971   5.413
 4038POPC   PO452776  13.041  29.561   5.186
 4038POPC   GL152777  12.985  29.427   5.699
 4038POPC   GL252778  12.738  29.188   5.860
 4038POPC   C1A52779  13.177  29.185   6.109
 4038POPC   D2A52780  13.251  29.026   6.556
 4038POPC   C3A52781  13.038  29.092   6.969
 4038POPC   C4A52782  12.925  29.224   7.418
 4038POPC   C1B52783  12.710  29.197   6.329
 4038POPC   C2B52784  12.574  29.326   6.721
 4038POPC   C3B52785  12.525  29.168   7.128
 4038POPC   C4B52786  12.493  28.990   7.531
 4039POPC   NC352787  37.662  35.785   5.493
 4039POPC   PO452788  38.011  36.444   5.386
 4039POPC   GL152789  37.647  36.336   5.659
 4039POPC   GL252790  37.835  36.162   5.913
 4039POPC   C1A52791  37.373  36.314   6.071
 4039POPC   D2A52792  37.396  36.433   6.530
 4039POPC   C3A52793  37.477  36.122   6.851
 4039POPC   C4A52794  37.674  36.189   7.252
 4039POPC   C1B52795  37.825  36.181   6.389
 4039POPC   C2B52796  37.911  35.860   6.742
 4039POPC   C3B52797  38.038  35.826   7.205
 4039POPC   C4B52798  37.905  35.930   7.643
 4040POPC   NC352799  10.113   1.137   5.377
 4040POPC   PO452800  10.143   0.554   5.479
 4040POPC   GL152801  10.105   0.889   5.852
 4040POPC   GL252802  10.330   1.195   5.868
 4040POPC   C1A52803  10.192   0.966   6.337
 4040POPC   D2A52804  10.151   0.957   6.815
 4040POPC   C3A52805  10.216   1.339   7.061
 4040POPC   C4A52806  10.374   1.510   7.475
 4040POPC   C1B52807  10.540   1.342   6.279
 4040POPC   C2B52808  10.596   1.205   6.723
 4040POPC   C3B52809  10.724   1.317   7.141
 4040POPC   C4B52810  11.113   1.404   7.360
 4041POPC   NC352811  30.327  13.200   5.600
 4041POPC   PO452812  30.643  12.693   5.308
 4041POPC   GL152813  30.765  12.719   5.772
 4041POPC   GL252814  30.704  13.063   5.924
 4041POPC   C1A52815  30.623  12.688   6.245
 4041POPC   D2A52816  30.629  13.021   6.580
 4041POPC   C3A52817  30.540  12.870   6.999
 4041POPC   C4A52818  30.685  12.661   7.362
 4041POPC   C1B52819  31.030  13.028   6.225
 4041POPC   C2B52820  31.173  13.227   6.603
 4041POPC   C3B52821  30.942  13.194   6.973
 4041POPC   C4B52822  30.741  13.159   7.388
 4042POPC   NC352823  18.414  13.778   5.465
 4042POPC   PO452824  18.755  13.148   5.419
 4042POPC   GL152825  18.460  13.364   5.798
 4042POPC   GL252826  18.185  13.669   5.896
 4042POPC   C1A52827  18.414  13.432   6.269
 4042POPC   D2A52828  18.566  13.682   6.595
 4042POPC   C3A52829  18.433  13.626   6.997
 4042POPC   C4A52830  18.407  13.338   7.318
 4042POPC   C1B52831  17.922  13.368   6.144
 4042POPC   C2B52832  17.945  13.163   6.544
 4042POPC   C3B52833  17.982  13.331   6.953
 4042POPC   C4B52834  17.987  13.621   7.281
 4043POPC   NC352835  14.787  20.473   5.345
 4043POPC   PO452836  14.114  20.551   5.320
 4043POPC   GL152837  14.405  20.587   5.695
 4043POPC   GL252838  14.539  20.230   5.712
 4043POPC   C1A52839  14.548  20.681   6.146
 4043POPC   D2A52840  14.419  20.497   6.579
 4043POPC   C3A52841  14.429  20.765   6.987
 4043POPC   C4A52842  14.111  21.055   7.183
 4043POPC   C1B52843  14.315  20.236   6.083
 4043POPC   C2B52844  14.132  20.077   6.434
 4043POPC   C3B52845  14.143  20.141   6.846
 4043POPC   C4B52846  14.365  20.279   7.191
 4044POPC   NC352847  20.176  38.121   5.638
 4044POPC   PO452848  20.085  37.490   5.641
 4044POPC   GL152849  19.806  37.749   5.888
 4044POPC   GL252850  19.761  38.117   5.951
 4044POPC   C1A52851  19.565  37.760   6.269
 4044POPC   D2A52852  19.739  37.714   6.672
 4044POPC   C3A52853  19.560  37.807   7.057
 4044POPC   C4A52854  19.521  37.609   7.467
 4044POPC   C1B52855  20.048  37.937   6.293
 4044POPC   C2B52856  20.097  38.066   6.719
 4044POPC   C3B52857  20.179  37.894   7.081
 4044POPC   C4B52858  20.022  37.774   7.459
 4045POPC   NC352859   5.851  34.498   5.147
 4045POPC   PO452860   5.484  34.868   5.550
 4045POPC   GL152861   5.739  34.755   5.886
 4045POPC   GL252862   5.999  34.556   5.692
 4045POPC   C1A52863   5.730  34.816   6.344
 4045POPC   D2A52864   5.887  34.661   6.738
 4045POPC   C3A52865   5.607  34.525   7.097
 4045POPC   C4A52866   5.347  34.208   7.237
 4045POPC   C1B52867   5.957  34.364   6.137
 4045POPC   C2B52868   5.881  34.115   6.531
 4045POPC   C3B52869   5.987  34.209   7.000
 4045POPC   C4B52870   6.142  34.625   7.178
 4046POPC   NC352871  18.501  19.268   5.186
 4046POPC   PO452872  18.192  18.704   5.477
 4046POPC   GL152873  18.517  18.932   5.666
 4046POPC   GL252874  18.286  19.085   5.899
 4046POPC   C1A52875  18.720  18.874   6.097
 4046POPC   D2A52876  18.555  18.686   6.491
 4046POPC   C3A52877  18.458  18.861   6.913
 4046POPC   C4A52878  18.478  19.190   7.235
 4046POPC   C1B52879  18.116  18.834   6.250
 4046POPC   C2B52880  18.036  19.012   6.682
 4046POPC   C3B52881  18.022  19.323   7.058
 4046POPC   C4B52882  18.025  19.336   7.530
 4047POPC   NC352883   0.519  26.948   5.362
 4047POPC   PO452884   0.527  26.323   5.599
 4047POPC   GL152885   0.522  26.689   5.823
 4047POPC   GL252886   0.203  26.743   5.783
 4047POPC   C1A52887   0.533  26.966   6.193
 4047POPC   D2A52888   0.693  26.871   6.612
 4047POPC   C3A52889   0.498  26.998   7.019
 4047POPC   C4A52890   0.731  27.032   7.398
 4047POPC   C1B52891   0.102  26.652   6.221
 4047POPC   C2B52892   0.281  26.565   6.647
 4047POPC   C3B52893   0.568  26.491   7.010
 4047POPC   C4B52894   0.296  26.496   7.346
 4048POPC   NC352895  17.575  39.317   5.350
 4048POPC   PO452896  17.057  38.913   5.601
 4048POPC   GL152897  17.416  39.093   5.817
 4048POPC   GL252898  17.508  39.466   5.848
 4048POPC   C1A52899  17.336  39.144   6.257
 4048POPC   D2A52900  17.206  39.284   6.681
 4048POPC   C3A52901  17.235  38.964   7.022
 4048POPC   C4A52902  17.243  38.995   7.490
 4048POPC   C1B52903  17.650  39.539   6.304
 4048POPC   C2B52904  17.688  39.419   6.780
 4048POPC   C3B52905  17.471  39.377   7.214
 4048POPC   C4B52906  17.653  39.357   7.654
 4049POPC   NC352907  12.777  11.159   5.460
 4049POPC   PO452908  12.481  11.661   5.163
 4049POPC   GL152909  12.724  11.592   5.709
 4049POPC   GL252910  12.665  11.226   5.937
 4049POPC   C1A52911  12.868  11.606   6.170
 4049POPC   D2A52912  12.809  11.776   6.598
 4049POPC   C3A52913  12.884  11.477   6.933
 4049POPC   C4A52914  12.683  11.449   7.341
 4049POPC   C1B52915  13.035  11.039   6.151
 4049POPC   C2B52916  13.323  11.095   6.487
 4049POPC   C3B52917  13.266  11.099   6.923
 4049POPC   C4B52918  12.993  11.084   7.268
 4050POPC   NC352919  26.327   3.754   5.417
 4050POPC   PO452920  25.812   3.389   5.194
 4050POPC   GL152921  25.946   3.498   5.666
 4050POPC   GL252922  25.964   3.869   5.758
 4050POPC   C1A52923  26.012   3.299   6.121
 4050POPC   D2A52924  26.048   2.982   6.478
 4050POPC   C3A52925  26.073   3.187   6.899
 4050POPC   C4A52926  26.064   3.350   7.338
 4050POPC   C1B52927  26.261   3.755   6.089
 4050POPC   C2B52928  26.230   3.568   6.531
 4050POPC   C3B52929  26.377   3.600   6.970
 4050POPC   C4B52930  26.264   3.861   7.288
 4051POPC   NC352931  33.838  42.730   5.531
 4051POPC   PO452932  33.583  43.197   5.209
 4051POPC   GL152933  33.643  43.212   5.697
 4051POPC   GL252934  33.469  42.892   5.825
 4051POPC   C1A52935  33.933  43.100   6.080
 4051POPC   D2A52936  34.141  42.896   6.457
 4051POPC   C3A52937  33.995  43.031   6.871
 4051POPC   C4A52938  34.173  43.108   7.277
 4051POPC   C1B52939  33.428  43.126   6.212
 4051POPC   C2B52940  33.508  43.023   6.626
 4051POPC   C3B52941  33.528  43.126   7.034
 4051POPC   C4B52942  33.734  42.834   7.287
 4052POPC   NC352943  10.474  33.108   5.227
 4052POPC   PO452944  10.758  33.628   5.554
 4052POPC   GL152945  10.450  33.395   5.782
 4052POPC   GL252946  10.423  33.025   5.731
 4052POPC   C1A52947  10.521  33.255   6.206
 4052POPC   D2A52948  10.799  33.258   6.585
 4052POPC   C3A52949  10.549  33.197   6.962
 4052POPC   C4A52950  10.610  32.988   7.349
 4052POPC   C1B52951  10.503  32.771   6.109
 4052POPC   C2B52952  10.696  32.777   6.492
 4052POPC   C3B52953  10.574  32.693   6.908
 4052POPC   C4B52954  10.279  32.606   7.231
 4053POPC   NC352955  44.883  43.843   5.400
 4053POPC   PO452956  44.232  43.913   5.326
 4053POPC   GL152957  44.513  43.763   5.716
 4053POPC   GL252958  44.785  44.028   5.852
 4053POPC   C1A52959  44.801  43.572   6.057
 4053POPC   D2A52960  44.947  43.851   6.367
 4053POPC   C3A52961  44.881  43.791   6.813
 4053POPC   C4A52962  44.817  43.886   7.249
 4053POPC   C1B52963  44.530  44.100   6.199
 4053POPC   C2B52964  44.575  44.178   6.637
 4053POPC   C3B52965  44.443  44.202   7.063
 4053POPC   C4B52966  44.642  44.324   7.426
 4054POPC   NC352967  29.906  28.571   4.942
 4054POPC   PO452968  29.833  28.128   5.471
 4054POPC   GL152969  29.851  28.396   5.823
 4054POPC   GL252970  29.580  28.225   5.943
 4054POPC   C1A52971  30.088  28.515   6.230
 4054POPC   D2A52972  29.998  28.768   6.618
 4054POPC   C3A52973  30.191  28.558   6.917
 4054POPC   C4A52974  30.100  28.337   7.259
 4054POPC   C1B52975  29.541  27.988   6.306
 4054POPC   C2B52976  29.646  27.843   6.697
 4054POPC   C3B52977  29.688  28.051   7.056
 4054POPC   C4B52978  29.481  27.877   7.361
 4055POPC   NC352979  28.510  24.059   4.962
 4055POPC   PO452980  28.447  24.660   5.265
 4055POPC   GL152981  28.536  24.667   5.678
 4055POPC   GL252982  28.192  24.658   5.787
 4055POPC   C1A52983  28.544  24.441   6.070
 4055POPC   D2A52984  28.448  24.446   6.486
 4055POPC   C3A52985  28.681  24.369   6.843
 4055POPC   C4A52986  28.570  24.203   7.221
 4055POPC   C1B52987  28.119  24.898   6.184
 4055POPC   C2B52988  28.010  24.791   6.627
 4055POPC   C3B52989  28.045  24.846   7.061
 4055POPC   C4B52990  28.333  24.652   7.306
 4056POPC   NC352991  28.643   3.153   5.378
 4056POPC   PO452992  28.245   2.545   5.406
 4056POPC   GL152993  28.420   2.661   5.782
 4056POPC   GL252994  28.385   2.983   5.776
 4056POPC   C1A52995  28.405   2.511   6.178
 4056POPC   D2A52996  28.155   2.514   6.542
 4056POPC   C3A52997  28.387   2.666   6.871
 4056POPC   C4A52998  28.547   2.566   7.255
 4056POPC   C1B52999  28.523   3.182   6.149
 4056POPC   C2B53000  28.487   3.143   6.599
 4056POPC   C3B53001  28.248   3.151   6.988
 4056POPC   C4B53002  28.286   2.981   7.387
 4057POPC   NC353003  23.868  34.226   5.571
 4057POPC   PO453004  23.754  34.897   5.375
 4057POPC   GL153005  23.605  34.668   5.768
 4057POPC   GL253006  23.367  34.394   5.690
 4057POPC   C1A53007  23.706  34.540   6.216
 4057POPC   D2A53008  23.609  34.777   6.603
 4057POPC   C3A53009  23.716  34.593   7.008
 4057POPC   C4A53010  24.119  34.713   7.129
 4057POPC   C1B53011  23.243  34.342   6.117
 4057POPC   C2B53012  23.320  34.352   6.558
 4057POPC   C3B53013  23.213  34.466   6.988
 4057POPC   C4B53014  23.365  34.432   7.409
 4058POPC   NC353015  21.086  38.841   5.599
 4058POPC   PO453016  21.003  39.327   5.143
 4058POPC   GL153017  20.582  39.260   5.565
 4058POPC   GL253018  20.347  39.023   5.795
 4058POPC   C1A53019  20.417  39.499   5.978
 4058POPC   D2A53020  20.514  39.594   6.449
 4058POPC   C3A53021  20.430  39.582   6.938
 4058POPC   C4A53022  20.519  39.427   7.397
 4058POPC   C1B53023  20.635  39.099   6.194
 4058POPC   C2B53024  20.907  39.195   6.571
 4058POPC   C3B53025  20.810  39.213   7.014
 4058POPC   C4B53026  20.377  39.065   7.054
 4059POPC   NC353027  31.430  26.740   5.414
 4059POPC   PO453028  30.894  26.341   5.512
 4059POPC   GL153029  31.125  26.648   5.827
 4059POPC   GL253030  31.445  26.908   5.888
 4059POPC   C1A53031  31.358  26.514   6.183
 4059POPC   D2A53032  31.369  26.706   6.562
 4059POPC   C3A53033  31.125  26.657   6.916
 4059POPC   C4A53034  31.366  26.723   7.295
 4059POPC   C1B53035  31.764  26.818   6.258
 4059POPC   C2B53036  31.807  26.848   6.756
 4059POPC   C3B53037  31.913  26.832   7.189
 4059POPC   C4B53038  31.713  26.994   7.562
 4060POPC   NC353039   3.996  44.458   5.455
 4060POPC   PO453040   3.345  44.396   5.472
 4060POPC   GL153041   3.581  44.715   5.714
 4060POPC   GL253042   3.331  44.625   5.965
 4060POPC   C1A53043   3.623  44.966   6.147
 4060POPC   D2A53044   3.406  44.698   6.499
 4060POPC   C3A53045   3.421  44.840   6.927
 4060POPC   C4A53046   3.781  44.971   7.148
 4060POPC   C1B53047   3.742  44.475   6.159
 4060POPC   C2B53048   3.828  44.324   6.561
 4060POPC   C3B53049   3.725  44.424   6.973
 4060POPC   C4B53050   3.951  44.454   7.356
 4061POPC   NC353051  21.515   1.093   5.308
 4061POPC   PO453052  20.943   1.378   5.472
 4061POPC   GL153053  21.202   1.181   5.829
 4061POPC   GL253054  21.558   0.998   5.803
 4061POPC   C1A53055  21.467   1.327   6.201
 4061POPC   D2A53056  21.624   1.556   6.561
 4061POPC   C3A53057  21.526   1.342   6.917
 4061POPC   C4A53058  21.315   1.473   7.287
 4061POPC   C1B53059  21.394   0.824   6.189
 4061POPC   C2B53060  21.355   0.961   6.573
 4061POPC   C3B53061  21.475   0.820   6.948
 4061POPC   C4B53062  21.682   0.984   7.300
 4062POPC   NC353063  43.826  41.572   5.388
 4062POPC   PO453064  44.129  41.090   5.771
 4062POPC   GL153065  43.942  41.475   5.926
 4062POPC   GL253066  43.552  41.483   5.917
 4062POPC   C1A53067  44.002  41.647   6.364
 4062POPC   D2A53068  44.013  41.704   6.814
 4062POPC   C3A53069  44.231  41.395   7.102
 4062POPC   C4A53070  44.188  41.385   7.553
 4062POPC   C1B53071  43.474  41.640   6.381
 4062POPC   C2B53072  43.393  41.677   6.859
 4062POPC   C3B53073  43.487  41.761   7.317
 4062POPC   C4B53074  43.373  41.975   7.755
 4063POPC   NC353075  34.510  35.790   5.291
 4063POPC   PO453076  34.915  35.182   5.282
 4063POPC   GL153077  34.703  35.360   5.646
 4063POPC   GL253078  34.741  35.697   5.725
 4063POPC   C1A53079  34.650  35.368   6.120
 4063POPC   D2A53080  34.656  35.204   6.555
 4063POPC   C3A53081  34.470  35.371   6.937
 4063POPC   C4A53082  34.479  35.540   7.345
 4063POPC   C1B53083  34.964  35.787   6.086
 4063POPC   C2B53084  35.079  35.530   6.419
 4063POPC   C3B53085  34.978  35.511   6.842
 4063POPC   C4B53086  34.900  35.801   7.126
 4064POPC   NC353087  43.132   6.165   5.433
 4064POPC   PO453088  43.250   5.504   5.381
 4064POPC   GL153089  43.109   5.727   5.731
 4064POPC   GL253090  43.326   5.937   5.884
 4064POPC   C1A53091  42.879   5.865   6.091
 4064POPC   D2A53092  43.105   6.054   6.423
 4064POPC   C3A53093  42.948   6.010   6.842
 4064POPC   C4A53094  42.960   5.994   7.273
 4064POPC   C1B53095  43.540   5.844   6.264
 4064POPC   C2B53096  43.422   5.777   6.686
 4064POPC   C3B53097  43.284   5.658   7.039
 4064POPC   C4B53098  43.551   5.503   7.288
 4065POPC   NC353099   5.249  44.810   5.399
 4065POPC   PO453100   4.600  44.694   5.332
 4065POPC   GL153101   4.883  44.648   5.715
 4065POPC   GL253102   5.204  44.465   5.769
 4065POPC   C1A53103   4.831  44.431   6.112
 4065POPC   D2A53104   4.977  44.606   6.509
 4065POPC   C3A53105   4.840  44.364   6.877
 4065POPC   C4A53106   5.074  44.304   7.250
 4065POPC   C1B53107   5.248  44.767   6.091
 4065POPC   C2B53108   5.497  44.763   6.471
 4065POPC   C3B53109   5.518  44.716   6.909
 4065POPC   C4B53110   5.174  44.840   7.154
 4066POPC   NC353111  32.490  13.367   5.522
 4066POPC   PO453112  32.113  13.847   5.260
 4066POPC   GL153113  32.156  13.736   5.745
 4066POPC   GL253114  32.140  13.351   5.876
 4066POPC   C1A53115  32.097  13.706   6.225
 4066POPC   D2A53116  32.154  13.444   6.597
 4066POPC   C3A53117  32.059  13.694   6.952
 4066POPC   C4A53118  32.265  13.699   7.327
 4066POPC   C1B53119  32.502  13.323   6.197
 4066POPC   C2B53120  32.652  13.232   6.607
 4066POPC   C3B53121  32.538  13.387   6.999
 4066POPC   C4B53122  32.591  13.318   7.441
 4067POPC   NC353123  21.182   9.679   5.329
 4067POPC   PO453124  21.810  10.023   5.212
 4067POPC   GL153125  21.520   9.902   5.640
 4067POPC   GL253126  21.368   9.557   5.773
 4067POPC   C1A53127  21.300   9.934   6.075
 4067POPC   D2A53128  21.114   9.953   6.504
 4067POPC   C3A53129  21.286  10.114   6.888
 4067POPC   C4A53130  21.344   9.929   7.281
 4067POPC   C1B53131  21.286   9.421   6.194
 4067POPC   C2B53132  21.312   9.496   6.649
 4067POPC   C3B53133  21.266   9.469   7.094
 4067POPC   C4B53134  21.511   9.499   7.492
 4068POPC   NC353135  11.889   6.477   5.389
 4068POPC   PO453136  12.201   7.021   5.283
 4068POPC   GL153137  12.029   6.952   5.730
 4068POPC   GL253138  11.873   6.656   5.868
 4068POPC   C1A53139  12.204   6.911   6.174
 4068POPC   D2A53140  12.412   6.689   6.526
 4068POPC   C3A53141  12.270   6.724   6.968
 4068POPC   C4A53142  12.322   6.463   7.346
 4068POPC   C1B53143  11.784   6.554   6.301
 4068POPC   C2B53144  11.790   6.235   6.612
 4068POPC   C3B53145  11.989   6.252   6.989
 4068POPC   C4B53146  11.792   6.500   7.297
 4069POPC   NC353147  13.858  20.322   5.008
 4069POPC   PO453148  13.580  20.634   5.503
 4069POPC   GL153149  13.657  20.688   5.864
 4069POPC   GL253150  13.608  20.349   5.916
 4069POPC   C1A53151  13.400  20.648   6.253
 4069POPC   D2A53152  13.372  20.841   6.628
 4069POPC   C3A53153  13.407  20.587   7.015
 4069POPC   C4A53154  13.185  20.779   7.346
 4069POPC   C1B53155  13.895  20.487   6.242
 4069POPC   C2B53156  13.775  20.464   6.646
 4069POPC   C3B53157  13.936  20.578   7.042
 4069POPC   C4B53158  13.917  20.345   7.423
 4070POPC   NC353159   4.325  28.562   5.405
 4070POPC   PO453160   4.264  27.910   5.331
 4070POPC   GL153161   4.438  28.130   5.703
 4070POPC   GL253162   4.143  28.286   5.821
 4070POPC   C1A53163   4.554  28.451   6.041
 4070POPC   D2A53164   4.505  28.439   6.495
 4070POPC   C3A53165   4.785  28.313   6.852
 4070POPC   C4A53166   4.799  28.289   7.303
 4070POPC   C1B53167   4.253  28.049   6.212
 4070POPC   C2B53168   4.245  28.030   6.674
 4070POPC   C3B53169   4.286  28.379   6.962
 4070POPC   C4B53170   4.334  28.489   7.386
 4071POPC   NC353171   4.174   0.975   5.049
 4071POPC   PO453172   4.619   1.279   5.533
 4071POPC   GL153173   4.327   1.423   5.897
 4071POPC   GL253174   4.156   1.122   6.059
 4071POPC   C1A53175   4.242   1.501   6.365
 4071POPC   D2A53176   4.125   1.170   6.693
 4071POPC   C3A53177   4.444   1.166   7.021
 4071POPC   C4A53178   4.441   1.536   7.310
 4071POPC   C1B53179   3.807   0.971   6.326
 4071POPC   C2B53180   3.684   0.748   6.652
 4071POPC   C3B53181   3.764   0.899   7.058
 4071POPC   C4B53182   3.987   1.242   7.229
 4072POPC   NC353183  21.235  19.177   5.203
 4072POPC   PO453184  21.876  19.335   5.345
 4072POPC   GL153185  21.570  19.109   5.686
 4072POPC   GL253186  21.168  19.087   5.713
 4072POPC   C1A53187  21.470  19.067   6.148
 4072POPC   D2A53188  21.535  18.931   6.591
 4072POPC   C3A53189  21.378  18.992   7.034
 4072POPC   C4A53190  21.588  18.942   7.464
 4072POPC   C1B53191  21.049  18.769   6.066
 4072POPC   C2B53192  20.967  18.876   6.519
 4072POPC   C3B53193  20.972  18.670   6.941
 4072POPC   C4B53194  21.020  18.842   7.383
 4073POPC   NC353195  37.213  21.993   5.554
 4073POPC   PO453196  36.525  22.216   5.407
 4073POPC   GL153197  36.807  22.326   5.788
 4073POPC   GL253198  36.823  22.007   5.893
 4073POPC   C1A53199  37.093  22.309   6.195
 4073POPC   D2A53200  37.166  22.118   6.626
 4073POPC   C3A53201  36.781  22.112   6.909
 4073POPC   C4A53202  36.608  22.186   7.348
 4073POPC   C1B53203  37.059  21.729   6.161
 4073POPC   C2B53204  37.167  21.590   6.561
 4073POPC   C3B53205  37.128  21.641   6.975
 4073POPC   C4B53206  37.068  21.941   7.278
 4074POPC   NC353207  10.460   6.085   5.471
 4074POPC   PO453208  10.745   5.534   5.279
 4074POPC   GL153209  10.779   5.735   5.711
 4074POPC   GL253210  10.957   6.066   5.642
 4074POPC   C1A53211  10.555   5.667   6.154
 4074POPC   D2A53212  10.253   5.689   6.539
 4074POPC   C3A53213  10.448   5.832   6.946
 4074POPC   C4A53214  10.487   5.709   7.411
 4074POPC   C1B53215  10.803   6.110   6.082
 4074POPC   C2B53216  10.620   6.154   6.505
 4074POPC   C3B53217  10.850   6.192   6.852
 4074POPC   C4B53218  10.807   6.047   7.238
 4075POPC   NC353219   9.795  33.568   5.378
 4075POPC   PO453220   9.581  34.052   5.670
 4075POPC   GL153221   9.553  33.749   5.944
 4075POPC   GL253222   9.824  33.610   5.931
 4075POPC   C1A53223   9.589  33.657   6.395
 4075POPC   D2A53224   9.911  33.433   6.619
 4075POPC   C3A53225  10.014  33.633   7.006
 4075POPC   C4A53226   9.624  33.733   7.184
 4075POPC   C1B53227   9.900  34.025   6.221
 4075POPC   C2B53228  10.035  34.028   6.657
 4075POPC   C3B53229   9.853  34.167   7.059
 4075POPC   C4B53230   9.831  34.047   7.513
 4076POPC   NC353231   6.090  13.315   5.240
 4076POPC   PO453232   5.745  13.791   5.263
 4076POPC   GL153233   5.782  13.557   5.689
 4076POPC   GL253234   6.091  13.611   5.872
 4076POPC   C1A53235   5.672  13.670   6.164
 4076POPC   D2A53236   5.873  13.872   6.528
 4076POPC   C3A53237   5.636  13.858   6.905
 4076POPC   C4A53238   5.548  13.665   7.301
 4076POPC   C1B53239   6.099  13.439   6.313
 4076POPC   C2B53240   5.963  13.409   6.755
 4076POPC   C3B53241   6.057  13.642   7.144
 4076POPC   C4B53242   6.126  13.596   7.605
 4077POPC   NC353243  14.918  16.396   5.524
 4077POPC   PO453244  15.323  15.934   5.224
 4077POPC   GL153245  15.191  15.933   5.701
 4077POPC   GL253246  15.221  16.236   5.913
 4077POPC   C1A53247  15.336  15.839   6.180
 4077POPC   D2A53248  15.390  16.134   6.560
 4077POPC   C3A53249  15.191  16.026   6.956
 4077POPC   C4A53250  15.293  15.676   7.239
 4077POPC   C1B53251  14.952  16.220   6.290
 4077POPC   C2B53252  14.925  16.414   6.701
 4077POPC   C3B53253  14.758  16.364   7.135
 4077POPC   C4B53254  14.862  16.349   7.602
 4078POPC   NC353255  26.652  35.073   5.447
 4078POPC   PO453256  27.001  35.696   5.470
 4078POPC   GL153257  26.965  35.341   5.784
 4078POPC   GL253258  26.639  35.447   5.795
 4078POPC   C1A53259  26.977  35.158   6.256
 4078POPC   D2A53260  27.012  35.076   6.772
 4078POPC   C3A53261  26.933  35.328   7.165
 4078POPC   C4A53262  27.188  35.622   7.416
 4078POPC   C1B53263  26.498  35.373   6.170
 4078POPC   C2B53264  26.640  35.380   6.587
 4078POPC   C3B53265  26.453  35.320   6.961
 4078POPC   C4B53266  26.379  35.238   7.375
 4079POPC   NC353267  31.189  11.388   5.274
 4079POPC   PO453268  31.781  11.111   5.331
 4079POPC   GL153269  31.534  11.251   5.684
 4079POPC   GL253270  31.285  11.032   5.677
 4079POPC   C1A53271  31.615  11.077   6.100
 4079POPC   D2A53272  31.823  11.188   6.460
 4079POPC   C3A53273  31.594  11.176   6.843
 4079POPC   C4A53274  31.507  11.374   7.228
 4079POPC   C1B53275  31.147  10.888   6.105
 4079POPC   C2B53276  31.207  11.077   6.501
 4079POPC   C3B53277  31.147  10.914   6.917
 4079POPC   C4B53278  31.075  11.077   7.312
 4080POPC   NC353279   1.233   2.358   5.395
 4080POPC   PO453280   1.594   2.986   5.363
 4080POPC   GL153281   1.355   2.775   5.749
 4080POPC   GL253282   1.044   2.978   5.834
 4080POPC   C1A53283   1.242   2.600   6.199
 4080POPC   D2A53284   1.327   2.412   6.644
 4080POPC   C3A53285   1.383   2.762   6.984
 4080POPC   C4A53286   1.277   2.730   7.449
 4080POPC   C1B53287   0.920   2.996   6.276
 4080POPC   C2B53288   0.897   2.715   6.650
 4080POPC   C3B53289   0.887   2.663   7.102
 4080POPC   C4B53290   0.786   2.808   7.540
 4081POPC   NC353291  25.686   5.110   5.013
 4081POPC   PO453292  25.149   5.037   5.419
 4081POPC   GL153293  25.225   5.247   5.827
 4081POPC   GL253294  25.530   5.106   5.815
 4081POPC   C1A53295  25.056   5.316   6.243
 4081POPC   D2A53296  25.082   5.025   6.609
 4081POPC   C3A53297  25.041   5.143   7.040
 4081POPC   C4A53298  25.219   4.941   7.415
 4081POPC   C1B53299  25.422   4.944   6.214
 4081POPC   C2B53300  25.636   4.908   6.591
 4081POPC   C3B53301  25.490   4.834   7.001
 4081POPC   C4B53302  25.611   4.625   7.401
 4082POPC   NC353303  16.957  18.704   5.526
 4082POPC   PO453304  16.384  18.326   5.501
 4082POPC   GL153305  16.742  18.290   5.750
 4082POPC   GL253306  16.926  17.976   5.739
 4082POPC   C1A53307  16.778  18.494   6.153
 4082POPC   D2A53308  16.920  18.294   6.515
 4082POPC   C3A53309  16.554  18.247   6.815
 4082POPC   C4A53310  16.587  18.563   7.135
 4082POPC   C1B53311  16.705  17.947   6.146
 4082POPC   C2B53312  16.792  17.815   6.584
 4082POPC   C3B53313  16.972  18.007   6.938
 4082POPC   C4B53314  16.876  17.966   7.331
 4083POPC   NC353315  23.572  38.017   5.260
 4083POPC   PO453316  23.908  37.394   5.470
 4083POPC   GL153317  23.667  37.640   5.836
 4083POPC   GL253318  23.446  37.911   5.798
 4083POPC   C1A53319  23.583  37.713   6.293
 4083POPC   D2A53320  23.583  37.561   6.722
 4083POPC   C3A53321  23.691  37.610   7.124
 4083POPC   C4A53322  23.429  37.439   7.431
 4083POPC   C1B53323  23.226  38.055   6.209
 4083POPC   C2B53324  23.376  38.037   6.648
 4083POPC   C3B53325  23.253  37.871   7.041
 4083POPC   C4B53326  23.478  37.936   7.425
 4084POPC   NC353327  20.499  34.255   5.494
 4084POPC   PO453328  20.271  34.922   5.338
 4084POPC   GL153329  20.531  34.754   5.696
 4084POPC   GL253330  20.914  34.795   5.746
 4084POPC   C1A53331  20.494  34.747   6.129
 4084POPC   D2A53332  20.338  34.846   6.535
 4084POPC   C3A53333  20.393  34.559   6.875
 4084POPC   C4A53334  20.504  34.708   7.263
 4084POPC   C1B53335  20.949  34.523   6.119
 4084POPC   C2B53336  20.763  34.539   6.525
 4084POPC   C3B53337  20.899  34.556   6.952
 4084POPC   C4B53338  20.905  34.172   7.154
 4085POPC   NC353339  12.947  24.785   5.518
 4085POPC   PO453340  12.541  25.451   5.518
 4085POPC   GL153341  12.764  25.218   5.807
 4085POPC   GL253342  13.015  25.413   5.837
 4085POPC   C1A53343  12.912  25.017   6.174
 4085POPC   D2A53344  12.701  24.976   6.556
 4085POPC   C3A53345  12.993  25.050   6.870
 4085POPC   C4A53346  12.726  25.137   7.169
 4085POPC   C1B53347  13.174  25.492   6.173
 4085POPC   C2B53348  12.965  25.424   6.519
 4085POPC   C3B53349  13.120  25.556   6.889
 4085POPC   C4B53350  13.150  25.402   7.243
 4086POPC   NC353351   8.500   9.052   5.425
 4086POPC   PO453352   7.884   9.272   5.448
 4086POPC   GL153353   8.036   9.013   5.804
 4086POPC   GL253354   8.380   8.833   5.871
 4086POPC   C1A53355   8.034   9.220   6.203
 4086POPC   D2A53356   7.898   8.958   6.534
 4086POPC   C3A53357   8.034   8.857   6.928
 4086POPC   C4A53358   8.076   9.256   7.072
 4086POPC   C1B53359   8.352   8.837   6.316
 4086POPC   C2B53360   8.414   9.102   6.677
 4086POPC   C3B53361   8.505   8.980   7.104
 4086POPC   C4B53362   8.312   8.653   7.317
 4087POPC   NC353363  35.351  10.567   5.396
 4087POPC   PO453364  34.700  10.729   5.559
 4087POPC   GL153365  34.992  10.468   5.835
 4087POPC   GL253366  35.338  10.588   5.904
 4087POPC   C1A53367  35.054  10.515   6.312
 4087POPC   D2A53368  34.923  10.740   6.722
 4087POPC   C3A53369  35.222  10.667   7.093
 4087POPC   C4A53370  35.154  10.264   7.277
 4087POPC   C1B53371  35.529  10.697   6.305
 4087POPC   C2B53372  35.405  10.448   6.682
 4087POPC   C3B53373  35.603  10.262   7.046
 4087POPC   C4B53374  35.591  10.474   7.476
 4088POPC   NC353375  11.827  15.923   5.578
 4088POPC   PO453376  11.305  15.710   5.488
 4088POPC   GL153377  11.390  15.863   5.894
 4088POPC   GL253378  11.042  15.845   5.978
 4088POPC   C1A53379  11.601  16.016   6.295
 4088POPC   D2A53380  11.492  15.979   6.752
 4088POPC   C3A53381  11.467  16.276   7.110
 4088POPC   C4A53382  11.299  16.238   7.535
 4088POPC   C1B53383  11.208  15.680   6.376
 4088POPC   C2B53384  11.150  15.610   6.828
 4088POPC   C3B53385  11.159  15.874   7.191
 4088POPC   C4B53386  11.104  15.761   7.614
 4089POPC   NC353387  39.330  26.274   5.466
 4089POPC   PO453388  39.015  25.594   5.541
 4089POPC   GL153389  39.094  25.961   5.816
 4089POPC   GL253390  39.446  26.014   5.882
 4089POPC   C1A53391  39.140  26.214   6.217
 4089POPC   D2A53392  39.063  26.085   6.640
 4089POPC   C3A53393  39.209  26.295   7.020
 4089POPC   C4A53394  39.039  26.257   7.444
 4089POPC   C1B53395  39.623  25.833   6.244
 4089POPC   C2B53396  39.510  25.711   6.649
 4089POPC   C3B53397  39.243  25.769   7.007
 4089POPC   C4B53398  39.400  25.926   7.397
 4090POPC   NC353399  41.231  13.322   5.373
 4090POPC   PO453400  41.680  13.778   5.232
 4090POPC   GL153401  41.648  13.766   5.687
 4090POPC   GL253402  41.272  13.767   5.739
 4090POPC   C1A53403  41.712  13.821   6.140
 4090POPC   D2A53404  41.514  14.018   6.513
 4090POPC   C3A53405  41.557  13.753   6.876
 4090POPC   C4A53406  41.482  13.488   7.257
 4090POPC   C1B53407  41.228  13.654   6.177
 4090POPC   C2B53408  41.445  13.421   6.479
 4090POPC   C3B53409  41.208  13.366   6.848
 4090POPC   C4B53410  41.094  13.743   7.077
 4091POPC   NC353411  33.869  34.533   5.348
 4091POPC   PO453412  33.376  35.009   5.565
 4091POPC   GL153413  33.615  34.685   5.817
 4091POPC   GL253414  33.922  34.437   5.837
 4091POPC   C1A53415  33.669  34.644   6.261
 4091POPC   D2A53416  33.722  34.486   6.678
 4091POPC   C3A53417  33.695  34.731   7.065
 4091POPC   C4A53418  33.614  34.871   7.482
 4091POPC   C1B53419  34.118  34.384   6.233
 4091POPC   C2B53420  34.131  34.192   6.636
 4091POPC   C3B53421  34.081  34.400   7.035
 4091POPC   C4B53422  34.117  34.660   7.400
 4092POPC   NC353423  44.507  35.495   5.342
 4092POPC   PO453424  44.905  34.938   5.442
 4092POPC   GL153425  44.960  35.161   5.815
 4092POPC   GL253426  44.581  35.189   5.796
 4092POPC   C1A53427  44.802  35.119   6.259
 4092POPC   D2A53428  44.451  35.209   6.578
 4092POPC   C3A53429  44.620  34.989   6.953
 4092POPC   C4A53430   0.036  35.124   7.095
 4092POPC   C1B53431  44.365  35.549   5.998
 4092POPC   C2B53432  44.221  35.799   6.357
 4092POPC   C3B53433  44.313  35.728   6.794
 4092POPC   C4B53434  44.400  35.411   7.100
 4093POPC   NC353435  18.847  12.685   5.455
 4093POPC   PO453436  19.482  12.939   5.469
 4093POPC   GL153437  19.157  12.958   5.802
 4093POPC   GL253438  18.787  12.957   5.874
 4093POPC   C1A53439  19.261  12.853   6.215
 4093POPC   D2A53440  19.459  12.936   6.600
 4093POPC   C3A53441  19.234  12.652   6.848
 4093POPC   C4A53442  19.070  12.710   7.215
 4093POPC   C1B53443  18.864  13.200   6.181
 4093POPC   C2B53444  18.937  13.032   6.570
 4093POPC   C3B53445  19.121  13.146   6.925
 4093POPC   C4B53446  18.880  13.217   7.219
 4094POPC   NC353447  32.557  17.594   5.368
 4094POPC   PO453448  32.080  17.135   5.226
 4094POPC   GL153449  32.222  17.297   5.650
 4094POPC   GL253450  32.318  17.634   5.806
 4094POPC   C1A53451  32.208  17.144   6.079
 4094POPC   D2A53452  32.460  17.143   6.447
 4094POPC   C3A53453  32.301  17.094   6.864
 4094POPC   C4A53454  32.506  17.107   7.247
 4094POPC   C1B53455  32.306  17.631   6.258
 4094POPC   C2B53456  32.304  17.586   6.711
 4094POPC   C3B53457  32.396  17.629   7.151
 4094POPC   C4B53458  32.200  17.931   7.387
 4095POPC   NC353459  18.661  17.351   5.493
 4095POPC   PO453460  19.276  17.476   5.205
 4095POPC   GL153461  19.142  17.384   5.676
 4095POPC   GL253462  18.863  17.575   5.904
 4095POPC   C1A53463  19.244  17.314   6.128
 4095POPC   D2A53464  19.097  17.625   6.437
 4095POPC   C3A53465  19.020  17.593   6.871
 4095POPC   C4A53466  19.344  17.614   7.133
 4095POPC   C1B53467  18.736  17.297   6.279
 4095POPC   C2B53468  19.046  17.132   6.597
 4095POPC   C3B53469  19.191  17.116   7.026
 4095POPC   C4B53470  18.928  17.298   7.341
 4096POPC   NC353471  36.453  17.504   5.646
 4096POPC   PO453472  37.044  17.312   5.392
 4096POPC   GL153473  36.953  17.612   5.795
 4096POPC   GL253474  36.674  17.804   6.003
 4096POPC   C1A53475  37.111  17.646   6.256
 4096POPC   D2A53476  37.320  17.316   6.528
 4096POPC   C3A53477  37.261  17.422   6.967
 4096POPC   C4A53478  37.130  17.369   7.387
 4096POPC   C1B53479  36.671  17.383   6.242
 4096POPC   C2B53480  36.832  17.376   6.645
 4096POPC   C3B53481  36.752  17.276   7.027
 4096POPC   C4B53482  36.766  17.632   7.150
 4097POPC   NC353483  29.051   1.671   5.274
 4097POPC   PO453484  29.221   2.329   5.372
 4097POPC   GL153485  29.050   2.025   5.666
 4097POPC   GL253486  29.303   1.792   5.686
 4097POPC   C1A53487  28.914   2.050   6.111
 4097POPC   D2A53488  29.050   2.158   6.538
 4097POPC   C3A53489  28.893   1.898   6.895
 4097POPC   C4A53490  29.094   1.873   7.321
 4097POPC   C1B53491  29.420   1.968   6.072
 4097POPC   C2B53492  29.560   2.017   6.500
 4097POPC   C3B53493  29.396   2.023   6.902
 4097POPC   C4B53494  29.476   2.216   7.300
 4098POPC   NC353495  30.850  14.644   5.279
 4098POPC   PO453496  31.191  15.181   5.444
 4098POPC   GL153497  31.011  14.981   5.848
 4098POPC   GL253498  30.626  14.911   5.823
 4098POPC   C1A53499  30.834  15.080   6.295
 4098POPC   D2A53500  30.759  15.366   6.685
 4098POPC   C3A53501  30.525  15.328   7.110
 4098POPC   C4A53502  30.580  15.350   7.576
 4098POPC   C1B53503  30.370  14.822   6.209
 4098POPC   C2B53504  30.478  14.913   6.647
 4098POPC   C3B53505  30.797  14.921   6.957
 4098POPC   C4B53506  30.626  14.882   7.369
 4099POPC   NC353507  22.919  33.966   5.394
 4099POPC   PO453508  22.966  33.318   5.294
 4099POPC   GL153509  23.066  33.575   5.712
 4099POPC   GL253510  23.155  33.925   5.831
 4099POPC   C1A53511  23.026  33.580   6.168
 4099POPC   D2A53512  23.105  33.330   6.523
 4099POPC   C3A53513  22.987  33.472   6.950
 4099POPC   C4A53514  23.107  33.783   7.247
 4099POPC   C1B53515  22.825  34.067   6.077
 4099POPC   C2B53516  22.822  34.203   6.496
 4099POPC   C3B53517  22.845  34.110   6.926
 4099POPC   C4B53518  22.895  34.260   7.353
 4100POPC   NC353519  11.285  27.208   5.228
 4100POPC   PO453520  11.381  26.655   5.328
 4100POPC   GL153521  11.464  26.550   5.779
 4100POPC   GL253522  11.116  26.545   5.821
 4100POPC   C1A53523  11.457  26.831   6.152
 4100POPC   D2A53524  11.115  26.937   6.469
 4100POPC   C3A53525  11.214  26.870   6.938
 4100POPC   C4A53526  11.582  26.944   7.193
 4100POPC   C1B53527  11.199  26.403   6.246
 4100POPC   C2B53528  11.457  26.580   6.589
 4100POPC   C3B53529  11.537  26.464   6.998
 4100POPC   C4B53530  11.205  26.439   7.309
 4101POPC   NC353531  25.737  17.906   5.391
 4101POPC   PO453532  26.184  17.512   5.335
 4101POPC   GL153533  26.005  17.663   5.782
 4101POPC   GL253534  25.877  18.004   5.888
 4101POPC   C1A53535  25.946  17.582   6.256
 4101POPC   D2A53536  25.824  17.299   6.625
 4101POPC   C3A53537  25.941  17.352   7.079
 4101POPC   C4A53538  25.742  17.167   7.424
 4101POPC   C1B53539  25.852  18.079   6.364
 4101POPC   C2B53540  25.940  17.783   6.746
 4101POPC   C3B53541  25.827  17.846   7.180
 4101POPC   C4B53542  25.961  18.114   7.531
 4102POPC   NC353543   7.329  34.017   5.537
 4102POPC   PO453544   7.156  33.383   5.440
 4102POPC   GL153545   7.384  33.588   5.785
 4102POPC   GL253546   7.747  33.668   5.673
 4102POPC   C1A53547   7.340  33.780   6.202
 4102POPC   D2A53548   7.170  33.827   6.582
 4102POPC   C3A53549   7.347  33.757   6.946
 4102POPC   C4A53550   7.135  33.637   7.291
 4102POPC   C1B53551   7.818  33.738   6.112
 4102POPC   C2B53552   7.740  33.747   6.558
 4102POPC   C3B53553   7.809  33.595   6.975
 4102POPC   C4B53554   7.614  33.479   7.360
 4103POPC   NC353555  41.478   6.079   5.259
 4103POPC   PO453556  42.056   5.935   5.220
 4103POPC   GL153557  41.841   5.997   5.685
 4103POPC   GL253558  41.510   6.166   5.756
 4103POPC   C1A53559  41.851   5.814   6.154
 4103POPC   D2A53560  41.752   5.648   6.595
 4103POPC   C3A53561  41.777   5.885   6.993
 4103POPC   C4A53562  41.683   5.981   7.435
 4103POPC   C1B53563  41.527   6.185   6.207
 4103POPC   C2B53564  41.491   6.121   6.639
 4103POPC   C3B53565  41.483   6.312   7.044
 4103POPC   C4B53566  41.279   6.304   7.459
 4104POPC   NC353567   6.545  38.939   4.951
 4104POPC   PO453568   6.503  39.506   5.218
 4104POPC   GL153569   6.656  39.306   5.664
 4104POPC   GL253570   6.926  39.012   5.693
 4104POPC   C1A53571   6.733  39.372   6.145
 4104POPC   D2A53572   6.893  39.292   6.596
 4104POPC   C3A53573   6.506  39.181   6.853
 4104POPC   C4A53574   6.377  39.462   7.196
 4104POPC   C1B53575   7.094  39.014   6.129
 4104POPC   C2B53576   7.240  38.867   6.532
 4104POPC   C3B53577   7.023  38.851   6.910
 4104POPC   C4B53578   6.872  39.177   7.194
 4105POPC   NC353579   8.612  22.650   5.250
 4105POPC   PO453580   8.726  23.267   5.468
 4105POPC   GL153581   9.091  23.093   5.670
 4105POPC   GL253582   8.911  22.799   5.751
 4105POPC   C1A53583   9.162  23.074   6.121
 4105POPC   D2A53584   8.816  23.068   6.425
 4105POPC   C3A53585   8.943  22.957   6.827
 4105POPC   C4A53586   8.755  22.966   7.208
 4105POPC   C1B53587   8.915  22.602   6.189
 4105POPC   C2B53588   8.687  22.540   6.590
 4105POPC   C3B53589   8.703  22.489   7.057
 4105POPC   C4B53590   9.140  22.487   7.238
 4106POPC   NC353591  13.232  31.451   5.395
 4106POPC   PO453592  12.625  31.653   5.470
 4106POPC   GL153593  12.645  31.346   5.819
 4106POPC   GL253594  13.023  31.286   5.859
 4106POPC   C1A53595  12.721  31.420   6.277
 4106POPC   D2A53596  12.661  31.694   6.641
 4106POPC   C3A53597  12.632  31.414   6.979
 4106POPC   C4A53598  12.968  31.336   7.270
 4106POPC   C1B53599  13.225  31.406   6.276
 4106POPC   C2B53600  13.173  31.683   6.641
 4106POPC   C3B53601  13.000  31.811   7.072
 4106POPC   C4B53602  13.236  31.746   7.478
 4107POPC   NC353603   6.191  42.509   5.616
 4107POPC   PO453604   6.709  42.270   5.278
 4107POPC   GL153605   6.780  42.527   5.694
 4107POPC   GL253606   6.540  42.727   5.930
 4107POPC   C1A53607   6.909  42.434   6.151
 4107POPC   D2A53608   6.739  42.401   6.563
 4107POPC   C3A53609   6.903  42.380   6.971
 4107POPC   C4A53610   6.650  42.158   7.230
 4107POPC   C1B53611   6.285  42.513   6.289
 4107POPC   C2B53612   6.283  42.503   6.769
 4107POPC   C3B53613   6.462  42.618   7.190
 4107POPC   C4B53614   6.429  42.418   7.622
 4108POPC   NC353615  22.638  33.095   5.528
 4108POPC   PO453616  23.242  32.804   5.602
 4108POPC   GL153617  22.887  32.800   5.886
 4108POPC   GL253618  22.941  33.127   5.940
 4108POPC   C1A53619  22.766  32.702   6.319
 4108POPC   D2A53620  23.031  32.609   6.659
 4108POPC   C3A53621  23.062  32.959   6.886
 4108POPC   C4A53622  22.859  33.038   7.253
 4108POPC   C1B53623  22.658  33.229   6.253
 4108POPC   C2B53624  22.656  33.172   6.664
 4108POPC   C3B53625  22.453  33.243   7.009
 4108POPC   C4B53626  22.633  33.498   7.338
 4109POPC   NC353627  32.204  11.601   5.480
 4109POPC   PO453628  32.385  10.907   5.517
 4109POPC   GL153629  32.349  11.161   5.890
 4109POPC   GL253630  32.029  11.275   5.833
 4109POPC   C1A53631  32.364  11.202   6.394
 4109POPC   D2A53632  32.574  11.566   6.614
 4109POPC   C3A53633  32.488  11.526   7.058
 4109POPC   C4A53634  32.315  11.211   7.348
 4109POPC   C1B53635  32.206  11.589   6.131
 4109POPC   C2B53636  32.061  11.626   6.554
 4109POPC   C3B53637  31.975  11.500   6.992
 4109POPC   C4B53638  32.091  11.683   7.379
 4110POPC   NC353639  37.560  23.141   5.377
 4110POPC   PO453640  37.214  22.484   5.499
 4110POPC   GL153641  37.328  22.761   5.820
 4110POPC   GL253642  37.669  22.927   5.847
 4110POPC   C1A53643  37.384  22.754   6.252
 4110POPC   D2A53644  37.675  22.898   6.558
 4110POPC   C3A53645  37.491  23.131   6.886
 4110POPC   C4A53646  37.500  22.881   7.227
 4110POPC   C1B53647  37.636  23.250   6.176
 4110POPC   C2B53648  37.830  23.401   6.579
 4110POPC   C3B53649  38.007  23.147   6.933
 4110POPC   C4B53650  37.992  23.097   7.393
 4111POPC   NC353651  43.537   4.526   5.573
 4111POPC   PO453652  43.998   4.151   5.447
 4111POPC   GL153653  43.903   4.273   5.833
 4111POPC   GL253654  43.616   4.077   5.887
 4111POPC   C1A53655  43.892   4.500   6.208
 4111POPC   D2A53656  43.811   4.659   6.602
 4111POPC   C3A53657  43.918   4.446   6.961
 4111POPC   C4A53658  43.750   4.433   7.366
 4111POPC   C1B53659  43.581   4.152   6.344
 4111POPC   C2B53660  43.469   4.287   6.751
 4111POPC   C3B53661  43.476   4.063   7.144
 4111POPC   C4B53662  43.772   3.946   7.481
 4112POPC   NC353663  12.769  40.359   5.493
 4112POPC   PO453664  13.123  39.713   5.530
 4112POPC   GL153665  12.804  39.821   5.866
 4112POPC   GL253666  12.755  40.156   5.938
 4112POPC   C1A53667  12.732  39.879   6.340
 4112POPC   D2A53668  12.969  40.035   6.665
 4112POPC   C3A53669  12.986  39.847   7.069
 4112POPC   C4A53670  12.616  39.990   7.262
 4112POPC   C1B53671  12.984  40.346   6.253
 4112POPC   C2B53672  12.983  40.541   6.661
 4112POPC   C3B53673  12.931  40.376   7.066
 4112POPC   C4B53674  13.027  40.276   7.498
 4113POPC   NC353675  34.242  13.783   5.218
 4113POPC   PO453676  33.831  13.225   5.373
 4113POPC   GL153677  33.833  13.515   5.729
 4113POPC   GL253678  34.058  13.367   5.896
 4113POPC   C1A53679  33.691  13.726   6.139
 4113POPC   D2A53680  33.649  13.561   6.571
 4113POPC   C3A53681  33.788  13.728   6.984
 4113POPC   C4A53682  33.809  13.987   7.364
 4113POPC   C1B53683  34.204  13.333   6.267
 4113POPC   C2B53684  34.034  13.177   6.616
 4113POPC   C3B53685  34.142  13.242   7.019
 4113POPC   C4B53686  33.981  13.156   7.407
 4114POPC   NC353687  25.973   9.512   5.345
 4114POPC   PO453688  26.292   9.951   5.668
 4114POPC   GL153689  26.069   9.664   5.900
 4114POPC   GL253690  25.740   9.512   5.792
 4114POPC   C1A53691  26.104   9.673   6.334
 4114POPC   D2A53692  26.226   9.612   6.738
 4114POPC   C3A53693  26.234   9.984   6.944
 4114POPC   C4A53694  26.076   9.970   7.321
 4114POPC   C1B53695  25.767   9.320   6.186
 4114POPC   C2B53696  25.659   9.499   6.565
 4114POPC   C3B53697  25.717   9.575   6.971
 4114POPC   C4B53698  25.696   9.204   7.226
 4115POPC   NC353699  43.686  38.087   5.625
 4115POPC   PO453700  44.087  38.619   5.393
 4115POPC   GL153701  44.035  38.484   5.825
 4115POPC   GL253702  44.138  38.128   5.908
 4115POPC   C1A53703  43.860  38.579   6.240
 4115POPC   D2A53704  43.668  38.847   6.568
 4115POPC   C3A53705  43.756  38.596   6.913
 4115POPC   C4A53706  43.919  38.624   7.288
 4115POPC   C1B53707  44.325  38.109   6.324
 4115POPC   C2B53708  44.276  38.259   6.763
 4115POPC   C3B53709  44.088  38.183   7.159
 4115POPC   C4B53710  43.645  38.153   7.280
 4116POPC   NC353711   8.194   4.609   5.436
 4116POPC   PO453712   8.089   3.985   5.290
 4116POPC   GL153713   8.094   3.956   5.755
 4116POPC   GL253714   8.421   4.087   5.816
 4116POPC   C1A53715   7.961   4.125   6.205
 4116POPC   D2A53716   8.038   4.497   6.512
 4116POPC   C3A53717   8.048   4.456   6.976
 4116POPC   C4A53718   8.257   4.213   7.316
 4116POPC   C1B53719   8.463   4.287   6.256
 4116POPC   C2B53720   8.529   4.268   6.727
 4116POPC   C3B53721   8.687   4.482   7.107
 4116POPC   C4B53722   8.626   4.591   7.562
 4117POPC   NC353723  11.736  12.581   5.329
 4117POPC   PO453724  11.358  13.119   5.451
 4117POPC   GL153725  11.438  12.983   5.836
 4117POPC   GL253726  11.372  12.672   5.708
 4117POPC   C1A53727  11.287  12.982   6.235
 4117POPC   D2A53728  11.032  12.969   6.591
 4117POPC   C3A53729  11.212  12.788   6.936
 4117POPC   C4A53730  11.244  12.811   7.371
 4117POPC   C1B53731  11.110  12.533   6.048
 4117POPC   C2B53732  11.186  12.508   6.480
 4117POPC   C3B53733  10.971  12.337   6.819
 4117POPC   C4B53734  11.081  12.352   7.237
 4118POPC   NC353735  35.173  44.171   5.080
 4118POPC   PO453736  35.036  44.728   5.427
 4118POPC   GL153737  35.120  44.573   5.825
 4118POPC   GL253738  35.285  44.886   5.898
 4118POPC   C1A53739  35.346  44.501   6.252
 4118POPC   D2A53740  35.368  44.251   6.659
 4118POPC   C3A53741  35.277  44.406   7.078
 4118POPC   C4A53742  35.421  44.484   7.503
 4118POPC   C1B53743  35.500  44.989   6.306
 4118POPC   C2B53744  35.514  44.757   6.719
 4118POPC   C3B53745  35.560  44.860   7.179
 4118POPC   C4B53746  35.343  44.985   7.554
 4119POPC   NC353747  40.098  33.177   5.441
 4119POPC   PO453748  39.652  32.708   5.273
 4119POPC   GL153749  39.603  32.846   5.721
 4119POPC   GL253750  39.628  33.205   5.713
 4119POPC   C1A53751  39.816  32.750   6.145
 4119POPC   D2A53752  40.196  32.875   6.424
 4119POPC   C3A53753  40.154  33.033   6.891
 4119POPC   C4A53754  39.895  32.853   7.240
 4119POPC   C1B53755  39.876  33.257   6.078
 4119POPC   C2B53756  39.879  33.272   6.514
 4119POPC   C3B53757  39.686  33.236   6.908
 4119POPC   C4B53758  39.833  33.375   7.283
 4120POPC   NC353759   4.241  39.065   5.321
 4120POPC   PO453760   4.733  39.558   5.431
 4120POPC   GL153761   4.459  39.273   5.770
 4120POPC   GL253762   4.327  38.897   5.794
 4120POPC   C1A53763   4.371  39.450   6.204
 4120POPC   D2A53764   4.128  39.380   6.578
 4120POPC   C3A53765   4.358  39.308   6.973
 4120POPC   C4A53766   4.233  39.326   7.436
 4120POPC   C1B53767   4.281  38.942   6.243
 4120POPC   C2B53768   4.228  38.892   6.671
 4120POPC   C3B53769   4.011  38.958   7.051
 4120POPC   C4B53770   4.335  38.846   7.287
 4121POPC   NC353771  27.500   1.354   5.057
 4121POPC   PO453772  27.619   0.852   5.339
 4121POPC   GL153773  27.515   1.201   5.645
 4121POPC   GL253774  27.791   1.287   5.786
 4121POPC   C1A53775  27.378   1.272   6.108
 4121POPC   D2A53776  27.243   1.524   6.480
 4121POPC   C3A53777  27.438   1.449   6.873
 4121POPC   C4A53778  27.363   1.143   7.176
 4121POPC   C1B53779  27.906   1.123   6.204
 4121POPC   C2B53780  28.198   1.281   6.533
 4121POPC   C3B53781  28.145   1.152   6.953
 4121POPC   C4B53782  27.844   1.293   7.220
 4122POPC   NC353783   9.100  37.763   5.645
 4122POPC   PO453784   8.551  37.423   5.338
 4122POPC   GL153785   8.597  37.609   5.767
 4122POPC   GL253786   8.843  37.369   5.840
 4122POPC   C1A53787   8.730  37.601   6.262
 4122POPC   D2A53788   8.677  37.776   6.693
 4122POPC   C3A53789   8.968  37.910   7.018
 4122POPC   C4A53790   8.761  38.010   7.408
 4122POPC   C1B53791   9.213  37.364   6.185
 4122POPC   C2B53792   9.151  37.538   6.612
 4122POPC   C3B53793   9.130  37.431   7.043
 4122POPC   C4B53794   9.368  37.428   7.411
 4123POPC   NC353795   5.555  42.083   5.372
 4123POPC   PO453796   5.886  42.666   5.286
 4123POPC   GL153797   5.574  42.560   5.643
 4123POPC   GL253798   5.690  42.280   5.815
 4123POPC   C1A53799   5.638  42.645   6.134
 4123POPC   D2A53800   5.575  42.545   6.593
 4123POPC   C3A53801   5.824  42.642   6.993
 4123POPC   C4A53802   6.074  42.305   7.216
 4123POPC   C1B53803   5.668  42.125   6.243
 4123POPC   C2B53804   5.672  42.039   6.694
 4123POPC   C3B53805   5.473  42.189   7.075
 4123POPC   C4B53806   5.652  42.264   7.489
 4124POPC   NC353807   7.842  22.550   5.103
 4124POPC   PO453808   8.303  22.361   5.508
 4124POPC   GL153809   8.183  22.223   5.900
 4124POPC   GL253810   8.173  21.881   5.742
 4124POPC   C1A53811   8.219  22.431   6.345
 4124POPC   D2A53812   8.238  22.425   6.825
 4124POPC   C3A53813   7.984  22.384   7.213
 4124POPC   C4A53814   8.022  22.354   7.673
 4124POPC   C1B53815   8.201  21.788   6.174
 4124POPC   C2B53816   8.176  21.962   6.557
 4124POPC   C3B53817   8.032  21.946   6.968
 4124POPC   C4B53818   7.923  21.915   7.419
 4125POPC   NC353819  44.908  22.412   5.406
 4125POPC   PO453820  44.391  21.944   5.436
 4125POPC   GL153821  44.519  22.137   5.798
 4125POPC   GL253822  44.438  22.474   5.798
 4125POPC   C1A53823  44.574  22.056   6.248
 4125POPC   D2A53824  44.931  22.097   6.544
 4125POPC   C3A53825  44.865  21.921   6.945
 4125POPC   C4A53826  44.656  22.056   7.302
 4125POPC   C1B53827  44.663  22.533   6.137
 4125POPC   C2B53828  44.476  22.454   6.545
 4125POPC   C3B53829  44.701  22.415   6.907
 4125POPC   C4B53830  44.667  22.585   7.297
 4126POPC   NC353831   5.782  41.394   5.493
 4126POPC   PO453832   6.055  42.048   5.542
 4126POPC   GL153833   5.888  41.767   5.855
 4126POPC   GL253834   5.549  41.791   5.832
 4126POPC   C1A53835   5.752  41.607   6.268
 4126POPC   D2A53836   5.728  41.310   6.591
 4126POPC   C3A53837   5.954  41.437   6.962
 4126POPC   C4A53838   5.907  41.815   7.211
 4126POPC   C1B53839   5.266  41.796   6.169
 4126POPC   C2B53840   5.323  41.681   6.577
 4126POPC   C3B53841   5.458  41.662   6.994
 4126POPC   C4B53842   5.453  41.779   7.440
 4127POPC   NC353843  21.781  19.781   5.510
 4127POPC   PO453844  21.099  19.645   5.402
 4127POPC   GL153845  21.306  19.848   5.734
 4127POPC   GL253846  21.399  19.551   5.852
 4127POPC   C1A53847  21.466  19.946   6.165
 4127POPC   D2A53848  21.482  20.082   6.592
 4127POPC   C3A53849  21.541  19.845   6.956
 4127POPC   C4A53850  21.356  20.043   7.310
 4127POPC   C1B53851  21.769  19.521   6.127
 4127POPC   C2B53852  21.856  19.613   6.562
 4127POPC   C3B53853  21.759  19.350   6.924
 4127POPC   C4B53854  21.479  19.432   7.297
 4128POPC   NC353855  28.867  27.313   5.531
 4128POPC   PO453856  29.266  27.782   5.284
 4128POPC   GL153857  29.271  27.841   5.738
 4128POPC   GL253858  29.200  27.523   5.850
 4128POPC   C1A53859  29.069  27.921   6.147
 4128POPC   D2A53860  29.138  27.667   6.532
 4128POPC   C3A53861  29.158  27.846   6.952
 4128POPC   C4A53862  29.000  27.706   7.336
 4128POPC   C1B53863  29.170  27.224   6.175
 4128POPC   C2B53864  29.454  27.232   6.508
 4128POPC   C3B53865  29.440  27.407   6.910
 4128POPC   C4B53866  29.203  27.241   7.226
 4129POPC   NC353867  20.775   2.749   5.397
 4129POPC   PO453868  20.122   2.676   5.348
 4129POPC   GL153869  20.415   2.600   5.759
 4129POPC   GL253870  20.696   2.340   5.841
 4129POPC   C1A53871  20.652   2.770   6.143
 4129POPC   D2A53872  20.864   2.812   6.556
 4129POPC   C3A53873  20.725   2.801   6.976
 4129POPC   C4A53874  20.393   3.027   7.190
 4129POPC   C1B53875  20.434   2.294   6.242
 4129POPC   C2B53876  20.305   2.203   6.674
 4129POPC   C3B53877  20.486   2.361   7.070
 4129POPC   C4B53878  20.382   2.399   7.538
 4130POPC   NC353879  33.123   5.020   5.417
 4130POPC   PO453880  32.693   5.552   5.349
 4130POPC   GL153881  32.777   5.306   5.731
 4130POPC   GL253882  33.111   5.353   5.805
 4130POPC   C1A53883  32.830   5.071   6.133
 4130POPC   D2A53884  32.728   5.154   6.568
 4130POPC   C3A53885  32.905   5.178   6.992
 4130POPC   C4A53886  32.629   5.395   7.241
 4130POPC   C1B53887  33.350   5.217   6.153
 4130POPC   C2B53888  33.258   4.955   6.497
 4130POPC   C3B53889  33.376   5.010   6.891
 4130POPC   C4B53890  33.362   5.141   7.310
 4131POPC   NC353891   0.339   3.818   5.450
 4131POPC   PO453892   0.224   3.098   5.481
 4131POPC   GL153893   0.383   3.408   5.788
 4131POPC   GL253894   0.477   3.146   6.019
 4131POPC   C1A53895   0.472   3.617   6.192
 4131POPC   D2A53896   0.444   3.521   6.653
 4131POPC   C3A53897   0.804   3.565   6.973
 4131POPC   C4A53898   0.734   3.775   7.382
 4131POPC   C1B53899   0.105   3.321   6.300
 4131POPC   C2B53900  44.863   3.514   6.607
 4131POPC   C3B53901   0.067   3.331   6.945
 4131POPC   C4B53902   0.353   3.532   7.168
 4132POPC   NC353903  25.155  25.272   5.280
 4132POPC   PO453904  25.775  25.184   5.395
 4132POPC   GL153905  25.440  25.314   5.737
 4132POPC   GL253906  25.084  25.135   5.772
 4132POPC   C1A53907  25.462  25.297   6.209
 4132POPC   D2A53908  25.665  25.302   6.641
 4132POPC   C3A53909  25.497  25.400   7.070
 4132POPC   C4A53910  25.196  25.504   7.413
 4132POPC   C1B53911  24.940  25.038   6.200
 4132POPC   C2B53912  25.136  25.210   6.593
 4132POPC   C3B53913  24.982  25.357   6.975
 4132POPC   C4B53914  24.826  25.144   7.333
 4133POPC   NC353915  42.451  11.991   5.288
 4133POPC   PO453916  41.793  12.097   5.427
 4133POPC   GL153917  42.092  11.884   5.761
 4133POPC   GL253918  42.441  12.015   5.801
 4133POPC   C1A53919  42.214  11.935   6.243
 4133POPC   D2A53920  42.252  12.229   6.636
 4133POPC   C3A53921  42.236  12.061   7.094
 4133POPC   C4A53922  42.072  12.254   7.550
 4133POPC   C1B53923  42.536  12.342   6.170
 4133POPC   C2B53924  42.728  12.406   6.603
 4133POPC   C3B53925  42.699  12.377   7.072
 4133POPC   C4B53926  42.747  12.205   7.516
 4134POPC   NC353927  14.331   4.095   5.296
 4134POPC   PO453928  14.125   4.559   5.643
 4134POPC   GL153929  14.483   4.320   5.866
 4134POPC   GL253930  14.724   4.066   5.722
 4134POPC   C1A53931  14.519   4.426   6.292
 4134POPC   D2A53932  14.212   4.558   6.582
 4134POPC   C3A53933  14.214   4.487   6.985
 4134POPC   C4A53934  13.966   4.219   7.186
 4134POPC   C1B53935  14.901   4.109   6.188
 4134POPC   C2B53936  14.901   4.299   6.636
 4134POPC   C3B53937  14.698   4.318   7.069
 4134POPC   C4B53938  14.701   4.094   7.461
 4135POPC   NC353939  24.774  28.554   5.482
 4135POPC   PO453940  24.487  28.024   5.681
 4135POPC   GL153941  24.584  28.427   5.946
 4135POPC   GL253942  24.371  28.685   5.799
 4135POPC   C1A53943  24.623  28.567   6.402
 4135POPC   D2A53944  24.795  28.489   6.811
 4135POPC   C3A53945  24.546  28.190   7.028
 4135POPC   C4A53946  24.233  28.246   7.341
 4135POPC   C1B53947  24.218  28.814   6.203
 4135POPC   C2B53948  24.137  28.671   6.643
 4135POPC   C3B53949  24.338  28.712   7.049
 4135POPC   C4B53950  24.158  28.728   7.513
 4136POPC   NC353951   3.013  30.539   5.462
 4136POPC   PO453952   2.458  30.333   5.589
 4136POPC   GL153953   2.698  30.698   5.846
 4136POPC   GL253954   2.935  30.969   5.848
 4136POPC   C1A53955   2.787  30.851   6.298
 4136POPC   D2A53956   2.924  30.607   6.579
 4136POPC   C3A53957   2.735  30.538   6.921
 4136POPC   C4A53958   2.811  30.356   7.286
 4136POPC   C1B53959   2.552  31.211   6.038
 4136POPC   C2B53960   2.462  31.239   6.514
 4136POPC   C3B53961   2.753  31.071   6.872
 4136POPC   C4B53962   2.865  30.881   7.300
 4137POPC   NC353963   5.516  28.046   5.407
 4137POPC   PO453964   4.753  28.293   5.317
 4137POPC   GL153965   4.941  28.263   5.736
 4137POPC   GL253966   5.065  27.955   5.680
 4137POPC   C1A53967   5.012  28.343   6.202
 4137POPC   D2A53968   5.296  28.501   6.509
 4137POPC   C3A53969   5.158  28.750   6.854
 4137POPC   C4A53970   5.197  28.606   7.260
 4137POPC   C1B53971   5.296  27.953   6.064
 4137POPC   C2B53972   5.273  27.963   6.517
 4137POPC   C3B53973   5.268  28.186   6.930
 4137POPC   C4B53974   5.459  28.167   7.336
 4138POPC   NC353975  33.844  43.564   5.270
 4138POPC   PO453976  33.420  44.121   5.249
 4138POPC   GL153977  33.678  44.063   5.662
 4138POPC   GL253978  33.838  43.748   5.743
 4138POPC   C1A53979  33.695  44.097   6.125
 4138POPC   D2A53980  33.870  43.953   6.523
 4138POPC   C3A53981  33.749  44.035   6.964
 4138POPC   C4A53982  34.153  44.042   7.172
 4138POPC   C1B53983  33.928  43.601   6.149
 4138POPC   C2B53984  33.835  43.391   6.494
 4138POPC   C3B53985  33.882  43.554   6.851
 4138POPC   C4B53986  33.833  43.488   7.208
 4139POPC   NC353987  31.922  21.876   5.432
 4139POPC   PO453988  32.410  22.416   5.359
 4139POPC   GL153989  32.149  22.282   5.705
 4139POPC   GL253990  32.338  22.019   5.785
 4139POPC   C1A53991  32.218  22.351   6.172
 4139POPC   D2A53992  32.105  22.141   6.566
 4139POPC   C3A53993  32.254  22.260   6.947
 4139POPC   C4A53994  32.519  22.071   7.227
 4139POPC   C1B53995  32.227  21.820   6.200
 4139POPC   C2B53996  31.953  21.640   6.559
 4139POPC   C3B53997  31.796  21.771   6.999
 4139POPC   C4B53998  31.989  21.818   7.441
 4140POPC   NC353999  31.210  35.695   5.367
 4140POPC   PO454000  31.788  35.257   5.392
 4140POPC   GL154001  31.563  35.278   5.778
 4140POPC   GL254002  31.391  35.591   5.835
 4140POPC   C1A54003  31.662  35.317   6.225
 4140POPC   D2A54004  31.520  35.117   6.618
 4140POPC   C3A54005  31.435  35.414   6.919
 4140POPC   C4A54006  31.671  35.588   7.243
 4140POPC   C1B54007  31.251  35.767   6.230
 4140POPC   C2B54008  31.214  35.801   6.671
 4140POPC   C3B54009  31.209  35.829   7.119
 4140POPC   C4B54010  30.896  35.704   7.432
 4141POPC   NC354011  15.875  21.165   5.366
 4141POPC   PO454012  15.516  21.652   5.195
 4141POPC   GL154013  15.658  21.493   5.715
 4141POPC   GL254014  15.805  21.140   5.872
 4141POPC   C1A54015  15.655  21.491   6.207
 4141POPC   D2A54016  15.987  21.401   6.550
 4141POPC   C3A54017  15.907  21.122   6.926
 4141POPC   C4A54018  15.864  21.415   7.269
 4141POPC   C1B54019  16.021  20.975   6.273
 4141POPC   C2B54020  16.331  21.015   6.661
 4141POPC   C3B54021  16.359  21.260   7.083
 4141POPC   C4B54022  16.209  21.172   7.548
 4142POPC   NC354023  32.485  22.034   5.119
 4142POPC   PO454024  33.112  22.096   5.331
 4142POPC   GL154025  32.882  22.266   5.694
 4142POPC   GL254026  32.833  21.967   5.911
 4142POPC   C1A54027  33.102  22.353   6.104
 4142POPC   D2A54028  33.129  22.107   6.506
 4142POPC   C3A54029  32.986  22.179   6.936
 4142POPC   C4A54030  33.228  22.199   7.272
 4142POPC   C1B54031  32.657  22.116   6.275
 4142POPC   C2B54032  32.615  21.968   6.668
 4142POPC   C3B54033  32.800  21.688   7.001
 4142POPC   C4B54034  32.895  21.763   7.430
 4143POPC   NC354035  21.239  11.710   5.429
 4143POPC   PO454036  20.720  12.064   5.469
 4143POPC   GL154037  20.707  12.231   5.850
 4143POPC   GL254038  20.368  12.354   5.829
 4143POPC   C1A54039  20.730  12.031   6.231
 4143POPC   D2A54040  20.512  11.995   6.608
 4143POPC   C3A54041  20.775  11.975   6.949
 4143POPC   C4A54042  20.737  12.165   7.364
 4143POPC   C1B54043  20.474  12.462   6.255
 4143POPC   C2B54044  20.389  12.498   6.681
 4143POPC   C3B54045  20.326  12.244   7.060
 4143POPC   C4B54046  20.245  12.143   7.536
 4144POPC   NC354047  14.800  21.331   5.685
 4144POPC   PO454048  14.159  21.527   5.517
 4144POPC   GL154049  14.321  21.193   5.819
 4144POPC   GL254050  14.076  20.977   5.967
 4144POPC   C1A54051  14.515  21.237   6.260
 4144POPC   D2A54052  14.679  21.506   6.622
 4144POPC   C3A54053  14.496  21.330   7.008
 4144POPC   C4A54054  14.537  21.116   7.449
 4144POPC   C1B54055  14.030  21.404   6.195
 4144POPC   C2B54056  14.166  21.528   6.621
 4144POPC   C3B54057  14.020  21.558   7.041
 4144POPC   C4B54058  14.192  21.493   7.450
 4145POPC   NC354059  10.988   4.118   5.437
 4145POPC   PO454060  10.509   4.562   5.275
 4145POPC   GL154061  10.392   4.543   5.686
 4145POPC   GL254062  10.657   4.343   5.770
 4145POPC   C1A54063  10.223   4.629   6.108
 4145POPC   D2A54064  10.060   4.383   6.456
 4145POPC   C3A54065  10.150   4.532   6.863
 4145POPC   C4A54066  10.222   4.410   7.265
 4145POPC   C1B54067  10.597   4.288   6.203
 4145POPC   C2B54068  10.595   4.433   6.604
 4145POPC   C3B54069  10.533   4.180   6.940
 4145POPC   C4B54070  10.713   4.215   7.315
 4146POPC   NC354071  27.796  28.962   5.201
 4146POPC   PO454072  27.272  29.498   5.420
 4146POPC   GL154073  27.369  29.308   5.791
 4146POPC   GL254074  27.058  29.160   5.884
 4146POPC   C1A54075  27.686  29.277   6.119
 4146POPC   D2A54076  27.839  29.343   6.542
 4146POPC   C3A54077  27.622  29.305   6.957
 4146POPC   C4A54078  27.830  29.176   7.408
 4146POPC   C1B54079  27.253  28.891   6.171
 4146POPC   C2B54080  27.587  28.890   6.457
 4146POPC   C3B54081  27.627  28.796   6.851
 4146POPC   C4B54082  27.455  28.909   7.213
 4147POPC   NC354083  29.501   8.492   5.444
 4147POPC   PO454084  30.167   8.752   5.469
 4147POPC   GL154085  29.889   8.699   5.798
 4147POPC   GL254086  29.553   8.830   5.833
 4147POPC   C1A54087  29.791   8.643   6.233
 4147POPC   D2A54088  29.731   8.504   6.630
 4147POPC   C3A54089  29.803   8.850   6.910
 4147POPC   C4A54090  30.042   9.132   7.085
 4147POPC   C1B54091  29.801   9.139   6.086
 4147POPC   C2B54092  29.987   9.257   6.497
 4147POPC   C3B54093  29.732   9.423   6.807
 4147POPC   C4B54094  29.556   9.456   7.187
 4148POPC   NC354095  10.934  13.780   5.486
 4148POPC   PO454096  10.473  13.345   5.315
 4148POPC   GL154097  10.648  13.388   5.717
 4148POPC   GL254098  10.437  13.118   5.832
 4148POPC   C1A54099  10.603  13.670   6.090
 4148POPC   D2A54100  10.373  13.724   6.483
 4148POPC   C3A54101  10.640  13.809   6.847
 4148POPC   C4A54102  10.742  13.649   7.257
 4148POPC   C1B54103  10.345  13.171   6.261
 4148POPC   C2B54104  10.144  13.266   6.635
 4148POPC   C3B54105  10.339  13.401   6.986
 4148POPC   C4B54106  10.518  13.146   7.254
 4149POPC   NC354107  13.686   9.431   5.319
 4149POPC   PO454108  13.337  10.045   5.371
 4149POPC   GL154109  13.560   9.772   5.680
 4149POPC   GL254110  13.410   9.439   5.749
 4149POPC   C1A54111  13.729   9.645   6.082
 4149POPC   D2A54112  13.564   9.772   6.468
 4149POPC   C3A54113  13.697   9.664   6.848
 4149POPC   C4A54114  13.565   9.773   7.219
 4149POPC   C1B54115  13.309   9.350   6.195
 4149POPC   C2B54116  13.228   9.335   6.634
 4149POPC   C3B54117  13.300   9.369   7.032
 4149POPC   C4B54118  13.099   9.480   7.373
 4150POPC   NC354119  35.942  42.122   5.371
 4150POPC   PO454120  36.114  42.760   5.494
 4150POPC   GL154121  36.325  42.577   5.832
 4150POPC   GL254122  36.016  42.681   6.014
 4150POPC   C1A54123  36.371  42.304   6.239
 4150POPC   D2A54124  36.312  42.192   6.699
 4150POPC   C3A54125  36.199  42.550   6.964
 4150POPC   C4A54126  35.966  42.601   7.391
 4150POPC   C1B54127  35.844  42.293   6.186
 4150POPC   C2B54128  35.714  42.099   6.573
 4150POPC   C3B54129  35.840  42.178   6.976
 4150POPC   C4B54130  35.816  41.977   7.356
 4151POPC   NC354131  31.939   3.901   5.500
 4151POPC   PO454132  32.380   3.294   5.362
 4151POPC   GL154133  32.160   3.483   5.712
 4151POPC   GL254134  32.309   3.818   5.846
 4151POPC   C1A54135  32.171   3.326   6.139
 4151POPC   D2A54136  32.466   3.322   6.488
 4151POPC   C3A54137  32.259   3.465   6.841
 4151POPC   C4A54138  32.188   3.323   7.229
 4151POPC   C1B54139  32.023   3.867   6.218
 4151POPC   C2B54140  31.909   3.982   6.669
 4151POPC   C3B54141  31.939   3.820   7.112
 4151POPC   C4B54142  31.934   3.626   7.541
 4152POPC   NC354143  20.255   5.186   5.290
 4152POPC   PO454144  19.761   4.766   5.520
 4152POPC   GL154145  19.792   4.916   5.902
 4152POPC   GL254146  20.102   4.745   6.002
 4152POPC   C1A54147  19.688   5.132   6.281
 4152POPC   D2A54148  19.696   5.348   6.664
 4152POPC   C3A54149  19.581   5.136   7.046
 4152POPC   C4A54150  19.727   5.005   7.482
 4152POPC   C1B54151  20.172   5.168   6.127
 4152POPC   C2B54152  20.193   5.365   6.529
 4152POPC   C3B54153  20.112   5.200   6.947
 4152POPC   C4B54154  20.225   5.111   7.336
 4153POPC   NC354155  28.421  37.081   5.234
 4153POPC   PO454156  28.916  37.100   5.647
 4153POPC   GL154157  28.476  36.934   5.803
 4153POPC   GL254158  28.288  37.214   5.779
 4153POPC   C1A54159  28.227  36.843   6.214
 4153POPC   D2A54160  27.989  36.819   6.633
 4153POPC   C3A54161  28.197  36.891   7.046
 4153POPC   C4A54162  28.458  36.972   7.404
 4153POPC   C1B54163  28.481  37.288   6.213
 4153POPC   C2B54164  28.404  37.176   6.661
 4153POPC   C3B54165  28.415  37.370   7.094
 4153POPC   C4B54166  28.239  37.432   7.528
 4154POPC   NC354167  40.194  14.751   5.584
 4154POPC   PO454168  39.648  14.372   5.454
 4154POPC   GL154169  39.959  14.221   5.740
 4154POPC   GL254170  39.849  14.511   5.942
 4154POPC   C1A54171  40.050  14.101   6.186
 4154POPC   D2A54172  39.947  14.435   6.489
 4154POPC   C3A54173  40.265  14.498   6.812
 4154POPC   C4A54174  40.224  14.623   7.258
 4154POPC   C1B54175  39.557  14.152   6.082
 4154POPC   C2B54176  39.599  14.036   6.515
 4154POPC   C3B54177  39.969  13.982   6.752
 4154POPC   C4B54178  40.183  14.111   7.148
 4155POPC   NC354179  11.486   9.178   5.290
 4155POPC   PO454180  10.887   8.810   5.302
 4155POPC   GL154181  11.073   9.087   5.630
 4155POPC   GL254182  11.396   8.911   5.724
 4155POPC   C1A54183  11.057   9.116   6.098
 4155POPC   D2A54184  11.081   8.900   6.529
 4155POPC   C3A54185  11.159   9.169   6.914
 4155POPC   C4A54186  10.907   9.249   7.295
 4155POPC   C1B54187  11.473   8.823   6.161
 4155POPC   C2B54188  11.590   8.811   6.595
 4155POPC   C3B54189  11.336   8.679   6.948
 4155POPC   C4B54190  11.265   8.895   7.360
 4156POPC   NC354191  12.232  25.796   5.436
 4156POPC   PO454192  11.774  26.258   5.510
 4156POPC   GL154193  12.010  26.057   5.855
 4156POPC   GL254194  12.321  26.223   5.758
 4156POPC   C1A54195  12.056  25.802   6.267
 4156POPC   D2A54196  11.837  25.875   6.674
 4156POPC   C3A54197  11.943  26.136   7.021
 4156POPC   C4A54198  12.253  25.938   7.146
 4156POPC   C1B54199  12.431  26.141   6.194
 4156POPC   C2B54200  12.316  26.122   6.626
 4156POPC   C3B54201  12.448  26.377   6.945
 4156POPC   C4B54202  12.319  26.415   7.362
 4157POPC   NC354203   3.732  21.491   5.360
 4157POPC   PO454204   3.336  20.947   5.364
 4157POPC   GL154205   3.616  21.144   5.696
 4157POPC   GL254206   3.414  21.456   5.758
 4157POPC   C1A54207   3.870  21.252   6.074
 4157POPC   D2A54208   3.687  21.355   6.489
 4157POPC   C3A54209   3.834  21.219   6.880
 4157POPC   C4A54210   3.798  21.388   7.267
 4157POPC   C1B54211   3.309  21.697   6.134
 4157POPC   C2B54212   3.304  21.818   6.556
 4157POPC   C3B54213   3.477  21.635   6.927
 4157POPC   C4B54214   3.427  21.771   7.330
 4158POPC   NC354215  42.614  38.406   5.520
 4158POPC   PO454216  42.117  38.807   5.264
 4158POPC   GL154217  42.213  38.693   5.683
 4158POPC   GL254218  42.140  38.336   5.746
 4158POPC   C1A54219  42.427  38.682   6.100
 4158POPC   D2A54220  42.184  38.746   6.490
 4158POPC   C3A54221  42.347  38.700   6.901
 4158POPC   C4A54222  42.701  38.573   7.132
 4158POPC   C1B54223  42.107  38.311   6.223
 4158POPC   C2B54224  42.347  38.245   6.650
 4158POPC   C3B54225  42.350  38.181   7.143
 4158POPC   C4B54226  42.093  38.226   7.583
 4159POPC   NC354227   1.851   1.804   5.425
 4159POPC   PO454228   2.534   1.800   5.474
 4159POPC   GL154229   2.227   2.035   5.760
 4159POPC   GL254230   1.873   1.922   5.918
 4159POPC   C1A54231   2.174   2.215   6.186
 4159POPC   D2A54232   1.820   2.082   6.442
 4159POPC   C3A54233   1.795   2.194   6.858
 4159POPC   C4A54234   1.795   2.135   7.295
 4159POPC   C1B54235   2.165   1.709   6.223
 4159POPC   C2B54236   2.034   1.665   6.651
 4159POPC   C3B54237   1.862   1.671   7.065
 4159POPC   C4B54238   2.223   1.521   7.334
 4160POPC   NC354239  23.565   5.270   5.091
 4160POPC   PO454240  22.906   5.127   5.342
 4160POPC   GL154241  22.955   5.034   5.789
 4160POPC   GL254242  22.672   4.806   5.778
 4160POPC   C1A54243  23.010   5.228   6.228
 4160POPC   D2A54244  23.225   5.013   6.588
 4160POPC   C3A54245  23.132   5.138   6.998
 4160POPC   C4A54246  23.132   5.361   7.351
 4160POPC   C1B54247  22.532   5.021   6.154
 4160POPC   C2B54248  22.684   4.966   6.547
 4160POPC   C3B54249  22.610   5.063   6.936
 4160POPC   C4B54250  22.701   5.083   7.319
 4161POPC   NC354251  23.253  44.131   5.372
 4161POPC   PO454252  22.708  43.630   5.421
 4161POPC   GL154253  23.008  43.740   5.710
 4161POPC   GL254254  22.871  44.081   5.732
 4161POPC   C1A54255  23.256  43.652   6.095
 4161POPC   D2A54256  23.338  43.842   6.513
 4161POPC   C3A54257  23.055  43.697   6.835
 4161POPC   C4A54258  23.091  43.573   7.222
 4161POPC   C1B54259  22.827  43.952   6.156
 4161POPC   C2B54260  22.913  44.124   6.546
 4161POPC   C3B54261  23.009  44.182   6.976
 4161POPC   C4B54262  22.673  43.949   7.180
 4162POPC   NC354263  34.177  26.995   4.924
 4162POPC   PO454264  33.797  26.766   5.450
 4162POPC   GL154265  33.695  26.875   5.849
 4162POPC   GL254266  33.406  26.638   5.883
 4162POPC   C1A54267  33.667  27.160   6.183
 4162POPC   D2A54268  33.652  27.355   6.596
 4162POPC   C3A54269  33.981  27.185   6.858
 4162POPC   C4A54270  33.902  26.913   7.201
 4162POPC   C1B54271  33.616  26.616   6.289
 4162POPC   C2B54272  33.629  26.814   6.695
 4162POPC   C3B54273  33.582  26.549   7.061
 4162POPC   C4B54274  33.964  26.388   7.239
 4163POPC   NC354275  41.165  29.274   5.392
 4163POPC   PO454276  41.605  28.771   5.410
 4163POPC   GL154277  41.436  29.008   5.772
 4163POPC   GL254278  41.562  29.364   5.725
 4163POPC   C1A54279  41.584  28.981   6.215
 4163POPC   D2A54280  41.431  28.843   6.635
 4163POPC   C3A54281  41.597  29.065   7.017
 4163POPC   C4A54282  41.756  29.062   7.477
 4163POPC   C1B54283  41.305  29.420   6.078
 4163POPC   C2B54284  41.443  29.365   6.506
 4163POPC   C3B54285  41.330  29.523   6.883
 4163POPC   C4B54286  41.619  29.585   7.193
 4164POPC   NC354287  13.429  16.521   5.253
 4164POPC   PO454288  13.719  15.856   5.140
 4164POPC   GL154289  13.714  15.794   5.627
 4164POPC   GL254290  13.539  16.083   5.712
 4164POPC   C1A54291  13.915  15.877   6.076
 4164POPC   D2A54292  14.079  15.856   6.540
 4164POPC   C3A54293  13.846  15.807   6.925
 4164POPC   C4A54294  13.751  16.148   7.231
 4164POPC   C1B54295  13.410  16.027   6.146
 4164POPC   C2B54296  13.576  16.096   6.557
 4164POPC   C3B54297  13.365  16.024   6.935
 4164POPC   C4B54298  13.254  16.130   7.355
 4165POPC   NC354299  28.486  12.947   5.338
 4165POPC   PO454300  27.893  12.945   5.545
 4165POPC   GL154301  28.163  12.764   5.832
 4165POPC   GL254302  28.386  13.046   5.911
 4165POPC   C1A54303  28.328  12.700   6.266
 4165POPC   D2A54304  28.216  12.719   6.696
 4165POPC   C3A54305  28.600  12.649   6.921
 4165POPC   C4A54306  28.695  12.552   7.324
 4165POPC   C1B54307  28.336  13.190   6.367
 4165POPC   C2B54308  28.227  13.242   6.796
 4165POPC   C3B54309  28.335  13.032   7.156
 4165POPC   C4B54310  28.191  12.626   7.257
 4166POPC   NC354311  33.732   4.815   5.324
 4166POPC   PO454312  33.463   5.477   5.466
 4166POPC   GL154313  33.855   5.293   5.663
 4166POPC   GL254314  34.076   5.571   5.769
 4166POPC   C1A54315  33.935   4.944   5.971
 4166POPC   D2A54316  33.760   4.786   6.369
 4166POPC   C3A54317  33.876   4.929   6.778
 4166POPC   C4A54318  33.706   4.735   7.149
 4166POPC   C1B54319  33.970   5.409   6.194
 4166POPC   C2B54320  33.675   5.356   6.547
 4166POPC   C3B54321  33.743   5.394   6.991
 4166POPC   C4B54322  33.989   5.144   7.287
 4167POPC   NC354323  26.986  24.441   5.298
 4167POPC   PO454324  26.384  24.739   5.279
 4167POPC   GL154325  26.621  24.559   5.670
 4167POPC   GL254326  26.887  24.290   5.750
 4167POPC   C1A54327  26.588  24.356   6.131
 4167POPC   D2A54328  26.780  24.240   6.515
 4167POPC   C3A54329  26.681  24.358   6.938
 4167POPC   C4A54330  26.360  24.192   7.167
 4167POPC   C1B54331  27.008  24.638   6.029
 4167POPC   C2B54332  27.027  24.741   6.483
 4167POPC   C3B54333  27.133  24.577   6.897
 4167POPC   C4B54334  27.058  24.765   7.319
 4168POPC   NC354335   4.479  10.408   5.399
 4168POPC   PO454336   3.947  10.715   5.334
 4168POPC   GL154337   4.268  10.715   5.732
 4168POPC   GL254338   4.303  10.349   5.870
 4168POPC   C1A54339   4.495  10.696   6.162
 4168POPC   D2A54340   4.338  10.540   6.569
 4168POPC   C3A54341   4.131  10.817   6.832
 4168POPC   C4A54342   4.284  10.736   7.238
 4168POPC   C1B54343   4.431  10.147   6.265
 4168POPC   C2B54344   4.707  10.153   6.667
 4168POPC   C3B54345   4.598  10.357   7.062
 4168POPC   C4B54346   4.386  10.307   7.488
 4169POPC   NC354347  42.717  23.351   5.626
 4169POPC   PO454348  42.330  23.943   5.462
 4169POPC   GL154349  42.548  23.764   5.842
 4169POPC   GL254350  42.263  23.692   5.905
 4169POPC   C1A54351  42.498  23.447   6.261
 4169POPC   D2A54352  42.675  23.489   6.691
 4169POPC   C3A54353  42.434  23.349   7.040
 4169POPC   C4A54354  42.353  23.549   7.423
 4169POPC   C1B54355  42.292  23.910   6.283
 4169POPC   C2B54356  42.404  24.088   6.643
 4169POPC   C3B54357  42.435  23.897   7.013
 4169POPC   C4B54358  42.181  24.027   7.335
 4170POPC   NC354359   4.882   0.881   5.425
 4170POPC   PO454360   4.953   0.180   5.294
 4170POPC   GL154361   5.090   0.155   5.757
 4170POPC   GL254362   5.272   0.480   5.809
 4170POPC   C1A54363   5.025   0.204   6.227
 4170POPC   D2A54364   5.127   0.099   6.662
 4170POPC   C3A54365   4.937   0.344   6.992
 4170POPC   C4A54366   4.970   0.224   7.451
 4170POPC   C1B54367   5.065   0.711   6.146
 4170POPC   C2B54368   4.904   0.685   6.563
 4170POPC   C3B54369   4.976   0.892   6.959
 4170POPC   C4B54370   5.018   0.739   7.365
 4171POPC   NC354371  25.824  26.583   5.514
 4171POPC   PO454372  25.956  27.129   5.274
 4171POPC   GL154373  26.067  27.036   5.710
 4171POPC   GL254374  25.780  26.870   5.926
 4171POPC   C1A54375  26.116  27.161   6.146
 4171POPC   D2A54376  25.815  27.106   6.498
 4171POPC   C3A54377  26.036  27.084   6.878
 4171POPC   C4A54378  26.158  27.099   7.312
 4171POPC   C1B54379  25.932  26.637   6.313
 4171POPC   C2B54380  26.137  26.522   6.708
 4171POPC   C3B54381  26.115  26.632   7.103
 4171POPC   C4B54382  25.793  26.698   7.341
 4172POPC   NC354383   9.296  11.121   5.639
 4172POPC   PO454384   8.909  10.649   5.328
 4172POPC   GL154385   8.952  10.626   5.753
 4172POPC   GL254386   9.327  10.575   5.751
 4172POPC   C1A54387   8.698  10.524   6.166
 4172POPC   D2A54388   8.535  10.636   6.610
 4172POPC   C3A54389   8.789  10.530   7.016
 4172POPC   C4A54390   9.223  10.290   7.131
 4172POPC   C1B54391   9.192  10.648   6.196
 4172POPC   C2B54392   9.030  10.834   6.583
 4172POPC   C3B54393   9.138  10.912   7.021
 4172POPC   C4B54394   9.083  10.681   7.429
 4173POPC   NC354395  15.332  16.482   5.006
 4173POPC   PO454396  15.318  16.629   5.623
 4173POPC   GL154397  15.210  16.916   5.897
 4173POPC   GL254398  15.384  17.181   5.750
 4173POPC   C1A54399  15.091  16.871   6.331
 4173POPC   D2A54400  15.405  16.667   6.568
 4173POPC   C3A54401  15.342  16.524   6.953
 4173POPC   C4A54402  15.133  16.660   7.302
 4173POPC   C1B54403  15.505  17.198   6.203
 4173POPC   C2B54404  15.378  17.199   6.664
 4173POPC   C3B54405  15.397  17.055   7.112
 4173POPC   C4B54406  15.435  17.000   7.593
 4174POPC   NC354407  28.727   8.545   5.516
 4174POPC   PO454408  29.271   8.926   5.397
 4174POPC   GL154409  29.112   9.093   5.779
 4174POPC   GL254410  29.043   8.770   5.891
 4174POPC   C1A54411  29.257   9.178   6.191
 4174POPC   D2A54412  29.509   9.016   6.523
 4174POPC   C3A54413  29.305   9.082   6.915
 4174POPC   C4A54414  29.224   9.130   7.376
 4174POPC   C1B54415  29.267   8.611   6.284
 4174POPC   C2B54416  29.249   8.570   6.771
 4174POPC   C3B54417  29.438   8.699   7.209
 4174POPC   C4B54418  29.497   8.635   7.637
 4175POPC   NC354419  15.054  22.206   5.362
 4175POPC   PO454420  15.133  21.638   5.716
 4175POPC   GL154421  14.812  21.815   5.944
 4175POPC   GL254422  14.816  22.156   5.833
 4175POPC   C1A54423  14.872  21.965   6.364
 4175POPC   D2A54424  15.268  22.091   6.594
 4175POPC   C3A54425  15.240  22.087   7.040
 4175POPC   C4A54426  14.832  22.108   7.164
 4175POPC   C1B54427  15.029  22.405   6.155
 4175POPC   C2B54428  15.117  22.577   6.583
 4175POPC   C3B54429  15.022  22.551   7.020
 4175POPC   C4B54430  14.917  22.539   7.463
 4176POPC   NC354431  44.486  28.072   5.460
 4176POPC   PO454432  44.227  28.669   5.360
 4176POPC   GL154433  44.521  28.517   5.722
 4176POPC   GL254434  44.744  28.758   5.895
 4176POPC   C1A54435  44.720  28.271   6.109
 4176POPC   D2A54436  44.939  28.150   6.544
 4176POPC   C3A54437  44.756  28.060   6.945
 4176POPC   C4A54438  44.370  28.208   7.085
 4176POPC   C1B54439  44.916  28.679   6.346
 4176POPC   C2B54440  44.686  28.561   6.740
 4176POPC   C3B54441  44.496  28.694   7.133
 4176POPC   C4B54442  44.666  28.610   7.523
 4177POPC   NC354443  28.038  44.573   5.403
 4177POPC   PO454444  27.336  44.551   5.524
 4177POPC   GL154445  27.487  44.642   5.906
 4177POPC   GL254446  27.782  44.477   5.854
 4177POPC   C1A54447  27.590  44.685   6.337
 4177POPC   D2A54448  27.814  44.866   6.688
 4177POPC   C3A54449  27.540  44.847   7.082
 4177POPC   C4A54450  27.604  44.842   7.548
 4177POPC   C1B54451  27.924  44.243   6.191
 4177POPC   C2B54452  27.772  44.222   6.600
 4177POPC   C3B54453  27.891  44.433   6.961
 4177POPC   C4B54454  27.859  44.397   7.393
 4178POPC   NC354455  17.027  39.374   5.602
 4178POPC   PO454456  16.441  39.185   5.306
 4178POPC   GL154457  16.506  39.261   5.735
 4178POPC   GL254458  16.312  39.581   5.741
 4178POPC   C1A54459  16.682  39.135   6.143
 4178POPC   D2A54460  16.569  38.931   6.518
 4178POPC   C3A54461  16.752  39.138   6.849
 4178POPC   C4A54462  16.941  39.310   7.197
 4178POPC   C1B54463  16.365  39.534   6.185
 4178POPC   C2B54464  16.617  39.496   6.535
 4178POPC   C3B54465  16.686  39.673   6.952
 4178POPC   C4B54466  17.090  39.784   7.199
 4179POPC   NC354467  12.432   3.170   5.261
 4179POPC   PO454468  12.177   3.655   5.236
 4179POPC   GL154469  12.065   3.710   5.701
 4179POPC   GL254470  11.865   3.440   5.850
 4179POPC   C1A54471  12.218   3.650   6.170
 4179POPC   D2A54472  12.021   3.517   6.566
 4179POPC   C3A54473  12.158   3.607   6.991
 4179POPC   C4A54474  11.887   3.581   7.368
 4179POPC   C1B54475  12.058   3.154   6.184
 4179POPC   C2B54476  12.026   2.999   6.625
 4179POPC   C3B54477  12.004   3.125   7.085
 4179POPC   C4B54478  11.934   3.085   7.550
 4180POPC   NC354479  39.705  13.968   5.234
 4180POPC   PO454480  40.188  13.531   5.456
 4180POPC   GL154481  40.028  13.682   5.824
 4180POPC   GL254482  39.690  13.781   5.717
 4180POPC   C1A54483  40.180  13.599   6.244
 4180POPC   D2A54484  40.310  13.435   6.648
 4180POPC   C3A54485  40.188  13.605   7.030
 4180POPC   C4A54486  40.198  13.413   7.414
 4180POPC   C1B54487  39.635  13.635   6.136
 4180POPC   C2B54488  39.770  13.520   6.538
 4180POPC   C3B54489  39.607  13.624   6.903
 4180POPC   C4B54490  39.735  13.586   7.308
 4181POPC   NC354491  42.740  26.291   5.518
 4181POPC   PO454492  42.216  26.204   5.036
 4181POPC   GL154493  42.238  26.079   5.541
 4181POPC   GL254494  42.528  25.852   5.692
 4181POPC   C1A54495  42.113  25.865   5.984
 4181POPC   D2A54496  42.000  25.712   6.417
 4181POPC   C3A54497  42.077  25.923   6.832
 4181POPC   C4A54498  42.089  26.104   7.257
 4181POPC   C1B54499  42.618  25.921   6.147
 4181POPC   C2B54500  42.487  25.752   6.562
 4181POPC   C3B54501  42.561  25.786   7.012
 4181POPC   C4B54502  42.567  26.007   7.394
 4182POPC   NC354503  23.893  28.086   5.557
 4182POPC   PO454504  23.866  28.800   5.574
 4182POPC   GL154505  23.869  28.502   5.949
 4182POPC   GL254506  24.114  28.242   5.992
 4182POPC   C1A54507  23.677  28.358   6.372
 4182POPC   D2A54508  23.304  28.405   6.680
 4182POPC   C3A54509  23.437  28.666   7.016
 4182POPC   C4A54510  23.863  28.589   7.123
 4182POPC   C1B54511  23.876  27.908   6.181
 4182POPC   C2B54512  23.889  27.820   6.588
 4182POPC   C3B54513  23.948  28.094   6.926
 4182POPC   C4B54514  23.585  28.170   7.131
 4183POPC   NC354515   2.747  11.384   5.261
 4183POPC   PO454516   2.593  10.840   5.496
 4183POPC   GL154517   2.808  11.185   5.747
 4183POPC   GL254518   2.700  11.489   5.762
 4183POPC   C1A54519   2.958  11.215   6.201
 4183POPC   D2A54520   2.835  11.050   6.628
 4183POPC   C3A54521   2.997  11.064   7.060
 4183POPC   C4A54522   2.674  11.141   7.400
 4183POPC   C1B54523   2.700  11.683   6.165
 4183POPC   C2B54524   2.650  11.521   6.566
 4183POPC   C3B54525   2.706  11.475   7.005
 4183POPC   C4B54526   2.787  11.860   7.203
 4184POPC   NC354527  41.813  10.882   5.328
 4184POPC   PO454528  41.645  10.263   5.311
 4184POPC   GL154529  41.687  10.481   5.698
 4184POPC   GL254530  41.444  10.288   5.880
 4184POPC   C1A54531  41.845  10.522   6.146
 4184POPC   D2A54532  41.785  10.465   6.596
 4184POPC   C3A54533  41.858  10.792   6.914
 4184POPC   C4A54534  41.754  10.819   7.362
 4184POPC   C1B54535  41.273  10.351   6.306
 4184POPC   C2B54536  41.303  10.324   6.736
 4184POPC   C3B54537  41.543  10.428   7.087
 4184POPC   C4B54538  41.416  10.290   7.477
 4185POPC   NC354539  30.086  42.751   5.206
 4185POPC   PO454540  30.053  43.326   5.197
 4185POPC   GL154541  30.034  43.283   5.671
 4185POPC   GL254542  30.269  43.472   5.876
 4185POPC   C1A54543  29.910  43.167   6.124
 4185POPC   D2A54544  29.882  43.268   6.597
 4185POPC   C3A54545  29.848  42.937   6.885
 4185POPC   C4A54546  30.039  42.770   7.231
 4185POPC   C1B54547  30.120  43.602   6.295
 4185POPC   C2B54548  30.280  43.575   6.726
 4185POPC   C3B54549  30.158  43.318   7.068
 4185POPC   C4B54550  29.723  43.335   7.201
 4186POPC   NC354551  36.167  24.993   5.292
 4186POPC   PO454552  36.173  25.675   5.288
 4186POPC   GL154553  36.145  25.392   5.743
 4186POPC   GL254554  35.920  25.090   5.732
 4186POPC   C1A54555  36.382  25.372   6.152
 4186POPC   D2A54556  36.583  25.176   6.504
 4186POPC   C3A54557  36.420  25.210   6.917
 4186POPC   C4A54558  36.222  25.160   7.305
 4186POPC   C1B54559  35.956  25.103   6.177
 4186POPC   C2B54560  36.025  25.257   6.591
 4186POPC   C3B54561  35.833  25.142   6.978
 4186POPC   C4B54562  35.740  25.422   7.304
 4187POPC   NC354563  20.871  16.015   5.403
 4187POPC   PO454564  21.547  16.177   5.323
 4187POPC   GL154565  21.322  15.985   5.688
 4187POPC   GL254566  21.617  15.832   5.855
 4187POPC   C1A54567  21.245  15.951   6.168
 4187POPC   D2A54568  21.392  15.779   6.592
 4187POPC   C3A54569  21.165  15.842   6.964
 4187POPC   C4A54570  21.150  16.241   7.152
 4187POPC   C1B54571  21.638  15.546   6.219
 4187POPC   C2B54572  21.803  15.475   6.661
 4187POPC   C3B54573  21.707  15.670   7.065
 4187POPC   C4B54574  21.552  15.562   7.475
 4188POPC   NC354575  39.982  41.956   5.408
 4188POPC   PO454576  40.255  42.614   5.390
 4188POPC   GL154577  40.014  42.365   5.726
 4188POPC   GL254578  40.222  42.062   5.840
 4188POPC   C1A54579  39.822  42.172   6.114
 4188POPC   D2A54580  39.841  41.989   6.515
 4188POPC   C3A54581  39.942  42.192   6.871
 4188POPC   C4A54582  39.839  42.324   7.251
 4188POPC   C1B54583  40.321  42.388   6.142
 4188POPC   C2B54584  40.256  42.476   6.561
 4188POPC   C3B54585  40.351  42.635   6.959
 4188POPC   C4B54586  40.150  42.729   7.332
 4189POPC   NC354587  30.910  36.306   5.315
 4189POPC   PO454588  30.348  35.919   5.342
 4189POPC   GL154589  30.483  35.912   5.817
 4189POPC   GL254590  30.620  36.258   5.846
 4189POPC   C1A54591  30.752  35.963   6.243
 4189POPC   D2A54592  30.930  36.215   6.596
 4189POPC   C3A54593  30.788  36.073   7.019
 4189POPC   C4A54594  30.459  35.763   7.106
 4189POPC   C1B54595  30.338  36.242   6.206
 4189POPC   C2B54596  30.415  36.088   6.637
 4189POPC   C3B54597  30.335  36.291   7.022
 4189POPC   C4B54598  30.583  36.472   7.376
 4190POPC   NC354599  39.436  31.611   5.537
 4190POPC   PO454600  39.092  31.124   5.209
 4190POPC   GL154601  39.133  31.210   5.691
 4190POPC   GL254602  39.007  31.565   5.812
 4190POPC   C1A54603  39.047  31.216   6.186
 4190POPC   D2A54604  39.190  31.408   6.594
 4190POPC   C3A54605  38.985  31.435   6.992
 4190POPC   C4A54606  39.142  31.351   7.405
 4190POPC   C1B54607  39.218  31.726   6.195
 4190POPC   C2B54608  39.376  31.901   6.589
 4190POPC   C3B54609  39.388  31.823   7.040
 4190POPC   C4B54610  39.016  31.824   7.318
 4191POPC   NC354611  44.040   2.093   5.432
 4191POPC   PO454612  44.359   1.571   5.606
 4191POPC   GL154613  44.048   1.850   5.878
 4191POPC   GL254614  43.659   1.913   5.742
 4191POPC   C1A54615  43.986   2.085   6.300
 4191POPC   D2A54616  43.683   2.171   6.642
 4191POPC   C3A54617  43.863   2.088   7.038
 4191POPC   C4A54618  44.060   1.749   7.201
 4191POPC   C1B54619  43.630   1.731   6.159
 4191POPC   C2B54620  43.720   1.617   6.572
 4191POPC   C3B54621  43.590   1.682   6.991
 4191POPC   C4B54622  43.622   1.617   7.471
 4192POPC   NC354623  35.177  39.819   5.206
 4192POPC   PO454624  35.703  39.581   5.201
 4192POPC   GL154625  35.438  39.824   5.648
 4192POPC   GL254626  35.122  39.774   5.778
 4192POPC   C1A54627  35.404  40.101   6.078
 4192POPC   D2A54628  35.577  40.135   6.507
 4192POPC   C3A54629  35.392  40.278   6.893
 4192POPC   C4A54630  35.577  40.169   7.290
 4192POPC   C1B54631  35.348  39.610   6.154
 4192POPC   C2B54632  35.490  39.627   6.581
 4192POPC   C3B54633  35.325  39.774   6.977
 4192POPC   C4B54634  35.171  39.753   7.417
 4193POPC   NC354635  37.600  12.417   5.368
 4193POPC   PO454636  38.025  11.904   5.325
 4193POPC   GL154637  37.776  11.988   5.647
 4193POPC   GL254638  38.001  11.787   5.829
 4193POPC   C1A54639  37.515  12.082   6.011
 4193POPC   D2A54640  37.603  12.181   6.456
 4193POPC   C3A54641  37.549  11.881   6.778
 4193POPC   C4A54642  37.664  11.856   7.212
 4193POPC   C1B54643  38.011  11.977   6.199
 4193POPC   C2B54644  38.070  11.771   6.570
 4193POPC   C3B54645  38.025  12.026   6.915
 4193POPC   C4B54646  38.103  12.298   7.242
 4194POPC   NC354647  32.582  14.232   5.249
 4194POPC   PO454648  31.995  14.588   5.461
 4194POPC   GL154649  32.151  14.279   5.791
 4194POPC   GL254650  32.505  14.156   5.761
 4194POPC   C1A54651  32.274  14.193   6.229
 4194POPC   D2A54652  32.417  14.382   6.601
 4194POPC   C3A54653  32.179  14.338   6.953
 4194POPC   C4A54654  32.233  14.562   7.286
 4194POPC   C1B54655  32.588  13.807   6.053
 4194POPC   C2B54656  32.566  13.770   6.520
 4194POPC   C3B54657  32.506  13.957   6.950
 4194POPC   C4B54658  32.490  14.145   7.377
 4195POPC   NC354659  18.063  15.960   5.161
 4195POPC   PO454660  18.664  15.690   5.480
 4195POPC   GL154661  18.462  15.910   5.844
 4195POPC   GL254662  18.280  16.141   5.661
 4195POPC   C1A54663  18.326  15.758   6.240
 4195POPC   D2A54664  18.357  15.565   6.663
 4195POPC   C3A54665  18.161  15.782   7.016
 4195POPC   C4A54666  18.311  16.077   7.322
 4195POPC   C1B54667  18.088  16.200   6.084
 4195POPC   C2B54668  18.040  16.046   6.544
 4195POPC   C3B54669  18.011  16.286   6.915
 4195POPC   C4B54670  17.933  16.384   7.320
 4196POPC   NC354671  25.404  42.455   5.482
 4196POPC   PO454672  24.853  42.005   5.501
 4196POPC   GL154673  25.049  42.244   5.858
 4196POPC   GL254674  25.051  42.608   5.846
 4196POPC   C1A54675  25.123  42.213   6.324
 4196POPC   D2A54676  25.110  42.027   6.760
 4196POPC   C3A54677  25.017  42.302   7.087
 4196POPC   C4A54678  24.983  42.740   7.142
 4196POPC   C1B54679  24.954  42.689   6.268
 4196POPC   C2B54680  25.154  42.630   6.665
 4196POPC   C3B54681  25.454  42.543   6.968
 4196POPC   C4B54682  25.532  42.125   7.148
 4197POPC   NC354683  34.130  32.076   5.487
 4197POPC   PO454684  33.527  32.229   5.438
 4197POPC   GL154685  33.834  32.322   5.807
 4197POPC   GL254686  33.963  31.984   5.959
 4197POPC   C1A54687  33.997  32.401   6.238
 4197POPC   D2A54688  33.914  32.100   6.583
 4197POPC   C3A54689  33.988  32.270   6.985
 4197POPC   C4A54690  33.883  32.651   7.223
 4197POPC   C1B54691  33.583  32.066   6.185
 4197POPC   C2B54692  33.402  31.898   6.583
 4197POPC   C3B54693  33.516  32.085   6.976
 4197POPC   C4B54694  33.579  32.255   7.363
 4198POPC   NC354695  24.257   5.918   5.411
 4198POPC   PO454696  24.730   5.497   5.197
 4198POPC   GL154697  24.721   5.789   5.608
 4198POPC   GL254698  24.905   6.076   5.760
 4198POPC   C1A54699  24.697   5.750   6.094
 4198POPC   D2A54700  24.788   5.877   6.545
 4198POPC   C3A54701  24.478   5.724   6.881
 4198POPC   C4A54702  24.465   5.500   7.285
 4198POPC   C1B54703  24.771   6.278   6.158
 4198POPC   C2B54704  24.649   6.388   6.581
 4198POPC   C3B54705  24.741   6.219   6.965
 4198POPC   C4B54706  24.787   5.893   7.264
 4199POPC   NC354707  17.562  36.454   5.243
 4199POPC   PO454708  17.788  35.916   5.653
 4199POPC   GL154709  17.557  36.184   5.911
 4199POPC   GL254710  17.384  36.448   5.714
 4199POPC   C1A54711  17.643  36.209   6.363
 4199POPC   D2A54712  17.450  36.002   6.716
 4199POPC   C3A54713  17.486  36.012   7.147
 4199POPC   C4A54714  17.529  35.995   7.606
 4199POPC   C1B54715  17.212  36.512   6.138
 4199POPC   C2B54716  17.202  36.444   6.568
 4199POPC   C3B54717  17.117  36.306   6.987
 4199POPC   C4B54718  17.093  36.195   7.417
 4200POPC   NC354719  38.386  32.923   5.266
 4200POPC   PO454720  38.845  33.287   5.385
 4200POPC   GL154721  38.516  33.161   5.709
 4200POPC   GL254722  38.557  32.785   5.779
 4200POPC   C1A54723  38.326  33.217   6.137
 4200POPC   D2A54724  38.498  32.976   6.500
 4200POPC   C3A54725  38.330  32.970   6.910
 4200POPC   C4A54726  38.073  33.238   7.152
 4200POPC   C1B54727  38.662  32.591   6.198
 4200POPC   C2B54728  38.938  32.707   6.541
 4200POPC   C3B54729  38.877  32.949   6.908
 4200POPC   C4B54730  38.667  32.755   7.252
 4201POPC   NC354731  31.600  31.697   5.339
 4201POPC   PO454732  31.158  31.176   5.326
 4201POPC   GL154733  31.256  31.172   5.760
 4201POPC   GL254734  31.407  31.477   5.765
 4201POPC   C1A54735  31.241  31.206   6.229
 4201POPC   D2A54736  31.328  31.586   6.543
 4201POPC   C3A54737  31.307  31.598   7.035
 4201POPC   C4A54738  31.194  31.179   7.265
 4201POPC   C1B54739  31.663  31.452   6.126
 4201POPC   C2B54740  31.850  31.526   6.536
 4201POPC   C3B54741  31.775  31.461   6.935
 4201POPC   C4B54742  31.678  31.404   7.344
 4202POPC   NC354743  36.582  28.512   5.590
 4202POPC   PO454744  36.043  28.179   5.405
 4202POPC   GL154745  36.136  28.349   5.800
 4202POPC   GL254746  36.434  28.213   5.965
 4202POPC   C1A54747  36.005  28.271   6.217
 4202POPC   D2A54748  36.091  28.493   6.612
 4202POPC   C3A54749  35.983  28.264   6.958
 4202POPC   C4A54750  36.101  28.384   7.349
 4202POPC   C1B54751  36.439  28.584   6.232
 4202POPC   C2B54752  36.607  28.617   6.641
 4202POPC   C3B54753  36.470  28.646   7.062
 4202POPC   C4B54754  36.615  28.595   7.494
 4203POPC   NC354755  10.823  44.080   5.342
 4203POPC   PO454756  10.217  43.705   5.432
 4203POPC   GL154757  10.309  43.722   5.853
 4203POPC   GL254758  10.616  43.863   5.782
 4203POPC   C1A54759  10.267  43.881   6.284
 4203POPC   D2A54760  10.310  44.134   6.676
 4203POPC   C3A54761  10.493  43.978   7.045
 4203POPC   C4A54762  10.653  43.785   7.393
 4203POPC   C1B54763  10.772  43.872   6.203
 4203POPC   C2B54764  10.812  44.026   6.640
 4203POPC   C3B54765  11.024  43.942   7.030
 4203POPC   C4B54766  11.162  43.869   7.441
 4204POPC   NC354767  14.671  11.516   5.077
 4204POPC   PO454768  14.078  11.217   5.111
 4204POPC   GL154769  14.226  11.290   5.589
 4204POPC   GL254770  14.564  11.402   5.676
 4204POPC   C1A54771  14.074  11.333   6.055
 4204POPC   D2A54772  14.298  11.350   6.485
 4204POPC   C3A54773  14.184  11.120   6.847
 4204POPC   C4A54774  14.420  11.160   7.225
 4204POPC   C1B54775  14.501  11.608   6.102
 4204POPC   C2B54776  14.647  11.747   6.559
 4204POPC   C3B54777  14.488  11.597   6.967
 4204POPC   C4B54778  14.264  11.785   7.343
 4205POPC   NC354779   0.365  11.713   5.206
 4205POPC   PO454780   0.546  11.073   5.202
 4205POPC   GL154781   0.400  11.099   5.663
 4205POPC   GL254782   0.412  11.449   5.736
 4205POPC   C1A54783   0.377  11.042   6.141
 4205POPC   D2A54784   0.264  11.213   6.572
 4205POPC   C3A54785   0.419  11.051   6.949
 4205POPC   C4A54786   0.481  11.048   7.392
 4205POPC   C1B54787   0.450  11.556   6.188
 4205POPC   C2B54788   0.490  11.671   6.636
 4205POPC   C3B54789   0.361  11.528   7.093
 4205POPC   C4B54790   0.602  11.526   7.522
 4206POPC   NC354791  35.641  41.273   5.545
 4206POPC   PO454792  35.255  41.809   5.291
 4206POPC   GL154793  35.336  41.780   5.742
 4206POPC   GL254794  35.163  41.481   5.824
 4206POPC   C1A54795  35.548  41.822   6.151
 4206POPC   D2A54796  35.645  41.593   6.531
 4206POPC   C3A54797  35.556  41.667   6.989
 4206POPC   C4A54798  35.876  41.432   7.244
 4206POPC   C1B54799  35.217  41.438   6.262
 4206POPC   C2B54800  35.138  41.551   6.683
 4206POPC   C3B54801  35.122  41.313   7.047
 4206POPC   C4B54802  35.105  41.519   7.411
 4207POPC   NC354803  30.282  25.211   5.434
 4207POPC   PO454804  30.937  25.036   5.563
 4207POPC   GL154805  30.840  25.420   5.741
 4207POPC   GL254806  30.527  25.349   5.888
 4207POPC   C1A54807  30.876  25.596   6.155
 4207POPC   D2A54808  30.594  25.447   6.451
 4207POPC   C3A54809  30.641  25.461   6.896
 4207POPC   C4A54810  30.428  25.380   7.306
 4207POPC   C1B54811  30.779  25.057   6.199
 4207POPC   C2B54812  30.638  24.981   6.659
 4207POPC   C3B54813  30.695  24.976   7.110
 4207POPC   C4B54814  30.637  24.981   7.571
 4208POPC   NC354815  40.479  44.334   5.653
 4208POPC   PO454816  40.867  44.845   5.433
 4208POPC   GL154817  40.978  44.587   5.777
 4208POPC   GL254818  40.847  44.834   5.993
 4208POPC   C1A54819  40.946  44.388   6.201
 4208POPC   D2A54820  40.965  44.615   6.584
 4208POPC   C3A54821  40.832  44.425   6.977
 4208POPC   C4A54822  40.515  44.382   7.275
 4208POPC   C1B54823  40.527  44.717   6.266
 4208POPC   C2B54824  40.448  44.711   6.697
 4208POPC   C3B54825  40.721  44.908   6.972
 4208POPC   C4B54826  41.052   0.027   7.230
 4209POPC   NC354827  37.446  42.589   5.272
 4209POPC   PO454828  37.801  42.100   5.526
 4209POPC   GL154829  37.716  42.534   5.764
 4209POPC   GL254830  37.352  42.719   5.765
 4209POPC   C1A54831  37.913  42.574   6.199
 4209POPC   D2A54832  37.937  42.321   6.627
 4209POPC   C3A54833  37.784  42.476   7.033
 4209POPC   C4A54834  37.566  42.202   7.329
 4209POPC   C1B54835  37.342  42.492   6.156
 4209POPC   C2B54836  37.260  42.321   6.556
 4209POPC   C3B54837  37.253  42.469   6.968
 4209POPC   C4B54838  37.347  42.718   7.314
 4210POPC   NC354839  32.104  18.554   5.382
 4210POPC   PO454840  32.168  17.870   5.338
 4210POPC   GL154841  32.407  18.133   5.627
 4210POPC   GL254842  32.595  18.456   5.695
 4210POPC   C1A54843  32.446  18.130   6.083
 4210POPC   D2A54844  32.589  18.017   6.497
 4210POPC   C3A54845  32.398  18.152   6.884
 4210POPC   C4A54846  32.647  18.129   7.230
 4210POPC   C1B54847  32.439  18.659   6.112
 4210POPC   C2B54848  32.121  18.610   6.501
 4210POPC   C3B54849  32.019  18.509   6.966
 4210POPC   C4B54850  32.235  18.440   7.379
 4211POPC   NC354851  34.540  37.954   5.652
 4211POPC   PO454852  35.007  38.404   5.370
 4211POPC   GL154853  34.719  38.474   5.722
 4211POPC   GL254854  34.783  38.249   5.998
 4211POPC   C1A54855  34.387  38.588   6.030
 4211POPC   D2A54856  34.537  38.628   6.454
 4211POPC   C3A54857  34.346  38.664   6.862
 4211POPC   C4A54858  34.691  38.625   7.134
 4211POPC   C1B54859  34.437  38.153   6.293
 4211POPC   C2B54860  34.417  38.172   6.737
 4211POPC   C3B54861  34.490  38.159   7.174
 4211POPC   C4B54862  34.317  38.102   7.542
 4212POPC   NC354863  16.782  26.194   5.250
 4212POPC   PO454864  17.455  25.899   5.085
 4212POPC   GL154865  17.234  26.112   5.560
 4212POPC   GL254866  16.958  26.405   5.671
 4212POPC   C1A54867  16.935  25.997   5.949
 4212POPC   D2A54868  16.657  25.938   6.354
 4212POPC   C3A54869  16.699  25.883   6.833
 4212POPC   C4A54870  17.000  25.830   7.204
 4212POPC   C1B54871  16.742  26.452   6.134
 4212POPC   C2B54872  16.710  26.357   6.637
 4212POPC   C3B54873  16.763  26.325   7.094
 4212POPC   C4B54874  16.856  26.362   7.539
 4213POPC   NC354875  37.863  11.457   5.269
 4213POPC   PO454876  37.228  11.330   5.513
 4213POPC   GL154877  37.543  11.530   5.752
 4213POPC   GL254878  37.800  11.306   5.777
 4213POPC   C1A54879  37.650  11.604   6.204
 4213POPC   D2A54880  37.650  11.334   6.576
 4213POPC   C3A54881  37.502  11.414   7.003
 4213POPC   C4A54882  37.468  11.307   7.446
 4213POPC   C1B54883  37.645  11.037   6.118
 4213POPC   C2B54884  37.549  10.816   6.525
 4213POPC   C3B54885  37.753  10.943   6.918
 4213POPC   C4B54886  37.695  10.865   7.337
 4214POPC   NC354887  25.390  13.989   5.260
 4214POPC   PO454888  25.099  14.562   5.449
 4214POPC   GL154889  25.146  14.469   5.865
 4214POPC   GL254890  25.385  14.189   5.789
 4214POPC   C1A54891  25.253  14.661   6.272
 4214POPC   D2A54892  25.502  14.514   6.634
 4214POPC   C3A54893  25.347  14.647   7.014
 4214POPC   C4A54894  24.937  14.716   7.162
 4214POPC   C1B54895  25.675  13.997   6.075
 4214POPC   C2B54896  25.787  14.016   6.512
 4214POPC   C3B54897  25.603  14.078   6.912
 4214POPC   C4B54898  25.201  14.143   7.088
 4215POPC   NC354899   7.457   1.803   5.307
 4215POPC   PO454900   7.319   1.089   5.344
 4215POPC   GL154901   7.386   1.377   5.651
 4215POPC   GL254902   7.106   1.319   5.875
 4215POPC   C1A54903   7.605   1.434   6.037
 4215POPC   D2A54904   7.448   1.301   6.435
 4215POPC   C3A54905   7.549   1.538   6.779
 4215POPC   C4A54906   7.603   1.297   7.146
 4215POPC   C1B54907   7.065   1.011   6.205
 4215POPC   C2B54908   7.261   0.840   6.550
 4215POPC   C3B54909   7.231   1.088   6.880
 4215POPC   C4B54910   7.148   1.120   7.298
 4216POPC   NC354911  15.619  12.798   5.605
 4216POPC   PO454912  15.254  13.354   5.482
 4216POPC   GL154913  15.211  13.034   5.765
 4216POPC   GL254914  15.041  12.779   5.573
 4216POPC   C1A54915  15.299  13.013   6.201
 4216POPC   D2A54916  15.509  12.905   6.569
 4216POPC   C3A54917  15.521  13.214   6.895
 4216POPC   C4A54918  15.414  13.042   7.285
 4216POPC   C1B54919  14.863  12.766   6.014
 4216POPC   C2B54920  14.909  12.784   6.474
 4216POPC   C3B54921  15.015  13.034   6.834
 4216POPC   C4B54922  14.868  12.994   7.259
 4217POPC   NC354923  41.702   1.437   5.474
 4217POPC   PO454924  41.166   0.959   5.453
 4217POPC   GL154925  41.383   0.966   5.883
 4217POPC   GL254926  41.487   1.283   5.911
 4217POPC   C1A54927  41.553   0.980   6.342
 4217POPC   D2A54928  41.810   1.147   6.707
 4217POPC   C3A54929  41.726   1.066   7.162
 4217POPC   C4A54930  41.435   0.822   7.423
 4217POPC   C1B54931  41.620   1.481   6.308
 4217POPC   C2B54932  41.868   1.643   6.684
 4217POPC   C3B54933  41.759   1.566   7.164
 4217POPC   C4B54934  41.777   1.551   7.691
 4218POPC   NC354935   5.505  22.753   5.317
 4218POPC   PO454936   4.813  22.910   5.376
 4218POPC   GL154937   5.128  22.939   5.659
 4218POPC   GL254938   5.285  22.630   5.763
 4218POPC   C1A54939   5.141  23.088   6.063
 4218POPC   D2A54940   5.258  23.080   6.495
 4218POPC   C3A54941   5.025  23.233   6.854
 4218POPC   C4A54942   5.098  23.216   7.284
 4218POPC   C1B54943   5.209  22.590   6.210
 4218POPC   C2B54944   5.162  22.603   6.665
 4218POPC   C3B54945   5.119  22.740   7.089
 4218POPC   C4B54946   5.236  22.560   7.494
 4219POPC   NC354947   8.327  36.339   5.513
 4219POPC   PO454948   7.970  35.855   5.182
 4219POPC   GL154949   7.950  36.024   5.671
 4219POPC   GL254950   7.847  36.387   5.756
 4219POPC   C1A54951   8.187  36.090   6.109
 4219POPC   D2A54952   8.355  35.844   6.461
 4219POPC   C3A54953   8.226  35.988   6.888
 4219POPC   C4A54954   8.435  36.100   7.266
 4219POPC   C1B54955   7.956  36.530   6.214
 4219POPC   C2B54956   8.043  36.500   6.711
 4219POPC   C3B54957   8.018  36.391   7.185
 4219POPC   C4B54958   7.841  36.465   7.620
 4220POPC   NC354959  17.661  40.312   5.404
 4220POPC   PO454960  17.271  39.732   5.414
 4220POPC   GL154961  17.413  39.993   5.722
 4220POPC   GL254962  17.777  39.915   5.719
 4220POPC   C1A54963  17.261  40.140   6.120
 4220POPC   D2A54964  17.414  39.957   6.500
 4220POPC   C3A54965  17.540  40.147   6.860
 4220POPC   C4A54966  17.595  39.866   7.171
 4220POPC   C1B54967  17.769  40.051   6.142
 4220POPC   C2B54968  17.841  40.386   6.458
 4220POPC   C3B54969  17.860  40.554   6.880
 4220POPC   C4B54970  17.819  40.310   7.271
 4221POPC   NC354971   3.399   2.002   5.334
 4221POPC   PO454972   4.014   2.329   5.428
 4221POPC   GL154973   3.726   2.063   5.759
 4221POPC   GL254974   3.386   2.185   5.795
 4221POPC   C1A54975   3.567   1.935   6.199
 4221POPC   D2A54976   3.405   1.813   6.601
 4221POPC   C3A54977   3.603   1.848   6.985
 4221POPC   C4A54978   3.611   1.858   7.418
 4221POPC   C1B54979   3.136   2.300   6.126
 4221POPC   C2B54980   3.250   2.397   6.546
 4221POPC   C3B54981   3.198   2.198   6.928
 4221POPC   C4B54982   2.883   2.262   7.254
 4222POPC   NC354983  22.692  30.698   5.462
 4222POPC   PO454984  23.142  30.271   5.462
 4222POPC   GL154985  22.924  30.423   5.843
 4222POPC   GL254986  22.702  30.760   5.953
 4222POPC   C1A54987  23.108  30.609   6.211
 4222POPC   D2A54988  23.033  30.764   6.604
 4222POPC   C3A54989  23.240  30.520   6.914
 4222POPC   C4A54990  23.242  30.874   7.237
 4222POPC   C1B54991  22.629  30.402   6.248
 4222POPC   C2B54992  22.777  30.325   6.680
 4222POPC   C3B54993  22.772  30.653   7.032
 4222POPC   C4B54994  22.753  30.832   7.423
 4223POPC   NC354995  41.040  19.240   5.378
 4223POPC   PO454996  41.454  18.750   5.468
 4223POPC   GL154997  41.480  18.992   5.809
 4223POPC   GL254998  41.107  18.877   5.838
 4223POPC   C1A54999  41.822  19.007   6.156
 4223POPC   D2A55000  41.968  18.797   6.547
 4223POPC   C3A55001  41.867  19.027   6.933
 4223POPC   C4A55002  41.537  19.166   7.223
 4223POPC   C1B55003  41.375  18.760   6.233
 4223POPC   C2B55004  41.462  18.612   6.636
 4223POPC   C3B55005  41.404  18.706   7.046
 4223POPC   C4B55006  41.189  18.802   7.413
 4224POPC   NC355007  13.095  19.693   5.157
 4224POPC   PO455008  12.676  20.224   5.381
 4224POPC   GL155009  12.774  19.852   5.700
 4224POPC   GL255010  13.119  19.692   5.784
 4224POPC   C1A55011  12.765  19.845   6.171
 4224POPC   D2A55012  12.787  20.064   6.574
 4224POPC   C3A55013  12.664  19.867   6.968
 4224POPC   C4A55014  12.808  19.804   7.396
 4224POPC   C1B55015  13.213  20.058   6.032
 4224POPC   C2B55016  13.299  20.171   6.473
 4224POPC   C3B55017  13.210  19.963   6.859
 4224POPC   C4B55018  13.190  20.149   7.240
 4225POPC   NC355019  42.560   7.981   5.499
 4225POPC   PO455020  43.183   8.272   5.336
 4225POPC   GL155021  43.006   8.192   5.720
 4225POPC   GL255022  42.945   7.834   5.794
 4225POPC   C1A55023  43.226   8.114   6.108
 4225POPC   D2A55024  43.074   8.199   6.511
 4225POPC   C3A55025  43.327   8.194   6.891
 4225POPC   C4A55026  43.300   8.064   7.329
 4225POPC   C1B55027  42.845   7.807   6.226
 4225POPC   C2B55028  42.764   7.767   6.680
 4225POPC   C3B55029  42.867   7.945   7.104
 4225POPC   C4B55030  42.839   8.041   7.584
 4226POPC   NC355031   7.967   7.226   5.321
 4226POPC   PO455032   8.364   7.859   5.333
 4226POPC   GL155033   8.239   7.605   5.706
 4226POPC   GL255034   7.892   7.546   5.719
 4226POPC   C1A55035   8.173   7.514   6.187
 4226POPC   D2A55036   8.368   7.402   6.600
 4226POPC   C3A55037   8.317   7.623   6.990
 4226POPC   C4A55038   8.299   7.311   7.315
 4226POPC   C1B55039   7.797   7.173   6.027
 4226POPC   C2B55040   8.020   7.029   6.416
 4226POPC   C3B55041   8.010   7.148   6.878
 4226POPC   C4B55042   7.781   7.249   7.278
 4227POPC   NC355043  35.532   5.837   5.448
 4227POPC   PO455044  34.886   6.232   5.572
 4227POPC   GL155045  34.997   5.924   5.919
 4227POPC   GL255046  35.313   5.792   5.899
 4227POPC   C1A55047  35.035   5.810   6.373
 4227POPC   D2A55048  35.299   5.889   6.752
 4227POPC   C3A55049  35.082   5.873   7.134
 4227POPC   C4A55050  35.130   5.603   7.530
 4227POPC   C1B55051  35.503   5.622   6.292
 4227POPC   C2B55052  35.467   5.422   6.705
 4227POPC   C3B55053  35.484   5.575   7.158
 4227POPC   C4B55054  35.584   5.816   7.608
 4228POPC   NC355055  43.737  42.785   5.394
 4228POPC   PO455056  43.745  42.052   5.374
 4228POPC   GL155057  43.685  42.305   5.742
 4228POPC   GL255058  43.952  42.556   5.797
 4228POPC   C1A55059  43.608  42.162   6.180
 4228POPC   D2A55060  43.909  42.144   6.538
 4228POPC   C3A55061  43.726  42.126   6.964
 4228POPC   C4A55062  43.663  42.252   7.396
 4228POPC   C1B55063  43.800  42.632   6.217
 4228POPC   C2B55064  43.991  42.648   6.631
 4228POPC   C3B55065  43.954  42.592   7.076
 4228POPC   C4B55066  44.289  42.785   7.272
 4229POPC   NC355067  26.207  27.506   5.314
 4229POPC   PO455068  25.837  27.956   5.641
 4229POPC   GL155069  25.954  27.568   5.823
 4229POPC   GL255070  26.321  27.506   5.799
 4229POPC   C1A55071  25.836  27.566   6.256
 4229POPC   D2A55072  25.951  27.787   6.620
 4229POPC   C3A55073  25.712  27.737   6.978
 4229POPC   C4A55074  25.747  27.389   7.222
 4229POPC   C1B55075  26.344  27.649   6.201
 4229POPC   C2B55076  26.318  27.410   6.578
 4229POPC   C3B55077  26.238  27.550   6.993
 4229POPC   C4B55078  26.391  27.559   7.385
 4230POPC   NC355079  15.870  14.663   5.164
 4230POPC   PO455080  15.873  14.036   5.093
 4230POPC   GL155081  15.791  14.147   5.566
 4230POPC   GL255082  15.896  14.474   5.660
 4230POPC   C1A55083  15.805  14.101   6.052
 4230POPC   D2A55084  15.985  14.254   6.462
 4230POPC   C3A55085  16.089  14.039   6.858
 4230POPC   C4A55086  15.945  14.148   7.267
 4230POPC   C1B55087  16.181  14.492   6.040
 4230POPC   C2B55088  16.331  14.643   6.459
 4230POPC   C3B55089  16.196  14.531   6.881
 4230POPC   C4B55090  16.285  14.561   7.306
 4231POPC   NC355091  39.096  11.872   5.538
 4231POPC   PO455092  39.444  12.276   5.224
 4231POPC   GL155093  39.527  12.093   5.702
 4231POPC   GL255094  39.493  11.710   5.827
 4231POPC   C1A55095  39.328  12.053   6.162
 4231POPC   D2A55096  39.095  12.136   6.565
 4231POPC   C3A55097  39.344  12.260   6.923
 4231POPC   C4A55098  39.299  12.220   7.321
 4231POPC   C1B55099  39.589  11.610   6.269
 4231POPC   C2B55100  39.511  11.840   6.651
 4231POPC   C3B55101  39.401  11.770   7.091
 4231POPC   C4B55102  39.546  11.826   7.523
 4232POPC   NC355103   7.864  33.174   5.494
 4232POPC   PO455104   8.378  32.857   5.180
 4232POPC   GL155105   8.453  32.814   5.657
 4232POPC   GL255106   8.229  33.016   5.801
 4232POPC   C1A55107   8.401  32.688   6.144
 4232POPC   D2A55108   8.138  32.727   6.528
 4232POPC   C3A55109   8.326  32.766   6.921
 4232POPC   C4A55110   8.197  32.793   7.324
 4232POPC   C1B55111   7.972  33.050   6.167
 4232POPC   C2B55112   7.857  33.223   6.595
 4232POPC   C3B55113   7.965  33.131   7.029
 4232POPC   C4B55114   8.074  33.331   7.442
 4233POPC   NC355115  38.719  11.006   5.523
 4233POPC   PO455116  38.036  11.037   5.422
 4233POPC   GL155117  38.261  11.009   5.815
 4233POPC   GL255118  38.340  11.367   5.771
 4233POPC   C1A55119  38.560  11.120   6.170
 4233POPC   D2A55120  38.613  11.388   6.527
 4233POPC   C3A55121  38.570  11.241   6.951
 4233POPC   C4A55122  38.588  11.456   7.379
 4233POPC   C1B55123  38.111  11.373   6.172
 4233POPC   C2B55124  38.143  11.203   6.566
 4233POPC   C3B55125  38.044  11.381   6.930
 4233POPC   C4B55126  38.144  11.202   7.295
 4234POPC   NC355127  36.036   0.336   5.357
 4234POPC   PO455128  36.727   0.220   5.371
 4234POPC   GL155129  36.433   0.377   5.729
 4234POPC   GL255130  36.170   0.625   5.758
 4234POPC   C1A55131  36.268   0.339   6.182
 4234POPC   D2A55132  36.211   0.094   6.558
 4234POPC   C3A55133  36.265   0.318   6.936
 4234POPC   C4A55134  36.131   0.704   7.103
 4234POPC   C1B55135  35.809   0.469   6.032
 4234POPC   C2B55136  35.805   0.406   6.452
 4234POPC   C3B55137  35.708   0.222   6.827
 4234POPC   C4B55138  35.845   0.296   7.235
 4235POPC   NC355139  11.703  23.718   5.658
 4235POPC   PO455140  11.176  23.551   5.355
 4235POPC   GL155141  11.249  23.454   5.765
 4235POPC   GL255142  11.205  23.801   5.845
 4235POPC   C1A55143  11.412  23.392   6.178
 4235POPC   D2A55144  11.332  23.559   6.594
 4235POPC   C3A55145  11.570  23.519   6.964
 4235POPC   C4A55146  11.257  23.480   7.341
 4235POPC   C1B55147  11.452  23.915   6.211
 4235POPC   C2B55148  11.478  24.068   6.626
 4235POPC   C3B55149  11.278  23.941   7.001
 4235POPC   C4B55150  11.552  23.889   7.340
 4236POPC   NC355151  11.561  31.862   5.603
 4236POPC   PO455152  11.078  32.161   5.235
 4236POPC   GL155153  11.306  32.357   5.648
 4236POPC   GL255154  11.147  32.160   5.878
 4236POPC   C1A55155  11.478  32.469   6.110
 4236POPC   D2A55156  11.556  32.340   6.561
 4236POPC   C3A55157  11.403  32.533   6.935
 4236POPC   C4A55158  11.284  32.309   7.344
 4236POPC   C1B55159  11.352  31.978   6.251
 4236POPC   C2B55160  11.226  31.960   6.676
 4236POPC   C3B55161  11.166  31.865   7.100
 4236POPC   C4B55162  10.913  31.967   7.463
 4237POPC   NC355163  36.491  25.748   5.609
 4237POPC   PO455164  35.837  25.978   5.694
 4237POPC   GL155165  36.114  25.874   5.929
 4237POPC   GL255166  36.328  26.180   5.851
 4237POPC   C1A55167  36.014  25.706   6.320
 4237POPC   D2A55168  36.012  25.909   6.713
 4237POPC   C3A55169  36.120  25.667   7.074
 4237POPC   C4A55170  36.061  25.954   7.466
 4237POPC   C1B55171  36.173  26.248   6.291
 4237POPC   C2B55172  36.446  26.183   6.649
 4237POPC   C3B55173  36.389  26.114   7.082
 4237POPC   C4B55174  36.479  26.228   7.492
 4238POPC   NC355175  23.218  35.452   5.400
 4238POPC   PO455176  23.885  35.594   5.343
 4238POPC   GL155177  23.724  35.334   5.719
 4238POPC   GL255178  23.864  35.526   6.003
 4238POPC   C1A55179  23.818  35.023   6.111
 4238POPC   D2A55180  24.087  34.997   6.517
 4238POPC   C3A55181  23.876  35.120   6.909
 4238POPC   C4A55182  23.829  35.528   7.089
 4238POPC   C1B55183  23.426  35.343   6.123
 4238POPC   C2B55184  23.312  35.269   6.538
 4238POPC   C3B55185  23.186  35.422   6.929
 4238POPC   C4B55186  23.350  35.434   7.336
 4239POPC   NC355187  37.586  19.787   5.071
 4239POPC   PO455188  38.220  19.969   5.360
 4239POPC   GL155189  37.947  19.849   5.722
 4239POPC   GL255190  37.576  19.793   5.691
 4239POPC   C1A55191  37.836  19.651   6.126
 4239POPC   D2A55192  37.584  19.720   6.450
 4239POPC   C3A55193  37.726  19.729   6.828
 4239POPC   C4A55194  37.667  19.704   7.267
 4239POPC   C1B55195  37.483  20.083   6.077
 4239POPC   C2B55196  37.295  20.138   6.504
 4239POPC   C3B55197  37.247  19.904   6.869
 4239POPC   C4B55198  37.175  20.033   7.256
 4240POPC   NC355199   6.179  22.046   5.531
 4240POPC   PO455200   6.723  22.383   5.404
 4240POPC   GL155201   6.573  22.282   5.800
 4240POPC   GL255202   6.224  22.454   5.834
 4240POPC   C1A55203   6.781  22.198   6.215
 4240POPC   D2A55204   6.945  22.255   6.644
 4240POPC   C3A55205   6.666  22.042   6.958
 4240POPC   C4A55206   6.604  22.123   7.379
 4240POPC   C1B55207   6.245  22.175   6.179
 4240POPC   C2B55208   6.375  22.018   6.546
 4240POPC   C3B55209   6.205  22.270   6.884
 4240POPC   C4B55210   6.118  22.176   7.269
 4241POPC   NC355211  17.382   0.138   5.265
 4241POPC   PO455212  17.721   0.690   5.384
 4241POPC   GL155213  17.680   0.499   5.813
 4241POPC   GL255214  17.527   0.191   5.782
 4241POPC   C1A55215  17.733   0.390   6.256
 4241POPC   D2A55216  17.833   0.619   6.626
 4241POPC   C3A55217  17.633   0.491   6.978
 4241POPC   C4A55218  17.583   0.410   7.411
 4241POPC   C1B55219  17.283   0.166   6.180
 4241POPC   C2B55220  17.303   0.024   6.614
 4241POPC   C3B55221  17.166   0.268   6.995
 4241POPC   C4B55222  17.091   0.256   7.432
 4242POPC   NC355223   8.438  20.472   5.499
 4242POPC   PO455224   7.844  20.380   5.304
 4242POPC   GL155225   7.931  20.588   5.755
 4242POPC   GL255226   8.215  20.415   5.956
 4242POPC   C1A55227   7.894  20.724   6.230
 4242POPC   D2A55228   7.851  20.790   6.707
 4242POPC   C3A55229   8.210  20.715   7.040
 4242POPC   C4A55230   8.275  20.686   7.522
 4242POPC   C1B55231   8.455  20.208   6.299
 4242POPC   C2B55232   8.520  20.290   6.758
 4242POPC   C3B55233   8.242  20.185   7.117
 4242POPC   C4B55234   8.140  20.205   7.571
 4243POPC   NC355235  44.401  17.060   5.382
 4243POPC   PO455236  43.870  16.642   5.591
 4243POPC   GL155237  43.854  17.054   5.807
 4243POPC   GL255238  43.500  17.144   5.830
 4243POPC   C1A55239  44.142  17.167   6.154
 4243POPC   D2A55240  44.291  16.931   6.531
 4243POPC   C3A55241  43.986  16.900   6.880
 4243POPC   C4A55242  43.959  16.712   7.295
 4243POPC   C1B55243  43.566  16.922   6.241
 4243POPC   C2B55244  43.450  16.772   6.682
 4243POPC   C3B55245  43.486  16.684   7.143
 4243POPC   C4B55246  43.606  16.407   7.546
 4244POPC   NC355247  41.206  22.594   5.513
 4244POPC   PO455248  40.514  22.742   5.399
 4244POPC   GL155249  40.750  22.857   5.784
 4244POPC   GL255250  40.998  23.153   5.783
 4244POPC   C1A55251  40.583  22.840   6.220
 4244POPC   D2A55252  40.512  22.576   6.604
 4244POPC   C3A55253  40.387  22.860   6.925
 4244POPC   C4A55254  40.509  23.198   7.205
 4244POPC   C1B55255  41.097  22.911   6.180
 4244POPC   C2B55256  40.959  22.865   6.616
 4244POPC   C3B55257  40.934  22.934   7.054
 4244POPC   C4B55258  40.965  23.199   7.404
 4245POPC   NC355259   7.109   6.776   5.522
 4245POPC   PO455260   7.511   7.341   5.392
 4245POPC   GL155261   7.402   7.460   5.805
 4245POPC   GL255262   7.274   7.141   5.847
 4245POPC   C1A55263   7.638   7.634   6.159
 4245POPC   D2A55264   7.760   7.449   6.543
 4245POPC   C3A55265   7.806   7.643   6.956
 4245POPC   C4A55266   7.589   7.712   7.346
 4245POPC   C1B55267   7.291   7.268   6.267
 4245POPC   C2B55268   7.134   7.365   6.645
 4245POPC   C3B55269   7.340   7.355   7.022
 4245POPC   C4B55270   7.149   7.488   7.417
 4246POPC   NC355271  25.455  43.446   5.362
 4246POPC   PO455272  25.131  42.849   5.406
 4246POPC   GL155273  25.044  43.125   5.779
 4246POPC   GL255274  25.198  43.456   5.813
 4246POPC   C1A55275  25.057  43.193   6.235
 4246POPC   D2A55276  24.928  43.085   6.636
 4246POPC   C3A55277  25.070  43.302   6.979
 4246POPC   C4A55278  25.376  43.034   7.119
 4246POPC   C1B55279  25.498  43.432   6.175
 4246POPC   C2B55280  25.442  43.464   6.633
 4246POPC   C3B55281  25.621  43.456   7.051
 4246POPC   C4B55282  25.792  43.389   7.467
 4247POPC   NC355283   2.589  25.372   5.373
 4247POPC   PO455284   3.176  25.148   5.313
 4247POPC   GL155285   2.862  25.174   5.748
 4247POPC   GL255286   2.496  25.039   5.764
 4247POPC   C1A55287   2.964  25.264   6.198
 4247POPC   D2A55288   3.100  25.002   6.579
 4247POPC   C3A55289   2.899  25.057   6.984
 4247POPC   C4A55290   2.791  25.294   7.346
 4247POPC   C1B55291   2.463  25.217   6.211
 4247POPC   C2B55292   2.522  25.252   6.673
 4247POPC   C3B55293   2.341  25.291   7.099
 4247POPC   C4B55294   2.273  25.261   7.550
 4248POPC   NC355295  41.676  25.972   5.249
 4248POPC   PO455296  41.483  26.450   5.646
 4248POPC   GL155297  41.764  26.170   5.775
 4248POPC   GL255298  41.568  25.859   5.766
 4248POPC   C1A55299  41.931  26.300   6.178
 4248POPC   D2A55300  41.664  26.363   6.516
 4248POPC   C3A55301  41.862  26.383   6.888
 4248POPC   C4A55302  41.726  26.476   7.272
 4248POPC   C1B55303  41.558  25.926   6.228
 4248POPC   C2B55304  41.576  25.823   6.690
 4248POPC   C3B55305  41.617  25.962   7.132
 4248POPC   C4B55306  41.469  25.802   7.538
 4249POPC   NC355307  22.499   8.398   5.665
 4249POPC   PO455308  22.227   7.835   5.353
 4249POPC   GL155309  22.201   8.013   5.790
 4249POPC   GL255310  21.911   8.160   5.846
 4249POPC   C1A55311  22.262   8.275   6.235
 4249POPC   D2A55312  22.476   8.185   6.652
 4249POPC   C3A55313  22.286   7.937   6.983
 4249POPC   C4A55314  22.234   8.075   7.397
 4249POPC   C1B55315  21.937   7.890   6.213
 4249POPC   C2B55316  21.958   8.099   6.611
 4249POPC   C3B55317  21.986   8.362   6.984
 4249POPC   C4B55318  21.793   8.299   7.419
 4250POPC   NC355319  40.884  33.257   5.352
 4250POPC   PO455320  40.405  32.751   5.348
 4250POPC   GL155321  40.582  33.023   5.715
 4250POPC   GL255322  40.962  32.967   5.754
 4250POPC   C1A55323  40.557  33.200   6.180
 4250POPC   D2A55324  40.610  33.096   6.648
 4250POPC   C3A55325  40.564  33.346   7.032
 4250POPC   C4A55326  40.331  33.231   7.411
 4250POPC   C1B55327  41.143  32.981   6.154
 4250POPC   C2B55328  41.116  33.090   6.566
 4250POPC   C3B55329  41.052  33.173   7.001
 4250POPC   C4B55330  41.044  32.862   7.350
 4251POPC   NC355331  13.926  20.967   5.458
 4251POPC   PO455332  13.388  21.321   5.407
 4251POPC   GL155333  13.654  21.300   5.777
 4251POPC   GL255334  13.759  21.659   5.785
 4251POPC   C1A55335  13.629  21.100   6.211
 4251POPC   D2A55336  13.876  20.989   6.595
 4251POPC   C3A55337  13.653  21.048   6.998
 4251POPC   C4A55338  13.707  21.323   7.386
 4251POPC   C1B55339  13.630  21.767   6.184
 4251POPC   C2B55340  13.672  21.597   6.572
 4251POPC   C3B55341  13.527  21.536   6.958
 4251POPC   C4B55342  13.220  21.267   7.170
 4252POPC   NC355343  22.277  43.491   5.318
 4252POPC   PO455344  22.058  44.091   5.040
 4252POPC   GL155345  22.076  44.016   5.547
 4252POPC   GL255346  21.948  43.699   5.695
 4252POPC   C1A55347  22.351  44.021   5.936
 4252POPC   D2A55348  22.365  43.862   6.388
 4252POPC   C3A55349  22.109  44.033   6.744
 4252POPC   C4A55350  22.218  44.241   7.150
 4252POPC   C1B55351  22.202  43.513   6.029
 4252POPC   C2B55352  22.212  43.362   6.475
 4252POPC   C3B55353  22.094  43.491   6.882
 4252POPC   C4B55354  22.196  43.729   7.246
 4253POPC   NC355355  19.522   5.162   5.474
 4253POPC   PO455356  18.898   4.843   5.474
 4253POPC   GL155357  19.246   4.868   5.803
 4253POPC   GL255358  19.321   5.214   5.939
 4253POPC   C1A55359  19.276   4.798   6.232
 4253POPC   D2A55360  19.385   4.894   6.640
 4253POPC   C3A55361  19.064   4.746   6.894
 4253POPC   C4A55362  18.860   4.771   7.276
 4253POPC   C1B55363  19.213   5.331   6.377
 4253POPC   C2B55364  19.089   5.292   6.801
 4253POPC   C3B55365  19.122   5.200   7.212
 4253POPC   C4B55366  19.371   5.424   7.506
 4254POPC   NC355367  11.814  43.985   5.181
 4254POPC   PO455368  11.193  43.786   5.294
 4254POPC   GL155369  11.131  43.918   5.739
 4254POPC   GL255370  11.101  43.589   5.834
 4254POPC   C1A55371  11.287  43.925   6.192
 4254POPC   D2A55372  11.541  43.728   6.524
 4254POPC   C3A55373  11.583  44.020   6.890
 4254POPC   C4A55374  11.867  44.138   7.224
 4254POPC   C1B55375  11.072  43.451   6.254
 4254POPC   C2B55376  11.073  43.585   6.672
 4254POPC   C3B55377  11.397  43.567   7.004
 4254POPC   C4B55378  11.457  43.467   7.446
 4255POPC   NC355379  10.257  22.297   5.347
 4255POPC   PO455380  10.793  22.475   5.699
 4255POPC   GL155381  10.375  22.447   5.859
 4255POPC   GL255382  10.230  22.100   5.810
 4255POPC   C1A55383  10.476  22.486   6.294
 4255POPC   D2A55384  10.802  22.327   6.561
 4255POPC   C3A55385  10.678  22.175   6.955
 4255POPC   C4A55386  10.712  22.378   7.319
 4255POPC   C1B55387  10.120  22.118   6.221
 4255POPC   C2B55388  10.302  22.111   6.612
 4255POPC   C3B55389  10.181  22.255   6.996
 4255POPC   C4B55390  10.320  22.037   7.321
 4256POPC   NC355391   4.600  27.964   5.015
 4256POPC   PO455392   4.401  27.359   5.271
 4256POPC   GL155393   4.342  27.349   5.743
 4256POPC   GL255394   4.085  27.090   5.779
 4256POPC   C1A55395   4.534  27.348   6.190
 4256POPC   D2A55396   4.447  27.560   6.571
 4256POPC   C3A55397   4.532  27.510   6.997
 4256POPC   C4A55398   4.500  27.922   7.147
 4256POPC   C1B55399   4.012  27.268   6.186
 4256POPC   C2B55400   4.100  27.193   6.612
 4256POPC   C3B55401   4.032  27.399   6.984
 4256POPC   C4B55402   4.010  27.794   7.126
 4257POPC   NC355403  36.713   0.968   5.442
 4257POPC   PO455404  36.007   0.891   5.323
 4257POPC   GL155405  36.032   1.121   5.744
 4257POPC   GL255406  36.383   1.109   5.889
 4257POPC   C1A55407  35.993   0.916   6.162
 4257POPC   D2A55408  36.079   0.809   6.599
 4257POPC   C3A55409  35.937   1.130   6.917
 4257POPC   C4A55410  36.016   1.133   7.378
 4257POPC   C1B55411  36.159   1.382   6.252
 4257POPC   C2B55412  36.165   1.534   6.689
 4257POPC   C3B55413  36.358   1.424   7.098
 4257POPC   C4B55414  36.469   1.313   7.524
 4258POPC   NC355415  40.352  25.985   5.285
 4258POPC   PO455416  39.700  26.003   5.423
 4258POPC   GL155417  39.921  25.880   5.784
 4258POPC   GL255418  40.223  25.787   5.767
 4258POPC   C1A55419  40.081  26.056   6.181
 4258POPC   D2A55420  39.972  26.270   6.550
 4258POPC   C3A55421  40.137  26.182   6.950
 4258POPC   C4A55422  39.891  26.027   7.290
 4258POPC   C1B55423  40.076  25.539   6.133
 4258POPC   C2B55424  40.049  25.644   6.577
 4258POPC   C3B55425  40.233  25.659   6.998
 4258POPC   C4B55426  40.176  25.663   7.474
 4259POPC   NC355427  30.854  42.179   5.493
 4259POPC   PO455428  30.454  42.612   5.420
 4259POPC   GL155429  30.823  42.641   5.729
 4259POPC   GL255430  30.547  42.521   5.937
 4259POPC   C1A55431  30.962  42.585   6.200
 4259POPC   D2A55432  30.804  42.680   6.628
 4259POPC   C3A55433  30.945  42.475   7.016
 4259POPC   C4A55434  30.810  42.513   7.425
 4259POPC   C1B55435  30.511  42.349   6.373
 4259POPC   C2B55436  30.438  42.394   6.836
 4259POPC   C3B55437  30.351  42.348   7.276
 4259POPC   C4B55438  30.487  42.238   7.707
 4260POPC   NC355439   6.103  44.983   5.417
 4260POPC   PO455440   5.602  44.508   5.450
 4260POPC   GL155441   5.708  44.656   5.864
 4260POPC   GL255442   6.014  44.832   5.892
 4260POPC   C1A55443   5.893  44.527   6.267
 4260POPC   D2A55444   5.812  44.348   6.636
 4260POPC   C3A55445   6.065  44.453   6.959
 4260POPC   C4A55446   6.023  44.410   7.408
 4260POPC   C1B55447   6.014   0.023   6.322
 4260POPC   C2B55448   5.967  44.950   6.789
 4260POPC   C3B55449   5.874   0.011   7.253
 4260POPC   C4B55450   6.209   0.149   7.566
 4261POPC   NC355451  37.950   7.950   5.454
 4261POPC   PO455452  37.441   8.401   5.385
 4261POPC   GL155453  37.749   8.333   5.710
 4261POPC   GL255454  37.509   8.154   5.857
 4261POPC   C1A55455  38.005   8.290   6.103
 4261POPC   D2A55456  37.865   8.316   6.533
 4261POPC   C3A55457  38.001   8.132   6.937
 4261POPC   C4A55458  37.789   8.255   7.304
 4261POPC   C1B55459  37.519   8.481   6.161
 4261POPC   C2B55460  37.348   8.306   6.532
 4261POPC   C3B55461  37.492   8.337   6.909
 4261POPC   C4B55462  37.422   8.631   7.225
 4262POPC   NC355463   8.362   9.834   5.395
 4262POPC   PO455464   7.800   9.941   5.703
 4262POPC   GL155465   8.156   9.730   5.864
 4262POPC   GL255466   8.320   9.422   5.755
 4262POPC   C1A55467   8.227   9.719   6.280
 4262POPC   D2A55468   8.061   9.560   6.658
 4262POPC   C3A55469   8.078   9.892   6.972
 4262POPC   C4A55470   7.860  10.029   7.344
 4262POPC   C1B55471   8.540   9.324   6.168
 4262POPC   C2B55472   8.600   9.556   6.589
 4262POPC   C3B55473   8.470   9.593   7.021
 4262POPC   C4B55474   8.574   9.829   7.399
 4263POPC   NC355475  23.837   5.411   5.603
 4263POPC   PO455476  23.609   4.824   5.270
 4263POPC   GL155477  23.552   4.979   5.698
 4263POPC   GL255478  23.913   4.981   5.872
 4263POPC   C1A55479  23.477   4.968   6.144
 4263POPC   D2A55480  23.765   4.977   6.509
 4263POPC   C3A55481  23.634   5.265   6.802
 4263POPC   C4A55482  23.603   5.226   7.233
 4263POPC   C1B55483  24.013   5.305   6.219
 4263POPC   C2B55484  24.107   5.426   6.642
 4263POPC   C3B55485  24.072   5.284   7.062
 4263POPC   C4B55486  23.979   5.516   7.443
 4264POPC   NC355487   4.053  31.536   4.869
 4264POPC   PO455488   4.459  31.637   5.519
 4264POPC   GL155489   4.491  31.379   5.811
 4264POPC   GL255490   4.622  31.031   5.709
 4264POPC   C1A55491   4.348  31.480   6.237
 4264POPC   D2A55492   4.281  31.325   6.642
 4264POPC   C3A55493   4.486  31.441   7.003
 4264POPC   C4A55494   4.318  31.538   7.394
 4264POPC   C1B55495   4.740  31.141   6.157
 4264POPC   C2B55496   4.786  31.223   6.607
 4264POPC   C3B55497   4.749  31.014   7.021
 4264POPC   C4B55498   4.617  31.122   7.469
 4265POPC   NC355499  29.983   5.593   5.270
 4265POPC   PO455500  30.091   6.271   5.372
 4265POPC   GL155501  29.883   5.921   5.643
 4265POPC   GL255502  30.173   5.739   5.746
 4265POPC   C1A55503  29.739   5.716   6.056
 4265POPC   D2A55504  29.944   5.778   6.494
 4265POPC   C3A55505  29.704   5.770   6.881
 4265POPC   C4A55506  29.548   5.635   7.261
 4265POPC   C1B55507  30.093   6.061   6.094
 4265POPC   C2B55508  30.021   6.307   6.470
 4265POPC   C3B55509  30.045   6.156   6.886
 4265POPC   C4B55510  30.115   5.848   7.184
 4266POPC   NC355511  31.529   2.435   5.345
 4266POPC   PO455512  31.391   3.172   5.275
 4266POPC   GL155513  31.325   2.890   5.669
 4266POPC   GL255514  31.615   2.724   5.761
 4266POPC   C1A55515  31.228   2.828   6.149
 4266POPC   D2A55516  31.362   2.633   6.579
 4266POPC   C3A55517  31.376   2.891   6.965
 4266POPC   C4A55518  31.340   2.870   7.451
 4266POPC   C1B55519  31.668   2.504   6.160
 4266POPC   C2B55520  31.896   2.541   6.560
 4266POPC   C3B55521  31.780   2.588   7.000
 4266POPC   C4B55522  31.384   2.409   7.138
 4267POPC   NC355523  16.024  12.820   4.986
 4267POPC   PO455524  15.805  13.203   5.473
 4267POPC   GL155525  16.043  12.974   5.843
 4267POPC   GL255526  16.328  12.705   5.851
 4267POPC   C1A55527  15.936  12.836   6.234
 4267POPC   D2A55528  15.948  13.176   6.527
 4267POPC   C3A55529  16.027  13.054   6.927
 4267POPC   C4A55530  15.899  13.189   7.294
 4267POPC   C1B55531  16.452  12.919   6.194
 4267POPC   C2B55532  16.317  12.796   6.593
 4267POPC   C3B55533  16.167  12.543   6.931
 4267POPC   C4B55534  15.893  12.648   7.253
 4268POPC   NC355535  17.524  11.605   5.602
 4268POPC   PO455536  17.410  12.207   5.319
 4268POPC   GL155537  17.428  12.147   5.766
 4268POPC   GL255538  17.750  12.016   5.773
 4268POPC   C1A55539  17.288  12.044   6.199
 4268POPC   D2A55540  17.299  11.731   6.550
 4268POPC   C3A55541  17.444  11.915   6.946
 4268POPC   C4A55542  17.429  11.799   7.361
 4268POPC   C1B55543  17.820  12.172   6.175
 4268POPC   C2B55544  17.615  12.213   6.568
 4268POPC   C3B55545  17.805  12.324   6.964
 4268POPC   C4B55546  17.957  12.438   7.400
 4269POPC   NC355547   5.028  33.411   5.473
 4269POPC   PO455548   5.455  33.968   5.470
 4269POPC   GL155549   5.234  33.790   5.818
 4269POPC   GL255550   4.890  33.869   5.764
 4269POPC   C1A55551   5.117  34.052   6.177
 4269POPC   D2A55552   5.090  34.052   6.618
 4269POPC   C3A55553   5.144  33.636   6.786
 4269POPC   C4A55554   5.147  33.750   7.181
 4269POPC   C1B55555   4.793  33.668   6.188
 4269POPC   C2B55556   4.665  33.693   6.626
 4269POPC   C3B55557   4.733  33.477   7.033
 4269POPC   C4B55558   4.780  33.596   7.492
 4270POPC   NC355559  10.004  10.929   5.247
 4270POPC   PO455560  10.137  10.255   5.319
 4270POPC   GL155561   9.887  10.450   5.693
 4270POPC   GL255562   9.793  10.809   5.692
 4270POPC   C1A55563   9.750  10.341   6.139
 4270POPC   D2A55564   9.803  10.160   6.576
 4270POPC   C3A55565   9.741  10.413   6.958
 4270POPC   C4A55566   9.971  10.519   7.326
 4270POPC   C1B55567   9.662  10.831   6.109
 4270POPC   C2B55568   9.585  10.700   6.527
 4270POPC   C3B55569   9.636  10.912   6.895
 4270POPC   C4B55570   9.591  10.865   7.313
 4271POPC   NC355571  37.775  32.460   5.406
 4271POPC   PO455572  38.025  31.875   5.629
 4271POPC   GL155573  37.662  32.150   5.783
 4271POPC   GL255574  37.813  32.429   5.919
 4271POPC   C1A55575  37.437  32.199   6.178
 4271POPC   D2A55576  37.735  32.178   6.515
 4271POPC   C3A55577  37.590  32.328   6.896
 4271POPC   C4A55578  37.791  32.302   7.303
 4271POPC   C1B55579  37.689  32.633   6.294
 4271POPC   C2B55580  37.336  32.639   6.526
 4271POPC   C3B55581  37.338  32.848   6.890
 4271POPC   C4B55582  37.379  32.603   7.271
 4272POPC   NC355583  31.298  20.140   5.269
 4272POPC   PO455584  31.861  19.775   5.445
 4272POPC   GL155585  31.572  19.897   5.736
 4272POPC   GL255586  31.320  19.704   5.593
 4272POPC   C1A55587  31.558  20.052   6.172
 4272POPC   D2A55588  31.699  20.195   6.590
 4272POPC   C3A55589  31.527  19.966   6.935
 4272POPC   C4A55590  31.648  19.658   7.256
 4272POPC   C1B55591  31.338  19.581   6.052
 4272POPC   C2B55592  31.322  19.665   6.520
 4272POPC   C3B55593  31.214  19.558   6.974
 4272POPC   C4B55594  31.033  19.450   7.399
 4273POPC   NC355595  21.847  30.939   5.545
 4273POPC   PO455596  22.337  30.392   5.506
 4273POPC   GL155597  22.180  30.618   5.826
 4273POPC   GL255598  21.848  30.487   5.788
 4273POPC   C1A55599  22.286  30.808   6.228
 4273POPC   D2A55600  22.510  30.760   6.584
 4273POPC   C3A55601  22.279  30.653   6.910
 4273POPC   C4A55602  22.072  30.882   7.175
 4273POPC   C1B55603  21.805  30.689   6.193
 4273POPC   C2B55604  21.852  30.564   6.609
 4273POPC   C3B55605  21.665  30.581   7.023
 4273POPC   C4B55606  21.805  30.477   7.423
 4274POPC   NC355607  12.777  18.851   5.595
 4274POPC   PO455608  12.512  19.418   5.427
 4274POPC   GL155609  12.780  19.315   5.801
 4274POPC   GL255610  13.138  19.133   5.821
 4274POPC   C1A55611  12.939  19.370   6.222
 4274POPC   D2A55612  12.973  19.575   6.612
 4274POPC   C3A55613  12.767  19.371   6.951
 4274POPC   C4A55614  12.859  19.286   7.381
 4274POPC   C1B55615  12.935  18.852   6.199
 4274POPC   C2B55616  12.927  18.663   6.612
 4274POPC   C3B55617  12.771  18.609   7.033
 4274POPC   C4B55618  12.932  18.773   7.435
 4275POPC   NC355619  13.443  38.691   5.364
 4275POPC   PO455620  13.979  38.275   5.581
 4275POPC   GL155621  13.753  38.561   5.861
 4275POPC   GL255622  13.513  38.848   5.859
 4275POPC   C1A55623  13.703  38.408   6.278
 4275POPC   D2A55624  13.521  38.176   6.642
 4275POPC   C3A55625  13.656  38.345   7.056
 4275POPC   C4A55626  13.943  38.190   7.391
 4275POPC   C1B55627  13.560  38.913   6.289
 4275POPC   C2B55628  13.581  38.718   6.682
 4275POPC   C3B55629  13.735  38.841   7.066
 4275POPC   C4B55630  13.447  38.793   7.389
 4276POPC   NC355631  19.530  36.880   5.473
 4276POPC   PO455632  20.121  36.526   5.405
 4276POPC   GL155633  19.955  36.800   5.789
 4276POPC   GL255634  19.770  37.155   5.829
 4276POPC   C1A55635  19.665  36.813   6.168
 4276POPC   D2A55636  19.613  36.662   6.567
 4276POPC   C3A55637  19.925  36.673   6.859
 4276POPC   C4A55638  19.803  36.936   7.167
 4276POPC   C1B55639  19.843  37.314   6.262
 4276POPC   C2B55640  19.814  37.184   6.696
 4276POPC   C3B55641  19.949  37.419   7.053
 4276POPC   C4B55642  20.107  37.290   7.432
 4277POPC   NC355643  41.140  30.907   5.534
 4277POPC   PO455644  40.611  30.524   5.476
 4277POPC   GL155645  40.877  30.534   5.846
 4277POPC   GL255646  40.564  30.441   6.021
 4277POPC   C1A55647  41.041  30.807   6.215
 4277POPC   D2A55648  41.266  30.862   6.627
 4277POPC   C3A55649  41.077  30.533   6.851
 4277POPC   C4A55650  40.792  30.629   7.154
 4277POPC   C1B55651  40.538  30.827   6.282
 4277POPC   C2B55652  40.698  30.901   6.704
 4277POPC   C3B55653  40.392  30.909   7.015
 4277POPC   C4B55654  40.303  30.521   7.233
 4278POPC   NC355655  37.496  34.041   5.394
 4278POPC   PO455656  38.111  33.453   5.531
 4278POPC   GL155657  37.843  33.563   5.898
 4278POPC   GL255658  37.589  33.780   5.826
 4278POPC   C1A55659  37.721  33.603   6.336
 4278POPC   D2A55660  37.875  33.860   6.682
 4278POPC   C3A55661  37.794  33.701   7.075
 4278POPC   C4A55662  37.386  33.483   7.181
 4278POPC   C1B55663  37.371  34.105   6.063
 4278POPC   C2B55664  37.239  34.107   6.506
 4278POPC   C3B55665  37.437  34.051   6.923
 4278POPC   C4B55666  37.323  34.168   7.319
 4279POPC   NC355667  29.664   2.413   5.545
 4279POPC   PO455668  30.114   1.924   5.244
 4279POPC   GL155669  29.790   1.942   5.692
 4279POPC   GL255670  29.892   1.747   5.976
 4279POPC   C1A55671  29.840   2.246   6.132
 4279POPC   D2A55672  30.066   2.327   6.535
 4279POPC   C3A55673  29.835   2.306   6.916
 4279POPC   C4A55674  29.967   2.072   7.256
 4279POPC   C1B55675  29.634   1.541   6.266
 4279POPC   C2B55676  29.696   1.542   6.728
 4279POPC   C3B55677  30.072   1.629   7.024
 4279POPC   C4B55678  30.168   1.656   7.479
 4280POPC   NC355679  16.089  39.477   5.273
 4280POPC   PO455680  15.539  39.477   5.642
 4280POPC   GL155681  15.801  39.226   5.867
 4280POPC   GL255682  16.031  39.065   5.635
 4280POPC   C1A55683  15.906  39.313   6.307
 4280POPC   D2A55684  16.098  39.317   6.717
 4280POPC   C3A55685  15.835  39.095   7.043
 4280POPC   C4A55686  15.874  39.050   7.513
 4280POPC   C1B55687  16.187  38.951   6.083
 4280POPC   C2B55688  16.074  38.828   6.547
 4280POPC   C3B55689  16.302  38.899   6.958
 4280POPC   C4B55690  16.385  39.289   7.176
 4281POPC   NC355691  22.803  24.190   5.526
 4281POPC   PO455692  23.276  23.734   5.522
 4281POPC   GL155693  23.038  23.858   5.877
 4281POPC   GL255694  23.098  24.196   5.946
 4281POPC   C1A55695  22.827  23.660   6.227
 4281POPC   D2A55696  23.053  23.589   6.583
 4281POPC   C3A55697  22.921  23.577   7.006
 4281POPC   C4A55698  22.672  23.213   7.032
 4281POPC   C1B55699  23.113  24.067   6.372
 4281POPC   C2B55700  23.131  24.034   6.816
 4281POPC   C3B55701  23.218  23.930   7.243
 4281POPC   C4B55702  23.057  24.109   7.603
 4282POPC   NC355703  30.375   4.824   5.776
 4282POPC   PO455704  29.949   5.139   5.327
 4282POPC   GL155705  29.956   5.264   5.767
 4282POPC   GL255706  29.861   4.939   5.904
 4282POPC   C1A55707  30.087   5.325   6.215
 4282POPC   D2A55708  30.184   5.105   6.642
 4282POPC   C3A55709  30.091   5.337   7.033
 4282POPC   C4A55710  30.406   5.437   7.342
 4282POPC   C1B55711  29.628   4.790   6.294
 4282POPC   C2B55712  29.757   4.827   6.697
 4282POPC   C3B55713  29.944   4.828   7.086
 4282POPC   C4B55714  29.556   4.766   7.218
 4283POPC   NC355715  35.729  11.359   5.553
 4283POPC   PO455716  35.140  11.161   5.432
 4283POPC   GL155717  35.251  11.346   5.817
 4283POPC   GL255718  35.469  11.085   5.914
 4283POPC   C1A55719  35.392  11.573   6.192
 4283POPC   D2A55720  35.495  11.445   6.627
 4283POPC   C3A55721  35.223  11.584   6.992
 4283POPC   C4A55722  34.970  11.349   7.273
 4283POPC   C1B55723  35.212  11.093   6.297
 4283POPC   C2B55724  35.364  10.971   6.707
 4283POPC   C3B55725  35.494  11.122   7.090
 4283POPC   C4B55726  35.594  10.973   7.525
 4284POPC   NC355727  18.971  28.897   5.435
 4284POPC   PO455728  19.239  29.566   5.488
 4284POPC   GL155729  18.957  29.457   5.828
 4284POPC   GL255730  18.880  29.084   5.912
 4284POPC   C1A55731  19.134  29.396   6.244
 4284POPC   D2A55732  19.201  29.143   6.607
 4284POPC   C3A55733  19.056  29.281   6.998
 4284POPC   C4A55734  19.072  29.345   7.420
 4284POPC   C1B55735  18.744  29.066   6.372
 4284POPC   C2B55736  18.790  28.823   6.786
 4284POPC   C3B55737  18.833  28.875   7.266
 4284POPC   C4B55738  18.721  29.103   7.697
 4285POPC   NC355739  15.265   3.873   5.455
 4285POPC   PO455740  14.977   4.547   5.441
 4285POPC   GL155741  15.023   4.476   5.862
 4285POPC   GL255742  15.289   4.240   5.840
 4285POPC   C1A55743  15.232   4.532   6.278
 4285POPC   D2A55744  15.451   4.610   6.673
 4285POPC   C3A55745  15.304   4.343   6.980
 4285POPC   C4A55746  15.157   4.348   7.355
 4285POPC   C1B55747  15.407   4.012   6.222
 4285POPC   C2B55748  15.285   3.942   6.675
 4285POPC   C3B55749  15.022   3.911   7.088
 4285POPC   C4B55750  15.147   3.871   7.557
 4286POPC   NC355751  15.651  30.014   5.449
 4286POPC   PO455752  16.263  29.884   5.292
 4286POPC   GL155753  16.101  29.932   5.707
 4286POPC   GL255754  16.058  29.619   5.803
 4286POPC   C1A55755  16.010  29.981   6.189
 4286POPC   D2A55756  15.966  29.799   6.623
 4286POPC   C3A55757  15.847  30.028   7.026
 4286POPC   C4A55758  16.026  30.453   7.172
 4286POPC   C1B55759  16.262  29.518   6.206
 4286POPC   C2B55760  16.246  29.376   6.669
 4286POPC   C3B55761  16.204  29.562   7.128
 4286POPC   C4B55762  16.141  29.572   7.643
 4287POPC   NC355763  16.374  31.216   5.362
 4287POPC   PO455764  15.961  31.562   5.412
 4287POPC   GL155765  15.928  31.454   5.878
 4287POPC   GL255766  16.197  31.208   5.858
 4287POPC   C1A55767  15.776  31.515   6.362
 4287POPC   D2A55768  15.900  31.778   6.742
 4287POPC   C3A55769  16.056  31.562   7.081
 4287POPC   C4A55770  15.842  31.168   7.225
 4287POPC   C1B55771  16.239  31.314   6.303
 4287POPC   C2B55772  16.159  31.177   6.747
 4287POPC   C3B55773  16.348  31.120   7.174
 4287POPC   C4B55774  16.186  31.357   7.539
 4288POPC   NC355775  23.777  30.919   5.258
 4288POPC   PO455776  24.073  30.307   5.244
 4288POPC   GL155777  23.869  30.400   5.684
 4288POPC   GL255778  23.847  30.761   5.724
 4288POPC   C1A55779  23.635  30.512   6.114
 4288POPC   D2A55780  23.864  30.676   6.498
 4288POPC   C3A55781  23.863  30.511   6.936
 4288POPC   C4A55782  23.596  30.522   7.276
 4288POPC   C1B55783  23.746  31.009   6.073
 4288POPC   C2B55784  23.450  30.950   6.392
 4288POPC   C3B55785  23.547  30.918   6.828
 4288POPC   C4B55786  23.881  30.971   7.135
 4289POPC   NC355787  23.850   1.972   5.445
 4289POPC   PO455788  23.430   2.563   5.487
 4289POPC   GL155789  23.531   2.154   5.823
 4289POPC   GL255790  23.585   1.740   5.833
 4289POPC   C1A55791  23.743   2.030   6.250
 4289POPC   D2A55792  23.838   2.231   6.663
 4289POPC   C3A55793  23.921   2.038   7.078
 4289POPC   C4A55794  23.912   2.360   7.393
 4289POPC   C1B55795  23.304   1.778   6.168
 4289POPC   C2B55796  23.279   1.950   6.569
 4289POPC   C3B55797  23.291   1.795   6.983
 4289POPC   C4B55798  23.311   1.971   7.381
 4290POPC   NC355799  33.532  27.859   5.391
 4290POPC   PO455800  34.075  27.393   5.194
 4290POPC   GL155801  33.822  27.489   5.696
 4290POPC   GL255802  33.594  27.763   5.870
 4290POPC   C1A55803  33.928  27.590   6.193
 4290POPC   D2A55804  33.852  27.874   6.520
 4290POPC   C3A55805  33.923  27.701   6.886
 4290POPC   C4A55806  33.721  27.449   7.213
 4290POPC   C1B55807  33.411  27.705   6.276
 4290POPC   C2B55808  33.241  27.670   6.693
 4290POPC   C3B55809  33.463  27.866   7.008
 4290POPC   C4B55810  33.759  27.956   7.283
 4291POPC   NC355811  18.377  40.699   5.321
 4291POPC   PO455812  17.663  40.797   5.497
 4291POPC   GL155813  18.073  40.725   5.765
 4291POPC   GL255814  18.458  40.841   5.793
 4291POPC   C1A55815  18.227  40.690   6.210
 4291POPC   D2A55816  18.388  40.493   6.564
 4291POPC   C3A55817  18.364  40.726   6.885
 4291POPC   C4A55818  18.215  40.704   7.251
 4291POPC   C1B55819  18.555  41.085   6.151
 4291POPC   C2B55820  18.464  41.227   6.564
 4291POPC   C3B55821  18.458  41.211   6.989
 4291POPC   C4B55822  18.515  41.099   7.381
 4292POPC   NC355823  25.573  31.631   5.373
 4292POPC   PO455824  24.887  31.691   5.403
 4292POPC   GL155825  25.167  31.591   5.750
 4292POPC   GL255826  25.440  31.838   5.797
 4292POPC   C1A55827  25.296  31.519   6.183
 4292POPC   D2A55828  25.527  31.547   6.570
 4292POPC   C3A55829  25.280  31.593   6.944
 4292POPC   C4A55830  25.069  31.334   7.195
 4292POPC   C1B55831  25.710  31.806   6.133
 4292POPC   C2B55832  25.633  32.052   6.487
 4292POPC   C3B55833  25.632  31.962   6.904
 4292POPC   C4B55834  25.602  31.793   7.292
 4293POPC   NC355835  23.421   8.210   5.329
 4293POPC   PO455836  23.956   8.079   5.742
 4293POPC   GL155837  23.499   8.069   5.814
 4293POPC   GL255838  23.488   8.425   5.795
 4293POPC   C1A55839  23.380   8.038   6.233
 4293POPC   D2A55840  23.739   8.076   6.530
 4293POPC   C3A55841  23.599   7.988   6.967
 4293POPC   C4A55842  23.272   7.818   7.206
 4293POPC   C1B55843  23.594   8.505   6.221
 4293POPC   C2B55844  23.383   8.407   6.635
 4293POPC   C3B55845  23.467   8.482   7.050
 4293POPC   C4B55846  23.483   8.889   7.218
 4294POPC   NC355847  32.960  44.087   5.334
 4294POPC   PO455848  32.716  43.494   5.584
 4294POPC   GL155849  33.022  43.766   5.754
 4294POPC   GL255850  33.343  43.671   5.575
 4294POPC   C1A55851  33.008  43.920   6.184
 4294POPC   D2A55852  32.805  43.757   6.550
 4294POPC   C3A55853  32.951  43.909   6.937
 4294POPC   C4A55854  32.776  43.982   7.330
 4294POPC   C1B55855  33.430  43.624   6.040
 4294POPC   C2B55856  33.407  43.707   6.496
 4294POPC   C3B55857  33.376  43.615   6.954
 4294POPC   C4B55858  33.281  43.836   7.347
 4295POPC   NC355859   4.594  11.070   5.276
 4295POPC   PO455860   3.867  11.299   5.264
 4295POPC   GL155861   4.181  11.218   5.630
 4295POPC   GL255862   4.375  11.520   5.742
 4295POPC   C1A55863   4.261  11.174   6.131
 4295POPC   D2A55864   4.443  11.321   6.587
 4295POPC   C3A55865   4.322  11.216   7.054
 4295POPC   C4A55866   3.921  11.081   7.272
 4295POPC   C1B55867   4.493  11.684   6.174
 4295POPC   C2B55868   4.550  11.827   6.619
 4295POPC   C3B55869   4.437  11.701   7.032
 4295POPC   C4B55870   4.630  11.447   7.399
 4296POPC   NC355871  42.791  11.061   5.430
 4296POPC   PO455872  43.382  11.398   5.348
 4296POPC   GL155873  43.162  11.265   5.720
 4296POPC   GL255874  43.337  10.934   5.733
 4296POPC   C1A55875  42.941  11.347   6.146
 4296POPC   D2A55876  43.016  11.551   6.580
 4296POPC   C3A55877  42.877  11.391   7.002
 4296POPC   C4A55878  43.062  11.246   7.413
 4296POPC   C1B55879  43.419  11.158   6.143
 4296POPC   C2B55880  43.289  11.119   6.561
 4296POPC   C3B55881  43.371  11.250   6.977
 4296POPC   C4B55882  43.529  11.077   7.357
 4297POPC   NC355883  32.690  12.099   5.075
 4297POPC   PO455884  32.045  12.071   5.423
 4297POPC   GL155885  32.184  12.059   5.791
 4297POPC   GL255886  32.518  12.019   5.642
 4297POPC   C1A55887  31.980  12.035   6.202
 4297POPC   D2A55888  31.819  12.073   6.624
 4297POPC   C3A55889  32.172  11.975   6.907
 4297POPC   C4A55890  32.224  12.175   7.275
 4297POPC   C1B55891  32.575  11.937   6.102
 4297POPC   C2B55892  32.510  12.100   6.529
 4297POPC   C3B55893  32.613  12.271   6.954
 4297POPC   C4B55894  32.679  11.960   7.291
 4298POPC   NC355895  18.623  19.913   5.549
 4298POPC   PO455896  18.126  19.527   5.270
 4298POPC   GL155897  18.148  19.562   5.717
 4298POPC   GL255898  17.921  19.825   5.760
 4298POPC   C1A55899  18.375  19.574   6.128
 4298POPC   D2A55900  18.706  19.739   6.456
 4298POPC   C3A55901  18.545  19.774   6.901
 4298POPC   C4A55902  18.365  19.680   7.305
 4298POPC   C1B55903  17.800  19.624   6.162
 4298POPC   C2B55904  17.914  19.569   6.619
 4298POPC   C3B55905  17.986  19.848   7.002
 4298POPC   C4B55906  17.809  20.142   7.327
 4299POPC   NC355907  37.017  16.086   5.356
 4299POPC   PO455908  36.487  15.643   5.547
 4299POPC   GL155909  36.803  15.891   5.811
 4299POPC   GL255910  36.783  16.245   5.813
 4299POPC   C1A55911  36.956  16.001   6.243
 4299POPC   D2A55912  36.792  16.005   6.679
 4299POPC   C3A55913  36.802  15.642   6.974
 4299POPC   C4A55914  37.123  15.574   7.309
 4299POPC   C1B55915  36.539  16.402   6.216
 4299POPC   C2B55916  36.426  16.389   6.681
 4299POPC   C3B55917  36.690  16.344   7.069
 4299POPC   C4B55918  37.002  16.054   7.151
 4300POPC   NC355919  38.281  24.799   5.341
 4300POPC   PO455920  38.124  24.115   5.397
 4300POPC   GL155921  38.317  24.439   5.722
 4300POPC   GL255922  38.253  24.812   5.837
 4300POPC   C1A55923  38.548  24.514   6.113
 4300POPC   D2A55924  38.605  24.591   6.568
 4300POPC   C3A55925  38.462  24.443   6.990
 4300POPC   C4A55926  38.666  24.263   7.383
 4300POPC   C1B55927  38.133  24.821   6.278
 4300POPC   C2B55928  38.245  24.913   6.720
 4300POPC   C3B55929  38.059  24.728   7.087
 4300POPC   C4B55930  38.276  24.579   7.481
 4301POPC   NC355931  39.160  12.655   5.410
 4301POPC   PO455932  39.491  13.271   5.320
 4301POPC   GL155933  39.424  12.984   5.732
 4301POPC   GL255934  39.106  12.817   5.877
 4301POPC   C1A55935  39.479  12.801   6.187
 4301POPC   D2A55936  39.183  12.775   6.526
 4301POPC   C3A55937  39.388  12.767   6.890
 4301POPC   C4A55938  39.536  12.685   7.284
 4301POPC   C1B55939  38.997  12.471   6.170
 4301POPC   C2B55940  38.738  12.499   6.528
 4301POPC   C3B55941  38.900  12.550   6.934
 4301POPC   C4B55942  39.050  12.720   7.285
 4302POPC   NC355943  12.054  32.688   5.329
 4302POPC   PO455944  11.662  33.243   5.368
 4302POPC   GL155945  11.824  33.071   5.721
 4302POPC   GL255946  11.712  32.727   5.736
 4302POPC   C1A55947  11.933  33.276   6.121
 4302POPC   D2A55948  12.155  33.137   6.495
 4302POPC   C3A55949  12.076  33.227   6.923
 4302POPC   C4A55950  12.336  33.155   7.283
 4302POPC   C1B55951  11.908  32.746   6.159
 4302POPC   C2B55952  11.934  32.672   6.610
 4302POPC   C3B55953  12.049  32.698   7.028
 4302POPC   C4B55954  12.144  32.346   7.247
 4303POPC   NC355955  41.879  25.032   5.522
 4303POPC   PO455956  42.641  24.892   5.409
 4303POPC   GL155957  42.513  25.054   5.820
 4303POPC   GL255958  42.660  25.381   5.943
 4303POPC   C1A55959  42.294  24.998   6.221
 4303POPC   D2A55960  42.348  25.224   6.616
 4303POPC   C3A55961  42.023  25.398   6.862
 4303POPC   C4A55962  42.119  25.601   7.247
 4303POPC   C1B55963  42.788  25.177   6.319
 4303POPC   C2B55964  42.842  25.363   6.735
 4303POPC   C3B55965  42.596  25.280   7.102
 4303POPC   C4B55966  42.269  24.998   7.095
 4304POPC   NC355967  16.327  42.398   5.407
 4304POPC   PO455968  15.675  42.553   5.372
 4304POPC   GL155969  15.912  42.428   5.725
 4304POPC   GL255970  15.661  42.379   5.893
 4304POPC   C1A55971  16.112  42.297   6.148
 4304POPC   D2A55972  15.974  42.217   6.591
 4304POPC   C3A55973  16.177  42.433   6.948
 4304POPC   C4A55974  15.876  42.547   7.255
 4304POPC   C1B55975  15.458  42.189   6.172
 4304POPC   C2B55976  15.359  42.189   6.570
 4304POPC   C3B55977  15.552  42.310   6.927
 4304POPC   C4B55978  15.474  42.148   7.300
 4305POPC   NC355979  43.205   2.291   5.470
 4305POPC   PO455980  42.871   1.741   5.329
 4305POPC   GL155981  43.080   1.856   5.694
 4305POPC   GL255982  42.856   2.107   5.790
 4305POPC   C1A55983  43.142   1.874   6.154
 4305POPC   D2A55984  43.211   1.669   6.557
 4305POPC   C3A55985  43.210   1.999   6.889
 4305POPC   C4A55986  43.425   2.288   7.175
 4305POPC   C1B55987  42.663   1.760   6.007
 4305POPC   C2B55988  42.699   1.723   6.466
 4305POPC   C3B55989  42.695   1.920   6.880
 4305POPC   C4B55990  42.873   2.023   7.281
 4306POPC   NC355991   3.352  33.408   5.350
 4306POPC   PO455992   3.354  34.056   5.279
 4306POPC   GL155993   3.553  33.821   5.641
 4306POPC   GL255994   3.257  33.655   5.811
 4306POPC   C1A55995   3.701  33.720   6.073
 4306POPC   D2A55996   3.404  33.741   6.431
 4306POPC   C3A55997   3.527  33.808   6.852
 4306POPC   C4A55998   3.214  33.802   7.188
 4306POPC   C1B55999   3.318  33.328   6.138
 4306POPC   C2B56000   3.553  33.258   6.531
 4306POPC   C3B56001   3.416  33.342   6.961
 4306POPC   C4B56002   3.391  33.379   7.403
 4307POPC   NC356003  40.759  10.365   5.146
 4307POPC   PO456004  40.642  10.955   5.432
 4307POPC   GL156005  40.823  10.800   5.861
 4307POPC   GL256006  40.930  10.433   5.905
 4307POPC   C1A56007  40.860  10.734   6.304
 4307POPC   D2A56008  40.651  10.865   6.659
 4307POPC   C3A56009  40.858  10.842   7.022
 4307POPC   C4A56010  40.761  10.779   7.435
 4307POPC   C1B56011  40.765  10.239   6.325
 4307POPC   C2B56012  40.784  10.372   6.763
 4307POPC   C3B56013  40.992  10.354   7.176
 4307POPC   C4B56014  40.930  10.359   7.642
 4308POPC   NC356015  39.478  25.625   5.532
 4308POPC   PO456016  39.469  24.971   5.373
 4308POPC   GL156017  39.277  25.161   5.807
 4308POPC   GL256018  39.318  25.501   5.987
 4308POPC   C1A56019  39.153  25.124   6.273
 4308POPC   D2A56020  39.236  25.286   6.694
 4308POPC   C3A56021  39.409  25.005   6.981
 4308POPC   C4A56022  39.125  24.843   7.255
 4308POPC   C1B56023  39.062  25.664   6.334
 4308POPC   C2B56024  38.800  25.636   6.730
 4308POPC   C3B56025  38.894  25.381   7.122
 4308POPC   C4B56026  39.308  25.371   7.309
 4309POPC   NC356027  41.397   9.891   5.464
 4309POPC   PO456028  40.723   9.938   5.308
 4309POPC   GL156029  40.847   9.725   5.685
 4309POPC   GL256030  40.701   9.979   5.898
 4309POPC   C1A56031  40.756   9.531   6.110
 4309POPC   D2A56032  40.643   9.759   6.491
 4309POPC   C3A56033  40.495   9.534   6.844
 4309POPC   C4A56034  40.674   9.467   7.237
 4309POPC   C1B56035  41.117   9.903   6.102
 4309POPC   C2B56036  41.236   9.831   6.531
 4309POPC   C3B56037  40.980   9.737   6.901
 4309POPC   C4B56038  40.652   9.963   7.061
 4310POPC   NC356039   4.216  17.469   5.413
 4310POPC   PO456040   4.906  17.356   5.339
 4310POPC   GL156041   4.607  17.317   5.759
 4310POPC   GL256042   4.401  17.644   5.834
 4310POPC   C1A56043   4.401  17.312   6.204
 4310POPC   D2A56044   4.338  17.614   6.544
 4310POPC   C3A56045   4.362  17.360   6.911
 4310POPC   C4A56046   4.506  17.301   7.311
 4310POPC   C1B56047   4.021  17.671   6.115
 4310POPC   C2B56048   3.828  17.635   6.540
 4310POPC   C3B56049   3.985  17.695   6.970
 4310POPC   C4B56050   3.931  17.883   7.374
 4311POPC   NC356051  23.401  39.514   5.427
 4311POPC   PO456052  23.577  40.167   5.565
 4311POPC   GL156053  23.743  39.953   5.918
 4311POPC   GL256054  23.671  39.610   5.903
 4311POPC   C1A56055  23.737  39.909   6.379
 4311POPC   D2A56056  23.470  40.002   6.691
 4311POPC   C3A56057  23.642  39.978   7.060
 4311POPC   C4A56058  23.687  40.255   7.364
 4311POPC   C1B56059  23.363  39.610   6.244
 4311POPC   C2B56060  23.456  39.480   6.673
 4311POPC   C3B56061  23.286  39.581   7.076
 4311POPC   C4B56062  23.404  39.731   7.466
 4312POPC   NC356063  19.139  15.821   5.316
 4312POPC   PO456064  18.513  16.075   5.161
 4312POPC   GL156065  18.853  16.135   5.616
 4312POPC   GL256066  19.083  16.349   5.877
 4312POPC   C1A56067  18.898  15.902   6.070
 4312POPC   D2A56068  18.743  15.877   6.516
 4312POPC   C3A56069  18.656  15.942   6.962
 4312POPC   C4A56070  18.742  15.809   7.378
 4312POPC   C1B56071  19.358  16.039   6.173
 4312POPC   C2B56072  19.237  15.791   6.556
 4312POPC   C3B56073  19.171  15.805   7.012
 4312POPC   C4B56074  19.223  16.129   7.308
 4313POPC   NC356075  28.902  24.541   5.281
 4313POPC   PO456076  29.486  24.531   5.572
 4313POPC   GL156077  29.096  24.591   5.812
 4313POPC   GL256078  28.888  24.310   5.736
 4313POPC   C1A56079  28.991  24.550   6.272
 4313POPC   D2A56080  29.007  24.771   6.636
 4313POPC   C3A56081  29.169  24.636   7.024
 4313POPC   C4A56082  28.810  24.705   7.213
 4313POPC   C1B56083  28.949  24.082   6.106
 4313POPC   C2B56084  28.982  24.091   6.542
 4313POPC   C3B56085  28.962  23.958   6.985
 4313POPC   C4B56086  29.045  24.247   7.337
 4314POPC   NC356087   3.308  31.765   5.481
 4314POPC   PO456088   3.749  31.294   5.163
 4314POPC   GL156089   3.709  31.329   5.627
 4314POPC   GL256090   3.371  31.347   5.775
 4314POPC   C1A56091   3.788  31.337   6.113
 4314POPC   D2A56092   3.813  31.486   6.570
 4314POPC   C3A56093   3.573  31.554   6.992
 4314POPC   C4A56094   3.802  31.584   7.391
 4314POPC   C1B56095   3.317  31.140   6.189
 4314POPC   C2B56096   3.439  31.141   6.623
 4314POPC   C3B56097   3.653  31.062   7.032
 4314POPC   C4B56098   3.485  31.175   7.431
 4315POPC   NC356099  27.799  13.317   5.267
 4315POPC   PO456100  27.332  13.749   5.350
 4315POPC   GL156101  27.625  13.622   5.703
 4315POPC   GL256102  27.662  13.288   5.818
 4315POPC   C1A56103  27.573  13.661   6.174
 4315POPC   D2A56104  27.429  13.563   6.621
 4315POPC   C3A56105  27.698  13.542   7.008
 4315POPC   C4A56106  27.816  13.913   7.298
 4315POPC   C1B56107  27.407  13.183   6.182
 4315POPC   C2B56108  27.173  13.135   6.549
 4315POPC   C3B56109  27.328  13.183   6.997
 4315POPC   C4B56110  27.310  13.256   7.446
 4316POPC   NC356111  12.154  27.662   5.401
 4316POPC   PO456112  11.712  27.250   5.395
 4316POPC   GL156113  12.134  27.279   5.741
 4316POPC   GL256114  12.099  27.603   5.915
 4316POPC   C1A56115  12.373  27.301   6.203
 4316POPC   D2A56116  12.136  27.418   6.602
 4316POPC   C3A56117  12.267  27.605   7.033
 4316POPC   C4A56118  12.141  27.761   7.468
 4316POPC   C1B56119  12.294  27.816   6.289
 4316POPC   C2B56120  12.330  27.989   6.720
 4316POPC   C3B56121  12.064  28.089   7.092
 4316POPC   C4B56122  11.824  28.249   7.461
 4317POPC   NC356123  24.850   7.410   5.379
 4317POPC   PO456124  24.183   7.164   5.488
 4317POPC   GL156125  24.366   7.151   5.867
 4317POPC   GL256126  24.700   7.319   5.869
 4317POPC   C1A56127  24.380   7.256   6.292
 4317POPC   D2A56128  24.167   7.287   6.668
 4317POPC   C3A56129  24.435   7.118   6.988
 4317POPC   C4A56130  24.534   7.289   7.365
 4317POPC   C1B56131  24.693   7.659   6.192
 4317POPC   C2B56132  24.576   7.636   6.634
 4317POPC   C3B56133  24.538   7.714   7.083
 4317POPC   C4B56134  24.886   7.682   7.382
 4318POPC   NC356135  10.041  19.842   5.537
 4318POPC   PO456136   9.456  20.153   5.364
 4318POPC   GL156137   9.491  19.939   5.801
 4318POPC   GL256138   9.830  19.902   5.998
 4318POPC   C1A56139   9.392  19.792   6.247
 4318POPC   D2A56140   9.592  19.658   6.646
 4318POPC   C3A56141   9.328  19.758   6.989
 4318POPC   C4A56142   9.351  19.933   7.383
 4318POPC   C1B56143   9.919  20.216   6.313
 4318POPC   C2B56144   9.976  20.157   6.740
 4318POPC   C3B56145   9.795  20.052   7.128
 4318POPC   C4B56146   9.786  19.663   7.327
 4319POPC   NC356147  42.320  43.649   5.324
 4319POPC   PO456148  42.587  44.226   5.535
 4319POPC   GL156149  42.294  43.955   5.755
 4319POPC   GL256150  42.554  43.745   5.814
 4319POPC   C1A56151  42.091  43.647   6.050
 4319POPC   D2A56152  41.952  43.802   6.433
 4319POPC   C3A56153  41.957  43.699   6.861
 4319POPC   C4A56154  42.240  43.742   7.181
 4319POPC   C1B56155  42.515  43.862   6.237
 4319POPC   C2B56156  42.431  43.727   6.652
 4319POPC   C3B56157  42.468  44.086   6.887
 4319POPC   C4B56158  42.780  44.265   7.094
 4320POPC   NC356159  33.631  16.298   5.471
 4320POPC   PO456160  33.916  16.953   5.345
 4320POPC   GL156161  33.823  17.018   5.779
 4320POPC   GL256162  33.796  16.670   5.798
 4320POPC   C1A56163  33.525  16.933   6.140
 4320POPC   D2A56164  33.557  16.720   6.517
 4320POPC   C3A56165  33.491  16.924   6.887
 4320POPC   C4A56166  33.441  16.763   7.284
 4320POPC   C1B56167  33.993  16.646   6.204
 4320POPC   C2B56168  33.920  16.362   6.559
 4320POPC   C3B56169  33.719  16.454   6.956
 4320POPC   C4B56170  33.914  16.849   7.161
 4321POPC   NC356171  26.607   5.966   5.058
 4321POPC   PO456172  27.177   5.957   5.452
 4321POPC   GL156173  27.035   6.058   5.909
 4321POPC   GL256174  26.663   6.018   5.940
 4321POPC   C1A56175  26.954   6.002   6.366
 4321POPC   D2A56176  26.636   5.746   6.605
 4321POPC   C3A56177  26.674   5.731   7.065
 4321POPC   C4A56178  27.067   5.699   7.303
 4321POPC   C1B56179  26.468   6.155   6.321
 4321POPC   C2B56180  26.605   6.240   6.738
 4321POPC   C3B56181  26.591   6.285   7.163
 4321POPC   C4B56182  26.559   6.009   7.503
 4322POPC   NC356183  33.725  11.104   5.438
 4322POPC   PO456184  33.374  11.673   5.316
 4322POPC   GL156185  33.600  11.492   5.722
 4322POPC   GL256186  33.885  11.593   5.814
 4322POPC   C1A56187  33.804  11.156   6.084
 4322POPC   D2A56188  33.812  10.855   6.465
 4322POPC   C3A56189  33.885  11.029   6.898
 4322POPC   C4A56190  33.756  11.029   7.324
 4322POPC   C1B56191  34.001  11.638   6.209
 4322POPC   C2B56192  33.946  11.767   6.615
 4322POPC   C3B56193  34.163  11.778   6.983
 4322POPC   C4B56194  33.945  11.498   7.247
 4323POPC   NC356195  44.046  18.360   5.416
 4323POPC   PO456196  44.688  18.278   5.390
 4323POPC   GL156197  44.520  18.193   5.779
 4323POPC   GL256198  44.199  17.988   5.715
 4323POPC   C1A56199  44.616  18.395   6.183
 4323POPC   D2A56200  44.833  18.618   6.501
 4323POPC   C3A56201  44.597  18.461   6.820
 4323POPC   C4A56202  44.533  18.341   7.221
 4323POPC   C1B56203  44.139  18.196   6.116
 4323POPC   C2B56204  44.338  18.099   6.502
 4323POPC   C3B56205  44.197  18.118   6.911
 4323POPC   C4B56206  44.328  17.886   7.262
 4324POPC   NC356207  22.030  22.045   5.287
 4324POPC   PO456208  22.577  22.357   5.295
 4324POPC   GL156209  22.385  22.064   5.692
 4324POPC   GL256210  22.042  22.131   5.827
 4324POPC   C1A56211  22.340  21.867   6.150
 4324POPC   D2A56212  22.258  22.023   6.607
 4324POPC   C3A56213  22.335  21.890   7.072
 4324POPC   C4A56214  22.159  22.029   7.507
 4324POPC   C1B56215  22.199  22.379   6.221
 4324POPC   C2B56216  22.139  22.509   6.682
 4324POPC   C3B56217  22.113  22.363   7.119
 4324POPC   C4B56218  22.148  22.552   7.555
 4325POPC   NC356219  22.787  37.259   5.502
 4325POPC   PO456220  22.641  36.518   5.585
 4325POPC   GL156221  22.849  36.855   5.855
 4325POPC   GL256222  23.146  37.114   5.862
 4325POPC   C1A56223  23.039  36.812   6.265
 4325POPC   D2A56224  23.186  36.597   6.623
 4325POPC   C3A56225  22.926  36.711   6.963
 4325POPC   C4A56226  22.719  36.830   7.322
 4325POPC   C1B56227  23.396  37.206   6.286
 4325POPC   C2B56228  23.330  37.110   6.738
 4325POPC   C3B56229  23.150  37.111   7.177
 4325POPC   C4B56230  22.885  37.273   7.502
 4326POPC   NC356231  23.238   8.901   5.419
 4326POPC   PO456232  22.626   8.686   5.306
 4326POPC   GL156233  22.768   8.968   5.717
 4326POPC   GL256234  23.147   9.091   5.867
 4326POPC   C1A56235  22.815   8.888   6.186
 4326POPC   D2A56236  23.202   8.878   6.503
 4326POPC   C3A56237  23.065   8.805   6.938
 4326POPC   C4A56238  22.930   8.755   7.399
 4326POPC   C1B56239  23.078   9.314   6.271
 4326POPC   C2B56240  22.967   9.267   6.752
 4326POPC   C3B56241  23.108   9.217   7.216
 4326POPC   C4B56242  22.813   9.208   7.620
 4327POPC   NC356243  35.456  20.082   5.219
 4327POPC   PO456244  35.687  19.627   5.588
 4327POPC   GL156245  35.489  19.715   5.934
 4327POPC   GL256246  35.380  20.020   5.878
 4327POPC   C1A56247  35.383  19.818   6.350
 4327POPC   D2A56248  35.474  19.888   6.768
 4327POPC   C3A56249  35.242  19.584   7.025
 4327POPC   C4A56250  35.162  19.577   7.490
 4327POPC   C1B56251  35.011  20.126   6.167
 4327POPC   C2B56252  34.985  20.089   6.628
 4327POPC   C3B56253  35.098  20.130   7.046
 4327POPC   C4B56254  35.033  20.071   7.457
 4328POPC   NC356255  39.105  22.379   5.513
 4328POPC   PO456256  39.624  21.953   5.375
 4328POPC   GL156257  39.481  22.129   5.774
 4328POPC   GL256258  39.194  21.893   5.804
 4328POPC   C1A56259  39.585  22.367   6.174
 4328POPC   D2A56260  39.401  22.414   6.583
 4328POPC   C3A56261  39.195  22.084   6.800
 4328POPC   C4A56262  39.323  22.131   7.207
 4328POPC   C1B56263  39.158  22.039   6.244
 4328POPC   C2B56264  38.832  22.272   6.473
 4328POPC   C3B56265  38.735  22.354   6.882
 4328POPC   C4B56266  38.825  22.015   7.175
 4329POPC   NC356267   0.061  30.232   4.984
 4329POPC   PO456268   0.375  29.793   5.469
 4329POPC   GL156269   0.577  29.982   5.820
 4329POPC   GL256270   0.267  30.112   5.935
 4329POPC   C1A56271   0.650  29.988   6.278
 4329POPC   D2A56272   0.811  29.778   6.641
 4329POPC   C3A56273   0.597  29.934   7.009
 4329POPC   C4A56274   0.308  30.175   7.257
 4329POPC   C1B56275   0.212  29.725   6.149
 4329POPC   C2B56276   0.271  29.618   6.562
 4329POPC   C3B56277   0.080  29.612   6.945
 4329POPC   C4B56278   0.259  29.682   7.318
 4330POPC   NC356279  44.257  30.316   5.336
 4330POPC   PO456280  43.865  30.911   5.428
 4330POPC   GL156281  43.854  30.585   5.740
 4330POPC   GL256282  43.569  30.772   5.840
 4330POPC   C1A56283  43.999  30.648   6.152
 4330POPC   D2A56284  44.184  30.709   6.541
 4330POPC   C3A56285  43.921  30.742   6.895
 4330POPC   C4A56286  44.108  30.946   7.205
 4330POPC   C1B56287  43.759  31.093   6.107
 4330POPC   C2B56288  43.672  30.943   6.501
 4330POPC   C3B56289  43.446  31.045   6.872
 4330POPC   C4B56290  43.542  30.961   7.276
 4331POPC   NC356291   1.785  39.548   5.254
 4331POPC   PO456292   1.837  38.958   5.553
 4331POPC   GL156293   1.699  39.246   5.823
 4331POPC   GL256294   2.029  39.329   5.896
 4331POPC   C1A56295   1.694  39.145   6.254
 4331POPC   D2A56296   1.860  39.002   6.646
 4331POPC   C3A56297   1.747  39.187   7.012
 4331POPC   C4A56298   1.996  39.413   7.290
 4331POPC   C1B56299   2.191  39.018   6.217
 4331POPC   C2B56300   2.373  38.985   6.644
 4331POPC   C3B56301   2.254  39.020   7.108
 4331POPC   C4B56302   2.289  39.105   7.607
 4332POPC   NC356303  42.135  26.665   5.208
 4332POPC   PO456304  42.604  26.706   5.674
 4332POPC   GL156305  42.533  26.954   6.008
 4332POPC   GL256306  42.178  26.933   5.920
 4332POPC   C1A56307  42.343  26.750   6.384
 4332POPC   D2A56308  42.314  26.302   6.540
 4332POPC   C3A56309  42.434  26.320   6.956
 4332POPC   C4A56310  42.213  26.608   7.201
 4332POPC   C1B56311  42.167  27.235   6.233
 4332POPC   C2B56312  42.264  27.205   6.612
 4332POPC   C3B56313  42.226  27.054   6.981
 4332POPC   C4B56314  42.060  27.255   7.330
 4333POPC   NC356315   7.672  10.313   5.473
 4333POPC   PO456316   7.378  10.930   5.463
 4333POPC   GL156317   7.544  10.750   5.818
 4333POPC   GL256318   7.411  10.421   5.896
 4333POPC   C1A56319   7.586  10.758   6.252
 4333POPC   D2A56320   7.594  10.556   6.656
 4333POPC   C3A56321   7.648  10.807   7.044
 4333POPC   C4A56322   7.546  10.678   7.451
 4333POPC   C1B56323   7.230  10.386   6.302
 4333POPC   C2B56324   7.075  10.411   6.710
 4333POPC   C3B56325   7.318  10.399   7.070
 4333POPC   C4B56326   7.134  10.400   7.444
 4334POPC   NC356327  33.912   3.340   5.522
 4334POPC   PO456328  33.893   2.734   5.301
 4334POPC   GL156329  33.859   2.721   5.748
 4334POPC   GL256330  33.700   3.020   5.850
 4334POPC   C1A56331  33.732   2.645   6.182
 4334POPC   D2A56332  33.415   2.525   6.380
 4334POPC   C3A56333  33.481   2.573   6.811
 4334POPC   C4A56334  33.878   2.615   7.001
 4334POPC   C1B56335  33.752   3.216   6.218
 4334POPC   C2B56336  33.956   3.078   6.593
 4334POPC   C3B56337  33.718   3.108   6.959
 4334POPC   C4B56338  33.675   2.927   7.353
 4335POPC   NC356339  40.308  16.315   5.543
 4335POPC   PO456340  39.965  15.828   5.354
 4335POPC   GL156341  39.932  16.008   5.760
 4335POPC   GL256342  39.590  16.174   5.744
 4335POPC   C1A56343  40.148  15.907   6.174
 4335POPC   D2A56344  39.981  15.700   6.549
 4335POPC   C3A56345  40.122  15.895   6.922
 4335POPC   C4A56346  40.165  15.617   7.250
 4335POPC   C1B56347  39.648  16.042   6.194
 4335POPC   C2B56348  39.849  16.194   6.571
 4335POPC   C3B56349  39.729  16.252   7.030
 4335POPC   C4B56350  39.780  15.925   7.366
 4336POPC   NC356351  24.212  19.736   5.447
 4336POPC   PO456352  24.894  19.836   5.386
 4336POPC   GL156353  24.710  20.120   5.709
 4336POPC   GL256354  24.333  20.105   5.781
 4336POPC   C1A56355  24.766  20.073   6.150
 4336POPC   D2A56356  24.801  20.243   6.568
 4336POPC   C3A56357  24.592  19.959   6.813
 4336POPC   C4A56358  24.647  19.795   7.204
 4336POPC   C1B56359  24.235  19.934   6.215
 4336POPC   C2B56360  24.062  19.844   6.655
 4336POPC   C3B56361  24.153  19.898   7.107
 4336POPC   C4B56362  24.232  19.761   7.548
 4337POPC   NC356363  36.275   9.965   5.330
 4337POPC   PO456364  35.810   9.489   5.441
 4337POPC   GL156365  36.028   9.651   5.810
 4337POPC   GL256366  36.053  10.006   5.819
 4337POPC   C1A56367  35.937   9.767   6.271
 4337POPC   D2A56368  35.808   9.712   6.739
 4337POPC   C3A56369  36.067   9.688   7.089
 4337POPC   C4A56370  36.385   9.401   7.252
 4337POPC   C1B56371  36.269  10.151   6.229
 4337POPC   C2B56372  36.237  10.073   6.675
 4337POPC   C3B56373  36.497   9.960   7.007
 4337POPC   C4B56374  36.394   9.870   7.442
 4338POPC   NC356375   4.897  35.850   5.461
 4338POPC   PO456376   5.064  36.533   5.477
 4338POPC   GL156377   5.194  36.158   5.745
 4338POPC   GL256378   4.919  35.972   5.962
 4338POPC   C1A56379   5.449  35.911   6.045
 4338POPC   D2A56380   5.451  35.761   6.468
 4338POPC   C3A56381   5.280  36.061   6.758
 4338POPC   C4A56382   5.076  35.918   7.108
 4338POPC   C1B56383   5.144  36.294   6.234
 4338POPC   C2B56384   5.136  36.576   6.574
 4338POPC   C3B56385   4.858  36.448   6.842
 4338POPC   C4B56386   4.849  36.370   7.230
 4339POPC   NC356387  11.514  10.688   5.056
 4339POPC   PO456388  11.201  10.287   5.602
 4339POPC   GL156389  11.465  10.386   5.936
 4339POPC   GL256390  11.694  10.116   6.066
 4339POPC   C1A56391  11.474  10.509   6.355
 4339POPC   D2A56392  11.065  10.651   6.489
 4339POPC   C3A56393  11.117  10.932   6.821
 4339POPC   C4A56394  11.112  10.747   7.220
 4339POPC   C1B56395  11.704  10.045   6.482
 4339POPC   C2B56396  11.843  10.312   6.801
 4339POPC   C3B56397  11.542  10.585   6.941
 4339POPC   C4B56398  11.324  10.296   7.182
 4340POPC   NC356399  20.768  10.341   5.330
 4340POPC   PO456400  20.149  10.509   5.344
 4340POPC   GL156401  20.470  10.608   5.715
 4340POPC   GL256402  20.814  10.474   5.821
 4340POPC   C1A56403  20.594  10.755   6.154
 4340POPC   D2A56404  20.605  10.681   6.566
 4340POPC   C3A56405  20.612  10.950   6.913
 4340POPC   C4A56406  20.464  10.738   7.285
 4340POPC   C1B56407  20.950  10.315   6.200
 4340POPC   C2B56408  21.077  10.489   6.593
 4340POPC   C3B56409  20.891  10.508   6.967
 4340POPC   C4B56410  21.038  10.397   7.323
 4341POPC   NC356411  14.112  40.290   5.373
 4341POPC   PO456412  14.758  40.006   5.309
 4341POPC   GL156413  14.582  39.839   5.682
 4341POPC   GL256414  14.856  39.613   5.695
 4341POPC   C1A56415  14.307  39.811   6.064
 4341POPC   D2A56416  14.383  40.022   6.445
 4341POPC   C3A56417  14.248  39.898   6.867
 4341POPC   C4A56418  14.239  40.206   7.183
 4341POPC   C1B56419  14.770  39.601   6.121
 4341POPC   C2B56420  14.955  39.721   6.511
 4341POPC   C3B56421  14.738  39.887   6.862
 4341POPC   C4B56422  14.574  39.792   7.263
 4342POPC   NC356423   5.171  11.003   5.318
 4342POPC   PO456424   4.732  11.520   5.350
 4342POPC   GL156425   4.874  11.659   5.795
 4342POPC   GL256426   5.235  11.747   5.866
 4342POPC   C1A56427   4.909  11.384   6.172
 4342POPC   D2A56428   4.967  11.158   6.565
 4342POPC   C3A56429   4.849  11.369   6.935
 4342POPC   C4A56430   5.148  11.440   7.260
 4342POPC   C1B56431   4.985  11.888   6.266
 4342POPC   C2B56432   5.039  11.796   6.709
 4342POPC   C3B56433   4.898  11.876   7.141
 4342POPC   C4B56434   4.984  11.786   7.612
 4343POPC   NC356435  13.758  11.346   5.420
 4343POPC   PO456436  13.143  11.603   5.436
 4343POPC   GL156437  13.251  11.421   5.847
 4343POPC   GL256438  13.448  11.082   5.832
 4343POPC   C1A56439  13.566  11.418   6.184
 4343POPC   D2A56440  13.796  11.367   6.556
 4343POPC   C3A56441  13.703  11.345   6.998
 4343POPC   C4A56442  13.944  11.140   7.299
 4343POPC   C1B56443  13.750  10.943   6.193
 4343POPC   C2B56444  13.772  10.846   6.637
 4343POPC   C3B56445  13.658  10.781   7.055
 4343POPC   C4B56446  13.478  11.027   7.402
 4344POPC   NC356447  13.811   6.208   5.292
 4344POPC   PO456448  13.290   5.834   5.228
 4344POPC   GL156449  13.531   5.956   5.647
 4344POPC   GL256450  13.680   5.677   5.836
 4344POPC   C1A56451  13.504   6.097   6.124
 4344POPC   D2A56452  13.564   6.138   6.592
 4344POPC   C3A56453  13.727   6.101   7.002
 4344POPC   C4A56454  13.471   5.923   7.287
 4344POPC   C1B56455  13.747   5.695   6.317
 4344POPC   C2B56456  13.850   5.669   6.762
 4344POPC   C3B56457  13.792   5.544   7.192
 4344POPC   C4B56458  13.452   5.471   7.531
 4345POPC   NC356459  39.699  28.633   5.504
 4345POPC   PO456460  40.144  28.172   5.401
 4345POPC   GL156461  40.076  28.392   5.762
 4345POPC   GL256462  39.800  28.203   5.844
 4345POPC   C1A56463  39.961  28.628   6.122
 4345POPC   D2A56464  39.907  28.611   6.544
 4345POPC   C3A56465  40.140  28.418   6.833
 4345POPC   C4A56466  40.254  28.452   7.217
 4345POPC   C1B56467  40.015  28.093   6.223
 4345POPC   C2B56468  39.865  28.034   6.632
 4345POPC   C3B56469  39.895  28.010   7.054
 4345POPC   C4B56470  39.761  28.316   7.313
 4346POPC   NC356471  26.381  11.206   5.394
 4346POPC   PO456472  25.723  11.211   5.294
 4346POPC   GL156473  25.901  11.200   5.765
 4346POPC   GL256474  26.270  11.276   5.875
 4346POPC   C1A56475  25.896  11.385   6.201
 4346POPC   D2A56476  26.125  11.529   6.543
 4346POPC   C3A56477  26.187  11.458   6.962
 4346POPC   C4A56478  25.864  11.223   7.027
 4346POPC   C1B56479  26.349  11.131   6.291
 4346POPC   C2B56480  26.184  11.005   6.681
 4346POPC   C3B56481  26.311  10.953   7.117
 4346POPC   C4B56482  26.393  10.873   7.567
 4347POPC   NC356483  36.526  44.804   5.334
 4347POPC   PO456484  37.223  44.625   5.340
 4347POPC   GL156485  36.940  44.737   5.695
 4347POPC   GL256486  36.709  44.957   5.791
 4347POPC   C1A56487  36.889  44.542   6.122
 4347POPC   D2A56488  36.884  44.305   6.502
 4347POPC   C3A56489  36.905  44.502   6.881
 4347POPC   C4A56490  37.015  44.339   7.255
 4347POPC   C1B56491  36.526  44.898   6.162
 4347POPC   C2B56492  36.554  44.703   6.529
 4347POPC   C3B56493  36.575  44.908   6.901
 4347POPC   C4B56494  36.684   0.124   7.265
 4348POPC   NC356495   4.803  22.388   5.589
 4348POPC   PO456496   5.411  22.239   5.344
 4348POPC   GL156497   5.199  22.122   5.797
 4348POPC   GL256498   4.907  21.905   5.829
 4348POPC   C1A56499   5.073  22.090   6.258
 4348POPC   D2A56500   5.398  22.165   6.524
 4348POPC   C3A56501   5.337  22.208   6.950
 4348POPC   C4A56502   4.986  22.254   7.149
 4348POPC   C1B56503   4.824  21.623   6.153
 4348POPC   C2B56504   4.996  21.568   6.556
 4348POPC   C3B56505   5.015  21.790   6.919
 4348POPC   C4B56506   4.947  21.775   7.345
 4349POPC   NC356507  21.076  20.809   5.452
 4349POPC   PO456508  21.453  20.237   5.427
 4349POPC   GL156509  21.482  20.354   5.848
 4349POPC   GL256510  21.387  20.696   5.864
 4349POPC   C1A56511  21.259  20.415   6.264
 4349POPC   D2A56512  21.035  20.592   6.650
 4349POPC   C3A56513  21.263  20.554   7.047
 4349POPC   C4A56514  21.597  20.740   7.284
 4349POPC   C1B56515  21.338  20.916   6.297
 4349POPC   C2B56516  21.368  20.995   6.760
 4349POPC   C3B56517  21.223  21.076   7.173
 4349POPC   C4B56518  21.070  20.853   7.529
 4350POPC   NC356519  27.287  44.075   5.538
 4350POPC   PO456520  27.950  44.127   5.509
 4350POPC   GL156521  27.679  43.934   5.852
 4350POPC   GL256522  27.296  43.796   5.954
 4350POPC   C1A56523  27.673  43.798   6.273
 4350POPC   D2A56524  27.274  43.716   6.482
 4350POPC   C3A56525  27.371  43.795   6.905
 4350POPC   C4A56526  27.756  43.935   7.149
 4350POPC   C1B56527  27.380  44.214   6.183
 4350POPC   C2B56528  27.282  44.375   6.598
 4350POPC   C3B56529  27.386  44.319   7.007
 4350POPC   C4B56530  27.391  44.213   7.419
 4351POPC   NC356531   4.647  38.300   5.453
 4351POPC   PO456532   4.085  38.623   5.318
 4351POPC   GL156533   4.075  38.417   5.718
 4351POPC   GL256534   4.361  38.284   5.891
 4351POPC   C1A56535   3.982  38.548   6.106
 4351POPC   D2A56536   4.236  38.424   6.460
 4351POPC   C3A56537   4.044  38.469   6.882
 4351POPC   C4A56538   4.149  38.304   7.240
 4351POPC   C1B56539   4.645  38.579   6.119
 4351POPC   C2B56540   4.748  38.661   6.557
 4351POPC   C3B56541   4.560  38.534   6.949
 4351POPC   C4B56542   4.667  38.240   7.299
 4352POPC   NC356543  14.567  37.839   5.431
 4352POPC   PO456544  14.057  37.439   5.343
 4352POPC   GL156545  14.298  37.593   5.783
 4352POPC   GL256546  14.259  37.906   5.932
 4352POPC   C1A56547  14.432  37.512   6.237
 4352POPC   D2A56548  14.574  37.658   6.684
 4352POPC   C3A56549  14.386  37.415   7.070
 4352POPC   C4A56550  14.483  37.466   7.539
 4352POPC   C1B56551  14.575  38.009   6.250
 4352POPC   C2B56552  14.543  38.185   6.686
 4352POPC   C3B56553  14.360  37.983   7.064
 4352POPC   C4B56554  14.492  37.981   7.505
 4353POPC   NC356555  38.924  28.656   5.635
 4353POPC   PO456556  39.421  28.207   5.508
 4353POPC   GL156557  39.289  28.347   5.881
 4353POPC   GL256558  39.380  28.665   5.922
 4353POPC   C1A56559  39.553  28.334   6.260
 4353POPC   D2A56560  39.474  28.358   6.659
 4353POPC   C3A56561  39.394  27.978   6.867
 4353POPC   C4A56562  39.455  27.907   7.292
 4353POPC   C1B56563  39.093  28.558   6.315
 4353POPC   C2B56564  38.988  28.441   6.757
 4353POPC   C3B56565  39.283  28.410   7.121
 4353POPC   C4B56566  39.400  28.703   7.429
 4354POPC   NC356567  12.617  40.480   5.009
 4354POPC   PO456568  13.078  40.711   5.503
 4354POPC   GL156569  12.929  40.669   5.868
 4354POPC   GL256570  12.623  40.868   5.838
 4354POPC   C1A56571  12.915  40.852   6.259
 4354POPC   D2A56572  12.638  40.917   6.592
 4354POPC   C3A56573  12.840  40.903   6.999
 4354POPC   C4A56574  13.010  40.774   7.378
 4354POPC   C1B56575  12.492  40.549   6.131
 4354POPC   C2B56576  12.517  40.346   6.534
 4354POPC   C3B56577  12.437  40.550   6.940
 4354POPC   C4B56578  12.527  40.480   7.386
 4355POPC   NC356579  20.278  16.941   5.670
 4355POPC   PO456580  20.576  16.377   5.338
 4355POPC   GL156581  20.605  16.498   5.763
 4355POPC   GL256582  20.915  16.348   5.788
 4355POPC   C1A56583  20.604  16.665   6.225
 4355POPC   D2A56584  20.401  16.686   6.670
 4355POPC   C3A56585  20.582  16.902   7.044
 4355POPC   C4A56586  20.358  17.006   7.451
 4355POPC   C1B56587  20.785  16.183   6.175
 4355POPC   C2B56588  20.988  16.205   6.564
 4355POPC   C3B56589  20.838  16.490   6.859
 4355POPC   C4B56590  20.669  16.439   7.256
 4356POPC   NC356591  14.287   3.225   5.215
 4356POPC   PO456592  14.579   3.704   5.316
 4356POPC   GL156593  14.457   3.571   5.759
 4356POPC   GL256594  14.715   3.642   6.018
 4356POPC   C1A56595  14.311   3.398   6.204
 4356POPC   D2A56596  14.310   3.566   6.661
 4356POPC   C3A56597  14.262   3.371   7.103
 4356POPC   C4A56598  14.186   3.434   7.587
 4356POPC   C1B56599  14.426   3.915   6.250
 4356POPC   C2B56600  14.421   4.086   6.683
 4356POPC   C3B56601  14.341   3.891   7.078
 4356POPC   C4B56602  13.909   3.710   7.242
 4357POPC   NC356603  21.160  25.099   5.388
 4357POPC   PO456604  21.717  24.873   5.142
 4357POPC   GL156605  21.588  25.105   5.690
 4357POPC   GL256606  21.314  25.309   5.818
 4357POPC   C1A56607  21.462  25.048   6.211
 4357POPC   D2A56608  21.483  25.272   6.640
 4357POPC   C3A56609  21.311  24.993   6.956
 4357POPC   C4A56610  21.141  24.952   7.358
 4357POPC   C1B56611  21.350  25.559   6.213
 4357POPC   C2B56612  21.091  25.636   6.601
 4357POPC   C3B56613  21.075  25.543   7.059
 4357POPC   C4B56614  21.167  25.439   7.510
 4358POPC   NC356615   7.097   2.239   5.580
 4358POPC   PO456616   7.717   2.172   5.443
 4358POPC   GL156617   7.651   1.904   5.798
 4358POPC   GL256618   7.313   1.851   5.842
 4358POPC   C1A56619   7.597   1.940   6.253
 4358POPC   D2A56620   7.283   2.008   6.573
 4358POPC   C3A56621   7.483   2.060   6.931
 4358POPC   C4A56622   7.384   1.980   7.323
 4358POPC   C1B56623   7.166   1.655   6.220
 4358POPC   C2B56624   7.027   1.535   6.647
 4358POPC   C3B56625   7.156   1.586   7.087
 4358POPC   C4B56626   7.347   1.504   7.546
 4359POPC   NC356627  16.543  28.661   5.129
 4359POPC   PO456628  16.886  29.188   5.415
 4359POPC   GL156629  16.768  29.155   5.807
 4359POPC   GL256630  17.001  29.429   5.899
 4359POPC   C1A56631  16.610  29.132   6.220
 4359POPC   D2A56632  16.796  29.036   6.618
 4359POPC   C3A56633  16.504  29.025   6.963
 4359POPC   C4A56634  16.580  29.218   7.344
 4359POPC   C1B56635  17.012  29.438   6.355
 4359POPC   C2B56636  17.073  29.438   6.802
 4359POPC   C3B56637  16.899  29.569   7.141
 4359POPC   C4B56638  16.976  29.429   7.605
 4360POPC   NC356639  12.341  36.877   5.418
 4360POPC   PO456640  11.863  37.317   5.577
 4360POPC   GL156641  12.162  37.088   5.864
 4360POPC   GL256642  12.071  36.738   5.896
 4360POPC   C1A56643  12.233  37.008   6.320
 4360POPC   D2A56644  12.087  36.830   6.704
 4360POPC   C3A56645  11.872  37.174   6.856
 4360POPC   C4A56646  11.558  37.189   7.155
 4360POPC   C1B56647  12.060  36.509   6.311
 4360POPC   C2B56648  12.378  36.405   6.675
 4360POPC   C3B56649  12.364  36.604   7.116
 4360POPC   C4B56650  12.013  36.847   7.226
 4361POPC   NC356651  39.678  20.012   5.327
 4361POPC   PO456652  39.816  19.385   5.445
 4361POPC   GL156653  39.980  19.751   5.706
 4361POPC   GL256654  39.790  20.070   5.803
 4361POPC   C1A56655  39.903  19.730   6.168
 4361POPC   D2A56656  39.856  19.488   6.543
 4361POPC   C3A56657  39.924  19.779   6.876
 4361POPC   C4A56658  39.898  19.780   7.330
 4361POPC   C1B56659  39.676  20.316   6.144
 4361POPC   C2B56660  39.799  20.157   6.507
 4361POPC   C3B56661  39.794  20.272   6.906
 4361POPC   C4B56662  40.097  20.224   7.169
 4362POPC   NC356663  28.588  10.055   5.661
 4362POPC   PO456664  28.320  10.609   5.404
 4362POPC   GL156665  28.253  10.422   5.792
 4362POPC   GL256666  27.916  10.325   5.812
 4362POPC   C1A56667  28.454  10.415   6.214
 4362POPC   D2A56668  28.321  10.585   6.615
 4362POPC   C3A56669  28.554  10.605   7.001
 4362POPC   C4A56670  28.651  10.940   7.253
 4362POPC   C1B56671  27.941  10.558   6.192
 4362POPC   C2B56672  27.824  10.475   6.624
 4362POPC   C3B56673  28.055  10.432   7.054
 4362POPC   C4B56674  27.994  10.332   7.495
 4363POPC   NC356675  44.818   1.480   5.639
 4363POPC   PO456676  44.825   2.084   5.289
 4363POPC   GL156677  44.590   2.043   5.640
 4363POPC   GL256678  44.900   1.971   5.805
 4363POPC   C1A56679  44.471   2.153   6.068
 4363POPC   D2A56680  44.543   2.086   6.500
 4363POPC   C3A56681  44.278   2.235   6.815
 4363POPC   C4A56682  44.359   2.147   7.225
 4363POPC   C1B56683   0.027   1.814   6.191
 4363POPC   C2B56684  44.842   1.670   6.546
 4363POPC   C3B56685  44.891   1.871   6.911
 4363POPC   C4B56686  44.751   1.827   7.302
 4364POPC   NC356687  28.298   9.399   5.242
 4364POPC   PO456688  28.292   8.819   5.568
 4364POPC   GL156689  28.545   8.908   5.866
 4364POPC   GL256690  28.633   9.216   5.692
 4364POPC   C1A56691  28.449   8.852   6.313
 4364POPC   D2A56692  28.280   8.553   6.641
 4364POPC   C3A56693  28.289   8.752   7.057
 4364POPC   C4A56694  28.179   9.195   7.183
 4364POPC   C1B56695  28.740   9.274   6.141
 4364POPC   C2B56696  28.860   9.182   6.589
 4364POPC   C3B56697  28.779   9.063   7.048
 4364POPC   C4B56698  28.761   9.342   7.410
 4365POPC   NC356699  43.413  33.979   5.641
 4365POPC   PO456700  42.832  33.653   5.443
 4365POPC   GL156701  43.041  33.733   5.857
 4365POPC   GL256702  43.288  33.519   5.991
 4365POPC   C1A56703  43.135  33.851   6.324
 4365POPC   D2A56704  43.308  33.526   6.643
 4365POPC   C3A56705  43.051  33.585   7.020
 4365POPC   C4A56706  42.882  33.985   7.115
 4365POPC   C1B56707  43.613  33.697   6.245
 4365POPC   C2B56708  43.612  33.971   6.602
 4365POPC   C3B56709  43.454  33.918   7.053
 4365POPC   C4B56710  43.381  34.025   7.501
 4366POPC   NC356711  27.894  11.639   5.515
 4366POPC   PO456712  27.590  11.097   5.583
 4366POPC   GL156713  27.510  11.246   5.942
 4366POPC   GL256714  27.234  11.054   5.998
 4366POPC   C1A56715  27.711  11.455   6.287
 4366POPC   D2A56716  27.626  11.688   6.659
 4366POPC   C3A56717  27.727  11.491   7.016
 4366POPC   C4A56718  27.577  11.417   7.412
 4366POPC   C1B56719  27.297  11.115   6.393
 4366POPC   C2B56720  27.539  11.155   6.701
 4366POPC   C3B56721  27.339  11.120   7.077
 4366POPC   C4B56722  27.190  10.764   7.266
 4367POPC   NC356723  37.719  38.836   5.316
 4367POPC   PO456724  37.372  39.466   5.560
 4367POPC   GL156725  37.606  39.345   5.882
 4367POPC   GL256726  37.976  39.370   5.858
 4367POPC   C1A56727  37.647  39.391   6.308
 4367POPC   D2A56728  37.414  39.464   6.683
 4367POPC   C3A56729  37.536  39.165   6.971
 4367POPC   C4A56730  37.446  39.084   7.360
 4367POPC   C1B56731  38.112  39.159   6.248
 4367POPC   C2B56732  38.003  39.240   6.671
 4367POPC   C3B56733  37.936  39.480   7.040
 4367POPC   C4B56734  37.973  39.176   7.365
 4368POPC   NC356735   6.018  26.327   5.464
 4368POPC   PO456736   5.834  26.974   5.209
 4368POPC   GL156737   5.885  26.801   5.644
 4368POPC   GL256738   5.562  26.665   5.772
 4368POPC   C1A56739   5.965  26.738   6.108
 4368POPC   D2A56740   6.242  26.785   6.488
 4368POPC   C3A56741   6.087  26.895   6.907
 4368POPC   C4A56742   5.844  26.820   7.272
 4368POPC   C1B56743   5.474  26.575   6.229
 4368POPC   C2B56744   5.563  26.553   6.698
 4368POPC   C3B56745   5.475  26.485   7.155
 4368POPC   C4B56746   5.524  26.620   7.613
 4369POPC   NC356747  36.418  21.694   5.464
 4369POPC   PO456748  37.130  21.489   5.550
 4369POPC   GL156749  36.727  21.366   5.753
 4369POPC   GL256750  36.536  21.600   5.937
 4369POPC   C1A56751  36.741  21.221   6.178
 4369POPC   D2A56752  37.074  21.094   6.433
 4369POPC   C3A56753  36.916  21.168   6.817
 4369POPC   C4A56754  36.950  21.166   7.223
 4369POPC   C1B56755  36.580  21.750   6.325
 4369POPC   C2B56756  36.661  21.619   6.736
 4369POPC   C3B56757  36.669  21.643   7.181
 4369POPC   C4B56758  36.352  21.747   7.451
 4370POPC   NC356759  44.178   1.106   5.515
 4370POPC   PO456760  43.866   1.704   5.246
 4370POPC   GL156761  43.828   1.439   5.655
 4370POPC   GL256762  43.682   1.076   5.697
 4370POPC   C1A56763  43.953   1.342   6.100
 4370POPC   D2A56764  43.896   1.139   6.499
 4370POPC   C3A56765  44.018   1.306   6.907
 4370POPC   C4A56766  43.998   1.285   7.367
 4370POPC   C1B56767  43.783   0.821   6.077
 4370POPC   C2B56768  43.549   0.754   6.460
 4370POPC   C3B56769  43.749   0.806   6.859
 4370POPC   C4B56770  43.610   0.745   7.261
 4371POPC   NC356771   4.057  29.240   5.495
 4371POPC   PO456772   4.582  28.933   5.506
 4371POPC   GL156773   4.387  29.035   5.838
 4371POPC   GL256774   4.135  28.814   5.817
 4371POPC   C1A56775   4.437  29.006   6.240
 4371POPC   D2A56776   4.586  29.192   6.567
 4371POPC   C3A56777   4.359  29.306   6.886
 4371POPC   C4A56778   4.487  29.249   7.292
 4371POPC   C1B56779   4.106  28.632   6.223
 4371POPC   C2B56780   4.186  28.804   6.664
 4371POPC   C3B56781   4.146  28.891   7.132
 4371POPC   C4B56782   4.008  29.247   7.443
 4372POPC   NC356783  18.540  41.499   5.426
 4372POPC   PO456784  17.951  41.308   5.240
 4372POPC   GL156785  18.162  41.254   5.713
 4372POPC   GL256786  18.371  41.515   5.888
 4372POPC   C1A56787  18.082  41.279   6.200
 4372POPC   D2A56788  18.182  41.649   6.517
 4372POPC   C3A56789  18.117  41.572   6.951
 4372POPC   C4A56790  18.222  41.500   7.395
 4372POPC   C1B56791  18.610  41.620   6.233
 4372POPC   C2B56792  18.675  41.687   6.672
 4372POPC   C3B56793  18.635  41.660   7.153
 4372POPC   C4B56794  18.671  41.559   7.625
 4373POPC   NC356795  30.585  22.917   5.120
 4373POPC   PO456796  30.897  22.439   5.557
 4373POPC   GL156797  30.691  22.739   5.902
 4373POPC   GL256798  30.735  23.078   5.753
 4373POPC   C1A56799  30.413  22.744   6.304
 4373POPC   D2A56800  30.358  22.576   6.763
 4373POPC   C3A56801  30.387  22.805   7.176
 4373POPC   C4A56802  30.352  22.648   7.606
 4373POPC   C1B56803  30.642  23.204   6.219
 4373POPC   C2B56804  30.753  23.148   6.686
 4373POPC   C3B56805  30.898  23.108   7.134
 4373POPC   C4B56806  30.975  23.243   7.583
 4374POPC   NC356807   8.665   3.108   5.525
 4374POPC   PO456808   8.055   3.321   5.540
 4374POPC   GL156809   8.299   3.497   5.877
 4374POPC   GL256810   8.605   3.582   5.811
 4374POPC   C1A56811   8.235   3.686   6.301
 4374POPC   D2A56812   7.843   3.688   6.583
 4374POPC   C3A56813   7.926   3.425   6.932
 4374POPC   C4A56814   8.062   3.668   7.236
 4374POPC   C1B56815   8.708   3.848   6.150
 4374POPC   C2B56816   8.790   3.817   6.567
 4374POPC   C3B56817   8.519   3.680   6.897
 4374POPC   C4B56818   8.549   3.802   7.299
 4375POPC   NC356819  31.332  15.615   5.405
 4375POPC   PO456820  31.661  16.228   5.297
 4375POPC   GL156821  31.715  16.203   5.722
 4375POPC   GL256822  31.606  15.869   5.759
 4375POPC   C1A56823  31.826  16.133   6.155
 4375POPC   D2A56824  31.870  15.890   6.524
 4375POPC   C3A56825  31.552  15.937   6.828
 4375POPC   C4A56826  31.676  16.128   7.208
 4375POPC   C1B56827  31.457  15.739   6.162
 4375POPC   C2B56828  31.217  15.590   6.524
 4375POPC   C3B56829  31.076  15.693   6.949
 4375POPC   C4B56830  31.382  15.675   7.251
 4376POPC   NC356831  29.506  10.311   5.358
 4376POPC   PO456832  28.898  10.172   5.333
 4376POPC   GL156833  29.036  10.535   5.623
 4376POPC   GL256834  29.382  10.665   5.710
 4376POPC   C1A56835  28.973  10.552   6.079
 4376POPC   D2A56836  28.840  10.696   6.496
 4376POPC   C3A56837  29.054  10.527   6.847
 4376POPC   C4A56838  29.041  10.614   7.244
 4376POPC   C1B56839  29.478  10.502   6.114
 4376POPC   C2B56840  29.448  10.612   6.523
 4376POPC   C3B56841  29.579  10.398   6.883
 4376POPC   C4B56842  29.458  10.328   7.283
 4377POPC   NC356843  29.660  26.996   5.204
 4377POPC   PO456844  29.058  26.813   5.418
 4377POPC   GL156845  29.200  26.719   5.802
 4377POPC   GL256846  28.846  26.657   5.859
 4377POPC   C1A56847  29.394  26.744   6.241
 4377POPC   D2A56848  29.094  26.832   6.537
 4377POPC   C3A56849  29.066  26.736   6.975
 4377POPC   C4A56850  28.746  26.975   7.162
 4377POPC   C1B56851  29.048  26.384   6.141
 4377POPC   C2B56852  29.113  26.313   6.559
 4377POPC   C3B56853  28.795  26.289   6.864
 4377POPC   C4B56854  28.631  26.488   7.254
 4378POPC   NC356855   5.697  35.366   5.455
 4378POPC   PO456856   6.143  34.848   5.257
 4378POPC   GL156857   6.065  35.080   5.658
 4378POPC   GL256858   6.285  35.317   5.774
 4378POPC   C1A56859   5.886  35.235   6.092
 4378POPC   D2A56860   6.070  35.195   6.530
 4378POPC   C3A56861   5.912  35.297   6.947
 4378POPC   C4A56862   5.589  35.025   7.103
 4378POPC   C1B56863   6.314  35.533   6.151
 4378POPC   C2B56864   6.314  35.664   6.548
 4378POPC   C3B56865   6.256  35.746   6.954
 4378POPC   C4B56866   6.047  35.621   7.322
 4379POPC   NC356867  16.055  15.395   5.374
 4379POPC   PO456868  15.542  14.958   5.291
 4379POPC   GL156869  15.774  15.070   5.692
 4379POPC   GL256870  16.090  14.940   5.790
 4379POPC   C1A56871  15.913  15.402   6.033
 4379POPC   D2A56872  16.225  15.472   6.386
 4379POPC   C3A56873  16.084  15.455   6.820
 4379POPC   C4A56874  15.729  15.336   7.101
 4379POPC   C1B56875  15.986  14.950   6.250
 4379POPC   C2B56876  15.991  14.971   6.716
 4379POPC   C3B56877  16.180  15.026   7.132
 4379POPC   C4B56878  16.134  14.931   7.624
 4380POPC   NC356879   2.939  29.182   5.276
 4380POPC   PO456880   2.317  29.347   5.508
 4380POPC   GL156881   2.706  29.352   5.721
 4380POPC   GL256882   2.802  28.984   5.781
 4380POPC   C1A56883   3.010  29.375   6.065
 4380POPC   D2A56884   3.054  29.008   6.361
 4380POPC   C3A56885   2.814  29.091   6.721
 4380POPC   C4A56886   2.757  29.397   7.013
 4380POPC   C1B56887   2.572  29.120   6.172
 4380POPC   C2B56888   2.329  28.935   6.505
 4380POPC   C3B56889   2.414  28.883   6.954
 4380POPC   C4B56890   2.713  28.961   7.295
 4381POPC   NC356891  16.588  36.655   5.341
 4381POPC   PO456892  16.766  37.343   5.387
 4381POPC   GL156893  16.846  36.965   5.664
 4381POPC   GL256894  16.814  37.202   5.879
 4381POPC   C1A56895  16.794  36.796   6.140
 4381POPC   D2A56896  16.787  36.956   6.580
 4381POPC   C3A56897  17.025  36.790   6.927
 4381POPC   C4A56898  16.845  36.610   7.299
 4381POPC   C1B56899  17.053  37.284   6.215
 4381POPC   C2B56900  16.902  37.456   6.589
 4381POPC   C3B56901  16.943  37.277   6.974
 4381POPC   C4B56902  16.637  37.054   7.169
 4382POPC   NC356903   3.404  25.558   5.430
 4382POPC   PO456904   3.777  26.158   5.459
 4382POPC   GL156905   3.653  26.124   5.900
 4382POPC   GL256906   3.377  25.885   5.827
 4382POPC   C1A56907   3.631  25.870   6.300
 4382POPC   D2A56908   3.490  25.896   6.731
 4382POPC   C3A56909   3.817  25.982   6.994
 4382POPC   C4A56910   4.121  26.231   7.199
 4382POPC   C1B56911   3.127  25.799   6.171
 4382POPC   C2B56912   3.081  26.087   6.474
 4382POPC   C3B56913   3.046  26.093   6.913
 4382POPC   C4B56914   3.363  26.077   7.221
 4383POPC   NC356915  40.239  33.911   5.392
 4383POPC   PO456916  39.752  33.509   5.329
 4383POPC   GL156917  39.973  33.646   5.731
 4383POPC   GL256918  39.980  34.041   5.823
 4383POPC   C1A56919  40.164  33.674   6.154
 4383POPC   D2A56920  40.352  33.541   6.549
 4383POPC   C3A56921  40.103  33.576   6.904
 4383POPC   C4A56922  39.964  33.877   7.212
 4383POPC   C1B56923  40.207  34.194   6.220
 4383POPC   C2B56924  40.155  34.083   6.682
 4383POPC   C3B56925  40.245  34.270   7.103
 4383POPC   C4B56926  40.142  34.192   7.616
 4384POPC   NC356927  26.052  13.787   5.436
 4384POPC   PO456928  25.690  13.159   5.486
 4384POPC   GL156929  25.953  13.398   5.735
 4384POPC   GL256930  26.274  13.258   5.742
 4384POPC   C1A56931  26.023  13.624   6.115
 4384POPC   D2A56932  26.117  13.498   6.554
 4384POPC   C3A56933  26.038  13.758   6.928
 4384POPC   C4A56934  25.959  14.035   7.279
 4384POPC   C1B56935  26.296  13.167   6.195
 4384POPC   C2B56936  26.303  12.993   6.635
 4384POPC   C3B56937  26.434  13.260   6.976
 4384POPC   C4B56938  26.175  13.429   7.279
 4385POPC   NC356939  30.048  34.127   5.349
 4385POPC   PO456940  30.159  33.403   5.414
 4385POPC   GL156941  29.980  33.559   5.822
 4385POPC   GL256942  29.983  33.917   5.816
 4385POPC   C1A56943  29.826  33.653   6.234
 4385POPC   D2A56944  30.091  33.595   6.572
 4385POPC   C3A56945  29.867  33.686   6.887
 4385POPC   C4A56946  29.989  33.665   7.262
 4385POPC   C1B56947  30.201  33.999   6.228
 4385POPC   C2B56948  30.023  34.120   6.664
 4385POPC   C3B56949  30.214  34.072   7.105
 4385POPC   C4B56950  30.115  34.035   7.599
 4386POPC   NC356951  19.783  39.009   5.400
 4386POPC   PO456952  20.086  39.570   5.353
 4386POPC   GL156953  19.953  39.376   5.763
 4386POPC   GL256954  19.809  39.059   5.889
 4386POPC   C1A56955  19.943  39.453   6.219
 4386POPC   D2A56956  20.123  39.291   6.629
 4386POPC   C3A56957  19.947  39.382   7.053
 4386POPC   C4A56958  20.027  39.541   7.473
 4386POPC   C1B56959  20.010  38.946   6.249
 4386POPC   C2B56960  19.809  38.863   6.639
 4386POPC   C3B56961  19.911  38.849   7.068
 4386POPC   C4B56962  19.621  38.686   7.298
 4387POPC   NC356963   4.155   1.065   5.558
 4387POPC   PO456964   3.686   1.623   5.428
 4387POPC   GL156965   3.774   1.378   5.730
 4387POPC   GL256966   3.415   1.322   5.797
 4387POPC   C1A56967   3.763   1.455   6.144
 4387POPC   D2A56968   3.438   1.327   6.399
 4387POPC   C3A56969   3.636   1.352   6.792
 4387POPC   C4A56970   3.487   1.362   7.201
 4387POPC   C1B56971   3.288   0.963   6.019
 4387POPC   C2B56972   3.224   0.837   6.424
 4387POPC   C3B56973   3.270   1.004   6.810
 4387POPC   C4B56974   3.284   0.844   7.199
 4388POPC   NC356975  41.695  31.737   5.580
 4388POPC   PO456976  41.962  32.313   5.310
 4388POPC   GL156977  41.614  32.338   5.710
 4388POPC   GL256978  41.450  32.045   5.895
 4388POPC   C1A56979  41.207  32.465   6.016
 4388POPC   D2A56980  41.143  32.567   6.493
 4388POPC   C3A56981  41.130  32.320   6.957
 4388POPC   C4A56982  41.095  32.375   7.474
 4388POPC   C1B56983  41.684  32.245   6.214
 4388POPC   C2B56984  41.651  32.417   6.633
 4388POPC   C3B56985  41.848  32.246   6.995
 4388POPC   C4B56986  41.921  32.382   7.391
 4389POPC   NC356987  41.295  28.395   5.438
 4389POPC   PO456988  41.871  28.181   5.497
 4389POPC   GL156989  41.650  28.447   5.804
 4389POPC   GL256990  41.848  28.729   5.877
 4389POPC   C1A56991  41.385  28.503   6.181
 4389POPC   D2A56992  41.305  28.282   6.587
 4389POPC   C3A56993  41.559  28.420   6.940
 4389POPC   C4A56994  41.458  28.672   7.298
 4389POPC   C1B56995  41.936  28.475   6.210
 4389POPC   C2B56996  41.940  28.539   6.617
 4389POPC   C3B56997  42.030  28.741   6.982
 4389POPC   C4B56998  42.162  28.766   7.382
 4390POPC   NC356999  12.249  20.980   5.344
 4390POPC   PO457000  11.722  20.552   5.316
 4390POPC   GL157001  11.907  20.767   5.698
 4390POPC   GL257002  12.028  21.065   5.810
 4390POPC   C1A57003  12.112  20.633   6.106
 4390POPC   D2A57004  12.155  20.594   6.562
 4390POPC   C3A57005  11.868  20.390   6.865
 4390POPC   C4A57006  12.220  20.389   7.147
 4390POPC   C1B57007  11.848  21.051   6.237
 4390POPC   C2B57008  11.741  20.872   6.650
 4390POPC   C3B57009  11.988  20.852   7.053
 4390POPC   C4B57010  11.953  20.796   7.519
 4391POPC   NC357011  44.590  17.814   5.428
 4391POPC   PO457012  44.797  17.192   5.594
 4391POPC   GL157013  44.664  17.500   5.825
 4391POPC   GL257014  44.949  17.714   5.787
 4391POPC   C1A57015  44.616  17.425   6.231
 4391POPC   D2A57016  44.359  17.439   6.571
 4391POPC   C3A57017  44.554  17.502   6.975
 4391POPC   C4A57018  44.370  17.368   7.352
 4391POPC   C1B57019  44.777  17.904   6.154
 4391POPC   C2B57020  44.759  17.781   6.594
 4391POPC   C3B57021  44.799  17.926   7.019
 4391POPC   C4B57022  44.890  17.678   7.404
 4392POPC   NC357023  20.889  13.285   5.536
 4392POPC   PO457024  20.325  13.528   5.154
 4392POPC   GL157025  20.493  13.618   5.658
 4392POPC   GL257026  20.855  13.768   5.727
 4392POPC   C1A57027  20.588  13.361   6.097
 4392POPC   D2A57028  20.501  13.383   6.547
 4392POPC   C3A57029  20.704  13.526   6.931
 4392POPC   C4A57030  20.452  13.551   7.322
 4392POPC   C1B57031  20.676  13.842   6.152
 4392POPC   C2B57032  20.679  13.926   6.593
 4392POPC   C3B57033  20.383  13.928   6.922
 4392POPC   C4B57034  20.542  14.049   7.272
 4393POPC   NC357035  36.742  37.994   5.370
 4393POPC   PO457036  36.833  38.625   5.525
 4393POPC   GL157037  36.844  38.556   5.927
 4393POPC   GL257038  36.596  38.246   5.912
 4393POPC   C1A57039  37.075  38.711   6.309
 4393POPC   D2A57040  37.325  38.773   6.701
 4393POPC   C3A57041  37.154  38.705   7.132
 4393POPC   C4A57042  36.982  38.948   7.494
 4393POPC   C1B57043  36.894  38.167   6.261
 4393POPC   C2B57044  37.025  38.332   6.667
 4393POPC   C3B57045  37.139  38.191   7.071
 4393POPC   C4B57046  36.980  37.903   7.361
 4394POPC   NC357047  25.582   7.213   5.393
 4394POPC   PO457048  25.228   7.793   5.335
 4394POPC   GL157049  25.091   7.670   5.782
 4394POPC   GL257050  25.224   7.350   5.769
 4394POPC   C1A57051  25.203   7.560   6.263
 4394POPC   D2A57052  25.136   7.608   6.754
 4394POPC   C3A57053  24.923   7.273   7.029
 4394POPC   C4A57054  25.010   7.197   7.506
 4394POPC   C1B57055  25.580   7.246   6.037
 4394POPC   C2B57056  25.648   7.278   6.443
 4394POPC   C3B57057  25.410   7.169   6.812
 4394POPC   C4B57058  25.371   7.387   7.209
 4395POPC   NC357059  30.936  12.296   5.413
 4395POPC   PO457060  30.583  11.833   5.642
 4395POPC   GL157061  30.924  11.978   5.815
 4395POPC   GL257062  30.863  11.797   6.105
 4395POPC   C1A57063  30.942  12.295   6.115
 4395POPC   D2A57064  30.753  12.207   6.498
 4395POPC   C3A57065  30.862  12.480   6.826
 4395POPC   C4A57066  30.769  12.223   7.155
 4395POPC   C1B57067  30.517  11.690   6.356
 4395POPC   C2B57068  30.491  11.643   6.790
 4395POPC   C3B57069  30.351  11.923   7.113
 4395POPC   C4B57070  30.320  11.858   7.548
 4396POPC   NC357071  18.468  27.859   5.510
 4396POPC   PO457072  18.415  27.233   5.294
 4396POPC   GL157073  18.182  27.406   5.695
 4396POPC   GL257074  18.447  27.539   5.885
 4396POPC   C1A57075  18.066  27.427   6.194
 4396POPC   D2A57076  18.143  27.653   6.619
 4396POPC   C3A57077  18.174  27.459   7.013
 4396POPC   C4A57078  18.063  27.337   7.428
 4396POPC   C1B57079  18.454  27.784   6.251
 4396POPC   C2B57080  18.623  27.830   6.690
 4396POPC   C3B57081  18.469  27.870   7.125
 4396POPC   C4B57082  18.486  27.925   7.595
 4397POPC   NC357083  33.132   2.335   5.209
 4397POPC   PO457084  32.746   1.753   5.239
 4397POPC   GL157085  32.754   2.036   5.612
 4397POPC   GL257086  33.065   1.983   5.785
 4397POPC   C1A57087  32.670   1.992   6.086
 4397POPC   D2A57088  32.862   2.031   6.486
 4397POPC   C3A57089  32.858   1.784   6.831
 4397POPC   C4A57090  32.754   1.905   7.255
 4397POPC   C1B57091  33.271   2.048   6.178
 4397POPC   C2B57092  33.369   2.090   6.612
 4397POPC   C3B57093  33.202   2.143   7.009
 4397POPC   C4B57094  33.329   2.103   7.411
 4398POPC   NC357095  44.481  37.534   5.375
 4398POPC   PO457096  44.895  38.031   5.415
 4398POPC   GL157097  44.671  37.833   5.803
 4398POPC   GL257098  44.585  37.433   5.848
 4398POPC   C1A57099  44.939  37.649   6.155
 4398POPC   D2A57100  44.850  37.618   6.583
 4398POPC   C3A57101  44.711  37.996   6.730
 4398POPC   C4A57102  44.595  38.097   7.151
 4398POPC   C1B57103  44.449  37.529   6.239
 4398POPC   C2B57104  44.323  37.671   6.627
 4398POPC   C3B57105  44.515  37.605   7.015
 4398POPC   C4B57106  44.348  37.424   7.357
 4399POPC   NC357107  32.376  31.581   5.400
 4399POPC   PO457108  31.821  31.269   5.346
 4399POPC   GL157109  32.003  31.469   5.739
 4399POPC   GL257110  32.350  31.368   5.865
 4399POPC   C1A57111  32.111  31.697   6.144
 4399POPC   D2A57112  32.310  31.855   6.527
 4399POPC   C3A57113  32.290  31.599   6.885
 4399POPC   C4A57114  32.088  31.679   7.263
 4399POPC   C1B57115  32.539  30.990   6.148
 4399POPC   C2B57116  32.793  31.018   6.521
 4399POPC   C3B57117  32.673  31.039   6.945
 4399POPC   C4B57118  32.557  31.342   7.275
 4400POPC   NC357119   5.155  17.753   5.219
 4400POPC   PO457120   5.529  17.286   5.497
 4400POPC   GL157121   5.275  17.596   5.775
 4400POPC   GL257122   4.931  17.736   5.726
 4400POPC   C1A57123   5.252  17.551   6.242
 4400POPC   D2A57124   5.293  17.326   6.635
 4400POPC   C3A57125   5.415  17.487   7.034
 4400POPC   C4A57126   5.522  17.597   7.465
 4400POPC   C1B57127   4.769  17.671   6.158
 4400POPC   C2B57128   4.810  17.424   6.529
 4400POPC   C3B57129   4.884  17.439   6.973
 4400POPC   C4B57130   5.045  17.394   7.394
 4401POPC   NC357131  38.119  23.637   5.387
 4401POPC   PO457132  37.507  23.594   5.295
 4401POPC   GL157133  37.611  23.544   5.752
 4401POPC   GL257134  37.951  23.589   5.863
 4401POPC   C1A57135  37.635  23.784   6.185
 4401POPC   D2A57136  37.821  23.946   6.575
 4401POPC   C3A57137  37.524  23.838   6.904
 4401POPC   C4A57138  37.299  23.738   7.341
 4401POPC   C1B57139  38.158  23.724   6.253
 4401POPC   C2B57140  38.301  23.585   6.672
 4401POPC   C3B57141  38.021  23.704   7.006
 4401POPC   C4B57142  37.719  23.484   7.202
 4402POPC   NC357143  24.907   0.293   5.535
 4402POPC   PO457144  25.251  44.735   5.256
 4402POPC   GL157145  25.113  44.522   5.714
 4402POPC   GL257146  25.329  44.321   5.894
 4402POPC   C1A57147  25.208  44.631   6.248
 4402POPC   D2A57148  25.274  44.487   6.722
 4402POPC   C3A57149  25.210  44.691   7.116
 4402POPC   C4A57150  25.319   0.123   7.199
 4402POPC   C1B57151  25.656  44.400   6.290
 4402POPC   C2B57152  25.761  44.324   6.749
 4402POPC   C3B57153  25.582  44.346   7.167
 4402POPC   C4B57154  25.601  44.260   7.627
 4403POPC   NC357155  36.612  33.787   5.439
 4403POPC   PO457156  37.234  33.566   5.344
 4403POPC   GL157157  37.076  33.718   5.767
 4403POPC   GL257158  36.789  33.930   5.900
 4403POPC   C1A57159  37.192  33.649   6.218
 4403POPC   D2A57160  37.305  33.604   6.678
 4403POPC   C3A57161  36.999  33.797   7.007
 4403POPC   C4A57162  36.701  33.758   7.367
 4403POPC   C1B57163  36.571  33.820   6.280
 4403POPC   C2B57164  36.548  33.814   6.730
 4403POPC   C3B57165  36.549  34.126   7.023
 4403POPC   C4B57166  36.841  34.259   7.285
 4404POPC   NC357167  31.901   0.597   5.243
 4404POPC   PO457168  32.386   0.306   5.636
 4404POPC   GL157169  32.113   0.488   5.899
 4404POPC   GL257170  32.101   0.800   5.712
 4404POPC   C1A57171  32.145   0.507   6.357
 4404POPC   D2A57172  32.436   0.435   6.692
 4404POPC   C3A57173  32.362   0.481   7.105
 4404POPC   C4A57174  31.942   0.476   7.222
 4404POPC   C1B57175  32.385   0.875   6.106
 4404POPC   C2B57176  32.575   0.921   6.520
 4404POPC   C3B57177  32.384   0.949   6.924
 4404POPC   C4B57178  32.551   0.946   7.327
 4405POPC   NC357179  42.689  18.847   5.459
 4405POPC   PO457180  43.119  19.383   5.324
 4405POPC   GL157181  43.061  19.158   5.701
 4405POPC   GL257182  43.175  18.803   5.645
 4405POPC   C1A57183  42.892  19.015   6.111
 4405POPC   D2A57184  42.968  18.834   6.521
 4405POPC   C3A57185  42.931  19.052   6.911
 4405POPC   C4A57186  43.005  18.821   7.200
 4405POPC   C1B57187  43.430  18.933   5.999
 4405POPC   C2B57188  43.452  19.045   6.436
 4405POPC   C3B57189  43.387  18.831   6.829
 4405POPC   C4B57190  43.495  18.931   7.249
 4406POPC   NC357191   6.909  43.433   5.397
 4406POPC   PO457192   6.379  42.992   5.480
 4406POPC   GL157193   6.639  43.209   5.761
 4406POPC   GL257194   6.969  43.032   5.739
 4406POPC   C1A57195   6.679  43.181   6.194
 4406POPC   D2A57196   6.576  42.877   6.481
 4406POPC   C3A57197   6.799  42.877   6.854
 4406POPC   C4A57198   6.725  43.071   7.234
 4406POPC   C1B57199   7.132  43.356   6.045
 4406POPC   C2B57200   7.137  43.333   6.503
 4406POPC   C3B57201   6.924  43.456   6.881
 4406POPC   C4B57202   7.022  43.498   7.304
 4407POPC   NC357203   9.397  22.138   5.165
 4407POPC   PO457204   9.809  22.540   5.443
 4407POPC   GL157205   9.723  22.237   5.750
 4407POPC   GL257206   9.439  21.985   5.710
 4407POPC   C1A57207   9.622  22.234   6.175
 4407POPC   D2A57208   9.773  22.138   6.592
 4407POPC   C3A57209   9.601  22.304   6.956
 4407POPC   C4A57210   9.807  22.255   7.331
 4407POPC   C1B57211   9.448  21.747   6.127
 4407POPC   C2B57212   9.583  21.653   6.537
 4407POPC   C3B57213   9.416  21.833   6.923
 4407POPC   C4B57214   9.376  22.027   7.376
 4408POPC   NC357215   7.758   8.824   5.402
 4408POPC   PO457216   7.177   9.187   5.493
 4408POPC   GL157217   7.507   9.122   5.795
 4408POPC   GL257218   7.549   8.768   5.854
 4408POPC   C1A57219   7.516   9.124   6.235
 4408POPC   D2A57220   7.396   8.914   6.629
 4408POPC   C3A57221   7.576   9.117   6.951
 4408POPC   C4A57222   7.301   9.081   7.254
 4408POPC   C1B57223   7.584   8.614   6.266
 4408POPC   C2B57224   7.748   8.503   6.681
 4408POPC   C3B57225   7.604   8.621   7.113
 4408POPC   C4B57226   7.431   8.687   7.554
 4409POPC   NC357227   7.822   6.282   5.026
 4409POPC   PO457228   7.324   6.363   5.492
 4409POPC   GL157229   7.298   6.468   5.892
 4409POPC   GL257230   7.575   6.708   5.829
 4409POPC   C1A57231   7.202   6.341   6.298
 4409POPC   D2A57232   7.480   6.406   6.625
 4409POPC   C3A57233   7.318   6.418   7.024
 4409POPC   C4A57234   7.617   6.513   7.360
 4409POPC   C1B57235   7.544   6.776   6.261
 4409POPC   C2B57236   7.549   6.994   6.635
 4409POPC   C3B57237   7.565   6.879   7.024
 4409POPC   C4B57238   7.342   7.001   7.392
 4410POPC   NC357239   0.535  12.220   5.393
 4410POPC   PO457240  44.931  11.859   5.262
 4410POPC   GL157241   0.129  11.996   5.697
 4410POPC   GL257242   0.473  11.956   5.817
 4410POPC   C1A57243   0.159  12.065   6.192
 4410POPC   D2A57244   0.134  12.259   6.617
 4410POPC   C3A57245   0.349  12.032   6.940
 4410POPC   C4A57246   0.505  11.972   7.323
 4410POPC   C1B57247   0.696  12.006   6.182
 4410POPC   C2B57248   0.685  12.159   6.572
 4410POPC   C3B57249   0.848  12.138   6.970
 4410POPC   C4B57250   0.995  11.861   7.284
 4411POPC   NC357251  16.015   4.591   5.480
 4411POPC   PO457252  15.673   4.066   5.524
 4411POPC   GL157253  15.952   4.204   5.854
 4411POPC   GL257254  15.752   4.478   5.953
 4411POPC   C1A57255  16.246   4.195   6.214
 4411POPC   D2A57256  16.219   4.349   6.637
 4411POPC   C3A57257  16.255   4.206   7.050
 4411POPC   C4A57258  16.317   4.604   7.219
 4411POPC   C1B57259  15.769   4.329   6.378
 4411POPC   C2B57260  15.769   4.218   6.827
 4411POPC   C3B57261  15.719   4.349   7.276
 4411POPC   C4B57262  15.545   4.203   7.670
 4412POPC   NC357263  44.616   6.798   5.088
 4412POPC   PO457264  44.390   6.310   5.296
 4412POPC   GL157265  44.495   6.666   5.624
 4412POPC   GL257266  44.792   6.624   5.875
 4412POPC   C1A57267  44.366   6.799   6.072
 4412POPC   D2A57268  44.244   6.598   6.480
 4412POPC   C3A57269  44.336   6.806   6.875
 4412POPC   C4A57270  44.425   6.836   7.316
 4412POPC   C1B57271  44.657   6.380   6.268
 4412POPC   C2B57272  44.580   6.308   6.743
 4412POPC   C3B57273  44.741   6.505   7.119
 4412POPC   C4B57274   0.001   6.640   7.497
 4413POPC   NC357275   3.041  44.735   5.564
 4413POPC   PO457276   2.424  44.468   5.587
 4413POPC   GL157277   2.695  44.580   5.889
 4413POPC   GL257278   2.919  44.312   5.832
 4413POPC   C1A57279   2.896  44.613   6.284
 4413POPC   D2A57280   2.591  44.727   6.605
 4413POPC   C3A57281   2.753  44.660   6.979
 4413POPC   C4A57282   3.026  44.791   7.278
 4413POPC   C1B57283   2.628  44.177   6.174
 4413POPC   C2B57284   2.728  44.221   6.585
 4413POPC   C3B57285   2.600  44.127   6.959
 4413POPC   C4B57286   2.794  44.282   7.303
 4414POPC   NC357287  32.368  34.141   5.388
 4414POPC   PO457288  31.865  33.707   5.225
 4414POPC   GL157289  32.039  33.791   5.675
 4414POPC   GL257290  32.390  33.778   5.782
 4414POPC   C1A57291  31.950  33.760   6.153
 4414POPC   D2A57292  32.124  33.705   6.605
 4414POPC   C3A57293  32.057  33.821   7.074
 4414POPC   C4A57294  32.039  33.734   7.555
 4414POPC   C1B57295  32.647  33.805   6.182
 4414POPC   C2B57296  32.672  33.614   6.568
 4414POPC   C3B57297  32.549  33.707   6.974
 4414POPC   C4B57298  32.510  33.845   7.406
 4415POPC   NC357299  43.787  32.927   5.435
 4415POPC   PO457300  44.338  33.334   5.359
 4415POPC   GL157301  44.173  33.074   5.746
 4415POPC   GL257302  43.817  33.194   5.875
 4415POPC   C1A57303  44.117  32.915   6.183
 4415POPC   D2A57304  44.140  33.146   6.572
 4415POPC   C3A57305  43.958  33.046   6.915
 4415POPC   C4A57306  44.090  32.779   7.278
 4415POPC   C1B57307  43.670  33.183   6.315
 4415POPC   C2B57308  43.502  32.880   6.619
 4415POPC   C3B57309  43.617  32.714   7.020
 4415POPC   C4B57310  43.674  33.064   7.363
 4416POPC   NC357311   3.842  38.216   5.324
 4416POPC   PO457312   3.266  38.526   5.417
 4416POPC   GL157313   3.556  38.555   5.729
 4416POPC   GL257314   3.791  38.856   5.716
 4416POPC   C1A57315   3.485  38.372   6.134
 4416POPC   D2A57316   3.700  38.428   6.510
 4416POPC   C3A57317   3.563  38.223   6.858
 4416POPC   C4A57318   3.529  38.362   7.249
 4416POPC   C1B57319   3.547  38.875   6.128
 4416POPC   C2B57320   3.355  38.816   6.537
 4416POPC   C3B57321   3.573  38.748   6.901
 4416POPC   C4B57322   3.535  38.957   7.284
 4417POPC   NC357323  43.816  40.935   5.467
 4417POPC   PO457324  44.265  40.448   5.529
 4417POPC   GL157325  43.919  40.610   5.868
 4417POPC   GL257326  43.681  40.940   5.953
 4417POPC   C1A57327  43.911  40.665   6.318
 4417POPC   D2A57328  44.189  40.618   6.638
 4417POPC   C3A57329  43.990  40.738   6.982
 4417POPC   C4A57330  44.015  40.980   7.309
 4417POPC   C1B57331  43.763  41.189   6.321
 4417POPC   C2B57332  43.923  41.197   6.731
 4417POPC   C3B57333  43.716  41.343   7.114
 4417POPC   C4B57334  43.545  41.101   7.456
 4418POPC   NC357335  11.895   4.013   5.281
 4418POPC   PO457336  12.071   4.649   5.245
 4418POPC   GL157337  11.947   4.567   5.701
 4418POPC   GL257338  11.887   4.213   5.782
 4418POPC   C1A57339  11.945   4.625   6.184
 4418POPC   D2A57340  12.159   4.430   6.581
 4418POPC   C3A57341  12.150   4.549   7.040
 4418POPC   C4A57342  12.186   4.370   7.520
 4418POPC   C1B57343  11.982   4.095   6.226
 4418POPC   C2B57344  11.837   4.007   6.656
 4418POPC   C3B57345  11.968   4.071   7.088
 4418POPC   C4B57346  11.748   4.070   7.475
 4419POPC   NC357347  18.693  38.488   5.276
 4419POPC   PO457348  18.022  38.331   5.452
 4419POPC   GL157349  18.109  38.334   5.851
 4419POPC   GL257350  18.394  38.493   5.817
 4419POPC   C1A57351  18.073  38.540   6.239
 4419POPC   D2A57352  17.866  38.461   6.623
 4419POPC   C3A57353  18.072  38.509   7.048
 4419POPC   C4A57354  18.454  38.597   7.261
 4419POPC   C1B57355  18.471  38.186   6.173
 4419POPC   C2B57356  18.686  38.057   6.547
 4419POPC   C3B57357  18.494  38.217   6.902
 4419POPC   C4B57358  18.260  38.110   7.270
 4420POPC   NC357359   8.307  24.590   5.587
 4420POPC   PO457360   8.844  24.667   5.174
 4420POPC   GL157361   8.968  24.475   5.606
 4420POPC   GL257362   8.765  24.714   5.785
 4420POPC   C1A57363   9.098  24.510   6.097
 4420POPC   D2A57364   9.280  24.409   6.514
 4420POPC   C3A57365   9.104  24.563   6.875
 4420POPC   C4A57366   9.099  24.329   7.236
 4420POPC   C1B57367   8.737  24.885   6.193
 4420POPC   C2B57368   8.718  24.720   6.594
 4420POPC   C3B57369   8.573  24.872   6.974
 4420POPC   C4B57370   8.889  24.838   7.247
 4421POPC   NC357371  25.783  25.643   5.467
 4421POPC   PO457372  26.079  26.242   5.317
 4421POPC   GL157373  26.093  26.014   5.709
 4421POPC   GL257374  26.069  26.317   5.897
 4421POPC   C1A57375  26.274  25.889   6.115
 4421POPC   D2A57376  26.322  26.117   6.470
 4421POPC   C3A57377  26.403  25.989   6.888
 4421POPC   C4A57378  26.281  25.805   7.268
 4421POPC   C1B57379  25.829  26.139   6.233
 4421POPC   C2B57380  25.745  26.191   6.666
 4421POPC   C3B57381  25.949  26.160   7.087
 4421POPC   C4B57382  25.925  26.238   7.551
 4422POPC   NC357383  16.958  17.090   5.451
 4422POPC   PO457384  16.356  16.801   5.385
 4422POPC   GL157385  16.611  16.803   5.788
 4422POPC   GL257386  16.884  16.585   5.843
 4422POPC   C1A57387  16.728  16.934   6.228
 4422POPC   D2A57388  16.614  16.798   6.648
 4422POPC   C3A57389  16.712  16.958   7.072
 4422POPC   C4A57390  16.838  16.811   7.487
 4422POPC   C1B57391  16.707  16.408   6.243
 4422POPC   C2B57392  16.606  16.292   6.660
 4422POPC   C3B57393  16.844  16.451   7.030
 4422POPC   C4B57394  17.103  16.216   7.308
 4423POPC   NC357395   0.255  36.982   5.501
 4423POPC   PO457396  44.475  37.050   5.426
 4423POPC   GL157397  44.798  36.967   5.773
 4423POPC   GL257398  44.829  36.649   5.942
 4423POPC   C1A57399  44.896  37.121   6.215
 4423POPC   D2A57400  44.626  37.160   6.606
 4423POPC   C3A57401  44.594  37.060   7.048
 4423POPC   C4A57402  44.239  36.912   7.274
 4423POPC   C1B57403  44.751  36.654   6.373
 4423POPC   C2B57404  44.729  36.630   6.806
 4423POPC   C3B57405  44.643  36.578   7.267
 4423POPC   C4B57406  44.883  36.618   7.665
 4424POPC   NC357407   0.736  31.510   5.385
 4424POPC   PO457408   1.387  31.516   5.227
 4424POPC   GL157409   1.358  31.679   5.687
 4424POPC   GL257410   1.016  31.585   5.829
 4424POPC   C1A57411   1.395  31.797   6.165
 4424POPC   D2A57412   1.156  31.716   6.563
 4424POPC   C3A57413   1.393  31.423   6.799
 4424POPC   C4A57414   1.412  31.342   7.203
 4424POPC   C1B57415   0.918  31.282   6.176
 4424POPC   C2B57416   1.023  31.143   6.564
 4424POPC   C3B57417   0.940  31.209   6.960
 4424POPC   C4B57418   0.903  31.616   7.102
 4425POPC   NC357419  19.520  14.897   5.363
 4425POPC   PO457420  20.175  15.174   5.353
 4425POPC   GL157421  19.977  15.165   5.722
 4425POPC   GL257422  19.664  15.282   5.720
 4425POPC   C1A57423  20.112  15.286   6.153
 4425POPC   D2A57424  20.017  15.160   6.584
 4425POPC   C3A57425  20.016  15.388   6.999
 4425POPC   C4A57426  19.931  15.205   7.399
 4425POPC   C1B57427  19.642  15.005   6.081
 4425POPC   C2B57428  19.510  14.949   6.505
 4425POPC   C3B57429  19.629  15.061   6.939
 4425POPC   C4B57430  19.481  15.389   7.232
 4426POPC   NC357431  23.205  12.374   5.319
 4426POPC   PO457432  22.610  12.032   5.306
 4426POPC   GL157433  22.736  12.112   5.707
 4426POPC   GL257434  23.061  12.042   5.730
 4426POPC   C1A57435  22.752  12.318   6.102
 4426POPC   D2A57436  22.606  12.118   6.489
 4426POPC   C3A57437  22.854  12.046   6.840
 4426POPC   C4A57438  22.835  11.798   7.189
 4426POPC   C1B57439  23.283  12.199   6.116
 4426POPC   C2B57440  23.509  12.148   6.518
 4426POPC   C3B57441  23.378  12.066   6.953
 4426POPC   C4B57442  23.127  12.312   7.220
 4427POPC   NC357443  30.995   3.255   5.526
 4427POPC   PO457444  30.696   2.681   5.327
 4427POPC   GL157445  30.793   2.823   5.747
 4427POPC   GL257446  30.549   3.064   5.712
 4427POPC   C1A57447  30.693   2.788   6.200
 4427POPC   D2A57448  30.545   2.580   6.580
 4427POPC   C3A57449  30.850   2.588   6.918
 4427POPC   C4A57450  30.906   2.921   7.172
 4427POPC   C1B57451  30.341   3.175   6.059
 4427POPC   C2B57452  30.398   3.212   6.483
 4427POPC   C3B57453  30.521   3.035   6.853
 4427POPC   C4B57454  30.385   3.069   7.281
 4428POPC   NC357455   0.449   2.143   5.189
 4428POPC   PO457456   0.258   1.596   5.555
 4428POPC   GL157457   0.428   1.891   5.840
 4428POPC   GL257458   0.379   2.223   5.735
 4428POPC   C1A57459   0.519   2.018   6.257
 4428POPC   D2A57460   0.346   1.854   6.599
 4428POPC   C3A57461   0.546   1.729   6.967
 4428POPC   C4A57462   0.256   1.719   7.273
 4428POPC   C1B57463   0.135   2.318   6.131
 4428POPC   C2B57464   0.014   2.248   6.565
 4428POPC   C3B57465   0.284   2.192   6.951
 4428POPC   C4B57466   0.093   2.187   7.292
 4429POPC   NC357467  40.402  16.626   5.102
 4429POPC   PO457468  39.892  16.774   5.446
 4429POPC   GL157469  40.115  16.765   5.808
 4429POPC   GL257470  40.105  17.123   5.847
 4429POPC   C1A57471  39.917  16.545   6.168
 4429POPC   D2A57472  39.806  16.695   6.593
 4429POPC   C3A57473  40.154  16.513   6.834
 4429POPC   C4A57474  40.209  16.314   7.215
 4429POPC   C1B57475  39.904  17.061   6.237
 4429POPC   C2B57476  40.063  17.142   6.663
 4429POPC   C3B57477  39.940  16.921   7.040
 4429POPC   C4B57478  40.012  16.847   7.479
 4430POPC   NC357479   2.537  22.675   5.450
 4430POPC   PO457480   2.946  23.134   5.434
 4430POPC   GL157481   2.638  23.076   5.749
 4430POPC   GL257482   2.871  22.801   5.843
 4430POPC   C1A57483   2.532  23.067   6.197
 4430POPC   D2A57484   2.773  23.083   6.599
 4430POPC   C3A57485   2.609  22.938   6.990
 4430POPC   C4A57486   2.525  23.046   7.409
 4430POPC   C1B57487   2.840  22.646   6.254
 4430POPC   C2B57488   2.613  22.560   6.606
 4430POPC   C3B57489   2.746  22.441   6.998
 4430POPC   C4B57490   2.695  22.562   7.384
 4431POPC   NC357491  44.357  27.078   5.122
 4431POPC   PO457492   0.012  27.022   5.407
 4431POPC   GL157493  44.774  26.989   5.868
 4431POPC   GL257494  44.662  26.656   5.917
 4431POPC   C1A57495  44.667  26.949   6.336
 4431POPC   D2A57496  44.904  26.979   6.757
 4431POPC   C3A57497  44.645  27.019   7.146
 4431POPC   C4A57498  44.732  27.091   7.583
 4431POPC   C1B57499  44.312  26.525   6.156
 4431POPC   C2B57500  44.231  26.639   6.569
 4431POPC   C3B57501  44.374  26.504   6.978
 4431POPC   C4B57502  44.472  26.586   7.441
 4432POPC   NC357503  32.012   0.036   5.636
 4432POPC   PO457504  32.438  44.496   5.405
 4432POPC   GL157505  32.372  44.647   5.847
 4432POPC   GL257506  32.545  44.932   5.924
 4432POPC   C1A57507  32.276  44.561   6.315
 4432POPC   D2A57508  31.991  44.366   6.656
 4432POPC   C3A57509  31.949  44.497   7.122
 4432POPC   C4A57510  31.856  44.375   7.561
 4432POPC   C1B57511  32.421   0.066   6.317
 4432POPC   C2B57512  32.049   0.058   6.591
 4432POPC   C3B57513  32.069  44.998   7.022
 4432POPC   C4B57514  32.435  44.753   7.177
 4433POPC   NC357515  20.046  31.903   5.486
 4433POPC   PO457516  19.824  31.373   5.210
 4433POPC   GL157517  19.811  31.521   5.742
 4433POPC   GL257518  19.456  31.564   5.912
 4433POPC   C1A57519  20.012  31.388   6.153
 4433POPC   D2A57520  20.006  31.223   6.577
 4433POPC   C3A57521  20.158  31.480   6.921
 4433POPC   C4A57522  20.095  31.443   7.336
 4433POPC   C1B57523  19.549  31.507   6.304
 4433POPC   C2B57524  19.750  31.651   6.666
 4433POPC   C3B57525  19.645  31.636   7.101
 4433POPC   C4B57526  19.621  31.492   7.537
 4434POPC   NC357527   4.377  35.008   5.530
 4434POPC   PO457528   4.136  34.402   5.358
 4434POPC   GL157529   4.161  34.548   5.787
 4434POPC   GL257530   3.962  34.851   5.840
 4434POPC   C1A57531   4.388  34.493   6.183
 4434POPC   D2A57532   4.509  34.711   6.563
 4434POPC   C3A57533   4.262  34.646   6.944
 4434POPC   C4A57534   4.420  34.499   7.341
 4434POPC   C1B57535   4.068  34.883   6.297
 4434POPC   C2B57536   3.965  35.035   6.700
 4434POPC   C3B57537   3.928  35.020   7.129
 4434POPC   C4B57538   3.994  34.733   7.506
 4435POPC   NC357539  36.244  11.719   5.405
 4435POPC   PO457540  36.000  11.042   5.356
 4435POPC   GL157541  36.206  11.285   5.686
 4435POPC   GL257542  36.258  11.017   5.858
 4435POPC   C1A57543  36.412  11.451   6.058
 4435POPC   D2A57544  36.277  11.308   6.465
 4435POPC   C3A57545  36.387  11.500   6.882
 4435POPC   C4A57546  36.464  11.239   7.244
 4435POPC   C1B57547  35.925  11.081   6.137
 4435POPC   C2B57548  35.857  11.017   6.559
 4435POPC   C3B57549  36.082  11.102   6.925
 4435POPC   C4B57550  35.934  11.289   7.292
 4436POPC   NC357551  10.065   2.794   5.232
 4436POPC   PO457552   9.528   2.415   5.448
 4436POPC   GL157553   9.774   2.583   5.735
 4436POPC   GL257554   9.766   2.914   5.661
 4436POPC   C1A57555   9.697   2.561   6.193
 4436POPC   D2A57556   9.691   2.350   6.623
 4436POPC   C3A57557   9.764   2.615   6.965
 4436POPC   C4A57558  10.147   2.729   7.194
 4436POPC   C1B57559   9.815   3.053   6.122
 4436POPC   C2B57560   9.730   3.024   6.600
 4436POPC   C3B57561   9.874   3.122   7.066
 4436POPC   C4B57562   9.980   3.087   7.532
 4437POPC   NC357563  44.426   4.909   5.320
 4437POPC   PO457564   0.022   5.147   5.476
 4437POPC   GL157565  44.749   4.898   5.729
 4437POPC   GL257566  44.488   5.122   5.831
 4437POPC   C1A57567  44.684   4.720   6.131
 4437POPC   D2A57568  44.596   4.963   6.494
 4437POPC   C3A57569  44.819   4.890   6.848
 4437POPC   C4A57570  44.700   4.920   7.255
 4437POPC   C1B57571  44.377   5.370   6.258
 4437POPC   C2B57572  44.344   5.466   6.753
 4437POPC   C3B57573  44.527   5.470   7.206
 4437POPC   C4B57574  44.494   5.649   7.660
 4438POPC   NC357575  44.437  15.615   5.520
 4438POPC   PO457576  44.705  14.972   5.192
 4438POPC   GL157577  44.713  14.967   5.681
 4438POPC   GL257578  44.382  15.134   5.764
 4438POPC   C1A57579  44.791  14.751   6.122
 4438POPC   D2A57580  44.979  14.778   6.563
 4438POPC   C3A57581  44.734  14.824   6.961
 4438POPC   C4A57582  44.791  15.000   7.404
 4438POPC   C1B57583  44.479  15.196   6.208
 4438POPC   C2B57584  44.657  15.201   6.612
 4438POPC   C3B57585  44.453  15.243   7.019
 4438POPC   C4B57586  44.426  15.364   7.419
 4439POPC   NC357587  40.169  40.984   5.475
 4439POPC   PO457588  40.361  41.647   5.513
 4439POPC   GL157589  40.000  41.600   5.771
 4439POPC   GL257590  39.903  41.279   5.793
 4439POPC   C1A57591  40.096  41.664   6.185
 4439POPC   D2A57592  40.239  41.467   6.543
 4439POPC   C3A57593  40.138  41.710   6.891
 4439POPC   C4A57594  40.319  41.725   7.276
 4439POPC   C1B57595  39.720  41.142   6.162
 4439POPC   C2B57596  39.845  40.984   6.561
 4439POPC   C3B57597  39.922  41.241   6.906
 4439POPC   C4B57598  39.703  41.308   7.258
 4440POPC   NC357599  40.793  17.459   5.202
 4440POPC   PO457600  40.771  18.046   5.273
 4440POPC   GL157601  40.611  17.736   5.610
 4440POPC   GL257602  40.923  17.524   5.709
 4440POPC   C1A57603  40.557  17.642   6.066
 4440POPC   D2A57604  40.428  17.849   6.466
 4440POPC   C3A57605  40.706  17.775   6.822
 4440POPC   C4A57606  40.627  17.643   7.240
 4440POPC   C1B57607  40.985  17.344   6.143
 4440POPC   C2B57608  41.084  17.366   6.604
 4440POPC   C3B57609  41.058  17.451   7.047
 4440POPC   C4B57610  40.925  17.271   7.457
 4441POPC   NC357611  24.710  15.625   5.758
 4441POPC   PO457612  24.130  15.601   5.364
 4441POPC   GL157613  24.218  15.951   5.685
 4441POPC   GL257614  24.025  15.804   5.921
 4441POPC   C1A57615  24.356  16.154   6.131
 4441POPC   D2A57616  24.474  15.939   6.551
 4441POPC   C3A57617  24.478  16.125   6.984
 4441POPC   C4A57618  24.761  16.063   7.350
 4441POPC   C1B57619  23.974  15.897   6.362
 4441POPC   C2B57620  24.017  15.830   6.787
 4441POPC   C3B57621  24.349  15.593   6.938
 4441POPC   C4B57622  24.590  15.586   7.306
 4442POPC   NC357623  12.970  25.657   5.399
 4442POPC   PO457624  12.526  26.109   5.233
 4442POPC   GL157625  12.812  26.081   5.672
 4442POPC   GL257626  13.134  25.911   5.831
 4442POPC   C1A57627  12.924  26.290   6.092
 4442POPC   D2A57628  12.768  26.384   6.516
 4442POPC   C3A57629  12.949  26.240   6.904
 4442POPC   C4A57630  12.822  26.395   7.297
 4442POPC   C1B57631  12.788  25.793   6.128
 4442POPC   C2B57632  12.739  25.864   6.584
 4442POPC   C3B57633  12.715  25.796   7.043
 4442POPC   C4B57634  13.029  25.916   7.343
 4443POPC   NC357635  32.608   6.621   5.696
 4443POPC   PO457636  33.193   6.771   5.604
 4443POPC   GL157637  33.027   6.607   5.968
 4443POPC   GL257638  32.849   6.927   6.067
 4443POPC   C1A57639  32.752   6.495   6.318
 4443POPC   D2A57640  32.943   6.489   6.705
 4443POPC   C3A57641  32.708   6.483   7.082
 4443POPC   C4A57642  32.867   6.474   7.550
 4443POPC   C1B57643  33.302   6.926   6.230
 4443POPC   C2B57644  33.546   6.699   6.530
 4443POPC   C3B57645  33.404   6.564   6.921
 4443POPC   C4B57646  33.126   6.733   7.213
 4444POPC   NC357647   8.965  21.267   5.402
 4444POPC   PO457648   9.039  21.914   5.321
 4444POPC   GL157649   8.970  21.725   5.724
 4444POPC   GL257650   9.207  21.450   5.810
 4444POPC   C1A57651   8.825  21.680   6.146
 4444POPC   D2A57652   9.086  21.741   6.510
 4444POPC   C3A57653   8.910  21.652   6.883
 4444POPC   C4A57654   8.684  21.569   7.261
 4444POPC   C1B57655   9.153  21.301   6.246
 4444POPC   C2B57656   8.924  21.186   6.648
 4444POPC   C3B57657   9.035  21.190   7.097
 4444POPC   C4B57658   9.191  21.567   7.291
 4445POPC   NC357659  27.949  24.291   5.449
 4445POPC   PO457660  27.388  24.633   5.363
 4445POPC   GL157661  27.418  24.384   5.787
 4445POPC   GL257662  27.768  24.347   5.911
 4445POPC   C1A57663  27.436  24.476   6.268
 4445POPC   D2A57664  27.640  24.411   6.660
 4445POPC   C3A57665  27.617  24.569   7.030
 4445POPC   C4A57666  27.409  24.423   7.405
 4445POPC   C1B57667  27.976  24.412   6.281
 4445POPC   C2B57668  28.076  24.168   6.679
 4445POPC   C3B57669  28.067  24.265   7.107
 4445POPC   C4B57670  27.888  24.491   7.450
 4446POPC   NC357671  43.910  12.427   5.604
 4446POPC   PO457672  43.545  11.877   5.637
 4446POPC   GL157673  43.906  12.024   5.910
 4446POPC   GL257674  44.215  12.282   5.960
 4446POPC   C1A57675  43.813  12.249   6.280
 4446POPC   D2A57676  43.559  12.445   6.568
 4446POPC   C3A57677  43.653  12.310   6.967
 4446POPC   C4A57678  43.685  12.065   7.346
 4446POPC   C1B57679  44.231  12.533   6.299
 4446POPC   C2B57680  44.126  12.313   6.700
 4446POPC   C3B57681  44.109  12.021   7.026
 4446POPC   C4B57682  44.199  12.065   7.445
 4447POPC   NC357683  21.852  26.559   4.921
 4447POPC   PO457684  21.972  27.028   5.417
 4447POPC   GL157685  22.100  26.683   5.713
 4447POPC   GL257686  21.810  26.464   5.711
 4447POPC   C1A57687  22.305  26.719   6.143
 4447POPC   D2A57688  22.255  27.022   6.492
 4447POPC   C3A57689  22.288  26.938   6.928
 4447POPC   C4A57690  21.988  27.121   7.215
 4447POPC   C1B57691  21.855  26.463   6.165
 4447POPC   C2B57692  22.017  26.536   6.624
 4447POPC   C3B57693  21.918  26.619   7.102
 4447POPC   C4B57694  21.766  26.609   7.564
 4448POPC   NC357695  33.421  13.711   5.467
 4448POPC   PO457696  32.930  13.319   5.389
 4448POPC   GL157697  32.901  13.327   5.848
 4448POPC   GL257698  33.072  13.653   5.925
 4448POPC   C1A57699  33.061  13.228   6.273
 4448POPC   D2A57700  33.158  13.399   6.689
 4448POPC   C3A57701  32.924  13.692   6.893
 4448POPC   C4A57702  32.822  13.762   7.336
 4448POPC   C1B57703  33.103  13.805   6.364
 4448POPC   C2B57704  33.343  13.924   6.749
 4448POPC   C3B57705  33.331  13.788   7.199
 4448POPC   C4B57706  33.344  14.002   7.595
 4449POPC   NC357707  35.902   7.137   5.599
 4449POPC   PO457708  36.229   7.651   5.446
 4449POPC   GL157709  36.085   7.567   5.857
 4449POPC   GL257710  35.824   7.808   5.894
 4449POPC   C1A57711  35.825   7.418   6.250
 4449POPC   D2A57712  35.734   7.229   6.684
 4449POPC   C3A57713  36.068   7.260   6.989
 4449POPC   C4A57714  36.373   7.614   7.087
 4449POPC   C1B57715  36.097   7.852   6.273
 4449POPC   C2B57716  36.027   7.679   6.693
 4449POPC   C3B57717  35.857   7.692   7.123
 4449POPC   C4B57718  35.935   7.790   7.586
 4450POPC   NC357719  13.264  29.826   5.529
 4450POPC   PO457720  13.899  29.667   5.201
 4450POPC   GL157721  13.748  29.652   5.680
 4450POPC   GL257722  13.451  29.596   5.939
 4450POPC   C1A57723  13.794  29.957   6.060
 4450POPC   D2A57724  13.628  29.818   6.479
 4450POPC   C3A57725  13.745  30.041   6.842
 4450POPC   C4A57726  13.849  30.285   7.182
 4450POPC   C1B57727  13.282  30.008   6.146
 4450POPC   C2B57728  13.125  30.041   6.555
 4450POPC   C3B57729  13.259  29.887   6.926
 4450POPC   C4B57730  13.397  30.064   7.262
 4451POPC   NC357731  23.967  15.175   5.288
 4451POPC   PO457732  23.396  15.071   5.217
 4451POPC   GL157733  23.570  15.091   5.651
 4451POPC   GL257734  23.789  15.374   5.729
 4451POPC   C1A57735  23.711  14.975   6.079
 4451POPC   D2A57736  23.653  15.122   6.516
 4451POPC   C3A57737  23.643  14.905   6.914
 4451POPC   C4A57738  23.476  15.010   7.314
 4451POPC   C1B57739  23.668  15.521   6.146
 4451POPC   C2B57740  23.572  15.623   6.570
 4451POPC   C3B57741  23.729  15.448   6.973
 4451POPC   C4B57742  23.856  15.384   7.401
 4452POPC   NC357743  24.652   2.424   5.382
 4452POPC   PO457744  24.301   3.043   5.407
 4452POPC   GL157745  24.413   2.778   5.780
 4452POPC   GL257746  24.750   2.802   5.790
 4452POPC   C1A57747  24.323   2.726   6.255
 4452POPC   D2A57748  24.127   2.695   6.692
 4452POPC   C3A57749  24.314   2.833   7.087
 4452POPC   C4A57750  24.373   2.600   7.524
 4452POPC   C1B57751  24.835   2.634   6.208
 4452POPC   C2B57752  24.954   2.547   6.624
 4452POPC   C3B57753  24.762   2.625   7.020
 4452POPC   C4B57754  24.784   2.947   7.371
 4453POPC   NC357755  34.888   5.810   5.402
 4453POPC   PO457756  34.282   5.941   5.410
 4453POPC   GL157757  34.509   5.849   5.772
 4453POPC   GL257758  34.530   6.134   5.945
 4453POPC   C1A57759  34.526   5.544   6.117
 4453POPC   D2A57760  34.366   5.553   6.557
 4453POPC   C3A57761  34.671   5.636   6.916
 4453POPC   C4A57762  34.658   5.737   7.376
 4453POPC   C1B57763  34.559   6.000   6.349
 4453POPC   C2B57764  34.471   6.064   6.731
 4453POPC   C3B57765  34.639   6.163   7.101
 4453POPC   C4B57766  34.352   6.155   7.394
 4454POPC   NC357767  30.942  25.872   5.515
 4454POPC   PO457768  31.544  25.630   5.243
 4454POPC   GL157769  31.448  25.882   5.664
 4454POPC   GL257770  31.367  26.223   5.685
 4454POPC   C1A57771  31.636  26.058   6.081
 4454POPC   D2A57772  31.735  25.875   6.486
 4454POPC   C3A57773  31.534  26.032   6.872
 4454POPC   C4A57774  31.543  25.764   7.238
 4454POPC   C1B57775  31.122  26.073   6.112
 4454POPC   C2B57776  31.113  26.247   6.551
 4454POPC   C3B57777  31.023  26.157   6.980
 4454POPC   C4B57778  31.292  26.222   7.322
 4455POPC   NC357779  44.629  39.138   5.460
 4455POPC   PO457780   0.249  39.297   5.442
 4455POPC   GL157781  44.937  39.278   5.863
 4455POPC   GL257782  44.594  39.091   5.951
 4455POPC   C1A57783  44.733  39.440   6.275
 4455POPC   D2A57784  44.448  39.195   6.495
 4455POPC   C3A57785  44.473  39.248   6.925
 4455POPC   C4A57786  44.740  39.486   7.199
 4455POPC   C1B57787  44.840  38.913   6.267
 4455POPC   C2B57788   0.006  38.933   6.649
 4455POPC   C3B57789  44.930  39.000   7.066
 4455POPC   C4B57790  44.606  38.978   7.348
 4456POPC   NC357791  37.929   9.455   5.563
 4456POPC   PO457792  37.461   9.779   5.197
 4456POPC   GL157793  37.576   9.875   5.721
 4456POPC   GL257794  37.374   9.706   5.997
 4456POPC   C1A57795  37.708   9.995   6.230
 4456POPC   D2A57796  37.585   9.801   6.688
 4456POPC   C3A57797  37.577  10.009   7.126
 4456POPC   C4A57798  37.644  10.059   7.616
 4456POPC   C1B57799  37.737   9.465   6.220
 4456POPC   C2B57800  37.895   9.272   6.614
 4456POPC   C3B57801  38.015   9.461   7.012
 4456POPC   C4B57802  38.001   9.260   7.409
 4457POPC   NC357803   1.326  38.940   5.617
 4457POPC   PO457804   0.986  39.324   5.176
 4457POPC   GL157805   1.198  39.424   5.656
 4457POPC   GL257806   0.895  39.484   5.850
 4457POPC   C1A57807   1.297  39.468   6.144
 4457POPC   D2A57808   1.407  39.357   6.607
 4457POPC   C3A57809   1.269  39.438   7.032
 4457POPC   C4A57810   1.510  39.389   7.427
 4457POPC   C1B57811   0.833  39.245   6.272
 4457POPC   C2B57812   0.901  39.249   6.708
 4457POPC   C3B57813   0.832  39.134   7.132
 4457POPC   C4B57814   1.016  39.303   7.477
 4458POPC   NC357815   4.453  26.907   5.092
 4458POPC   PO457816   4.704  26.437   5.513
 4458POPC   GL157817   4.428  26.657   5.810
 4458POPC   GL257818   4.109  26.465   5.936
 4458POPC   C1A57819   4.344  26.864   6.183
 4458POPC   D2A57820   4.265  26.725   6.577
 4458POPC   C3A57821   4.505  26.987   6.850
 4458POPC   C4A57822   4.350  27.077   7.233
 4458POPC   C1B57823   3.833  26.767   6.211
 4458POPC   C2B57824   3.701  26.848   6.659
 4458POPC   C3B57825   3.865  26.931   7.093
 4458POPC   C4B57826   3.919  27.133   7.530
 4459POPC   NC357827   3.062  11.801   5.387
 4459POPC   PO457828   3.525  12.227   5.112
 4459POPC   GL157829   3.479  12.042   5.552
 4459POPC   GL257830   3.361  12.319   5.721
 4459POPC   C1A57831   3.512  11.935   6.038
 4459POPC   D2A57832   3.419  12.096   6.481
 4459POPC   C3A57833   3.487  11.861   6.856
 4459POPC   C4A57834   3.668  11.740   7.250
 4459POPC   C1B57835   3.761  12.385   6.023
 4459POPC   C2B57836   3.876  12.311   6.474
 4459POPC   C3B57837   3.625  12.363   6.869
 4459POPC   C4B57838   3.661  12.345   7.295
 4460POPC   NC357839  17.841   3.565   5.175
 4460POPC   PO457840  17.254   3.824   5.365
 4460POPC   GL157841  17.483   3.580   5.699
 4460POPC   GL257842  17.784   3.737   5.722
 4460POPC   C1A57843  17.615   3.404   6.132
 4460POPC   D2A57844  17.588   3.487   6.604
 4460POPC   C3A57845  17.480   3.149   6.906
 4460POPC   C4A57846  17.183   3.119   7.241
 4460POPC   C1B57847  17.743   3.912   6.151
 4460POPC   C2B57848  17.963   3.847   6.566
 4460POPC   C3B57849  17.809   3.839   6.985
 4460POPC   C4B57850  17.577   3.549   7.228
 4461POPC   NC357851   3.363  28.289   5.429
 4461POPC   PO457852   3.845  28.817   5.357
 4461POPC   GL157853   3.693  28.554   5.754
 4461POPC   GL257854   3.661  28.136   5.793
 4461POPC   C1A57855   3.527  28.739   6.175
 4461POPC   D2A57856   3.337  28.600   6.582
 4461POPC   C3A57857   3.576  28.629   6.974
 4461POPC   C4A57858   3.433  28.539   7.394
 4461POPC   C1B57859   3.741  28.281   6.186
 4461POPC   C2B57860   3.841  28.396   6.575
 4461POPC   C3B57861   3.792  28.168   6.886
 4461POPC   C4B57862   3.878  28.304   7.251
 4462POPC   NC357863   5.971  24.746   5.322
 4462POPC   PO457864   5.770  24.157   5.562
 4462POPC   GL157865   5.668  24.535   5.763
 4462POPC   GL257866   5.994  24.671   5.839
 4462POPC   C1A57867   5.542  24.482   6.178
 4462POPC   D2A57868   5.602  24.607   6.595
 4462POPC   C3A57869   5.926  24.371   6.814
 4462POPC   C4A57870   5.707  24.368   7.161
 4462POPC   C1B57871   6.045  24.568   6.269
 4462POPC   C2B57872   6.068  24.820   6.619
 4462POPC   C3B57873   5.878  24.856   7.009
 4462POPC   C4B57874   6.108  24.628   7.294
 4463POPC   NC357875  39.298  20.606   5.310
 4463POPC   PO457876  38.915  21.050   5.609
 4463POPC   GL157877  39.226  20.797   5.848
 4463POPC   GL257878  39.322  20.424   5.789
 4463POPC   C1A57879  39.312  20.685   6.286
 4463POPC   D2A57880  39.339  20.344   6.602
 4463POPC   C3A57881  39.358  20.520   7.011
 4463POPC   C4A57882  39.048  20.686   7.268
 4463POPC   C1B57883  38.975  20.342   6.097
 4463POPC   C2B57884  38.857  20.513   6.529
 4463POPC   C3B57885  38.867  20.322   6.935
 4463POPC   C4B57886  39.079  20.166   7.315
 4464POPC   NC357887  20.590  39.550   5.161
 4464POPC   PO457888  20.640  40.179   5.422
 4464POPC   GL157889  20.686  39.904   5.794
 4464POPC   GL257890  21.039  39.825   5.878
 4464POPC   C1A57891  20.720  40.032   6.245
 4464POPC   D2A57892  20.903  40.178   6.646
 4464POPC   C3A57893  20.627  40.174   7.011
 4464POPC   C4A57894  20.729  40.155   7.478
 4464POPC   C1B57895  21.042  39.637   6.313
 4464POPC   C2B57896  20.911  39.687   6.757
 4464POPC   C3B57897  20.863  39.744   7.208
 4464POPC   C4B57898  20.998  39.618   7.631
 4465POPC   NC357899  11.094  43.308   5.337
 4465POPC   PO457900  11.578  42.818   5.369
 4465POPC   GL157901  11.449  42.939   5.797
 4465POPC   GL257902  11.120  43.048   5.784
 4465POPC   C1A57903  11.561  43.204   6.169
 4465POPC   D2A57904  11.397  43.207   6.589
 4465POPC   C3A57905  11.529  43.074   6.986
 4465POPC   C4A57906  11.276  43.001   7.327
 4465POPC   C1B57907  10.934  42.961   6.182
 4465POPC   C2B57908  10.831  43.120   6.606
 4465POPC   C3B57909  10.843  42.977   7.051
 4465POPC   C4B57910  10.802  43.076   7.549
 4466POPC   NC357911  39.404  16.760   5.471
 4466POPC   PO457912  38.740  17.058   5.488
 4466POPC   GL157913  38.937  16.930   5.875
 4466POPC   GL257914  39.046  16.636   5.838
 4466POPC   C1A57915  39.052  16.789   6.320
 4466POPC   D2A57916  39.140  16.999   6.674
 4466POPC   C3A57917  39.394  16.841   6.978
 4466POPC   C4A57918  39.039  16.852   7.267
 4466POPC   C1B57919  39.386  16.476   6.117
 4466POPC   C2B57920  39.366  16.429   6.566
 4466POPC   C3B57921  39.097  16.244   6.864
 4466POPC   C4B57922  39.244  16.396   7.200
 4467POPC   NC357923   9.512   6.222   5.422
 4467POPC   PO457924  10.113   6.353   5.599
 4467POPC   GL157925   9.790   6.196   5.857
 4467POPC   GL257926   9.658   5.838   5.826
 4467POPC   C1A57927   9.700   6.136   6.273
 4467POPC   D2A57928   9.658   5.875   6.601
 4467POPC   C3A57929   9.953   5.988   6.863
 4467POPC   C4A57930   9.884   6.112   7.266
 4467POPC   C1B57931   9.697   5.559   6.197
 4467POPC   C2B57932   9.797   5.363   6.580
 4467POPC   C3B57933   9.702   5.524   6.974
 4467POPC   C4B57934  10.054   5.630   7.202
 4468POPC   NC357935  35.109  33.419   5.393
 4468POPC   PO457936  35.524  33.897   5.216
 4468POPC   GL157937  35.448  33.745   5.668
 4468POPC   GL257938  35.777  33.658   5.782
 4468POPC   C1A57939  35.324  33.789   6.121
 4468POPC   D2A57940  35.307  34.034   6.508
 4468POPC   C3A57941  35.376  33.882   6.917
 4468POPC   C4A57942  35.207  33.879   7.288
 4468POPC   C1B57943  35.678  33.436   6.148
 4468POPC   C2B57944  35.589  33.596   6.552
 4468POPC   C3B57945  35.736  33.517   6.987
 4468POPC   C4B57946  35.701  33.821   7.336
 4469POPC   NC357947  28.005   4.594   5.356
 4469POPC   PO457948  27.422   4.151   5.338
 4469POPC   GL157949  27.646   4.102   5.720
 4469POPC   GL257950  27.706   4.441   5.783
 4469POPC   C1A57951  27.790   4.088   6.156
 4469POPC   D2A57952  27.660   4.347   6.489
 4469POPC   C3A57953  27.701   4.218   6.923
 4469POPC   C4A57954  27.497   4.277   7.289
 4469POPC   C1B57955  27.997   4.562   6.106
 4469POPC   C2B57956  28.109   4.620   6.510
 4469POPC   C3B57957  27.801   4.730   6.821
 4469POPC   C4B57958  27.864   4.701   7.256
 4470POPC   NC357959  41.362  34.763   5.216
 4470POPC   PO457960  41.424  34.109   5.493
 4470POPC   GL157961  41.461  34.294   5.874
 4470POPC   GL257962  41.464  34.638   5.730
 4470POPC   C1A57963  41.750  34.504   6.166
 4470POPC   D2A57964  41.783  34.684   6.577
 4470POPC   C3A57965  41.480  34.476   6.854
 4470POPC   C4A57966  41.686  34.504   7.263
 4470POPC   C1B57967  41.273  34.693   6.148
 4470POPC   C2B57968  41.279  34.871   6.547
 4470POPC   C3B57969  41.261  34.930   6.976
 4470POPC   C4B57970  41.204  34.605   7.266
 4471POPC   NC357971  11.041  24.397   5.341
 4471POPC   PO457972  11.637  24.117   5.432
 4471POPC   GL157973  11.395  24.283   5.813
 4471POPC   GL257974  11.040  24.343   5.853
 4471POPC   C1A57975  11.349  24.416   6.261
 4471POPC   D2A57976  11.371  24.584   6.682
 4471POPC   C3A57977  11.557  24.412   7.073
 4471POPC   C4A57978  11.374  24.700   7.393
 4471POPC   C1B57979  10.972  24.065   6.219
 4471POPC   C2B57980  10.973  24.218   6.645
 4471POPC   C3B57981  11.039  24.394   7.064
 4471POPC   C4B57982  11.185  24.217   7.439
 4472POPC   NC357983  33.880  26.148   5.425
 4472POPC   PO457984  33.310  26.174   5.638
 4472POPC   GL157985  33.549  25.842   5.866
 4472POPC   GL257986  33.935  25.923   5.894
 4472POPC   C1A57987  33.473  25.721   6.304
 4472POPC   D2A57988  33.498  26.132   6.495
 4472POPC   C3A57989  33.807  26.186   6.787
 4472POPC   C4A57990  33.586  26.025   7.121
 4472POPC   C1B57991  34.284  26.157   6.131
 4472POPC   C2B57992  34.287  26.307   6.576
 4472POPC   C3B57993  34.303  26.013   6.935
 4472POPC   C4B57994  34.047  25.880   7.286
 4473POPC   NC357995  42.684  30.669   5.466
 4473POPC   PO457996  42.034  30.614   5.341
 4473POPC   GL157997  42.260  30.475   5.711
 4473POPC   GL257998  42.577  30.248   5.746
 4473POPC   C1A57999  42.316  30.556   6.142
 4473POPC   D2A58000  42.226  30.488   6.579
 4473POPC   C3A58001  42.469  30.813   6.786
 4473POPC   C4A58002  42.571  30.849   7.208
 4473POPC   C1B58003  42.794  30.375   6.156
 4473POPC   C2B58004  42.753  30.401   6.616
 4473POPC   C3B58005  42.858  30.317   7.037
 4473POPC   C4B58006  42.710  30.328   7.480
 4474POPC   NC358007  26.382   0.373   5.305
 4474POPC   PO458008  25.682   0.433   5.221
 4474POPC   GL158009  25.980   0.439   5.624
 4474POPC   GL258010  26.276   0.245   5.789
 4474POPC   C1A58011  26.140   0.709   5.954
 4474POPC   D2A58012  26.083   0.804   6.380
 4474POPC   C3A58013  26.192   0.561   6.724
 4474POPC   C4A58014  26.061   0.688   7.159
 4474POPC   C1B58015  26.134   0.268   6.242
 4474POPC   C2B58016  25.790   0.322   6.527
 4474POPC   C3B58017  25.818   0.281   6.935
 4474POPC   C4B58018  26.240   0.200   7.096
 4475POPC   NC358019   6.726   5.194   5.426
 4475POPC   PO458020   6.162   4.858   5.373
 4475POPC   GL158021   6.424   4.861   5.756
 4475POPC   GL258022   6.786   4.773   5.776
 4475POPC   C1A58023   6.442   5.041   6.175
 4475POPC   D2A58024   6.675   4.993   6.546
 4475POPC   C3A58025   6.520   5.185   6.901
 4475POPC   C4A58026   6.279   5.032   7.228
 4475POPC   C1B58027   6.963   5.099   6.099
 4475POPC   C2B58028   7.129   5.203   6.519
 4475POPC   C3B58029   7.032   5.035   6.948
 4475POPC   C4B58030   6.791   5.013   7.352
 4476POPC   NC358031  39.096  27.145   5.446
 4476POPC   PO458032  39.567  26.688   5.478
 4476POPC   GL158033  39.384  26.881   5.849
 4476POPC   GL258034  39.613  27.160   5.888
 4476POPC   C1A58035  39.151  26.748   6.254
 4476POPC   D2A58036  38.804  26.513   6.521
 4476POPC   C3A58037  38.820  26.644   6.971
 4476POPC   C4A58038  38.980  27.048   7.152
 4476POPC   C1B58039  39.614  26.983   6.315
 4476POPC   C2B58040  39.376  27.093   6.702
 4476POPC   C3B58041  39.483  27.027   7.135
 4476POPC   C4B58042  39.431  26.629   7.369
 4477POPC   NC358043  39.615  29.369   5.509
 4477POPC   PO458044  40.121  28.920   5.535
 4477POPC   GL158045  40.042  29.201   5.917
 4477POPC   GL258046  39.737  29.414   5.989
 4477POPC   C1A58047  40.092  29.079   6.358
 4477POPC   D2A58048  40.335  28.885   6.668
 4477POPC   C3A58049  40.091  28.905   7.016
 4477POPC   C4A58050  39.697  28.693   6.994
 4477POPC   C1B58051  39.679  29.343   6.392
 4477POPC   C2B58052  39.732  29.171   6.776
 4477POPC   C3B58053  39.592  29.153   7.179
 4477POPC   C4B58054  39.543  29.540   7.324
 4478POPC   NC358055  24.920  18.099   5.154
 4478POPC   PO458056  24.386  18.381   5.419
 4478POPC   GL158057  24.561  18.291   5.816
 4478POPC   GL258058  24.627  17.980   5.854
 4478POPC   C1A58059  24.791  18.391   6.225
 4478POPC   D2A58060  24.790  18.657   6.615
 4478POPC   C3A58061  24.614  18.478   7.029
 4478POPC   C4A58062  24.583  18.533   7.495
 4478POPC   C1B58063  24.383  18.054   6.224
 4478POPC   C2B58064  24.409  18.286   6.598
 4478POPC   C3B58065  24.291  18.061   6.980
 4478POPC   C4B58066  24.570  18.013   7.272
 4479POPC   NC358067  25.101  29.055   5.292
 4479POPC   PO458068  25.577  29.480   5.484
 4479POPC   GL158069  25.298  29.355   5.812
 4479POPC   GL258070  25.088  29.051   5.799
 4479POPC   C1A58071  25.279  29.245   6.250
 4479POPC   D2A58072  25.504  29.026   6.535
 4479POPC   C3A58073  25.390  29.198   6.905
 4479POPC   C4A58074  25.275  29.178   7.302
 4479POPC   C1B58075  24.875  28.960   6.212
 4479POPC   C2B58076  24.999  28.938   6.651
 4479POPC   C3B58077  24.895  28.889   7.117
 4479POPC   C4B58078  24.895  28.968   7.577
 4480POPC   NC358079  24.690   1.433   5.511
 4480POPC   PO458080  24.764   0.730   5.485
 4480POPC   GL158081  24.704   0.961   5.845
 4480POPC   GL258082  24.779   1.313   5.977
 4480POPC   C1A58083  24.719   0.894   6.267
 4480POPC   D2A58084  24.472   0.954   6.618
 4480POPC   C3A58085  24.681   1.093   7.006
 4480POPC   C4A58086  24.353   1.046   7.300
 4480POPC   C1B58087  24.474   1.351   6.245
 4480POPC   C2B58088  24.530   1.463   6.639
 4480POPC   C3B58089  24.240   1.355   6.917
 4480POPC   C4B58090  24.164   1.521   7.305
 4481POPC   NC358091  38.362  36.151   5.169
 4481POPC   PO458092  38.941  35.832   5.476
 4481POPC   GL158093  38.739  36.189   5.725
 4481POPC   GL258094  38.351  36.163   5.693
 4481POPC   C1A58095  38.730  36.425   6.159
 4481POPC   D2A58096  38.793  36.490   6.629
 4481POPC   C3A58097  38.612  36.216   6.940
 4481POPC   C4A58098  38.722  36.300   7.351
 4481POPC   C1B58099  38.309  36.107   6.134
 4481POPC   C2B58100  38.295  36.328   6.524
 4481POPC   C3B58101  38.042  36.329   6.890
 4481POPC   C4B58102  38.198  36.301   7.282
 4482POPC   NC358103   4.633  42.493   5.422
 4482POPC   PO458104   3.998  42.283   5.574
 4482POPC   GL158105   4.330  42.489   5.825
 4482POPC   GL258106   4.098  42.479   6.049
 4482POPC   C1A58107   4.641  42.405   6.181
 4482POPC   D2A58108   4.689  42.287   6.631
 4482POPC   C3A58109   4.624  42.531   7.035
 4482POPC   C4A58110   4.319  42.694   7.352
 4482POPC   C1B58111   4.168  42.622   6.408
 4482POPC   C2B58112   4.212  42.360   6.743
 4482POPC   C3B58113   4.047  42.337   7.109
 4482POPC   C4B58114   3.686  42.388   7.191
 4483POPC   NC358115  35.532  44.654   5.500
 4483POPC   PO458116  36.108  44.904   5.194
 4483POPC   GL158117  36.174  44.922   5.685
 4483POPC   GL258118  36.344  44.598   5.787
 4483POPC   C1A58119  36.009  44.866   6.126
 4483POPC   D2A58120  36.036  44.605   6.509
 4483POPC   C3A58121  36.005  44.794   6.920
 4483POPC   C4A58122  36.210  44.919   7.273
 4483POPC   C1B58123  36.427  44.332   6.158
 4483POPC   C2B58124  36.370  44.204   6.583
 4483POPC   C3B58125  36.375  44.435   6.935
 4483POPC   C4B58126  36.583  44.586   7.291
 4484POPC   NC358127   8.087  32.502   5.318
 4484POPC   PO458128   8.537  32.077   5.549
 4484POPC   GL158129   8.229  32.236   5.827
 4484POPC   GL258130   8.028  32.539   5.831
 4484POPC   C1A58131   8.133  32.227   6.274
 4484POPC   D2A58132   8.114  32.029   6.695
 4484POPC   C3A58133   8.354  32.186   7.034
 4484POPC   C4A58134   8.474  32.044   7.440
 4484POPC   C1B58135   7.758  32.568   6.182
 4484POPC   C2B58136   7.749  32.399   6.593
 4484POPC   C3B58137   7.907  32.442   6.996
 4484POPC   C4B58138   8.040  32.322   7.399
 4485POPC   NC358139  22.293   3.153   5.465
 4485POPC   PO458140  21.964   3.771   5.459
 4485POPC   GL158141  22.141   3.542   5.796
 4485POPC   GL258142  21.872   3.300   5.759
 4485POPC   C1A58143  22.345   3.519   6.219
 4485POPC   D2A58144  22.338   3.893   6.520
 4485POPC   C3A58145  22.463   3.841   6.961
 4485POPC   C4A58146  22.379   3.399   7.030
 4485POPC   C1B58147  21.838   3.438   6.208
 4485POPC   C2B58148  22.021   3.431   6.635
 4485POPC   C3B58149  21.852   3.247   7.004
 4485POPC   C4B58150  21.804   3.474   7.420
 4486POPC   NC358151  21.519  31.629   5.484
 4486POPC   PO458152  21.015  31.261   5.256
 4486POPC   GL158153  21.171  31.345   5.749
 4486POPC   GL258154  21.542  31.252   5.856
 4486POPC   C1A58155  21.328  31.637   6.151
 4486POPC   D2A58156  21.653  31.601   6.527
 4486POPC   C3A58157  21.486  31.664   6.968
 4486POPC   C4A58158  21.041  31.776   7.061
 4486POPC   C1B58159  21.313  31.139   6.249
 4486POPC   C2B58160  21.174  31.383   6.631
 4486POPC   C3B58161  21.128  31.276   7.071
 4486POPC   C4B58162  21.094  31.448   7.494
 4487POPC   NC358163  23.210   3.706   5.486
 4487POPC   PO458164  22.585   3.508   5.532
 4487POPC   GL158165  22.797   3.763   5.819
 4487POPC   GL258166  22.981   3.513   5.901
 4487POPC   C1A58167  22.768   3.792   6.258
 4487POPC   D2A58168  22.779   3.576   6.674
 4487POPC   C3A58169  22.894   3.618   7.148
 4487POPC   C4A58170  22.791   3.672   7.639
 4487POPC   C1B58171  22.951   3.294   6.268
 4487POPC   C2B58172  23.229   3.241   6.619
 4487POPC   C3B58173  23.290   3.270   7.064
 4487POPC   C4B58174  23.040   3.252   7.485
 4488POPC   NC358175  26.999  30.561   5.471
 4488POPC   PO458176  26.398  30.787   5.306
 4488POPC   GL158177  26.588  30.807   5.712
 4488POPC   GL258178  26.692  30.461   5.882
 4488POPC   C1A58179  26.814  30.937   6.070
 4488POPC   D2A58180  26.792  30.883   6.521
 4488POPC   C3A58181  27.038  31.020   6.890
 4488POPC   C4A58182  26.856  30.985   7.309
 4488POPC   C1B58183  27.057  30.484   6.194
 4488POPC   C2B58184  27.173  30.555   6.651
 4488POPC   C3B58185  26.889  30.510   7.023
 4488POPC   C4B58186  26.847  30.509   7.484
 4489POPC   NC358187  25.308  15.926   5.313
 4489POPC   PO458188  24.689  15.972   5.466
 4489POPC   GL158189  25.101  15.923   5.801
 4489POPC   GL258190  25.446  16.087   5.768
 4489POPC   C1A58191  25.165  15.673   6.248
 4489POPC   D2A58192  25.014  15.586   6.721
 4489POPC   C3A58193  25.222  15.842   7.081
 4489POPC   C4A58194  25.195  15.907   7.565
 4489POPC   C1B58195  25.291  16.179   6.194
 4489POPC   C2B58196  24.990  16.083   6.522
 4489POPC   C3B58197  24.969  16.260   6.927
 4489POPC   C4B58198  25.229  16.346   7.291
 4490POPC   NC358199  17.470  44.277   5.667
 4490POPC   PO458200  17.753  44.864   5.422
 4490POPC   GL158201  17.683  44.707   5.858
 4490POPC   GL258202  17.353  44.716   5.938
 4490POPC   C1A58203  17.714  44.869   6.295
 4490POPC   D2A58204  17.834   0.100   6.678
 4490POPC   C3A58205  17.597  44.994   7.034
 4490POPC   C4A58206  17.818  44.743   7.199
 4490POPC   C1B58207  17.446  44.435   6.312
 4490POPC   C2B58208  17.571  44.576   6.723
 4490POPC   C3B58209  17.510  44.362   7.098
 4490POPC   C4B58210  17.194  44.353   7.448
 4491POPC   NC358211  30.692  31.232   5.315
 4491POPC   PO458212  30.594  31.884   5.365
 4491POPC   GL158213  30.916  31.644   5.628
 4491POPC   GL258214  30.763  31.336   5.805
 4491POPC   C1A58215  31.039  31.664   6.081
 4491POPC   D2A58216  30.845  31.423   6.424
 4491POPC   C3A58217  30.879  31.466   6.844
 4491POPC   C4A58218  30.849  31.574   7.291
 4491POPC   C1B58219  30.494  31.554   6.102
 4491POPC   C2B58220  30.327  31.405   6.531
 4491POPC   C3B58221  30.408  31.442   6.993
 4491POPC   C4B58222  30.641  31.113   7.219
 4492POPC   NC358223  14.863  41.642   5.464
 4492POPC   PO458224  15.472  41.761   5.416
 4492POPC   GL158225  15.293  41.848   5.837
 4492POPC   GL258226  14.926  41.805   5.977
 4492POPC   C1A58227  15.351  41.633   6.245
 4492POPC   D2A58228  15.271  41.236   6.523
 4492POPC   C3A58229  15.376  41.349   6.946
 4492POPC   C4A58230  15.234  41.716   7.188
 4492POPC   C1B58231  14.865  41.453   6.256
 4492POPC   C2B58232  14.667  41.434   6.646
 4492POPC   C3B58233  14.732  41.588   7.030
 4492POPC   C4B58234  14.931  41.272   7.231
 4493POPC   NC358235  42.431  19.639   5.281
 4493POPC   PO458236  42.116  20.158   5.320
 4493POPC   GL158237  42.196  19.878   5.731
 4493POPC   GL258238  42.481  19.617   5.775
 4493POPC   C1A58239  42.351  19.899   6.185
 4493POPC   D2A58240  42.135  19.888   6.590
 4493POPC   C3A58241  42.251  20.190   6.927
 4493POPC   C4A58242  42.354  20.130   7.372
 4493POPC   C1B58243  42.649  19.478   6.176
 4493POPC   C2B58244  42.631  19.673   6.593
 4493POPC   C3B58245  42.735  19.538   7.012
 4493POPC   C4B58246  42.635  19.721   7.423
 4494POPC   NC358247   7.681  21.617   4.923
 4494POPC   PO458248   7.328  21.483   5.423
 4494POPC   GL158249   7.417  21.387   5.818
 4494POPC   GL258250   7.314  21.712   5.878
 4494POPC   C1A58251   7.307  21.389   6.269
 4494POPC   D2A58252   7.485  21.347   6.669
 4494POPC   C3A58253   7.436  21.068   6.999
 4494POPC   C4A58254   7.466  21.244   7.401
 4494POPC   C1B58255   7.682  21.719   6.144
 4494POPC   C2B58256   7.703  21.800   6.601
 4494POPC   C3B58257   7.637  21.627   7.068
 4494POPC   C4B58258   7.404  21.735   7.473
 4495POPC   NC358259  37.780  39.611   5.436
 4495POPC   PO458260  37.452  40.271   5.253
 4495POPC   GL158261  37.464  40.020   5.665
 4495POPC   GL258262  37.807  40.048   5.725
 4495POPC   C1A58263  37.507  39.860   6.114
 4495POPC   D2A58264  37.779  39.842   6.521
 4495POPC   C3A58265  37.574  39.959   6.896
 4495POPC   C4A58266  37.439  39.675   7.196
 4495POPC   C1B58267  37.956  40.139   6.149
 4495POPC   C2B58268  38.164  40.208   6.533
 4495POPC   C3B58269  38.057  40.201   6.951
 4495POPC   C4B58270  37.925  39.951   7.275
 4496POPC   NC358271   1.894  36.603   5.122
 4496POPC   PO458272   2.196  36.084   5.536
 4496POPC   GL158273   2.055  36.064   5.887
 4496POPC   GL258274   1.684  36.083   5.858
 4496POPC   C1A58275   2.062  36.291   6.212
 4496POPC   D2A58276   2.004  36.446   6.577
 4496POPC   C3A58277   2.206  36.308   6.937
 4496POPC   C4A58278   1.835  36.288   7.170
 4496POPC   C1B58279   1.774  35.857   6.243
 4496POPC   C2B58280   2.021  35.927   6.623
 4496POPC   C3B58281   2.006  35.825   7.047
 4496POPC   C4B58282   1.590  35.811   7.288
 4497POPC   NC358283  37.077  35.417   5.398
 4497POPC   PO458284  36.566  35.037   5.419
 4497POPC   GL158285  36.756  35.226   5.828
 4497POPC   GL258286  37.120  35.317   5.900
 4497POPC   C1A58287  36.734  35.201   6.297
 4497POPC   D2A58288  36.855  34.924   6.645
 4497POPC   C3A58289  36.878  35.139   7.032
 4497POPC   C4A58290  36.688  35.465   7.256
 4497POPC   C1B58291  37.078  35.599   6.247
 4497POPC   C2B58292  36.893  35.566   6.668
 4497POPC   C3B58293  37.053  35.768   7.046
 4497POPC   C4B58294  37.184  35.457   7.307
 4498POPC   NC358295   5.316   4.081   5.127
 4498POPC   PO458296   5.694   4.434   5.598
 4498POPC   GL158297   5.833   4.282   5.936
 4498POPC   GL258298   6.058   4.009   5.842
 4498POPC   C1A58299   5.698   4.384   6.350
 4498POPC   D2A58300   5.604   4.203   6.737
 4498POPC   C3A58301   5.719   4.287   7.142
 4498POPC   C4A58302   5.456   3.991   7.329
 4498POPC   C1B58303   6.190   4.145   6.260
 4498POPC   C2B58304   6.125   4.291   6.639
 4498POPC   C3B58305   6.159   4.075   6.988
 4498POPC   C4B58306   6.184   4.201   7.418
 4499POPC   NC358307  34.477  29.380   5.403
 4499POPC   PO458308  34.572  28.758   5.644
 4499POPC   GL158309  34.649  29.169   5.855
 4499POPC   GL258310  34.894  29.444   5.766
 4499POPC   C1A58311  34.426  29.259   6.245
 4499POPC   D2A58312  34.277  29.059   6.627
 4499POPC   C3A58313  34.458  29.139   7.018
 4499POPC   C4A58314  34.511  28.965   7.405
 4499POPC   C1B58315  34.860  29.541   6.183
 4499POPC   C2B58316  34.780  29.406   6.586
 4499POPC   C3B58317  34.940  29.342   6.970
 4499POPC   C4B58318  34.761  29.417   7.342
 4500POPC   NC358319  15.608  16.282   5.486
 4500POPC   PO458320  16.148  15.833   5.520
 4500POPC   GL158321  16.037  16.220   5.781
 4500POPC   GL258322  16.364  16.316   5.892
 4500POPC   C1A58323  15.749  16.188   6.155
 4500POPC   D2A58324  15.814  15.806   6.426
 4500POPC   C3A58325  15.668  15.792   6.847
 4500POPC   C4A58326  15.685  16.141   7.110
 4500POPC   C1B58327  16.232  16.164   6.316
 4500POPC   C2B58328  16.108  16.098   6.768
 4500POPC   C3B58329  16.101  15.839   7.140
 4500POPC   C4B58330  16.254  15.887   7.545
 4501POPC   NC358331  24.776  22.773   5.305
 4501POPC   PO458332  25.314  22.913   5.677
 4501POPC   GL158333  25.269  22.929   6.056
 4501POPC   GL258334  25.435  22.635   6.089
 4501POPC   C1A58335  25.482  23.082   6.382
 4501POPC   D2A58336  25.529  22.727   6.642
 4501POPC   C3A58337  25.324  22.861   7.017
 4501POPC   C4A58338  25.021  23.195   7.118
 4501POPC   C1B58339  25.690  22.346   6.293
 4501POPC   C2B58340  25.828  22.298   6.706
 4501POPC   C3B58341  25.593  22.414   7.070
 4501POPC   C4B58342  25.549  22.619   7.447
 4502POPC   NC358343  18.967   1.115   5.451
 4502POPC   PO458344  18.612   1.681   5.688
 4502POPC   GL158345  18.785   1.367   5.909
 4502POPC   GL258346  19.032   1.098   5.983
 4502POPC   C1A58347  18.836   1.466   6.313
 4502POPC   D2A58348  19.049   1.315   6.670
 4502POPC   C3A58349  18.809   1.300   7.020
 4502POPC   C4A58350  18.719   0.970   7.355
 4502POPC   C1B58351  19.327   1.384   6.231
 4502POPC   C2B58352  19.538   1.492   6.618
 4502POPC   C3B58353  19.401   1.460   7.023
 4502POPC   C4B58354  19.406   1.364   7.440
 4503POPC   NC358355  30.236  44.772   5.491
 4503POPC   PO458356  30.856  44.634   5.295
 4503POPC   GL158357  30.712  44.593   5.759
 4503POPC   GL258358  30.413  44.374   5.797
 4503POPC   C1A58359  30.772  44.778   6.210
 4503POPC   D2A58360  31.080  44.643   6.556
 4503POPC   C3A58361  30.999  44.597   6.974
 4503POPC   C4A58362  30.732  44.890   7.152
 4503POPC   C1B58363  30.595  44.319   6.205
 4503POPC   C2B58364  30.565  44.541   6.644
 4503POPC   C3B58365  30.554  44.368   7.089
 4503POPC   C4B58366  30.391  44.415   7.522
 4504POPC   NC358367  21.618  38.134   5.106
 4504POPC   PO458368  21.450  37.574   5.352
 4504POPC   GL158369  21.259  37.506   5.722
 4504POPC   GL258370  20.961  37.273   5.713
 4504POPC   C1A58371  21.329  37.389   6.156
 4504POPC   D2A58372  21.272  37.608   6.558
 4504POPC   C3A58373  21.533  37.523   6.899
 4504POPC   C4A58374  21.796  37.682   7.236
 4504POPC   C1B58375  20.850  37.171   6.126
 4504POPC   C2B58376  20.806  37.300   6.565
 4504POPC   C3B58377  20.993  37.412   6.971
 4504POPC   C4B58378  21.298  37.183   7.193
 4505POPC   NC358379  27.907  43.672   5.463
 4505POPC   PO458380  28.448  44.026   5.263
 4505POPC   GL158381  28.343  43.868   5.709
 4505POPC   GL258382  28.371  43.498   5.801
 4505POPC   C1A58383  28.324  43.868   6.179
 4505POPC   D2A58384  28.682  43.843   6.503
 4505POPC   C3A58385  28.672  43.809   6.960
 4505POPC   C4A58386  28.576  43.741   7.420
 4505POPC   C1B58387  28.529  43.410   6.266
 4505POPC   C2B58388  28.370  43.470   6.710
 4505POPC   C3B58389  28.169  43.614   7.115
 4505POPC   C4B58390  28.129  43.492   7.573
 4506POPC   NC358391  43.785  11.132   5.288
 4506POPC   PO458392  43.898  10.464   5.338
 4506POPC   GL158393  44.037  10.471   5.744
 4506POPC   GL258394  43.890  10.812   5.768
 4506POPC   C1A58395  44.093  10.576   6.193
 4506POPC   D2A58396  43.864  10.588   6.596
 4506POPC   C3A58397  43.923  10.279   6.954
 4506POPC   C4A58398  43.920  10.241   7.438
 4506POPC   C1B58399  43.602  10.687   6.122
 4506POPC   C2B58400  43.331  10.612   6.494
 4506POPC   C3B58401  43.483  10.755   6.908
 4506POPC   C4B58402  43.816  10.702   7.203
 4507POPC   NC358403  29.625  22.664   5.001
 4507POPC   PO458404  30.187  22.783   5.318
 4507POPC   GL158405  30.071  22.865   5.730
 4507POPC   GL258406  30.252  23.087   5.860
 4507POPC   C1A58407  29.903  22.749   6.144
 4507POPC   D2A58408  29.724  22.930   6.500
 4507POPC   C3A58409  29.892  22.763   6.874
 4507POPC   C4A58410  29.751  22.921   7.210
 4507POPC   C1B58411  30.111  23.192   6.265
 4507POPC   C2B58412  30.213  23.091   6.664
 4507POPC   C3B58413  30.129  23.229   7.067
 4507POPC   C4B58414  30.493  23.345   7.313
 4508POPC   NC358415  11.607  23.442   5.182
 4508POPC   PO458416  12.138  23.754   5.539
 4508POPC   GL158417  12.160  23.725   5.966
 4508POPC   GL258418  12.008  23.421   5.941
 4508POPC   C1A58419  11.934  23.894   6.359
 4508POPC   D2A58420  11.985  24.178   6.744
 4508POPC   C3A58421  11.993  24.061   7.193
 4508POPC   C4A58422  12.289  23.855   7.569
 4508POPC   C1B58423  12.148  23.432   6.379
 4508POPC   C2B58424  12.318  23.734   6.661
 4508POPC   C3B58425  12.328  23.708   7.069
 4508POPC   C4B58426  11.961  23.563   7.319
 4509POPC   NC358427  41.583  16.888   5.432
 4509POPC   PO458428  41.151  16.376   5.568
 4509POPC   GL158429  41.464  16.516   5.798
 4509POPC   GL258430  41.653  16.224   5.790
 4509POPC   C1A58431  41.351  16.650   6.226
 4509POPC   D2A58432  41.602  16.795   6.575
 4509POPC   C3A58433  41.481  16.632   6.963
 4509POPC   C4A58434  41.620  16.856   7.320
 4509POPC   C1B58435  41.774  16.383   6.194
 4509POPC   C2B58436  41.732  16.301   6.632
 4509POPC   C3B58437  41.977  16.518   6.951
 4509POPC   C4B58438  41.808  16.382   7.326
 4510POPC   NC358439  12.761  43.192   5.513
 4510POPC   PO458440  13.051  42.579   5.446
 4510POPC   GL158441  12.980  42.746   5.873
 4510POPC   GL258442  12.646  42.924   5.946
 4510POPC   C1A58443  13.028  42.969   6.277
 4510POPC   D2A58444  12.847  42.952   6.680
 4510POPC   C3A58445  13.030  42.880   7.050
 4510POPC   C4A58446  12.964  43.084   7.442
 4510POPC   C1B58447  12.530  43.152   6.334
 4510POPC   C2B58448  12.367  43.140   6.754
 4510POPC   C3B58449  12.386  43.424   7.103
 4510POPC   C4B58450  12.637  43.471   7.480
 4511POPC   NC358451  40.774  12.951   5.540
 4511POPC   PO458452  40.483  12.468   5.457
 4511POPC   GL158453  40.387  12.756   5.789
 4511POPC   GL258454  40.598  12.600   5.956
 4511POPC   C1A58455  40.431  13.006   6.223
 4511POPC   D2A58456  40.691  13.075   6.634
 4511POPC   C3A58457  40.813  12.857   6.996
 4511POPC   C4A58458  40.607  12.740   7.386
 4511POPC   C1B58459  40.782  12.619   6.365
 4511POPC   C2B58460  41.194  12.463   6.499
 4511POPC   C3B58461  41.367  12.499   6.918
 4511POPC   C4B58462  41.138  12.610   7.315
 4512POPC   NC358463  43.781  24.878   5.474
 4512POPC   PO458464  43.796  24.214   5.639
 4512POPC   GL158465  43.859  24.563   5.918
 4512POPC   GL258466  44.166  24.724   5.777
 4512POPC   C1A58467  43.755  24.538   6.378
 4512POPC   D2A58468  43.911  24.218   6.686
 4512POPC   C3A58469  43.825  24.296   7.121
 4512POPC   C4A58470  43.589  24.482   7.418
 4512POPC   C1B58471  44.100  24.969   6.123
 4512POPC   C2B58472  44.155  24.825   6.523
 4512POPC   C3B58473  43.918  24.732   6.869
 4512POPC   C4B58474  43.991  24.782   7.307
 4513POPC   NC358475  10.101  12.520   5.323
 4513POPC   PO458476   9.709  13.054   5.347
 4513POPC   GL158477   9.846  12.826   5.755
 4513POPC   GL258478  10.170  12.646   5.804
 4513POPC   C1A58479   9.714  12.867   6.220
 4513POPC   D2A58480   9.453  12.652   6.565
 4513POPC   C3A58481   9.593  12.764   6.987
 4513POPC   C4A58482   9.645  13.084   7.300
 4513POPC   C1B58483  10.182  12.664   6.250
 4513POPC   C2B58484  10.007  12.750   6.664
 4513POPC   C3B58485  10.108  12.854   7.111
 4513POPC   C4B58486   9.905  12.696   7.509
 4514POPC   NC358487  21.732  10.469   5.106
 4514POPC   PO458488  21.152  10.552   5.464
 4514POPC   GL158489  21.347  10.383   5.843
 4514POPC   GL258490  21.577  10.657   5.964
 4514POPC   C1A58491  21.472  10.331   6.314
 4514POPC   D2A58492  21.604  10.635   6.574
 4514POPC   C3A58493  21.434  10.618   6.981
 4514POPC   C4A58494  21.533  10.379   7.341
 4514POPC   C1B58495  21.177  10.748   6.156
 4514POPC   C2B58496  21.016  10.992   6.444
 4514POPC   C3B58497  21.145  11.027   6.840
 4514POPC   C4B58498  21.064  10.895   7.247
 4515POPC   NC358499   0.849  24.916   5.574
 4515POPC   PO458500   0.311  25.166   5.302
 4515POPC   GL158501   0.357  25.169   5.756
 4515POPC   GL258502   0.143  25.424   5.883
 4515POPC   C1A58503   0.421  25.137   6.217
 4515POPC   D2A58504   0.263  25.226   6.631
 4515POPC   C3A58505   0.532  25.270   6.931
 4515POPC   C4A58506   0.549  25.052   7.300
 4515POPC   C1B58507   0.243  25.627   6.273
 4515POPC   C2B58508   0.371  25.717   6.682
 4515POPC   C3B58509   0.160  25.593   7.032
 4515POPC   C4B58510   0.253  25.462   7.473
 4516POPC   NC358511   1.118  19.368   5.502
 4516POPC   PO458512   1.369  18.803   5.283
 4516POPC   GL158513   1.233  18.799   5.778
 4516POPC   GL258514   1.112  19.145   5.982
 4516POPC   C1A58515   1.056  18.697   6.221
 4516POPC   D2A58516   1.150  19.033   6.529
 4516POPC   C3A58517   1.223  18.971   6.960
 4516POPC   C4A58518   1.144  18.856   7.364
 4516POPC   C1B58519   0.827  19.374   6.331
 4516POPC   C2B58520   0.826  19.400   6.800
 4516POPC   C3B58521   0.765  19.190   7.223
 4516POPC   C4B58522   0.719  18.938   7.651
 4517POPC   NC358523   7.420  14.170   5.135
 4517POPC   PO458524   7.354  13.498   5.330
 4517POPC   GL158525   7.347  13.539   5.793
 4517POPC   GL258526   7.281  13.195   5.770
 4517POPC   C1A58527   7.445  13.688   6.267
 4517POPC   D2A58528   7.695  13.672   6.684
 4517POPC   C3A58529   7.577  13.734   7.149
 4517POPC   C4A58530   7.672  13.621   7.604
 4517POPC   C1B58531   7.551  13.183   6.137
 4517POPC   C2B58532   7.450  13.240   6.555
 4517POPC   C3B58533   7.620  13.245   6.972
 4517POPC   C4B58534   7.366  13.304   7.332
 4518POPC   NC358535  20.842  28.641   5.458
 4518POPC   PO458536  20.276  28.289   5.370
 4518POPC   GL158537  20.530  28.276   5.758
 4518POPC   GL258538  20.808  28.081   5.741
 4518POPC   C1A58539  20.703  28.475   6.146
 4518POPC   D2A58540  20.545  28.504   6.560
 4518POPC   C3A58541  20.734  28.597   6.932
 4518POPC   C4A58542  20.513  28.345   7.218
 4518POPC   C1B58543  21.016  28.073   6.139
 4518POPC   C2B58544  20.844  28.065   6.559
 4518POPC   C3B58545  20.988  28.160   6.978
 4518POPC   C4B58546  20.865  28.082   7.420
 4519POPC   NC358547   5.740   8.622   5.086
 4519POPC   PO458548   5.602   9.238   5.279
 4519POPC   GL158549   5.699   8.979   5.611
 4519POPC   GL258550   5.885   9.261   5.735
 4519POPC   C1A58551   5.787   8.867   6.058
 4519POPC   D2A58552   5.965   8.928   6.492
 4519POPC   C3A58553   5.880   8.709   6.890
 4519POPC   C4A58554   5.621   8.893   7.210
 4519POPC   C1B58555   6.029   9.376   6.134
 4519POPC   C2B58556   5.847   9.422   6.548
 4519POPC   C3B58557   5.893   9.251   6.951
 4519POPC   C4B58558   5.818   9.384   7.350
 4520POPC   NC358559  43.489  31.979   5.538
 4520POPC   PO458560  43.826  32.478   5.294
 4520POPC   GL158561  43.803  32.401   5.757
 4520POPC   GL258562  43.888  32.081   5.837
 4520POPC   C1A58563  43.841  32.402   6.228
 4520POPC   D2A58564  43.951  32.629   6.595
 4520POPC   C3A58565  44.108  32.392   6.934
 4520POPC   C4A58566  43.878  32.254   7.288
 4520POPC   C1B58567  44.190  32.004   6.133
 4520POPC   C2B58568  44.141  32.020   6.565
 4520POPC   C3B58569  44.181  31.749   6.927
 4520POPC   C4B58570  43.981  31.752   7.323
 4521POPC   NC358571  35.253  21.006   5.544
 4521POPC   PO458572  35.343  21.661   5.630
 4521POPC   GL158573  35.329  21.336   5.934
 4521POPC   GL258574  35.389  21.611   6.184
 4521POPC   C1A58575  35.301  21.109   6.284
 4521POPC   D2A58576  35.214  21.384   6.632
 4521POPC   C3A58577  35.302  21.108   6.947
 4521POPC   C4A58578  35.385  21.001   7.359
 4521POPC   C1B58579  35.159  21.959   6.445
 4521POPC   C2B58580  34.857  21.876   6.785
 4521POPC   C3B58581  34.984  21.557   7.085
 4521POPC   C4B58582  35.398  21.504   7.255
 4522POPC   NC358583  33.447  36.895   5.463
 4522POPC   PO458584  32.901  36.586   5.201
 4522POPC   GL158585  32.948  36.833   5.582
 4522POPC   GL258586  32.947  36.659   5.912
 4522POPC   C1A58587  32.920  37.166   5.917
 4522POPC   D2A58588  32.935  37.213   6.392
 4522POPC   C3A58589  32.723  36.913   6.691
 4522POPC   C4A58590  32.844  36.910   7.135
 4522POPC   C1B58591  33.341  36.533   6.135
 4522POPC   C2B58592  33.339  36.392   6.538
 4522POPC   C3B58593  33.240  36.664   6.864
 4522POPC   C4B58594  33.363  36.482   7.213
 4523POPC   NC358595  40.999  30.170   5.452
 4523POPC   PO458596  40.458  29.807   5.364
 4523POPC   GL158597  40.786  29.676   5.699
 4523POPC   GL258598  40.970  29.962   5.912
 4523POPC   C1A58599  40.767  29.567   6.146
 4523POPC   D2A58600  40.649  29.851   6.492
 4523POPC   C3A58601  40.758  29.689   6.884
 4523POPC   C4A58602  40.486  29.734   7.239
 4523POPC   C1B58603  40.964  30.244   6.283
 4523POPC   C2B58604  40.638  30.390   6.560
 4523POPC   C3B58605  40.513  30.171   6.916
 4523POPC   C4B58606  40.856  30.122   7.204
 4524POPC   NC358607   6.409  16.509   5.272
 4524POPC   PO458608   6.886  16.767   5.375
 4524POPC   GL158609   6.637  16.739   5.791
 4524POPC   GL258610   6.750  16.465   5.993
 4524POPC   C1A58611   6.577  16.861   6.283
 4524POPC   D2A58612   6.589  16.648   6.709
 4524POPC   C3A58613   6.648  16.818   7.135
 4524POPC   C4A58614   6.372  17.146   7.389
 4524POPC   C1B58615   6.373  16.387   6.256
 4524POPC   C2B58616   6.254  16.267   6.689
 4524POPC   C3B58617   6.472  16.284   7.093
 4524POPC   C4B58618   6.380  16.168   7.511
 4525POPC   NC358619  43.503  23.878   5.506
 4525POPC   PO458620  44.140  23.658   5.332
 4525POPC   GL158621  43.911  23.577   5.753
 4525POPC   GL258622  43.712  23.242   5.747
 4525POPC   C1A58623  43.971  23.740   6.220
 4525POPC   D2A58624  44.176  23.724   6.659
 4525POPC   C3A58625  44.003  23.820   7.042
 4525POPC   C4A58626  44.154  24.044   7.411
 4525POPC   C1B58627  43.551  23.448   6.148
 4525POPC   C2B58628  43.674  23.547   6.593
 4525POPC   C3B58629  43.520  23.373   6.978
 4525POPC   C4B58630  43.691  23.518   7.361
 4526POPC   NC358631  22.608  26.505   5.548
 4526POPC   PO458632  22.965  26.972   5.451
 4526POPC   GL158633  22.949  26.747   5.852
 4526POPC   GL258634  23.147  26.429   5.902
 4526POPC   C1A58635  22.770  26.933   6.230
 4526POPC   D2A58636  22.951  26.941   6.596
 4526POPC   C3A58637  22.763  27.142   6.863
 4526POPC   C4A58638  22.860  26.973   7.186
 4526POPC   C1B58639  22.806  26.437   6.243
 4526POPC   C2B58640  22.579  26.540   6.602
 4526POPC   C3B58641  22.710  26.470   7.021
 4526POPC   C4B58642  22.482  26.659   7.328
 4527POPC   NC358643  44.122  29.516   5.351
 4527POPC   PO458644  43.779  30.150   5.345
 4527POPC   GL158645  43.980  30.015   5.695
 4527POPC   GL258646  43.809  29.712   5.720
 4527POPC   C1A58647  43.886  30.160   6.116
 4527POPC   D2A58648  43.748  30.392   6.510
 4527POPC   C3A58649  43.856  30.226   6.910
 4527POPC   C4A58650  43.722  30.050   7.333
 4527POPC   C1B58651  43.909  29.634   6.122
 4527POPC   C2B58652  43.903  29.839   6.521
 4527POPC   C3B58653  44.083  29.785   6.921
 4527POPC   C4B58654  43.897  29.587   7.295
 4528POPC   NC358655  44.441   4.043   5.478
 4528POPC   PO458656  44.761   4.593   5.309
 4528POPC   GL158657  44.739   4.382   5.717
 4528POPC   GL258658  44.381   4.507   5.704
 4528POPC   C1A58659  44.833   4.221   6.166
 4528POPC   D2A58660  44.873   4.423   6.601
 4528POPC   C3A58661  44.864   4.227   7.048
 4528POPC   C4A58662   0.074   4.334   7.461
 4528POPC   C1B58663  44.348   4.326   6.114
 4528POPC   C2B58664  44.327   4.537   6.508
 4528POPC   C3B58665  44.461   4.513   6.903
 4528POPC   C4B58666  44.348   4.219   7.142
 4529POPC   NC358667  27.850  10.697   5.454
 4529POPC   PO458668  27.257  10.674   5.248
 4529POPC   GL158669  27.432  10.635   5.743
 4529POPC   GL258670  27.403  10.334   5.860
 4529POPC   C1A58671  27.437  10.643   6.249
 4529POPC   D2A58672  27.309  10.686   6.699
 4529POPC   C3A58673  27.633  10.709   7.032
 4529POPC   C4A58674  27.686  10.744   7.481
 4529POPC   C1B58675  27.603  10.160   6.186
 4529POPC   C2B58676  27.498  10.073   6.586
 4529POPC   C3B58677  27.614  10.171   6.988
 4529POPC   C4B58678  27.498  10.311   7.363
 4530POPC   NC358679  28.822  14.765   5.050
 4530POPC   PO458680  28.841  15.232   5.360
 4530POPC   GL158681  29.015  15.226   5.838
 4530POPC   GL258682  29.347  15.051   5.958
 4530POPC   C1A58683  29.060  15.258   6.333
 4530POPC   D2A58684  29.240  15.037   6.705
 4530POPC   C3A58685  29.101  15.158   7.127
 4530POPC   C4A58686  29.002  15.385   7.521
 4530POPC   C1B58687  29.533  14.779   6.302
 4530POPC   C2B58688  29.738  14.867   6.706
 4530POPC   C3B58689  29.611  15.039   7.101
 4530POPC   C4B58690  29.706  15.311   7.467
 4531POPC   NC358691  38.687  20.141   5.322
 4531POPC   PO458692  38.662  19.413   5.421
 4531POPC   GL158693  38.789  19.769   5.684
 4531POPC   GL258694  38.586  20.058   5.807
 4531POPC   C1A58695  38.813  19.724   6.127
 4531POPC   D2A58696  38.586  19.615   6.516
 4531POPC   C3A58697  38.577  19.879   6.873
 4531POPC   C4A58698  38.775  19.763   7.258
 4531POPC   C1B58699  38.300  19.887   6.105
 4531POPC   C2B58700  38.138  19.898   6.530
 4531POPC   C3B58701  38.087  20.031   6.981
 4531POPC   C4B58702  38.288  19.879   7.320
 4532POPC   NC358703  21.675  13.027   5.472
 4532POPC   PO458704  21.004  12.859   5.403
 4532POPC   GL158705  21.239  12.866   5.794
 4532POPC   GL258706  21.364  12.523   5.814
 4532POPC   C1A58707  21.281  12.950   6.268
 4532POPC   D2A58708  21.201  12.753   6.696
 4532POPC   C3A58709  21.443  12.827   7.094
 4532POPC   C4A58710  21.678  13.185   7.300
 4532POPC   C1B58711  21.486  12.468   6.257
 4532POPC   C2B58712  21.712  12.657   6.586
 4532POPC   C3B58713  21.841  12.514   6.975
 4532POPC   C4B58714  21.876  12.684   7.369
 4533POPC   NC358715  40.836  20.004   5.282
 4533POPC   PO458716  40.654  19.452   5.517
 4533POPC   GL158717  40.472  19.667   5.835
 4533POPC   GL258718  40.550  20.019   5.744
 4533POPC   C1A58719  40.636  19.725   6.252
 4533POPC   D2A58720  40.947  19.553   6.551
 4533POPC   C3A58721  40.778  19.502   6.950
 4533POPC   C4A58722  40.872  19.767   7.265
 4533POPC   C1B58723  40.257  20.084   6.078
 4533POPC   C2B58724  40.286  20.012   6.533
 4533POPC   C3B58725  40.479  19.947   6.947
 4533POPC   C4B58726  40.396  19.872   7.400
 4534POPC   NC358727  17.176   3.349   5.345
 4534POPC   PO458728  16.511   3.585   5.529
 4534POPC   GL158729  16.821   3.417   5.761
 4534POPC   GL258730  16.985   3.722   5.794
 4534POPC   C1A58731  16.873   3.430   6.218
 4534POPC   D2A58732  16.674   3.566   6.591
 4534POPC   C3A58733  16.670   3.549   7.022
 4534POPC   C4A58734  16.666   3.350   7.465
 4534POPC   C1B58735  17.245   3.749   6.146
 4534POPC   C2B58736  17.138   3.800   6.557
 4534POPC   C3B58737  17.169   3.569   6.910
 4534POPC   C4B58738  17.077   3.604   7.317
 4535POPC   NC358739  28.771   0.380   5.144
 4535POPC   PO458740  28.319   0.742   5.476
 4535POPC   GL158741  28.201   0.604   5.866
 4535POPC   GL258742  28.130   0.276   5.816
 4535POPC   C1A58743  28.008   0.617   6.240
 4535POPC   D2A58744  28.028   0.779   6.627
 4535POPC   C3A58745  28.259   0.580   6.950
 4535POPC   C4A58746  28.502   0.408   7.291
 4535POPC   C1B58747  28.323   0.202   6.194
 4535POPC   C2B58748  28.182   0.256   6.581
 4535POPC   C3B58749  28.297   0.067   6.972
 4535POPC   C4B58750  28.038  44.848   7.228
 4536POPC   NC358751  19.521  11.643   5.368
 4536POPC   PO458752  18.936  11.542   5.515
 4536POPC   GL158753  19.249  11.537   5.851
 4536POPC   GL258754  19.247  11.186   5.881
 4536POPC   C1A58755  19.349  11.691   6.312
 4536POPC   D2A58756  19.065  11.685   6.698
 4536POPC   C3A58757  19.208  11.404   7.046
 4536POPC   C4A58758  19.622  11.261   7.099
 4536POPC   C1B58759  19.072  11.258   6.341
 4536POPC   C2B58760  18.801  11.258   6.768
 4536POPC   C3B58761  18.735  11.448   7.229
 4536POPC   C4B58762  18.726  11.297   7.684
 4537POPC   NC358763  13.558  41.849   5.409
 4537POPC   PO458764  13.652  41.208   5.415
 4537POPC   GL158765  13.677  41.370   5.825
 4537POPC   GL258766  14.039  41.391   5.887
 4537POPC   C1A58767  13.700  41.706   6.138
 4537POPC   D2A58768  13.763  41.827   6.572
 4537POPC   C3A58769  13.496  41.639   6.885
 4537POPC   C4A58770  13.541  41.550   7.326
 4537POPC   C1B58771  13.883  41.236   6.281
 4537POPC   C2B58772  13.712  41.208   6.662
 4537POPC   C3B58773  13.893  41.347   7.017
 4537POPC   C4B58774  13.842  41.146   7.385
 4538POPC   NC358775  19.247  14.222   5.506
 4538POPC   PO458776  18.835  14.771   5.422
 4538POPC   GL158777  18.978  14.565   5.787
 4538POPC   GL258778  19.319  14.673   5.768
 4538POPC   C1A58779  18.872  14.274   6.150
 4538POPC   D2A58780  18.847  14.107   6.594
 4538POPC   C3A58781  18.878  14.440   6.945
 4538POPC   C4A58782  19.057  14.478   7.378
 4538POPC   C1B58783  19.324  14.551   6.174
 4538POPC   C2B58784  19.265  14.403   6.551
 4538POPC   C3B58785  19.379  14.589   6.888
 4538POPC   C4B58786  19.616  14.597   7.219
 4539POPC   NC358787  16.270  27.761   5.292
 4539POPC   PO458788  15.769  27.306   5.419
 4539POPC   GL158789  15.824  27.588   5.778
 4539POPC   GL258790  16.150  27.726   5.788
 4539POPC   C1A58791  15.866  27.516   6.193
 4539POPC   D2A58792  15.834  27.261   6.552
 4539POPC   C3A58793  15.923  27.479   6.919
 4539POPC   C4A58794  15.587  27.623   7.158
 4539POPC   C1B58795  16.214  27.904   6.186
 4539POPC   C2B58796  16.270  27.672   6.564
 4539POPC   C3B58797  16.333  27.801   6.977
 4539POPC   C4B58798  16.121  27.771   7.344
 4540POPC   NC358799  24.512  30.414   5.153
 4540POPC   PO458800  24.230  31.015   5.391
 4540POPC   GL158801  24.338  30.677   5.635
 4540POPC   GL258802  24.584  30.872   5.750
 4540POPC   C1A58803  24.193  30.665   6.081
 4540POPC   D2A58804  24.327  30.874   6.483
 4540POPC   C3A58805  24.472  30.633   6.817
 4540POPC   C4A58806  24.383  30.769   7.172
 4540POPC   C1B58807  24.697  30.810   6.150
 4540POPC   C2B58808  24.886  30.742   6.535
 4540POPC   C3B58809  24.904  30.913   6.945
 4540POPC   C4B58810  24.924  30.654   7.285
 4541POPC   NC358811  22.538  18.237   5.367
 4541POPC   PO458812  21.875  18.335   5.347
 4541POPC   GL158813  22.046  18.231   5.766
 4541POPC   GL258814  22.326  17.986   5.745
 4541POPC   C1A58815  21.950  18.256   6.229
 4541POPC   D2A58816  21.850  18.287   6.660
 4541POPC   C3A58817  22.199  18.438   6.936
 4541POPC   C4A58818  22.299  18.261   7.342
 4541POPC   C1B58819  22.419  18.139   6.116
 4541POPC   C2B58820  22.356  18.151   6.546
 4541POPC   C3B58821  22.561  18.081   6.943
 4541POPC   C4B58822  22.784  18.203   7.334
 4542POPC   NC358823  36.365  23.377   5.413
 4542POPC   PO458824  35.787  23.747   5.394
 4542POPC   GL158825  36.103  23.788   5.742
 4542POPC   GL258826  36.229  23.462   5.903
 4542POPC   C1A58827  36.123  23.870   6.203
 4542POPC   D2A58828  36.221  23.560   6.539
 4542POPC   C3A58829  36.138  23.690   6.943
 4542POPC   C4A58830  36.065  23.845   7.332
 4542POPC   C1B58831  36.470  23.182   6.202
 4542POPC   C2B58832  36.459  23.072   6.663
 4542POPC   C3B58833  36.190  23.189   7.048
 4542POPC   C4B58834  36.290  23.429   7.478
 4543POPC   NC358835  27.751   8.580   5.453
 4543POPC   PO458836  27.147   8.324   5.205
 4543POPC   GL158837  27.436   8.140   5.685
 4543POPC   GL258838  27.721   7.945   5.610
 4543POPC   C1A58839  27.429   8.269   6.157
 4543POPC   D2A58840  27.245   8.328   6.546
 4543POPC   C3A58841  27.417   8.151   6.923
 4543POPC   C4A58842  27.266   8.031   7.316
 4543POPC   C1B58843  27.634   7.817   6.047
 4543POPC   C2B58844  27.632   7.893   6.492
 4543POPC   C3B58845  27.772   7.792   6.896
 4543POPC   C4B58846  27.923   7.980   7.234
 4544POPC   NC358847  42.622  23.671   5.226
 4544POPC   PO458848  43.186  23.430   5.526
 4544POPC   GL158849  43.076  23.616   5.876
 4544POPC   GL258850  43.056  23.934   5.822
 4544POPC   C1A58851  42.944  23.674   6.266
 4544POPC   D2A58852  43.173  23.636   6.626
 4544POPC   C3A58853  42.981  23.867   6.933
 4544POPC   C4A58854  42.825  23.624   7.227
 4544POPC   C1B58855  43.369  23.942   6.189
 4544POPC   C2B58856  43.410  24.094   6.620
 4544POPC   C3B58857  43.494  23.894   7.025
 4544POPC   C4B58858  43.258  23.809   7.425
 4545POPC   NC358859   8.845  25.124   5.134
 4545POPC   PO458860   9.284  25.522   5.446
 4545POPC   GL158861   9.101  25.222   5.749
 4545POPC   GL258862   9.286  24.890   5.679
 4545POPC   C1A58863   8.955  25.330   6.208
 4545POPC   D2A58864   8.809  25.196   6.645
 4545POPC   C3A58865   8.809  25.332   7.101
 4545POPC   C4A58866   9.001  25.255   7.506
 4545POPC   C1B58867   9.317  24.977   6.125
 4545POPC   C2B58868   9.202  24.924   6.515
 4545POPC   C3B58869   9.257  25.076   6.939
 4545POPC   C4B58870   9.365  24.914   7.346
 4546POPC   NC358871  11.265  41.781   5.304
 4546POPC   PO458872  11.002  41.131   5.245
 4546POPC   GL158873  11.141  41.400   5.626
 4546POPC   GL258874  11.477  41.527   5.756
 4546POPC   C1A58875  11.110  41.456   6.105
 4546POPC   D2A58876  11.048  41.686   6.501
 4546POPC   C3A58877  11.353  41.624   6.856
 4546POPC   C4A58878  11.154  41.492   7.216
 4546POPC   C1B58879  11.561  41.742   6.192
 4546POPC   C2B58880  11.809  41.788   6.598
 4546POPC   C3B58881  11.739  42.029   7.007
 4546POPC   C4B58882  11.557  41.834   7.399
 4547POPC   NC358883  43.402   1.648   5.193
 4547POPC   PO458884  43.085   1.083   5.297
 4547POPC   GL158885  43.142   1.164   5.756
 4547POPC   GL258886  43.351   1.451   5.834
 4547POPC   C1A58887  42.975   1.363   6.162
 4547POPC   D2A58888  42.904   1.165   6.564
 4547POPC   C3A58889  42.900   1.431   6.902
 4547POPC   C4A58890  43.152   1.577   7.243
 4547POPC   C1B58891  43.456   1.231   6.242
 4547POPC   C2B58892  43.408   1.200   6.713
 4547POPC   C3B58893  43.560   1.219   7.138
 4547POPC   C4B58894  43.576   1.124   7.601
 4548POPC   NC358895   2.054  41.750   4.980
 4548POPC   PO458896   1.831  41.424   5.484
 4548POPC   GL158897   2.002  41.575   5.822
 4548POPC   GL258898   2.216  41.333   5.905
 4548POPC   C1A58899   1.960  41.656   6.256
 4548POPC   D2A58900   2.012  41.408   6.637
 4548POPC   C3A58901   2.010  41.658   6.999
 4548POPC   C4A58902   1.740  41.978   7.151
 4548POPC   C1B58903   2.442  41.433   6.307
 4548POPC   C2B58904   2.521  41.359   6.771
 4548POPC   C3B58905   2.472  41.593   7.178
 4548POPC   C4B58906   2.370  41.456   7.598
 4549POPC   NC358907  20.915   5.493   5.321
 4549POPC   PO458908  20.745   4.855   5.361
 4549POPC   GL158909  20.490   4.967   5.710
 4549POPC   GL258910  20.571   5.288   5.711
 4549POPC   C1A58911  20.603   4.909   6.139
 4549POPC   D2A58912  20.434   4.917   6.564
 4549POPC   C3A58913  20.739   4.952   6.897
 4549POPC   C4A58914  20.797   4.716   7.253
 4549POPC   C1B58915  20.615   5.413   6.118
 4549POPC   C2B58916  20.728   5.353   6.543
 4549POPC   C3B58917  20.568   5.429   6.956
 4549POPC   C4B58918  20.711   5.291   7.342
 4550POPC   NC358919  37.242  28.051   5.522
 4550POPC   PO458920  37.730  28.533   5.307
 4550POPC   GL158921  37.803  28.644   5.725
 4550POPC   GL258922  37.620  28.334   5.827
 4550POPC   C1A58923  37.726  28.702   6.161
 4550POPC   D2A58924  37.580  28.496   6.550
 4550POPC   C3A58925  37.798  28.592   6.940
 4550POPC   C4A58926  37.626  28.484   7.358
 4550POPC   C1B58927  37.418  28.128   6.185
 4550POPC   C2B58928  37.489  27.949   6.571
 4550POPC   C3B58929  37.508  28.149   6.965
 4550POPC   C4B58930  37.257  28.060   7.301
 4551POPC   NC358931  20.898   6.119   5.427
 4551POPC   PO458932  20.472   5.606   5.319
 4551POPC   GL158933  20.533   5.807   5.740
 4551POPC   GL258934  20.863   5.746   5.784
 4551POPC   C1A58935  20.607   5.902   6.225
 4551POPC   D2A58936  20.477   5.792   6.620
 4551POPC   C3A58937  20.502   5.993   7.027
 4551POPC   C4A58938  20.318   6.109   7.431
 4551POPC   C1B58939  21.047   5.662   6.206
 4551POPC   C2B58940  21.017   5.800   6.646
 4551POPC   C3B58941  20.939   5.756   7.098
 4551POPC   C4B58942  20.754   5.804   7.524
 4552POPC   NC358943   2.974  40.565   5.450
 4552POPC   PO458944   2.560  41.052   5.668
 4552POPC   GL158945   2.825  40.807   5.898
 4552POPC   GL258946   2.711  40.478   5.899
 4552POPC   C1A58947   2.960  40.805   6.323
 4552POPC   D2A58948   2.706  40.854   6.667
 4552POPC   C3A58949   2.757  40.884   7.070
 4552POPC   C4A58950   2.446  41.087   7.253
 4552POPC   C1B58951   3.021  40.313   6.177
 4552POPC   C2B58952   3.083  40.424   6.628
 4552POPC   C3B58953   2.942  40.401   7.033
 4552POPC   C4B58954   2.987  40.592   7.438
 4553POPC   NC358955  25.486  23.267   5.431
 4553POPC   PO458956  25.313  23.909   5.582
 4553POPC   GL158957  25.018  23.722   5.878
 4553POPC   GL258958  25.193  23.404   5.874
 4553POPC   C1A58959  25.024  23.597   6.317
 4553POPC   D2A58960  25.319  23.699   6.646
 4553POPC   C3A58961  25.124  23.691   7.015
 4553POPC   C4A58962  24.888  24.003   7.120
 4553POPC   C1B58963  25.507  23.618   6.173
 4553POPC   C2B58964  25.801  23.491   6.513
 4553POPC   C3B58965  25.687  23.446   6.929
 4553POPC   C4B58966  25.591  23.829   7.137
 4554POPC   NC358967  38.989  31.553   5.088
 4554POPC   PO458968  38.416  31.374   5.416
 4554POPC   GL158969  38.438  31.500   5.833
 4554POPC   GL258970  38.644  31.216   5.862
 4554POPC   C1A58971  38.235  31.613   6.235
 4554POPC   D2A58972  38.245  31.387   6.625
 4554POPC   C3A58973  38.163  31.544   7.024
 4554POPC   C4A58974  38.125  31.899   7.277
 4554POPC   C1B58975  38.521  31.161   6.251
 4554POPC   C2B58976  38.714  31.169   6.639
 4554POPC   C3B58977  38.532  31.180   7.016
 4554POPC   C4B58978  38.529  31.473   7.387
 4555POPC   NC358979  19.247  38.487   5.586
 4555POPC   PO458980  18.602  38.874   5.503
 4555POPC   GL158981  18.860  38.722   5.824
 4555POPC   GL258982  18.876  38.342   5.891
 4555POPC   C1A58983  19.085  38.702   6.215
 4555POPC   D2A58984  18.989  38.485   6.579
 4555POPC   C3A58985  19.260  38.594   6.910
 4555POPC   C4A58986  19.129  38.563   7.319
 4555POPC   C1B58987  19.211  38.198   6.189
 4555POPC   C2B58988  19.225  37.996   6.597
 4555POPC   C3B58989  19.041  38.132   6.976
 4555POPC   C4B58990  18.785  38.202   7.310
 4556POPC   NC358991  42.083  27.779   5.589
 4556POPC   PO458992  42.156  27.113   5.318
 4556POPC   GL158993  42.360  27.382   5.755
 4556POPC   GL258994  42.647  27.600   5.792
 4556POPC   C1A58995  42.361  27.696   6.177
 4556POPC   D2A58996  42.481  27.671   6.619
 4556POPC   C3A58997  42.147  27.593   6.923
 4556POPC   C4A58998  42.163  27.745   7.332
 4556POPC   C1B58999  42.803  27.415   6.218
 4556POPC   C2B59000  42.764  27.216   6.669
 4556POPC   C3B59001  42.613  27.342   7.114
 4556POPC   C4B59002  42.527  27.453   7.572
 4557POPC   NC359003  38.319  13.805   5.532
 4557POPC   PO459004  38.525  13.368   5.089
 4557POPC   GL159005  38.515  13.361   5.610
 4557POPC   GL259006  38.760  13.557   5.745
 4557POPC   C1A59007  38.382  13.319   6.075
 4557POPC   D2A59008  38.392  13.501   6.528
 4557POPC   C3A59009  38.308  13.358   6.970
 4557POPC   C4A59010  38.499  13.475   7.399
 4557POPC   C1B59011  38.639  13.761   6.147
 4557POPC   C2B59012  38.755  13.900   6.544
 4557POPC   C3B59013  38.575  13.834   6.948
 4557POPC   C4B59014  38.638  14.010   7.349
 4558POPC   NC359015   4.022  30.239   5.510
 4558POPC   PO459016   4.616  29.932   5.503
 4558POPC   GL159017   4.239  29.852   5.773
 4558POPC   GL259018   4.184  29.523   5.900
 4558POPC   C1A59019   4.168  29.989   6.186
 4558POPC   D2A59020   4.452  30.061   6.510
 4558POPC   C3A59021   4.355  29.964   6.901
 4558POPC   C4A59022   4.565  30.142   7.257
 4558POPC   C1B59023   4.236  29.494   6.335
 4558POPC   C2B59024   4.008  29.660   6.657
 4558POPC   C3B59025   3.993  29.612   7.075
 4558POPC   C4B59026   4.275  29.704   7.387
 4559POPC   NC359027  32.067  44.265   5.223
 4559POPC   PO459028  32.500  43.770   5.138
 4559POPC   GL159029  32.361  43.890   5.608
 4559POPC   GL259030  32.252  43.595   5.807
 4559POPC   C1A59031  32.263  44.019   6.108
 4559POPC   D2A59032  32.299  43.878   6.586
 4559POPC   C3A59033  32.112  44.003   7.012
 4559POPC   C4A59034  32.315  44.219   7.392
 4559POPC   C1B59035  32.473  43.544   6.210
 4559POPC   C2B59036  32.400  43.363   6.625
 4559POPC   C3B59037  32.394  43.564   7.032
 4559POPC   C4B59038  32.565  43.495   7.428
 4560POPC   NC359039   8.963  34.870   5.152
 4560POPC   PO459040   9.152  35.572   5.206
 4560POPC   GL159041   9.114  35.422   5.637
 4560POPC   GL259042   8.869  35.656   5.704
 4560POPC   C1A59043   9.126  35.258   6.094
 4560POPC   D2A59044   9.023  34.904   6.426
 4560POPC   C3A59045   8.974  34.999   6.899
 4560POPC   C4A59046   8.651  35.236   7.158
 4560POPC   C1B59047   8.845  35.716   6.159
 4560POPC   C2B59048   9.077  35.548   6.515
 4560POPC   C3B59049   9.029  35.534   6.941
 4560POPC   C4B59050   9.182  35.362   7.307
 4561POPC   NC359051  37.197  40.935   5.495
 4561POPC   PO459052  36.550  40.689   5.358
 4561POPC   GL159053  36.770  40.747   5.732
 4561POPC   GL259054  36.792  41.077   5.785
 4561POPC   C1A59055  36.669  40.807   6.196
 4561POPC   D2A59056  36.710  41.033   6.604
 4561POPC   C3A59057  36.691  40.700   6.924
 4561POPC   C4A59058  36.352  40.700   7.218
 4561POPC   C1B59059  37.109  41.086   6.126
 4561POPC   C2B59060  37.226  41.111   6.559
 4561POPC   C3B59061  37.143  40.978   6.986
 4561POPC   C4B59062  37.214  40.892   7.454
 4562POPC   NC359063  41.820  23.372   5.384
 4562POPC   PO459064  41.479  23.897   5.413
 4562POPC   GL159065  41.497  23.652   5.754
 4562POPC   GL259066  41.781  23.717   5.829
 4562POPC   C1A59067  41.432  23.758   6.194
 4562POPC   D2A59068  41.548  23.567   6.592
 4562POPC   C3A59069  41.451  23.796   6.920
 4562POPC   C4A59070  41.185  23.862   7.291
 4562POPC   C1B59071  41.920  23.536   6.246
 4562POPC   C2B59072  42.136  23.534   6.650
 4562POPC   C3B59073  41.963  23.648   7.051
 4562POPC   C4B59074  41.852  23.561   7.494
 4563POPC   NC359075   0.086  18.490   5.302
 4563POPC   PO459076   0.653  18.171   5.313
 4563POPC   GL159077   0.508  18.291   5.730
 4563POPC   GL259078   0.141  18.179   5.696
 4563POPC   C1A59079   0.598  18.421   6.198
 4563POPC   D2A59080   0.510  18.379   6.664
 4563POPC   C3A59081   0.512  18.361   7.151
 4563POPC   C4A59082   0.377  18.478   7.601
 4563POPC   C1B59083   0.106  18.327   6.098
 4563POPC   C2B59084   0.070  18.170   6.504
 4563POPC   C3B59085   0.069  18.339   6.908
 4563POPC   C4B59086   0.021  18.250   7.332
 4564POPC   NC359087  44.255  19.040   5.220
 4564POPC   PO459088  44.873  19.280   5.309
 4564POPC   GL159089  44.702  18.929   5.599
 4564POPC   GL259090  44.418  18.683   5.560
 4564POPC   C1A59091  44.767  18.881   6.057
 4564POPC   D2A59092  44.848  19.151   6.443
 4564POPC   C3A59093  44.748  18.982   6.854
 4564POPC   C4A59094  44.905  18.724   7.196
 4564POPC   C1B59095  44.277  18.712   5.989
 4564POPC   C2B59096  44.356  18.848   6.426
 4564POPC   C3B59097  44.220  18.783   6.848
 4564POPC   C4B59098  44.418  18.826   7.216
 4565POPC   NC359099  35.889  13.773   5.315
 4565POPC   PO459100  36.397  13.381   5.323
 4565POPC   GL159101  36.514  13.743   5.611
 4565POPC   GL259102  36.192  13.856   5.734
 4565POPC   C1A59103  36.591  13.780   6.089
 4565POPC   D2A59104  36.502  13.534   6.496
 4565POPC   C3A59105  36.539  13.721   6.914
 4565POPC   C4A59106  36.314  13.534   7.262
 4565POPC   C1B59107  36.111  13.569   6.090
 4565POPC   C2B59108  35.906  13.683   6.470
 4565POPC   C3B59109  36.037  13.757   6.867
 4565POPC   C4B59110  35.934  13.972   7.195
 4566POPC   NC359111  42.396  32.451   5.215
 4566POPC   PO459112  42.426  31.834   5.204
 4566POPC   GL159113  42.238  31.917   5.620
 4566POPC   GL259114  42.324  32.258   5.682
 4566POPC   C1A59115  42.165  31.990   6.083
 4566POPC   D2A59116  42.121  32.242   6.481
 4566POPC   C3A59117  42.365  32.203   6.868
 4566POPC   C4A59118  42.364  32.162   7.327
 4566POPC   C1B59119  42.370  32.479   6.060
 4566POPC   C2B59120  42.538  32.544   6.455
 4566POPC   C3B59121  42.573  32.668   6.876
 4566POPC   C4B59122  42.315  32.649   7.230
 4567POPC   NC359123   6.459  18.684   5.475
 4567POPC   PO459124   7.140  18.699   5.590
 4567POPC   GL159125   6.801  18.402   5.761
 4567POPC   GL259126   6.936  18.447   6.092
 4567POPC   C1A59127   6.449  18.315   6.108
 4567POPC   D2A59128   6.478  18.158   6.592
 4567POPC   C3A59129   6.721  18.177   7.039
 4567POPC   C4A59130   6.921  18.354   7.427
 4567POPC   C1B59131   6.681  18.617   6.440
 4567POPC   C2B59132   6.594  18.633   6.872
 4567POPC   C3B59133   6.523  18.682   7.302
 4567POPC   C4B59134   6.608  18.611   7.756
 4568POPC   NC359135  34.140  27.103   5.562
 4568POPC   PO459136  34.610  26.724   5.219
 4568POPC   GL159137  34.411  26.660   5.660
 4568POPC   GL259138  34.634  26.867   5.803
 4568POPC   C1A59139  34.313  26.713   6.168
 4568POPC   D2A59140  34.492  26.804   6.628
 4568POPC   C3A59141  34.424  26.993   7.069
 4568POPC   C4A59142  34.305  26.770   7.466
 4568POPC   C1B59143  34.760  26.987   6.221
 4568POPC   C2B59144  34.991  26.798   6.533
 4568POPC   C3B59145  34.919  26.815   6.970
 4568POPC   C4B59146  34.872  27.001   7.377
 4569POPC   NC359147  44.810  26.597   5.440
 4569POPC   PO459148  44.731  25.972   5.299
 4569POPC   GL159149  44.826  25.935   5.752
 4569POPC   GL259150  44.995  26.260   5.795
 4569POPC   C1A59151  44.751  25.721   6.168
 4569POPC   D2A59152  44.831  25.653   6.622
 4569POPC   C3A59153  44.683  25.995   6.942
 4569POPC   C4A59154  44.395  26.054   7.314
 4569POPC   C1B59155  44.764  26.256   6.197
 4569POPC   C2B59156  44.747  26.509   6.598
 4569POPC   C3B59157  44.875  26.530   7.046
 4569POPC   C4B59158  44.854  26.243   7.413
 4570POPC   NC359159  43.872   0.117   5.331
 4570POPC   PO459160  43.938   0.716   5.382
 4570POPC   GL159161  44.122   0.438   5.679
 4570POPC   GL259162  43.804   0.324   5.803
 4570POPC   C1A59163  44.189   0.456   6.137
 4570POPC   D2A59164  43.940   0.419   6.508
 4570POPC   C3A59165  44.142   0.367   6.875
 4570POPC   C4A59166  43.991   0.423   7.267
 4570POPC   C1B59167  43.570   0.289   6.170
 4570POPC   C2B59168  43.385   0.280   6.560
 4570POPC   C3B59169  43.590   0.332   6.932
 4570POPC   C4B59170  43.382   0.291   7.323
 4571POPC   NC359171  11.761  13.559   5.121
 4571POPC   PO459172  12.339  13.606   5.471
 4571POPC   GL159173  12.184  13.452   5.843
 4571POPC   GL259174  11.914  13.699   5.817
 4571POPC   C1A59175  12.051  13.507   6.274
 4571POPC   D2A59176  12.056  13.845   6.580
 4571POPC   C3A59177  12.161  13.746   7.003
 4571POPC   C4A59178  11.935  13.400   7.168
 4571POPC   C1B59179  11.675  13.919   6.113
 4571POPC   C2B59180  11.548  13.831   6.515
 4571POPC   C3B59181  11.652  13.753   6.918
 4571POPC   C4B59182  11.764  13.884   7.303
 4572POPC   NC359183   0.788  44.100   5.069
 4572POPC   PO459184   0.346  43.760   5.349
 4572POPC   GL159185   0.273  43.830   5.778
 4572POPC   GL259186   0.626  43.855   5.833
 4572POPC   C1A59187   0.358  43.610   6.201
 4572POPC   D2A59188   0.380  43.804   6.625
 4572POPC   C3A59189   0.482  43.718   7.057
 4572POPC   C4A59190   0.304  43.880   7.413
 4572POPC   C1B59191   0.426  44.113   6.182
 4572POPC   C2B59192   0.591  44.264   6.543
 4572POPC   C3B59193   0.742  44.125   6.911
 4572POPC   C4B59194   0.662  44.285   7.319
 4573POPC   NC359195  35.359   9.567   5.373
 4573POPC   PO459196  35.102  10.173   5.396
 4573POPC   GL159197  35.361  10.107   5.733
 4573POPC   GL259198  35.545   9.810   5.800
 4573POPC   C1A59199  35.246  10.061   6.142
 4573POPC   D2A59200  35.512  10.007   6.456
 4573POPC   C3A59201  35.317   9.914   6.835
 4573POPC   C4A59202  35.343   9.625   7.140
 4573POPC   C1B59203  35.448   9.541   6.155
 4573POPC   C2B59204  35.419   9.418   6.585
 4573POPC   C3B59205  35.630   9.213   6.915
 4573POPC   C4B59206  35.748   9.346   7.317
 4574POPC   NC359207  12.748  17.218   5.478
 4574POPC   PO459208  12.421  17.850   5.432
 4574POPC   GL159209  12.693  17.633   5.775
 4574POPC   GL259210  12.980  17.788   5.828
 4574POPC   C1A59211  12.897  17.446   6.207
 4574POPC   D2A59212  13.150  17.652   6.576
 4574POPC   C3A59213  13.048  17.504   7.016
 4574POPC   C4A59214  12.785  17.105   6.993
 4574POPC   C1B59215  12.636  17.869   6.218
 4574POPC   C2B59216  12.631  17.682   6.655
 4574POPC   C3B59217  12.548  17.633   7.088
 4574POPC   C4B59218  12.710  17.779   7.506
 4575POPC   NC359219  28.005   7.636   5.240
 4575POPC   PO459220  28.531   7.397   5.551
 4575POPC   GL159221  28.378   7.441   5.925
 4575POPC   GL259222  28.087   7.622   5.785
 4575POPC   C1A59223  28.585   7.275   6.289
 4575POPC   D2A59224  28.820   7.235   6.680
 4575POPC   C3A59225  28.540   7.234   7.034
 4575POPC   C4A59226  28.558   7.490   7.381
 4575POPC   C1B59227  28.100   7.749   6.214
 4575POPC   C2B59228  28.090   7.530   6.567
 4575POPC   C3B59229  28.230   7.627   6.983
 4575POPC   C4B59230  28.045   7.500   7.352
 4576POPC   NC359231   1.793  24.961   5.388
 4576POPC   PO459232   2.092  25.492   5.025
 4576POPC   GL159233   2.105  25.369   5.552
 4576POPC   GL259234   2.352  25.542   5.816
 4576POPC   C1A59235   2.006  25.138   6.001
 4576POPC   D2A59236   1.774  25.090   6.445
 4576POPC   C3A59237   1.913  25.013   6.915
 4576POPC   C4A59238   1.828  25.228   7.332
 4576POPC   C1B59239   2.079  25.590   6.230
 4576POPC   C2B59240   2.037  25.467   6.693
 4576POPC   C3B59241   2.054  25.715   7.105
 4576POPC   C4B59242   1.962  25.713   7.568
 4577POPC   NC359243  25.759  28.384   5.482
 4577POPC   PO459244  25.171  28.595   5.257
 4577POPC   GL159245  25.293  28.556   5.682
 4577POPC   GL259246  25.335  28.175   5.686
 4577POPC   C1A59247  25.359  28.755   6.107
 4577POPC   D2A59248  25.321  28.546   6.515
 4577POPC   C3A59249  25.337  28.674   6.953
 4577POPC   C4A59250  25.106  28.377   7.206
 4577POPC   C1B59251  25.524  28.278   6.096
 4577POPC   C2B59252  25.691  28.189   6.474
 4577POPC   C3B59253  25.527  28.199   6.866
 4577POPC   C4B59254  25.644  28.317   7.249
 4578POPC   NC359255  14.180  38.686   5.547
 4578POPC   PO459256  14.693  38.269   5.506
 4578POPC   GL159257  14.452  38.373   5.879
 4578POPC   GL259258  14.449  38.711   5.974
 4578POPC   C1A59259  14.229  38.363   6.294
 4578POPC   D2A59260  14.001  38.381   6.681
 4578POPC   C3A59261  14.174  38.483   7.043
 4578POPC   C4A59262  14.568  38.429   7.199
 4578POPC   C1B59263  14.056  38.825   6.184
 4578POPC   C2B59264  14.026  38.943   6.605
 4578POPC   C3B59265  14.228  38.986   6.999
 4578POPC   C4B59266  14.307  38.833   7.421
 4579POPC   NC359267   9.976  36.056   5.390
 4579POPC   PO459268   9.426  36.440   5.472
 4579POPC   GL159269   9.542  36.096   5.700
 4579POPC   GL259270   9.513  35.762   5.554
 4579POPC   C1A59271   9.809  35.939   6.032
 4579POPC   D2A59272   9.939  36.096   6.430
 4579POPC   C3A59273   9.761  36.189   6.834
 4579POPC   C4A59274   9.860  35.960   7.212
 4579POPC   C1B59275   9.337  35.734   5.996
 4579POPC   C2B59276   9.459  35.884   6.403
 4579POPC   C3B59277   9.511  35.744   6.798
 4579POPC   C4B59278   9.370  35.831   7.177
 4580POPC   NC359279   1.246  36.389   5.273
 4580POPC   PO459280   0.790  35.887   5.351
 4580POPC   GL159281   1.117  36.032   5.641
 4580POPC   GL259282   1.022  36.372   5.739
 4580POPC   C1A59283   1.230  35.914   6.073
 4580POPC   D2A59284   1.007  35.887   6.475
 4580POPC   C3A59285   1.056  36.208   6.777
 4580POPC   C4A59286   1.152  36.177   7.200
 4580POPC   C1B59287   1.318  36.402   6.103
 4580POPC   C2B59288   1.476  36.433   6.528
 4580POPC   C3B59289   1.440  36.554   6.960
 4580POPC   C4B59290   1.464  36.495   7.434
 4581POPC   NC359291  31.209   6.465   5.357
 4581POPC   PO459292  31.434   7.078   5.216
 4581POPC   GL159293  31.417   6.847   5.668
 4581POPC   GL259294  31.364   6.467   5.843
 4581POPC   C1A59295  31.550   6.852   6.107
 4581POPC   D2A59296  31.503   6.880   6.544
 4581POPC   C3A59297  31.700   6.820   6.964
 4581POPC   C4A59298  31.564   7.013   7.355
 4581POPC   C1B59299  31.396   6.370   6.332
 4581POPC   C2B59300  31.389   6.406   6.800
 4581POPC   C3B59301  31.305   6.602   7.222
 4581POPC   C4B59302  31.250   6.391   7.642
 4582POPC   NC359303  32.612  24.396   5.399
 4582POPC   PO459304  31.959  24.721   5.464
 4582POPC   GL159305  32.255  24.575   5.760
 4582POPC   GL259306  32.141  24.261   5.780
 4582POPC   C1A59307  32.334  24.649   6.207
 4582POPC   D2A59308  32.220  24.566   6.652
 4582POPC   C3A59309  32.155  24.524   7.123
 4582POPC   C4A59310  32.097  24.785   7.523
 4582POPC   C1B59311  32.352  24.120   6.172
 4582POPC   C2B59312  32.433  23.893   6.544
 4582POPC   C3B59313  32.474  24.170   6.888
 4582POPC   C4B59314  32.721  24.235   7.251
 4583POPC   NC359315  13.044  21.024   5.324
 4583POPC   PO459316  12.442  21.340   5.083
 4583POPC   GL159317  12.639  21.357   5.582
 4583POPC   GL259318  12.984  21.373   5.696
 4583POPC   C1A59319  12.720  21.485   6.088
 4583POPC   D2A59320  12.584  21.468   6.546
 4583POPC   C3A59321  12.804  21.200   6.829
 4583POPC   C4A59322  12.727  21.177   7.260
 4583POPC   C1B59323  13.244  21.409   6.089
 4583POPC   C2B59324  13.231  21.340   6.526
 4583POPC   C3B59325  13.073  21.638   6.800
 4583POPC   C4B59326  12.839  21.659   7.166
 4584POPC   NC359327  14.735  30.858   5.279
 4584POPC   PO459328  14.202  30.560   5.351
 4584POPC   GL159329  14.339  30.372   5.778
 4584POPC   GL259330  14.633  30.492   5.974
 4584POPC   C1A59331  14.192  30.385   6.239
 4584POPC   D2A59332  14.038  30.441   6.695
 4584POPC   C3A59333  14.328  30.374   7.081
 4584POPC   C4A59334  14.622  30.460   7.452
 4584POPC   C1B59335  14.545  30.750   6.370
 4584POPC   C2B59336  14.364  30.823   6.793
 4584POPC   C3B59337  14.419  30.878   7.247
 4584POPC   C4B59338  14.753  30.941   7.594
 4585POPC   NC359339  31.838  29.934   5.515
 4585POPC   PO459340  31.321  29.568   5.405
 4585POPC   GL159341  31.378  29.849   5.759
 4585POPC   GL259342  31.375  30.207   5.625
 4585POPC   C1A59343  31.617  29.918   6.178
 4585POPC   D2A59344  31.598  29.786   6.640
 4585POPC   C3A59345  31.708  29.934   7.055
 4585POPC   C4A59346  31.668  29.762   7.479
 4585POPC   C1B59347  31.171  30.214   6.056
 4585POPC   C2B59348  31.188  30.047   6.467
 4585POPC   C3B59349  31.209  29.994   6.907
 4585POPC   C4B59350  31.366  30.261   7.226
 4586POPC   NC359351  17.358  43.621   5.357
 4586POPC   PO459352  17.879  44.077   5.533
 4586POPC   GL159353  17.627  43.795   5.820
 4586POPC   GL259354  17.254  43.769   5.833
 4586POPC   C1A59355  17.591  43.914   6.263
 4586POPC   D2A59356  17.710  44.079   6.665
 4586POPC   C3A59357  17.542  43.838   7.006
 4586POPC   C4A59358  17.674  43.985   7.398
 4586POPC   C1B59359  17.096  44.003   6.184
 4586POPC   C2B59360  17.201  43.954   6.618
 4586POPC   C3B59361  17.104  44.070   7.030
 4586POPC   C4B59362  17.198  43.814   7.427
 4587POPC   NC359363  41.913   9.889   5.267
 4587POPC   PO459364  41.349   9.491   5.221
 4587POPC   GL159365  41.321   9.478   5.754
 4587POPC   GL259366  41.577   9.765   5.917
 4587POPC   C1A59367  41.445   9.387   6.212
 4587POPC   D2A59368  41.703   9.418   6.574
 4587POPC   C3A59369  41.456   9.537   6.920
 4587POPC   C4A59370  41.401   9.945   7.086
 4587POPC   C1B59371  41.668  10.019   6.260
 4587POPC   C2B59372  41.714   9.956   6.675
 4587POPC   C3B59373  41.914   9.821   7.014
 4587POPC   C4B59374  42.028   9.898   7.408
 4588POPC   NC359375  20.083  44.082   5.446
 4588POPC   PO459376  19.467  43.959   5.310
 4588POPC   GL159377  19.722  43.774   5.639
 4588POPC   GL259378  19.728  44.058   5.819
 4588POPC   C1A59379  19.929  43.683   6.087
 4588POPC   D2A59380  19.761  43.660   6.541
 4588POPC   C3A59381  20.006  43.672   6.952
 4588POPC   C4A59382  20.031  43.961   7.307
 4588POPC   C1B59383  19.467  43.908   6.143
 4588POPC   C2B59384  19.424  44.096   6.541
 4588POPC   C3B59385  19.647  44.074   6.935
 4588POPC   C4B59386  19.576  43.770   7.267
 4589POPC   NC359387  31.302   3.689   5.268
 4589POPC   PO459388  30.616   3.536   5.430
 4589POPC   GL159389  30.714   3.531   5.864
 4589POPC   GL259390  30.411   3.659   5.916
 4589POPC   C1A59391  30.852   3.271   6.227
 4589POPC   D2A59392  31.000   3.047   6.621
 4589POPC   C3A59393  31.148   3.335   6.981
 4589POPC   C4A59394  31.073   3.323   7.435
 4589POPC   C1B59395  30.587   3.712   6.338
 4589POPC   C2B59396  30.783   3.520   6.678
 4589POPC   C3B59397  30.662   3.468   7.090
 4589POPC   C4B59398  30.257   3.623   7.228
 4590POPC   NC359399   2.218  21.191   5.474
 4590POPC   PO459400   1.769  21.677   5.405
 4590POPC   GL159401   1.933  21.696   5.793
 4590POPC   GL259402   1.637  21.735   5.978
 4590POPC   C1A59403   2.104  21.550   6.163
 4590POPC   D2A59404   2.155  21.310   6.533
 4590POPC   C3A59405   2.251  21.605   6.819
 4590POPC   C4A59406   2.186  21.784   7.209
 4590POPC   C1B59407   1.620  21.423   6.335
 4590POPC   C2B59408   1.736  21.434   6.785
 4590POPC   C3B59409   1.697  21.620   7.166
 4590POPC   C4B59410   1.478  21.323   7.444
 4591POPC   NC359411  29.768  20.282   5.379
 4591POPC   PO459412  30.310  20.670   5.329
 4591POPC   GL159413  30.121  20.711   5.716
 4591POPC   GL259414  29.793  20.763   5.627
 4591POPC   C1A59415  30.262  20.671   6.149
 4591POPC   D2A59416  30.313  20.419   6.496
 4591POPC   C3A59417  30.129  20.547   6.899
 4591POPC   C4A59418  30.240  20.612   7.329
 4591POPC   C1B59419  29.759  20.810   6.068
 4591POPC   C2B59420  29.826  20.760   6.506
 4591POPC   C3B59421  29.652  20.778   6.919
 4591POPC   C4B59422  29.734  20.643   7.325
 4592POPC   NC359423  16.226  19.551   5.409
 4592POPC   PO459424  15.732  20.009   5.450
 4592POPC   GL159425  15.932  20.070   5.823
 4592POPC   GL259426  16.210  19.931   5.782
 4592POPC   C1A59427  15.951  20.113   6.262
 4592POPC   D2A59428  15.699  19.930   6.583
 4592POPC   C3A59429  15.832  19.993   7.007
 4592POPC   C4A59430  15.581  19.727   7.230
 4592POPC   C1B59431  16.367  19.789   6.161
 4592POPC   C2B59432  16.562  19.745   6.572
 4592POPC   C3B59433  16.348  19.850   6.963
 4592POPC   C4B59434  16.156  19.735   7.391
 4593POPC   NC359435   4.230  26.379   5.432
 4593POPC   PO459436   4.564  25.816   5.372
 4593POPC   GL159437   4.267  25.974   5.726
 4593POPC   GL259438   4.537  26.128   5.887
 4593POPC   C1A59439   4.156  25.931   6.183
 4593POPC   D2A59440   4.226  25.805   6.639
 4593POPC   C3A59441   4.646  25.850   6.852
 4593POPC   C4A59442   4.616  26.059   7.230
 4593POPC   C1B59443   4.578  26.392   6.258
 4593POPC   C2B59444   4.563  26.347   6.719
 4593POPC   C3B59445   4.524  26.553   7.139
 4593POPC   C4B59446   4.594  26.511   7.613
 4594POPC   NC359447   5.809   1.584   5.472
 4594POPC   PO459448   6.093   2.116   5.206
 4594POPC   GL159449   6.089   2.005   5.666
 4594POPC   GL259450   6.247   1.666   5.755
 4594POPC   C1A59451   5.904   2.112   6.107
 4594POPC   D2A59452   5.568   2.051   6.437
 4594POPC   C3A59453   5.662   1.845   6.846
 4594POPC   C4A59454   5.743   2.049   7.224
 4594POPC   C1B59455   6.330   1.820   6.161
 4594POPC   C2B59456   6.103   1.891   6.559
 4594POPC   C3B59457   6.197   1.825   6.999
 4594POPC   C4B59458   6.233   2.059   7.339
 4595POPC   NC359459  11.871  22.620   5.312
 4595POPC   PO459460  12.302  23.157   5.341
 4595POPC   GL159461  12.002  22.955   5.689
 4595POPC   GL259462  11.810  22.605   5.798
 4595POPC   C1A59463  12.052  22.975   6.133
 4595POPC   D2A59464  12.177  22.948   6.528
 4595POPC   C3A59465  12.094  23.253   6.902
 4595POPC   C4A59466  12.132  23.058   7.324
 4595POPC   C1B59467  11.972  22.483   6.167
 4595POPC   C2B59468  11.784  22.632   6.542
 4595POPC   C3B59469  11.948  22.548   6.930
 4595POPC   C4B59470  11.810  22.669   7.317
 4596POPC   NC359471   6.260  31.391   5.438
 4596POPC   PO459472   6.794  31.840   5.433
 4596POPC   GL159473   6.499  31.685   5.779
 4596POPC   GL259474   6.190  31.865   5.892
 4596POPC   C1A59475   6.591  31.546   6.208
 4596POPC   D2A59476   6.775  31.764   6.576
 4596POPC   C3A59477   6.933  31.590   6.981
 4596POPC   C4A59478   7.336  31.746   7.128
 4596POPC   C1B59479   6.134  31.683   6.346
 4596POPC   C2B59480   6.349  31.517   6.724
 4596POPC   C3B59481   6.439  31.666   7.138
 4596POPC   C4B59482   6.314  31.677   7.547
 4597POPC   NC359483  42.222   6.378   5.235
 4597POPC   PO459484  42.512   6.931   5.484
 4597POPC   GL159485  42.304   6.815   5.815
 4597POPC   GL259486  41.992   7.013   5.760
 4597POPC   C1A59487  42.457   6.749   6.221
 4597POPC   D2A59488  42.348   6.469   6.583
 4597POPC   C3A59489  42.610   6.462   6.925
 4597POPC   C4A59490  42.521   6.601   7.296
 4597POPC   C1B59491  41.966   6.848   6.200
 4597POPC   C2B59492  42.158   6.930   6.587
 4597POPC   C3B59493  42.332   6.975   6.979
 4597POPC   C4B59494  42.082   6.851   7.274
 4598POPC   NC359495   3.805  18.304   5.341
 4598POPC   PO459496   3.186  18.086   5.208
 4598POPC   GL159497   3.369  18.359   5.620
 4598POPC   GL259498   3.732  18.489   5.808
 4598POPC   C1A59499   3.372  18.278   6.097
 4598POPC   D2A59500   3.555  18.380   6.502
 4598POPC   C3A59501   3.387  18.198   6.885
 4598POPC   C4A59502   3.595  18.253   7.263
 4598POPC   C1B59503   3.924  18.252   6.169
 4598POPC   C2B59504   4.044  18.094   6.594
 4598POPC   C3B59505   4.101  18.201   7.027
 4598POPC   C4B59506   4.029  18.401   7.476
 4599POPC   NC359507   4.891   1.359   5.146
 4599POPC   PO459508   5.325   0.928   5.211
 4599POPC   GL159509   5.270   0.989   5.710
 4599POPC   GL259510   4.953   1.126   5.868
 4599POPC   C1A59511   5.359   1.153   6.148
 4599POPC   D2A59512   5.138   1.202   6.547
 4599POPC   C3A59513   5.416   1.360   6.882
 4599POPC   C4A59514   5.355   1.287   7.302
 4599POPC   C1B59515   4.758   1.399   6.202
 4599POPC   C2B59516   4.711   1.589   6.611
 4599POPC   C3B59517   4.905   1.425   6.984
 4599POPC   C4B59518   4.822   1.204   7.372
 4600POPC   NC359519  38.988  17.439   5.437
 4600POPC   PO459520  38.299  17.639   5.275
 4600POPC   GL159521  38.448  17.460   5.685
 4600POPC   GL259522  38.751  17.408   5.872
 4600POPC   C1A59523  38.318  17.431   6.145
 4600POPC   D2A59524  38.097  17.596   6.515
 4600POPC   C3A59525  38.252  17.491   6.938
 4600POPC   C4A59526  38.068  17.656   7.297
 4600POPC   C1B59527  38.801  17.643   6.220
 4600POPC   C2B59528  38.607  17.645   6.593
 4600POPC   C3B59529  38.752  17.644   7.011
 4600POPC   C4B59530  38.725  17.268   7.221
 4601POPC   NC359531   1.411  13.931   5.308
 4601POPC   PO459532   0.919  13.587   5.547
 4601POPC   GL159533   1.198  13.700   5.822
 4601POPC   GL259534   1.545  13.645   5.737
 4601POPC   C1A59535   1.175  13.826   6.236
 4601POPC   D2A59536   1.179  14.028   6.627
 4601POPC   C3A59537   1.140  13.781   6.982
 4601POPC   C4A59538   1.065  13.697   7.416
 4601POPC   C1B59539   1.477  13.419   6.154
 4601POPC   C2B59540   1.445  13.540   6.604
 4601POPC   C3B59541   1.481  13.399   7.048
 4601POPC   C4B59542   1.463  13.367   7.506
 4602POPC   NC359543  39.401  40.637   5.393
 4602POPC   PO459544  38.963  41.169   5.255
 4602POPC   GL159545  39.047  40.907   5.677
 4602POPC   GL259546  39.402  40.962   5.803
 4602POPC   C1A59547  39.047  40.859   6.161
 4602POPC   D2A59548  39.000  41.069   6.567
 4602POPC   C3A59549  39.232  40.924   6.942
 4602POPC   C4A59550  39.045  40.690   7.268
 4602POPC   C1B59551  39.513  40.663   6.171
 4602POPC   C2B59552  39.281  40.557   6.569
 4602POPC   C3B59553  39.301  40.343   6.979
 4602POPC   C4B59554  39.483  40.487   7.395
 4603POPC   NC359555  27.857   2.962   5.394
 4603POPC   PO459556  27.418   2.388   5.439
 4603POPC   GL159557  27.564   2.702   5.775
 4603POPC   GL259558  27.918   2.793   5.864
 4603POPC   C1A59559  27.544   2.818   6.216
 4603POPC   D2A59560  27.656   2.469   6.456
 4603POPC   C3A59561  27.479   2.516   6.820
 4603POPC   C4A59562  27.414   2.822   7.151
 4603POPC   C1B59563  28.058   2.954   6.264
 4603POPC   C2B59564  27.870   2.923   6.684
 4603POPC   C3B59565  27.916   2.710   7.090
 4603POPC   C4B59566  27.942   2.633   7.539
 4604POPC   NC359567   7.698   5.383   5.290
 4604POPC   PO459568   7.148   5.011   5.445
 4604POPC   GL159569   7.373   4.932   5.816
 4604POPC   GL259570   7.676   5.123   5.745
 4604POPC   C1A59571   7.498   4.918   6.256
 4604POPC   D2A59572   7.573   4.707   6.633
 4604POPC   C3A59573   7.565   5.016   6.919
 4604POPC   C4A59574   7.446   4.806   7.245
 4604POPC   C1B59575   7.497   5.401   6.060
 4604POPC   C2B59576   7.589   5.407   6.509
 4604POPC   C3B59577   7.341   5.485   6.887
 4604POPC   C4B59578   7.298   5.296   7.296
 4605POPC   NC359579  22.581  25.871   4.983
 4605POPC   PO459580  22.971  26.227   5.468
 4605POPC   GL159581  22.756  26.121   5.875
 4605POPC   GL259582  23.049  25.927   5.910
 4605POPC   C1A59583  22.703  25.925   6.291
 4605POPC   D2A59584  22.821  26.078   6.679
 4605POPC   C3A59585  22.672  25.896   7.052
 4605POPC   C4A59586  22.767  26.082   7.457
 4605POPC   C1B59587  23.196  26.104   6.294
 4605POPC   C2B59588  23.330  25.964   6.713
 4605POPC   C3B59589  23.148  26.132   7.103
 4605POPC   C4B59590  23.268  26.201   7.555
 4606POPC   NC359591   2.503  19.044   5.572
 4606POPC   PO459592   2.875  19.414   5.325
 4606POPC   GL159593   2.989  19.245   5.828
 4606POPC   GL259594   2.744  18.998   6.005
 4606POPC   C1A59595   3.063  19.186   6.336
 4606POPC   D2A59596   3.158  19.112   6.789
 4606POPC   C3A59597   2.830  19.158   7.116
 4606POPC   C4A59598   2.597  19.557   7.118
 4606POPC   C1B59599   2.818  18.667   6.296
 4606POPC   C2B59600   2.628  18.639   6.698
 4606POPC   C3B59601   2.553  18.693   7.117
 4606POPC   C4B59602   2.609  18.837   7.491
 4607POPC   NC359603  22.476   3.951   5.466
 4607POPC   PO459604  22.015   4.481   5.522
 4607POPC   GL159605  22.384   4.364   5.789
 4607POPC   GL259606  22.379   4.029   5.976
 4607POPC   C1A59607  22.557   4.493   6.184
 4607POPC   D2A59608  22.432   4.397   6.571
 4607POPC   C3A59609  22.513   4.562   6.935
 4607POPC   C4A59610  22.357   4.316   7.243
 4607POPC   C1B59611  22.062   4.263   6.224
 4607POPC   C2B59612  21.909   4.404   6.616
 4607POPC   C3B59613  22.061   4.133   6.887
 4607POPC   C4B59614  22.064   3.909   7.287
 4608POPC   NC359615   0.167  25.664   5.399
 4608POPC   PO459616   0.832  25.830   5.349
 4608POPC   GL159617   0.714  25.870   5.788
 4608POPC   GL259618   0.360  25.889   5.837
 4608POPC   C1A59619   0.698  25.878   6.257
 4608POPC   D2A59620   0.628  26.149   6.624
 4608POPC   C3A59621   0.685  25.966   7.052
 4608POPC   C4A59622   0.708  26.185   7.468
 4608POPC   C1B59623   0.268  26.148   6.211
 4608POPC   C2B59624   0.061  26.107   6.583
 4608POPC   C3B59625   0.189  26.130   6.979
 4608POPC   C4B59626   0.267  25.961   7.352
 4609POPC   NC359627   2.704  27.860   5.424
 4609POPC   PO459628   2.913  28.544   5.469
 4609POPC   GL159629   2.820  28.408   5.871
 4609POPC   GL259630   2.646  28.091   5.903
 4609POPC   C1A59631   2.612  28.609   6.210
 4609POPC   D2A59632   2.714  28.603   6.622
 4609POPC   C3A59633   2.606  28.371   6.964
 4609POPC   C4A59634   2.933  28.494   7.240
 4609POPC   C1B59635   2.845  28.174   6.334
 4609POPC   C2B59636   2.891  27.972   6.724
 4609POPC   C3B59637   2.826  27.943   7.169
 4609POPC   C4B59638   2.619  28.164   7.481
 4610POPC   NC359639  20.593  36.349   5.328
 4610POPC   PO459640  20.792  37.025   5.266
 4610POPC   GL159641  20.883  36.724   5.628
 4610POPC   GL259642  20.516  36.692   5.701
 4610POPC   C1A59643  20.808  36.633   6.101
 4610POPC   D2A59644  20.641  36.823   6.471
 4610POPC   C3A59645  20.552  36.582   6.828
 4610POPC   C4A59646  20.729  36.605   7.217
 4610POPC   C1B59647  20.373  36.971   6.033
 4610POPC   C2B59648  20.139  36.914   6.413
 4610POPC   C3B59649  20.288  37.039   6.820
 4610POPC   C4B59650  20.301  36.866   7.208
 4611POPC   NC359651  32.889  40.475   4.976
 4611POPC   PO459652  33.241  40.221   5.426
 4611POPC   GL159653  33.066  40.063   5.820
 4611POPC   GL259654  33.381  39.945   5.892
 4611POPC   C1A59655  32.973  39.728   6.161
 4611POPC   D2A59656  32.716  39.717   6.582
 4611POPC   C3A59657  32.868  40.030   6.914
 4611POPC   C4A59658  32.736  40.316   7.265
 4611POPC   C1B59659  33.249  40.133   6.306
 4611POPC   C2B59660  33.252  40.327   6.713
 4611POPC   C3B59661  33.252  40.284   7.146
 4611POPC   C4B59662  33.375  39.860   7.260
 4612POPC   NC359663  14.084  41.020   5.541
 4612POPC   PO459664  14.432  41.571   5.294
 4612POPC   GL159665  14.431  41.723   5.744
 4612POPC   GL259666  14.560  41.402   5.853
 4612POPC   C1A59667  14.265  41.729   6.201
 4612POPC   D2A59668  14.169  41.531   6.617
 4612POPC   C3A59669  14.222  41.774   7.003
 4612POPC   C4A59670  14.501  41.879   7.376
 4612POPC   C1B59671  14.401  41.223   6.259
 4612POPC   C2B59672  14.291  41.030   6.664
 4612POPC   C3B59673  14.365  41.174   7.108
 4612POPC   C4B59674  14.521  41.399   7.484
 4613POPC   NC359675  21.842   9.551   5.092
 4613POPC   PO459676  22.397   9.779   5.246
 4613POPC   GL159677  22.169   9.760   5.659
 4613POPC   GL259678  21.885   9.536   5.664
 4613POPC   C1A59679  22.240   9.725   6.120
 4613POPC   D2A59680  22.076   9.585   6.534
 4613POPC   C3A59681  22.177   9.862   6.875
 4613POPC   C4A59682  22.429  10.010   7.217
 4613POPC   C1B59683  21.740   9.654   6.103
 4613POPC   C2B59684  21.639   9.880   6.498
 4613POPC   C3B59685  21.672   9.748   6.927
 4613POPC   C4B59686  21.930   9.538   7.223
 4614POPC   NC359687   3.389  29.894   5.376
 4614POPC   PO459688   3.615  30.419   5.628
 4614POPC   GL159689   3.681  29.964   5.813
 4614POPC   GL259690   3.347  29.769   5.863
 4614POPC   C1A59691   3.724  29.750   6.223
 4614POPC   D2A59692   3.486  29.753   6.629
 4614POPC   C3A59693   3.622  29.970   7.043
 4614POPC   C4A59694   3.752  29.802   7.482
 4614POPC   C1B59695   3.267  30.040   6.205
 4614POPC   C2B59696   3.060  30.109   6.580
 4614POPC   C3B59697   3.198  30.283   6.951
 4614POPC   C4B59698   3.252  30.152   7.367
 4615POPC   NC359699  36.561  14.464   5.583
 4615POPC   PO459700  35.942  14.235   5.344
 4615POPC   GL159701  36.077  14.362   5.734
 4615POPC   GL259702  36.048  14.706   5.763
 4615POPC   C1A59703  36.275  14.212   6.138
 4615POPC   D2A59704  36.339  14.027   6.553
 4615POPC   C3A59705  36.373  14.281   6.964
 4615POPC   C4A59706  36.154  14.351   7.406
 4615POPC   C1B59707  35.870  14.533   6.166
 4615POPC   C2B59708  36.053  14.517   6.571
 4615POPC   C3B59709  35.894  14.446   6.962
 4615POPC   C4B59710  35.784  14.704   7.284
 4616POPC   NC359711   0.538  28.534   5.564
 4616POPC   PO459712  44.906  28.263   5.295
 4616POPC   GL159713   0.076  28.381   5.749
 4616POPC   GL259714   0.262  28.713   5.945
 4616POPC   C1A59715   0.233  28.275   6.163
 4616POPC   D2A59716   0.406  28.538   6.481
 4616POPC   C3A59717   0.260  28.484   6.876
 4616POPC   C4A59718   0.023  28.403   7.229
 4616POPC   C1B59719   0.681  28.840   6.198
 4616POPC   C2B59720   0.863  28.798   6.621
 4616POPC   C3B59721   0.630  28.880   6.985
 4616POPC   C4B59722   0.452  28.676   7.324
 4617POPC   NC359723  19.740   0.827   5.478
 4617POPC   PO459724  19.904   0.166   5.512
 4617POPC   GL159725  19.744   0.430   5.835
 4617POPC   GL259726  20.092   0.525   5.847
 4617POPC   C1A59727  19.789   0.620   6.249
 4617POPC   D2A59728  19.932   0.719   6.651
 4617POPC   C3A59729  19.597   0.512   6.884
 4617POPC   C4A59730  19.449   0.588   7.283
 4617POPC   C1B59731  20.121   0.231   6.232
 4617POPC   C2B59732  20.103   0.244   6.705
 4617POPC   C3B59733  20.041   0.409   7.093
 4617POPC   C4B59734  19.745   0.143   7.276
 4618POPC   NC359735  17.540  28.013   5.390
 4618POPC   PO459736  17.247  27.463   5.342
 4618POPC   GL159737  17.371  27.679   5.749
 4618POPC   GL259738  17.236  27.980   5.848
 4618POPC   C1A59739  17.681  27.783   6.080
 4618POPC   D2A59740  17.777  27.970   6.485
 4618POPC   C3A59741  17.712  27.693   6.875
 4618POPC   C4A59742  17.604  27.491   7.261
 4618POPC   C1B59743  17.187  27.800   6.242
 4618POPC   C2B59744  17.289  27.889   6.662
 4618POPC   C3B59745  17.239  27.808   7.090
 4618POPC   C4B59746  17.125  27.673   7.489
 4619POPC   NC359747   9.744  34.385   5.389
 4619POPC   PO459748   9.290  34.954   5.491
 4619POPC   GL159749   9.718  34.863   5.729
 4619POPC   GL259750  10.031  34.640   5.780
 4619POPC   C1A59751   9.765  34.876   6.205
 4619POPC   D2A59752   9.502  34.786   6.580
 4619POPC   C3A59753   9.607  34.626   7.004
 4619POPC   C4A59754   9.776  34.543   7.430
 4619POPC   C1B59755  10.147  34.505   6.226
 4619POPC   C2B59756  10.024  34.560   6.690
 4619POPC   C3B59757  10.201  34.538   7.142
 4619POPC   C4B59758  10.214  34.335   7.621
 4620POPC   NC359759  11.406  32.758   5.320
 4620POPC   PO459760  10.929  33.149   5.180
 4620POPC   GL159761  10.928  33.139   5.649
 4620POPC   GL259762  11.279  33.096   5.696
 4620POPC   C1A59763  10.991  33.153   6.118
 4620POPC   D2A59764  11.178  32.906   6.497
 4620POPC   C3A59765  11.037  32.934   6.943
 4620POPC   C4A59766  11.249  32.817   7.336
 4620POPC   C1B59767  11.473  33.012   6.089
 4620POPC   C2B59768  11.647  33.076   6.489
 4620POPC   C3B59769  11.624  32.982   6.917
 4620POPC   C4B59770  11.810  33.065   7.324
 4621POPC   NC359771  39.804  34.799   5.246
 4621POPC   PO459772  40.312  34.366   5.506
 4621POPC   GL159773  40.038  34.614   5.817
 4621POPC   GL259774  39.725  34.865   5.740
 4621POPC   C1A59775  40.198  34.765   6.241
 4621POPC   D2A59776  40.271  34.588   6.665
 4621POPC   C3A59777  40.257  34.811   7.075
 4621POPC   C4A59778  40.421  34.570   7.448
 4621POPC   C1B59779  39.694  34.769   6.156
 4621POPC   C2B59780  39.799  34.448   6.463
 4621POPC   C3B59781  39.804  34.480   6.912
 4621POPC   C4B59782  39.882  34.562   7.343
 4622POPC   NC359783  21.962  21.153   5.555
 4622POPC   PO459784  22.291  21.661   5.366
 4622POPC   GL159785  22.291  21.478   5.792
 4622POPC   GL259786  21.974  21.593   5.869
 4622POPC   C1A59787  22.268  21.371   6.251
 4622POPC   D2A59788  22.479  21.565   6.617
 4622POPC   C3A59789  22.326  21.378   6.989
 4622POPC   C4A59790  22.322  21.025   7.258
 4622POPC   C1B59791  21.880  21.705   6.311
 4622POPC   C2B59792  21.944  21.633   6.771
 4622POPC   C3B59793  21.847  21.749   7.218
 4622POPC   C4B59794  21.630  21.943   7.593
 4623POPC   NC359795  25.803  35.533   5.343
 4623POPC   PO459796  26.434  35.474   5.330
 4623POPC   GL159797  26.183  35.237   5.672
 4623POPC   GL259798  25.957  35.434   5.811
 4623POPC   C1A59799  26.065  35.073   6.142
 4623POPC   D2A59800  26.116  35.236   6.582
 4623POPC   C3A59801  26.014  35.046   7.021
 4623POPC   C4A59802  25.894  35.138   7.459
 4623POPC   C1B59803  25.857  35.570   6.208
 4623POPC   C2B59804  25.790  35.695   6.626
 4623POPC   C3B59805  25.995  35.589   7.000
 4623POPC   C4B59806  25.756  35.772   7.296
 4624POPC   NC359807  32.180  11.013   5.128
 4624POPC   PO459808  32.319  10.311   5.416
 4624POPC   GL159809  32.268  10.427   5.862
 4624POPC   GL259810  32.468  10.651   5.971
 4624POPC   C1A59811  32.126  10.317   6.287
 4624POPC   D2A59812  31.936  10.284   6.709
 4624POPC   C3A59813  32.186  10.504   7.026
 4624POPC   C4A59814  32.564  10.518   7.276
 4624POPC   C1B59815  32.112  10.824   6.169
 4624POPC   C2B59816  32.043  10.767   6.593
 4624POPC   C3B59817  32.067  10.992   6.968
 4624POPC   C4B59818  32.019  10.811   7.404
 4625POPC   NC359819   9.361  22.651   5.540
 4625POPC   PO459820   9.575  23.298   5.405
 4625POPC   GL159821   9.638  23.039   5.772
 4625POPC   GL259822   9.958  22.837   5.819
 4625POPC   C1A59823   9.665  23.005   6.228
 4625POPC   D2A59824   9.593  22.650   6.528
 4625POPC   C3A59825   9.410  22.781   6.906
 4625POPC   C4A59826   9.259  22.988   7.265
 4625POPC   C1B59827   9.991  22.605   6.182
 4625POPC   C2B59828  10.094  22.586   6.624
 4625POPC   C3B59829   9.909  22.721   7.011
 4625POPC   C4B59830   9.725  23.151   7.114
 4626POPC   NC359831  37.340  43.386   5.483
 4626POPC   PO459832  37.806  42.907   5.338
 4626POPC   GL159833  37.731  43.076   5.766
 4626POPC   GL259834  37.798  43.432   5.798
 4626POPC   C1A59835  37.578  42.953   6.183
 4626POPC   D2A59836  37.604  42.714   6.572
 4626POPC   C3A59837  37.554  42.954   6.905
 4626POPC   C4A59838  37.793  42.945   7.270
 4626POPC   C1B59839  37.449  43.442   6.112
 4626POPC   C2B59840  37.389  43.308   6.519
 4626POPC   C3B59841  37.335  43.443   6.904
 4626POPC   C4B59842  37.413  43.263   7.283
 4627POPC   NC359843   1.887  26.396   5.640
 4627POPC   PO459844   1.920  27.016   5.363
 4627POPC   GL159845   2.135  26.922   5.780
 4627POPC   GL259846   2.264  27.250   5.836
 4627POPC   C1A59847   2.249  26.669   6.172
 4627POPC   D2A59848   1.975  26.505   6.519
 4627POPC   C3A59849   1.894  26.733   6.899
 4627POPC   C4A59850   1.954  26.592   7.325
 4627POPC   C1B59851   2.187  27.180   6.251
 4627POPC   C2B59852   2.259  27.014   6.649
 4627POPC   C3B59853   2.173  27.157   7.064
 4627POPC   C4B59854   2.193  27.008   7.507
 4628POPC   NC359855  22.592  39.395   5.615
 4628POPC   PO459856  23.174  39.108   5.430
 4628POPC   GL159857  23.017  38.969   5.833
 4628POPC   GL259858  22.969  39.317   5.964
 4628POPC   C1A59859  22.954  38.887   6.293
 4628POPC   D2A59860  22.967  39.308   6.474
 4628POPC   C3A59861  22.891  39.315   6.877
 4628POPC   C4A59862  22.998  39.061   7.183
 4628POPC   C1B59863  22.555  39.170   6.198
 4628POPC   C2B59864  22.541  39.002   6.600
 4628POPC   C3B59865  22.521  38.919   7.001
 4628POPC   C4B59866  22.551  39.267   7.270
 4629POPC   NC359867   8.440   3.671   5.328
 4629POPC   PO459868   9.018   3.259   5.280
 4629POPC   GL159869   9.051   3.342   5.748
 4629POPC   GL259870   9.147   3.658   5.873
 4629POPC   C1A59871   8.890   3.390   6.205
 4629POPC   D2A59872   8.757   3.301   6.616
 4629POPC   C3A59873   8.995   3.473   6.969
 4629POPC   C4A59874   8.808   3.366   7.369
 4629POPC   C1B59875   9.387   3.626   6.251
 4629POPC   C2B59876   9.317   3.790   6.667
 4629POPC   C3B59877   9.411   3.816   7.100
 4629POPC   C4B59878   9.129   3.740   7.410
 4630POPC   NC359879  41.803  26.917   5.585
 4630POPC   PO459880  41.410  26.766   5.102
 4630POPC   GL159881  41.265  26.902   5.604
 4630POPC   GL259882  41.425  27.141   5.852
 4630POPC   C1A59883  41.270  26.784   6.143
 4630POPC   D2A59884  41.357  26.973   6.553
 4630POPC   C3A59885  41.384  26.650   6.863
 4630POPC   C4A59886  41.293  26.738   7.274
 4630POPC   C1B59887  41.740  26.964   6.221
 4630POPC   C2B59888  41.878  26.828   6.645
 4630POPC   C3B59889  41.735  26.951   7.079
 4630POPC   C4B59890  41.545  27.152   7.474
 4631POPC   NC359891   6.929  44.971   5.745
 4631POPC   PO459892   6.357  44.586   5.554
 4631POPC   GL159893   6.316  44.415   5.981
 4631POPC   GL259894   6.671  44.477   5.975
 4631POPC   C1A59895   6.371  44.472   6.460
 4631POPC   D2A59896   6.530  44.734   6.821
 4631POPC   C3A59897   6.337  44.790   7.219
 4631POPC   C4A59898   6.369  44.675   7.664
 4631POPC   C1B59899   7.004  44.402   6.283
 4631POPC   C2B59900   7.138  44.374   6.696
 4631POPC   C3B59901   6.936  44.491   7.054
 4631POPC   C4B59902   6.808  44.760   7.394
 4632POPC   NC359903  26.261  15.481   5.264
 4632POPC   PO459904  26.446  14.901   5.402
 4632POPC   GL159905  26.142  14.896   5.712
 4632POPC   GL259906  26.170  15.246   5.788
 4632POPC   C1A59907  26.158  14.840   6.166
 4632POPC   D2A59908  26.339  14.954   6.554
 4632POPC   C3A59909  26.143  14.948   6.929
 4632POPC   C4A59910  26.047  15.163   7.315
 4632POPC   C1B59911  26.013  15.343   6.214
 4632POPC   C2B59912  25.997  15.361   6.673
 4632POPC   C3B59913  25.891  15.581   7.073
 4632POPC   C4B59914  25.947  15.637   7.551
 4633POPC   NC359915   1.836  29.351   5.416
 4633POPC   PO459916   1.567  28.729   5.271
 4633POPC   GL159917   1.541  29.061   5.699
 4633POPC   GL259918   1.931  29.187   5.871
 4633POPC   C1A59919   1.535  29.142   6.145
 4633POPC   D2A59920   1.808  28.868   6.399
 4633POPC   C3A59921   1.925  28.978   6.819
 4633POPC   C4A59922   1.789  29.158   7.186
 4633POPC   C1B59923   2.138  29.391   6.243
 4633POPC   C2B59924   2.380  29.418   6.649
 4633POPC   C3B59925   2.250  29.354   7.081
 4633POPC   C4B59926   2.215  29.055   7.439
 4634POPC   NC359927  41.700  38.809   5.468
 4634POPC   PO459928  41.471  39.487   5.453
 4634POPC   GL159929  41.511  39.469   5.894
 4634POPC   GL259930  41.528  39.110   5.907
 4634POPC   C1A59931  41.322  39.336   6.321
 4634POPC   D2A59932  41.307  39.123   6.716
 4634POPC   C3A59933  41.576  39.355   7.025
 4634POPC   C4A59934  41.509  39.607   7.352
 4634POPC   C1B59935  41.842  39.228   6.259
 4634POPC   C2B59936  41.840  39.051   6.701
 4634POPC   C3B59937  41.611  38.846   7.049
 4634POPC   C4B59938  41.624  39.084   7.487
 4635POPC   NC359939  12.992   9.365   5.424
 4635POPC   PO459940  12.600   9.804   5.267
 4635POPC   GL159941  12.586   9.599   5.698
 4635POPC   GL259942  12.922   9.541   5.889
 4635POPC   C1A59943  12.524   9.685   6.152
 4635POPC   D2A59944  12.872   9.604   6.409
 4635POPC   C3A59945  12.776   9.589   6.848
 4635POPC   C4A59946  12.637   9.673   7.262
 4635POPC   C1B59947  13.225   9.837   6.072
 4635POPC   C2B59948  13.204  10.117   6.443
 4635POPC   C3B59949  13.197   9.868   6.839
 4635POPC   C4B59950  13.119   9.993   7.280
 4636POPC   NC359951  36.763  25.606   5.170
 4636POPC   PO459952  36.965  26.208   5.379
 4636POPC   GL159953  37.104  26.122   5.787
 4636POPC   GL259954  36.855  25.933   5.941
 4636POPC   C1A59955  37.170  26.305   6.185
 4636POPC   D2A59956  36.915  26.046   6.459
 4636POPC   C3A59957  36.925  26.100   6.880
 4636POPC   C4A59958  36.971  25.893   7.259
 4636POPC   C1B59959  36.504  25.876   6.236
 4636POPC   C2B59960  36.446  25.656   6.598
 4636POPC   C3B59961  36.629  25.681   6.952
 4636POPC   C4B59962  36.519  25.692   7.385
 4637POPC   NC359963  21.074  21.595   5.639
 4637POPC   PO459964  21.496  21.077   5.529
 4637POPC   GL159965  21.660  21.123   5.946
 4637POPC   GL259966  21.501  21.442   5.988
 4637POPC   C1A59967  21.790  21.163   6.358
 4637POPC   D2A59968  21.526  21.428   6.545
 4637POPC   C3A59969  21.482  21.475   6.968
 4637POPC   C4A59970  21.412  21.507   7.392
 4637POPC   C1B59971  21.354  21.803   6.256
 4637POPC   C2B59972  21.267  21.880   6.714
 4637POPC   C3B59973  21.335  21.948   7.164
 4637POPC   C4B59974  21.085  21.840   7.572
 4638POPC   NC359975  19.420  38.190   4.987
 4638POPC   PO459976  19.999  38.432   5.317
 4638POPC   GL159977  19.751  38.574   5.678
 4638POPC   GL259978  20.033  38.584   5.870
 4638POPC   C1A59979  19.600  38.584   6.139
 4638POPC   D2A59980  19.643  38.254   6.471
 4638POPC   C3A59981  19.735  38.384   6.883
 4638POPC   C4A59982  19.804  38.198   7.276
 4638POPC   C1B59983  20.076  38.453   6.307
 4638POPC   C2B59984  20.228  38.574   6.717
 4638POPC   C3B59985  20.230  38.414   7.124
 4638POPC   C4B59986  20.392  38.146   7.489
 4639POPC   NC359987   2.858  10.464   5.492
 4639POPC   PO459988   2.243  10.297   5.505
 4639POPC   GL159989   2.569  10.478   5.912
 4639POPC   GL259990   2.897  10.726   5.916
 4639POPC   C1A59991   2.882  10.488   6.351
 4639POPC   D2A59992   3.014  10.597   6.804
 4639POPC   C3A59993   3.003  10.233   7.091
 4639POPC   C4A59994   2.952  10.066   7.512
 4639POPC   C1B59995   2.577  10.868   6.223
 4639POPC   C2B59996   2.479  10.669   6.625
 4639POPC   C3B59997   2.556  10.807   7.021
 4639POPC   C4B59998   2.796  10.628   7.346
 4640POPC   NC359999  15.357  11.552   5.420
 4640POPC   PO460000  15.523  10.849   5.459
 4640POPC   GL160001  15.351  11.177   5.772
 4640POPC   GL260002  15.091  11.416   5.824
 4640POPC   C1A60003  15.331  11.192   6.243
 4640POPC   D2A60004  15.224  11.020   6.662
 4640POPC   C3A60005  15.342  11.198   7.082
 4640POPC   C4A60006  15.376  11.478   7.454
 4640POPC   C1B60007  14.975  11.542   6.191
 4640POPC   C2B60008  14.814  11.278   6.504
 4640POPC   C3B60009  14.838  11.210   6.941
 4640POPC   C4B60010  15.007  11.593   7.112
 4641POPC   NC360011  26.788  29.653   5.365
 4641POPC   PO460012  27.163  30.148   5.384
 4641POPC   GL160013  26.967  30.012   5.754
 4641POPC   GL260014  26.979  29.671   5.821
 4641POPC   C1A60015  26.798  30.020   6.164
 4641POPC   D2A60016  26.719  30.303   6.526
 4641POPC   C3A60017  26.749  30.010   6.881
 4641POPC   C4A60018  26.606  30.108   7.274
 4641POPC   C1B60019  27.176  29.576   6.185
 4641POPC   C2B60020  27.091  29.513   6.605
 4641POPC   C3B60021  27.185  29.636   7.008
 4641POPC   C4B60022  26.902  29.714   7.337
 4642POPC   NC360023   9.996  23.068   5.373
 4642POPC   PO460024  10.554  22.646   5.201
 4642POPC   GL160025  10.487  22.915   5.645
 4642POPC   GL260026  10.828  23.038   5.808
 4642POPC   C1A60027  10.299  23.104   6.079
 4642POPC   D2A60028  10.359  23.390   6.481
 4642POPC   C3A60029  10.382  23.174   6.912
 4642POPC   C4A60030  10.428  22.709   7.043
 4642POPC   C1B60031  10.768  23.077   6.247
 4642POPC   C2B60032  10.695  22.838   6.602
 4642POPC   C3B60033  10.930  22.699   6.939
 4642POPC   C4B60034  10.802  23.051   7.184
 4643POPC   NC360035  29.336   0.787   5.385
 4643POPC   PO460036  29.462   1.457   5.227
 4643POPC   GL160037  29.140   1.243   5.608
 4643POPC   GL260038  28.888   1.476   5.721
 4643POPC   C1A60039  28.967   1.088   6.093
 4643POPC   D2A60040  28.890   1.210   6.502
 4643POPC   C3A60041  28.997   0.967   6.861
 4643POPC   C4A60042  29.015   1.099   7.266
 4643POPC   C1B60043  29.112   1.563   6.114
 4643POPC   C2B60044  29.196   1.640   6.544
 4643POPC   C3B60045  29.227   1.522   6.970
 4643POPC   C4B60046  29.590   1.694   7.229
 4644POPC   NC360047   0.865  14.773   5.443
 4644POPC   PO460048   0.972  14.116   5.211
 4644POPC   GL160049   1.057  14.193   5.698
 4644POPC   GL260050   1.443  14.156   5.787
 4644POPC   C1A60051   0.881  14.444   6.092
 4644POPC   D2A60052   0.971  14.499   6.547
 4644POPC   C3A60053   0.907  14.732   6.929
 4644POPC   C4A60054   1.021  14.594   7.340
 4644POPC   C1B60055   1.363  14.300   6.216
 4644POPC   C2B60056   1.479  14.483   6.608
 4644POPC   C3B60057   1.331  14.353   7.004
 4644POPC   C4B60058   1.432  14.038   7.292
 4645POPC   NC360059   0.329  38.864   5.591
 4645POPC   PO460060   0.722  38.366   5.288
 4645POPC   GL160061   0.659  38.466   5.721
 4645POPC   GL260062   0.341  38.338   5.711
 4645POPC   C1A60063   0.555  38.438   6.189
 4645POPC   D2A60064   0.195  38.471   6.514
 4645POPC   C3A60065   0.307  38.610   6.966
 4645POPC   C4A60066   0.679  38.452   7.220
 4645POPC   C1B60067   0.293  38.017   6.029
 4645POPC   C2B60068   0.250  37.939   6.487
 4645POPC   C3B60069   0.162  38.117   6.911
 4645POPC   C4B60070   0.106  37.912   7.288
 4646POPC   NC360071  35.836  33.561   5.282
 4646POPC   PO460072  36.217  34.104   5.511
 4646POPC   GL160073  36.197  33.923   5.918
 4646POPC   GL260074  36.346  33.607   5.828
 4646POPC   C1A60075  35.841  33.932   6.242
 4646POPC   D2A60076  35.784  34.089   6.688
 4646POPC   C3A60077  36.070  33.954   7.008
 4646POPC   C4A60078  36.200  33.801   7.440
 4646POPC   C1B60079  36.190  33.469   6.210
 4646POPC   C2B60080  36.099  33.619   6.615
 4646POPC   C3B60081  36.254  33.473   7.039
 4646POPC   C4B60082  36.156  33.116   7.310
 4647POPC   NC360083  25.798  38.171   5.393
 4647POPC   PO460084  26.399  38.114   5.426
 4647POPC   GL160085  26.109  38.141   5.795
 4647POPC   GL260086  26.341  38.291   5.945
 4647POPC   C1A60087  25.890  38.157   6.223
 4647POPC   D2A60088  25.732  38.374   6.599
 4647POPC   C3A60089  25.968  38.436   6.996
 4647POPC   C4A60090  25.771  38.356   7.371
 4647POPC   C1B60091  26.327  38.395   6.359
 4647POPC   C2B60092  26.282  38.143   6.686
 4647POPC   C3B60093  26.411  38.133   7.104
 4647POPC   C4B60094  26.267  38.354   7.496
 4648POPC   NC360095  42.098  13.618   5.394
 4648POPC   PO460096  42.737  13.379   5.583
 4648POPC   GL160097  42.435  13.693   5.819
 4648POPC   GL260098  42.105  13.562   5.888
 4648POPC   C1A60099  42.215  13.941   6.201
 4648POPC   D2A60100  42.017  13.835   6.613
 4648POPC   C3A60101  42.358  13.853   6.912
 4648POPC   C4A60102  42.525  13.538   7.178
 4648POPC   C1B60103  41.905  13.212   6.063
 4648POPC   C2B60104  41.873  13.084   6.480
 4648POPC   C3B60105  41.768  13.276   6.872
 4648POPC   C4B60106  41.974  13.584   7.111
 4649POPC   NC360107   9.061  36.102   5.380
 4649POPC   PO460108   8.432  35.895   5.575
 4649POPC   GL160109   8.667  36.139   5.882
 4649POPC   GL260110   9.022  36.114   5.871
 4649POPC   C1A60111   8.799  36.217   6.329
 4649POPC   D2A60112   9.047  36.030   6.682
 4649POPC   C3A60113   8.902  36.016   7.088
 4649POPC   C4A60114   8.837  35.745   7.400
 4649POPC   C1B60115   9.292  36.287   6.147
 4649POPC   C2B60116   9.367  36.397   6.579
 4649POPC   C3B60117   9.305  36.335   7.056
 4649POPC   C4B60118   9.233  36.515   7.504
 4650POPC   NC360119  44.892  16.231   5.651
 4650POPC   PO460120  44.612  16.646   5.188
 4650POPC   GL160121  44.617  16.676   5.678
 4650POPC   GL260122  44.953  16.730   5.805
 4650POPC   C1A60123  44.592  16.600   6.173
 4650POPC   D2A60124  44.710  16.601   6.648
 4650POPC   C3A60125  44.384  16.563   7.011
 4650POPC   C4A60126  44.424  16.841   7.435
 4650POPC   C1B60127  44.932  16.987   6.209
 4650POPC   C2B60128  44.770  17.117   6.603
 4650POPC   C3B60129  44.584  17.017   6.964
 4650POPC   C4B60130  44.824  17.169   7.294
 4651POPC   NC360131   9.059   2.354   5.561
 4651POPC   PO460132   8.904   1.710   5.329
 4651POPC   GL160133   9.056   1.877   5.776
 4651POPC   GL260134   8.928   2.143   6.002
 4651POPC   C1A60135   9.069   1.699   6.241
 4651POPC   D2A60136   8.921   1.934   6.641
 4651POPC   C3A60137   8.996   1.816   7.067
 4651POPC   C4A60138   9.012   2.118   7.465
 4651POPC   C1B60139   8.743   2.335   6.352
 4651POPC   C2B60140   8.464   2.224   6.689
 4651POPC   C3B60141   8.590   2.142   7.112
 4651POPC   C4B60142   8.639   1.780   7.420
 4652POPC   NC360143   5.332  40.769   5.409
 4652POPC   PO460144   4.736  41.033   5.449
 4652POPC   GL160145   4.768  40.892   5.865
 4652POPC   GL260146   5.076  40.673   5.856
 4652POPC   C1A60147   4.872  40.861   6.304
 4652POPC   D2A60148   5.077  40.551   6.582
 4652POPC   C3A60149   4.938  40.631   7.015
 4652POPC   C4A60150   4.928  41.046   7.187
 4652POPC   C1B60151   5.346  40.813   6.198
 4652POPC   C2B60152   5.581  40.749   6.548
 4652POPC   C3B60153   5.457  40.614   6.926
 4652POPC   C4B60154   5.372  40.796   7.307
 4653POPC   NC360155  37.780  36.840   5.401
 4653POPC   PO460156  37.199  37.040   5.492
 4653POPC   GL160157  37.537  36.925   5.822
 4653POPC   GL260158  37.931  37.036   5.841
 4653POPC   C1A60159  37.742  36.677   6.170
 4653POPC   D2A60160  37.932  36.733   6.586
 4653POPC   C3A60161  37.660  36.671   6.974
 4653POPC   C4A60162  37.529  36.643   7.429
 4653POPC   C1B60163  37.697  37.213   6.197
 4653POPC   C2B60164  37.847  37.304   6.578
 4653POPC   C3B60165  37.915  37.123   6.943
 4653POPC   C4B60166  37.641  37.111   7.287
 4654POPC   NC360167  35.390  41.976   4.879
 4654POPC   PO460168  35.583  42.441   5.323
 4654POPC   GL160169  35.501  42.559   5.774
 4654POPC   GL260170  35.181  42.709   5.709
 4654POPC   C1A60171  35.335  42.296   6.144
 4654POPC   D2A60172  35.215  42.033   6.502
 4654POPC   C3A60173  35.317  42.188   6.907
 4654POPC   C4A60174  35.497  42.431   7.261
 4654POPC   C1B60175  35.085  42.740   6.138
 4654POPC   C2B60176  35.158  42.565   6.555
 4654POPC   C3B60177  35.248  42.712   6.938
 4654POPC   C4B60178  35.132  42.821   7.360
 4655POPC   NC360179  42.878  16.217   5.476
 4655POPC   PO460180  42.985  15.598   5.663
 4655POPC   GL160181  42.936  15.960   5.930
 4655POPC   GL260182  43.185  16.179   5.960
 4655POPC   C1A60183  42.878  16.067   6.386
 4655POPC   D2A60184  43.008  16.187   6.830
 4655POPC   C3A60185  42.763  16.054   7.223
 4655POPC   C4A60186  42.664  16.207   7.673
 4655POPC   C1B60187  43.351  15.860   6.235
 4655POPC   C2B60188  43.486  16.044   6.619
 4655POPC   C3B60189  43.503  16.193   7.026
 4655POPC   C4B60190  43.621  15.964   7.356
 4656POPC   NC360191  31.357  19.164   5.060
 4656POPC   PO460192  31.840  18.941   5.395
 4656POPC   GL160193  31.719  19.217   5.812
 4656POPC   GL260194  31.921  19.505   5.894
 4656POPC   C1A60195  31.570  19.178   6.313
 4656POPC   D2A60196  31.577  19.018   6.792
 4656POPC   C3A60197  31.457  19.167   7.234
 4656POPC   C4A60198  31.457  19.023   7.685
 4656POPC   C1B60199  31.791  19.622   6.296
 4656POPC   C2B60200  31.764  19.525   6.754
 4656POPC   C3B60201  31.944  19.261   7.081
 4656POPC   C4B60202  31.885  19.257   7.520
 4657POPC   NC360203  43.293  37.186   5.443
 4657POPC   PO460204  42.640  37.290   5.410
 4657POPC   GL160205  42.903  37.007   5.774
 4657POPC   GL260206  43.235  36.854   5.822
 4657POPC   C1A60207  43.004  36.900   6.281
 4657POPC   D2A60208  42.952  37.028   6.751
 4657POPC   C3A60209  43.088  36.789   7.149
 4657POPC   C4A60210  42.861  36.487   7.442
 4657POPC   C1B60211  43.469  37.082   6.116
 4657POPC   C2B60212  43.365  37.237   6.521
 4657POPC   C3B60213  43.451  37.128   6.958
 4657POPC   C4B60214  43.391  37.129   7.438
 4658POPC   NC360215  21.665  15.722   5.359
 4658POPC   PO460216  22.330  15.807   5.262
 4658POPC   GL160217  22.137  15.930   5.680
 4658POPC   GL260218  22.337  16.174   5.815
 4658POPC   C1A60219  22.056  15.879   6.171
 4658POPC   D2A60220  22.235  15.796   6.626
 4658POPC   C3A60221  22.172  15.934   7.080
 4658POPC   C4A60222  21.964  15.846   7.487
 4658POPC   C1B60223  22.359  16.293   6.239
 4658POPC   C2B60224  22.252  16.493   6.638
 4658POPC   C3B60225  22.236  16.461   7.086
 4658POPC   C4B60226  22.152  16.303   7.492
 4659POPC   NC360227   2.182  13.279   5.399
 4659POPC   PO460228   1.867  13.838   5.348
 4659POPC   GL160229   2.069  13.683   5.717
 4659POPC   GL260230   1.985  13.996   5.829
 4659POPC   C1A60231   2.224  13.694   6.169
 4659POPC   D2A60232   1.984  13.605   6.549
 4659POPC   C3A60233   2.146  13.435   6.937
 4659POPC   C4A60234   2.423  13.609   7.253
 4659POPC   C1B60235   1.716  13.882   6.159
 4659POPC   C2B60236   1.688  14.019   6.559
 4659POPC   C3B60237   1.729  13.828   6.952
 4659POPC   C4B60238   1.870  13.631   7.336
 4660POPC   NC360239   5.347   5.031   5.414
 4660POPC   PO460240   4.763   5.305   5.553
 4660POPC   GL160241   5.020   5.044   5.807
 4660POPC   GL260242   4.782   4.768   5.817
 4660POPC   C1A60243   5.286   5.179   6.179
 4660POPC   D2A60244   5.488   5.307   6.596
 4660POPC   C3A60245   5.345   5.103   6.972
 4660POPC   C4A60246   5.255   4.993   7.394
 4660POPC   C1B60247   4.874   4.866   6.268
 4660POPC   C2B60248   4.935   5.156   6.648
 4660POPC   C3B60249   4.838   5.088   7.100
 4660POPC   C4B60250   4.855   4.678   7.334
 4661POPC   NC360251  41.487  37.130   5.474
 4661POPC   PO460252  41.438  36.531   5.708
 4661POPC   GL160253  41.610  36.771   5.942
 4661POPC   GL260254  41.323  36.993   5.953
 4661POPC   C1A60255  41.530  36.765   6.369
 4661POPC   D2A60256  41.497  37.060   6.671
 4661POPC   C3A60257  41.707  36.889   6.994
 4661POPC   C4A60258  41.704  36.710   7.410
 4661POPC   C1B60259  41.722  37.203   6.182
 4661POPC   C2B60260  41.810  37.456   6.569
 4661POPC   C3B60261  41.803  37.393   7.030
 4661POPC   C4B60262  41.583  37.200   7.408
 4662POPC   NC360263  32.663  16.544   5.433
 4662POPC   PO460264  33.328  16.673   5.554
 4662POPC   GL160265  33.068  16.893   5.841
 4662POPC   GL260266  32.922  16.568   5.894
 4662POPC   C1A60267  32.931  16.928   6.280
 4662POPC   D2A60268  33.060  16.735   6.659
 4662POPC   C3A60269  32.996  16.947   7.028
 4662POPC   C4A60270  32.925  16.823   7.415
 4662POPC   C1B60271  33.218  16.467   6.228
 4662POPC   C2B60272  33.319  16.290   6.652
 4662POPC   C3B60273  33.179  16.402   7.059
 4662POPC   C4B60274  33.239  16.372   7.524
 4663POPC   NC360275  38.227  34.257   5.352
 4663POPC   PO460276  38.439  34.967   5.445
 4663POPC   GL160277  38.309  34.621   5.699
 4663POPC   GL260278  38.618  34.533   5.916
 4663POPC   C1A60279  38.164  34.559   6.116
 4663POPC   D2A60280  38.471  34.635   6.465
 4663POPC   C3A60281  38.288  34.910   6.800
 4663POPC   C4A60282  37.950  34.804   7.133
 4663POPC   C1B60283  38.946  34.394   6.153
 4663POPC   C2B60284  38.894  34.316   6.582
 4663POPC   C3B60285  38.706  34.423   6.952
 4663POPC   C4B60286  38.383  34.530   7.248
 4664POPC   NC360287  10.362  20.504   5.389
 4664POPC   PO460288  10.353  21.140   5.499
 4664POPC   GL160289  10.631  20.857   5.726
 4664POPC   GL260290  10.446  20.560   5.883
 4664POPC   C1A60291  10.890  20.731   6.084
 4664POPC   D2A60292  10.854  20.496   6.498
 4664POPC   C3A60293  10.770  20.802   6.836
 4664POPC   C4A60294  10.940  20.968   7.188
 4664POPC   C1B60295  10.342  20.586   6.330
 4664POPC   C2B60296  10.393  20.461   6.771
 4664POPC   C3B60297  10.716  20.362   7.102
 4664POPC   C4B60298  10.637  20.218   7.551
 4665POPC   NC360299  35.518  39.154   5.096
 4665POPC   PO460300  35.035  39.427   5.423
 4665POPC   GL160301  35.305  39.248   5.801
 4665POPC   GL260302  35.253  38.906   5.931
 4665POPC   C1A60303  35.535  39.151   6.246
 4665POPC   D2A60304  35.374  39.124   6.678
 4665POPC   C3A60305  35.616  39.299   6.984
 4665POPC   C4A60306  35.657  39.564   7.297
 4665POPC   C1B60307  35.059  38.651   6.256
 4665POPC   C2B60308  34.989  38.678   6.702
 4665POPC   C3B60309  35.186  38.824   7.065
 4665POPC   C4B60310  35.428  38.930   7.410
 4666POPC   NC360311  40.047   8.012   5.306
 4666POPC   PO460312  39.830   8.499   5.630
 4666POPC   GL160313  40.122   8.258   5.858
 4666POPC   GL260314  40.440   8.255   5.685
 4666POPC   C1A60315  40.264   8.156   6.276
 4666POPC   D2A60316  40.262   8.182   6.697
 4666POPC   C3A60317  39.840   8.259   6.855
 4666POPC   C4A60318  39.757   8.104   7.240
 4666POPC   C1B60319  40.477   8.595   6.075
 4666POPC   C2B60320  40.252   8.690   6.475
 4666POPC   C3B60321  40.130   8.663   6.902
 4666POPC   C4B60322  39.849   8.623   7.222
 4667POPC   NC360323   1.292  12.158   5.332
 4667POPC   PO460324   0.755  11.793   5.430
 4667POPC   GL160325   0.972  12.091   5.745
 4667POPC   GL260326   0.812  12.423   5.789
 4667POPC   C1A60327   1.203  11.990   6.162
 4667POPC   D2A60328   1.118  11.860   6.627
 4667POPC   C3A60329   1.398  12.045   6.973
 4667POPC   C4A60330   1.461  12.001   7.426
 4667POPC   C1B60331   0.993  12.453   6.237
 4667POPC   C2B60332   1.240  12.405   6.636
 4667POPC   C3B60333   1.175  12.500   7.079
 4667POPC   C4B60334   0.863  12.798   7.085
 4668POPC   NC360335   6.168  11.078   5.298
 4668POPC   PO460336   5.567  10.830   5.495
 4668POPC   GL160337   5.840  11.157   5.697
 4668POPC   GL260338   5.588  11.357   5.911
 4668POPC   C1A60339   6.062  11.278   6.092
 4668POPC   D2A60340   5.838  11.287   6.502
 4668POPC   C3A60341   6.041  11.340   6.909
 4668POPC   C4A60342   6.149  11.573   7.302
 4668POPC   C1B60343   5.391  11.542   6.316
 4668POPC   C2B60344   5.414  11.462   6.761
 4668POPC   C3B60345   5.561  11.093   6.946
 4668POPC   C4B60346   5.544  11.005   7.372
 4669POPC   NC360347  21.643  28.719   5.260
 4669POPC   PO460348  21.185  28.155   5.411
 4669POPC   GL160349  21.180  28.414   5.767
 4669POPC   GL260350  21.473  28.379   5.829
 4669POPC   C1A60351  21.197  28.649   6.162
 4669POPC   D2A60352  21.096  28.514   6.567
 4669POPC   C3A60353  21.325  28.570   6.953
 4669POPC   C4A60354  21.086  28.598   7.331
 4669POPC   C1B60355  21.653  28.382   6.245
 4669POPC   C2B60356  21.821  28.370   6.669
 4669POPC   C3B60357  21.843  28.653   7.012
 4669POPC   C4B60358  21.708  28.598   7.440
 4670POPC   NC360359  37.549  13.166   5.548
 4670POPC   PO460360  37.996  12.657   5.423
 4670POPC   GL160361  37.777  12.725   5.794
 4670POPC   GL260362  37.900  12.413   5.917
 4670POPC   C1A60363  37.731  13.034   6.156
 4670POPC   D2A60364  37.896  13.315   6.479
 4670POPC   C3A60365  37.899  13.072   6.835
 4670POPC   C4A60366  37.787  13.096   7.273
 4670POPC   C1B60367  37.914  12.585   6.341
 4670POPC   C2B60368  37.863  12.550   6.781
 4670POPC   C3B60369  37.615  12.363   7.075
 4670POPC   C4B60370  37.648  12.286   7.504
 4671POPC   NC360371  26.479  42.479   5.269
 4671POPC   PO460372  25.891  42.498   5.545
 4671POPC   GL160373  25.839  42.592   5.977
 4671POPC   GL260374  25.518  42.429   5.999
 4671POPC   C1A60375  26.079  42.701   6.367
 4671POPC   D2A60376  26.453  42.666   6.654
 4671POPC   C3A60377  26.359  42.613   7.106
 4671POPC   C4A60378  26.322  42.235   7.386
 4671POPC   C1B60379  25.607  42.464   6.452
 4671POPC   C2B60380  25.927  42.472   6.805
 4671POPC   C3B60381  25.891  42.484   7.266
 4671POPC   C4B60382  26.044  42.597   7.696
 4672POPC   NC360383  32.793  12.911   5.207
 4672POPC   PO460384  33.374  12.435   5.139
 4672POPC   GL160385  33.291  12.611   5.627
 4672POPC   GL260386  32.985  12.826   5.683
 4672POPC   C1A60387  33.320  12.782   6.095
 4672POPC   D2A60388  33.115  12.727   6.529
 4672POPC   C3A60389  33.187  12.933   6.940
 4672POPC   C4A60390  33.031  13.281   7.186
 4672POPC   C1B60391  32.786  12.781   6.092
 4672POPC   C2B60392  32.590  12.702   6.503
 4672POPC   C3B60393  32.670  12.808   6.930
 4672POPC   C4B60394  32.842  12.752   7.315
 4673POPC   NC360395  33.465  40.735   5.390
 4673POPC   PO460396  32.868  40.902   5.152
 4673POPC   GL160397  32.987  40.703   5.604
 4673POPC   GL260398  33.311  40.523   5.811
 4673POPC   C1A60399  32.949  40.752   6.075
 4673POPC   D2A60400  32.784  40.901   6.480
 4673POPC   C3A60401  32.825  40.610   6.817
 4673POPC   C4A60402  32.898  40.788   7.200
 4673POPC   C1B60403  33.496  40.569   6.195
 4673POPC   C2B60404  33.273  40.780   6.498
 4673POPC   C3B60405  33.220  40.999   6.860
 4673POPC   C4B60406  33.378  40.861   7.261
 4674POPC   NC360407  21.888  14.657   5.245
 4674POPC   PO460408  22.119  14.098   5.326
 4674POPC   GL160409  21.929  14.249   5.737
 4674POPC   GL260410  21.884  14.637   5.760
 4674POPC   C1A60411  22.206  14.268   6.125
 4674POPC   D2A60412  22.486  14.129   6.509
 4674POPC   C3A60413  22.310  14.276   6.895
 4674POPC   C4A60414  21.977  14.093   7.142
 4674POPC   C1B60415  21.789  14.556   6.188
 4674POPC   C2B60416  21.846  14.277   6.524
 4674POPC   C3B60417  21.831  14.498   6.876
 4674POPC   C4B60418  21.785  14.570   7.271
 4675POPC   NC360419  15.103  10.643   5.375
 4675POPC   PO460420  14.966  11.298   5.346
 4675POPC   GL160421  14.891  10.948   5.751
 4675POPC   GL260422  15.202  10.706   5.864
 4675POPC   C1A60423  14.939  10.854   6.248
 4675POPC   D2A60424  14.935  10.586   6.640
 4675POPC   C3A60425  15.069  10.723   7.063
 4675POPC   C4A60426  15.146  10.511   7.468
 4675POPC   C1B60427  15.442  10.697   6.279
 4675POPC   C2B60428  15.457  10.574   6.737
 4675POPC   C3B60429  15.370  10.277   7.080
 4675POPC   C4B60430  15.556  10.190   7.500
 4676POPC   NC360431  18.240  13.067   5.394
 4676POPC   PO460432  18.425  12.396   5.417
 4676POPC   GL160433  18.348  12.702   5.807
 4676POPC   GL260434  18.109  12.976   5.871
 4676POPC   C1A60435  18.427  12.916   6.266
 4676POPC   D2A60436  18.445  13.131   6.700
 4676POPC   C3A60437  18.505  12.880   7.081
 4676POPC   C4A60438  18.233  12.887   7.461
 4676POPC   C1B60439  17.919  12.759   6.227
 4676POPC   C2B60440  17.686  12.723   6.626
 4676POPC   C3B60441  17.895  12.823   7.039
 4676POPC   C4B60442  17.759  13.105   7.375
 4677POPC   NC360443  38.424  37.119   5.409
 4677POPC   PO460444  38.776  36.510   5.218
 4677POPC   GL160445  38.503  36.648   5.613
 4677POPC   GL260446  38.684  36.895   5.805
 4677POPC   C1A60447  38.282  36.675   6.068
 4677POPC   D2A60448  38.439  36.812   6.497
 4677POPC   C3A60449  38.383  36.709   6.956
 4677POPC   C4A60450  38.078  36.797   7.312
 4677POPC   C1B60451  38.767  37.171   6.171
 4677POPC   C2B60452  38.901  37.022   6.558
 4677POPC   C3B60453  38.847  37.016   6.979
 4677POPC   C4B60454  38.845  37.340   7.330
 4678POPC   NC360455  19.559  27.213   5.334
 4678POPC   PO460456  20.062  26.713   5.390
 4678POPC   GL160457  19.996  26.980   5.679
 4678POPC   GL260458  19.662  26.925   5.753
 4678POPC   C1A60459  20.190  27.025   6.054
 4678POPC   D2A60460  20.059  26.976   6.454
 4678POPC   C3A60461  19.983  27.145   6.831
 4678POPC   C4A60462  20.058  26.908   7.181
 4678POPC   C1B60463  19.707  27.205   6.105
 4678POPC   C2B60464  19.559  27.067   6.516
 4678POPC   C3B60465  19.591  26.828   6.910
 4678POPC   C4B60466  19.611  27.140   7.228
 4679POPC   NC360467  13.664  17.552   5.259
 4679POPC   PO460468  13.214  17.285   5.644
 4679POPC   GL160469  13.562  17.384   5.895
 4679POPC   GL260470  13.709  17.720   5.788
 4679POPC   C1A60471  13.528  17.317   6.343
 4679POPC   D2A60472  13.474  17.279   6.793
 4679POPC   C3A60473  13.795  17.459   7.065
 4679POPC   C4A60474  13.560  17.514   7.419
 4679POPC   C1B60475  13.585  17.839   6.209
 4679POPC   C2B60476  13.665  17.740   6.643
 4679POPC   C3B60477  13.555  17.915   7.045
 4679POPC   C4B60478  13.658  18.038   7.457
 4680POPC   NC360479  33.072  31.022   5.549
 4680POPC   PO460480  32.840  31.597   5.303
 4680POPC   GL160481  32.798  31.589   5.731
 4680POPC   GL260482  32.854  31.285   5.904
 4680POPC   C1A60483  32.644  31.678   6.156
 4680POPC   D2A60484  32.834  31.803   6.542
 4680POPC   C3A60485  32.943  31.539   6.896
 4680POPC   C4A60486  33.328  31.637   7.141
 4680POPC   C1B60487  33.204  31.222   6.187
 4680POPC   C2B60488  33.356  31.380   6.573
 4680POPC   C3B60489  33.362  31.168   6.935
 4680POPC   C4B60490  33.061  31.181   7.234
 4681POPC   NC360491  20.971  20.115   5.430
 4681POPC   PO460492  20.310  19.812   5.471
 4681POPC   GL160493  20.536  19.791   5.852
 4681POPC   GL260494  20.865  19.595   5.879
 4681POPC   C1A60495  20.479  19.883   6.302
 4681POPC   D2A60496  20.551  19.882   6.764
 4681POPC   C3A60497  20.261  19.840   7.120
 4681POPC   C4A60498  20.321  19.607   7.529
 4681POPC   C1B60499  20.946  20.005   6.081
 4681POPC   C2B60500  20.939  20.109   6.505
 4681POPC   C3B60501  21.034  20.100   6.922
 4681POPC   C4B60502  20.755  19.924   7.237
 4682POPC   NC360503  29.602  44.054   5.450
 4682POPC   PO460504  30.283  43.981   5.442
 4682POPC   GL160505  30.118  43.952   5.859
 4682POPC   GL260506  29.788  43.801   5.877
 4682POPC   C1A60507  30.115  44.113   6.284
 4682POPC   D2A60508  30.378  44.073   6.608
 4682POPC   C3A60509  30.173  44.042   6.986
 4682POPC   C4A60510  29.974  43.772   7.236
 4682POPC   C1B60511  29.595  44.033   6.238
 4682POPC   C2B60512  29.747  43.985   6.680
 4682POPC   C3B60513  29.612  44.141   7.090
 4682POPC   C4B60514  29.534  43.922   7.477
 4683POPC   NC360515  33.081  31.033   5.065
 4683POPC   PO460516  32.529  31.056   5.496
 4683POPC   GL160517  32.789  30.706   5.789
 4683POPC   GL260518  32.734  30.318   5.754
 4683POPC   C1A60519  33.036  30.702   6.180
 4683POPC   D2A60520  33.270  30.847   6.547
 4683POPC   C3A60521  33.121  30.711   6.968
 4683POPC   C4A60522  32.875  30.711   7.345
 4683POPC   C1B60523  32.589  30.427   6.156
 4683POPC   C2B60524  32.452  30.333   6.554
 4683POPC   C3B60525  32.622  30.499   6.926
 4683POPC   C4B60526  32.774  30.210   7.204
 4684POPC   NC360527  29.667  32.436   5.434
 4684POPC   PO460528  29.625  31.745   5.504
 4684POPC   GL160529  29.618  32.067   5.808
 4684POPC   GL260530  29.963  32.222   5.858
 4684POPC   C1A60531  29.618  32.238   6.227
 4684POPC   D2A60532  29.898  32.219   6.552
 4684POPC   C3A60533  29.694  32.136   6.908
 4684POPC   C4A60534  29.570  32.455   7.190
 4684POPC   C1B60535  30.279  32.416   6.142
 4684POPC   C2B60536  30.400  32.375   6.561
 4684POPC   C3B60537  30.233  32.299   6.956
 4684POPC   C4B60538  30.308  32.436   7.316
 4685POPC   NC360539  35.960  15.756   5.656
 4685POPC   PO460540  35.842  16.435   5.477
 4685POPC   GL160541  35.979  16.255   5.878
 4685POPC   GL260542  36.303  16.079   5.875
 4685POPC   C1A60543  36.050  16.251   6.336
 4685POPC   D2A60544  35.879  16.359   6.752
 4685POPC   C3A60545  35.935  16.054   7.096
 4685POPC   C4A60546  36.012  15.605   7.128
 4685POPC   C1B60547  36.444  15.904   6.295
 4685POPC   C2B60548  36.317  15.824   6.744
 4685POPC   C3B60549  36.417  15.929   7.175
 4685POPC   C4B60550  36.379  16.231   7.554
 4686POPC   NC360551   5.122  17.129   5.663
 4686POPC   PO460552   5.211  16.549   5.343
 4686POPC   GL160553   5.175  16.561   5.772
 4686POPC   GL260554   4.981  16.298   5.812
 4686POPC   C1A60555   5.217  16.644   6.227
 4686POPC   D2A60556   5.059  16.866   6.611
 4686POPC   C3A60557   5.206  17.003   7.024
 4686POPC   C4A60558   5.334  16.883   7.415
 4686POPC   C1B60559   4.737  16.439   6.170
 4686POPC   C2B60560   4.698  16.498   6.621
 4686POPC   C3B60561   4.944  16.518   6.997
 4686POPC   C4B60562   4.894  16.456   7.398
 4687POPC   NC360563  12.903  11.826   5.114
 4687POPC   PO460564  13.012  12.416   5.438
 4687POPC   GL160565  12.758  12.225   5.756
 4687POPC   GL260566  12.527  12.496   5.851
 4687POPC   C1A60567  12.808  12.114   6.199
 4687POPC   D2A60568  13.107  12.187   6.539
 4687POPC   C3A60569  13.011  12.188   6.954
 4687POPC   C4A60570  12.939  11.878   7.243
 4687POPC   C1B60571  12.582  12.561   6.306
 4687POPC   C2B60572  12.574  12.355   6.719
 4687POPC   C3B60573  12.561  12.324   7.186
 4687POPC   C4B60574  12.506  11.951   7.516
 4688POPC   NC360575   7.187  32.065   5.299
 4688POPC   PO460576   7.862  32.012   5.320
 4688POPC   GL160577   7.583  32.255   5.634
 4688POPC   GL260578   7.740  32.119   5.894
 4688POPC   C1A60579   7.326  32.321   6.071
 4688POPC   D2A60580   7.235  32.431   6.531
 4688POPC   C3A60581   7.399  32.205   6.912
 4688POPC   C4A60582   7.498  32.327   7.336
 4688POPC   C1B60583   7.671  31.982   6.316
 4688POPC   C2B60584   7.668  31.816   6.742
 4688POPC   C3B60585   7.814  31.931   7.173
 4688POPC   C4B60586   7.741  32.008   7.644
 4689POPC   NC360587   5.561  31.982   5.599
 4689POPC   PO460588   6.015  32.461   5.336
 4689POPC   GL160589   5.972  32.416   5.802
 4689POPC   GL260590   5.631  32.366   5.934
 4689POPC   C1A60591   6.001  32.492   6.271
 4689POPC   D2A60592   5.955  32.248   6.670
 4689POPC   C3A60593   5.640  32.265   6.986
 4689POPC   C4A60594   5.287  32.481   7.185
 4689POPC   C1B60595   5.793  32.029   6.207
 4689POPC   C2B60596   5.690  31.812   6.588
 4689POPC   C3B60597   5.958  31.792   6.957
 4689POPC   C4B60598   6.093  32.065   7.274
 4690POPC   NC360599   5.884  40.348   5.557
 4690POPC   PO460600   5.785  40.936   5.373
 4690POPC   GL160601   5.639  40.973   5.780
 4690POPC   GL260602   5.603  40.630   5.841
 4690POPC   C1A60603   5.828  41.006   6.178
 4690POPC   D2A60604   6.082  40.944   6.550
 4690POPC   C3A60605   5.887  40.910   6.939
 4690POPC   C4A60606   5.818  41.095   7.326
 4690POPC   C1B60607   5.530  40.342   6.190
 4690POPC   C2B60608   5.588  40.208   6.608
 4690POPC   C3B60609   5.734  40.193   7.026
 4690POPC   C4B60610   5.804  40.547   7.297
 4691POPC   NC360611   3.682  12.586   5.370
 4691POPC   PO460612   3.254  13.179   5.481
 4691POPC   GL160613   3.429  13.158   5.909
 4691POPC   GL260614   3.697  12.906   5.990
 4691POPC   C1A60615   3.376  13.047   6.365
 4691POPC   D2A60616   3.701  12.793   6.581
 4691POPC   C3A60617   3.719  12.874   7.034
 4691POPC   C4A60618   3.373  13.141   7.183
 4691POPC   C1B60619   3.321  12.622   6.108
 4691POPC   C2B60620   3.118  12.555   6.494
 4691POPC   C3B60621   3.258  12.729   6.867
 4691POPC   C4B60622   3.222  12.606   7.276
 4692POPC   NC360623  33.684   3.966   5.458
 4692POPC   PO460624  33.447   3.317   5.519
 4692POPC   GL160625  33.611   3.591   5.846
 4692POPC   GL260626  33.947   3.683   5.914
 4692POPC   C1A60627  33.607   3.723   6.263
 4692POPC   D2A60628  33.780   3.565   6.641
 4692POPC   C3A60629  33.676   3.754   7.021
 4692POPC   C4A60630  33.591   3.442   7.331
 4692POPC   C1B60631  34.205   3.425   6.179
 4692POPC   C2B60632  34.369   3.413   6.587
 4692POPC   C3B60633  34.151   3.412   6.984
 4692POPC   C4B60634  34.097   3.690   7.304
 4693POPC   NC360635  18.376  14.703   5.406
 4693POPC   PO460636  17.950  14.272   5.554
 4693POPC   GL160637  18.339  14.201   5.772
 4693POPC   GL260638  18.462  14.530   5.889
 4693POPC   C1A60639  18.356  14.107   6.222
 4693POPC   D2A60640  18.160  14.320   6.584
 4693POPC   C3A60641  18.396  14.189   6.930
 4693POPC   C4A60642  18.336  14.011   7.327
 4693POPC   C1B60643  18.101  14.691   6.167
 4693POPC   C2B60644  18.022  14.829   6.605
 4693POPC   C3B60645  18.205  14.695   7.019
 4693POPC   C4B60646  18.504  14.508   7.335
 4694POPC   NC360647  42.433  33.418   5.454
 4694POPC   PO460648  42.649  32.811   5.334
 4694POPC   GL160649  42.368  32.947   5.726
 4694POPC   GL260650  42.037  32.729   5.760
 4694POPC   C1A60651  42.300  33.281   6.110
 4694POPC   D2A60652  42.083  33.278   6.554
 4694POPC   C3A60653  42.259  33.093   6.946
 4694POPC   C4A60654  42.363  33.126   7.380
 4694POPC   C1B60655  42.087  32.848   6.226
 4694POPC   C2B60656  42.085  32.725   6.644
 4694POPC   C3B60657  41.870  32.780   7.016
 4694POPC   C4B60658  41.909  32.877   7.472
 4695POPC   NC360659   1.417   1.282   5.659
 4695POPC   PO460660   0.870   1.024   5.280
 4695POPC   GL160661   0.967   0.985   5.734
 4695POPC   GL260662   0.890   1.347   5.747
 4695POPC   C1A60663   1.170   0.891   6.189
 4695POPC   D2A60664   1.152   1.095   6.633
 4695POPC   C3A60665   1.394   1.179   7.021
 4695POPC   C4A60666   1.355   1.047   7.472
 4695POPC   C1B60667   0.853   1.659   6.082
 4695POPC   C2B60668   0.824   1.657   6.536
 4695POPC   C3B60669   1.033   1.534   6.935
 4695POPC   C4B60670   0.935   1.291   7.328
 4696POPC   NC360671  21.591   8.720   5.398
 4696POPC   PO460672  21.501   9.344   5.341
 4696POPC   GL160673  21.597   9.098   5.727
 4696POPC   GL260674  21.272   8.920   5.780
 4696POPC   C1A60675  21.635   8.970   6.152
 4696POPC   D2A60676  21.365   9.011   6.493
 4696POPC   C3A60677  21.379   8.975   6.895
 4696POPC   C4A60678  21.625   9.108   7.174
 4696POPC   C1B60679  21.183   8.662   6.188
 4696POPC   C2B60680  20.974   8.711   6.623
 4696POPC   C3B60681  20.898   8.912   7.053
 4696POPC   C4B60682  21.141   9.103   7.416
 4697POPC   NC360683  19.912  28.614   5.345
 4697POPC   PO460684  19.611  28.013   5.413
 4697POPC   GL160685  19.569  28.303   5.756
 4697POPC   GL260686  19.800  28.590   5.842
 4697POPC   C1A60687  19.521  28.398   6.208
 4697POPC   D2A60688  19.849  28.416   6.504
 4697POPC   C3A60689  19.734  28.245   6.866
 4697POPC   C4A60690  19.591  28.491   7.159
 4697POPC   C1B60691  20.011  28.195   6.031
 4697POPC   C2B60692  20.163  28.009   6.429
 4697POPC   C3B60693  20.239  28.145   6.843
 4697POPC   C4B60694  20.037  28.208   7.259
 4698POPC   NC360695  26.277  20.812   4.954
 4698POPC   PO460696  26.814  20.636   5.306
 4698POPC   GL160697  26.755  20.644   5.731
 4698POPC   GL260698  27.114  20.633   5.748
 4698POPC   C1A60699  26.585  20.780   6.096
 4698POPC   D2A60700  26.671  20.978   6.450
 4698POPC   C3A60701  26.792  20.805   6.834
 4698POPC   C4A60702  26.544  20.791   7.217
 4698POPC   C1B60703  27.050  20.541   6.192
 4698POPC   C2B60704  27.104  20.436   6.615
 4698POPC   C3B60705  27.288  20.412   7.019
 4698POPC   C4B60706  27.051  20.664   7.262
 4699POPC   NC360707   3.338  43.930   5.445
 4699POPC   PO460708   4.060  43.993   5.407
 4699POPC   GL160709   3.770  43.810   5.734
 4699POPC   GL260710   3.650  44.148   5.794
 4699POPC   C1A60711   3.438  43.664   6.081
 4699POPC   D2A60712   3.316  43.627   6.570
 4699POPC   C3A60713   3.551  43.852   6.889
 4699POPC   C4A60714   3.880  43.970   7.180
 4699POPC   C1B60715   3.321  44.154   6.113
 4699POPC   C2B60716   3.244  44.173   6.537
 4699POPC   C3B60717   3.171  44.362   6.914
 4699POPC   C4B60718   3.361  44.175   7.235
 4700POPC   NC360719  21.108  33.975   5.385
 4700POPC   PO460720  21.730  33.663   5.367
 4700POPC   GL160721  21.379  33.621   5.659
 4700POPC   GL260722  21.620  33.688   5.918
 4700POPC   C1A60723  21.137  33.605   6.060
 4700POPC   D2A60724  21.204  33.546   6.513
 4700POPC   C3A60725  21.304  33.868   6.798
 4700POPC   C4A60726  21.333  33.882   7.206
 4700POPC   C1B60727  21.700  33.751   6.379
 4700POPC   C2B60728  21.757  34.082   6.696
 4700POPC   C3B60729  21.755  34.185   7.162
 4700POPC   C4B60730  21.730  34.443   7.573
 4701POPC   NC360731  34.928  36.491   5.426
 4701POPC   PO460732  34.340  36.216   5.214
 4701POPC   GL160733  34.365  36.099   5.668
 4701POPC   GL260734  34.666  36.206   5.764
 4701POPC   C1A60735  34.432  35.873   6.103
 4701POPC   D2A60736  34.588  35.733   6.535
 4701POPC   C3A60737  34.428  35.897   6.968
 4701POPC   C4A60738  34.563  36.027   7.434
 4701POPC   C1B60739  34.756  36.277   6.191
 4701POPC   C2B60740  34.925  36.529   6.538
 4701POPC   C3B60741  34.749  36.558   6.964
 4701POPC   C4B60742  34.888  36.411   7.358
 4702POPC   NC360743  32.456   2.839   5.314
 4702POPC   PO460744  31.906   2.628   5.133
 4702POPC   GL160745  32.071   2.559   5.581
 4702POPC   GL260746  32.431   2.457   5.684
 4702POPC   C1A60747  32.069   2.785   6.006
 4702POPC   D2A60748  32.257   2.872   6.415
 4702POPC   C3A60749  32.115   2.951   6.852
 4702POPC   C4A60750  32.211   2.801   7.273
 4702POPC   C1B60751  32.590   2.770   6.001
 4702POPC   C2B60752  32.777   2.897   6.396
 4702POPC   C3B60753  32.618   2.872   6.811
 4702POPC   C4B60754  32.739   2.799   7.220
 4703POPC   NC360755  36.415   5.575   5.058
 4703POPC   PO460756  36.022   5.902   5.419
 4703POPC   GL160757  36.018   5.975   5.862
 4703POPC   GL260758  35.739   6.110   5.863
 4703POPC   C1A60759  35.943   5.908   6.340
 4703POPC   D2A60760  35.794   5.827   6.792
 4703POPC   C3A60761  35.982   5.641   7.188
 4703POPC   C4A60762  36.068   5.592   7.655
 4703POPC   C1B60763  35.909   6.395   6.189
 4703POPC   C2B60764  36.086   6.368   6.632
 4703POPC   C3B60765  36.111   6.148   7.038
 4703POPC   C4B60766  36.019   6.074   7.479
 4704POPC   NC360767  41.367   6.941   5.317
 4704POPC   PO460768  41.771   7.570   5.380
 4704POPC   GL160769  41.544   7.318   5.650
 4704POPC   GL260770  41.218   7.488   5.611
 4704POPC   C1A60771  41.603   7.185   6.076
 4704POPC   D2A60772  41.579   7.035   6.516
 4704POPC   C3A60773  41.361   7.233   6.824
 4704POPC   C4A60774  41.425   7.278   7.229
 4704POPC   C1B60775  41.393   7.643   6.018
 4704POPC   C2B60776  41.465   7.572   6.447
 4704POPC   C3B60777  41.171   7.710   6.757
 4704POPC   C4B60778  41.097   7.688   7.170
 4705POPC   NC360779  42.973   7.093   5.477
 4705POPC   PO460780  43.415   6.517   5.365
 4705POPC   GL160781  43.058   6.609   5.655
 4705POPC   GL260782  43.178   6.840   5.866
 4705POPC   C1A60783  43.003   6.401   6.054
 4705POPC   D2A60784  42.849   6.471   6.468
 4705POPC   C3A60785  43.099   6.493   6.785
 4705POPC   C4A60786  43.080   6.488   7.204
 4705POPC   C1B60787  42.946   6.904   6.220
 4705POPC   C2B60788  42.704   6.914   6.637
 4705POPC   C3B60789  42.863   6.919   7.050
 4705POPC   C4B60790  43.228   7.131   7.238
 4706POPC   NC360791  42.686   1.266   5.421
 4706POPC   PO460792  42.054   0.939   5.462
 4706POPC   GL160793  42.241   1.182   5.812
 4706POPC   GL260794  41.984   1.466   5.900
 4706POPC   C1A60795  42.545   1.092   6.175
 4706POPC   D2A60796  42.495   0.852   6.574
 4706POPC   C3A60797  42.602   0.949   7.011
 4706POPC   C4A60798  42.275   0.902   7.369
 4706POPC   C1B60799  42.100   1.308   6.299
 4706POPC   C2B60800  42.360   1.380   6.641
 4706POPC   C3B60801  42.207   1.281   7.021
 4706POPC   C4B60802  42.161   1.389   7.420
 4707POPC   NC360803   9.104   5.337   5.649
 4707POPC   PO460804   8.647   4.773   5.485
 4707POPC   GL160805   8.803   4.989   5.848
 4707POPC   GL260806   8.641   5.329   5.872
 4707POPC   C1A60807   8.922   5.081   6.290
 4707POPC   D2A60808   8.845   5.035   6.739
 4707POPC   C3A60809   9.035   5.150   7.095
 4707POPC   C4A60810   8.973   4.938   7.510
 4707POPC   C1B60811   8.851   5.579   6.181
 4707POPC   C2B60812   8.854   5.558   6.617
 4707POPC   C3B60813   8.629   5.445   6.991
 4707POPC   C4B60814   8.749   5.380   7.451
 4708POPC   NC360815  19.472  17.059   5.091
 4708POPC   PO460816  19.021  16.674   5.458
 4708POPC   GL160817  18.994  16.903   5.836
 4708POPC   GL260818  18.662  17.015   5.866
 4708POPC   C1A60819  19.151  16.776   6.227
 4708POPC   D2A60820  19.027  16.345   6.426
 4708POPC   C3A60821  18.991  16.316   6.883
 4708POPC   C4A60822  19.078  16.649   7.216
 4708POPC   C1B60823  18.660  16.769   6.248
 4708POPC   C2B60824  18.754  16.728   6.666
 4708POPC   C3B60825  18.688  16.945   7.027
 4708POPC   C4B60826  18.673  16.854   7.459
 4709POPC   NC360827   8.172   0.213   5.344
 4709POPC   PO460828   8.303   0.912   5.366
 4709POPC   GL160829   8.281   0.615   5.806
 4709POPC   GL260830   8.214   0.232   5.842
 4709POPC   C1A60831   8.021   0.549   6.210
 4709POPC   D2A60832   8.146   0.586   6.653
 4709POPC   C3A60833   7.961   0.401   7.006
 4709POPC   C4A60834   7.884   0.624   7.378
 4709POPC   C1B60835   8.418   0.220   6.244
 4709POPC   C2B60836   8.332   0.102   6.642
 4709POPC   C3B60837   8.463   0.228   7.020
 4709POPC   C4B60838   8.364   0.462   7.377
 4710POPC   NC360839  26.535   7.197   5.533
 4710POPC   PO460840  26.757   7.852   5.417
 4710POPC   GL160841  26.870   7.546   5.744
 4710POPC   GL260842  27.030   7.191   5.722
 4710POPC   C1A60843  26.780   7.407   6.145
 4710POPC   D2A60844  26.982   7.498   6.503
 4710POPC   C3A60845  26.788   7.506   6.862
 4710POPC   C4A60846  26.713   7.283   7.195
 4710POPC   C1B60847  27.048   6.960   6.125
 4710POPC   C2B60848  26.894   7.004   6.540
 4710POPC   C3B60849  27.140   7.128   6.892
 4710POPC   C4B60850  27.106   6.995   7.304
 4711POPC   NC360851  16.101  18.693   5.503
 4711POPC   PO460852  15.806  19.303   5.375
 4711POPC   GL160853  16.010  19.173   5.729
 4711POPC   GL260854  15.964  19.495   5.845
 4711POPC   C1A60855  15.872  19.088   6.160
 4711POPC   D2A60856  15.766  19.186   6.599
 4711POPC   C3A60857  15.520  18.882   6.864
 4711POPC   C4A60858  15.858  18.732   7.139
 4711POPC   C1B60859  15.894  19.604   6.228
 4711POPC   C2B60860  16.079  19.604   6.606
 4711POPC   C3B60861  16.020  19.442   7.001
 4711POPC   C4B60862  15.701  19.232   7.187
 4712POPC   NC360863  38.094  43.799   5.410
 4712POPC   PO460864  37.469  43.837   5.488
 4712POPC   GL160865  37.734  43.938   5.816
 4712POPC   GL260866  37.687  44.267   5.793
 4712POPC   C1A60867  37.745  43.823   6.259
 4712POPC   D2A60868  37.683  43.750   6.691
 4712POPC   C3A60869  37.842  43.494   7.006
 4712POPC   C4A60870  37.627  43.736   7.311
 4712POPC   C1B60871  37.904  44.307   6.158
 4712POPC   C2B60872  37.963  44.170   6.584
 4712POPC   C3B60873  37.857  44.116   7.041
 4712POPC   C4B60874  37.970  44.163   7.514
 4713POPC   NC360875  24.227  13.698   5.318
 4713POPC   PO460876  24.783  13.354   5.256
 4713POPC   GL160877  24.568  13.472   5.679
 4713POPC   GL260878  24.212  13.484   5.778
 4713POPC   C1A60879  24.678  13.431   6.143
 4713POPC   D2A60880  24.827  13.575   6.529
 4713POPC   C3A60881  24.660  13.465   6.946
 4713POPC   C4A60882  24.632  13.832   7.198
 4713POPC   C1B60883  24.360  13.834   6.055
 4713POPC   C2B60884  24.360  14.033   6.487
 4713POPC   C3B60885  24.179  13.966   6.907
 4713POPC   C4B60886  23.957  13.588   7.081
 4714POPC   NC360887  31.779  16.774   5.318
 4714POPC   PO460888  32.472  16.772   5.078
 4714POPC   GL160889  32.243  16.779   5.558
 4714POPC   GL260890  32.519  16.872   5.810
 4714POPC   C1A60891  32.088  16.593   5.975
 4714POPC   D2A60892  32.091  16.759   6.435
 4714POPC   C3A60893  32.101  16.605   6.893
 4714POPC   C4A60894  32.028  16.885   7.265
 4714POPC   C1B60895  32.538  16.604   6.213
 4714POPC   C2B60896  32.558  16.692   6.644
 4714POPC   C3B60897  32.589  16.636   7.051
 4714POPC   C4B60898  32.423  16.654   7.479
 4715POPC   NC360899  11.497  20.992   5.382
 4715POPC   PO460900  11.145  21.637   5.489
 4715POPC   GL160901  11.386  21.353   5.749
 4715POPC   GL260902  11.105  21.103   5.722
 4715POPC   C1A60903  11.516  21.442   6.192
 4715POPC   D2A60904  11.551  21.726   6.561
 4715POPC   C3A60905  11.372  21.615   6.966
 4715POPC   C4A60906  11.275  21.333   7.304
 4715POPC   C1B60907  11.019  21.305   6.127
 4715POPC   C2B60908  11.122  21.424   6.545
 4715POPC   C3B60909  10.901  21.408   6.943
 4715POPC   C4B60910  10.851  21.738   7.237
 4716POPC   NC360911  23.127   0.700   5.478
 4716POPC   PO460912  23.294   0.227   5.868
 4716POPC   GL160913  22.871   0.348   5.942
 4716POPC   GL260914  22.809   0.697   5.888
 4716POPC   C1A60915  22.808   0.494   6.342
 4716POPC   D2A60916  22.817   0.609   6.724
 4716POPC   C3A60917  23.060   0.360   6.953
 4716POPC   C4A60918  22.846   0.231   7.289
 4716POPC   C1B60919  23.129   0.891   6.205
 4716POPC   C2B60920  23.269   0.838   6.667
 4716POPC   C3B60921  23.100   0.850   7.112
 4716POPC   C4B60922  23.081   0.679   7.544
 4717POPC   NC360923   8.117   2.019   5.602
 4717POPC   PO460924   8.563   2.476   5.703
 4717POPC   GL160925   8.413   2.179   5.977
 4717POPC   GL260926   8.536   1.847   5.831
 4717POPC   C1A60927   8.111   2.027   6.289
 4717POPC   D2A60928   7.901   1.937   6.674
 4717POPC   C3A60929   8.003   2.205   6.997
 4717POPC   C4A60930   7.878   2.212   7.413
 4717POPC   C1B60931   8.588   1.829   6.284
 4717POPC   C2B60932   8.362   1.719   6.646
 4717POPC   C3B60933   8.243   1.763   7.055
 4717POPC   C4B60934   7.816   1.753   7.177
 4718POPC   NC360935  24.649   1.651   5.001
 4718POPC   PO460936  24.308   2.097   5.379
 4718POPC   GL160937  24.517   1.977   5.764
 4718POPC   GL260938  24.708   2.263   5.890
 4718POPC   C1A60939  24.384   1.861   6.212
 4718POPC   D2A60940  24.151   1.824   6.619
 4718POPC   C3A60941  24.414   1.829   6.987
 4718POPC   C4A60942  24.681   1.595   7.286
 4718POPC   C1B60943  24.788   2.134   6.348
 4718POPC   C2B60944  24.514   2.259   6.692
 4718POPC   C3B60945  24.354   2.317   7.102
 4718POPC   C4B60946  24.425   2.052   7.467
 4719POPC   NC360947  30.598   8.943   5.393
 4719POPC   PO460948  30.614   8.289   5.269
 4719POPC   GL160949  30.551   8.599   5.767
 4719POPC   GL260950  30.713   8.952   5.923
 4719POPC   C1A60951  30.299   8.746   6.138
 4719POPC   D2A60952  30.187   8.770   6.583
 4719POPC   C3A60953  30.438   9.114   6.763
 4719POPC   C4A60954  30.534   9.288   7.161
 4719POPC   C1B60955  31.017   8.808   6.252
 4719POPC   C2B60956  31.108   8.847   6.718
 4719POPC   C3B60957  30.907   8.863   7.155
 4719POPC   C4B60958  31.102   8.712   7.558
 4720POPC   NC360959  24.344  30.170   5.602
 4720POPC   PO460960  24.723  29.641   5.300
 4720POPC   GL160961  24.759  29.919   5.734
 4720POPC   GL260962  24.682  30.280   5.944
 4720POPC   C1A60963  24.512  29.838   6.141
 4720POPC   D2A60964  24.470  29.884   6.553
 4720POPC   C3A60965  24.599  29.761   6.937
 4720POPC   C4A60966  24.371  29.629   7.270
 4720POPC   C1B60967  24.503  30.368   6.347
 4720POPC   C2B60968  24.174  30.275   6.622
 4720POPC   C3B60969  24.272  30.162   7.033
 4720POPC   C4B60970  24.526  30.319   7.332
 4721POPC   NC360971  20.664  19.515   5.425
 4721POPC   PO460972  20.811  19.059   5.066
 4721POPC   GL160973  20.605  19.036   5.576
 4721POPC   GL260974  20.332  19.290   5.729
 4721POPC   C1A60975  20.511  18.880   6.049
 4721POPC   D2A60976  20.490  18.723   6.518
 4721POPC   C3A60977  20.502  18.868   6.965
 4721POPC   C4A60978  20.525  18.859   7.436
 4721POPC   C1B60979  20.474  19.381   6.143
 4721POPC   C2B60980  20.588  19.256   6.539
 4721POPC   C3B60981  20.474  19.397   6.929
 4721POPC   C4B60982  20.226  19.234   7.202
 4722POPC   NC360983   5.514  18.460   5.238
 4722POPC   PO460984   5.000  18.140   5.412
 4722POPC   GL160985   5.078  18.386   5.785
 4722POPC   GL260986   4.792  18.253   5.974
 4722POPC   C1A60987   5.100  18.591   6.212
 4722POPC   D2A60988   5.038  18.400   6.624
 4722POPC   C3A60989   5.182  18.658   6.919
 4722POPC   C4A60990   5.016  18.382   7.222
 4722POPC   C1B60991   5.091  18.053   6.258
 4722POPC   C2B60992   5.103  17.843   6.691
 4722POPC   C3B60993   5.102  17.876   7.166
 4722POPC   C4B60994   5.336  18.086   7.502
 4723POPC   NC360995  22.525  42.593   5.251
 4723POPC   PO460996  21.917  42.400   5.503
 4723POPC   GL160997  22.194  42.393   5.839
 4723POPC   GL260998  22.442  42.672   5.766
 4723POPC   C1A60999  22.100  42.234   6.256
 4723POPC   D2A61000  22.037  42.344   6.662
 4723POPC   C3A61001  22.353  42.213   6.920
 4723POPC   C4A61002  22.244  42.345   7.281
 4723POPC   C1B61003  22.503  42.536   6.223
 4723POPC   C2B61004  22.636  42.572   6.658
 4723POPC   C3B61005  22.684  42.582   7.121
 4723POPC   C4B61006  22.607  42.527   7.578
 4724POPC   NC361007   0.883  17.775   5.351
 4724POPC   PO461008   0.718  17.065   5.433
 4724POPC   GL161009   0.513  17.407   5.740
 4724POPC   GL261010   0.454  17.760   5.634
 4724POPC   C1A61011   0.224  17.431   6.125
 4724POPC   D2A61012   0.268  17.227   6.541
 4724POPC   C3A61013   0.087  17.420   6.922
 4724POPC   C4A61014   0.304  17.373   7.329
 4724POPC   C1B61015   0.420  17.909   6.056
 4724POPC   C2B61016   0.510  17.884   6.475
 4724POPC   C3B61017   0.315  17.890   6.889
 4724POPC   C4B61018   0.377  17.883   7.327
 4725POPC   NC361019   7.673  24.211   5.422
 4725POPC   PO461020   7.314  24.704   5.142
 4725POPC   GL161021   7.392  24.741   5.627
 4725POPC   GL261022   7.366  24.434   5.782
 4725POPC   C1A61023   7.380  24.826   6.117
 4725POPC   D2A61024   7.360  24.867   6.606
 4725POPC   C3A61025   7.498  24.606   6.979
 4725POPC   C4A61026   7.203  24.506   7.324
 4725POPC   C1B61027   7.565  24.263   6.171
 4725POPC   C2B61028   7.734  24.374   6.580
 4725POPC   C3B61029   7.806  24.141   6.961
 4725POPC   C4B61030   7.646  24.266   7.383
 4726POPC   NC361031   2.949  36.803   5.343
 4726POPC   PO461032   2.324  37.075   5.523
 4726POPC   GL161033   2.608  36.840   5.770
 4726POPC   GL261034   2.921  37.032   5.784
 4726POPC   C1A61035   2.789  36.788   6.198
 4726POPC   D2A61036   2.846  37.029   6.574
 4726POPC   C3A61037   3.016  36.830   6.939
 4726POPC   C4A61038   2.845  36.830   7.377
 4726POPC   C1B61039   3.130  37.192   6.132
 4726POPC   C2B61040   3.231  37.382   6.523
 4726POPC   C3B61041   3.054  37.350   6.929
 4726POPC   C4B61042   3.216  37.171   7.305
 4727POPC   NC361043   8.176  38.088   5.445
 4727POPC   PO461044   8.383  38.646   5.459
 4727POPC   GL161045   8.220  38.434   5.849
 4727POPC   GL261046   8.381  38.095   5.904
 4727POPC   C1A61047   8.144  38.414   6.321
 4727POPC   D2A61048   8.431  38.497   6.683
 4727POPC   C3A61049   8.211  38.502   7.067
 4727POPC   C4A61050   7.796  38.561   7.212
 4727POPC   C1B61051   8.370  37.961   6.319
 4727POPC   C2B61052   8.190  38.030   6.706
 4727POPC   C3B61053   8.371  38.011   7.092
 4727POPC   C4B61054   8.166  38.150   7.455
 4728POPC   NC361055   7.076   7.623   5.444
 4728POPC   PO461056   6.527   7.166   5.414
 4728POPC   GL161057   6.594   7.532   5.727
 4728POPC   GL261058   6.894   7.491   5.923
 4728POPC   C1A61059   6.472   7.652   6.174
 4728POPC   D2A61060   6.626   7.601   6.625
 4728POPC   C3A61061   6.324   7.424   6.916
 4728POPC   C4A61062   6.081   7.502   7.281
 4728POPC   C1B61063   6.740   7.224   6.282
 4728POPC   C2B61064   6.665   7.074   6.701
 4728POPC   C3B61065   6.821   7.285   7.074
 4728POPC   C4B61066   6.849   7.107   7.527
 4729POPC   NC361067  39.889   9.873   5.117
 4729POPC   PO461068  39.264   9.896   5.408
 4729POPC   GL161069  39.418   9.742   5.802
 4729POPC   GL261070  39.117   9.869   5.970
 4729POPC   C1A61071  39.572   9.724   6.226
 4729POPC   D2A61072  39.215   9.847   6.469
 4729POPC   C3A61073  39.358  10.007   6.828
 4729POPC   C4A61074  39.292   9.740   7.139
 4729POPC   C1B61075  38.712  10.017   6.185
 4729POPC   C2B61076  38.555   9.879   6.567
 4729POPC   C3B61077  38.871   9.817   6.856
 4729POPC   C4B61078  38.879  10.002   7.249
 4730POPC   NC361079  43.524  35.478   5.525
 4730POPC   PO461080  44.119  35.205   5.343
 4730POPC   GL161081  44.061  35.117   5.757
 4730POPC   GL261082  43.720  35.007   5.776
 4730POPC   C1A61083  44.009  35.193   6.186
 4730POPC   D2A61084  43.846  35.026   6.556
 4730POPC   C3A61085  43.945  35.331   6.846
 4730POPC   C4A61086  43.921  35.490   7.249
 4730POPC   C1B61087  43.493  35.158   6.160
 4730POPC   C2B61088  43.335  35.176   6.617
 4730POPC   C3B61089  43.433  35.316   7.067
 4730POPC   C4B61090  43.467  35.540   7.488
 4731POPC   NC361091  35.266  35.550   5.441
 4731POPC   PO461092  35.706  35.074   5.637
 4731POPC   GL161093  35.460  35.376   5.902
 4731POPC   GL261094  35.462  35.786   5.844
 4731POPC   C1A61095  35.446  35.190   6.316
 4731POPC   D2A61096  35.173  35.071   6.641
 4731POPC   C3A61097  35.355  35.216   7.015
 4731POPC   C4A61098  35.752  35.204   7.174
 4731POPC   C1B61099  35.540  35.738   6.260
 4731POPC   C2B61100  35.594  35.558   6.658
 4731POPC   C3B61101  35.631  35.729   7.064
 4731POPC   C4B61102  35.353  35.594   7.376
 4732POPC   NC361103   7.322  25.140   5.278
 4732POPC   PO461104   7.142  25.772   5.438
 4732POPC   GL161105   7.186  25.418   5.740
 4732POPC   GL261106   7.500  25.217   5.768
 4732POPC   C1A61107   7.218  25.342   6.188
 4732POPC   D2A61108   7.499  25.348   6.525
 4732POPC   C3A61109   7.373  25.287   6.937
 4732POPC   C4A61110   7.131  24.950   7.099
 4732POPC   C1B61111   7.829  25.380   6.078
 4732POPC   C2B61112   7.990  25.430   6.511
 4732POPC   C3B61113   7.860  25.389   6.930
 4732POPC   C4B61114   7.690  25.202   7.328
 4733POPC   NC361115  24.229  25.565   5.519
 4733POPC   PO461116  24.729  25.081   5.367
 4733POPC   GL161117  24.570  25.247   5.736
 4733POPC   GL261118  24.752  25.567   5.723
 4733POPC   C1A61119  24.516  25.364   6.171
 4733POPC   D2A61120  24.637  25.285   6.587
 4733POPC   C3A61121  24.440  25.211   6.974
 4733POPC   C4A61122  24.146  25.366   7.235
 4733POPC   C1B61123  25.009  25.547   6.110
 4733POPC   C2B61124  24.934  25.695   6.540
 4733POPC   C3B61125  24.635  25.723   6.899
 4733POPC   C4B61126  24.613  25.593   7.283
 4734POPC   NC361127  20.563  15.415   5.533
 4734POPC   PO461128  20.822  14.799   5.496
 4734POPC   GL161129  20.798  15.081   5.838
 4734POPC   GL261130  20.448  15.037   5.844
 4734POPC   C1A61131  20.640  15.244   6.266
 4734POPC   D2A61132  20.887  15.160   6.632
 4734POPC   C3A61133  20.808  15.433   6.982
 4734POPC   C4A61134  20.459  15.511   7.255
 4734POPC   C1B61135  20.264  14.800   6.174
 4734POPC   C2B61136  20.398  14.818   6.584
 4734POPC   C3B61137  20.423  15.096   6.914
 4734POPC   C4B61138  20.400  15.021   7.360
 4735POPC   NC361139  35.080   0.185   5.381
 4735POPC   PO461140  35.690   0.080   5.557
 4735POPC   GL161141  35.350   0.376   5.769
 4735POPC   GL261142  35.145   0.710   5.786
 4735POPC   C1A61143  35.108   0.325   6.134
 4735POPC   D2A61144  35.304   0.447   6.483
 4735POPC   C3A61145  35.106   0.380   6.848
 4735POPC   C4A61146  35.328   0.348   7.193
 4735POPC   C1B61147  35.436   0.807   6.096
 4735POPC   C2B61148  35.602   0.918   6.483
 4735POPC   C3B61149  35.609   0.719   6.860
 4735POPC   C4B61150  35.625   0.770   7.272
 4736POPC   NC361151  20.279  21.140   5.513
 4736POPC   PO461152  20.686  20.533   5.413
 4736POPC   GL161153  20.709  20.696   5.817
 4736POPC   GL261154  20.350  20.681   5.813
 4736POPC   C1A61155  20.734  20.493   6.221
 4736POPC   D2A61156  20.451  20.331   6.548
 4736POPC   C3A61157  20.618  20.393   6.957
 4736POPC   C4A61158  20.802  20.766   7.102
 4736POPC   C1B61159  20.302  20.762   6.251
 4736POPC   C2B61160  20.478  20.819   6.670
 4736POPC   C3B61161  20.290  20.824   7.062
 4736POPC   C4B61162  20.436  20.825   7.468
 4737POPC   NC361163  29.068  34.307   5.270
 4737POPC   PO461164  29.290  34.925   5.346
 4737POPC   GL161165  29.114  34.593   5.711
 4737POPC   GL261166  29.356  34.526   5.981
 4737POPC   C1A61167  28.901  34.382   6.119
 4737POPC   D2A61168  28.800  34.609   6.501
 4737POPC   C3A61169  29.010  34.507   6.867
 4737POPC   C4A61170  28.857  34.566   7.229
 4737POPC   C1B61171  29.314  34.440   6.445
 4737POPC   C2B61172  29.327  34.107   6.792
 4737POPC   C3B61173  29.218  34.170   7.225
 4737POPC   C4B61174  29.312  34.559   7.398
 4738POPC   NC361175  10.284   3.415   5.338
 4738POPC   PO461176  10.869   3.667   5.537
 4738POPC   GL161177  10.512   3.562   5.769
 4738POPC   GL261178  10.244   3.807   5.706
 4738POPC   C1A61179  10.485   3.631   6.202
 4738POPC   D2A61180  10.541   3.437   6.610
 4738POPC   C3A61181  10.664   3.451   7.049
 4738POPC   C4A61182  10.372   3.197   7.238
 4738POPC   C1B61183  10.173   4.019   6.112
 4738POPC   C2B61184  10.289   3.935   6.553
 4738POPC   C3B61185  10.252   3.716   6.946
 4738POPC   C4B61186  10.325   3.896   7.342
 4739POPC   NC361187  24.959  12.041   5.228
 4739POPC   PO461188  25.607  12.163   5.464
 4739POPC   GL161189  25.344  11.996   5.804
 4739POPC   GL261190  24.973  12.061   5.760
 4739POPC   C1A61191  25.404  12.033   6.253
 4739POPC   D2A61192  25.521  12.251   6.619
 4739POPC   C3A61193  25.337  12.047   6.960
 4739POPC   C4A61194  25.207  12.197   7.350
 4739POPC   C1B61195  24.946  11.866   6.182
 4739POPC   C2B61196  25.094  11.746   6.621
 4739POPC   C3B61197  24.811  11.847   6.993
 4739POPC   C4B61198  24.831  11.873   7.474
 4740POPC   NC361199  38.878  39.868   5.034
 4740POPC   PO461200  38.310  39.791   5.436
 4740POPC   GL161201  38.272  39.865   5.852
 4740POPC   GL261202  38.604  39.932   5.959
 4740POPC   C1A61203  38.243  39.726   6.282
 4740POPC   D2A61204  38.544  39.862   6.567
 4740POPC   C3A61205  38.402  39.768   6.964
 4740POPC   C4A61206  38.453  40.034   7.291
 4740POPC   C1B61207  38.520  40.311   6.178
 4740POPC   C2B61208  38.642  40.551   6.525
 4740POPC   C3B61209  38.534  40.406   6.921
 4740POPC   C4B61210  38.586  40.542   7.331
 4741POPC   NC361211  38.191   1.241   5.590
 4741POPC   PO461212  37.755   0.850   5.304
 4741POPC   GL161213  37.724   1.136   5.796
 4741POPC   GL261214  37.498   1.440   5.861
 4741POPC   C1A61215  37.590   1.084   6.236
 4741POPC   D2A61216  37.593   0.718   6.514
 4741POPC   C3A61217  37.709   0.873   6.909
 4741POPC   C4A61218  37.733   1.270   7.132
 4741POPC   C1B61219  37.684   1.626   6.249
 4741POPC   C2B61220  37.600   1.645   6.712
 4741POPC   C3B61221  37.794   1.816   7.077
 4741POPC   C4B61222  38.093   1.594   7.320
 4742POPC   NC361223  25.565  44.737   5.653
 4742POPC   PO461224  25.971  44.554   5.191
 4742POPC   GL161225  26.061  44.782   5.654
 4742POPC   GL261226  25.835   0.047   5.904
 4742POPC   C1A61227  26.082  44.659   6.109
 4742POPC   D2A61228  26.013  44.723   6.553
 4742POPC   C3A61229  26.276  44.453   6.823
 4742POPC   C4A61230  26.508  44.699   7.146
 4742POPC   C1B61231  25.615  44.930   6.272
 4742POPC   C2B61232  25.405  44.988   6.666
 4742POPC   C3B61233  25.659  44.804   6.948
 4742POPC   C4B61234  25.998  44.732   7.159
 4743POPC   NC361235  14.355  42.084   5.360
 4743POPC   PO461236  14.916  42.084   5.566
 4743POPC   GL161237  14.587  42.222   5.844
 4743POPC   GL261238  14.270  42.383   5.770
 4743POPC   C1A61239  14.496  42.183   6.285
 4743POPC   D2A61240  14.555  41.965   6.668
 4743POPC   C3A61241  14.470  42.247   7.020
 4743POPC   C4A61242  14.492  42.368   7.476
 4743POPC   C1B61243  14.121  42.503   6.185
 4743POPC   C2B61244  14.068  42.275   6.593
 4743POPC   C3B61245  13.996  42.488   6.971
 4743POPC   C4B61246  14.089  42.703   7.343
 4744POPC   NC361247   9.536  38.633   5.418
 4744POPC   PO461248   9.872  38.063   5.336
 4744POPC   GL161249   9.851  38.335   5.750
 4744POPC   GL261250  10.069  38.616   5.878
 4744POPC   C1A61251   9.617  38.561   6.106
 4744POPC   D2A61252   9.728  38.814   6.475
 4744POPC   C3A61253   9.574  38.609   6.850
 4744POPC   C4A61254   9.408  38.240   7.085
 4744POPC   C1B61255  10.085  38.460   6.305
 4744POPC   C2B61256   9.897  38.238   6.664
 4744POPC   C3B61257   9.994  38.383   7.083
 4744POPC   C4B61258   9.935  38.790   7.205
 4745POPC   NC361259  25.127   5.518   5.422
 4745POPC   PO461260  25.455   6.114   5.476
 4745POPC   GL161261  25.347   5.818   5.781
 4745POPC   GL261262  25.634   5.644   5.808
 4745POPC   C1A61263  25.202   5.839   6.190
 4745POPC   D2A61264  25.435   5.813   6.562
 4745POPC   C3A61265  25.185   5.841   6.910
 4745POPC   C4A61266  25.302   5.944   7.294
 4745POPC   C1B61267  25.556   5.459   6.197
 4745POPC   C2B61268  25.770   5.421   6.597
 4745POPC   C3B61269  25.695   5.601   7.015
 4745POPC   C4B61270  25.368   5.437   7.292
 4746POPC   NC361271  20.844  16.742   5.331
 4746POPC   PO461272  21.421  16.952   5.231
 4746POPC   GL161273  21.598  16.795   5.638
 4746POPC   GL261274  21.417  16.498   5.819
 4746POPC   C1A61275  21.609  16.921   6.090
 4746POPC   D2A61276  21.409  17.066   6.496
 4746POPC   C3A61277  21.466  16.781   6.857
 4746POPC   C4A61278  21.616  16.747   7.278
 4746POPC   C1B61279  21.133  16.608   6.208
 4746POPC   C2B61280  20.934  16.894   6.552
 4746POPC   C3B61281  21.073  17.087   6.941
 4746POPC   C4B61282  21.107  16.760   7.242
 4747POPC   NC361283  36.119  22.447   5.544
 4747POPC   PO461284  36.113  21.831   5.787
 4747POPC   GL161285  36.324  22.157   5.917
 4747POPC   GL261286  36.025  22.354   6.030
 4747POPC   C1A61287  36.549  22.279   6.280
 4747POPC   D2A61288  36.356  22.063   6.651
 4747POPC   C3A61289  36.210  22.219   7.028
 4747POPC   C4A61290  36.091  22.165   7.478
 4747POPC   C1B61291  35.764  22.549   6.350
 4747POPC   C2B61292  35.661  22.333   6.743
 4747POPC   C3B61293  35.733  22.358   7.180
 4747POPC   C4B61294  35.804  22.547   7.627
 4748POPC   NC361295  35.784  39.474   5.633
 4748POPC   PO461296  36.341  39.233   5.332
 4748POPC   GL161297  36.181  39.172   5.761
 4748POPC   GL261298  35.854  38.980   5.793
 4748POPC   C1A61299  36.159  39.422   6.166
 4748POPC   D2A61300  35.926  39.337   6.545
 4748POPC   C3A61301  36.106  39.497   6.899
 4748POPC   C4A61302  36.119  39.330   7.252
 4748POPC   C1B61303  35.992  38.942   6.202
 4748POPC   C2B61304  35.964  38.829   6.630
 4748POPC   C3B61305  35.856  38.856   7.067
 4748POPC   C4B61306  36.184  38.836   7.330
 4749POPC   NC361307  27.604  30.112   5.305
 4749POPC   PO461308  27.386  30.838   5.450
 4749POPC   GL161309  27.366  30.688   5.849
 4749POPC   GL261310  27.458  30.367   5.751
 4749POPC   C1A61311  27.453  30.810   6.293
 4749POPC   D2A61312  27.519  31.124   6.644
 4749POPC   C3A61313  27.583  30.970   7.070
 4749POPC   C4A61314  27.300  30.675   7.294
 4749POPC   C1B61315  27.723  30.385   6.130
 4749POPC   C2B61316  27.623  30.263   6.563
 4749POPC   C3B61317  27.643  30.471   6.974
 4749POPC   C4B61318  27.756  30.455   7.441
 4750POPC   NC361319  44.936  39.946   5.431
 4750POPC   PO461320  44.388  39.569   5.399
 4750POPC   GL161321  44.616  39.715   5.776
 4750POPC   GL261322  44.560  40.080   5.759
 4750POPC   C1A61323  44.996  39.811   6.058
 4750POPC   D2A61324   0.004  39.902   6.503
 4750POPC   C3A61325  44.684  39.858   6.838
 4750POPC   C4A61326  44.809  40.103   7.212
 4750POPC   C1B61327  44.602  40.094   6.200
 4750POPC   C2B61328  44.617  40.301   6.594
 4750POPC   C3B61329  44.415  40.309   6.974
 4750POPC   C4B61330  44.324  40.002   7.272
 4751POPC   NC361331  24.099  18.005   5.432
 4751POPC   PO461332  23.660  18.512   5.472
 4751POPC   GL161333  23.781  18.339   5.832
 4751POPC   GL261334  24.104  18.521   5.854
 4751POPC   C1A61335  23.516  18.283   6.212
 4751POPC   D2A61336  23.417  18.042   6.547
 4751POPC   C3A61337  23.495  18.292   6.889
 4751POPC   C4A61338  23.783  18.109   7.156
 4751POPC   C1B61339  24.016  18.401   6.274
 4751POPC   C2B61340  23.917  18.227   6.641
 4751POPC   C3B61341  24.055  18.497   6.959
 4751POPC   C4B61342  24.235  18.832   7.220
 4752POPC   NC361343  21.738  13.840   5.425
 4752POPC   PO461344  22.338  13.503   5.384
 4752POPC   GL161345  22.226  13.776   5.724
 4752POPC   GL261346  21.965  13.592   5.827
 4752POPC   C1A61347  22.312  13.775   6.156
 4752POPC   D2A61348  22.106  13.559   6.475
 4752POPC   C3A61349  22.219  13.754   6.853
 4752POPC   C4A61350  22.243  13.590   7.286
 4752POPC   C1B61351  21.800  13.894   6.137
 4752POPC   C2B61352  21.651  13.774   6.548
 4752POPC   C3B61353  21.736  13.616   6.983
 4752POPC   C4B61354  21.776  13.727   7.436
 4753POPC   NC361355  31.300  25.226   5.345
 4753POPC   PO461356  31.799  25.525   5.701
 4753POPC   GL161357  31.638  25.184   5.935
 4753POPC   GL261358  31.293  25.221   5.894
 4753POPC   C1A61359  31.476  25.130   6.386
 4753POPC   D2A61360  31.496  25.320   6.843
 4753POPC   C3A61361  31.439  25.079   7.258
 4753POPC   C4A61362  31.135  25.049   7.665
 4753POPC   C1B61363  31.378  25.598   6.164
 4753POPC   C2B61364  31.226  25.750   6.547
 4753POPC   C3B61365  31.111  25.669   6.965
 4753POPC   C4B61366  31.020  25.356   7.248
 4754POPC   NC361367   3.542   9.176   5.270
 4754POPC   PO461368   3.281   8.710   5.383
 4754POPC   GL161369   3.509   8.927   5.767
 4754POPC   GL261370   3.487   9.294   5.797
 4754POPC   C1A61371   3.742   8.966   6.206
 4754POPC   D2A61372   3.941   8.951   6.645
 4754POPC   C3A61373   3.744   8.854   7.073
 4754POPC   C4A61374   3.824   8.603   7.476
 4754POPC   C1B61375   3.330   9.253   6.251
 4754POPC   C2B61376   3.444   9.065   6.673
 4754POPC   C3B61377   3.455   9.289   7.084
 4754POPC   C4B61378   3.230   9.360   7.483
 4755POPC   NC361379  20.474  27.022   5.432
 4755POPC   PO461380  20.806  26.507   5.521
 4755POPC   GL161381  20.703  26.789   5.859
 4755POPC   GL261382  20.955  27.054   5.755
 4755POPC   C1A61383  20.567  26.802   6.314
 4755POPC   D2A61384  20.403  26.800   6.771
 4755POPC   C3A61385  20.532  26.778   7.202
 4755POPC   C4A61386  20.385  26.857   7.604
 4755POPC   C1B61387  21.056  26.965   6.205
 4755POPC   C2B61388  21.022  26.656   6.551
 4755POPC   C3B61389  20.947  26.589   6.983
 4755POPC   C4B61390  20.967  27.028   7.198
 4756POPC   NC361391  18.725  15.234   5.345
 4756POPC   PO461392  19.382  15.384   5.317
 4756POPC   GL161393  19.157  15.150   5.637
 4756POPC   GL261394  18.995  15.429   5.758
 4756POPC   C1A61395  19.121  15.040   6.108
 4756POPC   D2A61396  19.002  14.836   6.510
 4756POPC   C3A61397  19.123  15.058   6.849
 4756POPC   C4A61398  19.230  14.935   7.243
 4756POPC   C1B61399  18.699  15.422   6.094
 4756POPC   C2B61400  18.848  15.354   6.475
 4756POPC   C3B61401  18.809  15.462   6.872
 4756POPC   C4B61402  18.959  15.362   7.238
 4757POPC   NC361403  34.506  19.810   5.063
 4757POPC   PO461404  35.058  20.010   5.468
 4757POPC   GL161405  34.944  19.696   5.906
 4757POPC   GL261406  34.532  19.690   6.041
 4757POPC   C1A61407  34.900  19.645   6.373
 4757POPC   D2A61408  34.532  19.883   6.536
 4757POPC   C3A61409  34.552  20.033   6.962
 4757POPC   C4A61410  34.777  19.739   7.189
 4757POPC   C1B61411  34.169  19.396   6.193
 4757POPC   C2B61412  34.136  19.270   6.628
 4757POPC   C3B61413  34.324  19.563   6.930
 4757POPC   C4B61414  34.370  19.541   7.396
 4758POPC   NC361415  36.375  36.784   5.340
 4758POPC   PO461416  35.780  36.536   5.432
 4758POPC   GL161417  36.007  36.522   5.839
 4758POPC   GL261418  36.263  36.742   5.827
 4758POPC   C1A61419  35.927  36.746   6.233
 4758POPC   D2A61420  35.824  36.956   6.650
 4758POPC   C3A61421  35.851  36.759   7.079
 4758POPC   C4A61422  35.860  36.698   7.541
 4758POPC   C1B61423  36.401  36.976   6.137
 4758POPC   C2B61424  36.395  36.794   6.529
 4758POPC   C3B61425  36.283  36.990   6.890
 4758POPC   C4B61426  36.320  36.894   7.287
 4759POPC   NC361427  40.383  39.386   5.363
 4759POPC   PO461428  39.728  39.389   5.510
 4759POPC   GL161429  39.906  39.093   5.729
 4759POPC   GL261430  40.163  39.216   5.900
 4759POPC   C1A61431  39.734  38.960   6.111
 4759POPC   D2A61432  39.632  39.075   6.531
 4759POPC   C3A61433  39.915  39.130   6.862
 4759POPC   C4A61434  39.818  39.117   7.299
 4759POPC   C1B61435  39.821  39.444   6.186
 4759POPC   C2B61436  39.715  39.584   6.622
 4759POPC   C3B61437  39.724  39.555   7.080
 4759POPC   C4B61438  39.703  39.557   7.544
 4760POPC   NC361439  17.544  15.215   5.267
 4760POPC   PO461440  18.002  15.264   5.672
 4760POPC   GL161441  17.614  15.293   5.845
 4760POPC   GL261442  17.358  15.495   5.661
 4760POPC   C1A61443  17.595  15.139   6.268
 4760POPC   D2A61444  17.492  14.866   6.591
 4760POPC   C3A61445  17.650  15.004   6.974
 4760POPC   C4A61446  17.837  14.863   7.343
 4760POPC   C1B61447  17.249  15.476   6.143
 4760POPC   C2B61448  17.235  15.398   6.597
 4760POPC   C3B61449  17.217  15.269   7.039
 4760POPC   C4B61450  17.454  15.197   7.423
 4761POPC   NC361451  42.263   7.358   5.466
 4761POPC   PO461452  42.112   8.082   5.512
 4761POPC   GL161453  42.256   7.755   5.844
 4761POPC   GL261454  41.990   7.526   5.862
 4761POPC   C1A61455  42.351   7.727   6.322
 4761POPC   D2A61456  42.383   7.398   6.671
 4761POPC   C3A61457  42.329   7.507   7.052
 4761POPC   C4A61458  42.518   7.700   7.376
 4761POPC   C1B61459  42.227   7.273   6.137
 4761POPC   C2B61460  41.945   7.358   6.434
 4761POPC   C3B61461  41.895   7.251   6.875
 4761POPC   C4B61462  41.922   7.346   7.302
 4762POPC   NC361463  18.774  39.314   5.603
 4762POPC   PO461464  19.342  38.913   5.469
 4762POPC   GL161465  19.281  39.045   5.881
 4762POPC   GL261466  18.963  39.179   6.062
 4762POPC   C1A61467  19.476  39.075   6.280
 4762POPC   D2A61468  19.254  39.048   6.651
 4762POPC   C3A61469  19.354  39.082   7.089
 4762POPC   C4A61470  18.932  39.038   7.257
 4762POPC   C1B61471  18.989  39.607   6.299
 4762POPC   C2B61472  18.903  39.776   6.737
 4762POPC   C3B61473  18.869  39.529   7.161
 4762POPC   C4B61474  18.765  39.389   7.614
 4763POPC   NC361475  19.554  32.404   5.690
 4763POPC   PO461476  20.129  32.364   5.501
 4763POPC   GL161477  19.977  32.217   5.905
 4763POPC   GL261478  19.861  31.910   6.053
 4763POPC   C1A61479  19.989  32.354   6.323
 4763POPC   D2A61480  19.914  32.120   6.682
 4763POPC   C3A61481  19.999  32.304   7.054
 4763POPC   C4A61482  19.688  32.637   7.119
 4763POPC   C1B61483  19.525  32.017   6.321
 4763POPC   C2B61484  19.374  32.188   6.712
 4763POPC   C3B61485  19.523  32.137   7.132
 4763POPC   C4B61486  19.515  32.017   7.569
 4764POPC   NC361487   2.294  42.439   5.481
 4764POPC   PO461488   1.708  42.094   5.239
 4764POPC   GL161489   1.949  42.074   5.663
 4764POPC   GL261490   2.302  41.990   5.772
 4764POPC   C1A61491   1.989  42.311   6.077
 4764POPC   D2A61492   2.120  42.316   6.532
 4764POPC   C3A61493   1.913  42.484   6.935
 4764POPC   C4A61494   1.964  42.357   7.376
 4764POPC   C1B61495   2.390  41.972   6.212
 4764POPC   C2B61496   2.372  41.851   6.644
 4764POPC   C3B61497   2.329  42.090   7.022
 4764POPC   C4B61498   2.509  42.243   7.413
 4765POPC   NC361499   3.282  24.908   5.691
 4765POPC   PO461500   3.852  25.220   5.506
 4765POPC   GL161501   3.966  25.355   5.904
 4765POPC   GL261502   3.855  25.659   5.858
 4765POPC   C1A61503   3.979  25.453   6.349
 4765POPC   D2A61504   3.834  25.470   6.787
 4765POPC   C3A61505   3.513  25.164   6.902
 4765POPC   C4A61506   3.311  25.128   7.301
 4765POPC   C1B61507   3.494  25.429   6.093
 4765POPC   C2B61508   3.312  25.468   6.514
 4765POPC   C3B61509   3.164  25.535   6.928
 4765POPC   C4B61510   3.508  25.593   7.206
 4766POPC   NC361511  42.718  15.476   5.306
 4766POPC   PO461512  42.236  14.923   5.283
 4766POPC   GL161513  42.258  14.896   5.723
 4766POPC   GL261514  41.934  14.782   5.859
 4766POPC   C1A61515  42.405  15.256   5.983
 4766POPC   D2A61516  42.660  15.326   6.355
 4766POPC   C3A61517  42.453  15.229   6.733
 4766POPC   C4A61518  42.388  15.206   7.159
 4766POPC   C1B61519  42.085  14.936   6.243
 4766POPC   C2B61520  42.147  14.811   6.681
 4766POPC   C3B61521  42.059  14.810   7.134
 4766POPC   C4B61522  41.843  14.836   7.532
 4767POPC   NC361523  20.406  38.292   5.113
 4767POPC   PO461524  20.994  38.428   5.415
 4767POPC   GL161525  20.746  38.332   5.710
 4767POPC   GL261526  20.474  38.540   5.599
 4767POPC   C1A61527  20.707  38.147   6.091
 4767POPC   D2A61528  20.484  38.186   6.435
 4767POPC   C3A61529  20.607  38.204   6.857
 4767POPC   C4A61530  20.821  38.291   7.224
 4767POPC   C1B61531  20.505  38.614   6.070
 4767POPC   C2B61532  20.683  38.673   6.489
 4767POPC   C3B61533  20.713  38.704   6.929
 4767POPC   C4B61534  20.997  38.767   7.265
 4768POPC   NC361535  31.990  10.646   5.510
 4768POPC   PO461536  31.425  10.183   5.442
 4768POPC   GL161537  31.483  10.266   5.852
 4768POPC   GL261538  31.575  10.624   5.824
 4768POPC   C1A61539  31.257  10.339   6.234
 4768POPC   D2A61540  31.421  10.204   6.623
 4768POPC   C3A61541  31.258  10.391   6.974
 4768POPC   C4A61542  31.213  10.199   7.351
 4768POPC   C1B61543  31.689  10.572   6.243
 4768POPC   C2B61544  31.541  10.699   6.609
 4768POPC   C3B61545  31.690  10.646   6.999
 4768POPC   C4B61546  31.533  10.878   7.294
 4769POPC   NC361547   4.993  23.345   5.365
 4769POPC   PO461548   5.251  23.926   5.256
 4769POPC   GL161549   5.169  23.770   5.657
 4769POPC   GL261550   5.327  23.458   5.760
 4769POPC   C1A61551   5.050  23.814   6.102
 4769POPC   D2A61552   5.105  23.646   6.533
 4769POPC   C3A61553   5.040  23.926   6.897
 4769POPC   C4A61554   5.149  23.837   7.328
 4769POPC   C1B61555   5.505  23.426   6.183
 4769POPC   C2B61556   5.591  23.483   6.618
 4769POPC   C3B61557   5.409  23.530   7.009
 4769POPC   C4B61558   5.489  23.466   7.468
 4770POPC   NC361559  24.089  22.312   5.348
 4770POPC   PO461560  24.319  21.599   5.272
 4770POPC   GL161561  24.351  21.814   5.727
 4770POPC   GL261562  24.391  22.165   5.778
 4770POPC   C1A61563  24.270  21.819   6.184
 4770POPC   D2A61564  24.206  22.028   6.600
 4770POPC   C3A61565  24.615  22.141   6.784
 4770POPC   C4A61566  24.831  21.903   7.075
 4770POPC   C1B61567  24.454  22.335   6.226
 4770POPC   C2B61568  24.312  22.537   6.652
 4770POPC   C3B61569  24.330  22.432   7.104
 4770POPC   C4B61570  24.289  22.566   7.527
 4771POPC   NC361571  32.364   1.893   5.029
 4771POPC   PO461572  31.843   2.090   5.402
 4771POPC   GL161573  32.098   2.059   5.787
 4771POPC   GL261574  32.314   1.766   5.776
 4771POPC   C1A61575  32.237   2.307   6.156
 4771POPC   D2A61576  32.500   2.434   6.495
 4771POPC   C3A61577  32.269   2.437   6.898
 4771POPC   C4A61578  32.368   2.299   7.329
 4771POPC   C1B61579  32.227   1.776   6.228
 4771POPC   C2B61580  32.342   1.955   6.636
 4771POPC   C3B61581  32.311   1.771   7.053
 4771POPC   C4B61582  32.284   1.830   7.511
 4772POPC   NC361583  28.853  43.997   5.468
 4772POPC   PO461584  29.336  43.694   5.581
 4772POPC   GL161585  29.152  43.810   5.892
 4772POPC   GL261586  28.798  43.752   5.930
 4772POPC   C1A61587  29.139  43.678   6.300
 4772POPC   D2A61588  29.214  43.892   6.634
 4772POPC   C3A61589  29.348  43.707   7.006
 4772POPC   C4A61590  29.066  43.794   7.318
 4772POPC   C1B61591  28.894  44.142   6.158
 4772POPC   C2B61592  28.851  44.330   6.567
 4772POPC   C3B61593  28.998  44.223   6.946
 4772POPC   C4B61594  28.770  44.209   7.267
 4773POPC   NC361595  15.339  42.234   5.449
 4773POPC   PO461596  14.675  42.528   5.358
 4773POPC   GL161597  15.000  42.526   5.775
 4773POPC   GL261598  15.303  42.687   5.723
 4773POPC   C1A61599  14.973  42.331   6.202
 4773POPC   D2A61600  14.854  42.411   6.645
 4773POPC   C3A61601  14.995  42.124   6.959
 4773POPC   C4A61602  14.962  42.123   7.400
 4773POPC   C1B61603  15.295  42.720   6.182
 4773POPC   C2B61604  15.287  42.697   6.654
 4773POPC   C3B61605  15.131  42.614   7.105
 4773POPC   C4B61606  15.402  42.600   7.498
 4774POPC   NC361607   7.040  10.638   5.515
 4774POPC   PO461608   6.433  10.555   5.498
 4774POPC   GL161609   6.688  10.574   5.879
 4774POPC   GL261610   6.899  10.333   5.924
 4774POPC   C1A61611   6.769  10.617   6.336
 4774POPC   D2A61612   6.528  10.574   6.689
 4774POPC   C3A61613   6.701  10.537   7.092
 4774POPC   C4A61614   6.327  10.640   7.413
 4774POPC   C1B61615   6.514  10.199   6.167
 4774POPC   C2B61616   6.597  10.076   6.576
 4774POPC   C3B61617   6.418  10.120   6.953
 4774POPC   C4B61618   6.495  10.172   7.360
 4775POPC   NC361619  27.325  21.728   5.366
 4775POPC   PO461620  27.856  21.456   5.601
 4775POPC   GL161621  27.472  21.612   5.858
 4775POPC   GL261622  27.200  21.897   5.814
 4775POPC   C1A61623  27.364  21.392   6.236
 4775POPC   D2A61624  27.584  21.263   6.585
 4775POPC   C3A61625  27.626  21.373   6.981
 4775POPC   C4A61626  27.945  21.153   7.222
 4775POPC   C1B61627  27.088  21.807   6.209
 4775POPC   C2B61628  27.320  21.750   6.599
 4775POPC   C3B61629  27.282  21.860   6.995
 4775POPC   C4B61630  27.242  21.519   7.276
 4776POPC   NC361631  12.891  14.867   5.405
 4776POPC   PO461632  12.936  15.501   5.341
 4776POPC   GL161633  12.869  15.222   5.770
 4776POPC   GL261634  12.599  14.913   5.814
 4776POPC   C1A61635  13.072  15.071   6.170
 4776POPC   D2A61636  12.963  15.286   6.565
 4776POPC   C3A61637  13.032  15.078   6.972
 4776POPC   C4A61638  13.230  15.256   7.348
 4776POPC   C1B61639  12.574  15.053   6.242
 4776POPC   C2B61640  12.671  14.879   6.639
 4776POPC   C3B61641  12.505  15.034   7.046
 4776POPC   C4B61642  12.305  15.094   7.475
 4777POPC   NC361643  21.667  12.430   5.388
 4777POPC   PO461644  21.662  11.798   5.266
 4777POPC   GL161645  21.535  12.020   5.693
 4777POPC   GL261646  21.777  12.190   5.853
 4777POPC   C1A61647  21.241  12.054   6.069
 4777POPC   D2A61648  21.181  11.972   6.531
 4777POPC   C3A61649  21.241  12.257   6.899
 4777POPC   C4A61650  21.200  12.020   7.232
 4777POPC   C1B61651  21.754  12.007   6.249
 4777POPC   C2B61652  21.664  12.127   6.665
 4777POPC   C3B61653  21.700  12.041   7.108
 4777POPC   C4B61654  21.582  12.258   7.502
 4778POPC   NC361655  35.765  25.585   5.484
 4778POPC   PO461656  35.600  24.966   5.326
 4778POPC   GL161657  35.421  25.236   5.720
 4778POPC   GL261658  35.064  25.145   5.809
 4778POPC   C1A61659  35.423  25.216   6.209
 4778POPC   D2A61660  35.198  25.106   6.603
 4778POPC   C3A61661  35.293  25.252   7.026
 4778POPC   C4A61662  35.210  25.664   7.171
 4778POPC   C1B61663  35.066  24.816   6.163
 4778POPC   C2B61664  35.126  24.609   6.568
 4778POPC   C3B61665  34.974  24.825   6.967
 4778POPC   C4B61666  34.991  24.992   7.398
 4779POPC   NC361667  44.553  12.526   5.600
 4779POPC   PO461668  44.728  13.177   5.451
 4779POPC   GL161669  44.638  12.984   5.838
 4779POPC   GL261670  44.912  12.816   5.874
 4779POPC   C1A61671  44.682  13.018   6.297
 4779POPC   D2A61672  44.641  13.074   6.739
 4779POPC   C3A61673  44.386  12.832   6.993
 4779POPC   C4A61674  44.377  12.807   7.428
 4779POPC   C1B61675  44.996  12.613   6.259
 4779POPC   C2B61676   0.096  12.780   6.667
 4779POPC   C3B61677  44.947  12.846   7.091
 4779POPC   C4B61678  44.840  12.635   7.488
 4780POPC   NC361679  43.612  37.938   5.088
 4780POPC   PO461680  44.170  37.879   5.465
 4780POPC   GL161681  44.084  37.592   5.796
 4780POPC   GL261682  43.751  37.414   5.812
 4780POPC   C1A61683  43.962  37.670   6.238
 4780POPC   D2A61684  43.761  37.546   6.643
 4780POPC   C3A61685  43.971  37.722   7.008
 4780POPC   C4A61686  43.940  37.727   7.457
 4780POPC   C1B61687  43.472  37.597   6.142
 4780POPC   C2B61688  43.381  37.918   6.447
 4780POPC   C3B61689  43.442  37.935   6.874
 4780POPC   C4B61690  43.510  37.603   7.169
 4781POPC   NC361691  14.852  28.453   5.586
 4781POPC   PO461692  15.413  28.122   5.244
 4781POPC   GL161693  15.305  28.222   5.706
 4781POPC   GL261694  15.416  28.541   5.874
 4781POPC   C1A61695  15.189  28.152   6.162
 4781POPC   D2A61696  14.831  28.153   6.483
 4781POPC   C3A61697  14.936  28.214   6.928
 4781POPC   C4A61698  14.983  28.237   7.375
 4781POPC   C1B61699  15.120  28.667   6.216
 4781POPC   C2B61700  15.001  28.664   6.657
 4781POPC   C3B61701  15.233  28.628   7.060
 4781POPC   C4B61702  15.405  28.540   7.475
 4782POPC   NC361703   5.118   3.129   5.359
 4782POPC   PO461704   5.036   3.767   5.388
 4782POPC   GL161705   5.231   3.494   5.697
 4782POPC   GL261706   4.938   3.303   5.817
 4782POPC   C1A61707   5.398   3.332   6.106
 4782POPC   D2A61708   5.471   3.537   6.526
 4782POPC   C3A61709   5.316   3.345   6.900
 4782POPC   C4A61710   4.984   3.178   7.148
 4782POPC   C1B61711   5.025   3.669   6.142
 4782POPC   C2B61712   5.040   3.807   6.590
 4782POPC   C3B61713   5.034   3.747   7.039
 4782POPC   C4B61714   4.729   3.738   7.378
 4783POPC   NC361715   5.383  27.076   5.205
 4783POPC   PO461716   4.961  26.653   4.996
 4783POPC   GL161717   5.120  26.717   5.496
 4783POPC   GL261718   5.181  27.038   5.663
 4783POPC   C1A61719   5.014  26.716   6.018
 4783POPC   D2A61720   4.807  26.848   6.438
 4783POPC   C3A61721   5.014  26.848   6.874
 4783POPC   C4A61722   4.838  26.923   7.269
 4783POPC   C1B61723   5.385  27.077   6.069
 4783POPC   C2B61724   5.327  27.002   6.499
 4783POPC   C3B61725   5.517  27.023   6.916
 4783POPC   C4B61726   5.341  26.966   7.311
 4784POPC   NC361727   7.180   4.553   5.494
 4784POPC   PO461728   7.367   3.970   5.545
 4784POPC   GL161729   7.318   4.232   5.899
 4784POPC   GL261730   6.978   4.281   5.911
 4784POPC   C1A61731   7.410   4.287   6.370
 4784POPC   D2A61732   7.655   4.185   6.747
 4784POPC   C3A61733   7.540   4.299   7.187
 4784POPC   C4A61734   7.777   4.265   7.584
 4784POPC   C1B61735   7.095   4.616   6.146
 4784POPC   C2B61736   7.077   4.691   6.535
 4784POPC   C3B61737   7.149   4.529   6.906
 4784POPC   C4B61738   7.017   4.536   7.317
 4785POPC   NC361739  23.762  42.696   5.265
 4785POPC   PO461740  23.603  42.045   5.374
 4785POPC   GL161741  23.648  42.256   5.756
 4785POPC   GL261742  24.004  42.326   5.756
 4785POPC   C1A61743  23.457  42.329   6.160
 4785POPC   D2A61744  23.590  42.531   6.549
 4785POPC   C3A61745  23.734  42.440   6.974
 4785POPC   C4A61746  23.608  42.710   7.312
 4785POPC   C1B61747  23.957  42.089   6.148
 4785POPC   C2B61748  24.078  42.024   6.573
 4785POPC   C3B61749  23.972  41.936   6.995
 4785POPC   C4B61750  24.128  42.221   7.273
 4786POPC   NC361751   8.895  37.088   5.388
 4786POPC   PO461752   8.776  36.458   5.478
 4786POPC   GL161753   8.938  36.617   5.905
 4786POPC   GL261754   9.050  36.923   5.844
 4786POPC   C1A61755   9.266  36.792   6.258
 4786POPC   D2A61756   9.201  36.960   6.662
 4786POPC   C3A61757   8.954  36.639   6.823
 4786POPC   C4A61758   8.823  36.496   7.216
 4786POPC   C1B61759   8.817  37.066   6.264
 4786POPC   C2B61760   8.749  37.227   6.713
 4786POPC   C3B61761   8.836  37.029   7.139
 4786POPC   C4B61762   9.037  37.063   7.561
 4787POPC   NC361763   7.158  22.268   5.474
 4787POPC   PO461764   7.752  21.982   5.235
 4787POPC   GL161765   7.696  22.077   5.743
 4787POPC   GL261766   7.393  22.214   5.918
 4787POPC   C1A61767   7.772  22.203   6.240
 4787POPC   D2A61768   7.489  22.303   6.613
 4787POPC   C3A61769   7.577  22.146   7.028
 4787POPC   C4A61770   7.551  22.240   7.485
 4787POPC   C1B61771   7.258  21.965   6.310
 4787POPC   C2B61772   7.228  21.845   6.755
 4787POPC   C3B61773   7.116  22.019   7.162
 4787POPC   C4B61774   7.064  22.164   7.576
 4788POPC   NC361775  26.088  29.269   5.303
 4788POPC   PO461776  26.128  28.647   5.527
 4788POPC   GL161777  26.092  29.039   5.771
 4788POPC   GL261778  25.735  29.056   5.877
 4788POPC   C1A61779  26.204  29.128   6.211
 4788POPC   D2A61780  25.991  29.129   6.625
 4788POPC   C3A61781  26.242  29.134   6.987
 4788POPC   C4A61782  26.639  28.917   7.077
 4788POPC   C1B61783  25.759  29.380   6.209
 4788POPC   C2B61784  25.669  29.542   6.618
 4788POPC   C3B61785  25.816  29.473   7.017
 4788POPC   C4B61786  25.787  29.121   7.254
 4789POPC   NC361787   7.544   9.581   5.556
 4789POPC   PO461788   7.149  10.186   5.508
 4789POPC   GL161789   7.326   9.889   5.899
 4789POPC   GL261790   7.658   9.631   6.060
 4789POPC   C1A61791   7.202   9.523   6.188
 4789POPC   D2A61792   7.400   9.479   6.604
 4789POPC   C3A61793   7.137   9.507   6.987
 4789POPC   C4A61794   6.801   9.246   7.185
 4789POPC   C1B61795   7.539   9.972   6.365
 4789POPC   C2B61796   7.577  10.008   6.819
 4789POPC   C3B61797   7.667   9.622   7.023
 4789POPC   C4B61798   7.609   9.465   7.387
 4790POPC   NC361799  19.511  20.555   5.477
 4790POPC   PO461800  18.963  20.189   5.418
 4790POPC   GL161801  19.048  20.492   5.774
 4790POPC   GL261802  19.232  20.800   5.830
 4790POPC   C1A61803  18.903  20.638   6.201
 4790POPC   D2A61804  19.033  20.723   6.618
 4790POPC   C3A61805  18.926  20.490   6.981
 4790POPC   C4A61806  19.219  20.346   7.279
 4790POPC   C1B61807  19.349  20.931   6.252
 4790POPC   C2B61808  19.507  20.884   6.684
 4790POPC   C3B61809  19.247  20.875   7.081
 4790POPC   C4B61810  19.114  21.050   7.490
 4791POPC   NC361811  29.205  23.459   5.358
 4791POPC   PO461812  28.951  24.089   5.115
 4791POPC   GL161813  29.223  23.985   5.570
 4791POPC   GL261814  29.060  23.719   5.762
 4791POPC   C1A61815  29.419  23.914   6.064
 4791POPC   D2A61816  29.463  23.919   6.545
 4791POPC   C3A61817  29.400  23.679   6.939
 4791POPC   C4A61818  29.248  23.770   7.378
 4791POPC   C1B61819  29.111  23.516   6.168
 4791POPC   C2B61820  29.017  23.581   6.618
 4791POPC   C3B61821  28.976  23.413   7.042
 4791POPC   C4B61822  28.775  23.587   7.388
 4792POPC   NC361823  17.028  42.891   5.441
 4792POPC   PO461824  17.593  43.214   5.295
 4792POPC   GL161825  17.353  43.244   5.730
 4792POPC   GL261826  17.324  42.886   5.845
 4792POPC   C1A61827  17.465  43.281   6.208
 4792POPC   D2A61828  17.698  42.991   6.538
 4792POPC   C3A61829  17.747  43.097   6.986
 4792POPC   C4A61830  17.453  43.258   7.313
 4792POPC   C1B61831  17.107  42.907   6.225
 4792POPC   C2B61832  17.213  42.780   6.635
 4792POPC   C3B61833  17.152  42.994   7.008
 4792POPC   C4B61834  17.091  42.893   7.453
 4793POPC   NC361835  22.932  32.474   5.477
 4793POPC   PO461836  22.788  31.846   5.296
 4793POPC   GL161837  22.629  32.079   5.678
 4793POPC   GL261838  22.825  32.277   5.918
 4793POPC   C1A61839  22.479  32.017   6.149
 4793POPC   D2A61840  22.806  32.185   6.450
 4793POPC   C3A61841  22.851  32.183   6.914
 4793POPC   C4A61842  22.974  32.532   7.182
 4793POPC   C1B61843  23.171  32.423   6.149
 4793POPC   C2B61844  23.343  32.246   6.475
 4793POPC   C3B61845  23.386  32.215   6.863
 4793POPC   C4B61846  23.348  32.210   7.280
 4794POPC   NC361847  34.145  33.681   5.446
 4794POPC   PO461848  33.538  34.048   5.346
 4794POPC   GL161849  33.764  33.918   5.730
 4794POPC   GL261850  33.769  33.556   5.753
 4794POPC   C1A61851  33.772  34.008   6.183
 4794POPC   D2A61852  33.516  33.975   6.556
 4794POPC   C3A61853  33.739  34.024   6.944
 4794POPC   C4A61854  33.838  33.962   7.358
 4794POPC   C1B61855  33.940  33.518   6.178
 4794POPC   C2B61856  33.958  33.696   6.616
 4794POPC   C3B61857  33.914  33.531   7.050
 4794POPC   C4B61858  33.931  33.513   7.539
 4795POPC   NC361859  30.440  11.413   5.636
 4795POPC   PO461860  30.811  10.884   5.424
 4795POPC   GL161861  30.813  11.130   5.810
 4795POPC   GL261862  30.960  11.452   5.725
 4795POPC   C1A61863  30.743  11.234   6.241
 4795POPC   D2A61864  30.464  11.128   6.586
 4795POPC   C3A61865  30.639  11.147   6.993
 4795POPC   C4A61866  30.425  11.432   7.263
 4795POPC   C1B61867  31.204  11.430   6.112
 4795POPC   C2B61868  31.020  11.564   6.553
 4795POPC   C3B61869  31.012  11.525   7.026
 4795POPC   C4B61870  30.788  11.766   7.351
 4796POPC   NC361871  21.873  17.491   5.405
 4796POPC   PO461872  22.501  17.570   5.503
 4796POPC   GL161873  22.201  17.481   5.817
 4796POPC   GL261874  21.900  17.731   5.848
 4796POPC   C1A61875  22.156  17.232   6.176
 4796POPC   D2A61876  22.026  17.318   6.573
 4796POPC   C3A61877  22.276  17.373   6.909
 4796POPC   C4A61878  22.096  17.293   7.237
 4796POPC   C1B61879  22.066  17.752   6.258
 4796POPC   C2B61880  21.995  17.807   6.700
 4796POPC   C3B61881  22.120  17.829   7.118
 4796POPC   C4B61882  22.477  17.734   7.372
 4797POPC   NC361883   9.478  24.456   5.401
 4797POPC   PO461884  10.164  24.291   5.512
 4797POPC   GL161885   9.783  24.387   5.801
 4797POPC   GL261886   9.441  24.241   5.858
 4797POPC   C1A61887   9.615  24.587   6.200
 4797POPC   D2A61888   9.668  24.775   6.659
 4797POPC   C3A61889   9.576  24.503   7.019
 4797POPC   C4A61890   9.701  24.487   7.449
 4797POPC   C1B61891   9.659  24.084   6.219
 4797POPC   C2B61892   9.816  24.280   6.603
 4797POPC   C3B61893   9.906  24.117   7.036
 4797POPC   C4B61894   9.532  24.018   7.332
 4798POPC   NC361895   5.991  19.052   5.357
 4798POPC   PO461896   5.554  19.516   5.506
 4798POPC   GL161897   5.795  19.269   5.775
 4798POPC   GL261898   5.630  18.931   5.689
 4798POPC   C1A61899   6.002  19.223   6.172
 4798POPC   D2A61900   6.037  19.377   6.563
 4798POPC   C3A61901   6.046  19.142   6.956
 4798POPC   C4A61902   5.840  19.118   7.329
 4798POPC   C1B61903   5.675  18.823   6.108
 4798POPC   C2B61904   5.813  18.904   6.530
 4798POPC   C3B61905   5.753  18.677   6.920
 4798POPC   C4B61906   5.983  18.651   7.261
 4799POPC   NC361907  25.682  19.660   5.414
 4799POPC   PO461908  26.292  19.928   5.394
 4799POPC   GL161909  26.276  20.010   5.868
 4799POPC   GL261910  26.270  19.672   5.916
 4799POPC   C1A61911  26.175  19.953   6.370
 4799POPC   D2A61912  25.952  19.607   6.708
 4799POPC   C3A61913  25.903  19.617   7.160
 4799POPC   C4A61914  26.125  19.864   7.480
 4799POPC   C1B61915  26.184  19.458   6.264
 4799POPC   C2B61916  26.442  19.521   6.634
 4799POPC   C3B61917  26.378  19.711   7.041
 4799POPC   C4B61918  26.383  19.437   7.438
 4800POPC   NC361919   0.202  33.889   5.297
 4800POPC   PO461920   0.806  33.678   5.339
 4800POPC   GL161921   0.629  33.712   5.740
 4800POPC   GL261922   0.596  34.058   5.815
 4800POPC   C1A61923   0.761  33.718   6.193
 4800POPC   D2A61924   0.706  33.508   6.599
 4800POPC   C3A61925   0.459  33.642   6.966
 4800POPC   C4A61926   0.569  33.931   7.264
 4800POPC   C1B61927   0.308  33.951   6.136
 4800POPC   C2B61928   0.374  34.010   6.598
 4800POPC   C3B61929   0.139  34.124   6.990
 4800POPC   C4B61930   0.096  33.870   7.382
 4801POPC   NC361931  24.116   3.488   5.504
 4801POPC   PO461932  23.503   3.293   5.279
 4801POPC   GL161933  23.689   3.694   5.640
 4801POPC   GL261934  23.424   3.834   5.914
 4801POPC   C1A61935  23.886   3.693   6.107
 4801POPC   D2A61936  23.717   3.515   6.513
 4801POPC   C3A61937  23.883   3.649   6.902
 4801POPC   C4A61938  23.906   3.736   7.314
 4801POPC   C1B61939  23.271   3.730   6.329
 4801POPC   C2B61940  23.247   3.721   6.763
 4801POPC   C3B61941  23.418   3.785   7.148
 4801POPC   C4B61942  23.472   3.510   7.487
 4802POPC   NC361943   0.782  16.558   5.404
 4802POPC   PO461944   1.426  16.704   5.406
 4802POPC   GL161945   1.323  16.743   5.804
 4802POPC   GL261946   1.550  17.001   5.825
 4802POPC   C1A61947   1.514  16.565   6.157
 4802POPC   D2A61948   1.500  16.358   6.555
 4802POPC   C3A61949   1.277  16.646   6.829
 4802POPC   C4A61950   0.912  16.781   7.030
 4802POPC   C1B61951   1.364  17.111   6.204
 4802POPC   C2B61952   1.110  17.077   6.577
 4802POPC   C3B61953   1.252  17.139   6.999
 4802POPC   C4B61954   1.463  17.031   7.369
 4803POPC   NC361955  16.191  26.993   5.357
 4803POPC   PO461956  15.634  26.528   5.431
 4803POPC   GL161957  15.899  26.781   5.733
 4803POPC   GL261958  16.042  27.133   5.847
 4803POPC   C1A61959  16.130  26.708   6.116
 4803POPC   D2A61960  15.933  26.751   6.528
 4803POPC   C3A61961  15.929  26.929   6.932
 4803POPC   C4A61962  15.548  27.130   7.036
 4803POPC   C1B61963  16.256  27.211   6.277
 4803POPC   C2B61964  16.338  27.198   6.745
 4803POPC   C3B61965  16.384  27.288   7.194
 4803POPC   C4B61966  16.464  27.204   7.665
 4804POPC   NC361967  37.165  19.055   5.605
 4804POPC   PO461968  36.685  19.563   5.604
 4804POPC   GL161969  36.713  19.130   5.933
 4804POPC   GL261970  36.952  18.836   6.043
 4804POPC   C1A61971  36.732  19.024   6.441
 4804POPC   D2A61972  37.026  19.048   6.797
 4804POPC   C3A61973  36.858  18.964   7.216
 4804POPC   C4A61974  36.811  19.151   7.617
 4804POPC   C1B61975  37.230  18.700   6.356
 4804POPC   C2B61976  37.428  18.679   6.754
 4804POPC   C3B61977  37.359  18.831   7.180
 4804POPC   C4B61978  37.188  18.829   7.620
 4805POPC   NC361979  40.753  32.453   5.226
 4805POPC   PO461980  41.312  32.039   5.405
 4805POPC   GL161981  40.915  32.152   5.682
 4805POPC   GL261982  40.740  32.503   5.724
 4805POPC   C1A61983  40.685  32.192   6.114
 4805POPC   D2A61984  40.835  32.144   6.542
 4805POPC   C3A61985  40.597  32.215   6.936
 4805POPC   C4A61986  40.819  32.002   7.264
 4805POPC   C1B61987  40.718  32.704   6.130
 4805POPC   C2B61988  40.630  32.602   6.534
 4805POPC   C3B61989  40.798  32.702   6.915
 4805POPC   C4B61990  40.511  32.808   7.214
 4806POPC   NC361991   2.768  39.769   5.349
 4806POPC   PO461992   2.483  40.381   5.430
 4806POPC   GL161993   2.524  40.045   5.715
 4806POPC   GL261994   2.871  39.940   5.814
 4806POPC   C1A61995   2.546  40.029   6.175
 4806POPC   D2A61996   2.839  39.983   6.529
 4806POPC   C3A61997   2.634  39.992   6.905
 4806POPC   C4A61998   2.588  40.152   7.295
 4806POPC   C1B61999   2.921  39.622   6.164
 4806POPC   C2B62000   3.194  39.631   6.569
 4806POPC   C3B62001   2.964  39.620   6.950
 4806POPC   C4B62002   2.895  39.750   7.390
 4807POPC   NC362003  42.485  29.582   5.540
 4807POPC   PO462004  42.423  28.965   5.497
 4807POPC   GL162005  42.419  29.177   5.868
 4807POPC   GL262006  42.063  29.215   5.862
 4807POPC   C1A62007  42.549  29.228   6.286
 4807POPC   D2A62008  42.405  29.030   6.675
 4807POPC   C3A62009  42.600  29.183   7.025
 4807POPC   C4A62010  42.418  29.179   7.440
 4807POPC   C1B62011  42.100  28.975   6.250
 4807POPC   C2B62012  41.912  29.118   6.632
 4807POPC   C3B62013  42.060  29.263   7.073
 4807POPC   C4B62014  42.024  29.500   7.507
 4808POPC   NC362015   7.737   3.695   5.430
 4808POPC   PO462016   7.142   3.468   5.158
 4808POPC   GL162017   7.039   3.458   5.638
 4808POPC   GL262018   6.983   3.762   5.831
 4808POPC   C1A62019   7.163   3.331   6.076
 4808POPC   D2A62020   7.454   3.393   6.407
 4808POPC   C3A62021   7.415   3.414   6.868
 4808POPC   C4A62022   7.571   3.782   7.093
 4808POPC   C1B62023   7.255   3.825   6.189
 4808POPC   C2B62024   7.288   3.840   6.633
 4808POPC   C3B62025   7.122   4.033   6.983
 4808POPC   C4B62026   7.122   4.058   7.439
 4809POPC   NC362027  36.923  11.695   5.512
 4809POPC   PO462028  37.160  12.323   5.414
 4809POPC   GL162029  36.987  12.185   5.831
 4809POPC   GL262030  36.720  11.943   6.010
 4809POPC   C1A62031  37.059  12.254   6.265
 4809POPC   D2A62032  36.902  12.238   6.664
 4809POPC   C3A62033  37.153  12.171   6.987
 4809POPC   C4A62034  37.158  11.778   7.184
 4809POPC   C1B62035  36.486  12.231   6.332
 4809POPC   C2B62036  36.418  12.283   6.810
 4809POPC   C3B62037  36.681  12.277   7.206
 4809POPC   C4B62038  36.637  12.479   7.658
 4810POPC   NC362039   0.968  39.797   5.427
 4810POPC   PO462040   0.366  39.975   5.273
 4810POPC   GL162041   0.341  40.036   5.724
 4810POPC   GL262042   0.637  39.942   5.821
 4810POPC   C1A62043   0.356  40.280   6.117
 4810POPC   D2A62044   0.467  40.106   6.506
 4810POPC   C3A62045   0.447  40.289   6.874
 4810POPC   C4A62046   0.287  40.247   7.281
 4810POPC   C1B62047   0.681  39.735   6.249
 4810POPC   C2B62048   0.538  39.632   6.701
 4810POPC   C3B62049   0.670  39.624   7.154
 4810POPC   C4B62050   0.843  39.778   7.530
 4811POPC   NC362051  24.568  31.357   5.479
 4811POPC   PO462052  24.156  31.996   5.571
 4811POPC   GL162053  24.291  31.640   5.802
 4811POPC   GL262054  24.648  31.712   5.867
 4811POPC   C1A62055  24.376  31.271   6.102
 4811POPC   D2A62056  24.310  31.390   6.526
 4811POPC   C3A62057  24.434  31.212   6.921
 4811POPC   C4A62058  24.321  31.442   7.290
 4811POPC   C1B62059  24.779  31.559   6.278
 4811POPC   C2B62060  24.796  31.527   6.730
 4811POPC   C3B62061  24.716  31.703   7.121
 4811POPC   C4B62062  24.782  31.550   7.560
 4812POPC   NC362063   7.059  19.149   5.569
 4812POPC   PO462064   6.426  19.169   5.430
 4812POPC   GL162065   6.621  19.157   5.831
 4812POPC   GL262066   6.657  18.850   5.935
 4812POPC   C1A62067   6.521  19.229   6.260
 4812POPC   D2A62068   6.416  19.032   6.629
 4812POPC   C3A62069   6.608  19.135   7.020
 4812POPC   C4A62070   6.762  19.471   7.241
 4812POPC   C1B62071   6.976  18.978   6.235
 4812POPC   C2B62072   7.006  18.934   6.683
 4812POPC   C3B62073   7.041  18.713   7.088
 4812POPC   C4B62074   7.086  18.853   7.519
 4813POPC   NC362075  11.822  18.469   5.418
 4813POPC   PO462076  12.472  18.622   5.337
 4813POPC   GL162077  12.262  18.529   5.727
 4813POPC   GL262078  12.140  18.186   5.714
 4813POPC   C1A62079  12.329  18.703   6.154
 4813POPC   D2A62080  12.420  18.556   6.606
 4813POPC   C3A62081  12.242  18.524   7.047
 4813POPC   C4A62082  12.053  18.723   7.413
 4813POPC   C1B62083  12.236  18.212   6.157
 4813POPC   C2B62084  12.281  18.055   6.581
 4813POPC   C3B62085  12.086  17.972   7.009
 4813POPC   C4B62086  11.890  17.967   7.432
 4814POPC   NC362087  17.508  14.202   5.459
 4814POPC   PO462088  17.166  14.846   5.316
 4814POPC   GL162089  17.359  14.656   5.650
 4814POPC   GL262090  17.087  14.456   5.728
 4814POPC   C1A62091  17.537  14.661   6.083
 4814POPC   D2A62092  17.660  14.374   6.440
 4814POPC   C3A62093  17.731  14.501   6.883
 4814POPC   C4A62094  17.501  14.483   7.261
 4814POPC   C1B62095  17.257  14.228   6.078
 4814POPC   C2B62096  17.312  13.980   6.447
 4814POPC   C3B62097  17.394  14.095   6.857
 4814POPC   C4B62098  17.109  14.099   7.182
 4815POPC   NC362099  30.976   5.493   5.338
 4815POPC   PO462100  31.709   5.106   5.328
 4815POPC   GL162101  31.482   5.150   5.746
 4815POPC   GL262102  31.213   5.422   5.781
 4815POPC   C1A62103  31.482   4.888   6.129
 4815POPC   D2A62104  31.716   4.932   6.503
 4815POPC   C3A62105  31.588   4.861   6.926
 4815POPC   C4A62106  31.770   5.043   7.296
 4815POPC   C1B62107  31.281   5.346   6.213
 4815POPC   C2B62108  31.254   5.143   6.628
 4815POPC   C3B62109  31.364   5.319   7.055
 4815POPC   C4B62110  31.269   5.604   7.412
 4816POPC   NC362111  37.548   8.842   5.244
 4816POPC   PO462112  37.464   9.370   5.632
 4816POPC   GL162113  37.544   9.044   5.883
 4816POPC   GL262114  37.749   8.835   5.719
 4816POPC   C1A62115  37.561   8.988   6.320
 4816POPC   D2A62116  37.512   8.788   6.677
 4816POPC   C3A62117  37.635   9.067   7.014
 4816POPC   C4A62118  37.448   9.141   7.399
 4816POPC   C1B62119  37.970   8.817   6.122
 4816POPC   C2B62120  38.035   8.794   6.553
 4816POPC   C3B62121  37.914   8.632   6.947
 4816POPC   C4B62122  37.899   8.769   7.351
 4817POPC   NC362123  30.911  13.880   5.539
 4817POPC   PO462124  30.524  14.441   5.517
 4817POPC   GL162125  30.881  14.479   5.796
 4817POPC   GL262126  30.922  14.200   5.915
 4817POPC   C1A62127  30.805  14.549   6.267
 4817POPC   D2A62128  30.473  14.414   6.558
 4817POPC   C3A62129  30.554  14.488   7.003
 4817POPC   C4A62130  30.679  14.377   7.416
 4817POPC   C1B62131  31.016  14.064   6.272
 4817POPC   C2B62132  30.837  14.082   6.681
 4817POPC   C3B62133  30.998  14.206   7.047
 4817POPC   C4B62134  31.039  14.031   7.419
 4818POPC   NC362135  27.200  31.283   5.393
 4818POPC   PO462136  26.544  31.545   5.498
 4818POPC   GL162137  26.576  31.346   5.851
 4818POPC   GL262138  26.935  31.416   5.850
 4818POPC   C1A62139  26.666  31.418   6.279
 4818POPC   D2A62140  26.596  31.676   6.625
 4818POPC   C3A62141  26.758  31.474   6.988
 4818POPC   C4A62142  26.556  31.412   7.359
 4818POPC   C1B62143  27.073  31.751   6.181
 4818POPC   C2B62144  27.000  31.991   6.585
 4818POPC   C3B62145  27.062  31.909   7.052
 4818POPC   C4B62146  27.006  31.639   7.433
 4819POPC   NC362147  35.009  31.473   5.340
 4819POPC   PO462148  34.352  31.672   5.355
 4819POPC   GL162149  34.625  31.497   5.703
 4819POPC   GL262150  34.842  31.761   5.802
 4819POPC   C1A62151  34.537  31.416   6.164
 4819POPC   D2A62152  34.265  31.590   6.527
 4819POPC   C3A62153  34.315  31.649   6.989
 4819POPC   C4A62154  34.626  31.520   7.297
 4819POPC   C1B62155  35.010  31.690   6.209
 4819POPC   C2B62156  34.803  31.545   6.579
 4819POPC   C3B62157  34.966  31.407   6.928
 4819POPC   C4B62158  35.096  31.645   7.244
 4820POPC   NC362159  20.181  20.269   5.401
 4820POPC   PO462160  19.883  20.850   5.529
 4820POPC   GL162161  19.891  20.471   5.802
 4820POPC   GL262162  19.663  20.594   6.005
 4820POPC   C1A62163  20.018  20.323   6.242
 4820POPC   D2A62164  19.982  20.549   6.649
 4820POPC   C3A62165  20.110  20.343   7.046
 4820POPC   C4A62166  20.000  20.516   7.457
 4820POPC   C1B62167  19.377  20.412   6.300
 4820POPC   C2B62168  19.424  20.359   6.761
 4820POPC   C3B62169  19.662  20.591   7.079
 4820POPC   C4B62170  19.560  20.766   7.482
 4821POPC   NC362171  10.321  39.155   5.460
 4821POPC   PO462172  10.801  39.630   5.438
 4821POPC   GL162173  10.526  39.494   5.801
 4821POPC   GL262174  10.594  39.131   5.903
 4821POPC   C1A62175  10.405  39.462   6.251
 4821POPC   D2A62176  10.544  39.224   6.637
 4821POPC   C3A62177  10.497  39.442   7.048
 4821POPC   C4A62178  10.580  39.434   7.490
 4821POPC   C1B62179  10.280  38.955   6.224
 4821POPC   C2B62180  10.204  38.819   6.683
 4821POPC   C3B62181  10.403  38.922   7.103
 4821POPC   C4B62182  10.372  38.615   7.463
 4822POPC   NC362183   7.597  13.098   5.338
 4822POPC   PO462184   7.250  12.510   5.228
 4822POPC   GL162185   7.264  12.702   5.673
 4822POPC   GL262186   7.566  12.763   5.834
 4822POPC   C1A62187   7.172  12.839   6.132
 4822POPC   D2A62188   7.203  12.644   6.515
 4822POPC   C3A62189   7.343  12.853   6.863
 4822POPC   C4A62190   7.221  12.819   7.265
 4822POPC   C1B62191   7.797  12.688   6.163
 4822POPC   C2B62192   7.722  12.804   6.520
 4822POPC   C3B62193   7.865  12.687   6.878
 4822POPC   C4B62194   7.721  12.715   7.253
 4823POPC   NC362195  36.848  13.491   5.280
 4823POPC   PO462196  37.331  13.979   5.122
 4823POPC   GL162197  37.222  13.688   5.586
 4823POPC   GL262198  36.955  13.494   5.770
 4823POPC   C1A62199  37.169  13.802   6.098
 4823POPC   D2A62200  36.928  13.873   6.478
 4823POPC   C3A62201  37.028  13.603   6.814
 4823POPC   C4A62202  36.936  13.646   7.230
 4823POPC   C1B62203  36.889  13.338   6.196
 4823POPC   C2B62204  36.884  13.145   6.622
 4823POPC   C3B62205  36.632  13.208   6.999
 4823POPC   C4B62206  36.693  13.257   7.459
 4824POPC   NC362207  13.048  35.395   5.439
 4824POPC   PO462208  12.421  35.670   5.523
 4824POPC   GL162209  12.638  35.362   5.802
 4824POPC   GL262210  12.939  35.522   5.945
 4824POPC   C1A62211  12.612  35.262   6.256
 4824POPC   D2A62212  12.725  35.453   6.670
 4824POPC   C3A62213  12.738  35.269   7.085
 4824POPC   C4A62214  12.483  35.189   7.430
 4824POPC   C1B62215  13.116  35.293   6.327
 4824POPC   C2B62216  13.147  35.160   6.780
 4824POPC   C3B62217  13.232  35.216   7.241
 4824POPC   C4B62218  13.289  35.273   7.722
 4825POPC   NC362219  38.571  44.524   5.467
 4825POPC   PO462220  38.606   0.158   5.510
 4825POPC   GL162221  38.477  44.845   5.840
 4825POPC   GL262222  38.701  44.520   5.962
 4825POPC   C1A62223  38.280  44.676   6.182
 4825POPC   D2A62224  38.498  44.605   6.534
 4825POPC   C3A62225  38.225  44.511   6.851
 4825POPC   C4A62226  38.022  44.577   7.219
 4825POPC   C1B62227  38.440  44.200   6.218
 4825POPC   C2B62228  38.480  44.107   6.629
 4825POPC   C3B62229  38.742  44.343   6.910
 4825POPC   C4B62230  38.801  44.333   7.336
 4826POPC   NC362231  14.473   9.975   5.145
 4826POPC   PO462232  14.137   9.446   5.356
 4826POPC   GL162233  14.117   9.768   5.731
 4826POPC   GL262234  14.434   9.962   5.712
 4826POPC   C1A62235  14.102   9.990   6.172
 4826POPC   D2A62236  14.059   9.979   6.650
 4826POPC   C3A62237  14.205   9.670   6.985
 4826POPC   C4A62238  14.344   9.575   7.423
 4826POPC   C1B62239  14.601   9.903   6.175
 4826POPC   C2B62240  14.577   9.895   6.669
 4826POPC   C3B62241  14.691   9.818   7.139
 4826POPC   C4B62242  14.849   9.544   7.531
 4827POPC   NC362243  31.880  20.236   5.491
 4827POPC   PO462244  32.484  19.870   5.311
 4827POPC   GL162245  32.388  19.721   5.695
 4827POPC   GL262246  32.717  19.527   5.672
 4827POPC   C1A62247  32.252  19.836   6.110
 4827POPC   D2A62248  32.173  19.788   6.548
 4827POPC   C3A62249  32.335  19.859   6.910
 4827POPC   C4A62250  32.146  19.731   7.261
 4827POPC   C1B62251  32.738  19.677   6.071
 4827POPC   C2B62252  32.684  19.760   6.477
 4827POPC   C3B62253  32.805  19.639   6.861
 4827POPC   C4B62254  32.686  19.761   7.282
 4828POPC   NC362255  37.730  37.838   5.388
 4828POPC   PO462256  37.085  37.685   5.295
 4828POPC   GL162257  37.321  37.616   5.722
 4828POPC   GL262258  37.661  37.460   5.742
 4828POPC   C1A62259  37.506  37.801   6.149
 4828POPC   D2A62260  37.737  37.806   6.578
 4828POPC   C3A62261  37.625  37.563   6.987
 4828POPC   C4A62262  37.477  37.864   7.311
 4828POPC   C1B62263  37.976  37.624   6.090
 4828POPC   C2B62264  38.215  37.671   6.471
 4828POPC   C3B62265  38.127  37.608   6.902
 4828POPC   C4B62266  37.954  37.915   7.135
 4829POPC   NC362267  24.030  40.230   5.569
 4829POPC   PO462268  24.657  40.034   5.465
 4829POPC   GL162269  24.547  39.718   5.807
 4829POPC   GL262270  24.186  39.618   5.767
 4829POPC   C1A62271  24.673  39.810   6.241
 4829POPC   D2A62272  24.665  40.166   6.546
 4829POPC   C3A62273  24.627  40.002   6.956
 4829POPC   C4A62274  24.826  39.648   7.147
 4829POPC   C1B62275  24.182  39.856   6.151
 4829POPC   C2B62276  24.219  39.903   6.599
 4829POPC   C3B62277  24.138  39.874   7.033
 4829POPC   C4B62278  24.195  40.254   7.287
 4830POPC   NC362279  38.198  21.854   5.452
 4830POPC   PO462280  38.678  22.233   5.541
 4830POPC   GL162281  38.404  22.170   5.943
 4830POPC   GL262282  38.135  21.888   5.937
 4830POPC   C1A62283  38.335  22.395   6.380
 4830POPC   D2A62284  38.216  22.475   6.838
 4830POPC   C3A62285  38.365  22.237   7.223
 4830POPC   C4A62286  38.441  22.352   7.641
 4830POPC   C1B62287  38.058  21.968   6.333
 4830POPC   C2B62288  38.199  21.770   6.690
 4830POPC   C3B62289  37.988  22.022   6.966
 4830POPC   C4B62290  37.903  22.082   7.403
 4831POPC   NC362291  10.953  22.779   5.392
 4831POPC   PO462292  11.560  22.988   5.258
 4831POPC   GL162293  11.421  22.954   5.708
 4831POPC   GL262294  11.257  22.647   5.815
 4831POPC   C1A62295  11.551  22.895   6.158
 4831POPC   D2A62296  11.709  23.157   6.521
 4831POPC   C3A62297  11.682  22.976   6.918
 4831POPC   C4A62298  11.655  23.165   7.314
 4831POPC   C1B62299  11.092  22.679   6.262
 4831POPC   C2B62300  11.200  23.021   6.540
 4831POPC   C3B62301  11.223  23.147   6.947
 4831POPC   C4B62302  11.270  22.870   7.304
 4832POPC   NC362303  19.006  32.319   5.441
 4832POPC   PO462304  19.583  31.954   5.602
 4832POPC   GL162305  19.222  32.059   5.891
 4832POPC   GL262306  18.845  32.135   5.894
 4832POPC   C1A62307  19.125  32.336   6.263
 4832POPC   D2A62308  18.875  32.446   6.629
 4832POPC   C3A62309  19.034  32.399   7.043
 4832POPC   C4A62310  19.065  32.107   7.340
 4832POPC   C1B62311  18.685  32.054   6.319
 4832POPC   C2B62312  18.741  31.812   6.715
 4832POPC   C3B62313  18.647  31.888   7.166
 4832POPC   C4B62314  18.681  31.985   7.637
 4833POPC   NC362315  20.370  40.563   5.516
 4833POPC   PO462316  20.909  40.885   5.503
 4833POPC   GL162317  20.702  40.763   5.863
 4833POPC   GL262318  20.730  40.409   5.860
 4833POPC   C1A62319  20.619  40.943   6.269
 4833POPC   D2A62320  20.544  41.074   6.692
 4833POPC   C3A62321  20.632  40.823   7.039
 4833POPC   C4A62322  20.759  41.077   7.358
 4833POPC   C1B62323  20.442  40.456   6.198
 4833POPC   C2B62324  20.535  40.544   6.611
 4833POPC   C3B62325  20.228  40.521   6.907
 4833POPC   C4B62326  20.112  40.392   7.311
 4834POPC   NC362327  32.127  39.744   5.311
 4834POPC   PO462328  32.596  40.195   5.175
 4834POPC   GL162329  32.484  40.063   5.609
 4834POPC   GL262330  32.164  40.140   5.637
 4834POPC   C1A62331  32.561  40.026   6.077
 4834POPC   D2A62332  32.535  40.212   6.535
 4834POPC   C3A62333  32.364  39.993   6.934
 4834POPC   C4A62334  32.421  39.932   7.401
 4834POPC   C1B62335  32.076  40.190   6.088
 4834POPC   C2B62336  32.014  40.235   6.550
 4834POPC   C3B62337  31.823  40.254   6.966
 4834POPC   C4B62338  31.923  40.083   7.361
 4835POPC   NC362339  44.068  21.569   5.363
 4835POPC   PO462340  43.572  21.123   5.252
 4835POPC   GL162341  43.658  21.358   5.670
 4835POPC   GL262342  43.572  21.714   5.748
 4835POPC   C1A62343  43.940  21.323   6.065
 4835POPC   D2A62344  44.090  21.157   6.492
 4835POPC   C3A62345  43.804  21.235   6.835
 4835POPC   C4A62346  43.803  21.395   7.239
 4835POPC   C1B62347  43.798  21.825   6.117
 4835POPC   C2B62348  43.855  21.634   6.502
 4835POPC   C3B62349  43.891  21.781   6.906
 4835POPC   C4B62350  44.197  21.694   7.215
 4836POPC   NC362351  33.649  32.721   5.497
 4836POPC   PO462352  33.973  33.301   5.267
 4836POPC   GL162353  33.941  33.091   5.710
 4836POPC   GL262354  34.220  33.282   5.819
 4836POPC   C1A62355  33.611  33.084   6.121
 4836POPC   D2A62356  33.354  32.995   6.560
 4836POPC   C3A62357  33.636  33.072   6.957
 4836POPC   C4A62358  33.619  33.070   7.428
 4836POPC   C1B62359  34.446  33.372   6.193
 4836POPC   C2B62360  34.312  33.332   6.626
 4836POPC   C3B62361  34.388  33.345   7.057
 4836POPC   C4B62362  34.108  33.109   7.313
 4837POPC   NC362363   0.946  35.538   5.629
 4837POPC   PO462364   0.377  35.533   5.249
 4837POPC   GL162365   0.421  35.467   5.720
 4837POPC   GL262366   0.597  35.191   5.863
 4837POPC   C1A62367   0.250  35.452   6.174
 4837POPC   D2A62368   0.130  35.341   6.634
 4837POPC   C3A62369   0.437  35.432   7.004
 4837POPC   C4A62370   0.749  35.789   7.050
 4837POPC   C1B62371   0.765  35.328   6.260
 4837POPC   C2B62372   0.951  35.370   6.684
 4837POPC   C3B62373   0.844  35.141   7.065
 4837POPC   C4B62374   0.535  35.096   7.419
 4838POPC   NC362375  12.455   5.671   5.559
 4838POPC   PO462376  13.034   5.895   5.697
 4838POPC   GL162377  12.698   6.108   5.916
 4838POPC   GL262378  12.380   5.951   5.981
 4838POPC   C1A62379  12.704   6.276   6.333
 4838POPC   D2A62380  13.066   6.108   6.539
 4838POPC   C3A62381  13.075   6.040   6.964
 4838POPC   C4A62382  12.669   6.050   7.159
 4838POPC   C1B62383  12.586   5.773   6.340
 4838POPC   C2B62384  12.804   5.691   6.707
 4838POPC   C3B62385  12.739   5.504   7.075
 4838POPC   C4B62386  12.560   5.604   7.449
 4839POPC   NC362387  42.053   4.085   5.423
 4839POPC   PO462388  42.498   4.557   5.387
 4839POPC   GL162389  42.665   4.345   5.708
 4839POPC   GL262390  42.387   4.174   5.809
 4839POPC   C1A62391  42.688   4.447   6.137
 4839POPC   D2A62392  42.525   4.616   6.500
 4839POPC   C3A62393  42.531   4.367   6.899
 4839POPC   C4A62394  42.501   4.375   7.340
 4839POPC   C1B62395  42.205   4.305   6.228
 4839POPC   C2B62396  42.086   4.438   6.679
 4839POPC   C3B62397  42.085   4.169   7.057
 4839POPC   C4B62398  41.988   4.253   7.512
 4840POPC   NC362399   3.567  10.156   5.074
 4840POPC   PO462400   3.818   9.544   5.253
 4840POPC   GL162401   3.879   9.659   5.709
 4840POPC   GL262402   3.970   9.997   5.715
 4840POPC   C1A62403   3.698   9.632   6.130
 4840POPC   D2A62404   3.653   9.515   6.567
 4840POPC   C3A62405   3.375   9.800   6.793
 4840POPC   C4A62406   3.323   9.822   7.223
 4840POPC   C1B62407   3.910  10.142   6.157
 4840POPC   C2B62408   3.811   9.998   6.586
 4840POPC   C3B62409   3.832   9.793   6.996
 4840POPC   C4B62410   3.805  10.051   7.370
 4841POPC   NC362411   3.944  27.477   5.383
 4841POPC   PO462412   3.274  27.805   5.422
 4841POPC   GL162413   3.552  27.612   5.746
 4841POPC   GL262414   3.920  27.691   5.891
 4841POPC   C1A62415   3.528  27.445   6.141
 4841POPC   D2A62416   3.634  27.365   6.557
 4841POPC   C3A62417   3.565  27.644   6.882
 4841POPC   C4A62418   3.567  27.343   7.209
 4841POPC   C1B62419   3.796  27.818   6.364
 4841POPC   C2B62420   3.415  28.048   6.568
 4841POPC   C3B62421   3.302  28.113   7.030
 4841POPC   C4B62422   3.315  27.768   7.341
 4842POPC   NC362423  34.417   6.389   5.525
 4842POPC   PO462424  34.724   6.963   5.324
 4842POPC   GL162425  34.618   6.789   5.795
 4842POPC   GL262426  34.827   6.575   5.944
 4842POPC   C1A62427  34.371   6.556   6.171
 4842POPC   D2A62428  34.558   6.556   6.592
 4842POPC   C3A62429  34.338   6.554   6.982
 4842POPC   C4A62430  34.325   6.668   7.428
 4842POPC   C1B62431  34.923   6.321   6.258
 4842POPC   C2B62432  34.949   6.219   6.691
 4842POPC   C3B62433  35.104   6.390   7.074
 4842POPC   C4B62434  34.853   6.720   7.123
 4843POPC   NC362435  15.319   4.870   5.406
 4843POPC   PO462436  15.141   5.541   5.405
 4843POPC   GL162437  15.160   5.276   5.754
 4843POPC   GL262438  14.965   4.980   5.759
 4843POPC   C1A62439  15.161   5.241   6.184
 4843POPC   D2A62440  15.155   5.007   6.542
 4843POPC   C3A62441  15.386   5.249   6.808
 4843POPC   C4A62442  15.282   5.363   7.188
 4843POPC   C1B62443  14.809   4.833   6.168
 4843POPC   C2B62444  14.701   4.782   6.618
 4843POPC   C3B62445  14.984   4.726   6.958
 4843POPC   C4B62446  15.370   4.853   7.127
 4844POPC   NC362447  10.276  26.162   5.372
 4844POPC   PO462448  10.786  25.907   5.033
 4844POPC   GL162449  10.749  25.962   5.545
 4844POPC   GL262450  10.449  25.745   5.667
 4844POPC   C1A62451  10.712  26.023   6.034
 4844POPC   D2A62452  10.383  26.120   6.396
 4844POPC   C3A62453  10.427  26.031   6.840
 4844POPC   C4A62454  10.549  26.119   7.251
 4844POPC   C1B62455  10.286  25.730   6.098
 4844POPC   C2B62456  10.405  25.607   6.554
 4844POPC   C3B62457  10.226  25.580   7.017
 4844POPC   C4B62458  10.202  25.812   7.440
 4845POPC   NC362459  35.260  37.260   5.657
 4845POPC   PO462460  35.159  36.784   5.123
 4845POPC   GL162461  35.336  36.731   5.606
 4845POPC   GL262462  35.616  36.879   5.824
 4845POPC   C1A62463  35.223  36.666   6.083
 4845POPC   D2A62464  35.481  36.584   6.474
 4845POPC   C3A62465  35.352  36.761   6.861
 4845POPC   C4A62466  35.064  36.933   7.169
 4845POPC   C1B62467  35.492  37.079   6.258
 4845POPC   C2B62468  35.467  37.339   6.653
 4845POPC   C3B62469  35.530  37.218   7.081
 4845POPC   C4B62470  35.872  37.188   7.370
 4846POPC   NC362471   1.295  40.914   5.472
 4846POPC   PO462472   0.904  40.263   5.509
 4846POPC   GL162473   1.195  40.518   5.843
 4846POPC   GL262474   1.344  40.869   5.958
 4846POPC   C1A62475   1.256  40.545   6.315
 4846POPC   D2A62476   1.086  40.855   6.565
 4846POPC   C3A62477   0.930  40.635   6.876
 4846POPC   C4A62478   1.150  40.530   7.188
 4846POPC   C1B62479   1.720  40.587   6.095
 4846POPC   C2B62480   1.862  40.568   6.530
 4846POPC   C3B62481   1.582  40.626   6.893
 4846POPC   C4B62482   1.502  40.963   7.177
 4847POPC   NC362483  22.038  38.650   5.361
 4847POPC   PO462484  21.989  37.977   5.322
 4847POPC   GL162485  22.033  38.259   5.730
 4847POPC   GL262486  21.895  38.599   5.839
 4847POPC   C1A62487  22.213  38.306   6.167
 4847POPC   D2A62488  22.012  38.203   6.577
 4847POPC   C3A62489  22.297  38.245   6.904
 4847POPC   C4A62490  22.323  38.387   7.301
 4847POPC   C1B62491  21.694  38.419   6.204
 4847POPC   C2B62492  21.667  38.587   6.646
 4847POPC   C3B62493  21.965  38.659   7.013
 4847POPC   C4B62494  21.857  38.712   7.455
 4848POPC   NC362495  39.333   6.707   5.010
 4848POPC   PO462496  39.843   6.682   5.338
 4848POPC   GL162497  39.991   6.877   5.791
 4848POPC   GL262498  40.292   6.718   5.978
 4848POPC   C1A62499  39.913   6.869   6.289
 4848POPC   D2A62500  39.880   6.522   6.627
 4848POPC   C3A62501  39.754   6.599   7.084
 4848POPC   C4A62502  39.717   6.708   7.552
 4848POPC   C1B62503  40.353   6.648   6.450
 4848POPC   C2B62504  40.247   6.754   6.909
 4848POPC   C3B62505  40.190   6.588   7.353
 4848POPC   C4B62506  40.117   6.418   7.763
 4849POPC   NC362507  22.788   9.793   5.465
 4849POPC   PO462508  23.306   9.408   5.434
 4849POPC   GL162509  23.150   9.615   5.830
 4849POPC   GL262510  23.127   9.987   5.846
 4849POPC   C1A62511  22.769   9.686   6.127
 4849POPC   D2A62512  22.569   9.871   6.521
 4849POPC   C3A62513  22.688   9.667   6.929
 4849POPC   C4A62514  22.868   9.630   7.340
 4849POPC   C1B62515  22.998  10.110   6.282
 4849POPC   C2B62516  23.033  10.025   6.724
 4849POPC   C3B62517  23.028  10.062   7.171
 4849POPC   C4B62518  23.118   9.983   7.635
 4850POPC   NC362519  22.992  21.949   5.331
 4850POPC   PO462520  22.987  22.550   5.622
 4850POPC   GL162521  22.872  22.200   5.787
 4850POPC   GL262522  23.172  22.067   5.861
 4850POPC   C1A62523  22.694  22.214   6.190
 4850POPC   D2A62524  22.645  22.485   6.534
 4850POPC   C3A62525  22.631  22.298   6.926
 4850POPC   C4A62526  22.574  22.313   7.356
 4850POPC   C1B62527  23.172  22.372   6.245
 4850POPC   C2B62528  23.131  22.316   6.701
 4850POPC   C3B62529  23.278  22.284   7.115
 4850POPC   C4B62530  23.008  22.042   7.284
 4851POPC   NC362531  29.461   7.691   5.552
 4851POPC   PO462532  29.084   8.227   5.487
 4851POPC   GL162533  29.152   8.260   5.899
 4851POPC   GL262534  28.801   8.164   5.898
 4851POPC   C1A62535  29.082   8.093   6.322
 4851POPC   D2A62536  29.062   7.727   6.557
 4851POPC   C3A62537  29.201   7.963   6.881
 4851POPC   C4A62538  29.366   8.221   7.161
 4851POPC   C1B62539  28.769   8.479   6.192
 4851POPC   C2B62540  28.765   8.394   6.613
 4851POPC   C3B62541  28.779   8.504   7.024
 4851POPC   C4B62542  28.866   8.152   7.275
 4852POPC   NC362543   0.811  22.824   5.527
 4852POPC   PO462544   1.279  23.182   5.225
 4852POPC   GL162545   1.261  23.112   5.664
 4852POPC   GL262546   1.283  22.762   5.765
 4852POPC   C1A62547   1.363  23.152   6.107
 4852POPC   D2A62548   1.297  22.946   6.501
 4852POPC   C3A62549   1.336  23.185   6.858
 4852POPC   C4A62550   1.182  23.191   7.262
 4852POPC   C1B62551   1.191  22.570   6.164
 4852POPC   C2B62552   1.062  22.483   6.595
 4852POPC   C3B62553   1.281  22.633   6.930
 4852POPC   C4B62554   1.243  22.697   7.326
 4853POPC   NC362555   9.717  32.614   5.448
 4853POPC   PO462556  10.007  33.187   5.223
 4853POPC   GL162557   9.856  33.157   5.680
 4853POPC   GL262558   9.479  33.293   5.707
 4853POPC   C1A62559  10.016  33.176   6.146
 4853POPC   D2A62560  10.250  33.030   6.561
 4853POPC   C3A62561  10.068  33.045   6.988
 4853POPC   C4A62562   9.779  33.130   7.316
 4853POPC   C1B62563   9.262  33.349   6.133
 4853POPC   C2B62564   9.307  33.263   6.613
 4853POPC   C3B62565   9.357  33.308   7.090
 4853POPC   C4B62566   9.370  33.316   7.605
 4854POPC   NC362567  40.710  21.735   5.383
 4854POPC   PO462568  40.955  21.155   5.336
 4854POPC   GL162569  40.885  21.257   5.763
 4854POPC   GL262570  40.525  21.315   5.654
 4854POPC   C1A62571  41.048  21.301   6.226
 4854POPC   D2A62572  41.114  21.073   6.637
 4854POPC   C3A62573  40.888  21.249   6.991
 4854POPC   C4A62574  40.956  21.626   7.249
 4854POPC   C1B62575  40.539  21.400   6.108
 4854POPC   C2B62576  40.624  21.371   6.558
 4854POPC   C3B62577  40.545  21.614   6.951
 4854POPC   C4B62578  40.209  21.571   7.260
 4855POPC   NC362579  29.621   4.203   5.521
 4855POPC   PO462580  30.209   4.422   5.653
 4855POPC   GL162581  29.901   4.416   5.996
 4855POPC   GL262582  29.556   4.523   5.883
 4855POPC   C1A62583  30.018   4.472   6.442
 4855POPC   D2A62584  30.293   4.541   6.821
 4855POPC   C3A62585  30.242   4.189   7.132
 4855POPC   C4A62586  30.195   4.030   7.585
 4855POPC   C1B62587  29.408   4.290   6.229
 4855POPC   C2B62588  29.479   4.381   6.631
 4855POPC   C3B62589  29.795   4.360   6.912
 4855POPC   C4B62590  29.809   4.314   7.335
 4856POPC   NC362591  37.627  27.797   4.870
 4856POPC   PO462592  37.621  27.578   5.495
 4856POPC   GL162593  37.558  27.768   5.864
 4856POPC   GL262594  37.906  27.903   5.843
 4856POPC   C1A62595  37.427  27.537   6.261
 4856POPC   D2A62596  37.486  27.451   6.736
 4856POPC   C3A62597  37.457  27.498   7.208
 4856POPC   C4A62598  37.805  27.475   7.527
 4856POPC   C1B62599  37.884  27.747   6.265
 4856POPC   C2B62600  37.960  27.569   6.638
 4856POPC   C3B62601  37.840  27.746   7.032
 4856POPC   C4B62602  37.767  27.980   7.400
 4857POPC   NC362603  34.029  23.957   5.422
 4857POPC   PO462604  33.810  24.529   5.139
 4857POPC   GL162605  33.880  24.426   5.658
 4857POPC   GL262606  33.769  24.130   5.854
 4857POPC   C1A62607  33.891  24.622   6.123
 4857POPC   D2A62608  34.020  24.830   6.512
 4857POPC   C3A62609  33.901  24.545   6.828
 4857POPC   C4A62610  34.067  24.565   7.214
 4857POPC   C1B62611  34.163  24.203   6.111
 4857POPC   C2B62612  34.270  24.357   6.503
 4857POPC   C3B62613  34.208  24.142   6.878
 4857POPC   C4B62614  33.934  24.082   7.201
 4858POPC   NC362615  22.571  17.093   5.563
 4858POPC   PO462616  22.883  16.510   5.457
 4858POPC   GL162617  23.013  16.543   5.867
 4858POPC   GL262618  22.939  16.889   5.923
 4858POPC   C1A62619  22.865  16.310   6.224
 4858POPC   D2A62620  22.652  16.147   6.627
 4858POPC   C3A62621  22.717  16.500   6.868
 4858POPC   C4A62622  22.958  16.586   7.197
 4858POPC   C1B62623  23.123  17.048   6.306
 4858POPC   C2B62624  22.982  17.092   6.741
 4858POPC   C3B62625  23.233  16.995   7.115
 4858POPC   C4B62626  23.399  16.787   7.507
 4859POPC   NC362627  10.209  43.267   5.591
 4859POPC   PO462628  10.786  42.885   5.361
 4859POPC   GL162629  10.609  42.975   5.721
 4859POPC   GL262630  10.685  43.334   5.726
 4859POPC   C1A62631  10.436  42.858   6.090
 4859POPC   D2A62632  10.411  42.790   6.508
 4859POPC   C3A62633  10.341  43.136   6.785
 4859POPC   C4A62634  10.393  43.124   7.226
 4859POPC   C1B62635  10.564  43.375   6.171
 4859POPC   C2B62636  10.547  43.578   6.583
 4859POPC   C3B62637  10.678  43.488   6.979
 4859POPC   C4B62638  10.988  43.428   7.249
 4860POPC   NC362639  33.240   4.419   5.107
 4860POPC   PO462640  33.891   4.359   5.264
 4860POPC   GL162641  33.898   4.387   5.714
 4860POPC   GL262642  34.180   4.185   5.722
 4860POPC   C1A62643  33.843   4.176   6.148
 4860POPC   D2A62644  33.726   4.103   6.596
 4860POPC   C3A62645  33.530   4.465   6.757
 4860POPC   C4A62646  33.312   4.399   7.131
 4860POPC   C1B62647  34.317   3.985   6.081
 4860POPC   C2B62648  34.143   3.853   6.443
 4860POPC   C3B62649  34.152   3.969   6.870
 4860POPC   C4B62650  33.882   4.229   7.117
 4861POPC   NC362651   2.044  40.285   5.509
 4861POPC   PO462652   2.235  39.601   5.378
 4861POPC   GL162653   2.070  39.818   5.748
 4861POPC   GL262654   1.733  39.754   5.768
 4861POPC   C1A62655   2.021  40.090   6.128
 4861POPC   D2A62656   1.834  40.061   6.536
 4861POPC   C3A62657   2.148  39.953   6.781
 4861POPC   C4A62658   2.187  39.871   7.197
 4861POPC   C1B62659   1.778  39.649   6.205
 4861POPC   C2B62660   1.893  39.531   6.622
 4861POPC   C3B62661   1.712  39.725   7.000
 4861POPC   C4B62662   1.738  39.856   7.451
 4862POPC   NC362663   0.685  24.058   5.392
 4862POPC   PO462664   0.121  23.730   5.153
 4862POPC   GL162665   0.235  23.762   5.650
 4862POPC   GL262666   0.344  24.085   5.754
 4862POPC   C1A62667   0.386  23.622   6.098
 4862POPC   D2A62668   0.630  23.405   6.467
 4862POPC   C3A62669   0.526  23.588   6.862
 4862POPC   C4A62670   0.424  23.503   7.278
 4862POPC   C1B62671   0.276  24.144   6.165
 4862POPC   C2B62672   0.282  23.974   6.570
 4862POPC   C3B62673   0.370  24.238   6.952
 4862POPC   C4B62674   0.586  23.988   7.205
 4863POPC   NC362675  33.897  14.590   5.485
 4863POPC   PO462676  33.834  13.904   5.388
 4863POPC   GL162677  33.815  14.174   5.795
 4863POPC   GL262678  33.517  14.432   5.844
 4863POPC   C1A62679  33.932  14.266   6.253
 4863POPC   D2A62680  33.800  14.152   6.685
 4863POPC   C3A62681  34.022  14.322   7.051
 4863POPC   C4A62682  34.170  14.317   7.479
 4863POPC   C1B62683  33.667  14.694   6.199
 4863POPC   C2B62684  33.880  14.664   6.633
 4863POPC   C3B62685  33.768  14.764   7.087
 4863POPC   C4B62686  33.966  14.787   7.541
 4864POPC   NC362687  31.809  14.158   5.407
 4864POPC   PO462688  31.164  14.318   5.379
 4864POPC   GL162689  31.390  14.283   5.762
 4864POPC   GL262690  31.661  14.473   5.817
 4864POPC   C1A62691  31.303  14.489   6.177
 4864POPC   D2A62692  31.309  14.315   6.608
 4864POPC   C3A62693  31.243  14.627   6.914
 4864POPC   C4A62694  31.088  14.667   7.307
 4864POPC   C1B62695  31.779  14.326   6.240
 4864POPC   C2B62696  31.784  14.507   6.672
 4864POPC   C3B62697  31.708  14.505   7.151
 4864POPC   C4B62698  31.864  14.516   7.638
 4865POPC   NC362699   1.804  11.566   5.555
 4865POPC   PO462700   2.230  11.239   5.171
 4865POPC   GL162701   2.254  11.194   5.672
 4865POPC   GL262702   1.942  11.237   5.894
 4865POPC   C1A62703   2.361  11.312   6.136
 4865POPC   D2A62704   2.147  11.468   6.531
 4865POPC   C3A62705   2.234  11.276   6.914
 4865POPC   C4A62706   1.848  11.256   7.144
 4865POPC   C1B62707   1.672  11.110   6.239
 4865POPC   C2B62708   1.650  11.035   6.696
 4865POPC   C3B62709   1.418  10.999   7.103
 4865POPC   C4B62710   1.712  10.778   7.321
 4866POPC   NC362711  41.408  21.022   5.447
 4866POPC   PO462712  41.892  21.503   5.358
 4866POPC   GL162713  41.578  21.510   5.727
 4866POPC   GL262714  41.511  21.230   5.912
 4866POPC   C1A62715  41.416  21.660   6.174
 4866POPC   D2A62716  41.487  21.421   6.570
 4866POPC   C3A62717  41.405  21.501   7.038
 4866POPC   C4A62718  41.333  21.426   7.533
 4866POPC   C1B62719  41.774  21.005   6.200
 4866POPC   C2B62720  41.650  20.878   6.564
 4866POPC   C3B62721  41.606  21.047   6.923
 4866POPC   C4B62722  41.284  21.025   7.173
 4867POPC   NC362723  13.440  28.742   5.242
 4867POPC   PO462724  13.753  28.142   5.283
 4867POPC   GL162725  13.702  28.443   5.623
 4867POPC   GL262726  13.417  28.668   5.735
 4867POPC   C1A62727  13.726  28.401   6.074
 4867POPC   D2A62728  13.533  28.162   6.402
 4867POPC   C3A62729  13.726  28.159   6.809
 4867POPC   C4A62730  13.749  28.422   7.184
 4867POPC   C1B62731  13.350  28.706   6.159
 4867POPC   C2B62732  13.620  28.666   6.529
 4867POPC   C3B62733  13.378  28.625   6.892
 4867POPC   C4B62734  13.260  28.628   7.304
 4868POPC   NC362735  32.078  19.356   5.429
 4868POPC   PO462736  32.488  18.817   5.345
 4868POPC   GL162737  32.236  18.928   5.720
 4868POPC   GL262738  32.358  19.214   5.842
 4868POPC   C1A62739  32.022  18.976   6.138
 4868POPC   D2A62740  32.022  19.115   6.572
 4868POPC   C3A62741  32.305  18.916   6.905
 4868POPC   C4A62742  32.285  18.938   7.378
 4868POPC   C1B62743  32.353  19.365   6.253
 4868POPC   C2B62744  32.440  19.358   6.683
 4868POPC   C3B62745  32.441  19.354   7.140
 4868POPC   C4B62746  32.362  19.406   7.608
 4869POPC   NC362747  13.368  14.269   5.417
 4869POPC   PO462748  12.656  14.476   5.474
 4869POPC   GL162749  12.871  14.428   5.803
 4869POPC   GL262750  12.995  14.080   5.752
 4869POPC   C1A62751  12.768  14.566   6.218
 4869POPC   D2A62752  12.767  14.361   6.635
 4869POPC   C3A62753  12.783  14.591   7.043
 4869POPC   C4A62754  12.477  14.617   7.377
 4869POPC   C1B62755  13.055  14.109   6.216
 4869POPC   C2B62756  13.224  14.107   6.649
 4869POPC   C3B62757  12.993  14.123   7.062
 4869POPC   C4B62758  12.584  13.972   7.205
 4870POPC   NC362759  20.673  12.535   5.430
 4870POPC   PO462760  20.403  13.141   5.519
 4870POPC   GL162761  20.346  12.877   5.834
 4870POPC   GL262762  20.705  12.784   5.888
 4870POPC   C1A62763  20.326  12.951   6.260
 4870POPC   D2A62764  20.685  12.879   6.501
 4870POPC   C3A62765  20.524  12.975   6.887
 4870POPC   C4A62766  20.723  13.114   7.221
 4870POPC   C1B62767  20.972  12.535   6.172
 4870POPC   C2B62768  20.872  12.380   6.579
 4870POPC   C3B62769  20.797  12.532   6.998
 4870POPC   C4B62770  20.491  12.642   7.307
 4871POPC   NC362771  40.063  15.449   5.095
 4871POPC   PO462772  40.478  15.350   5.603
 4871POPC   GL162773  40.159  15.162   5.878
 4871POPC   GL262774  39.792  15.025   5.812
 4871POPC   C1A62775  40.077  14.917   6.238
 4871POPC   D2A62776  40.037  15.169   6.583
 4871POPC   C3A62777  40.001  14.939   6.935
 4871POPC   C4A62778  40.119  15.118   7.306
 4871POPC   C1B62779  39.584  15.070   6.245
 4871POPC   C2B62780  39.562  15.069   6.721
 4871POPC   C3B62781  39.713  15.361   7.074
 4871POPC   C4B62782  39.802  15.417   7.554
 4872POPC   NC362783   8.323  34.061   5.438
 4872POPC   PO462784   8.250  33.428   5.482
 4872POPC   GL162785   8.226  33.522   5.882
 4872POPC   GL262786   8.242  33.853   5.887
 4872POPC   C1A62787   8.203  33.489   6.326
 4872POPC   D2A62788   8.345  33.280   6.693
 4872POPC   C3A62789   8.305  33.628   6.971
 4872POPC   C4A62790   8.146  33.831   7.324
 4872POPC   C1B62791   8.308  34.092   6.266
 4872POPC   C2B62792   8.283  34.163   6.715
 4872POPC   C3B62793   7.905  34.094   6.945
 4872POPC   C4B62794   7.667  33.982   7.310
 4873POPC   NC362795  10.969   3.225   5.583
 4873POPC   PO462796  10.468   2.995   5.333
 4873POPC   GL162797  10.251   3.084   5.751
 4873POPC   GL262798  10.197   2.760   5.945
 4873POPC   C1A62799  10.298   3.160   6.227
 4873POPC   D2A62800  10.227   3.035   6.688
 4873POPC   C3A62801  10.530   2.793   6.873
 4873POPC   C4A62802  10.682   2.779   7.288
 4873POPC   C1B62803  10.150   2.610   6.405
 4873POPC   C2B62804  10.194   2.357   6.798
 4873POPC   C3B62805  10.444   2.326   7.187
 4873POPC   C4B62806  10.499   2.440   7.641
 4874POPC   NC362807  30.333  28.165   5.367
 4874POPC   PO462808  30.863  28.680   5.349
 4874POPC   GL162809  30.664  28.449   5.725
 4874POPC   GL262810  30.695  28.065   5.738
 4874POPC   C1A62811  30.690  28.626   6.189
 4874POPC   D2A62812  30.506  28.848   6.583
 4874POPC   C3A62813  30.702  28.725   6.984
 4874POPC   C4A62814  30.567  28.586   7.384
 4874POPC   C1B62815  30.530  28.140   6.161
 4874POPC   C2B62816  30.524  28.347   6.579
 4874POPC   C3B62817  30.572  28.225   7.002
 4874POPC   C4B62818  30.855  28.151   7.295
 4875POPC   NC362819  35.884  36.106   5.563
 4875POPC   PO462820  36.465  36.362   5.526
 4875POPC   GL162821  36.433  36.167   5.877
 4875POPC   GL262822  36.329  35.870   5.709
 4875POPC   C1A62823  36.264  36.322   6.270
 4875POPC   D2A62824  36.006  36.449   6.627
 4875POPC   C3A62825  36.285  36.466   6.965
 4875POPC   C4A62826  36.235  36.385   7.372
 4875POPC   C1B62827  36.112  35.843   6.112
 4875POPC   C2B62828  35.999  35.854   6.501
 4875POPC   C3B62829  36.031  36.014   6.883
 4875POPC   C4B62830  36.121  35.901   7.248
 4876POPC   NC362831  30.264   9.883   5.377
 4876POPC   PO462832  29.613   9.779   5.460
 4876POPC   GL162833  29.922   9.885   5.770
 4876POPC   GL262834  29.720  10.172   5.822
 4876POPC   C1A62835  30.142   9.710   6.163
 4876POPC   D2A62836  30.044   9.793   6.598
 4876POPC   C3A62837  30.197   9.613   6.965
 4876POPC   C4A62838  30.019   9.544   7.377
 4876POPC   C1B62839  29.668   9.953   6.219
 4876POPC   C2B62840  29.563   9.921   6.646
 4876POPC   C3B62841  29.749   9.903   7.035
 4876POPC   C4B62842  29.648   9.902   7.465
 4877POPC   NC362843  34.920  24.622   5.551
 4877POPC   PO462844  34.401  24.229   5.515
 4877POPC   GL162845  34.537  24.448   5.838
 4877POPC   GL262846  34.852  24.235   5.864
 4877POPC   C1A62847  34.423  24.722   6.167
 4877POPC   D2A62848  34.614  24.844   6.566
 4877POPC   C3A62849  34.497  24.587   6.913
 4877POPC   C4A62850  34.695  24.576   7.310
 4877POPC   C1B62851  34.780  24.351   6.285
 4877POPC   C2B62852  34.716  24.162   6.664
 4877POPC   C3B62853  34.669  24.126   7.074
 4877POPC   C4B62854  34.396  24.192   7.368
 4878POPC   NC362855   2.017  27.472   5.439
 4878POPC   PO462856   2.321  28.111   5.495
 4878POPC   GL162857   2.220  27.774   5.787
 4878POPC   GL262858   1.841  27.750   5.830
 4878POPC   C1A62859   2.164  27.721   6.236
 4878POPC   D2A62860   2.121  27.513   6.631
 4878POPC   C3A62861   1.912  27.622   6.989
 4878POPC   C4A62862   1.983  27.473   7.414
 4878POPC   C1B62863   1.748  27.444   6.185
 4878POPC   C2B62864   1.744  27.148   6.574
 4878POPC   C3B62865   1.619  27.183   7.027
 4878POPC   C4B62866   1.484  27.537   7.318
 4879POPC   NC362867  31.939  25.879   5.436
 4879POPC   PO462868  32.542  25.902   5.139
 4879POPC   GL162869  32.446  26.096   5.619
 4879POPC   GL262870  32.137  26.202   5.767
 4879POPC   C1A62871  32.431  25.960   6.107
 4879POPC   D2A62872  32.234  26.072   6.528
 4879POPC   C3A62873  32.353  26.002   6.969
 4879POPC   C4A62874  32.298  26.211   7.362
 4879POPC   C1B62875  32.039  26.383   6.161
 4879POPC   C2B62876  31.797  26.382   6.526
 4879POPC   C3B62877  31.958  26.361   6.933
 4879POPC   C4B62878  31.802  26.234   7.325
 4880POPC   NC362879  34.600  25.564   5.451
 4880POPC   PO462880  34.732  24.954   5.292
 4880POPC   GL162881  34.559  24.998   5.730
 4880POPC   GL262882  34.316  25.294   5.790
 4880POPC   C1A62883  34.670  25.175   6.157
 4880POPC   D2A62884  34.845  25.463   6.457
 4880POPC   C3A62885  34.781  25.326   6.909
 4880POPC   C4A62886  34.540  25.031   7.169
 4880POPC   C1B62887  34.414  25.624   6.108
 4880POPC   C2B62888  34.341  25.487   6.526
 4880POPC   C3B62889  34.211  25.269   6.860
 4880POPC   C4B62890  34.359  25.503   7.213
 4881POPC   NC362891  11.795  13.278   5.560
 4881POPC   PO462892  11.338  13.719   5.259
 4881POPC   GL162893  11.386  13.709   5.725
 4881POPC   GL262894  11.176  13.424   5.809
 4881POPC   C1A62895  11.153  13.736   6.182
 4881POPC   D2A62896  11.190  13.463   6.541
 4881POPC   C3A62897  11.148  13.710   6.913
 4881POPC   C4A62898  11.227  13.977   7.277
 4881POPC   C1B62899  11.543  13.417   6.141
 4881POPC   C2B62900  11.682  13.348   6.580
 4881POPC   C3B62901  11.460  13.267   6.955
 4881POPC   C4B62902  11.406  13.497   7.319
 4882POPC   NC362903  28.650  13.851   5.195
 4882POPC   PO462904  28.248  13.345   5.126
 4882POPC   GL162905  28.220  13.392   5.571
 4882POPC   GL262906  28.582  13.462   5.666
 4882POPC   C1A62907  28.107  13.486   6.016
 4882POPC   D2A62908  27.984  13.579   6.466
 4882POPC   C3A62909  28.163  13.746   6.854
 4882POPC   C4A62910  28.160  13.534   7.235
 4882POPC   C1B62911  28.697  13.480   6.136
 4882POPC   C2B62912  28.582  13.575   6.594
 4882POPC   C3B62913  28.635  13.492   7.056
 4882POPC   C4B62914  28.584  13.558   7.526
 4883POPC   NC362915   3.670  22.433   5.030
 4883POPC   PO462916   3.469  21.879   5.343
 4883POPC   GL162917   3.547  21.972   5.783
 4883POPC   GL262918   3.845  21.750   5.808
 4883POPC   C1A62919   3.558  22.175   6.222
 4883POPC   D2A62920   3.338  22.394   6.568
 4883POPC   C3A62921   3.558  22.582   6.902
 4883POPC   C4A62922   3.609  22.196   7.118
 4883POPC   C1B62923   3.832  21.764   6.243
 4883POPC   C2B62924   3.796  21.935   6.668
 4883POPC   C3B62925   3.951  21.834   7.090
 4883POPC   C4B62926   3.866  21.782   7.597
 4884POPC   NC362927  34.318  10.893   5.305
 4884POPC   PO462928  34.115  10.294   5.505
 4884POPC   GL162929  34.290  10.579   5.803
 4884POPC   GL262930  34.510  10.395   6.012
 4884POPC   C1A62931  34.276  10.822   6.195
 4884POPC   D2A62932  34.287  10.808   6.651
 4884POPC   C3A62933  34.441  10.502   6.949
 4884POPC   C4A62934  34.747  10.577   7.227
 4884POPC   C1B62935  34.598  10.416   6.467
 4884POPC   C2B62936  34.892  10.241   6.816
 4884POPC   C3B62937  34.683  10.075   7.185
 4884POPC   C4B62938  34.234  10.131   7.285
 4885POPC   NC362939  10.853  34.731   5.457
 4885POPC   PO462940  11.495  34.928   5.451
 4885POPC   GL162941  11.352  34.767   5.863
 4885POPC   GL262942  11.103  34.507   5.859
 4885POPC   C1A62943  11.204  34.688   6.304
 4885POPC   D2A62944  10.987  34.502   6.646
 4885POPC   C3A62945  11.086  34.748   7.019
 4885POPC   C4A62946  11.498  34.895   7.091
 4885POPC   C1B62947  11.479  34.332   6.103
 4885POPC   C2B62948  11.566  34.451   6.562
 4885POPC   C3B62949  11.417  34.355   6.963
 4885POPC   C4B62950  11.661  34.166   7.253
 4886POPC   NC362951  29.849  13.565   5.187
 4886POPC   PO462952  30.456  13.364   5.161
 4886POPC   GL162953  30.216  13.674   5.534
 4886POPC   GL262954  29.904  13.520   5.692
 4886POPC   C1A62955  30.130  13.724   6.057
 4886POPC   D2A62956  30.047  13.517   6.453
 4886POPC   C3A62957  29.862  13.702   6.801
 4886POPC   C4A62958  30.075  13.702   7.176
 4886POPC   C1B62959  29.753  13.303   6.087
 4886POPC   C2B62960  29.623  13.220   6.531
 4886POPC   C3B62961  29.670  13.244   6.988
 4886POPC   C4B62962  29.555  13.636   7.227
 4887POPC   NC362963   8.380  43.590   5.200
 4887POPC   PO462964   7.949  44.070   5.378
 4887POPC   GL162965   8.120  43.975   5.783
 4887POPC   GL262966   7.927  43.665   5.782
 4887POPC   C1A62967   8.268  44.150   6.209
 4887POPC   D2A62968   8.484  44.227   6.626
 4887POPC   C3A62969   8.405  43.928   6.948
 4887POPC   C4A62970   8.336  43.457   6.936
 4887POPC   C1B62971   8.050  43.636   6.212
 4887POPC   C2B62972   8.039  43.874   6.604
 4887POPC   C3B62973   7.923  43.810   7.052
 4887POPC   C4B62974   7.995  43.433   7.327
 4888POPC   NC362975  10.040   4.544   5.261
 4888POPC   PO462976   9.473   4.140   5.412
 4888POPC   GL162977   9.645   4.491   5.653
 4888POPC   GL262978   9.939   4.317   5.754
 4888POPC   C1A62979   9.689   4.598   6.111
 4888POPC   D2A62980   9.543   4.365   6.469
 4888POPC   C3A62981   9.624   4.487   6.885
 4888POPC   C4A62982   9.772   4.674   7.245
 4888POPC   C1B62983   9.665   4.065   6.054
 4888POPC   C2B62984   9.777   3.916   6.465
 4888POPC   C3B62985   9.899   4.066   6.871
 4888POPC   C4B62986   9.820   4.112   7.299
 4889POPC   NC362987  29.283  32.877   5.117
 4889POPC   PO462988  29.160  33.465   5.463
 4889POPC   GL162989  29.095  33.095   5.729
 4889POPC   GL262990  29.369  32.847   5.657
 4889POPC   C1A62991  28.960  32.984   6.165
 4889POPC   D2A62992  29.151  33.107   6.561
 4889POPC   C3A62993  28.939  33.118   6.932
 4889POPC   C4A62994  29.143  33.083   7.319
 4889POPC   C1B62995  29.456  32.977   6.112
 4889POPC   C2B62996  29.514  32.769   6.544
 4889POPC   C3B62997  29.514  32.940   7.010
 4889POPC   C4B62998  29.529  32.827   7.523
 4890POPC   NC362999  44.882  34.481   5.434
 4890POPC   PO463000  44.205  34.314   5.510
 4890POPC   GL163001  44.524  34.410   5.851
 4890POPC   GL263002  44.755  34.690   5.887
 4890POPC   C1A63003  44.545  34.355   6.301
 4890POPC   D2A63004  44.692  34.371   6.719
 4890POPC   C3A63005  44.362  34.422   7.000
 4890POPC   C4A63006  44.480  34.658   7.342
 4890POPC   C1B63007  44.981  34.610   6.270
 4890POPC   C2B63008   0.008  34.795   6.681
 4890POPC   C3B63009  44.959  34.618   7.119
 4890POPC   C4B63010   0.099  34.825   7.516
 4891POPC   NC363011  27.326  34.430   5.483
 4891POPC   PO463012  27.978  34.442   5.631
 4891POPC   GL163013  27.616  34.422   5.906
 4891POPC   GL263014  27.476  34.110   5.858
 4891POPC   C1A63015  27.315  34.666   6.165
 4891POPC   D2A63016  27.419  34.921   6.528
 4891POPC   C3A63017  27.417  34.723   6.939
 4891POPC   C4A63018  27.715  34.478   7.144
 4891POPC   C1B63019  27.333  34.158   6.261
 4891POPC   C2B63020  27.218  34.370   6.624
 4891POPC   C3B63021  27.329  34.175   7.016
 4891POPC   C4B63022  27.348  34.276   7.441
 4892POPC   NC363023  13.647  19.328   5.150
 4892POPC   PO463024  13.906  18.780   5.088
 4892POPC   GL163025  13.663  19.018   5.565
 4892POPC   GL263026  13.561  18.776   5.825
 4892POPC   C1A63027  13.857  19.115   6.060
 4892POPC   D2A63028  13.879  18.893   6.462
 4892POPC   C3A63029  13.685  18.970   6.889
 4892POPC   C4A63030  13.870  18.861   7.295
 4892POPC   C1B63031  13.414  18.986   6.224
 4892POPC   C2B63032  13.197  19.107   6.582
 4892POPC   C3B63033  13.105  19.002   6.971
 4892POPC   C4B63034  13.333  19.057   7.298
 4893POPC   NC363035  10.349   6.750   5.564
 4893POPC   PO463036   9.737   6.624   5.241
 4893POPC   GL163037   9.563   6.650   5.704
 4893POPC   GL263038   9.661   6.999   5.786
 4893POPC   C1A63039   9.444   6.575   6.184
 4893POPC   D2A63040   9.504   6.442   6.658
 4893POPC   C3A63041   9.870   6.483   6.930
 4893POPC   C4A63042  10.019   6.649   7.350
 4893POPC   C1B63043   9.670   7.035   6.241
 4893POPC   C2B63044   9.816   6.897   6.645
 4893POPC   C3B63045   9.670   6.912   7.087
 4893POPC   C4B63046   9.407   7.157   7.294
 4894POPC   NC363047  24.152   6.702   5.488
 4894POPC   PO463048  24.604   6.263   5.386
 4894POPC   GL163049  24.560   6.523   5.761
 4894POPC   GL263050  24.260   6.313   5.831
 4894POPC   C1A63051  24.688   6.829   6.126
 4894POPC   D2A63052  24.812   7.048   6.533
 4894POPC   C3A63053  24.845   6.763   6.900
 4894POPC   C4A63054  24.729   6.807   7.332
 4894POPC   C1B63055  24.299   6.532   6.234
 4894POPC   C2B63056  24.350   6.801   6.594
 4894POPC   C3B63057  24.352   6.598   7.007
 4894POPC   C4B63058  24.262   6.149   7.105
 4895POPC   NC363059   8.206  31.769   5.496
 4895POPC   PO463060   8.332  31.204   5.674
 4895POPC   GL163061   8.418  31.609   5.924
 4895POPC   GL263062   8.077  31.754   5.999
 4895POPC   C1A63063   8.421  31.775   6.359
 4895POPC   D2A63064   8.293  31.516   6.703
 4895POPC   C3A63065   8.254  31.670   7.086
 4895POPC   C4A63066   8.576  31.545   7.378
 4895POPC   C1B63067   7.913  31.528   6.380
 4895POPC   C2B63068   7.824  31.342   6.833
 4895POPC   C3B63069   7.718  31.430   7.280
 4895POPC   C4B63070   7.606  31.518   7.703
 4896POPC   NC363071  35.375   8.569   5.438
 4896POPC   PO463072  35.589   7.912   5.438
 4896POPC   GL163073  35.346   8.002   5.824
 4896POPC   GL263074  35.009   8.103   5.760
 4896POPC   C1A63075  35.435   7.978   6.263
 4896POPC   D2A63076  35.745   8.090   6.558
 4896POPC   C3A63077  35.591   8.114   6.953
 4896POPC   C4A63078  35.437   7.892   7.303
 4896POPC   C1B63079  35.099   8.365   6.170
 4896POPC   C2B63080  35.246   8.355   6.602
 4896POPC   C3B63081  35.100   8.218   7.007
 4896POPC   C4B63082  35.320   8.391   7.314
 4897POPC   NC363083  14.278  16.769   5.359
 4897POPC   PO463084  14.943  16.696   5.172
 4897POPC   GL163085  14.661  16.764   5.697
 4897POPC   GL263086  14.716  17.018   5.908
 4897POPC   C1A63087  14.401  16.645   6.088
 4897POPC   D2A63088  14.464  16.459   6.496
 4897POPC   C3A63089  14.375  16.642   6.909
 4897POPC   C4A63090  14.019  16.617   7.192
 4897POPC   C1B63091  14.427  17.123   6.234
 4897POPC   C2B63092  14.614  16.971   6.585
 4897POPC   C3B63093  14.948  16.904   6.860
 4897POPC   C4B63094  14.700  16.933   7.221
 4898POPC   NC363095   2.152  44.845   5.597
 4898POPC   PO463096   1.610  44.584   5.478
 4898POPC   GL163097   1.813  44.537   5.857
 4898POPC   GL263098   1.998  44.233   5.816
 4898POPC   C1A63099   1.881  44.845   6.214
 4898POPC   D2A63100   2.094  44.870   6.618
 4898POPC   C3A63101   1.872  44.807   7.021
 4898POPC   C4A63102   1.903  44.803   7.492
 4898POPC   C1B63103   2.169  44.415   6.208
 4898POPC   C2B63104   2.221  44.340   6.631
 4898POPC   C3B63105   2.277  44.517   7.031
 4898POPC   C4B63106   2.321  44.485   7.463
 4899POPC   NC363107   8.291  23.455   5.360
 4899POPC   PO463108   8.136  24.170   5.474
 4899POPC   GL163109   8.267  24.006   5.806
 4899POPC   GL263110   8.563  24.192   5.792
 4899POPC   C1A63111   8.029  23.752   6.112
 4899POPC   D2A63112   7.795  23.833   6.505
 4899POPC   C3A63113   7.963  23.645   6.877
 4899POPC   C4A63114   8.093  23.817   7.275
 4899POPC   C1B63115   8.571  23.899   6.209
 4899POPC   C2B63116   8.449  23.864   6.692
 4899POPC   C3B63117   8.562  23.928   7.163
 4899POPC   C4B63118   8.455  24.016   7.627
 4900POPC   NC363119  29.031  37.340   5.284
 4900POPC   PO463120  29.146  37.932   5.142
 4900POPC   GL163121  29.192  37.804   5.590
 4900POPC   GL263122  29.312  37.455   5.676
 4900POPC   C1A63123  29.046  37.736   6.026
 4900POPC   D2A63124  29.120  37.588   6.462
 4900POPC   C3A63125  29.122  37.836   6.852
 4900POPC   C4A63126  29.432  37.900   7.157
 4900POPC   C1B63127  29.444  37.378   6.098
 4900POPC   C2B63128  29.602  37.438   6.537
 4900POPC   C3B63129  29.332  37.358   6.899
 4900POPC   C4B63130  29.200  37.387   7.331
 4901POPC   NC363131  11.533  31.895   5.060
 4901POPC   PO463132  11.658  31.403   5.524
 4901POPC   GL163133  11.549  31.265   5.912
 4901POPC   GL263134  11.627  31.587   6.037
 4901POPC   C1A63135  11.424  31.249   6.373
 4901POPC   D2A63136  11.291  31.451   6.758
 4901POPC   C3A63137  11.251  31.319   7.183
 4901POPC   C4A63138  10.945  31.419   7.487
 4901POPC   C1B63139  11.804  31.677   6.421
 4901POPC   C2B63140  11.679  31.755   6.803
 4901POPC   C3B63141  11.619  31.661   7.215
 4901POPC   C4B63142  11.354  31.710   7.558
 4902POPC   NC363143  27.765  12.413   4.895
 4902POPC   PO463144  27.490  12.082   5.446
 4902POPC   GL163145  27.736  12.035   5.816
 4902POPC   GL263146  27.897  12.308   5.941
 4902POPC   C1A63147  27.630  11.983   6.247
 4902POPC   D2A63148  27.279  12.050   6.564
 4902POPC   C3A63149  27.402  12.122   7.009
 4902POPC   C4A63150  27.559  11.911   7.371
 4902POPC   C1B63151  27.875  12.470   6.308
 4902POPC   C2B63152  27.726  12.303   6.641
 4902POPC   C3B63153  27.826  12.459   6.960
 4902POPC   C4B63154  27.724  12.383   7.331
 4903POPC   NC363155  15.785  43.904   5.255
 4903POPC   PO463156  16.305  43.635   5.254
 4903POPC   GL163157  16.171  43.825   5.756
 4903POPC   GL263158  15.964  44.086   5.685
 4903POPC   C1A63159  15.966  43.673   6.206
 4903POPC   D2A63160  15.892  43.521   6.636
 4903POPC   C3A63161  16.175  43.618   6.978
 4903POPC   C4A63162  16.052  43.771   7.433
 4903POPC   C1B63163  16.078  44.158   6.136
 4903POPC   C2B63164  16.198  43.980   6.551
 4903POPC   C3B63165  16.230  44.141   6.968
 4903POPC   C4B63166  16.245  44.251   7.382
 4904POPC   NC363167  31.659   1.558   5.375
 4904POPC   PO463168  31.098   1.475   5.660
 4904POPC   GL163169  31.473   1.531   5.855
 4904POPC   GL263170  31.530   1.206   5.941
 4904POPC   C1A63171  31.637   1.566   6.285
 4904POPC   D2A63172  31.601   1.237   6.598
 4904POPC   C3A63173  31.442   1.306   7.023
 4904POPC   C4A63174  31.560   1.399   7.444
 4904POPC   C1B63175  31.331   0.923   6.280
 4904POPC   C2B63176  31.256   0.864   6.749
 4904POPC   C3B63177  31.315   0.816   7.199
 4904POPC   C4B63178  31.199   1.056   7.544
 4905POPC   NC363179  15.097  38.687   5.394
 4905POPC   PO463180  15.411  38.101   5.322
 4905POPC   GL163181  15.315  38.369   5.736
 4905POPC   GL263182  14.966  38.545   5.858
 4905POPC   C1A63183  15.298  38.422   6.206
 4905POPC   D2A63184  15.129  38.272   6.597
 4905POPC   C3A63185  15.346  38.374   6.995
 4905POPC   C4A63186  15.623  38.272   7.360
 4905POPC   C1B63187  14.778  38.487   6.278
 4905POPC   C2B63188  14.533  38.746   6.566
 4905POPC   C3B63189  14.728  38.897   6.948
 4905POPC   C4B63190  15.009  38.689   7.213
 4906POPC   NC363191  35.849  28.660   5.470
 4906POPC   PO463192  35.701  29.323   5.392
 4906POPC   GL163193  35.409  29.328   5.782
 4906POPC   GL263194  35.176  29.013   5.843
 4906POPC   C1A63195  35.320  29.311   6.239
 4906POPC   D2A63196  35.354  29.186   6.672
 4906POPC   C3A63197  35.429  29.488   7.009
 4906POPC   C4A63198  35.280  29.350   7.399
 4906POPC   C1B63199  34.920  28.978   6.255
 4906POPC   C2B63200  34.812  28.899   6.708
 4906POPC   C3B63201  34.956  28.860   7.150
 4906POPC   C4B63202  35.341  28.806   7.422
 4907POPC   NC363203   5.485  19.941   5.328
 4907POPC   PO463204   6.158  20.072   5.205
 4907POPC   GL163205   5.920  19.876   5.643
 4907POPC   GL263206   5.606  20.034   5.806
 4907POPC   C1A63207   5.830  19.700   6.109
 4907POPC   D2A63208   5.861  19.863   6.551
 4907POPC   C3A63209   5.813  19.631   6.933
 4907POPC   C4A63210   5.821  19.614   7.355
 4907POPC   C1B63211   5.617  20.181   6.233
 4907POPC   C2B63212   5.374  20.098   6.620
 4907POPC   C3B63213   5.417  20.108   7.081
 4907POPC   C4B63214   5.356  20.370   7.497
 4908POPC   NC363215  38.383  26.510   5.446
 4908POPC   PO463216  38.655  27.147   5.278
 4908POPC   GL163217  38.594  26.955   5.680
 4908POPC   GL263218  38.232  26.853   5.797
 4908POPC   C1A63219  38.579  27.116   6.112
 4908POPC   D2A63220  38.284  27.205   6.457
 4908POPC   C3A63221  38.445  27.031   6.841
 4908POPC   C4A63222  38.494  26.939   7.253
 4908POPC   C1B63223  38.154  26.509   6.109
 4908POPC   C2B63224  38.132  26.461   6.557
 4908POPC   C3B63225  38.288  26.519   6.974
 4908POPC   C4B63226  38.080  26.655   7.379
 4909POPC   NC363227   6.967   6.057   5.406
 4909POPC   PO463228   7.651   5.875   5.264
 4909POPC   GL163229   7.626   5.833   5.769
 4909POPC   GL263230   7.299   5.921   5.861
 4909POPC   C1A63231   7.656   6.112   6.186
 4909POPC   D2A63232   7.687   5.903   6.623
 4909POPC   C3A63233   7.637   6.025   7.067
 4909POPC   C4A63234   7.687   6.052   7.534
 4909POPC   C1B63235   7.280   5.794   6.318
 4909POPC   C2B63236   7.198   5.989   6.726
 4909POPC   C3B63237   7.112   5.857   7.128
 4909POPC   C4B63238   6.838   5.491   7.174
 4910POPC   NC363239  25.597  11.632   5.493
 4910POPC   PO463240  25.034  11.344   5.438
 4910POPC   GL163241  25.215  11.448   5.829
 4910POPC   GL263242  25.116  11.136   5.990
 4910POPC   C1A63243  25.394  11.498   6.248
 4910POPC   D2A63244  25.586  11.252   6.586
 4910POPC   C3A63245  25.399  11.389   6.958
 4910POPC   C4A63246  25.190  11.619   7.232
 4910POPC   C1B63247  25.102  10.844   6.332
 4910POPC   C2B63248  24.778  10.918   6.619
 4910POPC   C3B63249  24.908  11.250   6.884
 4910POPC   C4B63250  25.064  11.071   7.242
 4911POPC   NC363251  27.013   4.481   5.405
 4911POPC   PO463252  26.434   4.192   5.491
 4911POPC   GL163253  26.730   4.091   5.796
 4911POPC   GL263254  27.099   4.063   5.729
 4911POPC   C1A63255  26.876   3.931   6.162
 4911POPC   D2A63256  27.111   4.073   6.484
 4911POPC   C3A63257  26.831   4.266   6.758
 4911POPC   C4A63258  26.984   4.242   7.157
 4911POPC   C1B63259  27.275   4.325   6.058
 4911POPC   C2B63260  27.201   4.567   6.429
 4911POPC   C3B63261  27.287   4.509   6.839
 4911POPC   C4B63262  27.382   4.751   7.169
 4912POPC   NC363263  28.415  44.397   4.998
 4912POPC   PO463264  28.260  44.999   5.394
 4912POPC   GL163265  28.232  44.770   5.816
 4912POPC   GL263266  28.297  44.390   5.810
 4912POPC   C1A63267  28.075  44.736   6.212
 4912POPC   D2A63268  28.329  44.774   6.541
 4912POPC   C3A63269  28.411  44.575   6.891
 4912POPC   C4A63270  28.752  44.695   7.109
 4912POPC   C1B63271  28.432  44.360   6.241
 4912POPC   C2B63272  28.289  44.153   6.619
 4912POPC   C3B63273  28.287  44.126   7.061
 4912POPC   C4B63274  28.356  44.464   7.398
 4913POPC   NC363275  26.202  22.709   5.329
 4913POPC   PO463276  25.547  22.865   5.185
 4913POPC   GL163277  25.829  22.827   5.658
 4913POPC   GL263278  26.206  22.944   5.779
 4913POPC   C1A63279  25.881  22.831   6.142
 4913POPC   D2A63280  25.974  23.008   6.542
 4913POPC   C3A63281  25.909  22.838   6.959
 4913POPC   C4A63282  26.003  22.869   7.384
 4913POPC   C1B63283  26.429  22.929   6.223
 4913POPC   C2B63284  26.439  22.865   6.685
 4913POPC   C3B63285  26.451  22.895   7.125
 4913POPC   C4B63286  26.453  23.185   7.449
 4914POPC   NC363287  20.057  11.005   5.562
 4914POPC   PO463288  20.665  11.366   5.232
 4914POPC   GL163289  20.698  11.442   5.659
 4914POPC   GL263290  20.347  11.377   5.746
 4914POPC   C1A63291  20.741  11.208   6.028
 4914POPC   D2A63292  20.574  11.228   6.443
 4914POPC   C3A63293  20.797  11.471   6.719
 4914POPC   C4A63294  20.861  11.354   7.108
 4914POPC   C1B63295  20.438  11.623   6.104
 4914POPC   C2B63296  20.222  11.606   6.487
 4914POPC   C3B63297  20.337  11.481   6.909
 4914POPC   C4B63298  20.499  11.693   7.296
 4915POPC   NC363299   3.331  39.027   5.485
 4915POPC   PO463300   3.969  39.398   5.500
 4915POPC   GL163301   3.650  39.359   5.809
 4915POPC   GL263302   3.905  39.251   6.052
 4915POPC   C1A63303   3.384  39.350   6.179
 4915POPC   D2A63304   3.622  39.234   6.549
 4915POPC   C3A63305   3.372  39.263   6.901
 4915POPC   C4A63306   3.125  39.262   7.263
 4915POPC   C1B63307   3.790  39.650   6.280
 4915POPC   C2B63308   3.705  39.697   6.736
 4915POPC   C3B63309   3.853  39.469   7.100
 4915POPC   C4B63310   3.738  39.414   7.549
 4916POPC   NC363311  19.606  33.076   5.398
 4916POPC   PO463312  20.191  33.125   5.580
 4916POPC   GL163313  19.898  33.084   5.889
 4916POPC   GL263314  19.591  32.890   5.872
 4916POPC   C1A63315  19.935  32.914   6.288
 4916POPC   D2A63316  19.994  32.800   6.705
 4916POPC   C3A63317  20.116  33.114   7.009
 4916POPC   C4A63318  20.026  32.888   7.402
 4916POPC   C1B63319  19.454  33.120   6.215
 4916POPC   C2B63320  19.607  33.147   6.636
 4916POPC   C3B63321  19.612  33.138   7.071
 4916POPC   C4B63322  19.456  33.385   7.359
 4917POPC   NC363323  19.450  16.723   5.614
 4917POPC   PO463324  20.081  16.566   5.831
 4917POPC   GL163325  19.756  16.757   6.005
 4917POPC   GL263326  19.605  16.409   5.961
 4917POPC   C1A63327  19.638  17.033   6.350
 4917POPC   D2A63328  19.955  17.262   6.624
 4917POPC   C3A63329  20.075  17.029   7.006
 4917POPC   C4A63330  20.188  16.603   7.167
 4917POPC   C1B63331  19.538  16.502   6.383
 4917POPC   C2B63332  19.307  16.676   6.710
 4917POPC   C3B63333  19.478  16.439   7.009
 4917POPC   C4B63334  19.690  16.730   7.194
 4918POPC   NC363335   9.971  21.339   5.346
 4918POPC   PO463336   9.370  21.012   5.366
 4918POPC   GL163337   9.629  21.146   5.731
 4918POPC   GL263338   9.726  21.528   5.751
 4918POPC   C1A63339   9.664  21.228   6.186
 4918POPC   D2A63340   9.862  21.196   6.599
 4918POPC   C3A63341   9.582  21.332   6.944
 4918POPC   C4A63342   9.522  21.210   7.363
 4918POPC   C1B63343   9.953  21.645   6.133
 4918POPC   C2B63344  10.097  21.655   6.555
 4918POPC   C3B63345   9.939  21.806   6.953
 4918POPC   C4B63346   9.725  21.673   7.299
 4919POPC   NC363347   0.930  27.836   5.568
 4919POPC   PO463348   1.532  27.578   5.401
 4919POPC   GL163349   1.357  27.430   5.807
 4919POPC   GL263350   0.984  27.446   5.877
 4919POPC   C1A63351   1.281  27.279   6.244
 4919POPC   D2A63352   1.369  27.498   6.653
 4919POPC   C3A63353   1.095  27.389   7.009
 4919POPC   C4A63354   0.992  27.479   7.458
 4919POPC   C1B63355   1.096  27.749   6.245
 4919POPC   C2B63356   0.903  27.739   6.680
 4919POPC   C3B63357   0.962  27.881   7.123
 4919POPC   C4B63358   0.714  27.887   7.555
 4920POPC   NC363359  31.292  44.548   5.142
 4920POPC   PO463360  31.564  44.956   5.564
 4920POPC   GL163361  31.214  44.798   5.791
 4920POPC   GL263362  31.201  44.472   5.652
 4920POPC   C1A63363  31.249  44.962   6.188
 4920POPC   D2A63364  31.536  44.919   6.518
 4920POPC   C3A63365  31.322  44.976   6.878
 4920POPC   C4A63366  31.441  44.789   7.217
 4920POPC   C1B63367  31.169  44.415   6.111
 4920POPC   C2B63368  31.410  44.258   6.479
 4920POPC   C3B63369  31.503  44.436   6.858
 4920POPC   C4B63370  31.395  44.305   7.283
 4921POPC   NC363371  41.338  44.867   5.350
 4921POPC   PO463372  41.714  44.313   5.422
 4921POPC   GL163373  41.502  44.541   5.736
 4921POPC   GL263374  41.670  44.861   5.766
 4921POPC   C1A63375  41.359  44.667   6.141
 4921POPC   D2A63376  41.499  44.543   6.555
 4921POPC   C3A63377  41.326  44.726   6.933
 4921POPC   C4A63378  41.519  44.939   7.319
 4921POPC   C1B63379  41.877  44.693   6.147
 4921POPC   C2B63380  41.948  44.832   6.573
 4921POPC   C3B63381  41.832  44.683   6.977
 4921POPC   C4B63382  41.739  44.485   7.375
 4922POPC   NC363383   2.410  26.907   5.359
 4922POPC   PO463384   3.076  26.666   5.355
 4922POPC   GL163385   2.847  26.766   5.717
 4922POPC   GL263386   2.739  27.071   5.717
 4922POPC   C1A63387   2.903  26.732   6.133
 4922POPC   D2A63388   3.101  26.596   6.500
 4922POPC   C3A63389   2.920  26.638   6.880
 4922POPC   C4A63390   3.041  26.480   7.260
 4922POPC   C1B63391   2.696  27.193   6.155
 4922POPC   C2B63392   2.762  27.012   6.541
 4922POPC   C3B63393   2.714  27.118   6.959
 4922POPC   C4B63394   2.772  26.909   7.321
 4923POPC   NC363395  19.219  28.140   5.176
 4923POPC   PO463396  18.867  27.644   5.605
 4923POPC   GL163397  19.140  27.582   5.955
 4923POPC   GL263398  18.923  27.663   6.173
 4923POPC   C1A63399  19.372  27.519   6.359
 4923POPC   D2A63400  19.114  27.695   6.663
 4923POPC   C3A63401  18.932  27.553   7.002
 4923POPC   C4A63402  19.291  27.530   7.278
 4923POPC   C1B63403  19.229  27.993   6.264
 4923POPC   C2B63404  19.292  28.166   6.643
 4923POPC   C3B63405  19.291  28.004   7.057
 4923POPC   C4B63406  18.937  27.929   7.321
 4924POPC   NC363407  39.487  15.767   5.384
 4924POPC   PO463408  39.140  16.321   5.465
 4924POPC   GL163409  39.065  16.124   5.891
 4924POPC   GL263410  39.228  15.822   5.872
 4924POPC   C1A63411  39.169  16.008   6.371
 4924POPC   D2A63412  39.466  15.915   6.745
 4924POPC   C3A63413  39.299  15.875   7.177
 4924POPC   C4A63414  38.953  16.066   7.448
 4924POPC   C1B63415  38.833  15.732   6.130
 4924POPC   C2B63416  38.880  15.595   6.578
 4924POPC   C3B63417  38.825  15.790   6.989
 4924POPC   C4B63418  38.909  15.577   7.406
 4925POPC   NC363419  21.236  37.135   5.292
 4925POPC   PO463420  21.759  36.781   5.194
 4925POPC   GL163421  21.528  36.720   5.565
 4925POPC   GL263422  21.437  37.032   5.740
 4925POPC   C1A63423  21.750  36.635   5.950
 4925POPC   D2A63424  21.775  36.627   6.431
 4925POPC   C3A63425  21.574  36.853   6.777
 4925POPC   C4A63426  21.751  36.700   7.163
 4925POPC   C1B63427  21.278  36.814   6.051
 4925POPC   C2B63428  21.158  36.908   6.453
 4925POPC   C3B63429  21.005  36.882   6.859
 4925POPC   C4B63430  21.250  36.680   7.144
 4926POPC   NC363431  17.997  19.136   5.475
 4926POPC   PO463432  17.375  19.332   5.290
 4926POPC   GL163433  17.361  19.096   5.741
 4926POPC   GL263434  17.711  19.175   5.885
 4926POPC   C1A63435  17.390  18.756   6.121
 4926POPC   D2A63436  17.370  18.546   6.581
 4926POPC   C3A63437  17.265  18.776   7.016
 4926POPC   C4A63438  17.240  18.857   7.517
 4926POPC   C1B63439  17.684  19.136   6.307
 4926POPC   C2B63440  17.353  19.045   6.553
 4926POPC   C3B63441  17.584  19.129   6.866
 4926POPC   C4B63442  17.609  19.111   7.274
 4927POPC   NC363443  17.868  42.807   5.258
 4927POPC   PO463444  18.391  43.219   5.523
 4927POPC   GL163445  18.500  42.960   5.866
 4927POPC   GL263446  18.234  43.184   6.017
 4927POPC   C1A63447  18.518  42.916   6.324
 4927POPC   D2A63448  18.287  43.183   6.607
 4927POPC   C3A63449  18.378  42.995   7.004
 4927POPC   C4A63450  18.116  42.855   7.309
 4927POPC   C1B63451  18.468  43.546   6.188
 4927POPC   C2B63452  18.570  43.645   6.610
 4927POPC   C3B63453  18.405  43.496   7.037
 4927POPC   C4B63454  18.263  43.320   7.452
 4928POPC   NC363455   7.091  32.814   5.453
 4928POPC   PO463456   7.721  32.734   5.485
 4928POPC   GL163457   7.452  32.741   5.800
 4928POPC   GL263458   7.438  33.082   5.771
 4928POPC   C1A63459   7.255  32.838   6.183
 4928POPC   D2A63460   7.519  32.871   6.524
 4928POPC   C3A63461   7.472  32.703   6.912
 4928POPC   C4A63462   7.668  32.805   7.294
 4928POPC   C1B63463   7.524  33.287   6.165
 4928POPC   C2B63464   7.362  33.363   6.559
 4928POPC   C3B63465   7.443  33.212   6.959
 4928POPC   C4B63466   7.164  32.965   7.206
 4929POPC   NC363467  22.637  35.774   5.175
 4929POPC   PO463468  22.915  35.078   5.302
 4929POPC   GL163469  22.815  35.288   5.703
 4929POPC   GL263470  22.817  35.659   5.666
 4929POPC   C1A63471  22.905  35.200   6.166
 4929POPC   D2A63472  22.794  35.407   6.583
 4929POPC   C3A63473  22.630  35.159   6.923
 4929POPC   C4A63474  22.924  35.035   7.228
 4929POPC   C1B63475  22.750  35.685   6.115
 4929POPC   C2B63476  22.701  35.906   6.502
 4929POPC   C3B63477  22.857  35.832   6.918
 4929POPC   C4B63478  22.802  35.553   7.244
 4930POPC   NC363479  18.087  17.487   5.379
 4930POPC   PO463480  18.692  17.839   5.423
 4930POPC   GL163481  18.390  17.702   5.749
 4930POPC   GL263482  18.299  17.382   5.859
 4930POPC   C1A63483  18.432  17.747   6.203
 4930POPC   D2A63484  18.381  17.752   6.649
 4930POPC   C3A63485  18.527  17.422   6.904
 4930POPC   C4A63486  18.418  17.287   7.317
 4930POPC   C1B63487  18.011  17.278   6.165
 4930POPC   C2B63488  17.975  17.438   6.566
 4930POPC   C3B63489  18.050  17.211   6.926
 4930POPC   C4B63490  17.925  17.221   7.316
 4931POPC   NC363491  14.976  17.056   5.456
 4931POPC   PO463492  15.359  17.608   5.336
 4931POPC   GL163493  15.274  17.679   5.796
 4931POPC   GL263494  14.947  17.485   5.771
 4931POPC   C1A63495  15.346  17.682   6.289
 4931POPC   D2A63496  15.451  17.818   6.716
 4931POPC   C3A63497  15.365  17.577   7.079
 4931POPC   C4A63498  15.398  17.629   7.526
 4931POPC   C1B63499  14.950  17.356   6.203
 4931POPC   C2B63500  14.976  17.504   6.616
 4931POPC   C3B63501  14.873  17.392   7.033
 4931POPC   C4B63502  15.043  17.273   7.430
 4932POPC   NC363503  13.506   7.028   5.095
 4932POPC   PO463504  13.797   7.454   5.571
 4932POPC   GL163505  13.671   7.476   5.980
 4932POPC   GL263506  13.351   7.432   5.964
 4932POPC   C1A63507  13.556   7.454   6.421
 4932POPC   D2A63508  13.790   7.507   6.754
 4932POPC   C3A63509  13.649   7.403   7.130
 4932POPC   C4A63510  14.030   7.479   7.333
 4932POPC   C1B63511  13.369   7.014   6.265
 4932POPC   C2B63512  13.373   7.057   6.736
 4932POPC   C3B63513  13.124   7.048   7.118
 4932POPC   C4B63514  13.293   7.276   7.487
 4933POPC   NC363515   1.094   1.760   4.926
 4933POPC   PO463516   1.415   1.714   5.515
 4933POPC   GL163517   1.272   1.963   5.826
 4933POPC   GL263518   0.917   2.115   5.781
 4933POPC   C1A63519   1.417   1.852   6.224
 4933POPC   D2A63520   1.275   1.870   6.625
 4933POPC   C3A63521   1.387   1.922   7.026
 4933POPC   C4A63522   1.316   2.307   7.182
 4933POPC   C1B63523   1.002   2.153   6.240
 4933POPC   C2B63524   0.839   2.176   6.658
 4933POPC   C3B63525   0.807   2.153   7.087
 4933POPC   C4B63526   0.943   1.822   7.341
 4934POPC   NC363527  27.431  25.435   5.267
 4934POPC   PO463528  28.053  25.367   5.502
 4934POPC   GL163529  27.877  25.485   5.885
 4934POPC   GL263530  27.565  25.550   5.750
 4934POPC   C1A63531  27.774  25.279   6.306
 4934POPC   D2A63532  27.525  24.935   6.529
 4934POPC   C3A63533  27.381  25.027   6.950
 4934POPC   C4A63534  27.547  24.947   7.365
 4934POPC   C1B63535  27.298  25.366   6.052
 4934POPC   C2B63536  27.285  25.398   6.485
 4934POPC   C3B63537  27.218  25.507   6.886
 4934POPC   C4B63538  27.412  25.441   7.277
 4935POPC   NC363539  43.522  30.559   5.358
 4935POPC   PO463540  42.981  31.035   5.436
 4935POPC   GL163541  43.060  30.846   5.808
 4935POPC   GL263542  43.116  30.531   5.794
 4935POPC   C1A63543  43.238  30.947   6.197
 4935POPC   D2A63544  43.192  30.721   6.556
 4935POPC   C3A63545  42.992  30.795   6.922
 4935POPC   C4A63546  43.050  30.663   7.338
 4935POPC   C1B63547  43.326  30.377   6.189
 4935POPC   C2B63548  43.282  30.242   6.653
 4935POPC   C3B63549  43.438  30.506   7.027
 4935POPC   C4B63550  43.484  30.506   7.508
 4936POPC   NC363551  19.623  40.744   5.297
 4936POPC   PO463552  20.006  40.356   5.682
 4936POPC   GL163553  19.950  40.822   5.705
 4936POPC   GL263554  19.616  40.918   5.787
 4936POPC   C1A63555  20.042  41.073   6.079
 4936POPC   D2A63556  20.145  40.848   6.455
 4936POPC   C3A63557  20.066  41.015   6.857
 4936POPC   C4A63558  20.179  40.892   7.271
 4936POPC   C1B63559  19.702  40.684   6.165
 4936POPC   C2B63560  19.668  40.776   6.600
 4936POPC   C3B63561  19.728  40.646   7.021
 4936POPC   C4B63562  19.711  40.691   7.452
 4937POPC   NC363563  37.788   6.200   5.601
 4937POPC   PO463564  37.705   6.694   5.171
 4937POPC   GL163565  37.628   6.701   5.665
 4937POPC   GL263566  37.924   6.606   5.870
 4937POPC   C1A63567  37.578   6.843   6.151
 4937POPC   D2A63568  37.738   6.983   6.576
 4937POPC   C3A63569  37.600   6.811   6.982
 4937POPC   C4A63570  37.773   6.880   7.384
 4937POPC   C1B63571  38.038   6.634   6.312
 4937POPC   C2B63572  37.911   6.497   6.712
 4937POPC   C3B63573  37.998   6.472   7.154
 4937POPC   C4B63574  37.887   6.392   7.583
 4938POPC   NC363575  36.752  22.630   5.369
 4938POPC   PO463576  37.150  23.076   5.180
 4938POPC   GL163577  37.088  23.177   5.644
 4938POPC   GL263578  36.787  22.985   5.773
 4938POPC   C1A63579  37.054  23.218   6.140
 4938POPC   D2A63580  37.093  23.033   6.565
 4938POPC   C3A63581  36.928  23.034   6.984
 4938POPC   C4A63582  37.055  22.971   7.440
 4938POPC   C1B63583  36.805  22.758   6.213
 4938POPC   C2B63584  36.859  22.575   6.663
 4938POPC   C3B63585  36.945  22.539   7.158
 4938POPC   C4B63586  36.744  22.613   7.594
 4939POPC   NC363587  10.450  37.406   5.554
 4939POPC   PO463588  10.625  38.051   5.458
 4939POPC   GL163589  10.700  37.774   5.817
 4939POPC   GL263590  10.348  37.750   5.910
 4939POPC   C1A63591  10.777  37.683   6.270
 4939POPC   D2A63592  10.629  37.825   6.746
 4939POPC   C3A63593  10.557  37.708   7.219
 4939POPC   C4A63594  10.720  37.916   7.613
 4939POPC   C1B63595  10.340  37.422   6.215
 4939POPC   C2B63596  10.525  37.347   6.616
 4939POPC   C3B63597  10.262  37.381   6.948
 4939POPC   C4B63598  10.289  37.291   7.349
 4940POPC   NC363599  29.500  36.849   5.411
 4940POPC   PO463600  28.858  36.974   5.097
 4940POPC   GL163601  29.051  36.642   5.536
 4940POPC   GL263602  28.840  36.595   5.834
 4940POPC   C1A63603  29.298  36.785   6.025
 4940POPC   D2A63604  29.219  37.056   6.441
 4940POPC   C3A63605  29.266  36.847   6.851
 4940POPC   C4A63606  29.464  36.936   7.244
 4940POPC   C1B63607  28.784  36.863   6.239
 4940POPC   C2B63608  28.778  36.826   6.696
 4940POPC   C3B63609  28.857  37.073   7.079
 4940POPC   C4B63610  28.973  36.929   7.498
 4941POPC   NC363611  41.951  21.013   5.039
 4941POPC   PO463612  41.579  20.564   5.473
 4941POPC   GL163613  41.568  20.724   5.836
 4941POPC   GL263614  41.873  20.618   5.916
 4941POPC   C1A63615  41.280  20.836   6.167
 4941POPC   D2A63616  41.078  20.586   6.467
 4941POPC   C3A63617  41.328  20.589   6.824
 4941POPC   C4A63618  41.269  20.514   7.252
 4941POPC   C1B63619  41.647  20.450   6.275
 4941POPC   C2B63620  41.827  20.381   6.671
 4941POPC   C3B63621  41.736  20.439   7.069
 4941POPC   C4B63622  41.697  20.771   7.353
 4942POPC   NC363623  30.390  21.091   5.513
 4942POPC   PO463624  29.800  21.434   5.356
 4942POPC   GL163625  29.788  21.534   5.787
 4942POPC   GL263626  29.988  21.214   5.856
 4942POPC   C1A63627  29.994  21.598   6.198
 4942POPC   D2A63628  30.211  21.560   6.598
 4942POPC   C3A63629  29.936  21.551   6.957
 4942POPC   C4A63630  29.889  21.467   7.394
 4942POPC   C1B63631  30.132  21.130   6.306
 4942POPC   C2B63632  30.115  21.086   6.775
 4942POPC   C3B63633  30.016  21.042   7.175
 4942POPC   C4B63634  29.995  20.995   7.619
 4943POPC   NC363635   0.437  21.588   5.201
 4943POPC   PO463636   0.865  21.303   5.612
 4943POPC   GL163637   0.680  21.398   5.942
 4943POPC   GL263638   0.388  21.517   5.746
 4943POPC   C1A63639   0.642  21.264   6.383
 4943POPC   D2A63640   0.395  21.166   6.756
 4943POPC   C3A63641   0.561  21.315   7.125
 4943POPC   C4A63642   0.756  21.623   7.337
 4943POPC   C1B63643   0.216  21.428   6.182
 4943POPC   C2B63644   0.014  21.547   6.592
 4943POPC   C3B63645   0.067  21.456   7.035
 4943POPC   C4B63646   0.125  21.069   7.266
 4944POPC   NC363647   4.232  43.489   5.528
 4944POPC   PO463648   4.506  42.904   5.223
 4944POPC   GL163649   4.445  43.000   5.670
 4944POPC   GL263650   4.089  42.950   5.810
 4944POPC   C1A63651   4.525  42.889   6.106
 4944POPC   D2A63652   4.621  42.789   6.559
 4944POPC   C3A63653   4.277  42.869   6.862
 4944POPC   C4A63654   4.302  43.178   7.195
 4944POPC   C1B63655   4.083  43.131   6.256
 4944POPC   C2B63656   4.082  43.320   6.704
 4944POPC   C3B63657   3.898  43.463   7.141
 4944POPC   C4B63658   3.946  43.546   7.634
 4945POPC   NC363659  36.380  27.818   5.380
 4945POPC   PO463660  35.744  27.590   5.239
 4945POPC   GL163661  36.027  27.518   5.630
 4945POPC   GL263662  36.076  27.833   5.804
 4945POPC   C1A63663  36.218  27.303   6.045
 4945POPC   D2A63664  36.070  27.304   6.509
 4945POPC   C3A63665  36.387  27.434   6.837
 4945POPC   C4A63666  36.510  27.444   7.263
 4945POPC   C1B63667  36.309  27.789   6.194
 4945POPC   C2B63668  36.419  28.120   6.485
 4945POPC   C3B63669  36.477  28.172   6.899
 4945POPC   C4B63670  36.310  27.922   7.224
 4946POPC   NC363671  28.953  30.886   5.433
 4946POPC   PO463672  29.591  30.677   5.400
 4946POPC   GL163673  29.305  30.641   5.755
 4946POPC   GL263674  29.278  31.001   5.835
 4946POPC   C1A63675  29.148  30.481   6.177
 4946POPC   D2A63676  29.122  30.256   6.603
 4946POPC   C3A63677  29.032  30.498   7.002
 4946POPC   C4A63678  29.009  30.473   7.477
 4946POPC   C1B63679  28.932  30.986   6.151
 4946POPC   C2B63680  29.020  30.836   6.568
 4946POPC   C3B63681  29.290  30.939   6.915
 4946POPC   C4B63682  29.165  30.925   7.327
 4947POPC   NC363683   0.095  29.414   5.559
 4947POPC   PO463684   0.641  28.976   5.553
 4947POPC   GL163685   0.454  29.178   5.882
 4947POPC   GL263686   0.542  29.474   5.833
 4947POPC   C1A63687   0.241  29.156   6.292
 4947POPC   D2A63688   0.157  28.974   6.725
 4947POPC   C3A63689   0.233  29.160   7.153
 4947POPC   C4A63690   0.511  29.156   7.530
 4947POPC   C1B63691   0.675  29.476   6.231
 4947POPC   C2B63692   0.645  29.262   6.614
 4947POPC   C3B63693   0.617  29.435   7.002
 4947POPC   C4B63694   0.739  29.603   7.404
 4948POPC   NC363695  31.611  12.249   5.557
 4948POPC   PO463696  31.093  11.837   5.313
 4948POPC   GL163697  31.375  11.762   5.693
 4948POPC   GL263698  31.746  11.738   5.682
 4948POPC   C1A63699  31.363  11.949   6.121
 4948POPC   D2A63700  31.291  12.182   6.495
 4948POPC   C3A63701  31.103  12.003   6.849
 4948POPC   C4A63702  31.252  11.956   7.279
 4948POPC   C1B63703  31.705  11.579   6.099
 4948POPC   C2B63704  31.527  11.608   6.504
 4948POPC   C3B63705  31.542  11.756   6.907
 4948POPC   C4B63706  31.756  12.032   7.192
 4949POPC   NC363707  40.172  40.456   5.140
 4949POPC   PO463708  39.724  40.959   5.367
 4949POPC   GL163709  39.885  40.764   5.815
 4949POPC   GL263710  40.214  40.567   5.801
 4949POPC   C1A63711  40.195  40.935   6.169
 4949POPC   D2A63712  40.314  40.742   6.590
 4949POPC   C3A63713  40.194  40.826   7.013
 4949POPC   C4A63714  40.198  41.166   7.336
 4949POPC   C1B63715  40.023  40.458   6.210
 4949POPC   C2B63716  39.789  40.456   6.574
 4949POPC   C3B63717  39.760  40.576   6.982
 4949POPC   C4B63718  39.997  40.495   7.361
 4950POPC   NC363719  34.493  38.084   5.156
 4950POPC   PO463720  34.850  37.598   5.476
 4950POPC   GL163721  34.760  37.451   5.862
 4950POPC   GL263722  34.424  37.476   5.933
 4950POPC   C1A63723  34.717  37.731   6.246
 4950POPC   D2A63724  34.446  37.690   6.555
 4950POPC   C3A63725  34.622  37.723   6.923
 4950POPC   C4A63726  34.491  37.663   7.342
 4950POPC   C1B63727  34.234  37.264   6.310
 4950POPC   C2B63728  34.250  37.275   6.778
 4950POPC   C3B63729  34.183  37.273   7.231
 4950POPC   C4B63730  34.324  37.318   7.669
 4951POPC   NC363731  11.798  40.157   5.339
 4951POPC   PO463732  12.489  40.062   5.236
 4951POPC   GL163733  12.320  40.083   5.661
 4951POPC   GL263734  12.010  39.892   5.733
 4951POPC   C1A63735  12.301  40.033   6.117
 4951POPC   D2A63736  12.121  39.829   6.464
 4951POPC   C3A63737  11.986  40.146   6.769
 4951POPC   C4A63738  12.139  40.170   7.183
 4951POPC   C1B63739  11.745  39.972   6.123
 4951POPC   C2B63740  11.612  39.853   6.557
 4951POPC   C3B63741  11.751  39.622   6.907
 4951POPC   C4B63742  11.841  39.773   7.323
 4952POPC   NC363743  23.407  28.921   5.359
 4952POPC   PO463744  22.691  28.790   5.515
 4952POPC   GL163745  22.864  29.110   5.861
 4952POPC   GL263746  23.185  29.341   5.942
 4952POPC   C1A63747  22.985  29.066   6.306
 4952POPC   D2A63748  23.275  29.037   6.657
 4952POPC   C3A63749  23.027  29.029   7.035
 4952POPC   C4A63750  23.142  28.821   7.405
 4952POPC   C1B63751  23.054  29.571   6.338
 4952POPC   C2B63752  23.045  29.482   6.785
 4952POPC   C3B63753  23.051  29.507   7.252
 4952POPC   C4B63754  22.818  29.407   7.603
 4953POPC   NC363755  43.321  14.717   5.254
 4953POPC   PO463756  42.868  14.205   5.299
 4953POPC   GL163757  43.083  14.444   5.635
 4953POPC   GL263758  43.445  14.351   5.628
 4953POPC   C1A63759  43.050  14.512   6.097
 4953POPC   D2A63760  43.191  14.362   6.503
 4953POPC   C3A63761  42.980  14.461   6.895
 4953POPC   C4A63762  43.080  14.341   7.305
 4953POPC   C1B63763  43.480  14.717   5.925
 4953POPC   C2B63764  43.422  14.811   6.359
 4953POPC   C3B63765  43.366  14.789   6.786
 4953POPC   C4B63766  43.505  14.509   7.100
 4954POPC   NC363767  37.175   0.114   5.275
 4954POPC   PO463768  37.153   0.804   5.424
 4954POPC   GL163769  36.945   0.565   5.727
 4954POPC   GL263770  37.132   0.268   5.767
 4954POPC   C1A63771  36.759   0.433   6.118
 4954POPC   D2A63772  36.719   0.229   6.526
 4954POPC   C3A63773  36.785   0.478   6.910
 4954POPC   C4A63774  36.920   0.592   7.333
 4954POPC   C1B63775  37.053   0.018   6.138
 4954POPC   C2B63776  37.060  44.832   6.519
 4954POPC   C3B63777  37.080   0.016   6.897
 4954POPC   C4B63778  37.096  44.828   7.265
 4955POPC   NC363779  16.529  37.796   5.347
 4955POPC   PO463780  17.195  38.083   5.440
 4955POPC   GL163781  16.871  37.889   5.737
 4955POPC   GL263782  17.036  37.635   5.806
 4955POPC   C1A63783  16.658  37.650   6.139
 4955POPC   D2A63784  16.556  37.835   6.559
 4955POPC   C3A63785  16.589  37.661   7.004
 4955POPC   C4A63786  16.689  37.882   7.392
 4955POPC   C1B63787  17.143  37.793   6.214
 4955POPC   C2B63788  17.129  37.910   6.627
 4955POPC   C3B63789  17.102  37.750   7.015
 4955POPC   C4B63790  17.116  37.523   7.381
 4956POPC   NC363791   6.887  12.784   5.331
 4956POPC   PO463792   6.303  12.537   5.513
 4956POPC   GL163793   6.685  12.574   5.764
 4956POPC   GL263794   6.792  12.924   5.806
 4956POPC   C1A63795   6.799  12.488   6.185
 4956POPC   D2A63796   6.658  12.660   6.561
 4956POPC   C3A63797   6.872  12.683   6.919
 4956POPC   C4A63798   6.697  12.740   7.267
 4956POPC   C1B63799   6.684  13.036   6.225
 4956POPC   C2B63800   6.938  13.081   6.612
 4956POPC   C3B63801   6.882  13.175   7.058
 4956POPC   C4B63802   6.917  13.124   7.511
 4957POPC   NC363803  25.062   6.360   5.356
 4957POPC   PO463804  25.162   7.055   5.315
 4957POPC   GL163805  25.009   6.893   5.737
 4957POPC   GL263806  25.084   6.560   5.822
 4957POPC   C1A63807  25.209   6.900   6.190
 4957POPC   D2A63808  25.614   6.768   6.413
 4957POPC   C3A63809  25.597   6.688   6.875
 4957POPC   C4A63810  25.276   6.847   7.210
 4957POPC   C1B63811  25.284   6.352   6.163
 4957POPC   C2B63812  25.148   6.256   6.582
 4957POPC   C3B63813  25.224   6.365   7.011
 4957POPC   C4B63814  24.977   6.370   7.392
 4958POPC   NC363815  21.474  27.018   5.432
 4958POPC   PO463816  21.531  26.368   5.257
 4958POPC   GL163817  21.306  26.569   5.660
 4958POPC   GL263818  21.468  26.851   5.899
 4958POPC   C1A63819  21.243  26.468   6.120
 4958POPC   D2A63820  21.483  26.401   6.505
 4958POPC   C3A63821  21.455  26.620   6.875
 4958POPC   C4A63822  21.368  26.735   7.295
 4958POPC   C1B63823  21.593  26.886   6.353
 4958POPC   C2B63824  21.702  27.081   6.768
 4958POPC   C3B63825  21.438  27.253   7.125
 4958POPC   C4B63826  21.208  27.346   7.531
 4959POPC   NC363827  17.408  30.138   5.125
 4959POPC   PO463828  17.725  29.628   5.385
 4959POPC   GL163829  17.734  29.853   5.772
 4959POPC   GL263830  17.379  29.828   5.886
 4959POPC   C1A63831  17.743  29.778   6.222
 4959POPC   D2A63832  17.467  29.668   6.545
 4959POPC   C3A63833  17.761  29.718   6.844
 4959POPC   C4A63834  17.800  29.753   7.263
 4959POPC   C1B63835  17.387  30.110   6.296
 4959POPC   C2B63836  17.442  30.139   6.753
 4959POPC   C3B63837  17.319  29.857   7.061
 4959POPC   C4B63838  17.364  29.496   7.299
 4960POPC   NC363839  11.424  37.276   5.431
 4960POPC   PO463840  11.226  36.615   5.256
 4960POPC   GL163841  11.266  36.649   5.725
 4960POPC   GL263842  11.218  37.014   5.821
 4960POPC   C1A63843  11.545  36.708   6.102
 4960POPC   D2A63844  11.601  36.954   6.477
 4960POPC   C3A63845  11.590  36.731   6.875
 4960POPC   C4A63846  11.542  36.685   7.309
 4960POPC   C1B63847  11.053  36.937   6.218
 4960POPC   C2B63848  11.123  36.998   6.674
 4960POPC   C3B63849  11.115  36.901   7.104
 4960POPC   C4B63850  11.210  37.036   7.509
 4961POPC   NC363851   8.838  40.877   5.085
 4961POPC   PO463852   9.189  40.478   5.482
 4961POPC   GL163853   8.923  40.647   5.781
 4961POPC   GL263854   8.862  40.974   5.607
 4961POPC   C1A63855   8.829  40.475   6.223
 4961POPC   D2A63856   8.619  40.467   6.650
 4961POPC   C3A63857   8.858  40.588   7.001
 4961POPC   C4A63858   9.134  40.581   7.370
 4961POPC   C1B63859   8.946  41.085   6.067
 4961POPC   C2B63860   8.745  40.961   6.446
 4961POPC   C3B63861   8.725  41.080   6.877
 4961POPC   C4B63862   8.744  40.969   7.302
 4962POPC   NC363863  37.142  24.994   5.516
 4962POPC   PO463864  36.534  25.306   5.442
 4962POPC   GL163865  36.788  25.393   5.840
 4962POPC   GL263866  37.135  25.445   5.903
 4962POPC   C1A63867  36.870  25.550   6.293
 4962POPC   D2A63868  37.096  25.618   6.649
 4962POPC   C3A63869  36.956  25.297   6.851
 4962POPC   C4A63870  36.815  25.300   7.242
 4962POPC   C1B63871  37.010  25.055   6.195
 4962POPC   C2B63872  36.943  24.831   6.616
 4962POPC   C3B63873  37.057  24.852   7.066
 4962POPC   C4B63874  36.877  24.879   7.491
 4963POPC   NC363875  11.655  21.781   5.416
 4963POPC   PO463876  12.231  22.254   5.370
 4963POPC   GL163877  12.290  22.110   5.774
 4963POPC   GL263878  11.962  22.054   5.767
 4963POPC   C1A63879  12.390  22.170   6.202
 4963POPC   D2A63880  12.309  22.414   6.570
 4963POPC   C3A63881  12.231  22.132   6.884
 4963POPC   C4A63882  12.063  22.171   7.277
 4963POPC   C1B63883  11.842  21.983   6.165
 4963POPC   C2B63884  11.839  22.143   6.560
 4963POPC   C3B63885  11.674  22.070   6.948
 4963POPC   C4B63886  11.835  21.745   7.148
 4964POPC   NC363887  39.866   1.591   5.409
 4964POPC   PO463888  39.724   2.149   5.320
 4964POPC   GL163889  39.779   1.990   5.781
 4964POPC   GL263890  39.959   2.277   5.911
 4964POPC   C1A63891  39.911   1.898   6.272
 4964POPC   D2A63892  40.050   2.022   6.723
 4964POPC   C3A63893  40.157   1.815   7.146
 4964POPC   C4A63894  40.477   1.686   7.498
 4964POPC   C1B63895  39.584   2.278   6.205
 4964POPC   C2B63896  39.560   2.142   6.646
 4964POPC   C3B63897  39.672   2.025   7.095
 4964POPC   C4B63898  39.527   1.984   7.539
 4965POPC   NC363899  29.906  25.883   5.330
 4965POPC   PO463900  30.029  26.573   5.410
 4965POPC   GL163901  29.923  26.259   5.781
 4965POPC   GL263902  29.813  25.876   5.830
 4965POPC   C1A63903  30.039  26.115   6.217
 4965POPC   D2A63904  30.166  26.179   6.644
 4965POPC   C3A63905  29.822  26.191   6.951
 4965POPC   C4A63906  29.599  25.988   7.256
 4965POPC   C1B63907  30.104  25.615   6.114
 4965POPC   C2B63908  30.177  25.681   6.573
 4965POPC   C3B63909  29.917  25.675   6.921
 4965POPC   C4B63910  30.017  25.699   7.339
 4966POPC   NC363911  25.060   8.857   5.431
 4966POPC   PO463912  25.606   9.224   5.294
 4966POPC   GL163913  25.375   9.147   5.699
 4966POPC   GL263914  24.960   9.224   5.769
 4966POPC   C1A63915  25.280   8.902   6.061
 4966POPC   D2A63916  25.249   8.965   6.490
 4966POPC   C3A63917  25.358   8.703   6.814
 4966POPC   C4A63918  25.277   8.884   7.208
 4966POPC   C1B63919  24.832   9.090   6.207
 4966POPC   C2B63920  24.758   9.125   6.669
 4966POPC   C3B63921  24.825   9.133   7.130
 4966POPC   C4B63922  24.939   9.130   7.585
 4967POPC   NC363923   3.123  13.667   5.503
 4967POPC   PO463924   2.606  13.439   5.402
 4967POPC   GL163925   2.695  13.567   5.803
 4967POPC   GL263926   2.536  13.893   5.792
 4967POPC   C1A63927   2.627  13.370   6.207
 4967POPC   D2A63928   2.532  13.555   6.610
 4967POPC   C3A63929   2.677  13.293   6.952
 4967POPC   C4A63930   2.919  13.379   7.346
 4967POPC   C1B63931   2.752  13.874   6.213
 4967POPC   C2B63932   2.886  13.945   6.666
 4967POPC   C3B63933   2.671  14.038   7.062
 4967POPC   C4B63934   2.626  14.005   7.518
 4968POPC   NC363935  24.729  39.569   5.354
 4968POPC   PO463936  24.597  38.895   5.310
 4968POPC   GL163937  24.430  39.141   5.690
 4968POPC   GL263938  24.295  38.895   5.893
 4968POPC   C1A63939  24.398  39.324   6.141
 4968POPC   D2A63940  24.486  39.465   6.571
 4968POPC   C3A63941  24.633  39.226   6.919
 4968POPC   C4A63942  24.349  39.420   7.207
 4968POPC   C1B63943  24.201  38.788   6.277
 4968POPC   C2B63944  24.256  39.014   6.618
 4968POPC   C3B63945  24.215  38.928   7.046
 4968POPC   C4B63946  23.993  39.112   7.392
 4969POPC   NC363947  41.903  24.147   5.523
 4969POPC   PO463948  41.504  24.716   5.409
 4969POPC   GL163949  41.470  24.538   5.847
 4969POPC   GL263950  41.524  24.172   5.856
 4969POPC   C1A63951  41.237  24.346   6.209
 4969POPC   D2A63952  41.402  24.135   6.548
 4969POPC   C3A63953  41.299  24.273   6.962
 4969POPC   C4A63954  41.555  24.495   7.226
 4969POPC   C1B63955  41.822  24.106   6.179
 4969POPC   C2B63956  41.886  23.973   6.588
 4969POPC   C3B63957  41.860  24.172   6.955
 4969POPC   C4B63958  41.672  24.014   7.310
 4970POPC   NC363959  29.997  29.971   4.966
 4970POPC   PO463960  29.696  29.661   5.457
 4970POPC   GL163961  29.906  29.936   5.733
 4970POPC   GL263962  29.732  29.764   5.966
 4970POPC   C1A63963  29.892  30.209   6.112
 4970POPC   D2A63964  29.705  30.163   6.508
 4970POPC   C3A63965  29.920  30.088   6.865
 4970POPC   C4A63966  30.038  30.213   7.258
 4970POPC   C1B63967  29.908  29.689   6.345
 4970POPC   C2B63968  29.803  29.577   6.762
 4970POPC   C3B63969  29.957  29.681   7.180
 4970POPC   C4B63970  30.172  29.805   7.545
 4971POPC   NC363971  12.761  30.570   5.356
 4971POPC   PO463972  13.368  31.008   5.394
 4971POPC   GL163973  13.142  30.720   5.721
 4971POPC   GL263974  12.792  30.829   5.811
 4971POPC   C1A63975  12.980  30.435   6.081
 4971POPC   D2A63976  12.871  30.516   6.538
 4971POPC   C3A63977  13.080  30.429   6.948
 4971POPC   C4A63978  12.931  30.516   7.376
 4971POPC   C1B63979  12.951  30.946   6.238
 4971POPC   C2B63980  12.971  31.124   6.668
 4971POPC   C3B63981  12.816  30.905   7.042
 4971POPC   C4B63982  12.619  30.966   7.441
 4972POPC   NC363983  26.148   3.024   5.496
 4972POPC   PO463984  25.835   2.467   5.204
 4972POPC   GL163985  26.041   2.524   5.670
 4972POPC   GL263986  26.024   2.807   5.932
 4972POPC   C1A63987  26.352   2.438   6.045
 4972POPC   D2A63988  26.336   2.346   6.533
 4972POPC   C3A63989  26.163   2.644   6.859
 4972POPC   C4A63990  26.305   2.851   7.226
 4972POPC   C1B63991  25.892   2.500   6.264
 4972POPC   C2B63992  25.715   2.438   6.683
 4972POPC   C3B63993  25.728   2.510   7.152
 4972POPC   C4B63994  25.658   2.422   7.599
 4973POPC   NC363995  44.708  33.122   5.122
 4973POPC   PO463996  44.522  32.709   5.574
 4973POPC   GL163997  44.595  32.840   5.989
 4973POPC   GL263998  44.923  32.813   5.905
 4973POPC   C1A63999  44.565  33.169   6.296
 4973POPC   D2A64000  44.610  33.313   6.715
 4973POPC   C3A64001  44.434  33.114   7.066
 4973POPC   C4A64002  44.494  33.206   7.501
 4973POPC   C1B64003   0.051  32.966   6.266
 4973POPC   C2B64004  44.932  32.855   6.670
 4973POPC   C3B64005  44.921  33.044   7.049
 4973POPC   C4B64006  44.900  32.925   7.469
 4974POPC   NC364007  28.624  29.472   5.359
 4974POPC   PO464008  28.149  29.021   5.487
 4974POPC   GL164009  28.160  29.179   5.819
 4974POPC   GL264010  28.512  29.243   5.803
 4974POPC   C1A64011  28.184  29.055   6.225
 4974POPC   D2A64012  28.324  29.235   6.593
 4974POPC   C3A64013  28.077  29.080   6.915
 4974POPC   C4A64014  28.303  29.217   7.237
 4974POPC   C1B64015  28.702  29.213   6.188
 4974POPC   C2B64016  28.762  28.994   6.574
 4974POPC   C3B64017  28.733  29.282   6.927
 4974POPC   C4B64018  28.783  29.186   7.354
 4975POPC   NC364019  30.835  13.617   5.028
 4975POPC   PO464020  30.705  13.464   5.624
 4975POPC   GL164021  30.615  13.666   5.914
 4975POPC   GL264022  30.473  14.009   5.808
 4975POPC   C1A64023  30.530  13.461   6.289
 4975POPC   D2A64024  30.729  13.543   6.650
 4975POPC   C3A64025  30.539  13.493   7.043
 4975POPC   C4A64026  30.721  13.660   7.453
 4975POPC   C1B64027  30.516  13.987   6.279
 4975POPC   C2B64028  30.349  13.900   6.694
 4975POPC   C3B64029  30.509  13.993   7.109
 4975POPC   C4B64030  30.306  14.040   7.510
 4976POPC   NC364031  26.224  33.410   5.300
 4976POPC   PO464032  25.851  33.978   5.467
 4976POPC   GL164033  26.219  33.877   5.754
 4976POPC   GL264034  26.271  33.510   5.809
 4976POPC   C1A64035  26.413  33.990   6.170
 4976POPC   D2A64036  26.345  33.813   6.589
 4976POPC   C3A64037  26.167  33.974   6.978
 4976POPC   C4A64038  26.516  34.035   7.256
 4976POPC   C1B64039  26.075  33.579   6.210
 4976POPC   C2B64040  26.009  33.419   6.608
 4976POPC   C3B64041  25.977  33.441   7.019
 4976POPC   C4B64042  25.676  33.688   7.137
 4977POPC   NC364043  12.316  31.311   5.397
 4977POPC   PO464044  11.918  31.818   5.304
 4977POPC   GL164045  12.042  31.667   5.744
 4977POPC   GL264046  12.055  31.325   5.828
 4977POPC   C1A64047  12.259  31.625   6.158
 4977POPC   D2A64048  12.279  31.390   6.541
 4977POPC   C3A64049  12.177  31.653   6.843
 4977POPC   C4A64050  12.085  31.503   7.199
 4977POPC   C1B64051  11.918  31.210   6.253
 4977POPC   C2B64052  11.821  31.260   6.736
 4977POPC   C3B64053  11.737  31.122   7.180
 4977POPC   C4B64054  11.568  31.245   7.603
 4978POPC   NC364055  24.596  12.964   5.100
 4978POPC   PO464056  24.091  13.041   5.539
 4978POPC   GL164057  24.393  13.053   5.972
 4978POPC   GL264058  24.808  13.056   5.837
 4978POPC   C1A64059  24.348  12.708   6.279
 4978POPC   D2A64060  24.589  12.558   6.615
 4978POPC   C3A64061  24.385  12.653   6.993
 4978POPC   C4A64062  24.302  13.070   7.144
 4978POPC   C1B64063  24.829  12.869   6.222
 4978POPC   C2B64064  24.748  13.046   6.620
 4978POPC   C3B64065  24.843  12.934   7.038
 4978POPC   C4B64066  24.742  13.208   7.385
 4979POPC   NC364067  19.764  34.790   5.312
 4979POPC   PO464068  20.004  34.108   5.568
 4979POPC   GL164069  19.988  34.582   5.724
 4979POPC   GL264070  19.637  34.758   5.790
 4979POPC   C1A64071  19.990  34.742   6.148
 4979POPC   D2A64072  20.029  34.444   6.458
 4979POPC   C3A64073  19.904  34.475   6.856
 4979POPC   C4A64074  19.971  34.752   7.171
 4979POPC   C1B64075  19.554  34.998   6.155
 4979POPC   C2B64076  19.556  34.691   6.468
 4979POPC   C3B64077  19.457  34.707   6.888
 4979POPC   C4B64078  19.382  34.863   7.275
 4980POPC   NC364079  27.169  33.633   5.513
 4980POPC   PO464080  26.955  34.260   5.695
 4980POPC   GL164081  27.005  33.911   5.916
 4980POPC   GL264082  26.740  33.709   5.842
 4980POPC   C1A64083  26.928  33.837   6.314
 4980POPC   D2A64084  27.139  33.866   6.646
 4980POPC   C3A64085  26.911  33.856   6.983
 4980POPC   C4A64086  27.112  33.799   7.342
 4980POPC   C1B64087  26.590  33.475   6.216
 4980POPC   C2B64088  26.727  33.484   6.648
 4980POPC   C3B64089  26.491  33.542   7.029
 4980POPC   C4B64090  26.638  33.590   7.445
 4981POPC   NC364091  27.227  20.536   5.117
 4981POPC   PO464092  27.781  20.783   5.095
 4981POPC   GL164093  27.636  20.598   5.517
 4981POPC   GL264094  27.967  20.565   5.697
 4981POPC   C1A64095  27.547  20.598   6.000
 4981POPC   D2A64096  27.707  20.829   6.361
 4981POPC   C3A64097  27.608  20.805   6.819
 4981POPC   C4A64098  27.467  20.965   7.236
 4981POPC   C1B64099  28.048  20.481   6.159
 4981POPC   C2B64100  28.105  20.612   6.588
 4981POPC   C3B64101  28.062  20.454   6.989
 4981POPC   C4B64102  27.752  20.551   7.238
 4982POPC   NC364103  20.740   3.738   5.540
 4982POPC   PO464104  20.175   3.391   5.431
 4982POPC   GL164105  20.445   3.401   5.808
 4982POPC   GL264106  20.748   3.158   5.757
 4982POPC   C1A64107  20.422   3.699   6.196
 4982POPC   D2A64108  20.411   3.978   6.579
 4982POPC   C3A64109  20.597   3.796   6.968
 4982POPC   C4A64110  20.394   3.757   7.366
 4982POPC   C1B64111  20.752   3.281   6.217
 4982POPC   C2B64112  20.764   3.308   6.709
 4982POPC   C3B64113  20.866   3.250   7.162
 4982POPC   C4B64114  21.001   3.136   7.606
 4983POPC   NC364115  25.821  29.809   5.713
 4983POPC   PO464116  26.331  29.664   5.351
 4983POPC   GL164117  26.440  29.996   5.676
 4983POPC   GL264118  26.457  29.752   5.879
 4983POPC   C1A64119  26.311  30.166   6.135
 4983POPC   D2A64120  26.272  30.097   6.610
 4983POPC   C3A64121  25.891  29.974   6.804
 4983POPC   C4A64122  25.670  29.944   7.169
 4983POPC   C1B64123  26.222  29.655   6.266
 4983POPC   C2B64124  26.229  29.582   6.701
 4983POPC   C3B64125  26.255  29.726   7.120
 4983POPC   C4B64126  26.054  29.547   7.507
 4984POPC   NC364127  35.192  24.848   5.127
 4984POPC   PO464128  35.190  24.212   5.367
 4984POPC   GL164129  35.348  24.393   5.721
 4984POPC   GL264130  35.381  24.728   5.724
 4984POPC   C1A64131  35.291  24.338   6.138
 4984POPC   D2A64132  35.610  24.358   6.444
 4984POPC   C3A64133  35.489  24.275   6.839
 4984POPC   C4A64134  35.100  24.334   6.989
 4984POPC   C1B64135  35.598  24.747   6.098
 4984POPC   C2B64136  35.656  24.860   6.541
 4984POPC   C3B64137  35.479  24.767   6.943
 4984POPC   C4B64138  35.498  24.886   7.361
 4985POPC   NC364139   4.733  31.963   5.336
 4985POPC   PO464140   4.421  32.548   5.436
 4985POPC   GL164141   4.648  32.440   5.790
 4985POPC   GL264142   4.607  32.072   5.846
 4985POPC   C1A64143   4.495  32.456   6.216
 4985POPC   D2A64144   4.153  32.374   6.528
 4985POPC   C3A64145   4.256  32.294   6.947
 4985POPC   C4A64146   4.139  32.222   7.331
 4985POPC   C1B64147   4.404  31.974   6.270
 4985POPC   C2B64148   4.339  31.845   6.702
 4985POPC   C3B64149   4.589  31.930   7.094
 4985POPC   C4B64150   4.553  31.950   7.546
 4986POPC   NC364151  18.842  30.639   5.504
 4986POPC   PO464152  19.448  30.999   5.586
 4986POPC   GL164153  19.241  30.831   5.952
 4986POPC   GL264154  19.159  30.495   5.958
 4986POPC   C1A64155  19.114  30.805   6.414
 4986POPC   D2A64156  19.077  30.929   6.861
 4986POPC   C3A64157  19.354  30.713   7.113
 4986POPC   C4A64158  19.520  30.284   6.983
 4986POPC   C1B64159  18.818  30.390   6.257
 4986POPC   C2B64160  18.685  30.402   6.685
 4986POPC   C3B64161  18.854  30.524   7.089
 4986POPC   C4B64162  18.723  30.527   7.536
 4987POPC   NC364163  41.746  12.683   5.440
 4987POPC   PO464164  41.106  12.908   5.231
 4987POPC   GL164165  41.239  12.966   5.755
 4987POPC   GL264166  41.094  12.682   5.959
 4987POPC   C1A64167  41.567  12.816   6.120
 4987POPC   D2A64168  41.743  12.580   6.490
 4987POPC   C3A64169  41.852  12.766   6.888
 4987POPC   C4A64170  41.732  12.598   7.288
 4987POPC   C1B64171  41.120  13.006   6.298
 4987POPC   C2B64172  41.403  12.937   6.651
 4987POPC   C3B64173  41.428  12.977   7.099
 4987POPC   C4B64174  41.117  13.138   7.327
 4988POPC   NC364175  39.872  42.900   5.336
 4988POPC   PO464176  40.285  43.416   5.415
 4988POPC   GL164177  40.134  43.404   5.837
 4988POPC   GL264178  39.923  43.101   5.837
 4988POPC   C1A64179  40.146  43.283   6.267
 4988POPC   D2A64180  40.175  42.973   6.581
 4988POPC   C3A64181  40.212  43.127   6.998
 4988POPC   C4A64182  40.100  43.237   7.424
 4988POPC   C1B64183  39.893  42.712   6.111
 4988POPC   C2B64184  39.749  42.518   6.497
 4988POPC   C3B64185  39.849  42.697   6.880
 4988POPC   C4B64186  39.739  42.996   7.156
 4989POPC   NC364187  12.613   7.200   5.320
 4989POPC   PO464188  13.262   7.424   5.334
 4989POPC   GL164189  12.988   7.216   5.690
 4989POPC   GL264190  12.746   7.465   5.764
 4989POPC   C1A64191  12.945   7.285   6.191
 4989POPC   D2A64192  13.053   7.614   6.512
 4989POPC   C3A64193  13.180   7.534   6.951
 4989POPC   C4A64194  12.868   7.471   7.309
 4989POPC   C1B64195  12.458   7.377   6.134
 4989POPC   C2B64196  12.597   7.370   6.591
 4989POPC   C3B64197  12.523   7.240   7.019
 4989POPC   C4B64198  12.415   7.252   7.476
 4990POPC   NC364199  19.212  41.227   5.477
 4990POPC   PO464200  18.844  41.753   5.175
 4990POPC   GL164201  18.951  41.662   5.672
 4990POPC   GL264202  18.845  41.326   5.813
 4990POPC   C1A64203  19.074  41.798   6.118
 4990POPC   D2A64204  19.217  41.670   6.559
 4990POPC   C3A64205  19.053  41.864   6.954
 4990POPC   C4A64206  19.104  41.742   7.387
 4990POPC   C1B64207  19.011  41.290   6.243
 4990POPC   C2B64208  19.155  41.145   6.607
 4990POPC   C3B64209  18.961  41.339   6.910
 4990POPC   C4B64210  18.973  41.268   7.316
 4991POPC   NC364211  17.967  33.015   5.515
 4991POPC   PO464212  17.452  32.814   5.603
 4991POPC   GL164213  17.764  32.815   5.952
 4991POPC   GL264214  18.146  32.721   5.900
 4991POPC   C1A64215  17.658  33.050   6.344
 4991POPC   D2A64216  17.609  33.296   6.743
 4991POPC   C3A64217  17.575  33.039   7.102
 4991POPC   C4A64218  17.688  33.123   7.497
 4991POPC   C1B64219  18.146  32.898   6.337
 4991POPC   C2B64220  17.967  32.920   6.751
 4991POPC   C3B64221  17.975  32.683   7.116
 4991POPC   C4B64222  17.911  32.661   7.545
 4992POPC   NC364223  37.538  10.967   5.412
 4992POPC   PO464224  37.692  10.307   5.457
 4992POPC   GL164225  37.752  10.619   5.754
 4992POPC   GL264226  37.403  10.675   5.803
 4992POPC   C1A64227  37.864  10.563   6.180
 4992POPC   D2A64228  38.040  10.702   6.552
 4992POPC   C3A64229  37.890  10.449   6.865
 4992POPC   C4A64230  37.888  10.372   7.275
 4992POPC   C1B64231  37.368  10.386   6.145
 4992POPC   C2B64232  37.451  10.303   6.592
 4992POPC   C3B64233  37.372  10.483   7.000
 4992POPC   C4B64234  37.414  10.464   7.448
 4993POPC   NC364235   7.637  11.323   5.471
 4993POPC   PO464236   7.265  11.818   5.789
 4993POPC   GL164237   7.494  11.502   5.930
 4993POPC   GL264238   7.239  11.262   5.820
 4993POPC   C1A64239   7.455  11.272   6.293
 4993POPC   D2A64240   7.660  11.100   6.618
 4993POPC   C3A64241   7.526  11.315   6.949
 4993POPC   C4A64242   7.754  11.418   7.279
 4993POPC   C1B64243   7.110  10.925   6.105
 4993POPC   C2B64244   7.182  10.879   6.547
 4993POPC   C3B64245   7.030  11.069   6.925
 4993POPC   C4B64246   7.218  11.012   7.288
 4994POPC   NC364247  11.371  35.435   5.331
 4994POPC   PO464248  10.771  35.220   5.234
 4994POPC   GL164249  11.084  35.172   5.658
 4994POPC   GL264250  11.175  35.514   5.800
 4994POPC   C1A64251  11.134  35.165   6.161
 4994POPC   D2A64252  11.233  35.072   6.619
 4994POPC   C3A64253  11.069  35.280   6.958
 4994POPC   C4A64254  11.240  35.271   7.340
 4994POPC   C1B64255  11.320  35.676   6.213
 4994POPC   C2B64256  11.422  35.564   6.670
 4994POPC   C3B64257  11.630  35.401   7.064
 4994POPC   C4B64258  11.603  35.541   7.546
 4995POPC   NC364259  12.384  21.766   5.401
 4995POPC   PO464260  11.840  21.336   5.432
 4995POPC   GL164261  11.894  21.555   5.837
 4995POPC   GL264262  12.262  21.559   5.863
 4995POPC   C1A64263  12.022  21.536   6.294
 4995POPC   D2A64264  12.053  21.650   6.686
 4995POPC   C3A64265  11.793  21.333   6.863
 4995POPC   C4A64266  11.810  21.263   7.295
 4995POPC   C1B64267  12.349  21.164   6.175
 4995POPC   C2B64268  12.205  21.111   6.610
 4995POPC   C3B64269  12.291  21.280   7.001
 4995POPC   C4B64270  12.331  21.691   7.126
 4996POPC   NC364271  43.655  20.669   5.220
 4996POPC   PO464272  44.213  20.377   5.434
 4996POPC   GL164273  43.976  20.601   5.749
 4996POPC   GL264274  43.614  20.508   5.755
 4996POPC   C1A64275  43.882  20.766   6.179
 4996POPC   D2A64276  43.749  20.728   6.629
 4996POPC   C3A64277  44.083  20.798   6.947
 4996POPC   C4A64278  44.253  21.173   7.142
 4996POPC   C1B64279  43.476  20.414   6.205
 4996POPC   C2B64280  43.456  20.268   6.658
 4996POPC   C3B64281  43.651  20.448   7.062
 4996POPC   C4B64282  43.642  20.902   7.198
 4997POPC   NC364283  28.258  23.520   5.674
 4997POPC   PO464284  28.107  23.971   5.155
 4997POPC   GL164285  28.390  24.141   5.652
 4997POPC   GL264286  28.580  23.888   5.819
 4997POPC   C1A64287  28.284  24.031   6.206
 4997POPC   D2A64288  28.090  23.688   6.511
 4997POPC   C3A64289  28.048  23.751   7.008
 4997POPC   C4A64290  28.318  23.804   7.378
 4997POPC   C1B64291  28.646  23.704   6.259
 4997POPC   C2B64292  28.541  23.871   6.669
 4997POPC   C3B64293  28.506  23.562   6.943
 4997POPC   C4B64294  28.346  23.319   7.244
 4998POPC   NC364295   5.690  31.999   5.086
 4998POPC   PO464296   5.121  32.209   5.414
 4998POPC   GL164297   5.123  32.121   5.835
 4998POPC   GL264298   5.130  32.452   5.972
 4998POPC   C1A64299   5.301  31.898   6.201
 4998POPC   D2A64300   5.399  32.217   6.513
 4998POPC   C3A64301   5.128  32.120   6.843
 4998POPC   C4A64302   5.074  32.014   7.281
 4998POPC   C1B64303   4.913  32.202   6.297
 4998POPC   C2B64304   4.667  32.242   6.654
 4998POPC   C3B64305   4.765  32.413   7.054
 4998POPC   C4B64306   4.796  32.371   7.499
 4999POPC   NC364307   7.614  18.752   5.570
 4999POPC   PO464308   7.417  19.425   5.510
 4999POPC   GL164309   7.479  19.155   5.857
 4999POPC   GL264310   7.246  19.343   6.014
 4999POPC   C1A64311   7.501  18.977   6.285
 4999POPC   D2A64312   7.506  19.077   6.739
 4999POPC   C3A64313   7.549  18.726   7.003
 4999POPC   C4A64314   7.462  18.527   7.408
 4999POPC   C1B64315   7.278  19.422   6.426
 4999POPC   C2B64316   7.019  19.446   6.776
 4999POPC   C3B64317   7.147  19.198   7.106
 4999POPC   C4B64318   7.498  19.143   7.299
 5000POPC   NC364319  13.571  23.470   5.388
 5000POPC   PO464320  13.344  24.029   5.731
 5000POPC   GL164321  13.599  23.702   5.881
 5000POPC   GL264322  13.766  23.392   5.858
 5000POPC   C1A64323  13.616  23.633   6.309
 5000POPC   D2A64324  13.325  23.645   6.599
 5000POPC   C3A64325  13.585  23.817   6.886
 5000POPC   C4A64326  13.754  23.768   7.244
 5000POPC   C1B64327  13.913  23.222   6.240
 5000POPC   C2B64328  13.964  23.392   6.664
 5000POPC   C3B64329  13.938  23.325   7.112
 5000POPC   C4B64330  13.778  23.310   7.525
 5001POPC   NC364331  24.031  44.505   5.429
 5001POPC   PO464332  23.430  44.867   5.412
 5001POPC   GL164333  23.574  44.515   5.715
 5001POPC   GL264334  23.865  44.628   5.885
 5001POPC   C1A64335  23.510  44.380   6.177
 5001POPC   D2A64336  23.479  44.619   6.609
 5001POPC   C3A64337  23.490  44.427   7.002
 5001POPC   C4A64338  23.546  44.719   7.322
 5001POPC   C1B64339  23.829  44.800   6.272
 5001POPC   C2B64340  23.906  44.957   6.652
 5001POPC   C3B64341  23.924  44.818   7.019
 5001POPC   C4B64342  23.964   0.057   7.397
 5002POPC   NC364343  40.723  42.627   5.408
 5002POPC   PO464344  41.150  42.046   5.466
 5002POPC   GL164345  41.020  42.346   5.748
 5002POPC   GL264346  40.699  42.193   5.731
 5002POPC   C1A64347  40.837  42.451   6.139
 5002POPC   D2A64348  40.808  42.267   6.537
 5002POPC   C3A64349  40.831  42.464   6.946
 5002POPC   C4A64350  40.857  42.384   7.391
 5002POPC   C1B64351  40.629  41.965   6.138
 5002POPC   C2B64352  40.359  41.985   6.495
 5002POPC   C3B64353  40.430  42.138   6.914
 5002POPC   C4B64354  40.363  42.243   7.354
 5003POPC   NC364355   6.871  21.244   5.438
 5003POPC   PO464356   6.270  21.600   5.511
 5003POPC   GL164357   6.495  21.349   5.831
 5003POPC   GL264358   6.877  21.283   5.930
 5003POPC   C1A64359   6.503  21.438   6.275
 5003POPC   D2A64360   6.491  21.216   6.652
 5003POPC   C3A64361   6.612  21.419   7.036
 5003POPC   C4A64362   6.337  21.697   7.229
 5003POPC   C1B64363   6.892  21.094   6.329
 5003POPC   C2B64364   6.977  21.392   6.667
 5003POPC   C3B64365   7.125  21.472   7.080
 5003POPC   C4B64366   6.983  21.136   7.288
 5004POPC   NC364367  25.215  37.931   5.249
 5004POPC   PO464368  24.871  37.517   5.709
 5004POPC   GL164369  25.229  37.544   5.952
 5004POPC   GL264370  25.437  37.797   5.846
 5004POPC   C1A64371  25.137  37.647   6.369
 5004POPC   D2A64372  24.832  37.522   6.642
 5004POPC   C3A64373  25.041  37.695   7.019
 5004POPC   C4A64374  25.126  37.649   7.470
 5004POPC   C1B64375  25.632  37.692   6.272
 5004POPC   C2B64376  25.596  37.551   6.726
 5004POPC   C3B64377  25.552  37.653   7.194
 5004POPC   C4B64378  25.488  37.986   7.563
 5005POPC   NC364379  31.802   2.173   4.954
 5005POPC   PO464380  31.117   2.223   5.119
 5005POPC   GL164381  31.336   1.974   5.530
 5005POPC   GL264382  31.119   1.968   5.820
 5005POPC   C1A64383  31.608   1.997   5.979
 5005POPC   D2A64384  31.832   2.061   6.388
 5005POPC   C3A64385  31.707   2.084   6.833
 5005POPC   C4A64386  31.782   1.742   7.129
 5005POPC   C1B64387  31.213   2.150   6.240
 5005POPC   C2B64388  31.320   1.864   6.547
 5005POPC   C3B64389  31.236   1.813   6.951
 5005POPC   C4B64390  30.980   2.107   7.171
 5006POPC   NC364391   5.056  35.041   5.539
 5006POPC   PO464392   5.344  35.686   5.432
 5006POPC   GL164393   5.162  35.511   5.839
 5006POPC   GL264394   4.916  35.269   5.955
 5006POPC   C1A64395   5.340  35.289   6.225
 5006POPC   D2A64396   5.517  35.239   6.638
 5006POPC   C3A64397   5.352  35.482   7.039
 5006POPC   C4A64398   5.170  35.566   7.500
 5006POPC   C1B64399   4.845  35.532   6.313
 5006POPC   C2B64400   4.692  35.644   6.749
 5006POPC   C3B64401   4.822  35.477   7.143
 5006POPC   C4B64402   4.762  35.254   7.553
 5007POPC   NC364403  37.785  13.903   5.025
 5007POPC   PO464404  37.960  13.414   5.490
 5007POPC   GL164405  37.728  13.696   5.731
 5007POPC   GL264406  37.903  13.990   5.809
 5007POPC   C1A64407  37.609  13.567   6.141
 5007POPC   D2A64408  37.347  13.330   6.423
 5007POPC   C3A64409  37.470  13.341   6.842
 5007POPC   C4A64410  37.476  13.493   7.253
 5007POPC   C1B64411  38.088  13.759   6.154
 5007POPC   C2B64412  37.986  13.835   6.574
 5007POPC   C3B64413  37.850  13.670   6.951
 5007POPC   C4B64414  37.997  13.549   7.360
 5008POPC   NC364415   0.051  31.777   5.355
 5008POPC   PO464416   0.421  31.273   5.142
 5008POPC   GL164417   0.359  31.299   5.650
 5008POPC   GL264418   0.107  31.116   5.845
 5008POPC   C1A64419   0.460  31.537   6.048
 5008POPC   D2A64420   0.649  31.579   6.483
 5008POPC   C3A64421   0.461  31.486   6.879
 5008POPC   C4A64422   0.365  31.732   7.231
 5008POPC   C1B64423   0.116  31.239   6.289
 5008POPC   C2B64424   0.016  31.283   6.720
 5008POPC   C3B64425   0.196  31.103   7.093
 5008POPC   C4B64426   0.578  31.138   7.318
 5009POPC   NC364427  40.266  30.226   5.340
 5009POPC   PO464428  39.901  29.724   5.592
 5009POPC   GL164429  40.063  29.823   5.948
 5009POPC   GL264430  40.399  29.960   5.886
 5009POPC   C1A64431  40.131  29.614   6.343
 5009POPC   D2A64432  40.232  29.684   6.788
 5009POPC   C3A64433  40.027  29.476   7.133
 5009POPC   C4A64434  39.998  29.692   7.532
 5009POPC   C1B64435  40.259  30.116   6.312
 5009POPC   C2B64436  39.995  30.110   6.686
 5009POPC   C3B64437  40.045  30.029   7.146
 5009POPC   C4B64438  40.278  30.115   7.552
 5010POPC   NC364439  13.820  13.765   5.593
 5010POPC   PO464440  13.754  13.068   5.597
 5010POPC   GL164441  13.881  13.348   5.909
 5010POPC   GL264442  13.538  13.472   5.902
 5010POPC   C1A64443  13.862  13.454   6.372
 5010POPC   D2A64444  13.849  13.351   6.828
 5010POPC   C3A64445  13.810  13.676   7.119
 5010POPC   C4A64446  13.938  13.803   7.509
 5010POPC   C1B64447  13.451  13.752   6.243
 5010POPC   C2B64448  13.461  13.649   6.651
 5010POPC   C3B64449  13.322  13.736   7.017
 5010POPC   C4B64450  13.500  14.114   7.143
 5011POPC   NC364451  27.106  11.005   5.520
 5011POPC   PO464452  26.754  11.588   5.341
 5011POPC   GL164453  26.776  11.382   5.764
 5011POPC   GL264454  27.089  11.517   5.794
 5011POPC   C1A64455  26.836  11.252   6.231
 5011POPC   D2A64456  26.732  11.002   6.639
 5011POPC   C3A64457  26.813  11.159   7.053
 5011POPC   C4A64458  26.562  11.329   7.385
 5011POPC   C1B64459  27.228  11.606   6.216
 5011POPC   C2B64460  27.128  11.536   6.640
 5011POPC   C3B64461  27.240  11.621   7.045
 5011POPC   C4B64462  27.073  11.425   7.422
 5012POPC   NC364463  35.895  17.684   5.316
 5012POPC   PO464464  36.587  17.916   5.517
 5012POPC   GL164465  36.122  17.859   5.742
 5012POPC   GL264466  35.954  17.479   5.774
 5012POPC   C1A64467  36.079  17.769   6.181
 5012POPC   D2A64468  36.166  17.397   6.439
 5012POPC   C3A64469  36.294  17.472   6.907
 5012POPC   C4A64470  36.306  17.614   7.376
 5012POPC   C1B64471  35.638  17.515   6.109
 5012POPC   C2B64472  35.699  17.579   6.536
 5012POPC   C3B64473  35.825  17.264   6.815
 5012POPC   C4B64474  35.944  17.267   7.240
 5013POPC   NC364475  19.213  13.320   5.424
 5013POPC   PO464476  18.857  13.955   5.471
 5013POPC   GL164477  18.930  13.652   5.751
 5013POPC   GL264478  19.273  13.785   5.813
 5013POPC   C1A64479  18.871  13.726   6.178
 5013POPC   D2A64480  19.062  13.530   6.521
 5013POPC   C3A64481  18.976  13.660   6.941
 5013POPC   C4A64482  18.825  13.717   7.360
 5013POPC   C1B64483  19.319  13.997   6.231
 5013POPC   C2B64484  19.353  13.915   6.694
 5013POPC   C3B64485  19.499  14.013   7.124
 5013POPC   C4B64486  19.236  14.009   7.515
 5014POPC   NC364487  31.844  38.500   5.370
 5014POPC   PO464488  31.234  38.278   5.308
 5014POPC   GL164489  31.458  38.282   5.748
 5014POPC   GL264490  31.181  38.165   6.010
 5014POPC   C1A64491  31.540  38.444   6.187
 5014POPC   D2A64492  31.332  38.236   6.553
 5014POPC   C3A64493  31.410  38.355   6.976
 5014POPC   C4A64494  31.643  38.722   7.082
 5014POPC   C1B64495  31.053  38.545   6.249
 5014POPC   C2B64496  31.151  38.710   6.712
 5014POPC   C3B64497  31.147  38.735   7.213
 5014POPC   C4B64498  31.182  38.500   7.632
 5015POPC   NC364499  19.169  40.229   5.526
 5015POPC   PO464500  18.843  40.904   5.442
 5015POPC   GL164501  18.953  40.669   5.785
 5015POPC   GL264502  19.138  40.911   5.947
 5015POPC   C1A64503  18.740  40.595   6.180
 5015POPC   D2A64504  18.768  40.831   6.562
 5015POPC   C3A64505  18.836  40.863   6.997
 5015POPC   C4A64506  18.769  40.675   7.340
 5015POPC   C1B64507  19.216  40.679   6.336
 5015POPC   C2B64508  19.228  40.643   6.787
 5015POPC   C3B64509  19.334  40.979   7.073
 5015POPC   C4B64510  19.361  41.039   7.528
 5016POPC   NC364511   2.492  33.966   5.353
 5016POPC   PO464512   2.894  33.552   5.424
 5016POPC   GL164513   2.734  33.775   5.783
 5016POPC   GL264514   2.672  34.158   5.786
 5016POPC   C1A64515   2.513  33.820   6.181
 5016POPC   D2A64516   2.593  33.855   6.640
 5016POPC   C3A64517   2.983  33.630   6.775
 5016POPC   C4A64518   2.943  33.335   7.141
 5016POPC   C1B64519   2.932  34.116   6.139
 5016POPC   C2B64520   3.040  34.106   6.562
 5016POPC   C3B64521   2.875  34.146   6.984
 5016POPC   C4B64522   2.699  33.789   7.173
 5017POPC   NC364523  32.066  15.065   5.448
 5017POPC   PO464524  32.668  15.272   5.521
 5017POPC   GL164525  32.438  15.305   5.877
 5017POPC   GL264526  32.133  15.126   5.962
 5017POPC   C1A64527  32.368  15.462   6.279
 5017POPC   D2A64528  32.195  15.529   6.686
 5017POPC   C3A64529  32.459  15.438   7.038
 5017POPC   C4A64530  32.487  14.991   7.204
 5017POPC   C1B64531  32.230  14.822   6.311
 5017POPC   C2B64532  32.194  14.832   6.777
 5017POPC   C3B64533  32.045  15.158   7.034
 5017POPC   C4B64534  31.908  14.923   7.348
 5018POPC   NC364535   9.628  11.821   5.497
 5018POPC   PO464536   9.568  11.143   5.263
 5018POPC   GL164537   9.860  11.318   5.591
 5018POPC   GL264538   9.645  11.453   5.849
 5018POPC   C1A64539  10.018  11.179   6.018
 5018POPC   D2A64540   9.747  11.227   6.412
 5018POPC   C3A64541   9.892  11.326   6.801
 5018POPC   C4A64542   9.952  11.239   7.206
 5018POPC   C1B64543   9.478  11.631   6.220
 5018POPC   C2B64544   9.434  11.600   6.639
 5018POPC   C3B64545   9.464  11.399   7.028
 5018POPC   C4B64546   9.434  11.655   7.360
 5019POPC   NC364547  10.722  41.697   5.539
 5019POPC   PO464548  10.109  42.136   5.495
 5019POPC   GL164549  10.334  41.860   5.854
 5019POPC   GL264550  10.634  41.993   5.977
 5019POPC   C1A64551  10.597  41.510   6.144
 5019POPC   D2A64552  10.678  41.157   6.403
 5019POPC   C3A64553  10.512  41.202   6.806
 5019POPC   C4A64554  10.603  41.423   7.173
 5019POPC   C1B64555  10.385  41.903   6.358
 5019POPC   C2B64556  10.548  41.688   6.687
 5019POPC   C3B64557  10.718  41.885   7.025
 5019POPC   C4B64558  10.408  42.177   7.207
 5020POPC   NC364559   1.918  38.497   5.534
 5020POPC   PO464560   1.708  37.889   5.753
 5020POPC   GL164561   1.689  38.328   5.955
 5020POPC   GL264562   2.061  38.533   6.007
 5020POPC   C1A64563   1.675  38.624   6.310
 5020POPC   D2A64564   2.073  38.572   6.504
 5020POPC   C3A64565   2.132  38.567   6.899
 5020POPC   C4A64566   1.776  38.662   7.137
 5020POPC   C1B64567   2.493  38.472   6.259
 5020POPC   C2B64568   2.644  38.238   6.631
 5020POPC   C3B64569   2.428  38.089   7.023
 5020POPC   C4B64570   1.978  38.154   7.156
 5021POPC   NC364571  35.065   6.718   5.521
 5021POPC   PO464572  35.535   6.288   5.361
 5021POPC   GL164573  35.553   6.555   5.718
 5021POPC   GL264574  35.287   6.346   5.842
 5021POPC   C1A64575  35.476   6.670   6.160
 5021POPC   D2A64576  35.239   6.604   6.537
 5021POPC   C3A64577  35.262   6.920   6.831
 5021POPC   C4A64578  35.477   6.874   7.178
 5021POPC   C1B64579  35.399   6.156   6.228
 5021POPC   C2B64580  35.599   6.238   6.543
 5021POPC   C3B64581  35.578   6.363   6.895
 5021POPC   C4B64582  35.560   6.094   7.198
 5022POPC   NC364583  10.747  25.497   5.335
 5022POPC   PO464584  10.417  24.993   5.202
 5022POPC   GL164585  10.350  25.227   5.602
 5022POPC   GL264586  10.699  25.248   5.777
 5022POPC   C1A64587  10.280  25.220   6.067
 5022POPC   D2A64588  10.557  25.089   6.408
 5022POPC   C3A64589  10.517  25.181   6.848
 5022POPC   C4A64590  10.298  25.053   7.199
 5022POPC   C1B64591  10.734  25.505   6.162
 5022POPC   C2B64592  10.911  25.458   6.588
 5022POPC   C3B64593  10.747  25.644   6.976
 5022POPC   C4B64594  10.637  25.424   7.349
 5023POPC   NC364595  11.836  40.966   5.291
 5023POPC   PO464596  12.463  40.707   5.385
 5023POPC   GL164597  12.095  40.565   5.604
 5023POPC   GL264598  12.033  40.879   5.769
 5023POPC   C1A64599  11.988  40.432   6.030
 5023POPC   D2A64600  12.081  40.618   6.449
 5023POPC   C3A64601  11.872  40.670   6.858
 5023POPC   C4A64602  12.041  40.655   7.278
 5023POPC   C1B64603  11.778  41.123   6.063
 5023POPC   C2B64604  11.700  41.001   6.480
 5023POPC   C3B64605  11.622  41.158   6.859
 5023POPC   C4B64606  11.669  41.075   7.279
 5024POPC   NC364607  44.641  28.659   5.140
 5024POPC   PO464608  44.671  29.216   5.498
 5024POPC   GL164609  44.687  29.266   5.903
 5024POPC   GL264610  44.383  29.444   5.965
 5024POPC   C1A64611  44.575  29.081   6.305
 5024POPC   D2A64612  44.444  29.045   6.741
 5024POPC   C3A64613  44.729  29.153   7.065
 5024POPC   C4A64614  44.578  29.103   7.469
 5024POPC   C1B64615  44.718  29.586   6.278
 5024POPC   C2B64616  44.669  29.850   6.593
 5024POPC   C3B64617  44.562  29.619   6.901
 5024POPC   C4B64618  44.387  29.519   7.252
 5025POPC   NC364619  36.425  34.583   5.406
 5025POPC   PO464620  36.953  34.116   5.440
 5025POPC   GL164621  37.007  34.402   5.779
 5025POPC   GL264622  36.757  34.695   5.797
 5025POPC   C1A64623  37.091  34.532   6.195
 5025POPC   D2A64624  37.278  34.644   6.554
 5025POPC   C3A64625  37.077  34.445   6.879
 5025POPC   C4A64626  37.098  34.717   7.210
 5025POPC   C1B64627  36.586  34.431   6.135
 5025POPC   C2B64628  36.664  34.426   6.590
 5025POPC   C3B64629  36.610  34.641   7.005
 5025POPC   C4B64630  36.629  34.693   7.447
 5026POPC   NC364631  33.342  24.673   5.299
 5026POPC   PO464632  32.905  24.103   5.178
 5026POPC   GL164633  33.062  24.327   5.612
 5026POPC   GL264634  33.354  24.469   5.791
 5026POPC   C1A64635  32.911  24.397   6.078
 5026POPC   D2A64636  32.686  24.383   6.479
 5026POPC   C3A64637  32.887  24.544   6.874
 5026POPC   C4A64638  33.090  24.613   7.275
 5026POPC   C1B64639  33.284  24.734   6.186
 5026POPC   C2B64640  33.356  24.746   6.646
 5026POPC   C3B64641  33.416  24.391   6.944
 5026POPC   C4B64642  33.565  24.390   7.363
 5027POPC   NC364643  10.087   6.955   5.190
 5027POPC   PO464644  10.674   6.511   5.309
 5027POPC   GL164645  10.695   6.479   5.773
 5027POPC   GL264646  11.006   6.565   5.843
 5027POPC   C1A64647  10.415   6.466   6.161
 5027POPC   D2A64648  10.226   6.544   6.566
 5027POPC   C3A64649  10.392   6.418   6.971
 5027POPC   C4A64650  10.480   6.790   7.212
 5027POPC   C1B64651  10.880   6.598   6.291
 5027POPC   C2B64652  10.764   6.687   6.716
 5027POPC   C3B64653  10.933   6.608   7.114
 5027POPC   C4B64654  10.798   6.496   7.514
 5028POPC   NC364655  21.832   5.614   5.701
 5028POPC   PO464656  21.264   5.786   5.354
 5028POPC   GL164657  21.373   5.785   5.824
 5028POPC   GL264658  21.645   6.019   5.923
 5028POPC   C1A64659  21.544   5.660   6.281
 5028POPC   D2A64660  21.542   5.851   6.697
 5028POPC   C3A64661  21.452   5.795   7.153
 5028POPC   C4A64662  21.244   5.973   7.537
 5028POPC   C1B64663  21.746   6.224   6.287
 5028POPC   C2B64664  21.846   6.265   6.701
 5028POPC   C3B64665  21.647   6.261   7.058
 5028POPC   C4B64666  21.731   6.170   7.471
 5029POPC   NC364667  32.870  37.779   5.260
 5029POPC   PO464668  33.439  37.406   5.395
 5029POPC   GL164669  33.229  37.590   5.759
 5029POPC   GL264670  32.937  37.806   5.767
 5029POPC   C1A64671  33.255  37.618   6.212
 5029POPC   D2A64672  32.991  37.693   6.572
 5029POPC   C3A64673  33.119  37.658   6.996
 5029POPC   C4A64674  33.040  37.946   7.334
 5029POPC   C1B64675  32.725  37.601   6.111
 5029POPC   C2B64676  32.501  37.510   6.499
 5029POPC   C3B64677  32.685  37.376   6.893
 5029POPC   C4B64678  32.739  37.539   7.318
 5030POPC   NC364679  13.031  37.160   5.492
 5030POPC   PO464680  12.702  36.596   5.462
 5030POPC   GL164681  12.593  36.747   5.848
 5030POPC   GL264682  12.903  36.893   5.897
 5030POPC   C1A64683  12.559  36.630   6.266
 5030POPC   D2A64684  12.646  36.825   6.695
 5030POPC   C3A64685  12.420  37.105   6.983
 5030POPC   C4A64686  12.446  37.069   7.436
 5030POPC   C1B64687  12.790  37.102   6.252
 5030POPC   C2B64688  13.031  37.139   6.622
 5030POPC   C3B64689  13.150  36.810   6.908
 5030POPC   C4B64690  12.836  36.836   7.199
 5031POPC   NC364691   6.898   1.293   5.426
 5031POPC   PO464692   6.203   1.158   5.471
 5031POPC   GL164693   6.536   1.234   5.799
 5031POPC   GL264694   6.738   0.943   5.775
 5031POPC   C1A64695   6.692   1.412   6.212
 5031POPC   D2A64696   6.509   1.579   6.610
 5031POPC   C3A64697   6.554   1.401   7.021
 5031POPC   C4A64698   6.233   1.156   7.245
 5031POPC   C1B64699   6.566   0.910   6.217
 5031POPC   C2B64700   6.748   1.070   6.644
 5031POPC   C3B64701   6.779   0.853   7.084
 5031POPC   C4B64702   6.964   0.698   7.522
 5032POPC   NC364703  22.758  25.032   5.456
 5032POPC   PO464704  23.196  24.470   5.527
 5032POPC   GL164705  22.911  24.686   5.818
 5032POPC   GL264706  22.602  24.508   5.870
 5032POPC   C1A64707  22.744  24.833   6.236
 5032POPC   D2A64708  22.915  24.673   6.642
 5032POPC   C3A64709  22.761  24.649   7.068
 5032POPC   C4A64710  23.130  24.413   7.160
 5032POPC   C1B64711  22.641  24.143   6.182
 5032POPC   C2B64712  22.635  23.981   6.645
 5032POPC   C3B64713  22.716  24.114   7.104
 5032POPC   C4B64714  22.629  24.356   7.497
 5033POPC   NC364715  38.854  34.713   5.492
 5033POPC   PO464716  39.452  34.515   5.147
 5033POPC   GL164717  39.345  34.481   5.632
 5033POPC   GL264718  39.204  34.749   5.889
 5033POPC   C1A64719  39.444  34.333   6.076
 5033POPC   D2A64720  39.304  34.611   6.452
 5033POPC   C3A64721  39.265  34.519   6.890
 5033POPC   C4A64722  39.370  34.688   7.295
 5033POPC   C1B64723  38.901  34.887   6.237
 5033POPC   C2B64724  38.881  34.846   6.707
 5033POPC   C3B64725  38.809  34.865   7.180
 5033POPC   C4B64726  38.846  34.541   7.502
 5034POPC   NC364727  15.438   5.840   5.194
 5034POPC   PO464728  16.032   5.944   5.234
 5034POPC   GL164729  15.765   5.858   5.656
 5034POPC   GL264730  15.603   5.520   5.638
 5034POPC   C1A64731  15.832   5.904   6.146
 5034POPC   D2A64732  16.106   5.854   6.559
 5034POPC   C3A64733  16.001   5.993   6.994
 5034POPC   C4A64734  15.807   6.142   7.388
 5034POPC   C1B64735  15.709   5.395   6.061
 5034POPC   C2B64736  15.706   5.521   6.486
 5034POPC   C3B64737  15.887   5.488   6.881
 5034POPC   C4B64738  15.783   5.216   7.172
 5035POPC   NC364739   7.893  40.868   5.413
 5035POPC   PO464740   8.529  40.653   5.344
 5035POPC   GL164741   8.275  40.775   5.742
 5035POPC   GL264742   8.492  40.907   5.940
 5035POPC   C1A64743   7.939  40.902   6.111
 5035POPC   D2A64744   7.753  40.745   6.549
 5035POPC   C3A64745   7.895  40.836   6.996
 5035POPC   C4A64746   7.899  40.962   7.470
 5035POPC   C1B64747   8.351  40.684   6.272
 5035POPC   C2B64748   8.284  40.856   6.666
 5035POPC   C3B64749   8.374  40.701   7.073
 5035POPC   C4B64750   8.452  40.582   7.502
 5036POPC   NC364751  34.576  18.875   5.411
 5036POPC   PO464752  34.757  19.538   5.355
 5036POPC   GL164753  34.644  19.266   5.778
 5036POPC   GL264754  34.629  18.891   5.903
 5036POPC   C1A64755  34.635  19.215   6.275
 5036POPC   D2A64756  34.841  19.130   6.676
 5036POPC   C3A64757  34.702  19.239   7.092
 5036POPC   C4A64758  34.783  19.226   7.529
 5036POPC   C1B64759  34.289  18.743   6.208
 5036POPC   C2B64760  34.139  18.744   6.593
 5036POPC   C3B64761  34.402  18.866   6.902
 5036POPC   C4B64762  34.524  18.802   7.313
 5037POPC   NC364763   9.755  25.417   5.428
 5037POPC   PO464764   9.847  24.737   5.411
 5037POPC   GL164765   9.800  24.994   5.794
 5037POPC   GL264766   9.591  25.307   5.878
 5037POPC   C1A64767   9.846  25.022   6.242
 5037POPC   D2A64768  10.068  25.226   6.568
 5037POPC   C3A64769   9.868  25.201   6.936
 5037POPC   C4A64770   9.826  24.901   7.192
 5037POPC   C1B64771   9.844  25.519   6.185
 5037POPC   C2B64772   9.901  25.705   6.598
 5037POPC   C3B64773   9.619  25.634   6.926
 5037POPC   C4B64774   9.410  25.449   7.283
 5038POPC   NC364775  24.210  29.503   5.226
 5038POPC   PO464776  24.662  29.001   5.468
 5038POPC   GL164777  24.600  29.175   5.862
 5038POPC   GL264778  24.519  29.481   5.766
 5038POPC   C1A64779  24.457  29.301   6.263
 5038POPC   D2A64780  24.497  29.047   6.616
 5038POPC   C3A64781  24.344  29.217   6.973
 5038POPC   C4A64782  24.462  29.112   7.373
 5038POPC   C1B64783  24.894  29.531   6.059
 5038POPC   C2B64784  24.889  29.533   6.514
 5038POPC   C3B64785  24.876  29.348   6.924
 5038POPC   C4B64786  24.849  29.450   7.356
 5039POPC   NC364787  36.420  10.836   5.414
 5039POPC   PO464788  37.103  10.691   5.321
 5039POPC   GL164789  36.928  10.473   5.723
 5039POPC   GL264790  36.607  10.641   5.842
 5039POPC   C1A64791  36.864  10.453   6.207
 5039POPC   D2A64792  36.999  10.600   6.600
 5039POPC   C3A64793  36.807  10.390   6.921
 5039POPC   C4A64794  36.930  10.444   7.311
 5039POPC   C1B64795  36.621  10.938   6.220
 5039POPC   C2B64796  36.627  11.008   6.679
 5039POPC   C3B64797  36.759  10.875   7.070
 5039POPC   C4B64798  36.593  10.792   7.476
 5040POPC   NC364799  44.467  38.284   5.474
 5040POPC   PO464800  44.876  38.776   5.629
 5040POPC   GL164801  44.848  38.356   5.828
 5040POPC   GL264802  44.546  38.439   5.954
 5040POPC   C1A64803  44.843  38.160   6.241
 5040POPC   D2A64804  44.662  38.469   6.486
 5040POPC   C3A64805  44.781  38.504   6.845
 5040POPC   C4A64806  44.857  38.523   7.206
 5040POPC   C1B64807  44.344  38.725   6.195
 5040POPC   C2B64808  44.192  38.764   6.620
 5040POPC   C3B64809  44.339  38.705   7.030
 5040POPC   C4B64810  44.393  38.519   7.461
 5041POPC   NC364811   3.082  12.149   4.988
 5041POPC   PO464812   2.583  11.837   5.412
 5041POPC   GL164813   2.662  12.003   5.779
 5041POPC   GL264814   2.959  12.012   5.821
 5041POPC   C1A64815   2.548  12.165   6.141
 5041POPC   D2A64816   2.571  12.484   6.444
 5041POPC   C3A64817   2.517  12.314   6.869
 5041POPC   C4A64818   2.743  12.365   7.248
 5041POPC   C1B64819   3.041  12.161   6.164
 5041POPC   C2B64820   2.876  12.044   6.560
 5041POPC   C3B64821   3.088  12.212   6.901
 5041POPC   C4B64822   3.251  12.075   7.274
 5042POPC   NC364823  26.199  42.854   5.668
 5042POPC   PO464824  25.879  43.498   5.547
 5042POPC   GL164825  25.794  43.165   5.847
 5042POPC   GL264826  25.538  42.921   5.724
 5042POPC   C1A64827  25.935  43.174   6.285
 5042POPC   D2A64828  25.940  43.400   6.672
 5042POPC   C3A64829  26.138  43.348   7.062
 5042POPC   C4A64830  26.219  43.030   7.407
 5042POPC   C1B64831  25.472  42.901   6.183
 5042POPC   C2B64832  25.601  42.956   6.631
 5042POPC   C3B64833  25.857  42.936   7.013
 5042POPC   C4B64834  25.713  42.909   7.462
 5043POPC   NC364835  32.706  27.747   5.472
 5043POPC   PO464836  33.336  27.432   5.546
 5043POPC   GL164837  33.092  27.612   5.872
 5043POPC   GL264838  32.803  27.408   5.841
 5043POPC   C1A64839  32.989  27.424   6.313
 5043POPC   D2A64840  32.670  27.323   6.622
 5043POPC   C3A64841  32.793  27.414   7.045
 5043POPC   C4A64842  33.188  27.481   7.193
 5043POPC   C1B64843  32.673  27.775   6.112
 5043POPC   C2B64844  32.750  27.849   6.522
 5043POPC   C3B64845  32.532  28.072   6.818
 5043POPC   C4B64846  32.660  27.897   7.197
 5044POPC   NC364847  27.116   2.782   5.466
 5044POPC   PO464848  26.453   2.644   5.381
 5044POPC   GL164849  26.553   2.853   5.771
 5044POPC   GL264850  26.864   3.054   5.837
 5044POPC   C1A64851  26.481   2.960   6.192
 5044POPC   D2A64852  26.598   2.813   6.605
 5044POPC   C3A64853  26.600   3.136   6.903
 5044POPC   C4A64854  26.688   3.192   7.330
 5044POPC   C1B64855  27.006   2.847   6.241
 5044POPC   C2B64856  27.114   2.849   6.697
 5044POPC   C3B64857  26.914   2.755   7.103
 5044POPC   C4B64858  27.049   2.415   7.431
 5045POPC   NC364859  40.823   0.302   5.457
 5045POPC   PO464860  40.369   0.680   5.455
 5045POPC   GL164861  40.664   0.640   5.822
 5045POPC   GL264862  41.035   0.606   5.799
 5045POPC   C1A64863  40.737   0.313   6.109
 5045POPC   D2A64864  40.824   0.099   6.490
 5045POPC   C3A64865  40.942   0.354   6.845
 5045POPC   C4A64866  40.683   0.344   7.243
 5045POPC   C1B64867  41.023   0.719   6.207
 5045POPC   C2B64868  40.668   0.640   6.494
 5045POPC   C3B64869  40.579   0.704   6.908
 5045POPC   C4B64870  40.910   0.792   7.190
 5046POPC   NC364871   0.192  10.754   5.331
 5046POPC   PO464872   0.847  10.809   5.580
 5046POPC   GL164873   0.557  10.606   5.859
 5046POPC   GL264874   0.197  10.662   5.836
 5046POPC   C1A64875   0.420  10.547   6.299
 5046POPC   D2A64876   0.414  10.357   6.719
 5046POPC   C3A64877   0.578  10.549   7.099
 5046POPC   C4A64878   0.421  10.454   7.490
 5046POPC   C1B64879  44.956  10.730   6.228
 5046POPC   C2B64880   0.089  10.740   6.670
 5046POPC   C3B64881   0.099  10.697   7.118
 5046POPC   C4B64882   0.070  10.801   7.560
 5047POPC   NC364883  42.294  41.699   5.436
 5047POPC   PO464884  42.531  41.116   5.731
 5047POPC   GL164885  42.489  41.563   5.880
 5047POPC   GL264886  42.092  41.728   5.882
 5047POPC   C1A64887  42.510  41.737   6.281
 5047POPC   D2A64888  42.175  41.765   6.591
 5047POPC   C3A64889  42.332  41.652   7.009
 5047POPC   C4A64890  42.119  41.810   7.359
 5047POPC   C1B64891  42.084  41.455   6.195
 5047POPC   C2B64892  42.323  41.272   6.517
 5047POPC   C3B64893  42.270  41.147   6.938
 5047POPC   C4B64894  42.622  41.090   7.172
 5048POPC   NC364895   6.686  10.150   5.508
 5048POPC   PO464896   6.375   9.560   5.412
 5048POPC   GL164897   6.470   9.763   5.794
 5048POPC   GL264898   6.841   9.715   5.835
 5048POPC   C1A64899   6.498   9.688   6.217
 5048POPC   D2A64900   6.789   9.531   6.483
 5048POPC   C3A64901   6.637   9.630   6.840
 5048POPC   C4A64902   6.611   9.708   7.222
 5048POPC   C1B64903   6.955   9.950   6.233
 5048POPC   C2B64904   7.091   9.909   6.657
 5048POPC   C3B64905   6.937  10.050   7.066
 5048POPC   C4B64906   6.924   9.956   7.536
 5049POPC   NC364907  17.835  16.866   5.539
 5049POPC   PO464908  17.820  16.225   5.463
 5049POPC   GL164909  17.639  16.426   5.852
 5049POPC   GL264910  17.415  16.691   5.792
 5049POPC   C1A64911  17.249  16.449   6.180
 5049POPC   D2A64912  17.059  16.567   6.572
 5049POPC   C3A64913  17.268  16.808   6.892
 5049POPC   C4A64914  17.723  16.756   7.039
 5049POPC   C1B64915  17.636  16.842   6.187
 5049POPC   C2B64916  17.671  17.031   6.604
 5049POPC   C3B64917  17.527  17.234   7.002
 5049POPC   C4B64918  17.133  17.200   7.243
 5050POPC   NC364919  29.648  44.931   4.971
 5050POPC   PO464920  29.841  44.548   5.456
 5050POPC   GL164921  29.851  44.730   5.869
 5050POPC   GL264922  29.903  44.404   5.948
 5050POPC   C1A64923  29.725  44.640   6.349
 5050POPC   D2A64924  30.003  44.438   6.689
 5050POPC   C3A64925  29.980  44.496   7.154
 5050POPC   C4A64926  29.750  44.832   7.327
 5050POPC   C1B64927  30.213  44.658   6.221
 5050POPC   C2B64928  30.073  44.936   6.566
 5050POPC   C3B64929  30.131  44.962   6.969
 5050POPC   C4B64930  30.272  44.882   7.341
 5051POPC   NC364931  35.271   4.818   5.039
 5051POPC   PO464932  35.142   5.427   5.398
 5051POPC   GL164933  35.212   5.291   5.854
 5051POPC   GL264934  35.266   4.912   5.935
 5051POPC   C1A64935  35.047   5.289   6.276
 5051POPC   D2A64936  35.134   4.988   6.600
 5051POPC   C3A64937  35.186   5.122   7.006
 5051POPC   C4A64938  35.288   4.794   7.231
 5051POPC   C1B64939  35.523   5.069   6.279
 5051POPC   C2B64940  35.649   4.951   6.707
 5051POPC   C3B64941  35.705   5.098   7.114
 5051POPC   C4B64942  36.085   5.166   7.370
 5052POPC   NC364943  13.559  39.759   5.368
 5052POPC   PO464944  13.655  40.334   5.274
 5052POPC   GL164945  13.599  40.141   5.714
 5052POPC   GL264946  13.235  40.198   5.770
 5052POPC   C1A64947  13.747  40.033   6.175
 5052POPC   D2A64948  13.866  40.110   6.619
 5052POPC   C3A64949  13.770  39.819   7.006
 5052POPC   C4A64950  14.060  39.767   7.382
 5052POPC   C1B64951  13.239  39.909   6.155
 5052POPC   C2B64952  13.426  39.849   6.580
 5052POPC   C3B64953  13.394  40.151   6.927
 5052POPC   C4B64954  13.757  40.334   7.078
 5053POPC   NC364955  20.797   0.942   5.508
 5053POPC   PO464956  20.159   1.061   5.469
 5053POPC   GL164957  20.421   0.984   5.862
 5053POPC   GL264958  20.652   1.249   5.925
 5053POPC   C1A64959  20.378   0.997   6.357
 5053POPC   D2A64960  20.601   1.307   6.581
 5053POPC   C3A64961  20.627   1.395   7.021
 5053POPC   C4A64962  20.381   1.334   7.421
 5053POPC   C1B64963  20.951   1.429   6.228
 5053POPC   C2B64964  21.100   1.419   6.641
 5053POPC   C3B64965  21.065   1.129   6.977
 5053POPC   C4B64966  21.155   1.003   7.397
 5054POPC   NC364967  23.373  33.238   5.476
 5054POPC   PO464968  24.017  33.124   5.388
 5054POPC   GL164969  23.790  33.167   5.803
 5054POPC   GL264970  23.440  33.262   5.985
 5054POPC   C1A64971  23.809  32.934   6.200
 5054POPC   D2A64972  23.979  33.122   6.566
 5054POPC   C3A64973  23.830  33.068   6.987
 5054POPC   C4A64974  24.107  33.078   7.341
 5054POPC   C1B64975  23.301  32.915   6.286
 5054POPC   C2B64976  23.553  32.694   6.618
 5054POPC   C3B64977  23.456  32.699   7.048
 5054POPC   C4B64978  23.375  33.097   7.293
 5055POPC   NC364979  30.850  38.557   5.278
 5055POPC   PO464980  30.750  37.963   5.369
 5055POPC   GL164981  30.714  38.066   5.826
 5055POPC   GL264982  30.680  38.421   5.894
 5055POPC   C1A64983  30.730  38.086   6.288
 5055POPC   D2A64984  30.743  38.395   6.602
 5055POPC   C3A64985  30.871  38.362   6.984
 5055POPC   C4A64986  30.712  38.504   7.399
 5055POPC   C1B64987  30.356  38.423   6.253
 5055POPC   C2B64988  30.283  38.208   6.677
 5055POPC   C3B64989  30.341  38.222   7.149
 5055POPC   C4B64990  30.161  38.330   7.578
 5056POPC   NC364991  26.252  14.490   5.337
 5056POPC   PO464992  25.779  14.154   5.434
 5056POPC   GL164993  25.939  14.369   5.773
 5056POPC   GL264994  26.173  14.114   5.794
 5056POPC   C1A64995  25.785  14.486   6.195
 5056POPC   D2A64996  26.019  14.510   6.588
 5056POPC   C3A64997  25.870  14.515   7.022
 5056POPC   C4A64998  26.202  14.629   7.306
 5056POPC   C1B64999  26.182  14.155   6.198
 5056POPC   C2B65000  26.292  14.000   6.565
 5056POPC   C3B65001  26.285  14.213   6.939
 5056POPC   C4B65002  26.452  14.192   7.331
 5057POPC   NC365003   7.561  37.803   5.415
 5057POPC   PO465004   6.944  38.077   5.511
 5057POPC   GL165005   7.280  38.111   5.814
 5057POPC   GL265006   7.382  37.775   5.883
 5057POPC   C1A65007   7.292  38.049   6.285
 5057POPC   D2A65008   7.212  37.773   6.623
 5057POPC   C3A65009   7.237  37.935   7.024
 5057POPC   C4A65010   7.447  37.860   7.398
 5057POPC   C1B65011   7.614  37.521   6.168
 5057POPC   C2B65012   7.533  37.374   6.588
 5057POPC   C3B65013   7.557  37.534   7.000
 5057POPC   C4B65014   7.616  37.390   7.432
 5058POPC   NC365015   5.917  37.857   5.106
 5058POPC   PO465016   5.629  37.357   5.492
 5058POPC   GL165017   5.928  37.568   5.822
 5058POPC   GL265018   5.979  37.978   5.784
 5058POPC   C1A65019   6.058  37.473   6.268
 5058POPC   D2A65020   5.715  37.576   6.564
 5058POPC   C3A65021   5.687  37.468   6.997
 5058POPC   C4A65022   5.751  37.568   7.447
 5058POPC   C1B65023   5.861  37.936   6.191
 5058POPC   C2B65024   6.059  37.956   6.572
 5058POPC   C3B65025   5.880  37.922   6.971
 5058POPC   C4B65026   6.014  37.996   7.356
 5059POPC   NC365027  44.176  40.004   5.405
 5059POPC   PO465028  43.514  39.851   5.330
 5059POPC   GL165029  43.803  39.659   5.727
 5059POPC   GL265030  44.059  39.910   5.881
 5059POPC   C1A65031  43.800  39.657   6.233
 5059POPC   D2A65032  43.550  39.745   6.640
 5059POPC   C3A65033  43.676  39.618   7.054
 5059POPC   C4A65034  43.797  39.862   7.412
 5059POPC   C1B65035  44.098  40.177   6.250
 5059POPC   C2B65036  43.974  40.135   6.685
 5059POPC   C3B65037  43.920  40.267   7.127
 5059POPC   C4B65038  44.205  40.511   7.398
 5060POPC   NC365039  10.494  18.878   5.426
 5060POPC   PO465040  10.206  19.430   5.410
 5060POPC   GL165041  10.518  19.296   5.766
 5060POPC   GL265042  10.460  18.932   5.917
 5060POPC   C1A65043  10.579  19.275   6.244
 5060POPC   D2A65044  10.553  18.957   6.622
 5060POPC   C3A65045  10.525  19.053   7.090
 5060POPC   C4A65046  10.710  19.238   7.477
 5060POPC   C1B65047  10.748  18.698   6.202
 5060POPC   C2B65048  10.931  18.610   6.619
 5060POPC   C3B65049  10.715  18.519   7.012
 5060POPC   C4B65050  10.531  18.268   7.364
 5061POPC   NC365051  40.333   9.914   5.557
 5061POPC   PO465052  39.866   9.439   5.293
 5061POPC   GL165053  39.907   9.550   5.748
 5061POPC   GL265054  39.923   9.913   5.876
 5061POPC   C1A65055  40.082   9.500   6.177
 5061POPC   D2A65056  40.078   9.699   6.594
 5061POPC   C3A65057  39.768   9.659   6.934
 5061POPC   C4A65058  39.711   9.980   7.264
 5061POPC   C1B65059  40.258  10.022   6.205
 5061POPC   C2B65060  40.331  10.159   6.626
 5061POPC   C3B65061  40.152  10.063   7.017
 5061POPC   C4B65062  40.186   9.678   7.257
 5062POPC   NC365063   2.752   0.536   5.453
 5062POPC   PO465064   3.250   0.139   5.629
 5062POPC   GL165065   3.005   0.510   5.919
 5062POPC   GL265066   2.605   0.652   5.919
 5062POPC   C1A65067   2.811   0.531   6.363
 5062POPC   D2A65068   2.484   0.314   6.636
 5062POPC   C3A65069   2.722   0.171   7.004
 5062POPC   C4A65070   3.002   0.408   7.252
 5062POPC   C1B65071   2.366   0.765   6.325
 5062POPC   C2B65072   2.339   0.810   6.779
 5062POPC   C3B65073   2.404   0.552   7.104
 5062POPC   C4B65074   2.397   0.487   7.498
 5063POPC   NC365075  23.048  43.298   5.390
 5063POPC   PO465076  22.928  42.656   5.479
 5063POPC   GL165077  22.896  42.961   5.785
 5063POPC   GL265078  22.676  43.246   5.761
 5063POPC   C1A65079  23.129  43.109   6.124
 5063POPC   D2A65080  23.173  43.343   6.495
 5063POPC   C3A65081  23.095  43.147   6.907
 5063POPC   C4A65082  23.281  43.099   7.304
 5063POPC   C1B65083  22.714  43.433   6.190
 5063POPC   C2B65084  22.684  43.372   6.656
 5063POPC   C3B65085  22.637  43.358   7.111
 5063POPC   C4B65086  22.654  43.009   7.421
 5064POPC   NC365087  13.418  13.271   5.378
 5064POPC   PO465088  13.925  12.746   5.196
 5064POPC   GL165089  13.961  12.619   5.710
 5064POPC   GL265090  13.611  12.667   5.900
 5064POPC   C1A65091  13.990  12.653   6.215
 5064POPC   D2A65092  13.757  12.932   6.546
 5064POPC   C3A65093  13.691  12.830   7.022
 5064POPC   C4A65094  13.819  12.495   7.383
 5064POPC   C1B65095  13.386  12.982   6.134
 5064POPC   C2B65096  13.311  13.196   6.477
 5064POPC   C3B65097  13.325  13.217   6.875
 5064POPC   C4B65098  13.507  13.282   7.228
 5065POPC   NC365099  10.341  40.735   5.423
 5065POPC   PO465100  10.372  41.394   5.544
 5065POPC   GL165101  10.434  41.054   5.841
 5065POPC   GL265102  10.695  40.854   5.768
 5065POPC   C1A65103  10.309  40.719   6.129
 5065POPC   D2A65104  10.300  40.789   6.560
 5065POPC   C3A65105  10.526  40.729   6.946
 5065POPC   C4A65106  10.439  40.956   7.310
 5065POPC   C1B65107  10.822  40.736   6.150
 5065POPC   C2B65108  10.878  40.697   6.579
 5065POPC   C3B65109  10.927  40.411   6.904
 5065POPC   C4B65110  10.952  40.584   7.276
 5066POPC   NC365111  11.822   5.000   5.425
 5066POPC   PO465112  11.159   5.030   5.235
 5066POPC   GL165113  11.313   5.084   5.680
 5066POPC   GL265114  11.547   4.852   5.827
 5066POPC   C1A65115  11.405   5.284   6.105
 5066POPC   D2A65116  11.199   5.408   6.501
 5066POPC   C3A65117  11.242   5.285   6.956
 5066POPC   C4A65118  10.983   5.095   7.269
 5066POPC   C1B65119  11.457   4.800   6.239
 5066POPC   C2B65120  11.423   4.943   6.630
 5066POPC   C3B65121  11.383   4.793   7.050
 5066POPC   C4B65122  11.424   4.907   7.500
 5067POPC   NC365123  36.468  15.255   5.268
 5067POPC   PO465124  35.842  15.047   5.409
 5067POPC   GL165125  35.963  15.217   5.780
 5067POPC   GL265126  36.315  15.204   5.770
 5067POPC   C1A65127  36.051  15.001   6.184
 5067POPC   D2A65128  35.825  15.005   6.545
 5067POPC   C3A65129  36.020  14.971   6.934
 5067POPC   C4A65130  36.037  15.155   7.358
 5067POPC   C1B65131  36.246  15.453   6.176
 5067POPC   C2B65132  36.223  15.325   6.618
 5067POPC   C3B65133  36.423  15.296   7.026
 5067POPC   C4B65134  36.459  15.452   7.451
 5068POPC   NC365135  41.284  15.952   5.515
 5068POPC   PO465136  41.809  15.569   5.379
 5068POPC   GL165137  41.646  15.721   5.804
 5068POPC   GL265138  41.295  15.649   5.943
 5068POPC   C1A65139  41.622  15.885   6.244
 5068POPC   D2A65140  41.725  15.764   6.648
 5068POPC   C3A65141  41.543  15.593   7.033
 5068POPC   C4A65142  41.861  15.828   7.326
 5068POPC   C1B65143  41.156  16.079   6.150
 5068POPC   C2B65144  40.988  16.272   6.528
 5068POPC   C3B65145  41.114  16.237   6.946
 5068POPC   C4B65146  41.482  16.088   7.093
 5069POPC   NC365147   4.648  27.693   5.487
 5069POPC   PO465148   5.305  27.502   5.399
 5069POPC   GL165149   5.243  27.508   5.848
 5069POPC   GL265150   4.899  27.457   5.848
 5069POPC   C1A65151   5.074  27.506   6.309
 5069POPC   D2A65152   4.916  27.314   6.693
 5069POPC   C3A65153   5.171  27.384   7.092
 5069POPC   C4A65154   5.471  27.589   7.446
 5069POPC   C1B65155   4.764  27.861   6.085
 5069POPC   C2B65156   4.747  27.971   6.484
 5069POPC   C3B65157   4.925  27.802   6.857
 5069POPC   C4B65158   5.048  27.835   7.279
 5070POPC   NC365159  29.072  25.671   5.405
 5070POPC   PO465160  28.979  25.035   5.322
 5070POPC   GL165161  29.015  25.149   5.724
 5070POPC   GL265162  28.958  25.480   5.864
 5070POPC   C1A65163  29.083  25.030   6.132
 5070POPC   D2A65164  29.355  25.099   6.453
 5070POPC   C3A65165  29.271  25.484   6.688
 5070POPC   C4A65166  29.401  25.527   7.124
 5070POPC   C1B65167  28.775  25.430   6.265
 5070POPC   C2B65168  28.806  25.249   6.656
 5070POPC   C3B65169  29.056  25.129   7.010
 5070POPC   C4B65170  28.945  25.148   7.422
 5071POPC   NC365171  10.889  13.112   5.321
 5071POPC   PO465172  10.559  12.527   5.345
 5071POPC   GL165173  10.691  12.668   5.785
 5071POPC   GL265174  10.928  12.957   5.822
 5071POPC   C1A65175  10.687  12.765   6.260
 5071POPC   D2A65176  10.515  12.905   6.689
 5071POPC   C3A65177  10.729  12.736   7.056
 5071POPC   C4A65178  10.738  12.722   7.499
 5071POPC   C1B65179  10.855  13.247   6.180
 5071POPC   C2B65180  10.707  13.359   6.609
 5071POPC   C3B65181  10.940  13.248   7.000
 5071POPC   C4B65182  10.980  13.220   7.449
 5072POPC   NC365183   2.196  36.563   5.532
 5072POPC   PO465184   1.694  36.994   5.307
 5072POPC   GL165185   1.868  36.865   5.730
 5072POPC   GL265186   1.980  37.129   5.944
 5072POPC   C1A65187   1.735  36.704   6.144
 5072POPC   D2A65188   1.802  36.905   6.548
 5072POPC   C3A65189   1.952  36.775   6.966
 5072POPC   C4A65190   2.090  37.093   7.260
 5072POPC   C1B65191   2.243  36.785   6.179
 5072POPC   C2B65192   2.461  36.673   6.578
 5072POPC   C3B65193   2.496  36.867   6.972
 5072POPC   C4B65194   2.348  36.644   7.296
 5073POPC   NC365195   9.989  23.865   5.525
 5073POPC   PO465196   9.357  23.998   5.419
 5073POPC   GL165197   9.556  23.749   5.773
 5073POPC   GL265198   9.365  23.492   5.846
 5073POPC   C1A65199   9.894  23.635   6.113
 5073POPC   D2A65200   9.994  23.799   6.522
 5073POPC   C3A65201   9.729  23.646   6.875
 5073POPC   C4A65202   9.902  23.652   7.283
 5073POPC   C1B65203   9.417  23.520   6.267
 5073POPC   C2B65204   9.365  23.258   6.624
 5073POPC   C3B65205   9.203  23.413   7.000
 5073POPC   C4B65206   9.416  23.481   7.386
 5074POPC   NC365207  24.478  12.771   5.596
 5074POPC   PO465208  24.520  12.189   5.288
 5074POPC   GL165209  24.435  12.052   5.710
 5074POPC   GL265210  24.298  12.350   5.888
 5074POPC   C1A65211  24.421  11.905   6.153
 5074POPC   D2A65212  24.527  12.060   6.559
 5074POPC   C3A65213  24.262  11.930   6.878
 5074POPC   C4A65214  24.350  11.863   7.291
 5074POPC   C1B65215  24.722  12.345   6.137
 5074POPC   C2B65216  24.995  12.244   6.532
 5074POPC   C3B65217  24.921  12.367   6.953
 5074POPC   C4B65218  24.616  12.275   7.238
 5075POPC   NC365219  10.690   5.064   5.317
 5075POPC   PO465220  10.041   4.960   5.476
 5075POPC   GL165221  10.403   5.048   5.768
 5075POPC   GL265222  10.755   4.884   5.850
 5075POPC   C1A65223  10.451   5.109   6.204
 5075POPC   D2A65224  10.431   4.919   6.589
 5075POPC   C3A65225  10.551   5.240   6.892
 5075POPC   C4A65226  10.453   5.214   7.298
 5075POPC   C1B65227  10.953   4.959   6.308
 5075POPC   C2B65228  10.915   4.892   6.777
 5075POPC   C3B65229  10.621   4.741   7.129
 5075POPC   C4B65230  10.685   4.841   7.604
 5076POPC   NC365231  19.639  30.365   5.574
 5076POPC   PO465232  20.092  29.840   5.376
 5076POPC   GL165233  19.966  29.997   5.766
 5076POPC   GL265234  19.603  29.903   5.802
 5076POPC   C1A65235  19.862  30.044   6.210
 5076POPC   D2A65236  19.610  29.956   6.564
 5076POPC   C3A65237  19.867  29.800   6.842
 5076POPC   C4A65238  19.950  29.927   7.196
 5076POPC   C1B65239  19.606  29.594   6.152
 5076POPC   C2B65240  19.640  29.419   6.594
 5076POPC   C3B65241  19.612  29.448   7.085
 5076POPC   C4B65242  19.688  29.693   7.530
 5077POPC   NC365243  33.518  33.576   5.299
 5077POPC   PO465244  32.730  33.688   5.370
 5077POPC   GL165245  32.947  33.722   5.787
 5077POPC   GL265246  33.282  33.718   5.729
 5077POPC   C1A65247  33.114  34.002   6.156
 5077POPC   D2A65248  32.986  34.018   6.615
 5077POPC   C3A65249  33.238  33.983   7.007
 5077POPC   C4A65250  32.992  33.688   7.258
 5077POPC   C1B65251  33.433  33.607   6.111
 5077POPC   C2B65252  33.517  33.464   6.488
 5077POPC   C3B65253  33.346  33.509   6.866
 5077POPC   C4B65254  33.475  33.552   7.289
 5078POPC   NC365255  35.771  43.032   5.691
 5078POPC   PO465256  36.194  43.222   5.197
 5078POPC   GL165257  36.283  43.141   5.757
 5078POPC   GL265258  36.134  43.313   6.041
 5078POPC   C1A65259  36.420  42.922   6.181
 5078POPC   D2A65260  36.143  42.853   6.530
 5078POPC   C3A65261  36.152  43.182   6.836
 5078POPC   C4A65262  36.113  43.099   7.256
 5078POPC   C1B65263  35.783  43.292   6.354
 5078POPC   C2B65264  35.638  43.290   6.797
 5078POPC   C3B65265  35.791  43.486   7.175
 5078POPC   C4B65266  35.698  43.552   7.615
 5079POPC   NC365267   7.651  43.605   5.350
 5079POPC   PO465268   7.036  43.873   5.378
 5079POPC   GL165269   7.338  43.746   5.730
 5079POPC   GL265270   7.580  44.049   5.787
 5079POPC   C1A65271   7.530  43.676   6.167
 5079POPC   D2A65272   7.616  43.572   6.632
 5079POPC   C3A65273   7.424  43.741   7.028
 5079POPC   C4A65274   7.301  43.899   7.452
 5079POPC   C1B65275   7.736  44.137   6.240
 5079POPC   C2B65276   7.605  44.132   6.704
 5079POPC   C3B65277   7.533  44.249   7.151
 5079POPC   C4B65278   7.558  44.358   7.617
 5080POPC   NC365279  37.660  41.688   5.361
 5080POPC   PO465280  37.640  41.048   5.401
 5080POPC   GL165281  37.677  41.294   5.748
 5080POPC   GL265282  37.339  41.385   5.728
 5080POPC   C1A65283  37.890  41.498   6.099
 5080POPC   D2A65284  37.909  41.854   6.410
 5080POPC   C3A65285  37.928  41.681   6.842
 5080POPC   C4A65286  37.702  41.687   7.224
 5080POPC   C1B65287  37.383  41.528   6.146
 5080POPC   C2B65288  37.595  41.457   6.522
 5080POPC   C3B65289  37.554  41.312   6.917
 5080POPC   C4B65290  37.335  41.348   7.285
 5081POPC   NC365291  24.196  29.122   5.596
 5081POPC   PO465292  23.773  29.355   5.177
 5081POPC   GL165293  23.719  29.305   5.685
 5081POPC   GL265294  24.011  29.418   5.943
 5081POPC   C1A65295  23.634  29.225   6.181
 5081POPC   D2A65296  23.984  29.166   6.505
 5081POPC   C3A65297  23.847  29.057   6.908
 5081POPC   C4A65298  23.496  29.183   7.139
 5081POPC   C1B65299  24.057  29.640   6.322
 5081POPC   C2B65300  24.095  29.617   6.766
 5081POPC   C3B65301  23.902  29.523   7.141
 5081POPC   C4B65302  23.959  29.193   7.416
 5082POPC   NC365303  31.106  37.890   5.082
 5082POPC   PO465304  31.703  37.815   5.442
 5082POPC   GL165305  31.599  37.769   5.834
 5082POPC   GL265306  31.505  37.444   5.900
 5082POPC   C1A65307  31.587  37.899   6.223
 5082POPC   D2A65308  31.482  37.749   6.586
 5082POPC   C3A65309  31.692  37.950   6.882
 5082POPC   C4A65310  31.688  37.812   7.292
 5082POPC   C1B65311  31.210  37.233   6.220
 5082POPC   C2B65312  31.126  37.364   6.623
 5082POPC   C3B65313  31.381  37.441   6.971
 5082POPC   C4B65314  31.267  37.533   7.384
 5083POPC   NC365315  22.165  36.635   5.362
 5083POPC   PO465316  22.402  37.290   5.235
 5083POPC   GL165317  22.271  37.117   5.643
 5083POPC   GL265318  21.935  37.048   5.706
 5083POPC   C1A65319  22.259  36.972   6.098
 5083POPC   D2A65320  22.288  36.669   6.457
 5083POPC   C3A65321  22.383  36.802   6.897
 5083POPC   C4A65322  22.217  36.778   7.319
 5083POPC   C1B65323  21.747  37.081   6.193
 5083POPC   C2B65324  21.915  37.221   6.669
 5083POPC   C3B65325  21.805  37.187   7.170
 5083POPC   C4B65326  21.557  37.365   7.585
 5084POPC   NC365327   1.326  23.666   5.363
 5084POPC   PO465328   0.673  23.587   5.427
 5084POPC   GL165329   0.953  23.778   5.742
 5084POPC   GL265330   1.282  23.605   5.859
 5084POPC   C1A65331   0.915  23.679   6.172
 5084POPC   D2A65332   1.209  23.553   6.479
 5084POPC   C3A65333   1.048  23.620   6.893
 5084POPC   C4A65334   0.926  23.624   7.314
 5084POPC   C1B65335   1.300  24.022   6.111
 5084POPC   C2B65336   1.468  24.150   6.513
 5084POPC   C3B65337   1.541  23.820   6.816
 5084POPC   C4B65338   1.410  23.788   7.243
 5085POPC   NC365339  34.004   1.778   5.451
 5085POPC   PO465340  33.395   2.035   5.417
 5085POPC   GL165341  33.612   1.999   5.792
 5085POPC   GL265342  33.499   1.683   5.898
 5085POPC   C1A65343  33.771   2.119   6.219
 5085POPC   D2A65344  33.863   2.279   6.621
 5085POPC   C3A65345  33.708   2.100   7.017
 5085POPC   C4A65346  33.904   1.961   7.403
 5085POPC   C1B65347  33.815   1.615   6.232
 5085POPC   C2B65348  33.891   1.762   6.658
 5085POPC   C3B65349  33.855   1.571   7.068
 5085POPC   C4B65350  33.549   1.265   7.225
 5086POPC   NC365351  32.704   0.009   5.425
 5086POPC   PO465352  33.315  44.673   5.538
 5086POPC   GL165353  33.011  44.779   5.795
 5086POPC   GL265354  33.226   0.033   5.899
 5086POPC   C1A65355  32.788  44.553   6.171
 5086POPC   D2A65356  32.653  44.274   6.546
 5086POPC   C3A65357  32.777  44.388   6.988
 5086POPC   C4A65358  33.190  44.340   7.249
 5086POPC   C1B65359  32.942   0.045   6.232
 5086POPC   C2B65360  32.818  44.844   6.622
 5086POPC   C3B65361  33.109  44.772   6.967
 5086POPC   C4B65362  33.200  44.870   7.368
 5087POPC   NC365363  42.570  22.472   5.695
 5087POPC   PO465364  42.200  22.071   5.322
 5087POPC   GL165365  42.034  22.171   5.741
 5087POPC   GL265366  41.996  21.807   5.778
 5087POPC   C1A65367  42.145  22.366   6.189
 5087POPC   D2A65368  42.500  22.475   6.502
 5087POPC   C3A65369  42.478  22.340   6.955
 5087POPC   C4A65370  42.754  22.320   7.332
 5087POPC   C1B65371  42.274  21.848   6.134
 5087POPC   C2B65372  42.346  21.974   6.555
 5087POPC   C3B65373  42.363  21.821   6.965
 5087POPC   C4B65374  42.164  22.056   7.289
 5088POPC   NC365375  37.692  44.527   5.368
 5088POPC   PO465376  37.637   0.125   5.266
 5088POPC   GL165377  37.589   0.025   5.691
 5088POPC   GL265378  37.445  44.740   5.781
 5088POPC   C1A65379  37.855  44.916   6.072
 5088POPC   D2A65380  37.853  44.688   6.487
 5088POPC   C3A65381  37.810  44.877   6.870
 5088POPC   C4A65382  37.609  44.873   7.256
 5088POPC   C1B65383  37.418  44.640   6.190
 5088POPC   C2B65384  37.402  44.414   6.564
 5088POPC   C3B65385  37.428  44.498   6.971
 5088POPC   C4B65386  37.526  44.363   7.374
 5089POPC   NC365387  33.334  12.118   5.488
 5089POPC   PO465388  32.777  12.474   5.358
 5089POPC   GL165389  32.915  12.308   5.788
 5089POPC   GL265390  33.002  11.945   5.830
 5089POPC   C1A65391  33.135  12.314   6.192
 5089POPC   D2A65392  33.015  12.215   6.623
 5089POPC   C3A65393  33.124  12.428   7.015
 5089POPC   C4A65394  33.028  12.284   7.449
 5089POPC   C1B65395  33.043  11.811   6.274
 5089POPC   C2B65396  33.212  11.746   6.685
 5089POPC   C3B65397  33.164  11.927   7.087
 5089POPC   C4B65398  33.268  11.830   7.535
 5090POPC   NC365399  33.936  36.370   5.389
 5090POPC   PO465400  34.098  35.691   5.484
 5090POPC   GL165401  33.882  35.960   5.804
 5090POPC   GL265402  33.784  36.325   5.883
 5090POPC   C1A65403  33.930  35.941   6.257
 5090POPC   D2A65404  33.667  35.961   6.619
 5090POPC   C3A65405  33.866  36.062   6.936
 5090POPC   C4A65406  33.830  36.334   7.264
 5090POPC   C1B65407  34.207  36.337   6.079
 5090POPC   C2B65408  34.327  36.219   6.522
 5090POPC   C3B65409  34.256  36.366   6.957
 5090POPC   C4B65410  34.298  36.437   7.415
 5091POPC   NC365411  20.377  11.734   5.384
 5091POPC   PO465412  19.864  11.241   5.205
 5091POPC   GL165413  19.737  11.362   5.734
 5091POPC   GL265414  19.937  11.572   5.989
 5091POPC   C1A65415  19.617  11.271   6.215
 5091POPC   D2A65416  19.786  11.382   6.620
 5091POPC   C3A65417  19.567  11.705   6.842
 5091POPC   C4A65418  19.516  11.736   7.289
 5091POPC   C1B65419  20.123  11.177   6.212
 5091POPC   C2B65420  20.161  11.014   6.668
 5091POPC   C3B65421  20.111  11.078   7.121
 5091POPC   C4B65422  20.110  11.035   7.565
 5092POPC   NC365423  33.122  28.712   5.465
 5092POPC   PO465424  33.088  28.047   5.451
 5092POPC   GL165425  32.893  28.119   5.806
 5092POPC   GL265426  32.823  28.489   5.854
 5092POPC   C1A65427  33.068  28.116   6.194
 5092POPC   D2A65428  32.921  28.339   6.533
 5092POPC   C3A65429  33.030  28.109   6.885
 5092POPC   C4A65430  33.119  28.076   7.300
 5092POPC   C1B65431  32.591  28.691   6.206
 5092POPC   C2B65432  32.492  28.618   6.658
 5092POPC   C3B65433  32.813  28.569   6.994
 5092POPC   C4B65434  32.941  28.532   7.441
 5093POPC   NC365435   1.494  41.801   5.571
 5093POPC   PO465436   1.083  41.253   5.685
 5093POPC   GL165437   1.102  41.580   5.945
 5093POPC   GL265438   1.468  41.519   5.993
 5093POPC   C1A65439   1.038  41.448   6.368
 5093POPC   D2A65440   1.204  41.337   6.759
 5093POPC   C3A65441   1.057  41.592   7.080
 5093POPC   C4A65442   0.803  41.478   7.456
 5093POPC   C1B65443   1.388  41.829   6.322
 5093POPC   C2B65444   1.537  41.749   6.745
 5093POPC   C3B65445   1.550  41.490   7.136
 5093POPC   C4B65446   1.328  41.566   7.507
 5094POPC   NC365447   4.462   2.452   5.394
 5094POPC   PO465448   4.639   3.107   5.368
 5094POPC   GL165449   4.560   2.895   5.748
 5094POPC   GL265450   4.212   2.787   5.694
 5094POPC   C1A65451   4.576   3.034   6.171
 5094POPC   D2A65452   4.339   3.041   6.551
 5094POPC   C3A65453   4.481   2.922   6.955
 5094POPC   C4A65454   4.155   2.980   7.266
 5094POPC   C1B65455   4.157   2.748   6.123
 5094POPC   C2B65456   4.249   2.446   6.427
 5094POPC   C3B65457   4.190   2.501   6.853
 5094POPC   C4B65458   4.315   2.512   7.259
 5095POPC   NC365459  28.697   2.377   5.446
 5095POPC   PO465460  28.587   1.697   5.356
 5095POPC   GL165461  28.552   1.886   5.758
 5095POPC   GL265462  28.316   2.156   5.736
 5095POPC   C1A65463  28.412   1.964   6.184
 5095POPC   D2A65464  28.525   2.161   6.552
 5095POPC   C3A65465  28.371   1.959   6.893
 5095POPC   C4A65466  28.578   2.010   7.287
 5095POPC   C1B65467  27.988   2.229   6.068
 5095POPC   C2B65468  27.966   2.034   6.470
 5095POPC   C3B65469  27.895   2.198   6.874
 5095POPC   C4B65470  28.116   2.247   7.245
 5096POPC   NC365471  24.142   7.651   5.682
 5096POPC   PO465472  23.558   7.584   5.352
 5096POPC   GL165473  23.642   7.564   5.785
 5096POPC   GL265474  23.814   7.260   5.841
 5096POPC   C1A65475  23.708   7.635   6.235
 5096POPC   D2A65476  23.435   7.663   6.607
 5096POPC   C3A65477  23.656   7.478   6.967
 5096POPC   C4A65478  24.066   7.442   7.135
 5096POPC   C1B65479  23.864   7.132   6.278
 5096POPC   C2B65480  23.838   6.829   6.634
 5096POPC   C3B65481  23.944   6.943   7.059
 5096POPC   C4B65482  23.784   7.112   7.466
 5097POPC   NC365483  37.037  40.234   5.468
 5097POPC   PO465484  36.570  39.810   5.352
 5097POPC   GL165485  36.766  39.891   5.767
 5097POPC   GL265486  37.022  39.653   5.853
 5097POPC   C1A65487  36.907  39.958   6.230
 5097POPC   D2A65488  36.968  39.755   6.651
 5097POPC   C3A65489  36.875  40.011   7.032
 5097POPC   C4A65490  37.134  40.297   7.317
 5097POPC   C1B65491  36.690  39.498   6.120
 5097POPC   C2B65492  36.492  39.569   6.537
 5097POPC   C3B65493  36.613  39.545   6.968
 5097POPC   C4B65494  36.480  39.670   7.392
 5098POPC   NC365495  19.254   4.476   5.478
 5098POPC   PO465496  18.709   4.015   5.514
 5098POPC   GL165497  18.886   4.315   5.824
 5098POPC   GL265498  19.191   4.137   5.874
 5098POPC   C1A65499  18.941   4.403   6.280
 5098POPC   D2A65500  18.963   4.125   6.645
 5098POPC   C3A65501  18.820   4.309   7.040
 5098POPC   C4A65502  19.051   4.336   7.460
 5098POPC   C1B65503  19.422   4.210   6.273
 5098POPC   C2B65504  19.428   4.377   6.679
 5098POPC   C3B65505  19.310   4.161   7.037
 5098POPC   C4B65506  19.405   3.976   7.405
 5099POPC   NC365507  13.083   7.878   5.409
 5099POPC   PO465508  12.609   8.410   5.448
 5099POPC   GL165509  12.599   8.253   5.876
 5099POPC   GL265510  12.504   7.919   5.799
 5099POPC   C1A65511  12.852   8.315   6.285
 5099POPC   D2A65512  12.987   8.140   6.688
 5099POPC   C3A65513  13.000   8.432   7.035
 5099POPC   C4A65514  13.151   8.406   7.467
 5099POPC   C1B65515  12.706   7.824   6.168
 5099POPC   C2B65516  12.558   7.908   6.553
 5099POPC   C3B65517  12.738   7.787   6.928
 5099POPC   C4B65518  12.795   8.007   7.315
 5100POPC   NC365519  40.973   9.397   4.989
 5100POPC   PO465520  40.710   8.912   5.392
 5100POPC   GL165521  40.877   8.852   5.801
 5100POPC   GL265522  41.243   8.737   5.793
 5100POPC   C1A65523  41.033   9.083   6.162
 5100POPC   D2A65524  41.020   9.361   6.534
 5100POPC   C3A65525  41.023   9.200   6.947
 5100POPC   C4A65526  40.809   8.957   7.254
 5100POPC   C1B65527  41.065   8.567   6.188
 5100POPC   C2B65528  41.029   8.793   6.589
 5100POPC   C3B65529  41.132   8.665   6.990
 5100POPC   C4B65530  41.183   8.627   7.407
 5101POPC   NC365531  39.562  17.962   5.548
 5101POPC   PO465532  39.463  17.267   5.431
 5101POPC   GL165533  39.289  17.304   5.829
 5101POPC   GL265534  39.213  17.654   5.867
 5101POPC   C1A65535  39.146  17.286   6.250
 5101POPC   D2A65536  39.117  17.525   6.648
 5101POPC   C3A65537  39.203  17.319   7.072
 5101POPC   C4A65538  39.208  17.221   7.569
 5101POPC   C1B65539  39.268  17.893   6.238
 5101POPC   C2B65540  39.476  17.984   6.618
 5101POPC   C3B65541  39.315  17.847   7.013
 5101POPC   C4B65542  39.399  17.655   7.382
 5102POPC   NC365543  41.882  34.205   5.572
 5102POPC   PO465544  42.460  34.581   5.424
 5102POPC   GL165545  42.399  34.531   5.839
 5102POPC   GL265546  42.031  34.684   5.772
 5102POPC   C1A65547  42.676  34.522   6.264
 5102POPC   D2A65548  42.811  34.350   6.726
 5102POPC   C3A65549  42.556  34.371   7.139
 5102POPC   C4A65550  42.141  34.311   7.367
 5102POPC   C1B65551  42.186  34.790   6.204
 5102POPC   C2B65552  42.340  34.684   6.605
 5102POPC   C3B65553  42.151  34.614   6.984
 5102POPC   C4B65554  42.319  34.819   7.394
 5103POPC   NC365555  33.580  37.885   5.513
 5103POPC   PO465556  34.233  37.653   5.274
 5103POPC   GL165557  34.020  37.688   5.722
 5103POPC   GL265558  33.699  37.697   5.944
 5103POPC   C1A65559  34.104  37.785   6.190
 5103POPC   D2A65560  33.917  37.619   6.566
 5103POPC   C3A65561  34.103  37.739   6.973
 5103POPC   C4A65562  33.988  37.701   7.402
 5103POPC   C1B65563  33.605  38.032   6.189
 5103POPC   C2B65564  33.414  38.039   6.561
 5103POPC   C3B65565  33.582  37.829   6.909
 5103POPC   C4B65566  33.538  37.894   7.313
 5104POPC   NC365567  32.359  20.309   5.317
 5104POPC   PO465568  31.825  20.769   5.551
 5104POPC   GL165569  32.171  20.595   5.804
 5104POPC   GL265570  32.278  20.255   5.810
 5104POPC   C1A65571  32.387  20.665   6.198
 5104POPC   D2A65572  32.544  20.716   6.594
 5104POPC   C3A65573  32.308  20.761   6.935
 5104POPC   C4A65574  32.444  20.711   7.310
 5104POPC   C1B65575  32.059  20.282   6.220
 5104POPC   C2B65576  32.221  20.297   6.635
 5104POPC   C3B65577  32.046  20.324   7.049
 5104POPC   C4B65578  32.011  20.164   7.468
 5105POPC   NC365579  42.584   2.891   5.511
 5105POPC   PO465580  42.062   2.797   5.175
 5105POPC   GL165581  42.183   2.639   5.676
 5105POPC   GL265582  42.407   2.367   5.788
 5105POPC   C1A65583  42.415   2.735   6.127
 5105POPC   D2A65584  42.422   2.985   6.517
 5105POPC   C3A65585  42.412   2.854   6.925
 5105POPC   C4A65586  42.387   3.025   7.319
 5105POPC   C1B65587  42.598   2.240   6.210
 5105POPC   C2B65588  42.674   2.399   6.629
 5105POPC   C3B65589  42.652   2.422   7.063
 5105POPC   C4B65590  42.437   2.546   7.427
 5106POPC   NC365591  42.505  40.174   5.301
 5106POPC   PO465592  42.084  39.702   5.492
 5106POPC   GL165593  42.212  40.008   5.778
 5106POPC   GL265594  42.575  40.011   5.801
 5106POPC   C1A65595  42.225  40.147   6.223
 5106POPC   D2A65596  42.042  40.080   6.627
 5106POPC   C3A65597  42.195  40.217   7.034
 5106POPC   C4A65598  42.283  39.997   7.421
 5106POPC   C1B65599  42.719  40.000   6.238
 5106POPC   C2B65600  42.579  40.181   6.636
 5106POPC   C3B65601  42.695  40.109   7.063
 5106POPC   C4B65602  42.732  39.771   7.362
 5107POPC   NC365603  27.919   0.525   5.426
 5107POPC   PO465604  27.255   0.420   5.629
 5107POPC   GL165605  27.635   0.416   5.851
 5107POPC   GL265606  27.717   0.767   5.846
 5107POPC   C1A65607  27.776   0.172   6.210
 5107POPC   D2A65608  27.671   0.394   6.582
 5107POPC   C3A65609  27.833   0.297   6.969
 5107POPC   C4A65610  27.648   0.327   7.321
 5107POPC   C1B65611  27.496   0.781   6.255
 5107POPC   C2B65612  27.558   0.954   6.686
 5107POPC   C3B65613  27.739   0.805   7.069
 5107POPC   C4B65614  28.019   0.698   7.368
 5108POPC   NC365615  18.001   0.282   5.472
 5108POPC   PO465616  18.542   0.657   5.520
 5108POPC   GL165617  18.237   0.568   5.817
 5108POPC   GL265618  18.046   0.851   5.773
 5108POPC   C1A65619  18.241   0.474   6.236
 5108POPC   D2A65620  18.338   0.688   6.592
 5108POPC   C3A65621  18.399   0.411   6.922
 5108POPC   C4A65622  18.448   0.539   7.329
 5108POPC   C1B65623  17.915   0.863   6.172
 5108POPC   C2B65624  17.994   1.101   6.542
 5108POPC   C3B65625  17.841   1.039   6.942
 5108POPC   C4B65626  18.001   0.740   7.199
 5109POPC   NC365627  33.076  30.290   5.352
 5109POPC   PO465628  33.149  29.632   5.348
 5109POPC   GL165629  33.030  29.527   5.780
 5109POPC   GL265630  33.105  29.876   5.828
 5109POPC   C1A65631  32.989  29.594   6.238
 5109POPC   D2A65632  33.057  29.828   6.639
 5109POPC   C3A65633  33.049  29.722   7.091
 5109POPC   C4A65634  33.019  29.520   7.564
 5109POPC   C1B65635  32.965  30.101   6.194
 5109POPC   C2B65636  33.012  30.348   6.571
 5109POPC   C3B65637  33.210  30.208   6.945
 5109POPC   C4B65638  33.286  30.326   7.353
 5110POPC   NC365639  42.013  43.155   5.575
 5110POPC   PO465640  42.529  42.809   5.414
 5110POPC   GL165641  42.389  42.929   5.834
 5110POPC   GL265642  42.422  43.264   5.856
 5110POPC   C1A65643  42.098  43.024   6.211
 5110POPC   D2A65644  42.056  43.306   6.555
 5110POPC   C3A65645  42.317  43.255   6.942
 5110POPC   C4A65646  42.536  42.935   7.224
 5110POPC   C1B65647  42.505  43.334   6.288
 5110POPC   C2B65648  42.759  43.313   6.666
 5110POPC   C3B65649  42.830  43.333   7.101
 5110POPC   C4B65650  42.490  43.390   7.418
 5111POPC   NC365651  24.282  24.804   5.414
 5111POPC   PO465652  24.647  24.228   5.438
 5111POPC   GL165653  24.426  24.437   5.760
 5111POPC   GL265654  24.673  24.722   5.732
 5111POPC   C1A65655  24.323  24.385   6.209
 5111POPC   D2A65656  24.382  24.243   6.653
 5111POPC   C3A65657  24.611  24.415   7.030
 5111POPC   C4A65658  24.840  24.353   7.454
 5111POPC   C1B65659  24.429  24.875   6.074
 5111POPC   C2B65660  24.236  24.995   6.460
 5111POPC   C3B65661  24.263  24.746   6.838
 5111POPC   C4B65662  24.052  24.871   7.191
 5112POPC   NC365663  19.900  13.149   5.587
 5112POPC   PO465664  20.053  12.631   5.194
 5112POPC   GL165665  19.925  12.605   5.695
 5112POPC   GL265666  19.661  12.785   5.902
 5112POPC   C1A65667  19.993  12.561   6.185
 5112POPC   D2A65668  19.958  12.792   6.599
 5112POPC   C3A65669  20.083  12.738   6.990
 5112POPC   C4A65670  19.997  12.567   7.338
 5112POPC   C1B65671  19.800  13.080   6.218
 5112POPC   C2B65672  19.993  13.307   6.545
 5112POPC   C3B65673  19.901  13.232   6.968
 5112POPC   C4B65674  19.602  12.912   7.129
 5113POPC   NC365675  38.476  31.888   5.501
 5113POPC   PO465676  38.243  32.497   5.270
 5113POPC   GL165677  38.270  32.331   5.715
 5113POPC   GL265678  38.600  32.220   5.862
 5113POPC   C1A65679  38.201  32.237   6.182
 5113POPC   D2A65680  38.193  32.505   6.550
 5113POPC   C3A65681  38.124  32.293   6.920
 5113POPC   C4A65682  38.350  32.343   7.296
 5113POPC   C1B65683  38.710  31.851   6.153
 5113POPC   C2B65684  38.697  31.692   6.607
 5113POPC   C3B65685  38.612  31.926   7.024
 5113POPC   C4B65686  38.845  32.287   7.275
 5114POPC   NC365687  24.550  33.671   5.054
 5114POPC   PO465688  24.306  34.074   5.508
 5114POPC   GL165689  24.663  33.868   5.716
 5114POPC   GL265690  24.699  33.483   5.765
 5114POPC   C1A65691  24.864  33.963   6.122
 5114POPC   D2A65692  24.893  33.805   6.515
 5114POPC   C3A65693  24.831  34.092   6.861
 5114POPC   C4A65694  24.737  33.824   7.175
 5114POPC   C1B65695  24.478  33.607   6.149
 5114POPC   C2B65696  24.234  33.592   6.539
 5114POPC   C3B65697  24.311  33.585   6.970
 5114POPC   C4B65698  24.488  33.385   7.309
 5115POPC   NC365699   8.431  26.202   5.170
 5115POPC   PO465700   8.289  25.620   5.431
 5115POPC   GL165701   8.268  25.663   5.845
 5115POPC   GL265702   8.535  25.896   5.867
 5115POPC   C1A65703   8.118  25.823   6.227
 5115POPC   D2A65704   8.265  25.914   6.660
 5115POPC   C3A65705   8.035  25.847   7.045
 5115POPC   C4A65706   7.640  25.708   7.254
 5115POPC   C1B65707   8.614  25.696   6.267
 5115POPC   C2B65708   8.700  25.664   6.693
 5115POPC   C3B65709   8.574  25.822   7.078
 5115POPC   C4B65710   8.379  26.229   7.160
 5116POPC   NC365711  42.774  27.152   5.539
 5116POPC   PO465712  43.059  26.594   5.365
 5116POPC   GL165713  43.105  26.847   5.808
 5116POPC   GL265714  43.214  27.230   5.816
 5116POPC   C1A65715  42.984  26.915   6.284
 5116POPC   D2A65716  42.788  26.693   6.671
 5116POPC   C3A65717  42.704  26.811   7.097
 5116POPC   C4A65718  42.665  26.499   7.425
 5116POPC   C1B65719  43.470  27.063   6.162
 5116POPC   C2B65720  43.424  26.883   6.577
 5116POPC   C3B65721  43.174  26.998   6.933
 5116POPC   C4B65722  43.291  27.117   7.344
 5117POPC   NC365723  43.537  10.293   5.552
 5117POPC   PO465724  42.922  10.613   5.498
 5117POPC   GL165725  42.979  10.281   5.809
 5117POPC   GL265726  43.222  10.411   5.976
 5117POPC   C1A65727  42.793  10.197   6.206
 5117POPC   D2A65728  42.798  10.451   6.585
 5117POPC   C3A65729  43.108  10.371   6.903
 5117POPC   C4A65730  43.455  10.326   7.190
 5117POPC   C1B65731  43.000  10.794   6.123
 5117POPC   C2B65732  42.813  10.961   6.482
 5117POPC   C3B65733  42.981  10.881   6.909
 5117POPC   C4B65734  43.146  10.729   7.313
 5118POPC   NC365735   6.479  38.077   5.510
 5118POPC   PO465736   6.699  38.692   5.313
 5118POPC   GL165737   6.644  38.515   5.726
 5118POPC   GL265738   6.263  38.433   5.814
 5118POPC   C1A65739   6.610  38.610   6.151
 5118POPC   D2A65740   6.686  38.846   6.481
 5118POPC   C3A65741   6.552  38.650   6.841
 5118POPC   C4A65742   6.631  38.744   7.241
 5118POPC   C1B65743   6.385  38.122   6.179
 5118POPC   C2B65744   6.546  38.114   6.650
 5118POPC   C3B65745   6.468  38.004   7.107
 5118POPC   C4B65746   6.444  38.138   7.565
 5119POPC   NC365747   9.754   7.942   5.380
 5119POPC   PO465748   9.798   7.270   5.352
 5119POPC   GL165749   9.790   7.523   5.693
 5119POPC   GL265750  10.132   7.516   5.759
 5119POPC   C1A65751   9.721   7.536   6.135
 5119POPC   D2A65752   9.402   7.425   6.460
 5119POPC   C3A65753   9.574   7.355   6.849
 5119POPC   C4A65754   9.762   7.557   7.196
 5119POPC   C1B65755  10.132   7.251   6.124
 5119POPC   C2B65756   9.998   7.369   6.557
 5119POPC   C3B65757  10.078   7.189   6.984
 5119POPC   C4B65758  10.314   7.275   7.360
 5120POPC   NC365759  32.847   3.421   5.376
 5120POPC   PO465760  33.009   4.069   5.305
 5120POPC   GL165761  32.821   3.853   5.695
 5120POPC   GL265762  33.112   3.662   5.767
 5120POPC   C1A65763  32.713   3.506   6.047
 5120POPC   D2A65764  32.988   3.368   6.427
 5120POPC   C3A65765  32.809   3.515   6.824
 5120POPC   C4A65766  32.690   3.306   7.192
 5120POPC   C1B65767  33.085   3.830   6.198
 5120POPC   C2B65768  33.271   3.774   6.620
 5120POPC   C3B65769  33.312   3.434   6.879
 5120POPC   C4B65770  33.114   3.612   7.230
 5121POPC   NC365771  16.986  19.295   5.044
 5121POPC   PO465772  16.570  18.968   5.425
 5121POPC   GL165773  16.748  19.141   5.802
 5121POPC   GL265774  16.475  19.381   5.839
 5121POPC   C1A65775  16.946  19.016   6.210
 5121POPC   D2A65776  16.892  18.804   6.633
 5121POPC   C3A65777  16.821  19.034   7.029
 5121POPC   C4A65778  17.021  19.261   7.346
 5121POPC   C1B65779  16.359  19.294   6.282
 5121POPC   C2B65780  16.444  19.258   6.738
 5121POPC   C3B65781  16.306  18.994   7.089
 5121POPC   C4B65782  16.261  18.744   7.483
 5122POPC   NC365783  21.117  32.542   5.413
 5122POPC   PO465784  21.596  32.083   5.469
 5122POPC   GL165785  21.725  32.308   5.867
 5122POPC   GL265786  21.520  32.559   5.774
 5122POPC   C1A65787  21.640  32.324   6.339
 5122POPC   D2A65788  21.424  32.101   6.692
 5122POPC   C3A65789  21.653  32.183   7.097
 5122POPC   C4A65790  21.673  32.267   7.570
 5122POPC   C1B65791  21.241  32.291   6.038
 5122POPC   C2B65792  21.071  32.426   6.424
 5122POPC   C3B65793  21.197  32.541   6.854
 5122POPC   C4B65794  21.166  32.300   7.237
 5123POPC   NC365795  44.467  10.638   5.383
 5123POPC   PO465796   0.075  10.307   5.436
 5123POPC   GL165797  44.747  10.450   5.793
 5123POPC   GL265798  44.484  10.725   5.865
 5123POPC   C1A65799  44.588  10.353   6.206
 5123POPC   D2A65800  44.826  10.295   6.585
 5123POPC   C3A65801  44.664  10.454   6.966
 5123POPC   C4A65802  44.754  10.408   7.374
 5123POPC   C1B65803  44.479  10.896   6.234
 5123POPC   C2B65804  44.429  10.684   6.576
 5123POPC   C3B65805  44.235  10.722   6.928
 5123POPC   C4B65806  44.283  10.594   7.351
 5124POPC   NC365807  35.471  38.198   5.383
 5124POPC   PO465808  35.459  38.887   5.461
 5124POPC   GL165809  35.557  38.563   5.714
 5124POPC   GL265810  35.257  38.385   5.818
 5124POPC   C1A65811  35.608  38.580   6.133
 5124POPC   D2A65812  35.494  38.666   6.530
 5124POPC   C3A65813  35.410  38.380   6.835
 5124POPC   C4A65814  35.590  38.422   7.242
 5124POPC   C1B65815  35.248  38.176   6.213
 5124POPC   C2B65816  34.907  38.190   6.495
 5124POPC   C3B65817  34.919  38.176   6.908
 5124POPC   C4B65818  35.104  38.343   7.250
 5125POPC   NC365819   2.844  38.250   5.374
 5125POPC   PO465820   2.358  38.636   5.610
 5125POPC   GL165821   2.743  38.458   5.821
 5125POPC   GL265822   2.984  38.747   5.780
 5125POPC   C1A65823   2.991  38.211   6.143
 5125POPC   D2A65824   3.185  38.345   6.548
 5125POPC   C3A65825   3.028  38.316   6.973
 5125POPC   C4A65826   2.640  38.552   7.109
 5125POPC   C1B65827   2.968  38.715   6.223
 5125POPC   C2B65828   2.837  38.715   6.655
 5125POPC   C3B65829   3.088  38.809   7.025
 5125POPC   C4B65830   3.116  38.589   7.420
 5126POPC   NC365831   6.967   3.867   5.335
 5126POPC   PO465832   6.532   3.368   5.197
 5126POPC   GL165833   6.523   3.556   5.633
 5126POPC   GL265834   6.216   3.506   5.794
 5126POPC   C1A65835   6.663   3.426   6.075
 5126POPC   D2A65836   6.872   3.598   6.430
 5126POPC   C3A65837   6.875   3.517   6.846
 5126POPC   C4A65838   7.114   3.591   7.232
 5126POPC   C1B65839   6.237   3.637   6.212
 5126POPC   C2B65840   6.370   3.554   6.622
 5126POPC   C3B65841   6.399   3.629   7.046
 5126POPC   C4B65842   6.661   3.411   7.313
 5127POPC   NC365843  37.496  26.221   5.459
 5127POPC   PO465844  38.042  25.816   5.480
 5127POPC   GL165845  37.814  26.037   5.822
 5127POPC   GL265846  37.522  25.820   5.807
 5127POPC   C1A65847  37.699  26.256   6.229
 5127POPC   D2A65848  37.625  26.521   6.648
 5127POPC   C3A65849  37.784  26.325   7.042
 5127POPC   C4A65850  37.765  25.932   7.309
 5127POPC   C1B65851  37.339  25.827   6.218
 5127POPC   C2B65852  37.400  26.064   6.597
 5127POPC   C3B65853  37.400  25.929   6.977
 5127POPC   C4B65854  37.329  25.527   7.113
 5128POPC   NC365855   0.474  44.261   5.537
 5128POPC   PO465856   0.717   0.020   5.368
 5128POPC   GL165857   0.627  44.730   5.717
 5128POPC   GL265858   0.254  44.726   5.750
 5128POPC   C1A65859   0.618  44.666   6.186
 5128POPC   D2A65860   0.378  44.739   6.549
 5128POPC   C3A65861   0.468  44.591   6.934
 5128POPC   C4A65862   0.292  44.871   7.206
 5128POPC   C1B65863   0.114  44.526   6.148
 5128POPC   C2B65864   0.082  44.301   6.548
 5128POPC   C3B65865   0.205  44.157   6.961
 5128POPC   C4B65866   0.161  44.367   7.335
 5129POPC   NC365867  32.667  29.381   5.429
 5129POPC   PO465868  33.334  29.131   5.471
 5129POPC   GL165869  33.149  29.024   5.869
 5129POPC   GL265870  32.817  29.032   5.823
 5129POPC   C1A65871  33.108  29.108   6.313
 5129POPC   D2A65872  33.340  29.404   6.604
 5129POPC   C3A65873  33.301  29.290   7.037
 5129POPC   C4A65874  33.160  28.932   7.232
 5129POPC   C1B65875  32.622  29.227   6.149
 5129POPC   C2B65876  32.706  29.318   6.550
 5129POPC   C3B65877  32.786  29.065   6.867
 5129POPC   C4B65878  32.791  29.271   7.212
 5130POPC   NC365879  26.625  17.447   5.364
 5130POPC   PO465880  27.173  17.564   5.471
 5130POPC   GL165881  26.889  17.563   5.849
 5130POPC   GL265882  26.527  17.651   5.833
 5130POPC   C1A65883  26.881  17.606   6.316
 5130POPC   D2A65884  26.670  17.566   6.729
 5130POPC   C3A65885  26.868  17.499   7.148
 5130POPC   C4A65886  26.909  17.792   7.514
 5130POPC   C1B65887  26.426  17.383   6.194
 5130POPC   C2B65888  26.331  17.187   6.612
 5130POPC   C3B65889  26.428  17.248   7.052
 5130POPC   C4B65890  26.346  17.637   7.256
 5131POPC   NC365891   9.267  43.586   5.486
 5131POPC   PO465892   9.044  42.974   5.487
 5131POPC   GL165893   8.971  43.306   5.792
 5131POPC   GL265894   8.992  43.049   6.010
 5131POPC   C1A65895   8.828  43.515   6.145
 5131POPC   D2A65896   8.773  43.261   6.496
 5131POPC   C3A65897   8.853  43.328   6.886
 5131POPC   C4A65898   9.088  43.255   7.256
 5131POPC   C1B65899   8.762  42.723   6.160
 5131POPC   C2B65900   8.914  42.764   6.564
 5131POPC   C3B65901   9.109  42.858   6.922
 5131POPC   C4B65902   8.923  42.758   7.279
 5132POPC   NC365903  43.189  41.988   5.408
 5132POPC   PO465904  43.338  42.672   5.587
 5132POPC   GL165905  43.209  42.446   5.933
 5132POPC   GL265906  42.957  42.179   5.830
 5132POPC   C1A65907  43.289  42.578   6.370
 5132POPC   D2A65908  43.480  42.687   6.783
 5132POPC   C3A65909  43.282  42.420   7.082
 5132POPC   C4A65910  43.106  42.080   7.323
 5132POPC   C1B65911  42.824  42.350   6.250
 5132POPC   C2B65912  42.928  42.355   6.696
 5132POPC   C3B65913  42.740  42.055   6.964
 5132POPC   C4B65914  42.580  42.000   7.350
 5133POPC   NC365915  34.917  20.475   5.350
 5133POPC   PO465916  35.559  20.528   5.267
 5133POPC   GL165917  35.252  20.473   5.716
 5133POPC   GL265918  34.995  20.722   5.865
 5133POPC   C1A65919  35.363  20.492   6.206
 5133POPC   D2A65920  35.605  20.783   6.535
 5133POPC   C3A65921  35.745  20.592   6.920
 5133POPC   C4A65922  35.676  20.537   7.365
 5133POPC   C1B65923  34.866  20.617   6.300
 5133POPC   C2B65924  35.147  20.567   6.654
 5133POPC   C3B65925  35.244  20.613   7.053
 5133POPC   C4B65926  35.170  20.554   7.463
 5134POPC   NC365927  20.414  17.720   5.313
 5134POPC   PO465928  20.747  17.154   5.538
 5134POPC   GL165929  20.592  17.474   5.840
 5134POPC   GL265930  20.552  17.825   5.800
 5134POPC   C1A65931  20.361  17.427   6.232
 5134POPC   D2A65932  20.509  17.192   6.602
 5134POPC   C3A65933  20.672  17.393   6.957
 5134POPC   C4A65934  20.312  17.464   7.144
 5134POPC   C1B65935  20.635  17.864   6.245
 5134POPC   C2B65936  20.589  17.825   6.720
 5134POPC   C3B65937  20.654  17.868   7.175
 5134POPC   C4B65938  20.632  18.000   7.608
 5135POPC   NC365939  35.462  36.440   5.121
 5135POPC   PO465940  35.052  35.986   5.439
 5135POPC   GL165941  35.182  36.230   5.801
 5135POPC   GL265942  35.525  36.323   5.840
 5135POPC   C1A65943  35.247  36.175   6.242
 5135POPC   D2A65944  35.032  36.012   6.583
 5135POPC   C3A65945  35.138  36.236   6.921
 5135POPC   C4A65946  35.292  36.087   7.271
 5135POPC   C1B65947  35.752  36.219   6.216
 5135POPC   C2B65948  35.575  36.100   6.628
 5135POPC   C3B65949  35.634  36.320   6.967
 5135POPC   C4B65950  35.761  36.234   7.355
 5136POPC   NC365951  22.481  41.730   5.421
 5136POPC   PO465952  21.863  41.530   5.322
 5136POPC   GL165953  22.095  41.520   5.703
 5136POPC   GL265954  22.371  41.259   5.712
 5136POPC   C1A65955  21.969  41.780   6.073
 5136POPC   D2A65956  21.741  41.911   6.474
 5136POPC   C3A65957  21.947  41.850   6.861
 5136POPC   C4A65958  22.181  41.840   7.237
 5136POPC   C1B65959  22.337  41.415   6.148
 5136POPC   C2B65960  22.227  41.582   6.529
 5136POPC   C3B65961  22.252  41.422   6.967
 5136POPC   C4B65962  22.390  41.189   7.371
 5137POPC   NC365963  23.987  36.908   5.487
 5137POPC   PO465964  23.291  36.986   5.372
 5137POPC   GL165965  23.540  36.818   5.734
 5137POPC   GL265966  23.678  37.126   5.845
 5137POPC   C1A65967  23.544  36.718   6.194
 5137POPC   D2A65968  23.690  36.731   6.644
 5137POPC   C3A65969  23.441  36.714   7.054
 5137POPC   C4A65970  23.547  36.911   7.444
 5137POPC   C1B65971  23.900  37.339   6.176
 5137POPC   C2B65972  23.882  37.187   6.588
 5137POPC   C3B65973  23.775  37.115   7.030
 5137POPC   C4B65974  23.895  37.268   7.453
 5138POPC   NC365975  29.682  10.975   5.162
 5138POPC   PO465976  30.038  11.518   5.415
 5138POPC   GL165977  29.987  11.152   5.710
 5138POPC   GL265978  29.625  11.118   5.670
 5138POPC   C1A65979  30.110  11.144   6.174
 5138POPC   D2A65980  30.058  11.449   6.528
 5138POPC   C3A65981  30.009  11.314   6.964
 5138POPC   C4A65982  29.943  11.657   7.260
 5138POPC   C1B65983  29.603  11.012   6.121
 5138POPC   C2B65984  29.757  11.017   6.571
 5138POPC   C3B65985  29.505  11.039   6.961
 5138POPC   C4B65986  29.466  10.856   7.400
 5139POPC   NC365987  13.054   8.663   5.418
 5139POPC   PO465988  12.583   9.126   5.448
 5139POPC   GL165989  12.676   9.087   5.839
 5139POPC   GL265990  12.729   8.748   5.840
 5139POPC   C1A65991  12.879   9.085   6.243
 5139POPC   D2A65992  12.935   8.799   6.613
 5139POPC   C3A65993  12.899   9.039   7.009
 5139POPC   C4A65994  13.116   8.963   7.405
 5139POPC   C1B65995  12.514   8.709   6.233
 5139POPC   C2B65996  12.491   8.519   6.653
 5139POPC   C3B65997  12.453   8.749   7.044
 5139POPC   C4B65998  12.608   8.975   7.433
 5140POPC   NC365999  38.624  17.959   5.300
 5140POPC   PO466000  38.526  18.576   5.539
 5140POPC   GL166001  38.406  18.230   5.781
 5140POPC   GL266002  38.656  17.935   5.815
 5140POPC   C1A66003  38.335  18.407   6.195
 5140POPC   D2A66004  38.657  18.590   6.466
 5140POPC   C3A66005  38.638  18.631   6.899
 5140POPC   C4A66006  38.456  18.455   7.282
 5140POPC   C1B66007  38.371  17.921   6.200
 5140POPC   C2B66008  38.442  18.130   6.621
 5140POPC   C3B66009  38.275  18.037   7.007
 5140POPC   C4B66010  38.482  17.919   7.385
 5141POPC   NC366011  36.911  37.256   5.140
 5141POPC   PO466012  36.525  37.676   5.600
 5141POPC   GL166013  36.760  37.733   5.942
 5141POPC   GL266014  36.592  37.463   6.109
 5141POPC   C1A66015  37.086  37.523   6.198
 5141POPC   D2A66016  37.346  37.472   6.550
 5141POPC   C3A66017  37.135  37.621   6.941
 5141POPC   C4A66018  37.182  37.439   7.353
 5141POPC   C1B66019  36.455  37.889   6.326
 5141POPC   C2B66020  36.604  38.043   6.754
 5141POPC   C3B66021  36.646  37.710   7.039
 5141POPC   C4B66022  36.757  37.243   7.088
 5142POPC   NC366023   4.986  28.690   5.461
 5142POPC   PO466024   5.334  29.288   5.379
 5142POPC   GL166025   4.990  29.164   5.727
 5142POPC   GL266026   4.876  28.835   5.935
 5142POPC   C1A66027   4.902  29.281   6.172
 5142POPC   D2A66028   5.109  29.240   6.580
 5142POPC   C3A66029   4.925  29.218   6.977
 5142POPC   C4A66030   5.165  29.119   7.325
 5142POPC   C1B66031   4.862  28.790   6.423
 5142POPC   C2B66032   4.648  28.794   6.863
 5142POPC   C3B66033   4.723  28.815   7.287
 5142POPC   C4B66034   4.804  29.083   7.680
 5143POPC   NC366035  42.845   8.671   5.350
 5143POPC   PO466036  43.257   9.200   5.402
 5143POPC   GL166037  43.124   9.003   5.711
 5143POPC   GL266038  43.221   8.671   5.671
 5143POPC   C1A66039  42.969   9.105   6.123
 5143POPC   D2A66040  43.051   8.938   6.523
 5143POPC   C3A66041  43.073   9.190   6.897
 5143POPC   C4A66042  43.052   8.970   7.265
 5143POPC   C1B66043  43.199   8.627   6.104
 5143POPC   C2B66044  43.417   8.564   6.489
 5143POPC   C3B66045  43.413   8.746   6.898
 5143POPC   C4B66046  43.366   8.562   7.307
 5144POPC   NC366047  38.702  16.131   5.469
 5144POPC   PO466048  38.126  15.656   5.400
 5144POPC   GL166049  38.248  15.916   5.692
 5144POPC   GL266050  38.532  15.711   5.715
 5144POPC   C1A66051  38.354  16.133   6.072
 5144POPC   D2A66052  38.269  16.321   6.472
 5144POPC   C3A66053  38.474  16.213   6.866
 5144POPC   C4A66054  38.211  16.165   7.214
 5144POPC   C1B66055  38.330  15.615   6.111
 5144POPC   C2B66056  38.459  15.835   6.493
 5144POPC   C3B66057  38.294  15.735   6.891
 5144POPC   C4B66058  38.426  15.708   7.310
 5145POPC   NC366059   7.163  40.313   5.631
 5145POPC   PO466060   7.443  39.817   5.352
 5145POPC   GL166061   7.576  39.977   5.766
 5145POPC   GL266062   7.670  40.342   5.781
 5145POPC   C1A66063   7.503  39.953   6.215
 5145POPC   D2A66064   7.149  40.069   6.468
 5145POPC   C3A66065   7.197  40.054   6.910
 5145POPC   C4A66066   7.368  40.085   7.311
 5145POPC   C1B66067   7.811  40.358   6.216
 5145POPC   C2B66068   7.616  40.238   6.616
 5145POPC   C3B66069   7.748  40.002   6.993
 5145POPC   C4B66070   7.877  39.929   7.444
 5146POPC   NC366071  30.078  14.439   5.481
 5146POPC   PO466072  29.680  13.991   5.225
 5146POPC   GL166073  29.865  14.033   5.695
 5146POPC   GL266074  29.689  14.334   5.820
 5146POPC   C1A66075  30.103  14.230   6.099
 5146POPC   D2A66076  29.984  14.524   6.417
 5146POPC   C3A66077  30.063  14.494   6.869
 5146POPC   C4A66078  30.173  14.871   7.072
 5146POPC   C1B66079  29.613  14.191   6.246
 5146POPC   C2B66080  29.675  14.202   6.702
 5146POPC   C3B66081  29.546  14.502   7.026
 5146POPC   C4B66082  29.253  14.525   7.373
 5147POPC   NC366083  20.312  25.620   5.293
 5147POPC   PO466084  20.759  25.159   5.167
 5147POPC   GL166085  20.779  25.338   5.634
 5147POPC   GL266086  20.525  25.546   5.782
 5147POPC   C1A66087  20.886  25.379   6.124
 5147POPC   D2A66088  21.005  25.128   6.531
 5147POPC   C3A66089  20.801  25.123   6.966
 5147POPC   C4A66090  20.711  25.240   7.403
 5147POPC   C1B66091  20.388  25.443   6.217
 5147POPC   C2B66092  20.598  25.475   6.642
 5147POPC   C3B66093  20.423  25.524   7.079
 5147POPC   C4B66094  20.296  25.523   7.536
 5148POPC   NC366095  39.463  32.344   5.475
 5148POPC   PO466096  39.001  31.886   5.411
 5148POPC   GL166097  39.093  32.082   5.789
 5148POPC   GL266098  39.410  32.040   5.863
 5148POPC   C1A66099  39.073  32.244   6.215
 5148POPC   D2A66100  38.910  32.186   6.632
 5148POPC   C3A66101  39.223  32.308   6.930
 5148POPC   C4A66102  39.342  32.257   7.393
 5148POPC   C1B66103  39.660  32.158   6.219
 5148POPC   C2B66104  39.731  32.276   6.649
 5148POPC   C3B66105  39.718  32.332   7.062
 5148POPC   C4B66106  39.809  32.029   7.343
 5149POPC   NC366107  32.467  40.708   5.326
 5149POPC   PO466108  31.812  40.772   5.406
 5149POPC   GL166109  32.133  40.646   5.737
 5149POPC   GL266110  32.480  40.741   5.838
 5149POPC   C1A66111  32.084  40.675   6.201
 5149POPC   D2A66112  31.836  40.712   6.580
 5149POPC   C3A66113  31.993  40.765   6.975
 5149POPC   C4A66114  32.294  40.479   7.089
 5149POPC   C1B66115  32.417  41.075   6.163
 5149POPC   C2B66116  32.296  40.960   6.587
 5149POPC   C3B66117  32.477  40.969   6.979
 5149POPC   C4B66118  32.634  41.189   7.351
 5150POPC   NC366119  32.430  39.023   5.063
 5150POPC   PO466120  32.512  39.542   5.510
 5150POPC   GL166121  32.284  39.414   5.849
 5150POPC   GL266122  32.138  39.710   5.921
 5150POPC   C1A66123  32.280  39.281   6.304
 5150POPC   D2A66124  32.331  39.373   6.769
 5150POPC   C3A66125  32.328  38.993   7.085
 5150POPC   C4A66126  32.481  38.927   7.529
 5150POPC   C1B66127  32.224  39.782   6.382
 5150POPC   C2B66128  31.966  39.753   6.755
 5150POPC   C3B66129  31.939  39.525   7.136
 5150POPC   C4B66130  31.592  39.416   7.442
 5151POPC   NC366131  19.864  18.542   5.467
 5151POPC   PO466132  19.652  17.944   5.165
 5151POPC   GL166133  19.834  18.058   5.629
 5151POPC   GL266134  20.190  18.167   5.667
 5151POPC   C1A66135  19.698  18.213   6.087
 5151POPC   D2A66136  19.841  18.161   6.526
 5151POPC   C3A66137  19.673  18.262   6.934
 5151POPC   C4A66138  19.868  18.282   7.335
 5151POPC   C1B66139  20.162  18.444   6.047
 5151POPC   C2B66140  20.009  18.620   6.424
 5151POPC   C3B66141  20.103  18.536   6.862
 5151POPC   C4B66142  20.065  18.743   7.269
 5152POPC   NC366143  37.237  30.658   5.373
 5152POPC   PO466144  36.550  30.660   5.441
 5152POPC   GL166145  36.883  30.690   5.763
 5152POPC   GL266146  37.049  31.019   5.734
 5152POPC   C1A66147  37.018  30.585   6.195
 5152POPC   D2A66148  37.104  30.779   6.605
 5152POPC   C3A66149  36.824  30.599   6.894
 5152POPC   C4A66150  36.687  30.501   7.295
 5152POPC   C1B66151  36.899  31.082   6.169
 5152POPC   C2B66152  36.670  31.072   6.567
 5152POPC   C3B66153  36.868  31.116   6.968
 5152POPC   C4B66154  36.802  30.982   7.413
 5153POPC   NC366155  13.469  39.294   5.614
 5153POPC   PO466156  14.015  39.697   5.461
 5153POPC   GL166157  13.733  39.624   5.877
 5153POPC   GL266158  13.806  39.274   5.998
 5153POPC   C1A66159  13.437  39.444   6.265
 5153POPC   D2A66160  13.577  39.267   6.673
 5153POPC   C3A66161  13.406  39.245   7.085
 5153POPC   C4A66162  13.197  39.459   7.365
 5153POPC   C1B66163  13.941  39.548   6.356
 5153POPC   C2B66164  14.040  39.438   6.773
 5153POPC   C3B66165  13.889  39.338   7.155
 5153POPC   C4B66166  13.866  39.095   7.513
 5154POPC   NC366167   4.871  14.543   5.341
 5154POPC   PO466168   5.162  13.942   5.413
 5154POPC   GL166169   4.909  14.161   5.717
 5154POPC   GL266170   5.100  14.418   5.762
 5154POPC   C1A66171   4.793  14.256   6.159
 5154POPC   D2A66172   4.798  14.057   6.584
 5154POPC   C3A66173   5.150  14.103   6.851
 5154POPC   C4A66174   5.067  14.229   7.246
 5154POPC   C1B66175   5.236  14.530   6.143
 5154POPC   C2B66176   5.086  14.504   6.519
 5154POPC   C3B66177   5.096  14.616   6.918
 5154POPC   C4B66178   5.015  14.825   7.265
 5155POPC   NC366179  39.269  10.380   5.384
 5155POPC   PO466180  39.601  10.901   5.542
 5155POPC   GL166181  39.173  10.763   5.785
 5155POPC   GL266182  39.096  10.390   5.861
 5155POPC   C1A66183  38.987  10.832   6.232
 5155POPC   D2A66184  39.004  11.061   6.674
 5155POPC   C3A66185  39.276  10.884   7.017
 5155POPC   C4A66186  39.556  10.736   7.350
 5155POPC   C1B66187  39.157  10.314   6.276
 5155POPC   C2B66188  38.888  10.289   6.625
 5155POPC   C3B66189  38.903  10.466   7.034
 5155POPC   C4B66190  39.291  10.309   7.232
 5156POPC   NC366191   6.480  34.523   5.382
 5156POPC   PO466192   6.930  35.032   5.365
 5156POPC   GL166193   6.815  34.793   5.746
 5156POPC   GL266194   6.721  34.436   5.832
 5156POPC   C1A66195   6.964  34.737   6.178
 5156POPC   D2A66196   6.961  34.888   6.613
 5156POPC   C3A66197   6.588  34.759   6.857
 5156POPC   C4A66198   6.580  34.872   7.301
 5156POPC   C1B66199   6.444  34.211   6.154
 5156POPC   C2B66200   6.326  34.321   6.602
 5156POPC   C3B66201   6.498  34.273   7.014
 5156POPC   C4B66202   6.901  34.455   7.142
 5157POPC   NC366203  28.457  27.988   5.365
 5157POPC   PO466204  28.398  27.320   5.464
 5157POPC   GL166205  28.400  27.612   5.791
 5157POPC   GL266206  28.725  27.768   5.783
 5157POPC   C1A66207  28.209  27.668   6.223
 5157POPC   D2A66208  28.409  27.578   6.625
 5157POPC   C3A66209  28.322  27.739   7.055
 5157POPC   C4A66210  28.086  28.003   7.350
 5157POPC   C1B66211  28.735  27.523   6.183
 5157POPC   C2B66212  28.791  27.253   6.551
 5157POPC   C3B66213  28.785  27.445   6.958
 5157POPC   C4B66214  28.593  27.409   7.386
 5158POPC   NC366215  21.713   5.655   5.189
 5158POPC   PO466216  21.962   6.199   5.567
 5158POPC   GL166217  22.166   6.236   5.951
 5158POPC   GL266218  22.127   5.870   6.040
 5158POPC   C1A66219  22.252   6.190   6.409
 5158POPC   D2A66220  22.096   5.791   6.566
 5158POPC   C3A66221  21.964   5.854   6.971
 5158POPC   C4A66222  22.056   5.795   7.356
 5158POPC   C1B66223  22.486   5.626   6.190
 5158POPC   C2B66224  22.515   5.456   6.597
 5158POPC   C3B66225  22.298   5.474   7.000
 5158POPC   C4B66226  22.468   5.503   7.425
 5159POPC   NC366227  16.693  38.783   5.337
 5159POPC   PO466228  16.391  38.233   5.465
 5159POPC   GL166229  16.650  38.364   5.788
 5159POPC   GL266230  16.616  38.726   5.839
 5159POPC   C1A66231  16.752  38.153   6.161
 5159POPC   D2A66232  16.830  38.302   6.539
 5159POPC   C3A66233  16.766  38.141   6.944
 5159POPC   C4A66234  16.896  38.365   7.317
 5159POPC   C1B66235  16.887  38.670   6.197
 5159POPC   C2B66236  17.063  38.791   6.549
 5159POPC   C3B66237  16.857  38.648   6.899
 5159POPC   C4B66238  16.758  38.847   7.255
 5160POPC   NC366239  42.344  21.613   5.413
 5160POPC   PO466240  42.340  20.899   5.280
 5160POPC   GL166241  42.288  20.953   5.759
 5160POPC   GL266242  42.034  21.241   5.786
 5160POPC   C1A66243  42.349  21.158   6.205
 5160POPC   D2A66244  42.437  21.452   6.579
 5160POPC   C3A66245  42.407  21.217   6.989
 5160POPC   C4A66246  42.258  21.040   7.408
 5160POPC   C1B66247  41.917  21.477   6.168
 5160POPC   C2B66248  41.968  21.288   6.592
 5160POPC   C3B66249  41.952  21.506   6.969
 5160POPC   C4B66250  42.188  21.549   7.373
 5161POPC   NC366251  11.542  36.274   5.363
 5161POPC   PO466252  11.031  35.788   5.310
 5161POPC   GL166253  11.190  36.023   5.687
 5161POPC   GL266254  11.528  35.915   5.774
 5161POPC   C1A66255  11.177  36.185   6.134
 5161POPC   D2A66256  11.192  36.531   6.451
 5161POPC   C3A66257  11.148  36.450   6.863
 5161POPC   C4A66258  11.124  36.400   7.294
 5161POPC   C1B66259  11.677  36.209   6.113
 5161POPC   C2B66260  11.625  36.330   6.547
 5161POPC   C3B66261  11.497  36.077   6.920
 5161POPC   C4B66262  11.267  35.741   7.140
 5162POPC   NC366263  20.410  30.212   5.348
 5162POPC   PO466264  20.810  29.669   5.377
 5162POPC   GL166265  20.551  29.855   5.699
 5162POPC   GL266266  20.694  30.185   5.803
 5162POPC   C1A66267  20.335  29.805   6.095
 5162POPC   D2A66268  20.254  29.907   6.529
 5162POPC   C3A66269  20.353  29.652   6.884
 5162POPC   C4A66270  20.432  29.798   7.278
 5162POPC   C1B66271  20.999  30.226   6.185
 5162POPC   C2B66272  20.998  30.361   6.643
 5162POPC   C3B66273  20.727  30.230   6.982
 5162POPC   C4B66274  20.299  30.277   7.129
 5163POPC   NC366275  43.041  38.740   5.228
 5163POPC   PO466276  43.247  38.082   5.350
 5163POPC   GL166277  43.152  38.446   5.671
 5163POPC   GL266278  43.447  38.713   5.633
 5163POPC   C1A66279  42.912  38.466   6.115
 5163POPC   D2A66280  42.779  38.559   6.588
 5163POPC   C3A66281  43.026  38.261   6.911
 5163POPC   C4A66282  43.109  38.217   7.379
 5163POPC   C1B66283  43.379  38.654   6.098
 5163POPC   C2B66284  43.291  38.493   6.524
 5163POPC   C3B66285  43.250  38.731   6.937
 5163POPC   C4B66286  43.415  38.622   7.335
 5164POPC   NC366287  23.251  27.766   5.175
 5164POPC   PO466288  22.553  27.832   5.309
 5164POPC   GL166289  22.894  27.762   5.645
 5164POPC   GL266290  23.136  27.455   5.690
 5164POPC   C1A66291  22.940  27.746   6.116
 5164POPC   D2A66292  22.967  27.436   6.457
 5164POPC   C3A66293  22.992  27.597   6.877
 5164POPC   C4A66294  22.763  27.549   7.258
 5164POPC   C1B66295  23.184  27.175   6.065
 5164POPC   C2B66296  23.400  27.175   6.463
 5164POPC   C3B66297  23.319  27.161   6.898
 5164POPC   C4B66298  23.216  27.325   7.278
 5165POPC   NC366299  22.455   0.897   5.513
 5165POPC   PO466300  21.927   1.291   5.317
 5165POPC   GL166301  22.140   1.252   5.720
 5165POPC   GL266302  22.433   1.442   5.675
 5165POPC   C1A66303  22.141   1.084   6.143
 5165POPC   D2A66304  21.857   1.108   6.489
 5165POPC   C3A66305  22.013   1.177   6.902
 5165POPC   C4A66306  22.181   1.078   7.316
 5165POPC   C1B66307  22.470   1.477   6.120
 5165POPC   C2B66308  22.376   1.348   6.559
 5165POPC   C3B66309  22.378   1.528   6.991
 5165POPC   C4B66310  22.445   1.503   7.429
 5166POPC   NC366311  26.509  12.898   5.396
 5166POPC   PO466312  26.854  13.293   5.812
 5166POPC   GL166313  26.655  12.942   5.924
 5166POPC   GL266314  26.779  12.651   5.798
 5166POPC   C1A66315  26.713  12.888   6.352
 5166POPC   D2A66316  26.955  12.686   6.646
 5166POPC   C3A66317  26.873  12.972   6.940
 5166POPC   C4A66318  26.925  12.948   7.349
 5166POPC   C1B66319  26.752  12.420   6.208
 5166POPC   C2B66320  26.514  12.449   6.616
 5166POPC   C3B66321  26.562  12.596   7.059
 5166POPC   C4B66322  26.542  12.646   7.528
 5167POPC   NC366323   6.308  23.942   5.605
 5167POPC   PO466324   7.008  24.118   5.503
 5167POPC   GL166325   6.775  23.993   5.839
 5167POPC   GL266326   6.705  23.639   5.782
 5167POPC   C1A66327   6.607  24.074   6.265
 5167POPC   D2A66328   6.583  24.010   6.720
 5167POPC   C3A66329   6.947  23.780   6.881
 5167POPC   C4A66330   6.994  23.430   7.121
 5167POPC   C1B66331   6.500  23.516   6.195
 5167POPC   C2B66332   6.640  23.464   6.631
 5167POPC   C3B66333   6.485  23.491   7.057
 5167POPC   C4B66334   6.251  23.221   7.342
 5168POPC   NC366335  42.923  34.835   5.473
 5168POPC   PO466336  43.021  34.238   5.761
 5168POPC   GL166337  43.270  34.410   5.980
 5168POPC   GL266338  43.286  34.743   5.834
 5168POPC   C1A66339  43.241  34.376   6.406
 5168POPC   D2A66340  43.344  34.344   6.795
 5168POPC   C3A66341  43.220  34.393   7.173
 5168POPC   C4A66342  43.343  34.591   7.574
 5168POPC   C1B66343  43.114  34.836   6.241
 5168POPC   C2B66344  42.948  34.831   6.621
 5168POPC   C3B66345  43.110  34.875   7.017
 5168POPC   C4B66346  42.870  34.709   7.346
 5169POPC   NC366347  29.839  35.913   5.315
 5169POPC   PO466348  30.123  35.281   5.430
 5169POPC   GL166349  30.137  35.423   5.844
 5169POPC   GL266350  29.779  35.472   5.818
 5169POPC   C1A66351  29.968  35.300   6.286
 5169POPC   D2A66352  29.691  35.101   6.621
 5169POPC   C3A66353  29.893  35.053   7.014
 5169POPC   C4A66354  30.069  35.420   7.223
 5169POPC   C1B66355  29.675  35.739   6.179
 5169POPC   C2B66356  29.684  35.626   6.614
 5169POPC   C3B66357  29.600  35.478   7.020
 5169POPC   C4B66358  29.669  35.763   7.397
 5170POPC   NC366359   7.452  41.268   5.571
 5170POPC   PO466360   6.998  41.717   5.577
 5170POPC   GL166361   7.310  41.635   5.890
 5170POPC   GL266362   7.696  41.673   5.861
 5170POPC   C1A66363   7.387  41.587   6.292
 5170POPC   D2A66364   7.635  41.660   6.627
 5170POPC   C3A66365   7.363  41.555   6.934
 5170POPC   C4A66366   7.528  41.715   7.284
 5170POPC   C1B66367   7.855  41.414   6.215
 5170POPC   C2B66368   7.948  41.237   6.632
 5170POPC   C3B66369   7.811  41.345   7.070
 5170POPC   C4B66370   8.015  41.490   7.472
 5171POPC   NC366371  25.738  36.395   5.650
 5171POPC   PO466372  26.160  36.156   5.184
 5171POPC   GL166373  26.144  35.870   5.567
 5171POPC   GL266374  25.885  35.940   5.832
 5171POPC   C1A66375  26.334  35.820   6.007
 5171POPC   D2A66376  26.281  35.719   6.468
 5171POPC   C3A66377  26.293  35.985   6.811
 5171POPC   C4A66378  26.079  36.133   7.175
 5171POPC   C1B66379  25.943  36.081   6.275
 5171POPC   C2B66380  26.002  36.361   6.623
 5171POPC   C3B66381  25.770  36.496   6.973
 5171POPC   C4B66382  25.664  36.349   7.362
 5172POPC   NC366383  20.434  37.303   5.413
 5172POPC   PO466384  20.545  37.979   5.413
 5172POPC   GL166385  20.542  37.717   5.766
 5172POPC   GL266386  20.858  37.785   5.787
 5172POPC   C1A66387  20.433  37.516   6.193
 5172POPC   D2A66388  20.211  37.512   6.586
 5172POPC   C3A66389  20.470  37.499   6.933
 5172POPC   C4A66390  20.679  37.780   7.172
 5172POPC   C1B66391  20.908  37.690   6.206
 5172POPC   C2B66392  20.791  37.800   6.620
 5172POPC   C3B66393  21.088  37.944   6.920
 5172POPC   C4B66394  21.288  37.764   7.268
 5173POPC   NC366395  32.942  43.146   5.375
 5173POPC   PO466396  33.028  42.550   5.698
 5173POPC   GL166397  32.961  42.945   5.897
 5173POPC   GL266398  33.126  43.264   5.820
 5173POPC   C1A66399  32.957  42.896   6.326
 5173POPC   D2A66400  32.733  42.959   6.684
 5173POPC   C3A66401  33.066  42.943   6.986
 5173POPC   C4A66402  33.258  42.941   7.425
 5173POPC   C1B66403  32.977  43.399   6.197
 5173POPC   C2B66404  33.089  43.323   6.595
 5173POPC   C3B66405  32.867  43.408   6.921
 5173POPC   C4B66406  33.030  43.375   7.272
 5174POPC   NC366407   1.554  22.789   5.326
 5174POPC   PO466408   2.254  23.027   5.379
 5174POPC   GL166409   2.117  22.911   5.796
 5174POPC   GL266410   1.801  22.712   5.830
 5174POPC   C1A66411   2.008  23.024   6.247
 5174POPC   D2A66412   2.247  22.920   6.609
 5174POPC   C3A66413   2.118  23.053   7.033
 5174POPC   C4A66414   2.083  22.807   7.430
 5174POPC   C1B66415   1.694  22.613   6.289
 5174POPC   C2B66416   1.752  22.795   6.728
 5174POPC   C3B66417   1.652  22.926   7.169
 5174POPC   C4B66418   1.671  23.127   7.579
 5175POPC   NC366419  13.103  20.441   5.361
 5175POPC   PO466420  12.656  20.856   5.510
 5175POPC   GL166421  12.992  20.695   5.805
 5175POPC   GL266422  13.240  20.958   5.834
 5175POPC   C1A66423  12.925  20.465   6.235
 5175POPC   D2A66424  12.982  20.521   6.711
 5175POPC   C3A66425  12.756  20.371   7.092
 5175POPC   C4A66426  12.879  20.425   7.547
 5175POPC   C1B66427  12.955  21.006   6.217
 5175POPC   C2B66428  12.628  20.838   6.486
 5175POPC   C3B66429  12.491  20.791   6.916
 5175POPC   C4B66430  12.492  20.755   7.353
 5176POPC   NC366431  10.048   0.101   5.422
 5176POPC   PO466432  10.403  44.396   5.342
 5176POPC   GL166433  10.497  44.379   5.778
 5176POPC   GL266434  10.245  44.636   5.865
 5176POPC   C1A66435  10.489  44.342   6.230
 5176POPC   D2A66436  10.626  44.569   6.624
 5176POPC   C3A66437  10.490  44.488   7.071
 5176POPC   C4A66438  10.825  44.286   7.356
 5176POPC   C1B66439  10.432  44.865   6.229
 5176POPC   C2B66440  10.324   0.019   6.664
 5176POPC   C3B66441  10.551   0.171   7.021
 5176POPC   C4B66442  10.828  44.869   7.202
 5177POPC   NC366443  23.781   2.914   5.378
 5177POPC   PO466444  23.431   3.321   5.813
 5177POPC   GL166445  23.681   2.981   5.880
 5177POPC   GL266446  24.015   3.111   5.852
 5177POPC   C1A66447  23.803   2.832   6.288
 5177POPC   D2A66448  23.671   2.987   6.696
 5177POPC   C3A66449  23.652   2.695   7.047
 5177POPC   C4A66450  23.470   2.290   7.024
 5177POPC   C1B66451  24.134   3.238   6.287
 5177POPC   C2B66452  24.129   3.230   6.749
 5177POPC   C3B66453  23.826   3.192   7.126
 5177POPC   C4B66454  23.959   2.893   7.416
 5178POPC   NC366455   0.175   4.722   5.452
 5178POPC   PO466456   0.572   4.235   5.443
 5178POPC   GL166457   0.270   4.300   5.803
 5178POPC   GL266458   0.185   3.956   5.904
 5178POPC   C1A66459   0.212   4.558   6.219
 5178POPC   D2A66460   0.393   4.429   6.662
 5178POPC   C3A66461   0.205   4.620   7.048
 5178POPC   C4A66462   0.193   5.046   7.260
 5178POPC   C1B66463   0.299   4.065   6.319
 5178POPC   C2B66464   0.145   3.945   6.722
 5178POPC   C3B66465   0.360   4.055   7.096
 5178POPC   C4B66466   0.656   4.389   7.112
 5179POPC   NC366467  20.939   8.085   5.424
 5179POPC   PO466468  20.331   8.159   5.398
 5179POPC   GL166469  20.597   8.250   5.784
 5179POPC   GL266470  20.933   8.480   5.749
 5179POPC   C1A66471  20.526   8.129   6.242
 5179POPC   D2A66472  20.612   8.329   6.630
 5179POPC   C3A66473  20.502   8.200   7.034
 5179POPC   C4A66474  20.539   8.576   7.267
 5179POPC   C1B66475  21.004   8.197   6.111
 5179POPC   C2B66476  21.117   8.214   6.579
 5179POPC   C3B66477  20.982   8.389   7.019
 5179POPC   C4B66478  21.028   8.606   7.442
 5180POPC   NC366479   9.500  36.885   5.578
 5180POPC   PO466480  10.066  37.207   5.423
 5180POPC   GL166481   9.963  36.921   5.792
 5180POPC   GL266482   9.929  36.548   5.652
 5180POPC   C1A66483   9.731  37.001   6.199
 5180POPC   D2A66484   9.582  37.278   6.564
 5180POPC   C3A66485   9.573  37.185   6.985
 5180POPC   C4A66486   9.927  37.006   7.179
 5180POPC   C1B66487   9.765  36.466   6.072
 5180POPC   C2B66488   9.838  36.598   6.488
 5180POPC   C3B66489   9.654  36.708   6.852
 5180POPC   C4B66490   9.731  36.542   7.223
 5181POPC   NC366491  29.496   2.579   5.077
 5181POPC   PO466492  29.104   3.000   5.416
 5181POPC   GL166493  28.894   2.858   5.762
 5181POPC   GL266494  29.028   2.523   5.817
 5181POPC   C1A66495  28.846   2.786   6.204
 5181POPC   D2A66496  29.012   2.978   6.550
 5181POPC   C3A66497  28.957   2.843   6.944
 5181POPC   C4A66498  29.302   3.023   7.210
 5181POPC   C1B66499  29.329   2.465   6.159
 5181POPC   C2B66500  29.580   2.544   6.526
 5181POPC   C3B66501  29.364   2.543   6.915
 5181POPC   C4B66502  29.002   2.348   7.109
 5182POPC   NC366503  15.260  39.766   5.407
 5182POPC   PO466504  15.564  40.445   5.392
 5182POPC   GL166505  15.392  40.157   5.704
 5182POPC   GL266506  15.028  40.161   5.700
 5182POPC   C1A66507  15.248  39.930   6.104
 5182POPC   D2A66508  15.397  40.073   6.509
 5182POPC   C3A66509  15.221  39.972   6.883
 5182POPC   C4A66510  15.085  39.724   7.218
 5182POPC   C1B66511  14.763  40.146   6.069
 5182POPC   C2B66512  14.868  40.237   6.487
 5182POPC   C3B66513  14.880  40.423   6.882
 5182POPC   C4B66514  14.749  40.272   7.257
 5183POPC   NC366515   0.526  13.855   4.996
 5183POPC   PO466516   0.435  13.313   5.469
 5183POPC   GL166517   0.528  13.364   5.890
 5183POPC   GL266518   0.421  13.670   5.845
 5183POPC   C1A66519   0.505  13.519   6.307
 5183POPC   D2A66520   0.410  13.671   6.696
 5183POPC   C3A66521   0.630  13.648   7.059
 5183POPC   C4A66522   0.281  13.756   7.277
 5183POPC   C1B66523   0.677  13.967   6.136
 5183POPC   C2B66524   0.663  14.095   6.566
 5183POPC   C3B66525   0.827  14.196   6.989
 5183POPC   C4B66526   0.666  14.057   7.397
 5184POPC   NC366527   1.623  16.198   5.517
 5184POPC   PO466528   0.962  16.097   5.389
 5184POPC   GL166529   1.160  16.224   5.769
 5184POPC   GL266530   1.253  15.888   5.846
 5184POPC   C1A66531   1.107  16.198   6.240
 5184POPC   D2A66532   1.045  15.942   6.625
 5184POPC   C3A66533   1.252  16.139   6.974
 5184POPC   C4A66534   1.539  16.050   7.331
 5184POPC   C1B66535   1.349  15.659   6.235
 5184POPC   C2B66536   1.499  15.493   6.635
 5184POPC   C3B66537   1.374  15.627   7.050
 5184POPC   C4B66538   1.407  15.541   7.488
 5185POPC   NC366539  15.204  23.577   5.281
 5185POPC   PO466540  14.803  24.087   5.082
 5185POPC   GL166541  14.960  23.928   5.567
 5185POPC   GL266542  15.288  23.779   5.731
 5185POPC   C1A66543  14.861  23.767   6.042
 5185POPC   D2A66544  14.963  23.606   6.508
 5185POPC   C3A66545  15.038  23.842   6.931
 5185POPC   C4A66546  15.044  23.709   7.368
 5185POPC   C1B66547  15.364  23.787   6.205
 5185POPC   C2B66548  15.465  23.708   6.671
 5185POPC   C3B66549  15.481  23.567   7.119
 5185POPC   C4B66550  15.510  23.726   7.549
 5186POPC   NC366551  16.537  43.998   5.443
 5186POPC   PO466552  16.948  43.395   5.397
 5186POPC   GL166553  16.755  43.634   5.719
 5186POPC   GL266554  16.477  43.445   5.704
 5186POPC   C1A66555  16.592  43.880   6.102
 5186POPC   D2A66556  16.710  44.040   6.516
 5186POPC   C3A66557  16.652  43.867   6.920
 5186POPC   C4A66558  16.728  44.016   7.343
 5186POPC   C1B66559  16.384  43.429   6.109
 5186POPC   C2B66560  16.487  43.545   6.532
 5186POPC   C3B66561  16.621  43.362   6.928
 5186POPC   C4B66562  16.512  43.562   7.341
 5187POPC   NC366563  44.139  42.286   5.389
 5187POPC   PO466564  44.756  42.203   5.460
 5187POPC   GL166565  44.637  42.328   5.848
 5187POPC   GL266566  44.453  42.659   5.877
 5187POPC   C1A66567  44.791  42.154   6.207
 5187POPC   D2A66568  44.976  42.259   6.562
 5187POPC   C3A66569  44.833  42.175   6.948
 5187POPC   C4A66570  44.696  42.513   7.135
 5187POPC   C1B66571  44.305  42.448   6.229
 5187POPC   C2B66572  44.432  42.214   6.570
 5187POPC   C3B66573  44.275  42.228   6.943
 5187POPC   C4B66574  44.309  42.246   7.357
 5188POPC   NC366575  40.231  12.074   5.424
 5188POPC   PO466576  40.094  11.306   5.324
 5188POPC   GL166577  39.997  11.197   5.788
 5188POPC   GL266578  39.947  11.456   5.921
 5188POPC   C1A66579  39.942  10.963   6.172
 5188POPC   D2A66580  39.962  11.097   6.601
 5188POPC   C3A66581  39.841  10.949   6.987
 5188POPC   C4A66582  39.977  11.035   7.402
 5188POPC   C1B66583  40.093  11.484   6.300
 5188POPC   C2B66584  39.956  11.600   6.698
 5188POPC   C3B66585  39.981  11.483   7.112
 5188POPC   C4B66586  40.307  11.600   7.390
 5189POPC   NC366587  15.541  25.293   5.339
 5189POPC   PO466588  14.994  25.620   5.258
 5189POPC   GL166589  15.134  25.498   5.661
 5189POPC   GL266590  15.190  25.184   5.709
 5189POPC   C1A66591  15.023  25.464   6.121
 5189POPC   D2A66592  15.224  25.379   6.525
 5189POPC   C3A66593  15.321  25.587   6.903
 5189POPC   C4A66594  15.278  25.439   7.327
 5189POPC   C1B66595  15.312  25.039   6.125
 5189POPC   C2B66596  15.163  24.884   6.544
 5189POPC   C3B66597  15.289  25.065   6.955
 5189POPC   C4B66598  15.434  24.940   7.370
 5190POPC   NC366599  36.888  27.321   5.346
 5190POPC   PO466600  36.976  27.930   5.146
 5190POPC   GL166601  37.027  27.656   5.688
 5190POPC   GL266602  37.213  27.397   5.772
 5190POPC   C1A66603  37.000  27.804   6.167
 5190POPC   D2A66604  36.719  27.721   6.544
 5190POPC   C3A66605  36.809  27.811   6.993
 5190POPC   C4A66606  36.984  27.629   7.391
 5190POPC   C1B66607  36.961  27.300   6.094
 5190POPC   C2B66608  37.037  27.329   6.517
 5190POPC   C3B66609  37.029  27.372   6.945
 5190POPC   C4B66610  37.116  27.128   7.279
 5191POPC   NC366611  31.877   3.111   5.292
 5191POPC   PO466612  31.597   3.615   5.607
 5191POPC   GL166613  31.215   3.642   5.776
 5191POPC   GL266614  31.266   3.327   5.946
 5191POPC   C1A66615  31.077   3.751   6.160
 5191POPC   D2A66616  31.268   3.516   6.502
 5191POPC   C3A66617  31.443   3.758   6.859
 5191POPC   C4A66618  31.508   3.571   7.262
 5191POPC   C1B66619  31.653   3.122   6.082
 5191POPC   C2B66620  31.744   3.037   6.500
 5191POPC   C3B66621  31.727   3.294   6.877
 5191POPC   C4B66622  31.744   3.099   7.263
 5192POPC   NC366623  36.512  29.274   5.348
 5192POPC   PO466624  36.962  28.757   5.290
 5192POPC   GL166625  36.813  28.949   5.701
 5192POPC   GL266626  36.769  29.299   5.801
 5192POPC   C1A66627  36.833  28.915   6.159
 5192POPC   D2A66628  36.761  29.129   6.541
 5192POPC   C3A66629  36.836  28.979   6.926
 5192POPC   C4A66630  36.672  29.073   7.324
 5192POPC   C1B66631  37.009  29.424   6.176
 5192POPC   C2B66632  36.970  29.589   6.612
 5192POPC   C3B66633  36.768  29.492   7.033
 5192POPC   C4B66634  36.749  29.529   7.521
 5193POPC   NC366635  25.246   0.624   5.319
 5193POPC   PO466636  25.221   0.023   5.715
 5193POPC   GL166637  25.450   0.387   5.734
 5193POPC   GL266638  25.184   0.630   5.830
 5193POPC   C1A66639  25.665   0.563   6.085
 5193POPC   D2A66640  25.570   0.791   6.484
 5193POPC   C3A66641  25.380   0.518   6.808
 5193POPC   C4A66642  25.514   0.626   7.218
 5193POPC   C1B66643  25.138   0.601   6.280
 5193POPC   C2B66644  24.879   0.607   6.669
 5193POPC   C3B66645  24.903   0.397   7.068
 5193POPC   C4B66646  25.029   0.688   7.383
 5194POPC   NC366647  33.507  17.975   5.558
 5194POPC   PO466648  33.021  17.597   5.324
 5194POPC   GL166649  32.972  17.397   5.689
 5194POPC   GL266650  33.287  17.550   5.784
 5194POPC   C1A66651  32.712  17.360   6.052
 5194POPC   D2A66652  32.773  17.538   6.469
 5194POPC   C3A66653  32.764  17.379   6.882
 5194POPC   C4A66654  32.862  17.453   7.337
 5194POPC   C1B66655  33.216  17.347   6.172
 5194POPC   C2B66656  33.200  17.248   6.608
 5194POPC   C3B66657  33.277  17.378   7.037
 5194POPC   C4B66658  33.288  17.193   7.457
 5195POPC   NC366659  22.141  23.494   5.249
 5195POPC   PO466660  21.915  24.017   5.303
 5195POPC   GL166661  22.098  23.868   5.709
 5195POPC   GL266662  22.221  23.500   5.762
 5195POPC   C1A66663  22.219  23.853   6.162
 5195POPC   D2A66664  22.122  24.091   6.534
 5195POPC   C3A66665  22.091  23.871   6.900
 5195POPC   C4A66666  22.438  23.687   7.061
 5195POPC   C1B66667  22.420  23.345   6.163
 5195POPC   C2B66668  22.468  23.450   6.611
 5195POPC   C3B66669  22.167  23.279   6.967
 5195POPC   C4B66670  21.811  23.339   7.258
 5196POPC   NC366671  18.806  43.058   5.348
 5196POPC   PO466672  19.407  43.014   5.631
 5196POPC   GL166673  19.028  43.033   5.822
 5196POPC   GL266674  18.836  43.347   5.815
 5196POPC   C1A66675  18.994  42.776   6.167
 5196POPC   D2A66676  19.160  42.877   6.557
 5196POPC   C3A66677  18.916  42.719   6.863
 5196POPC   C4A66678  19.122  42.733   7.232
 5196POPC   C1B66679  18.882  43.272   6.269
 5196POPC   C2B66680  18.799  43.206   6.701
 5196POPC   C3B66681  18.848  43.172   7.125
 5196POPC   C4B66682  18.734  43.442   7.454
 5197POPC   NC366683  12.590  29.595   5.214
 5197POPC   PO466684  12.912  30.118   5.417
 5197POPC   GL166685  12.846  29.958   5.835
 5197POPC   GL266686  12.585  29.685   5.894
 5197POPC   C1A66687  12.696  30.054   6.277
 5197POPC   D2A66688  12.662  29.851   6.699
 5197POPC   C3A66689  12.770  30.062   7.120
 5197POPC   C4A66690  12.698  30.127   7.588
 5197POPC   C1B66691  12.947  29.623   6.200
 5197POPC   C2B66692  13.062  29.505   6.623
 5197POPC   C3B66693  12.892  29.567   7.051
 5197POPC   C4B66694  13.028  29.759   7.450
 5198POPC   NC366695  23.149   4.716   5.390
 5198POPC   PO466696  22.936   4.102   5.432
 5198POPC   GL166697  22.943   4.335   5.830
 5198POPC   GL266698  23.256   4.556   5.873
 5198POPC   C1A66699  23.059   4.214   6.260
 5198POPC   D2A66700  22.843   4.084   6.648
 5198POPC   C3A66701  23.054   4.133   6.995
 5198POPC   C4A66702  22.807   4.088   7.333
 5198POPC   C1B66703  23.017   4.718   6.213
 5198POPC   C2B66704  22.971   4.569   6.642
 5198POPC   C3B66705  23.013   4.649   7.067
 5198POPC   C4B66706  23.187   4.416   7.400
 5199POPC   NC366707  20.353  14.730   5.427
 5199POPC   PO466708  20.573  14.063   5.403
 5199POPC   GL166709  20.548  14.201   5.825
 5199POPC   GL266710  20.569  14.545   5.848
 5199POPC   C1A66711  20.530  14.311   6.276
 5199POPC   D2A66712  20.262  14.311   6.576
 5199POPC   C3A66713  20.470  14.454   6.939
 5199POPC   C4A66714  20.376  14.505   7.347
 5199POPC   C1B66715  20.767  14.757   6.223
 5199POPC   C2B66716  20.883  14.646   6.632
 5199POPC   C3B66717  20.834  14.845   7.041
 5199POPC   C4B66718  20.833  14.730   7.450
 5200POPC   NC366719  37.834   2.136   5.092
 5200POPC   PO466720  37.824   1.544   5.477
 5200POPC   GL166721  37.824   1.871   5.790
 5200POPC   GL266722  37.485   1.999   5.887
 5200POPC   C1A66723  37.979   2.077   6.171
 5200POPC   D2A66724  37.941   2.021   6.619
 5200POPC   C3A66725  37.944   2.314   6.965
 5200POPC   C4A66726  37.922   2.312   7.428
 5200POPC   C1B66727  37.505   2.118   6.337
 5200POPC   C2B66728  37.480   2.148   6.791
 5200POPC   C3B66729  37.408   2.128   7.232
 5200POPC   C4B66730  37.122   1.959   7.565
 5201POPC   NC366731  30.490  19.593   5.315
 5201POPC   PO466732  29.974  19.874   5.393
 5201POPC   GL166733  30.157  19.905   5.809
 5201POPC   GL266734  30.141  20.240   5.906
 5201POPC   C1A66735  30.041  19.864   6.276
 5201POPC   D2A66736  30.010  20.057   6.707
 5201POPC   C3A66737  30.082  19.737   7.016
 5201POPC   C4A66738  30.286  19.707   7.427
 5201POPC   C1B66739  29.836  20.330   6.249
 5201POPC   C2B66740  29.571  20.339   6.652
 5201POPC   C3B66741  29.586  20.208   7.102
 5201POPC   C4B66742  29.619  20.232   7.590
 5202POPC   NC366743  43.628   5.342   5.155
 5202POPC   PO466744  43.715   5.908   5.568
 5202POPC   GL166745  43.762   6.221   5.898
 5202POPC   GL266746  43.497   6.428   5.860
 5202POPC   C1A66747  43.913   6.210   6.336
 5202POPC   D2A66748  43.949   5.823   6.601
 5202POPC   C3A66749  43.872   5.814   7.042
 5202POPC   C4A66750  44.056   5.580   7.404
 5202POPC   C1B66751  43.441   6.475   6.301
 5202POPC   C2B66752  43.530   6.266   6.666
 5202POPC   C3B66753  43.446   6.148   7.082
 5202POPC   C4B66754  43.629   6.022   7.473
 5203POPC   NC366755  32.513  36.850   5.163
 5203POPC   PO466756  32.059  36.901   5.638
 5203POPC   GL166757  32.463  36.884   5.775
 5203POPC   GL266758  32.509  36.556   5.635
 5203POPC   C1A66759  32.486  37.043   6.213
 5203POPC   D2A66760  32.133  37.141   6.500
 5203POPC   C3A66761  32.187  37.060   6.927
 5203POPC   C4A66762  32.419  37.151   7.270
 5203POPC   C1B66763  32.490  36.522   6.135
 5203POPC   C2B66764  32.342  36.556   6.586
 5203POPC   C3B66765  32.414  36.618   7.045
 5203POPC   C4B66766  32.137  36.736   7.388
 5204POPC   NC366767   1.022  33.374   5.048
 5204POPC   PO466768   1.047  32.852   5.475
 5204POPC   GL166769   1.097  32.998   5.867
 5204POPC   GL266770   1.232  33.298   5.697
 5204POPC   C1A66771   1.085  32.752   6.256
 5204POPC   D2A66772   1.275  32.665   6.636
 5204POPC   C3A66773   1.020  32.678   7.025
 5204POPC   C4A66774   1.151  33.004   7.285
 5204POPC   C1B66775   1.401  33.342   6.087
 5204POPC   C2B66776   1.269  33.214   6.461
 5204POPC   C3B66777   1.308  33.282   6.886
 5204POPC   C4B66778   1.374  33.456   7.281
 5205POPC   NC366779  33.973  31.469   5.183
 5205POPC   PO466780  33.433  31.242   5.302
 5205POPC   GL166781  33.742  31.355   5.632
 5205POPC   GL266782  33.698  31.733   5.587
 5205POPC   C1A66783  33.926  31.229   6.086
 5205POPC   D2A66784  33.785  31.089   6.524
 5205POPC   C3A66785  33.985  31.195   6.909
 5205POPC   C4A66786  33.726  31.318   7.236
 5205POPC   C1B66787  33.542  31.596   6.017
 5205POPC   C2B66788  33.778  31.614   6.397
 5205POPC   C3B66789  33.787  31.658   6.841
 5205POPC   C4B66790  33.877  31.833   7.244
 5206POPC   NC366791  34.806  42.966   5.440
 5206POPC   PO466792  34.226  43.425   5.511
 5206POPC   GL166793  34.479  43.270   5.855
 5206POPC   GL266794  34.427  42.918   5.803
 5206POPC   C1A66795  34.420  43.319   6.308
 5206POPC   D2A66796  34.343  43.369   6.754
 5206POPC   C3A66797  34.626  43.292   7.117
 5206POPC   C4A66798  34.896  43.265   7.487
 5206POPC   C1B66799  34.599  42.847   6.197
 5206POPC   C2B66800  34.693  42.980   6.629
 5206POPC   C3B66801  34.748  42.813   7.027
 5206POPC   C4B66802  34.631  42.827   7.465
 5207POPC   NC366803  36.709  41.956   5.205
 5207POPC   PO466804  36.971  41.358   5.371
 5207POPC   GL166805  36.786  41.672   5.679
 5207POPC   GL266806  36.899  41.533   5.950
 5207POPC   C1A66807  36.528  41.787   6.138
 5207POPC   D2A66808  36.529  41.679   6.630
 5207POPC   C3A66809  36.868  41.452   6.904
 5207POPC   C4A66810  36.839  41.502   7.371
 5207POPC   C1B66811  36.918  41.497   6.373
 5207POPC   C2B66812  37.180  41.773   6.572
 5207POPC   C3B66813  37.394  41.938   6.899
 5207POPC   C4B66814  37.208  41.839   7.280
 5208POPC   NC366815  15.919  42.946   5.508
 5208POPC   PO466816  15.798  43.577   5.557
 5208POPC   GL166817  15.837  43.271   5.898
 5208POPC   GL266818  15.717  42.901   5.956
 5208POPC   C1A66819  16.007  43.132   6.304
 5208POPC   D2A66820  16.231  43.094   6.691
 5208POPC   C3A66821  16.025  43.133   7.081
 5208POPC   C4A66822  16.137  43.277   7.497
 5208POPC   C1B66823  15.773  42.646   6.332
 5208POPC   C2B66824  15.811  42.733   6.753
 5208POPC   C3B66825  15.559  42.896   7.071
 5208POPC   C4B66826  15.725  42.980   7.467
 5209POPC   NC366827  22.561  13.927   5.366
 5209POPC   PO466828  23.224  13.539   5.510
 5209POPC   GL166829  22.964  13.825   5.734
 5209POPC   GL266830  22.714  13.576   5.726
 5209POPC   C1A66831  22.864  13.913   6.183
 5209POPC   D2A66832  23.034  13.880   6.620
 5209POPC   C3A66833  22.733  13.860   6.934
 5209POPC   C4A66834  22.829  13.689   7.312
 5209POPC   C1B66835  22.661  13.417   6.127
 5209POPC   C2B66836  22.619  13.553   6.539
 5209POPC   C3B66837  22.537  13.371   6.930
 5209POPC   C4B66838  22.663  13.194   7.288
 5210POPC   NC366839  30.165   1.548   5.564
 5210POPC   PO466840  30.772   1.296   5.260
 5210POPC   GL166841  30.704   1.148   5.738
 5210POPC   GL266842  30.385   1.151   5.803
 5210POPC   C1A66843  30.882   1.193   6.212
 5210POPC   D2A66844  31.070   1.367   6.634
 5210POPC   C3A66845  30.906   1.160   7.027
 5210POPC   C4A66846  30.798   0.766   7.227
 5210POPC   C1B66847  30.389   1.326   6.215
 5210POPC   C2B66848  30.466   1.016   6.546
 5210POPC   C3B66849  30.403   0.892   6.955
 5210POPC   C4B66850  30.410   1.242   7.251
 5211POPC   NC366851  20.997  41.342   5.511
 5211POPC   PO466852  20.515  41.794   5.370
 5211POPC   GL166853  20.686  41.706   5.778
 5211POPC   GL266854  21.033  41.804   5.843
 5211POPC   C1A66855  20.441  41.613   6.176
 5211POPC   D2A66856  20.386  41.922   6.517
 5211POPC   C3A66857  20.394  41.755   6.932
 5211POPC   C4A66858  20.389  41.341   7.123
 5211POPC   C1B66859  20.908  41.794   6.264
 5211POPC   C2B66860  20.742  41.544   6.617
 5211POPC   C3B66861  20.904  41.464   7.035
 5211POPC   C4B66862  21.156  41.690   7.360
 5212POPC   NC366863  24.366  42.024   5.513
 5212POPC   PO466864  24.187  42.746   5.482
 5212POPC   GL166865  24.348  42.693   5.883
 5212POPC   GL266866  24.558  42.416   5.811
 5212POPC   C1A66867  24.310  42.482   6.308
 5212POPC   D2A66868  24.225  42.465   6.786
 5212POPC   C3A66869  24.530  42.513   7.139
 5212POPC   C4A66870  24.410  42.489   7.600
 5212POPC   C1B66871  24.601  42.090   6.140
 5212POPC   C2B66872  24.631  42.156   6.572
 5212POPC   C3B66873  24.502  42.027   6.951
 5212POPC   C4B66874  24.662  42.068   7.366
 5213POPC   NC366875  30.238  11.946   5.367
 5213POPC   PO466876  29.640  12.119   5.470
 5213POPC   GL166877  29.917  12.040   5.803
 5213POPC   GL266878  30.204  12.277   5.759
 5213POPC   C1A66879  29.815  12.079   6.257
 5213POPC   D2A66880  29.606  12.222   6.644
 5213POPC   C3A66881  29.863  12.144   7.036
 5213POPC   C4A66882  29.870  12.121   7.494
 5213POPC   C1B66883  30.347  12.169   6.170
 5213POPC   C2B66884  30.244  12.103   6.609
 5213POPC   C3B66885  30.330  12.400   6.936
 5213POPC   C4B66886  30.255  12.410   7.380
 5214POPC   NC366887  14.226  18.524   5.288
 5214POPC   PO466888  14.585  18.044   5.310
 5214POPC   GL166889  14.413  18.229   5.697
 5214POPC   GL266890  14.493  18.573   5.764
 5214POPC   C1A66891  14.484  18.180   6.137
 5214POPC   D2A66892  14.358  18.016   6.521
 5214POPC   C3A66893  14.565  18.244   6.839
 5214POPC   C4A66894  14.618  18.113   7.228
 5214POPC   C1B66895  14.335  18.680   6.200
 5214POPC   C2B66896  14.196  18.517   6.590
 5214POPC   C3B66897  14.231  18.633   7.009
 5214POPC   C4B66898  14.582  18.605   7.241
 5215POPC   NC366899   8.785   6.053   5.385
 5215POPC   PO466900   9.364   5.662   5.434
 5215POPC   GL166901   9.090   5.885   5.760
 5215POPC   GL266902   9.278   6.171   5.888
 5215POPC   C1A66903   8.834   6.098   6.124
 5215POPC   D2A66904   8.660   6.186   6.549
 5215POPC   C3A66905   8.754   5.960   6.932
 5215POPC   C4A66906   8.636   5.853   7.318
 5215POPC   C1B66907   9.275   5.868   6.232
 5215POPC   C2B66908   9.165   6.009   6.636
 5215POPC   C3B66909   9.394   6.081   7.029
 5215POPC   C4B66910   9.492   6.439   7.281
 5216POPC   NC366911  28.688  33.256   5.427
 5216POPC   PO466912  28.251  32.714   5.450
 5216POPC   GL166913  28.281  33.065   5.741
 5216POPC   GL266914  28.591  32.943   5.818
 5216POPC   C1A66915  28.323  33.160   6.195
 5216POPC   D2A66916  28.360  32.948   6.589
 5216POPC   C3A66917  28.400  33.175   6.956
 5216POPC   C4A66918  28.176  32.952   7.209
 5216POPC   C1B66919  28.561  32.692   6.196
 5216POPC   C2B66920  28.819  32.689   6.580
 5216POPC   C3B66921  28.635  32.709   7.004
 5216POPC   C4B66922  28.661  32.907   7.406
 5217POPC   NC366923  24.696   5.034   5.258
 5217POPC   PO466924  24.276   5.483   5.618
 5217POPC   GL166925  24.661   5.318   5.799
 5217POPC   GL266926  24.776   4.997   5.775
 5217POPC   C1A66927  24.562   5.163   6.218
 5217POPC   D2A66928  24.327   4.978   6.543
 5217POPC   C3A66929  24.524   5.076   6.931
 5217POPC   C4A66930  24.379   4.970   7.338
 5217POPC   C1B66931  24.913   4.781   6.160
 5217POPC   C2B66932  24.736   4.641   6.564
 5217POPC   C3B66933  24.845   4.680   7.005
 5217POPC   C4B66934  24.774   4.713   7.477
 5218POPC   NC366935  21.714   6.564   5.412
 5218POPC   PO466936  21.071   6.767   5.391
 5218POPC   GL166937  21.280   6.618   5.732
 5218POPC   GL266938  21.271   6.288   5.729
 5218POPC   C1A66939  21.421   6.631   6.149
 5218POPC   D2A66940  21.600   6.669   6.533
 5218POPC   C3A66941  21.391   6.677   6.919
 5218POPC   C4A66942  21.528   6.855   7.290
 5218POPC   C1B66943  21.223   6.145   6.173
 5218POPC   C2B66944  21.286   6.277   6.587
 5218POPC   C3B66945  21.130   6.225   7.003
 5218POPC   C4B66946  21.282   6.430   7.368
 5219POPC   NC366947  20.748  13.685   5.182
 5219POPC   PO466948  21.340  13.484   5.453
 5219POPC   GL166949  21.456  13.604   5.845
 5219POPC   GL266950  21.362  13.951   5.821
 5219POPC   C1A66951  21.649  13.383   6.219
 5219POPC   D2A66952  21.604  13.170   6.651
 5219POPC   C3A66953  21.291  13.302   6.959
 5219POPC   C4A66954  21.305  13.618   7.282
 5219POPC   C1B66955  21.191  13.773   6.238
 5219POPC   C2B66956  21.148  13.709   6.693
 5219POPC   C3B66957  20.992  13.941   7.059
 5219POPC   C4B66958  20.887  13.788   7.532
 5220POPC   NC366959  39.155   1.029   5.495
 5220POPC   PO466960  39.539   0.517   5.476
 5220POPC   GL166961  39.162   0.438   5.735
 5220POPC   GL266962  39.402   0.244   5.938
 5220POPC   C1A66963  38.968   0.457   6.160
 5220POPC   D2A66964  39.233   0.489   6.564
 5220POPC   C3A66965  39.242   0.411   7.023
 5220POPC   C4A66966  38.983   0.540   7.387
 5220POPC   C1B66967  39.458   0.660   6.113
 5220POPC   C2B66968  39.666   0.778   6.477
 5220POPC   C3B66969  39.520   0.832   6.890
 5220POPC   C4B66970  39.241   0.958   7.234
 5221POPC   NC366971   8.521  41.443   5.487
 5221POPC   PO466972   7.893  41.328   5.482
 5221POPC   GL166973   8.169  41.304   5.833
 5221POPC   GL266974   8.244  41.679   5.913
 5221POPC   C1A66975   8.348  41.272   6.255
 5221POPC   D2A66976   8.259  41.635   6.477
 5221POPC   C3A66977   8.213  41.596   6.888
 5221POPC   C4A66978   8.289  41.199   7.131
 5221POPC   C1B66979   8.424  42.023   6.193
 5221POPC   C2B66980   8.639  41.942   6.617
 5221POPC   C3B66981   8.723  41.688   6.982
 5221POPC   C4B66982   8.464  41.648   7.314
 5222POPC   NC366983  12.258   8.745   5.520
 5222POPC   PO466984  11.917   9.124   5.101
 5222POPC   GL166985  11.899   9.080   5.616
 5222POPC   GL266986  12.187   9.259   5.770
 5222POPC   C1A66987  11.978   8.891   6.092
 5222POPC   D2A66988  12.133   8.899   6.552
 5222POPC   C3A66989  11.986   8.611   6.860
 5222POPC   C4A66990  11.735   8.711   7.253
 5222POPC   C1B66991  12.365   9.214   6.214
 5222POPC   C2B66992  12.572   9.166   6.630
 5222POPC   C3B66993  12.419   9.261   7.032
 5222POPC   C4B66994  12.033   9.079   7.114
 5223POPC   NC366995  21.995   1.728   5.200
 5223POPC   PO466996  22.619   2.012   5.290
 5223POPC   GL166997  22.316   1.979   5.686
 5223POPC   GL266998  22.003   1.752   5.735
 5223POPC   C1A66999  22.170   2.105   6.139
 5223POPC   D2A67000  22.112   2.320   6.567
 5223POPC   C3A67001  22.439   2.178   6.840
 5223POPC   C4A67002  22.332   2.030   7.227
 5223POPC   C1B67003  21.992   1.603   6.188
 5223POPC   C2B67004  22.146   1.796   6.580
 5223POPC   C3B67005  21.926   1.818   6.969
 5223POPC   C4B67006  21.837   1.502   7.272
 5224POPC   NC367007  32.969  19.762   5.282
 5224POPC   PO467008  33.384  20.300   5.245
 5224POPC   GL167009  33.242  20.035   5.618
 5224POPC   GL267010  32.842  20.044   5.720
 5224POPC   C1A67011  33.232  19.704   5.920
 5224POPC   D2A67012  33.162  19.595   6.346
 5224POPC   C3A67013  33.311  19.539   6.770
 5224POPC   C4A67014  33.187  19.771   7.139
 5224POPC   C1B67015  32.640  20.178   6.143
 5224POPC   C2B67016  32.721  20.255   6.554
 5224POPC   C3B67017  32.746  20.149   6.965
 5224POPC   C4B67018  32.651  20.261   7.385
 5225POPC   NC367019  26.397  23.679   5.473
 5225POPC   PO467020  27.075  23.685   5.308
 5225POPC   GL167021  26.857  23.791   5.679
 5225POPC   GL267022  27.101  23.687   5.878
 5225POPC   C1A67023  26.655  23.844   6.103
 5225POPC   D2A67024  26.801  23.719   6.504
 5225POPC   C3A67025  26.618  23.840   6.878
 5225POPC   C4A67026  26.449  23.636   7.234
 5225POPC   C1B67027  27.132  24.076   6.142
 5225POPC   C2B67028  27.246  24.107   6.594
 5225POPC   C3B67029  27.091  24.051   6.989
 5225POPC   C4B67030  26.922  23.789   7.288
 5226POPC   NC367031   2.339  30.815   5.490
 5226POPC   PO467032   1.655  30.673   5.471
 5226POPC   GL167033   1.791  30.729   5.865
 5226POPC   GL267034   2.024  30.474   5.826
 5226POPC   C1A67035   1.812  30.563   6.284
 5226POPC   D2A67036   1.564  30.495   6.638
 5226POPC   C3A67037   1.874  30.539   6.912
 5226POPC   C4A67038   1.883  30.781   7.237
 5226POPC   C1B67039   2.289  30.703   6.148
 5226POPC   C2B67040   2.377  30.730   6.578
 5226POPC   C3B67041   2.317  30.838   6.977
 5226POPC   C4B67042   2.327  30.493   7.224
 5227POPC   NC367043  25.033  10.208   5.528
 5227POPC   PO467044  24.435  10.501   5.389
 5227POPC   GL167045  24.503  10.426   5.788
 5227POPC   GL267046  24.248  10.640   5.878
 5227POPC   C1A67047  24.672  10.579   6.189
 5227POPC   D2A67048  24.544  10.441   6.583
 5227POPC   C3A67049  24.762  10.504   6.965
 5227POPC   C4A67050  24.583  10.347   7.355
 5227POPC   C1B67051  24.143  10.344   6.201
 5227POPC   C2B67052  24.034  10.341   6.658
 5227POPC   C3B67053  24.246  10.542   7.012
 5227POPC   C4B67054  24.089  10.878   7.277
 5228POPC   NC367055  43.821  39.037   5.347
 5228POPC   PO467056  43.457  39.243   5.855
 5228POPC   GL167057  43.833  39.004   5.869
 5228POPC   GL267058  44.134  39.193   5.728
 5228POPC   C1A67059  44.005  39.088   6.250
 5228POPC   D2A67060  43.957  39.338   6.605
 5228POPC   C3A67061  43.971  39.109   6.953
 5228POPC   C4A67062  43.652  39.037   7.195
 5228POPC   C1B67063  44.262  39.482   6.066
 5228POPC   C2B67064  44.303  39.726   6.450
 5228POPC   C3B67065  44.180  39.708   6.879
 5228POPC   C4B67066  44.154  39.507   7.258
 5229POPC   NC367067  25.425  30.654   5.527
 5229POPC   PO467068  24.810  30.469   5.489
 5229POPC   GL167069  25.036  30.636   5.832
 5229POPC   GL267070  25.098  31.002   5.737
 5229POPC   C1A67071  25.244  30.543   6.206
 5229POPC   D2A67072  25.417  30.732   6.560
 5229POPC   C3A67073  25.224  30.492   6.882
 5229POPC   C4A67074  25.341  30.312   7.267
 5229POPC   C1B67075  25.157  31.037   6.171
 5229POPC   C2B67076  25.159  31.195   6.578
 5229POPC   C3B67077  25.437  31.111   6.900
 5229POPC   C4B67078  25.434  30.814   7.216
 5230POPC   NC367079  24.316   0.773   5.344
 5230POPC   PO467080  24.696   0.294   5.130
 5230POPC   GL167081  24.449   0.372   5.673
 5230POPC   GL267082  24.738   0.379   5.981
 5230POPC   C1A67083  24.337   0.606   6.126
 5230POPC   D2A67084  24.382   0.425   6.581
 5230POPC   C3A67085  24.461   0.633   7.018
 5230POPC   C4A67086  24.548   0.659   7.535
 5230POPC   C1B67087  24.439   0.069   6.138
 5230POPC   C2B67088  24.388  44.885   6.529
 5230POPC   C3B67089  24.380   0.039   6.936
 5230POPC   C4B67090  24.427   0.230   7.316
 5231POPC   NC367091  39.234  41.544   5.291
 5231POPC   PO467092  38.650  41.619   5.583
 5231POPC   GL167093  39.049  41.407   5.767
 5231POPC   GL267094  39.439  41.493   5.742
 5231POPC   C1A67095  39.234  41.329   6.174
 5231POPC   D2A67096  39.221  41.619   6.497
 5231POPC   C3A67097  39.171  41.442   6.877
 5231POPC   C4A67098  39.271  41.565   7.260
 5231POPC   C1B67099  39.596  41.688   6.118
 5231POPC   C2B67100  39.711  41.509   6.527
 5231POPC   C3B67101  39.624  41.723   6.921
 5231POPC   C4B67102  39.782  41.821   7.342
 5232POPC   NC367103  27.551  23.617   5.282
 5232POPC   PO467104  27.972  23.893   5.697
 5232POPC   GL167105  27.601  23.863   5.917
 5232POPC   GL267106  27.580  23.510   5.979
 5232POPC   C1A67107  27.675  23.994   6.331
 5232POPC   D2A67108  27.634  23.791   6.723
 5232POPC   C3A67109  27.592  24.046   7.062
 5232POPC   C4A67110  27.367  23.922   7.440
 5232POPC   C1B67111  27.296  23.653   6.355
 5232POPC   C2B67112  27.178  23.544   6.793
 5232POPC   C3B67113  27.411  23.486   7.163
 5232POPC   C4B67114  27.247  23.436   7.575
 5233POPC   NC367115  36.657  24.176   5.207
 5233POPC   PO467116  37.219  24.532   5.485
 5233POPC   GL167117  36.848  24.572   5.776
 5233POPC   GL267118  36.638  24.885   5.751
 5233POPC   C1A67119  36.975  24.495   6.217
 5233POPC   D2A67120  37.129  24.331   6.616
 5233POPC   C3A67121  36.810  24.407   6.899
 5233POPC   C4A67122  36.946  24.406   7.282
 5233POPC   C1B67123  36.534  24.759   6.211
 5233POPC   C2B67124  36.435  24.709   6.693
 5233POPC   C3B67125  36.495  24.734   7.168
 5233POPC   C4B67126  36.426  24.733   7.654
 5234POPC   NC367127  40.929  34.058   5.550
 5234POPC   PO467128  40.440  33.501   5.489
 5234POPC   GL167129  40.720  33.625   5.760
 5234POPC   GL267130  40.509  33.946   5.823
 5234POPC   C1A67131  40.984  33.472   6.104
 5234POPC   D2A67132  40.859  33.517   6.527
 5234POPC   C3A67133  41.008  33.675   6.870
 5234POPC   C4A67134  40.941  33.764   7.270
 5234POPC   C1B67135  40.649  33.861   6.214
 5234POPC   C2B67136  40.682  34.013   6.604
 5234POPC   C3B67137  40.533  33.862   6.971
 5234POPC   C4B67138  40.473  33.909   7.392
 5235POPC   NC367139   0.994  18.549   5.388
 5235POPC   PO467140   1.587  18.246   5.456
 5235POPC   GL167141   1.323  18.268   5.822
 5235POPC   GL267142   1.025  18.120   5.697
 5235POPC   C1A67143   1.445  18.191   6.277
 5235POPC   D2A67144   1.620  18.092   6.700
 5235POPC   C3A67145   1.296  18.155   6.986
 5235POPC   C4A67146   0.990  18.498   7.010
 5235POPC   C1B67147   0.953  18.050   6.130
 5235POPC   C2B67148   0.976  18.254   6.524
 5235POPC   C3B67149   0.815  18.023   6.866
 5235POPC   C4B67150   0.898  18.003   7.272
 5236POPC   NC367151  11.323  26.212   5.410
 5236POPC   PO467152  11.108  25.585   5.617
 5236POPC   GL167153  11.466  25.799   5.826
 5236POPC   GL267154  11.237  26.048   5.879
 5236POPC   C1A67155  11.604  26.043   6.228
 5236POPC   D2A67156  11.366  26.094   6.621
 5236POPC   C3A67157  11.460  25.962   7.020
 5236POPC   C4A67158  11.542  26.066   7.428
 5236POPC   C1B67159  11.138  25.813   6.248
 5236POPC   C2B67160  10.859  25.957   6.547
 5236POPC   C3B67161  10.953  26.147   6.927
 5236POPC   C4B67162  11.031  25.958   7.300
 5237POPC   NC367163   4.368  23.078   5.334
 5237POPC   PO467164   4.387  22.534   5.691
 5237POPC   GL167165   4.257  22.936   5.807
 5237POPC   GL267166   4.594  23.112   5.816
 5237POPC   C1A67167   4.190  23.068   6.210
 5237POPC   D2A67168   4.268  22.744   6.492
 5237POPC   C3A67169   4.218  22.873   6.898
 5237POPC   C4A67170   3.940  23.026   7.152
 5237POPC   C1B67171   4.701  22.877   6.229
 5237POPC   C2B67172   4.715  22.854   6.719
 5237POPC   C3B67173   4.642  23.001   7.167
 5237POPC   C4B67174   4.773  23.047   7.634
 5238POPC   NC367175  22.405   6.315   5.482
 5238POPC   PO467176  22.029   6.739   5.103
 5238POPC   GL167177  22.127   6.756   5.606
 5238POPC   GL267178  22.443   6.750   5.727
 5238POPC   C1A67179  21.957   6.694   6.066
 5238POPC   D2A67180  22.100   6.672   6.509
 5238POPC   C3A67181  21.913   6.714   6.951
 5238POPC   C4A67182  22.019   6.752   7.430
 5238POPC   C1B67183  22.475   6.851   6.138
 5238POPC   C2B67184  22.602   6.631   6.467
 5238POPC   C3B67185  22.433   6.540   6.887
 5238POPC   C4B67186  22.150   6.300   7.154
 5239POPC   NC367187  27.718  28.337   5.254
 5239POPC   PO467188  27.449  28.888   5.490
 5239POPC   GL167189  27.812  28.673   5.684
 5239POPC   GL267190  27.784  28.292   5.754
 5239POPC   C1A67191  27.897  28.631   6.134
 5239POPC   D2A67192  27.782  28.400   6.527
 5239POPC   C3A67193  27.997  28.438   6.913
 5239POPC   C4A67194  27.669  28.424   7.193
 5239POPC   C1B67195  27.597  28.120   6.125
 5239POPC   C2B67196  27.765  27.878   6.478
 5239POPC   C3B67197  27.800  27.967   6.910
 5239POPC   C4B67198  27.583  27.930   7.317
 5240POPC   NC367199  31.862  27.641   5.448
 5240POPC   PO467200  32.464  27.265   5.430
 5240POPC   GL167201  32.313  27.499   5.786
 5240POPC   GL267202  32.041  27.704   5.916
 5240POPC   C1A67203  32.379  27.390   6.211
 5240POPC   D2A67204  32.260  27.682   6.510
 5240POPC   C3A67205  32.334  27.602   6.931
 5240POPC   C4A67206  32.139  27.873   7.204
 5240POPC   C1B67207  31.923  27.265   6.043
 5240POPC   C2B67208  31.936  27.253   6.477
 5240POPC   C3B67209  31.846  27.489   6.852
 5240POPC   C4B67210  31.973  27.354   7.255
 5241POPC   NC367211   3.340  24.764   5.118
 5241POPC   PO467212   3.858  24.434   5.471
 5241POPC   GL167213   3.621  24.553   5.856
 5241POPC   GL267214   3.279  24.443   5.959
 5241POPC   C1A67215   3.604  24.737   6.264
 5241POPC   D2A67216   3.821  24.531   6.577
 5241POPC   C3A67217   3.741  24.707   6.931
 5241POPC   C4A67218   3.426  24.614   7.234
 5241POPC   C1B67219   3.453  24.252   6.333
 5241POPC   C2B67220   3.421  24.280   6.801
 5241POPC   C3B67221   3.447  24.090   7.212
 5241POPC   C4B67222   3.554  24.297   7.646
 5242POPC   NC367223  43.380  18.556   5.188
 5242POPC   PO467224  43.725  18.011   5.412
 5242POPC   GL167225  43.708  18.192   5.779
 5242POPC   GL267226  43.624  18.530   5.671
 5242POPC   C1A67227  43.643  18.076   6.197
 5242POPC   D2A67228  43.809  18.225   6.554
 5242POPC   C3A67229  43.705  17.978   6.929
 5242POPC   C4A67230  43.761  18.147   7.329
 5242POPC   C1B67231  43.789  18.578   6.100
 5242POPC   C2B67232  43.838  18.730   6.523
 5242POPC   C3B67233  43.784  18.540   6.946
 5242POPC   C4B67234  43.946  18.642   7.319
 5243POPC   NC367235   2.765  18.229   5.354
 5243POPC   PO467236   2.912  18.821   5.560
 5243POPC   GL167237   2.728  18.498   5.814
 5243POPC   GL267238   2.931  18.230   5.848
 5243POPC   C1A67239   2.526  18.239   6.166
 5243POPC   D2A67240   2.316  18.259   6.570
 5243POPC   C3A67241   2.511  18.173   6.910
 5243POPC   C4A67242   2.878  18.315   7.039
 5243POPC   C1B67243   2.964  17.961   6.212
 5243POPC   C2B67244   2.939  18.214   6.554
 5243POPC   C3B67245   3.138  18.609   6.708
 5243POPC   C4B67246   3.144  18.738   7.158
 5244POPC   NC367247  15.183  29.390   5.473
 5244POPC   PO467248  15.228  28.720   5.417
 5244POPC   GL167249  15.050  28.971   5.775
 5244POPC   GL267250  15.323  29.207   5.920
 5244POPC   C1A67251  14.905  29.136   6.171
 5244POPC   D2A67252  15.121  29.168   6.557
 5244POPC   C3A67253  14.939  29.073   6.969
 5244POPC   C4A67254  14.951  29.216   7.392
 5244POPC   C1B67255  15.552  28.945   6.214
 5244POPC   C2B67256  15.507  28.853   6.642
 5244POPC   C3B67257  15.433  29.102   6.981
 5244POPC   C4B67258  15.520  29.028   7.367
 5245POPC   NC367259   6.966  13.723   5.434
 5245POPC   PO467260   6.524  13.177   5.393
 5245POPC   GL167261   6.540  13.386   5.804
 5245POPC   GL267262   6.843  13.441   5.834
 5245POPC   C1A67263   6.588  13.550   6.252
 5245POPC   D2A67264   6.495  13.348   6.651
 5245POPC   C3A67265   6.555  13.572   7.032
 5245POPC   C4A67266   6.600  13.510   7.465
 5245POPC   C1B67267   7.064  13.368   6.210
 5245POPC   C2B67268   7.027  13.574   6.624
 5245POPC   C3B67269   7.073  13.642   7.071
 5245POPC   C4B67270   6.877  13.932   7.317
 5246POPC   NC367271   4.469  24.179   5.424
 5246POPC   PO467272   4.530  23.503   5.401
 5246POPC   GL167273   4.305  23.570   5.824
 5246POPC   GL267274   4.104  23.894   5.812
 5246POPC   C1A67275   4.224  23.607   6.300
 5246POPC   D2A67276   4.004  23.401   6.676
 5246POPC   C3A67277   4.260  23.439   7.069
 5246POPC   C4A67278   4.672  23.506   7.280
 5246POPC   C1B67279   4.469  24.028   6.090
 5246POPC   C2B67280   4.651  23.957   6.501
 5246POPC   C3B67281   4.523  23.905   6.940
 5246POPC   C4B67282   4.305  24.121   7.244
 5247POPC   NC367283  17.394  17.804   5.513
 5247POPC   PO467284  17.421  17.061   5.463
 5247POPC   GL167285  17.594  17.241   5.850
 5247POPC   GL267286  17.774  17.551   5.814
 5247POPC   C1A67287  17.521  17.450   6.283
 5247POPC   D2A67288  17.219  17.502   6.657
 5247POPC   C3A67289  17.328  17.689   7.084
 5247POPC   C4A67290  17.219  17.651   7.538
 5247POPC   C1B67291  17.904  17.809   6.186
 5247POPC   C2B67292  17.914  17.953   6.645
 5247POPC   C3B67293  17.953  17.699   7.031
 5247POPC   C4B67294  17.718  17.697   7.421
 5248POPC   NC367295  22.023  34.030   5.530
 5248POPC   PO467296  22.491  33.545   5.540
 5248POPC   GL167297  22.113  33.582   5.809
 5248POPC   GL267298  22.084  33.886   6.031
 5248POPC   C1A67299  22.054  33.354   6.175
 5248POPC   D2A67300  22.237  33.433   6.561
 5248POPC   C3A67301  22.008  33.666   6.848
 5248POPC   C4A67302  21.985  33.733   7.284
 5248POPC   C1B67303  22.479  33.705   6.176
 5248POPC   C2B67304  22.706  33.689   6.553
 5248POPC   C3B67305  22.504  33.744   6.923
 5248POPC   C4B67306  22.462  33.995   7.299
 5249POPC   NC367307   8.246  35.532   5.370
 5249POPC   PO467308   8.474  34.912   5.397
 5249POPC   GL167309   8.309  35.120   5.756
 5249POPC   GL267310   8.400  35.473   5.879
 5249POPC   C1A67311   8.120  35.077   6.170
 5249POPC   D2A67312   7.866  35.012   6.542
 5249POPC   C3A67313   8.088  35.052   6.933
 5249POPC   C4A67314   7.958  34.998   7.332
 5249POPC   C1B67315   8.000  35.609   6.114
 5249POPC   C2B67316   7.833  35.550   6.546
 5249POPC   C3B67317   7.949  35.557   6.987
 5249POPC   C4B67318   8.322  35.612   7.278
 5250POPC   NC367319  11.093  40.756   5.492
 5250POPC   PO467320  11.600  40.654   5.054
 5250POPC   GL167321  11.521  40.948   5.652
 5250POPC   GL267322  11.233  40.994   5.903
 5250POPC   C1A67323  11.547  40.680   6.116
 5250POPC   D2A67324  11.354  40.514   6.490
 5250POPC   C3A67325  11.330  40.736   6.879
 5250POPC   C4A67326  11.521  40.591   7.252
 5250POPC   C1B67327  11.214  41.013   6.346
 5250POPC   C2B67328  11.089  41.194   6.713
 5250POPC   C3B67329  10.930  41.041   7.064
 5250POPC   C4B67330  11.172  41.010   7.407
 5251POPC   NC367331  39.395  24.490   5.351
 5251POPC   PO467332  38.732  24.646   5.403
 5251POPC   GL167333  38.990  24.695   5.790
 5251POPC   GL267334  39.226  24.411   5.832
 5251POPC   C1A67335  39.027  24.633   6.257
 5251POPC   D2A67336  39.078  24.756   6.687
 5251POPC   C3A67337  38.986  24.431   6.983
 5251POPC   C4A67338  39.167  24.353   7.392
 5251POPC   C1B67339  39.484  24.738   6.044
 5251POPC   C2B67340  39.541  24.801   6.485
 5251POPC   C3B67341  39.609  24.544   6.860
 5251POPC   C4B67342  39.589  24.598   7.275
 5252POPC   NC367343  35.645  27.954   5.509
 5252POPC   PO467344  35.145  27.565   5.140
 5252POPC   GL167345  35.293  27.588   5.581
 5252POPC   GL267346  35.551  27.344   5.716
 5252POPC   C1A67347  35.280  27.639   6.039
 5252POPC   D2A67348  35.420  27.580   6.482
 5252POPC   C3A67349  35.206  27.698   6.868
 5252POPC   C4A67350  35.251  27.884   7.284
 5252POPC   C1B67351  35.776  27.560   6.101
 5252POPC   C2B67352  35.895  27.812   6.486
 5252POPC   C3B67353  35.927  27.728   6.913
 5252POPC   C4B67354  35.780  27.900   7.280
 5253POPC   NC367355   3.738  13.319   5.479
 5253POPC   PO467356   3.469  13.975   5.459
 5253POPC   GL167357   3.570  13.665   5.788
 5253POPC   GL267358   3.266  13.647   6.006
 5253POPC   C1A67359   3.785  13.470   6.144
 5253POPC   D2A67360   3.609  13.450   6.548
 5253POPC   C3A67361   3.756  13.371   6.915
 5253POPC   C4A67362   3.615  13.660   7.207
 5253POPC   C1B67363   3.104  13.525   6.423
 5253POPC   C2B67364   3.146  13.523   6.887
 5253POPC   C3B67365   3.110  13.831   7.248
 5253POPC   C4B67366   3.032  13.799   7.733
 5254POPC   NC367367  15.936  38.119   5.544
 5254POPC   PO467368  15.572  38.691   5.284
 5254POPC   GL167369  15.792  38.605   5.726
 5254POPC   GL267370  16.148  38.503   5.830
 5254POPC   C1A67371  15.805  38.547   6.193
 5254POPC   D2A67372  15.610  38.603   6.593
 5254POPC   C3A67373  15.866  38.425   6.895
 5254POPC   C4A67374  15.973  38.624   7.246
 5254POPC   C1B67375  16.386  38.510   6.259
 5254POPC   C2B67376  16.373  38.430   6.727
 5254POPC   C3B67377  16.431  38.462   7.183
 5254POPC   C4B67378  16.359  38.781   7.550
 5255POPC   NC367379   1.796  32.545   5.406
 5255POPC   PO467380   2.234  31.999   5.248
 5255POPC   GL167381   2.097  32.189   5.664
 5255POPC   GL267382   2.328  32.074   5.916
 5255POPC   C1A67383   2.015  32.475   6.052
 5255POPC   D2A67384   2.045  32.689   6.447
 5255POPC   C3A67385   2.127  32.475   6.810
 5255POPC   C4A67386   1.925  32.522   7.189
 5255POPC   C1B67387   1.933  31.968   6.121
 5255POPC   C2B67388   1.904  32.098   6.526
 5255POPC   C3B67389   1.829  32.086   6.950
 5255POPC   C4B67390   2.104  31.967   7.233
 5256POPC   NC367391  12.740  13.469   5.306
 5256POPC   PO467392  13.354  13.761   5.472
 5256POPC   GL167393  13.068  13.527   5.696
 5256POPC   GL267394  12.721  13.631   5.805
 5256POPC   C1A67395  13.064  13.448   6.124
 5256POPC   D2A67396  12.953  13.679   6.513
 5256POPC   C3A67397  12.852  13.579   6.944
 5256POPC   C4A67398  12.941  13.217   7.204
 5256POPC   C1B67399  12.561  13.442   6.206
 5256POPC   C2B67400  12.435  13.482   6.649
 5256POPC   C3B67401  12.439  13.310   7.083
 5256POPC   C4B67402  12.575  13.429   7.486
 5257POPC   NC367403   5.697  29.023   5.295
 5257POPC   PO467404   5.416  28.495   5.437
 5257POPC   GL167405   5.382  28.836   5.751
 5257POPC   GL267406   5.540  29.166   5.832
 5257POPC   C1A67407   5.300  28.919   6.204
 5257POPC   D2A67408   5.559  28.960   6.587
 5257POPC   C3A67409   5.594  28.985   7.055
 5257POPC   C4A67410   5.983  28.899   7.339
 5257POPC   C1B67411   5.510  29.381   6.277
 5257POPC   C2B67412   5.560  29.446   6.768
 5257POPC   C3B67413   5.792  29.581   7.172
 5257POPC   C4B67414   5.906  29.672   7.640
 5258POPC   NC367415  30.541   6.126   5.433
 5258POPC   PO467416  30.421   5.448   5.358
 5258POPC   GL167417  30.688   5.700   5.710
 5258POPC   GL267418  30.836   6.040   5.828
 5258POPC   C1A67419  30.514   5.793   6.133
 5258POPC   D2A67420  30.434   5.995   6.527
 5258POPC   C3A67421  30.511   5.763   6.895
 5258POPC   C4A67422  30.797   5.759   7.238
 5258POPC   C1B67423  31.017   5.851   6.138
 5258POPC   C2B67424  31.001   6.081   6.500
 5258POPC   C3B67425  30.834   6.167   6.855
 5258POPC   C4B67426  30.976   6.230   7.239
 5259POPC   NC367427  20.928  35.769   5.605
 5259POPC   PO467428  20.324  35.920   5.308
 5259POPC   GL167429  20.330  36.158   5.736
 5259POPC   GL267430  20.698  36.201   5.812
 5259POPC   C1A67431  20.394  36.185   6.224
 5259POPC   D2A67432  20.665  36.109   6.628
 5259POPC   C3A67433  20.501  36.099   7.062
 5259POPC   C4A67434  20.351  35.856   7.427
 5259POPC   C1B67435  20.956  36.148   6.194
 5259POPC   C2B67436  21.098  36.381   6.603
 5259POPC   C3B67437  21.035  36.244   7.059
 5259POPC   C4B67438  21.118  36.403   7.543
 5260POPC   NC367439  14.541  27.303   5.415
 5260POPC   PO467440  14.248  27.869   5.188
 5260POPC   GL167441  14.408  27.730   5.651
 5260POPC   GL267442  14.763  27.682   5.753
 5260POPC   C1A67443  14.362  27.577   6.103
 5260POPC   D2A67444  14.078  27.447   6.448
 5260POPC   C3A67445  14.217  27.418   6.853
 5260POPC   C4A67446  14.177  27.613   7.261
 5260POPC   C1B67447  14.872  27.695   6.206
 5260POPC   C2B67448  14.731  27.575   6.621
 5260POPC   C3B67449  14.669  27.456   7.054
 5260POPC   C4B67450  14.667  27.649   7.432
 5261POPC   NC367451  28.679  22.625   5.526
 5261POPC   PO467452  28.657  23.281   5.626
 5261POPC   GL167453  28.342  23.020   5.833
 5261POPC   GL267454  27.975  23.097   5.794
 5261POPC   C1A67455  28.402  23.015   6.272
 5261POPC   D2A67456  28.659  23.222   6.587
 5261POPC   C3A67457  28.604  22.990   6.960
 5261POPC   C4A67458  28.200  22.833   7.160
 5261POPC   C1B67459  27.950  23.250   6.239
 5261POPC   C2B67460  28.123  23.211   6.690
 5261POPC   C3B67461  27.883  23.257   7.060
 5261POPC   C4B67462  27.754  23.020   7.427
 5262POPC   NC367463  30.173  29.570   5.454
 5262POPC   PO467464  29.894  28.914   5.265
 5262POPC   GL167465  29.849  28.945   5.747
 5262POPC   GL267466  29.880  29.309   5.794
 5262POPC   C1A67467  30.021  29.031   6.187
 5262POPC   D2A67468  30.177  29.272   6.544
 5262POPC   C3A67469  30.063  29.198   6.975
 5262POPC   C4A67470  30.073  28.900   7.267
 5262POPC   C1B67471  29.574  29.297   6.138
 5262POPC   C2B67472  29.620  29.123   6.542
 5262POPC   C3B67473  29.601  28.984   6.961
 5262POPC   C4B67474  29.614  29.309   7.274
 5263POPC   NC367475  34.284  20.831   5.368
 5263POPC   PO467476  34.550  20.219   5.272
 5263POPC   GL167477  34.632  20.365   5.745
 5263POPC   GL267478  34.488  20.663   5.798
 5263POPC   C1A67479  34.506  20.268   6.172
 5263POPC   D2A67480  34.393  20.436   6.575
 5263POPC   C3A67481  34.704  20.515   6.891
 5263POPC   C4A67482  34.698  20.459   7.332
 5263POPC   C1B67483  34.383  20.809   6.176
 5263POPC   C2B67484  34.386  20.976   6.551
 5263POPC   C3B67485  34.316  20.845   6.942
 5263POPC   C4B67486  34.389  20.894   7.361
 5264POPC   NC367487   1.809  18.640   5.335
 5264POPC   PO467488   2.066  19.197   5.545
 5264POPC   GL167489   2.114  18.971   5.916
 5264POPC   GL267490   2.253  18.675   5.788
 5264POPC   C1A67491   1.965  19.009   6.354
 5264POPC   D2A67492   1.655  18.977   6.680
 5264POPC   C3A67493   1.823  19.013   7.078
 5264POPC   C4A67494   2.273  19.148   7.167
 5264POPC   C1B67495   2.117  18.550   6.201
 5264POPC   C2B67496   1.890  18.523   6.595
 5264POPC   C3B67497   2.066  18.563   7.000
 5264POPC   C4B67498   2.116  18.736   7.420
 5265POPC   NC367499  23.751  31.916   5.333
 5265POPC   PO467500  23.542  31.306   5.188
 5265POPC   GL167501  23.734  31.485   5.637
 5265POPC   GL267502  23.461  31.595   5.850
 5265POPC   C1A67503  23.904  31.485   6.113
 5265POPC   D2A67504  23.802  31.288   6.539
 5265POPC   C3A67505  23.952  31.443   6.948
 5265POPC   C4A67506  23.829  31.396   7.417
 5265POPC   C1B67507  23.369  31.439   6.268
 5265POPC   C2B67508  23.245  31.322   6.697
 5265POPC   C3B67509  23.443  31.344   7.093
 5265POPC   C4B67510  23.321  31.317   7.522
 5266POPC   NC367511  41.313  35.440   5.464
 5266POPC   PO467512  41.768  34.940   5.330
 5266POPC   GL167513  41.631  35.127   5.758
 5266POPC   GL267514  41.264  35.131   5.865
 5266POPC   C1A67515  41.597  35.369   6.170
 5266POPC   D2A67516  41.725  35.605   6.541
 5266POPC   C3A67517  41.852  35.479   6.906
 5266POPC   C4A67518  41.754  35.474   7.324
 5266POPC   C1B67519  41.088  35.250   6.260
 5266POPC   C2B67520  41.307  35.373   6.660
 5266POPC   C3B67521  41.292  35.485   7.104
 5266POPC   C4B67522  41.181  35.173   7.415
 5267POPC   NC367523  31.886  37.307   5.509
 5267POPC   PO467524  32.434  37.623   5.246
 5267POPC   GL167525  32.223  37.692   5.689
 5267POPC   GL267526  32.274  37.368   5.857
 5267POPC   C1A67527  32.292  37.855   6.153
 5267POPC   D2A67528  32.280  38.056   6.609
 5267POPC   C3A67529  32.377  37.768   6.957
 5267POPC   C4A67530  32.190  37.596   7.353
 5267POPC   C1B67531  31.947  37.483   6.147
 5267POPC   C2B67532  31.979  37.657   6.533
 5267POPC   C3B67533  31.918  37.498   6.917
 5267POPC   C4B67534  31.790  37.264   7.243
 5268POPC   NC367535  14.184  28.305   5.374
 5268POPC   PO467536  14.596  28.155   5.820
 5268POPC   GL167537  14.230  28.409   5.908
 5268POPC   GL267538  14.048  28.125   5.831
 5268POPC   C1A67539  14.143  28.512   6.359
 5268POPC   D2A67540  14.497  28.517   6.674
 5268POPC   C3A67541  14.501  28.447   7.109
 5268POPC   C4A67542  14.325  28.582   7.521
 5268POPC   C1B67543  14.010  27.957   6.236
 5268POPC   C2B67544  14.355  27.900   6.527
 5268POPC   C3B67545  14.486  27.933   6.952
 5268POPC   C4B67546  14.133  28.104   7.144
 5269POPC   NC367547   6.075   5.612   5.327
 5269POPC   PO467548   6.018   6.306   5.449
 5269POPC   GL167549   6.028   5.948   5.794
 5269POPC   GL267550   5.865   5.606   5.801
 5269POPC   C1A67551   5.911   5.886   6.249
 5269POPC   D2A67552   5.809   5.739   6.691
 5269POPC   C3A67553   5.925   6.050   7.029
 5269POPC   C4A67554   5.894   6.139   7.494
 5269POPC   C1B67555   5.995   5.370   6.189
 5269POPC   C2B67556   6.016   5.246   6.638
 5269POPC   C3B67557   5.810   5.332   7.029
 5269POPC   C4B67558   5.805   5.658   7.322
 5270POPC   NC367559  39.489  44.282   5.518
 5270POPC   PO467560  39.365  43.642   5.449
 5270POPC   GL167561  39.125  43.806   5.787
 5270POPC   GL267562  39.056  44.149   5.871
 5270POPC   C1A67563  39.325  43.888   6.207
 5270POPC   D2A67564  39.545  43.783   6.566
 5270POPC   C3A67565  39.289  43.611   6.840
 5270POPC   C4A67566  39.353  43.589   7.251
 5270POPC   C1B67567  38.924  44.151   6.341
 5270POPC   C2B67568  39.203  44.137   6.702
 5270POPC   C3B67569  39.272  44.094   7.156
 5270POPC   C4B67570  39.191  44.162   7.604
 5271POPC   NC367571   5.527  16.888   5.267
 5271POPC   PO467572   5.957  16.407   5.285
 5271POPC   GL167573   5.691  16.533   5.680
 5271POPC   GL267574   5.572  16.877   5.793
 5271POPC   C1A67575   5.784  16.605   6.166
 5271POPC   D2A67576   6.092  16.737   6.513
 5271POPC   C3A67577   5.953  16.620   6.939
 5271POPC   C4A67578   5.481  16.563   7.019
 5271POPC   C1B67579   5.517  17.059   6.231
 5271POPC   C2B67580   5.606  16.921   6.669
 5271POPC   C3B67581   5.723  17.053   7.108
 5271POPC   C4B67582   5.826  17.143   7.554
 5272POPC   NC367583  25.797  33.547   5.628
 5272POPC   PO467584  26.017  33.042   5.155
 5272POPC   GL167585  26.121  33.023   5.640
 5272POPC   GL267586  25.902  32.816   5.862
 5272POPC   C1A67587  26.301  33.069   6.081
 5272POPC   D2A67588  26.401  33.076   6.550
 5272POPC   C3A67589  26.229  32.993   6.987
 5272POPC   C4A67590  26.257  33.223   7.413
 5272POPC   C1B67591  25.835  33.098   6.233
 5272POPC   C2B67592  25.813  32.951   6.651
 5272POPC   C3B67593  25.721  32.929   7.062
 5272POPC   C4B67594  25.760  33.207   7.433
 5273POPC   NC367595  37.935  31.474   5.450
 5273POPC   PO467596  37.430  31.924   5.373
 5273POPC   GL167597  37.475  31.687   5.786
 5273POPC   GL267598  37.599  31.348   5.825
 5273POPC   C1A67599  37.683  31.746   6.184
 5273POPC   D2A67600  37.744  31.592   6.581
 5273POPC   C3A67601  37.757  31.844   6.907
 5273POPC   C4A67602  37.594  31.810   7.274
 5273POPC   C1B67603  37.846  31.223   6.229
 5273POPC   C2B67604  37.831  31.114   6.696
 5273POPC   C3B67605  37.709  31.312   7.096
 5273POPC   C4B67606  37.639  31.092   7.499
 5274POPC   NC367607  12.720  42.252   5.378
 5274POPC   PO467608  13.316  42.113   5.128
 5274POPC   GL167609  13.156  42.105   5.636
 5274POPC   GL267610  12.804  42.064   5.840
 5274POPC   C1A67611  13.176  42.268   6.099
 5274POPC   D2A67612  13.007  42.494   6.468
 5274POPC   C3A67613  13.062  42.304   6.874
 5274POPC   C4A67614  13.152  42.448   7.268
 5274POPC   C1B67615  12.627  42.427   6.084
 5274POPC   C2B67616  12.488  42.645   6.467
 5274POPC   C3B67617  12.606  42.570   6.892
 5274POPC   C4B67618  12.668  42.246   7.178
 5275POPC   NC367619  33.815   8.718   5.112
 5275POPC   PO467620  33.545   9.205   5.478
 5275POPC   GL167621  33.781   8.959   5.773
 5275POPC   GL267622  33.802   9.283   5.921
 5275POPC   C1A67623  34.043   8.858   6.175
 5275POPC   D2A67624  34.109   8.792   6.647
 5275POPC   C3A67625  33.733   8.956   6.892
 5275POPC   C4A67626  33.627   9.154   7.285
 5275POPC   C1B67627  33.532   9.515   6.191
 5275POPC   C2B67628  33.652   9.399   6.589
 5275POPC   C3B67629  34.056   9.342   6.746
 5275POPC   C4B67630  34.124   9.208   7.143
 5276POPC   NC367631   8.596  21.975   5.447
 5276POPC   PO467632   9.059  22.456   5.253
 5276POPC   GL167633   9.007  22.280   5.675
 5276POPC   GL267634   8.702  22.341   5.801
 5276POPC   C1A67635   9.103  22.123   6.100
 5276POPC   D2A67636   9.257  22.240   6.522
 5276POPC   C3A67637   9.036  22.160   6.865
 5276POPC   C4A67638   8.902  22.023   7.257
 5276POPC   C1B67639   8.598  22.141   6.158
 5276POPC   C2B67640   8.679  22.029   6.535
 5276POPC   C3B67641   8.529  21.981   6.929
 5276POPC   C4B67642   8.393  22.125   7.318
 5277POPC   NC367643  26.353  31.944   5.347
 5277POPC   PO467644  25.757  32.161   5.551
 5277POPC   GL167645  26.164  32.344   5.640
 5277POPC   GL267646  26.245  32.067   5.833
 5277POPC   C1A67647  26.320  32.535   6.023
 5277POPC   D2A67648  26.007  32.615   6.324
 5277POPC   C3A67649  26.123  32.530   6.724
 5277POPC   C4A67650  25.915  32.396   7.058
 5277POPC   C1B67651  26.102  32.107   6.273
 5277POPC   C2B67652  26.113  32.001   6.726
 5277POPC   C3B67653  26.094  31.900   7.170
 5277POPC   C4B67654  26.212  31.890   7.617
 5278POPC   NC367655  43.423  29.766   5.378
 5278POPC   PO467656  42.988  30.313   5.353
 5278POPC   GL167657  43.112  30.022   5.699
 5278POPC   GL267658  43.468  30.157   5.743
 5278POPC   C1A67659  42.972  29.744   6.067
 5278POPC   D2A67660  42.940  29.532   6.486
 5278POPC   C3A67661  42.858  29.846   6.821
 5278POPC   C4A67662  42.828  29.872   7.288
 5278POPC   C1B67663  43.462  29.877   6.086
 5278POPC   C2B67664  43.403  29.759   6.511
 5278POPC   C3B67665  43.565  29.788   6.912
 5278POPC   C4B67666  43.274  30.032   7.111
 5279POPC   NC367667  18.818  29.809   5.437
 5279POPC   PO467668  19.196  30.307   5.474
 5279POPC   GL167669  19.100  30.011   5.800
 5279POPC   GL267670  18.750  30.076   5.875
 5279POPC   C1A67671  19.276  30.043   6.193
 5279POPC   D2A67672  19.221  30.318   6.557
 5279POPC   C3A67673  19.052  30.081   6.882
 5279POPC   C4A67674  19.260  29.789   7.155
 5279POPC   C1B67675  18.802  29.826   6.244
 5279POPC   C2B67676  18.878  29.616   6.642
 5279POPC   C3B67677  18.760  29.706   7.067
 5279POPC   C4B67678  18.593  30.092   7.154
 5280POPC   NC367679  29.050  38.339   5.319
 5280POPC   PO467680  29.583  38.199   5.577
 5280POPC   GL167681  29.244  38.214   5.920
 5280POPC   GL267682  28.942  38.418   5.846
 5280POPC   C1A67683  29.102  38.117   6.382
 5280POPC   D2A67684  29.152  38.386   6.758
 5280POPC   C3A67685  29.051  38.242   7.186
 5280POPC   C4A67686  28.797  38.278   7.583
 5280POPC   C1B67687  28.919  38.584   6.308
 5280POPC   C2B67688  28.865  38.845   6.692
 5280POPC   C3B67689  28.938  39.004   7.113
 5280POPC   C4B67690  28.860  39.113   7.579
 5281POPC   NC367691  40.615  27.661   5.433
 5281POPC   PO467692  41.089  27.226   5.198
 5281POPC   GL167693  40.979  27.353   5.666
 5281POPC   GL267694  40.619  27.327   5.812
 5281POPC   C1A67695  41.044  27.672   6.011
 5281POPC   D2A67696  41.179  27.796   6.429
 5281POPC   C3A67697  41.104  27.514   6.761
 5281POPC   C4A67698  40.850  27.810   7.061
 5281POPC   C1B67699  40.543  27.552   6.192
 5281POPC   C2B67700  40.638  27.605   6.617
 5281POPC   C3B67701  40.662  27.359   6.995
 5281POPC   C4B67702  40.436  27.288   7.302
 5282POPC   NC367703  24.221  10.082   5.398
 5282POPC   PO467704  24.853   9.698   5.399
 5282POPC   GL167705  24.618   9.893   5.726
 5282POPC   GL267706  24.444   9.625   5.906
 5282POPC   C1A67707  24.598  10.074   6.151
 5282POPC   D2A67708  24.341   9.970   6.499
 5282POPC   C3A67709  24.500  10.053   6.918
 5282POPC   C4A67710  24.415   9.867   7.304
 5282POPC   C1B67711  24.784   9.607   6.186
 5282POPC   C2B67712  24.839   9.845   6.573
 5282POPC   C3B67713  24.798   9.613   6.950
 5282POPC   C4B67714  24.792   9.572   7.400
 5283POPC   NC367715   6.725  33.240   5.363
 5283POPC   PO467716   6.662  32.678   5.584
 5283POPC   GL167717   6.606  33.043   5.835
 5283POPC   GL267718   6.936  33.127   5.823
 5283POPC   C1A67719   6.744  33.007   6.278
 5283POPC   D2A67720   7.015  32.922   6.643
 5283POPC   C3A67721   6.707  32.898   6.965
 5283POPC   C4A67722   6.353  32.982   7.243
 5283POPC   C1B67723   7.018  33.407   6.119
 5283POPC   C2B67724   6.845  33.457   6.508
 5283POPC   C3B67725   6.961  33.364   6.912
 5283POPC   C4B67726   6.778  33.263   7.317
 5284POPC   NC367727  26.342  21.901   5.420
 5284POPC   PO467728  25.819  22.266   5.642
 5284POPC   GL167729  26.105  22.426   5.911
 5284POPC   GL267730  26.225  22.079   5.917
 5284POPC   C1A67731  26.183  22.485   6.348
 5284POPC   D2A67732  26.346  22.243   6.627
 5284POPC   C3A67733  26.220  22.427   7.032
 5284POPC   C4A67734  25.976  22.172   7.309
 5284POPC   C1B67735  26.067  21.973   6.283
 5284POPC   C2B67736  25.850  21.755   6.560
 5284POPC   C3B67737  25.793  21.858   6.958
 5284POPC   C4B67738  25.600  21.778   7.339
 5285POPC   NC367739   3.979  11.738   5.154
 5285POPC   PO467740   4.372  12.161   5.324
 5285POPC   GL167741   4.413  12.057   5.762
 5285POPC   GL267742   4.550  12.374   5.845
 5285POPC   C1A67743   4.084  11.989   6.090
 5285POPC   D2A67744   4.056  11.788   6.495
 5285POPC   C3A67745   3.998  11.995   6.888
 5285POPC   C4A67746   4.079  12.060   7.302
 5285POPC   C1B67747   4.514  12.197   6.260
 5285POPC   C2B67748   4.356  12.293   6.668
 5285POPC   C3B67749   4.491  12.200   7.049
 5285POPC   C4B67750   4.451  12.420   7.423
 5286POPC   NC367751  10.740  35.705   5.653
 5286POPC   PO467752  10.405  36.255   5.391
 5286POPC   GL167753  10.648  36.401   5.756
 5286POPC   GL267754  10.730  36.108   5.919
 5286POPC   C1A67755  10.754  36.507   6.193
 5286POPC   D2A67756  10.806  36.202   6.490
 5286POPC   C3A67757  10.723  36.176   6.896
 5286POPC   C4A67758  10.621  36.426   7.185
 5286POPC   C1B67759  10.393  36.065   6.160
 5286POPC   C2B67760  10.391  35.901   6.550
 5286POPC   C3B67761  10.242  36.051   6.896
 5286POPC   C4B67762  10.380  35.954   7.268
 5287POPC   NC367763  11.968  11.579   5.050
 5287POPC   PO467764  12.319  11.324   5.576
 5287POPC   GL167765  12.156  11.331   5.943
 5287POPC   GL267766  11.926  11.576   5.912
 5287POPC   C1A67767  12.205  11.518   6.344
 5287POPC   D2A67768  12.002  11.347   6.701
 5287POPC   C3A67769  12.302  11.253   6.998
 5287POPC   C4A67770  12.214  11.569   7.273
 5287POPC   C1B67771  11.735  11.307   6.236
 5287POPC   C2B67772  11.588  11.005   6.521
 5287POPC   C3B67773  11.628  11.080   6.943
 5287POPC   C4B67774  11.525  11.002   7.331
 5288POPC   NC367775  22.691   5.570   5.367
 5288POPC   PO467776  22.867   6.257   5.357
 5288POPC   GL167777  22.893   5.953   5.700
 5288POPC   GL267778  22.530   5.884   5.733
 5288POPC   C1A67779  23.059   5.822   6.145
 5288POPC   D2A67780  23.247   6.003   6.543
 5288POPC   C3A67781  22.998   5.914   6.928
 5288POPC   C4A67782  22.796   5.552   7.031
 5288POPC   C1B67783  22.636   6.114   6.100
 5288POPC   C2B67784  22.706   5.961   6.508
 5288POPC   C3B67785  22.475   5.991   6.869
 5288POPC   C4B67786  22.535   5.971   7.284
 5289POPC   NC367787  29.660  33.489   5.451
 5289POPC   PO467788  29.741  32.852   5.255
 5289POPC   GL167789  29.861  33.035   5.689
 5289POPC   GL267790  30.059  32.747   5.783
 5289POPC   C1A67791  29.950  33.166   6.141
 5289POPC   D2A67792  29.725  33.227   6.539
 5289POPC   C3A67793  29.975  33.189   6.908
 5289POPC   C4A67794  30.270  33.239   7.254
 5289POPC   C1B67795  29.849  32.670   6.120
 5289POPC   C2B67796  30.022  32.735   6.490
 5289POPC   C3B67797  29.896  32.649   6.860
 5289POPC   C4B67798  29.958  32.811   7.247
 5290POPC   NC367799  35.215  19.534   5.518
 5290POPC   PO467800  35.127  18.841   5.467
 5290POPC   GL167801  35.131  19.094   5.833
 5290POPC   GL267802  35.480  19.189   5.794
 5290POPC   C1A67803  35.073  18.921   6.257
 5290POPC   D2A67804  35.195  18.700   6.646
 5290POPC   C3A67805  35.129  18.904   7.042
 5290POPC   C4A67806  35.011  18.714   7.398
 5290POPC   C1B67807  35.427  19.307   6.219
 5290POPC   C2B67808  35.356  19.218   6.646
 5290POPC   C3B67809  35.591  19.129   7.018
 5290POPC   C4B67810  35.620  19.424   7.332
 5291POPC   NC367811  23.487   9.867   5.486
 5291POPC   PO467812  24.076   9.569   5.345
 5291POPC   GL167813  23.975   9.770   5.756
 5291POPC   GL267814  23.655   9.812   5.939
 5291POPC   C1A67815  24.026   9.651   6.218
 5291POPC   D2A67816  23.802   9.759   6.585
 5291POPC   C3A67817  24.043   9.839   6.920
 5291POPC   C4A67818  23.995  10.160   7.204
 5291POPC   C1B67819  23.385   9.784   6.258
 5291POPC   C2B67820  23.319   9.589   6.608
 5291POPC   C3B67821  23.269   9.662   7.004
 5291POPC   C4B67822  23.532  10.030   7.029
 5292POPC   NC367823  27.617   6.111   5.355
 5292POPC   PO467824  27.587   5.505   5.648
 5292POPC   GL167825  27.567   5.886   5.895
 5292POPC   GL267826  27.879   6.101   5.790
 5292POPC   C1A67827  27.462   5.897   6.359
 5292POPC   D2A67828  27.200   5.673   6.675
 5292POPC   C3A67829  27.477   5.638   6.975
 5292POPC   C4A67830  27.580   5.594   7.369
 5292POPC   C1B67831  27.937   6.084   6.216
 5292POPC   C2B67832  27.967   5.876   6.609
 5292POPC   C3B67833  27.832   6.029   6.992
 5292POPC   C4B67834  27.468   6.069   7.253
 5293POPC   NC367835  40.259  19.212   5.481
 5293POPC   PO467836  40.767  18.789   5.350
 5293POPC   GL167837  40.585  18.960   5.757
 5293POPC   GL267838  40.739  19.232   5.971
 5293POPC   C1A67839  40.464  18.859   6.182
 5293POPC   D2A67840  40.668  19.119   6.489
 5293POPC   C3A67841  40.587  19.009   6.899
 5293POPC   C4A67842  40.542  19.137   7.291
 5293POPC   C1B67843  41.138  19.220   6.204
 5293POPC   C2B67844  41.296  19.107   6.606
 5293POPC   C3B67845  41.087  19.092   6.971
 5293POPC   C4B67846  41.025  19.280   7.346
 5294POPC   NC367847  16.071   5.530   5.396
 5294POPC   PO467848  15.777   4.991   5.398
 5294POPC   GL167849  15.610   4.964   5.815
 5294POPC   GL267850  15.957   4.949   5.929
 5294POPC   C1A67851  15.586   4.924   6.276
 5294POPC   D2A67852  15.811   5.025   6.656
 5294POPC   C3A67853  15.860   4.742   7.002
 5294POPC   C4A67854  15.925   4.822   7.470
 5294POPC   C1B67855  16.094   4.736   6.327
 5294POPC   C2B67856  16.292   4.855   6.756
 5294POPC   C3B67857  16.289   5.106   7.171
 5294POPC   C4B67858  16.556   5.076   7.562
 5295POPC   NC367859  31.822   9.841   5.402
 5295POPC   PO467860  31.354   9.403   5.379
 5295POPC   GL167861  31.423   9.711   5.757
 5295POPC   GL267862  31.741   9.774   5.895
 5295POPC   C1A67863  31.252   9.833   6.161
 5295POPC   D2A67864  31.073   9.698   6.559
 5295POPC   C3A67865  31.237   9.842   6.971
 5295POPC   C4A67866  31.426   9.709   7.400
 5295POPC   C1B67867  31.741   9.952   6.313
 5295POPC   C2B67868  31.727   9.816   6.762
 5295POPC   C3B67869  31.692  10.077   7.145
 5295POPC   C4B67870  31.826   9.974   7.603
 5296POPC   NC367871  36.319  43.567   5.493
 5296POPC   PO467872  36.930  43.235   5.298
 5296POPC   GL167873  36.778  43.272   5.712
 5296POPC   GL267874  36.773  42.928   5.822
 5296POPC   C1A67875  36.662  43.371   6.154
 5296POPC   D2A67876  36.644  43.160   6.582
 5296POPC   C3A67877  36.661  43.430   6.945
 5296POPC   C4A67878  36.982  43.495   7.247
 5296POPC   C1B67879  37.061  43.009   6.164
 5296POPC   C2B67880  37.122  42.858   6.587
 5296POPC   C3B67881  36.996  42.986   6.997
 5296POPC   C4B67882  36.546  42.925   7.062
 5297POPC   NC367883  40.046   0.773   5.119
 5297POPC   PO467884  39.613   1.179   5.491
 5297POPC   GL167885  39.845   1.329   5.849
 5297POPC   GL267886  40.073   1.100   6.040
 5297POPC   C1A67887  39.739   1.411   6.283
 5297POPC   D2A67888  39.904   1.198   6.620
 5297POPC   C3A67889  39.994   1.351   7.018
 5297POPC   C4A67890  39.704   1.535   7.318
 5297POPC   C1B67891  40.271   0.700   6.156
 5297POPC   C2B67892  40.142   0.611   6.539
 5297POPC   C3B67893  40.030   0.807   6.906
 5297POPC   C4B67894  40.257   0.950   7.207
 5298POPC   NC367895  32.456   5.709   5.704
 5298POPC   PO467896  31.824   5.902   5.405
 5298POPC   GL167897  32.055   6.036   5.811
 5298POPC   GL267898  32.297   6.300   6.006
 5298POPC   C1A67899  32.004   5.922   6.237
 5298POPC   D2A67900  31.799   6.013   6.629
 5298POPC   C3A67901  32.151   5.923   6.884
 5298POPC   C4A67902  32.258   5.747   7.249
 5298POPC   C1B67903  32.528   6.023   6.287
 5298POPC   C2B67904  32.604   6.099   6.696
 5298POPC   C3B67905  32.683   5.930   7.081
 5298POPC   C4B67906  32.501   6.158   7.403
 5299POPC   NC367907   1.650  24.260   5.554
 5299POPC   PO467908   2.168  24.689   5.486
 5299POPC   GL167909   2.082  24.384   5.809
 5299POPC   GL267910   2.131  24.036   5.760
 5299POPC   C1A67911   1.903  24.359   6.220
 5299POPC   D2A67912   1.985  24.396   6.648
 5299POPC   C3A67913   1.682  24.313   6.991
 5299POPC   C4A67914   1.745  24.659   7.294
 5299POPC   C1B67915   2.303  24.028   6.166
 5299POPC   C2B67916   2.490  24.320   6.432
 5299POPC   C3B67917   2.520  24.326   6.841
 5299POPC   C4B67918   2.179  24.316   7.118
 5300POPC   NC367919   2.509   1.338   5.428
 5300POPC   PO467920   1.829   1.095   5.555
 5300POPC   GL167921   1.880   1.417   5.822
 5300POPC   GL267922   2.176   1.528   5.751
 5300POPC   C1A67923   1.741   1.454   6.229
 5300POPC   D2A67924   1.596   1.418   6.630
 5300POPC   C3A67925   1.922   1.205   6.895
 5300POPC   C4A67926   1.813   1.204   7.329
 5300POPC   C1B67927   2.289   1.224   6.079
 5300POPC   C2B67928   2.287   1.246   6.515
 5300POPC   C3B67929   2.463   1.282   6.942
 5300POPC   C4B67930   2.288   1.018   7.270
 5301POPC   NC367931  25.774  24.066   5.612
 5301POPC   PO467932  26.001  23.460   5.401
 5301POPC   GL167933  25.820  23.564   5.782
 5301POPC   GL267934  25.692  23.240   5.913
 5301POPC   C1A67935  26.003  23.810   6.157
 5301POPC   D2A67936  26.276  23.901   6.504
 5301POPC   C3A67937  26.079  23.808   6.919
 5301POPC   C4A67938  26.034  23.886   7.387
 5301POPC   C1B67939  26.106  23.312   6.124
 5301POPC   C2B67940  26.340  23.380   6.514
 5301POPC   C3B67941  26.186  23.292   6.940
 5301POPC   C4B67942  25.996  23.384   7.343
 5302POPC   NC367943  36.010  29.626   5.542
 5302POPC   PO467944  36.283  28.892   5.509
 5302POPC   GL167945  36.248  29.224   5.788
 5302POPC   GL267946  35.911  29.190   5.847
 5302POPC   C1A67947  36.390  29.234   6.197
 5302POPC   D2A67948  36.254  29.003   6.564
 5302POPC   C3A67949  36.303  29.136   6.988
 5302POPC   C4A67950  36.171  28.880   7.390
 5302POPC   C1B67951  35.839  29.257   6.282
 5302POPC   C2B67952  35.899  29.391   6.710
 5302POPC   C3B67953  35.791  29.105   7.044
 5302POPC   C4B67954  35.748  29.156   7.469
 5303POPC   NC367955  35.181  13.072   5.401
 5303POPC   PO467956  35.465  12.454   5.475
 5303POPC   GL167957  35.303  12.739   5.784
 5303POPC   GL267958  35.484  13.070   5.807
 5303POPC   C1A67959  35.302  12.744   6.211
 5303POPC   D2A67960  35.186  12.956   6.581
 5303POPC   C3A67961  35.545  12.904   6.854
 5303POPC   C4A67962  35.539  12.679   7.259
 5303POPC   C1B67963  35.420  13.280   6.186
 5303POPC   C2B67964  35.505  13.376   6.606
 5303POPC   C3B67965  35.199  13.332   6.933
 5303POPC   C4B67966  35.423  13.170   7.270
 5304POPC   NC367967   7.684   3.017   5.354
 5304POPC   PO467968   7.119   2.970   5.518
 5304POPC   GL167969   7.419   2.803   5.845
 5304POPC   GL267970   7.503   2.435   5.838
 5304POPC   C1A67971   7.547   2.870   6.287
 5304POPC   D2A67972   7.702   3.040   6.668
 5304POPC   C3A67973   7.482   2.897   7.034
 5304POPC   C4A67974   7.494   2.493   7.210
 5304POPC   C1B67975   7.308   2.414   6.242
 5304POPC   C2B67976   7.291   2.536   6.683
 5304POPC   C3B67977   7.046   2.313   7.003
 5304POPC   C4B67978   7.012   2.277   7.459
 5305POPC   NC367979  21.092  26.128   5.408
 5305POPC   PO467980  21.608  25.589   5.501
 5305POPC   GL167981  21.391  25.841   5.776
 5305POPC   GL267982  21.055  25.741   5.766
 5305POPC   C1A67983  21.544  26.037   6.144
 5305POPC   D2A67984  21.535  25.896   6.562
 5305POPC   C3A67985  21.743  26.160   6.864
 5305POPC   C4A67986  21.596  26.248   7.271
 5305POPC   C1B67987  21.044  25.989   6.121
 5305POPC   C2B67988  21.043  26.138   6.523
 5305POPC   C3B67989  21.221  26.107   6.917
 5305POPC   C4B67990  21.091  26.167   7.315
 5306POPC   NC367991  24.169  23.127   5.321
 5306POPC   PO467992  24.426  22.554   5.102
 5306POPC   GL167993  24.419  22.649   5.629
 5306POPC   GL267994  24.748  22.625   5.830
 5306POPC   C1A67995  24.301  22.814   6.079
 5306POPC   D2A67996  24.310  23.033   6.530
 5306POPC   C3A67997  24.206  22.967   7.023
 5306POPC   C4A67998  24.263  23.076   7.526
 5306POPC   C1B67999  24.766  23.055   6.043
 5306POPC   C2B68000  24.822  23.148   6.498
 5306POPC   C3B68001  24.730  22.849   6.833
 5306POPC   C4B68002  24.652  22.854   7.256
 5307POPC   NC368003  31.016  21.652   5.072
 5307POPC   PO468004  30.801  20.948   5.345
 5307POPC   GL168005  30.831  21.251   5.741
 5307POPC   GL268006  30.497  21.357   5.932
 5307POPC   C1A68007  30.941  21.626   6.017
 5307POPC   D2A68008  30.917  21.851   6.432
 5307POPC   C3A68009  30.680  21.667   6.787
 5307POPC   C4A68010  30.817  21.801   7.179
 5307POPC   C1B68011  30.638  21.391   6.359
 5307POPC   C2B68012  30.949  21.205   6.645
 5307POPC   C3B68013  30.868  21.263   7.087
 5307POPC   C4B68014  30.416  21.403   7.195
 5308POPC   NC368015   7.723  36.237   5.207
 5308POPC   PO468016   7.073  36.469   5.360
 5308POPC   GL168017   7.199  36.263   5.755
 5308POPC   GL268018   7.432  36.004   5.713
 5308POPC   C1A68019   7.147  36.125   6.189
 5308POPC   D2A68020   7.053  36.355   6.576
 5308POPC   C3A68021   7.207  36.174   6.931
 5308POPC   C4A68022   7.079  36.099   7.343
 5308POPC   C1B68023   7.665  36.081   6.114
 5308POPC   C2B68024   7.873  36.052   6.497
 5308POPC   C3B68025   7.721  36.115   6.884
 5308POPC   C4B68026   7.773  35.960   7.272
 5309POPC   NC368027  28.428  30.260   5.627
 5309POPC   PO468028  28.500  30.912   5.490
 5309POPC   GL168029  28.494  30.779   5.882
 5309POPC   GL268030  28.783  30.592   5.844
 5309POPC   C1A68031  28.165  30.729   6.202
 5309POPC   D2A68032  27.888  30.714   6.574
 5309POPC   C3A68033  28.105  30.687   6.969
 5309POPC   C4A68034  28.056  30.880   7.365
 5309POPC   C1B68035  28.639  30.478   6.278
 5309POPC   C2B68036  28.608  30.158   6.604
 5309POPC   C3B68037  28.611  30.181   6.997
 5309POPC   C4B68038  28.559  30.579   7.208
 5310POPC   NC368039   4.976  29.632   5.479
 5310POPC   PO468040   5.207  30.259   5.583
 5310POPC   GL168041   4.957  30.112   5.935
 5310POPC   GL268042   4.606  30.188   5.965
 5310POPC   C1A68043   4.942  30.120   6.408
 5310POPC   D2A68044   4.937  30.065   6.873
 5310POPC   C3A68045   5.214  29.702   7.067
 5310POPC   C4A68046   5.420  29.736   7.497
 5310POPC   C1B68047   4.652  29.752   6.162
 5310POPC   C2B68048   4.753  29.653   6.622
 5310POPC   C3B68049   4.703  29.661   7.086
 5310POPC   C4B68050   4.868  29.540   7.471
 5311POPC   NC368051  23.053  10.768   5.495
 5311POPC   PO468052  22.768  10.244   5.538
 5311POPC   GL168053  23.002  10.502   5.935
 5311POPC   GL268054  23.106  10.891   5.982
 5311POPC   C1A68055  23.049  10.596   6.406
 5311POPC   D2A68056  22.699  10.421   6.634
 5311POPC   C3A68057  22.709  10.439   7.059
 5311POPC   C4A68058  22.741  10.321   7.476
 5311POPC   C1B68059  22.677  10.874   6.166
 5311POPC   C2B68060  22.593  10.939   6.617
 5311POPC   C3B68061  22.912  10.892   6.929
 5311POPC   C4B68062  23.049  10.756   7.338
 5312POPC   NC368063   8.700   0.700   5.478
 5312POPC   PO468064   8.750   0.065   5.365
 5312POPC   GL168065   9.001   0.317   5.664
 5312POPC   GL268066   8.724   0.354   5.855
 5312POPC   C1A68067   9.162   0.490   6.096
 5312POPC   D2A68068   9.159   0.493   6.581
 5312POPC   C3A68069   9.395   0.354   6.999
 5312POPC   C4A68070   9.692   0.418   7.385
 5312POPC   C1B68071   8.669   0.678   6.185
 5312POPC   C2B68072   8.653   0.559   6.623
 5312POPC   C3B68073   8.894   0.547   7.016
 5312POPC   C4B68074   8.902   0.539   7.455
 5313POPC   NC368075   4.198  24.821   5.504
 5313POPC   PO468076   4.816  24.454   5.521
 5313POPC   GL168077   4.581  24.639   5.812
 5313POPC   GL268078   4.240  24.446   5.865
 5313POPC   C1A68079   4.631  24.528   6.222
 5313POPC   D2A68080   4.308  24.505   6.472
 5313POPC   C3A68081   4.289  24.548   6.907
 5313POPC   C4A68082   4.416  24.638   7.317
 5313POPC   C1B68083   3.985  24.207   6.195
 5313POPC   C2B68084   4.099  24.060   6.625
 5313POPC   C3B68085   3.892  24.226   6.991
 5313POPC   C4B68086   3.921  24.496   7.354
 5314POPC   NC368087   5.326   7.209   5.465
 5314POPC   PO468088   5.131   6.621   5.430
 5314POPC   GL168089   5.367   6.770   5.795
 5314POPC   GL268090   5.205   7.060   5.941
 5314POPC   C1A68091   5.311   6.626   6.233
 5314POPC   D2A68092   5.116   6.547   6.649
 5314POPC   C3A68093   5.310   6.497   7.069
 5314POPC   C4A68094   5.049   6.367   7.427
 5314POPC   C1B68095   5.424   7.114   6.342
 5314POPC   C2B68096   5.356   6.970   6.784
 5314POPC   C3B68097   5.006   6.923   7.106
 5314POPC   C4B68098   5.013   7.186   7.519
 5315POPC   NC368099  16.751  14.737   5.085
 5315POPC   PO468100  16.465  15.216   5.575
 5315POPC   GL168101  16.831  15.280   5.883
 5315POPC   GL268102  17.136  15.078   5.820
 5315POPC   C1A68103  16.763  15.331   6.333
 5315POPC   D2A68104  16.502  15.103   6.645
 5315POPC   C3A68105  16.694  15.211   7.009
 5315POPC   C4A68106  16.524  15.537   7.241
 5315POPC   C1B68107  17.100  14.931   6.228
 5315POPC   C2B68108  16.995  14.947   6.652
 5315POPC   C3B68109  17.152  14.765   7.025
 5315POPC   C4B68110  17.048  14.872   7.454
 5316POPC   NC368111   1.488  27.152   5.220
 5316POPC   PO468112   0.956  26.774   5.257
 5316POPC   GL168113   1.035  26.652   5.736
 5316POPC   GL268114   1.390  26.562   5.771
 5316POPC   C1A68115   1.064  26.755   6.218
 5316POPC   D2A68116   1.211  26.975   6.626
 5316POPC   C3A68117   1.032  26.882   6.993
 5316POPC   C4A68118   1.239  27.038   7.359
 5316POPC   C1B68119   1.511  26.452   6.201
 5316POPC   C2B68120   1.447  26.526   6.645
 5316POPC   C3B68121   1.447  26.591   7.097
 5316POPC   C4B68122   1.493  26.510   7.521
 5317POPC   NC368123  21.425  34.903   5.539
 5317POPC   PO468124  20.954  34.398   5.454
 5317POPC   GL168125  21.304  34.431   5.762
 5317POPC   GL268126  21.519  34.141   5.702
 5317POPC   C1A68127  21.441  34.608   6.204
 5317POPC   D2A68128  21.201  34.792   6.579
 5317POPC   C3A68129  21.295  34.887   7.024
 5317POPC   C4A68130  21.715  34.767   7.169
 5317POPC   C1B68131  21.352  34.076   6.134
 5317POPC   C2B68132  21.197  34.263   6.503
 5317POPC   C3B68133  21.391  34.402   6.867
 5317POPC   C4B68134  21.312  34.418   7.288
 5318POPC   NC368135  15.831  37.308   5.306
 5318POPC   PO468136  16.113  36.685   5.216
 5318POPC   GL168137  16.048  36.956   5.619
 5318POPC   GL268138  16.342  37.005   5.830
 5318POPC   C1A68139  15.867  37.119   6.043
 5318POPC   D2A68140  15.954  37.129   6.495
 5318POPC   C3A68141  15.681  37.114   6.864
 5318POPC   C4A68142  15.780  36.842   7.277
 5318POPC   C1B68143  16.456  37.190   6.250
 5318POPC   C2B68144  16.386  37.324   6.684
 5318POPC   C3B68145  16.169  37.079   7.014
 5318POPC   C4B68146  16.305  36.674   7.260
 5319POPC   NC368147  19.644  39.787   5.384
 5319POPC   PO468148  18.934  39.817   5.479
 5319POPC   GL168149  18.966  39.923   5.875
 5319POPC   GL268150  18.752  40.198   5.869
 5319POPC   C1A68151  19.219  40.171   6.184
 5319POPC   D2A68152  19.356  40.011   6.576
 5319POPC   C3A68153  19.220  40.151   6.955
 5319POPC   C4A68154  19.198  39.902   7.279
 5319POPC   C1B68155  18.741  40.076   6.289
 5319POPC   C2B68156  18.892  40.314   6.586
 5319POPC   C3B68157  18.743  40.351   6.956
 5319POPC   C4B68158  18.649  39.979   7.134
 5320POPC   NC368159   4.580  36.674   5.472
 5320POPC   PO468160   4.388  36.053   5.353
 5320POPC   GL168161   4.338  36.067   5.822
 5320POPC   GL268162   4.080  35.802   5.733
 5320POPC   C1A68163   4.334  36.277   6.263
 5320POPC   D2A68164   4.358  36.541   6.679
 5320POPC   C3A68165   4.354  36.347   7.097
 5320POPC   C4A68166   4.568  35.947   7.183
 5320POPC   C1B68167   3.864  35.840   6.106
 5320POPC   C2B68168   3.923  36.040   6.476
 5320POPC   C3B68169   4.199  35.956   6.801
 5320POPC   C4B68170   4.056  35.912   7.216
 5321POPC   NC368171  37.535   7.119   5.299
 5321POPC   PO468172  37.535   7.761   5.536
 5321POPC   GL168173  37.519   7.545   5.877
 5321POPC   GL268174  37.875   7.598   5.907
 5321POPC   C1A68175  37.511   7.390   6.297
 5321POPC   D2A68176  37.460   7.400   6.733
 5321POPC   C3A68177  37.747   7.309   7.032
 5321POPC   C4A68178  37.662   7.371   7.453
 5321POPC   C1B68179  37.731   7.874   6.254
 5321POPC   C2B68180  37.611   7.885   6.697
 5321POPC   C3B68181  37.561   7.803   7.150
 5321POPC   C4B68182  37.713   7.852   7.613
 5322POPC   NC368183  18.608  35.319   4.924
 5322POPC   PO468184  18.044  35.135   5.369
 5322POPC   GL168185  18.404  35.033   5.692
 5322POPC   GL268186  18.464  35.363   5.753
 5322POPC   C1A68187  18.503  35.121   6.187
 5322POPC   D2A68188  18.309  35.350   6.581
 5322POPC   C3A68189  18.152  35.152   6.970
 5322POPC   C4A68190  17.977  35.267   7.378
 5322POPC   C1B68191  18.285  35.611   6.108
 5322POPC   C2B68192  18.184  35.839   6.488
 5322POPC   C3B68193  17.978  35.682   6.870
 5322POPC   C4B68194  17.881  35.761   7.309
 5323POPC   NC368195   3.611   3.795   5.397
 5323POPC   PO468196   3.459   3.141   5.395
 5323POPC   GL168197   3.644   3.336   5.760
 5323POPC   GL268198   3.807   3.065   5.896
 5323POPC   C1A68199   3.630   3.497   6.219
 5323POPC   D2A68200   3.532   3.386   6.695
 5323POPC   C3A68201   3.702   3.648   7.066
 5323POPC   C4A68202   3.707   3.556   7.547
 5323POPC   C1B68203   3.782   3.021   6.374
 5323POPC   C2B68204   3.891   2.988   6.806
 5323POPC   C3B68205   3.691   3.152   7.169
 5323POPC   C4B68206   3.745   3.055   7.581
 5324POPC   NC368207  15.647  28.512   5.405
 5324POPC   PO468208  16.364  28.298   5.384
 5324POPC   GL168209  16.034  28.343   5.728
 5324POPC   GL268210  15.791  28.082   5.644
 5324POPC   C1A68211  15.863  28.514   6.167
 5324POPC   D2A68212  15.621  28.368   6.575
 5324POPC   C3A68213  15.749  28.559   7.011
 5324POPC   C4A68214  16.187  28.645   7.144
 5324POPC   C1B68215  15.714  28.027   6.084
 5324POPC   C2B68216  15.803  27.882   6.532
 5324POPC   C3B68217  15.833  28.018   6.951
 5324POPC   C4B68218  15.457  28.122   7.196
 5325POPC   NC368219  20.641  31.099   5.486
 5325POPC   PO468220  20.816  30.518   5.252
 5325POPC   GL168221  20.842  30.673   5.700
 5325POPC   GL268222  20.483  30.712   5.814
 5325POPC   C1A68223  20.888  30.752   6.162
 5325POPC   D2A68224  20.954  30.932   6.581
 5325POPC   C3A68225  20.699  31.009   6.938
 5325POPC   C4A68226  20.560  30.692   7.199
 5325POPC   C1B68227  20.256  30.896   6.196
 5325POPC   C2B68228  20.291  30.819   6.668
 5325POPC   C3B68229  20.184  30.993   7.081
 5325POPC   C4B68230  20.412  31.081   7.487
 5326POPC   NC368231  27.651  26.433   5.158
 5326POPC   PO468232  27.674  25.828   5.296
 5326POPC   GL168233  27.480  26.046   5.715
 5326POPC   GL268234  27.782  26.006   5.920
 5326POPC   C1A68235  27.399  26.223   6.180
 5326POPC   D2A68236  27.806  26.251   6.429
 5326POPC   C3A68237  27.829  26.228   6.869
 5326POPC   C4A68238  27.475  26.159   7.152
 5326POPC   C1B68239  27.602  25.762   6.236
 5326POPC   C2B68240  27.519  25.856   6.660
 5326POPC   C3B68241  27.746  25.750   7.038
 5326POPC   C4B68242  27.699  25.779   7.511
 5327POPC   NC368243   4.915  32.713   5.383
 5327POPC   PO468244   5.496  33.184   5.465
 5327POPC   GL168245   5.364  33.079   5.849
 5327POPC   GL268246   5.049  32.962   5.793
 5327POPC   C1A68247   5.126  33.282   6.175
 5327POPC   D2A68248   4.876  33.222   6.544
 5327POPC   C3A68249   5.165  33.128   6.887
 5327POPC   C4A68250   5.109  33.259   7.280
 5327POPC   C1B68251   4.849  32.821   6.174
 5327POPC   C2B68252   4.898  32.703   6.607
 5327POPC   C3B68253   4.717  32.921   6.971
 5327POPC   C4B68254   4.934  32.812   7.355
 5328POPC   NC368255   1.421  34.965   5.509
 5328POPC   PO468256   0.823  35.142   5.415
 5328POPC   GL168257   0.873  34.756   5.707
 5328POPC   GL268258   1.237  34.648   5.885
 5328POPC   C1A68259   0.837  34.771   6.166
 5328POPC   D2A68260   1.171  34.600   6.447
 5328POPC   C3A68261   1.080  34.579   6.872
 5328POPC   C4A68262   1.280  34.463   7.255
 5328POPC   C1B68263   1.477  34.304   6.130
 5328POPC   C2B68264   1.457  34.162   6.534
 5328POPC   C3B68265   1.584  34.402   6.853
 5328POPC   C4B68266   1.725  34.221   7.197
 5329POPC   NC368267  23.640  18.897   5.241
 5329POPC   PO468268  24.105  19.272   5.449
 5329POPC   GL168269  23.860  18.960   5.708
 5329POPC   GL268270  23.532  19.108   5.719
 5329POPC   C1A68271  23.705  18.778   6.125
 5329POPC   D2A68272  23.654  18.653   6.578
 5329POPC   C3A68273  23.713  18.848   7.005
 5329POPC   C4A68274  23.833  19.118   7.360
 5329POPC   C1B68275  23.499  19.237   6.181
 5329POPC   C2B68276  23.374  19.086   6.609
 5329POPC   C3B68277  23.442  19.265   7.006
 5329POPC   C4B68278  23.413  19.435   7.420
 5330POPC   NC368279   1.502  20.275   5.512
 5330POPC   PO468280   0.960  20.647   5.383
 5330POPC   GL168281   1.132  20.657   5.823
 5330POPC   GL268282   1.412  20.447   5.973
 5330POPC   C1A68283   1.025  20.544   6.248
 5330POPC   D2A68284   1.377  20.496   6.517
 5330POPC   C3A68285   1.272  20.391   6.922
 5330POPC   C4A68286   1.098  20.624   7.248
 5330POPC   C1B68287   1.569  20.839   6.187
 5330POPC   C2B68288   1.713  20.965   6.580
 5330POPC   C3B68289   1.525  20.982   6.999
 5330POPC   C4B68290   1.624  20.646   7.250
 5331POPC   NC368291   3.591  37.592   5.470
 5331POPC   PO468292   3.076  37.865   5.289
 5331POPC   GL168293   3.310  38.020   5.716
 5331POPC   GL268294   3.673  38.060   5.794
 5331POPC   C1A68295   3.420  37.804   6.149
 5331POPC   D2A68296   3.620  37.700   6.559
 5331POPC   C3A68297   3.391  37.756   6.955
 5331POPC   C4A68298   3.503  37.611   7.379
 5331POPC   C1B68299   3.884  38.043   6.228
 5331POPC   C2B68300   3.993  38.011   6.680
 5331POPC   C3B68301   3.867  37.887   7.113
 5331POPC   C4B68302   3.765  38.035   7.548
 5332POPC   NC368303   1.701  33.406   5.465
 5332POPC   PO468304   1.977  32.883   5.108
 5332POPC   GL168305   1.984  32.994   5.601
 5332POPC   GL268306   1.640  32.960   5.770
 5332POPC   C1A68307   2.067  33.063   6.079
 5332POPC   D2A68308   2.109  33.225   6.530
 5332POPC   C3A68309   2.174  32.963   6.933
 5332POPC   C4A68310   2.208  32.865   7.404
 5332POPC   C1B68311   1.599  32.876   6.235
 5332POPC   C2B68312   1.686  32.980   6.694
 5332POPC   C3B68313   1.690  32.997   7.156
 5332POPC   C4B68314   1.552  33.081   7.576
 5333POPC   NC368315  11.583  20.227   5.013
 5333POPC   PO468316  11.147  20.650   5.328
 5333POPC   GL168317  11.398  20.671   5.748
 5333POPC   GL268318  11.633  20.370   5.847
 5333POPC   C1A68319  11.377  20.921   6.127
 5333POPC   D2A68320  11.121  20.937   6.496
 5333POPC   C3A68321  11.324  21.068   6.868
 5333POPC   C4A68322  11.489  20.860   7.234
 5333POPC   C1B68323  11.308  20.416   6.162
 5333POPC   C2B68324  11.378  20.512   6.565
 5333POPC   C3B68325  11.205  20.535   6.947
 5333POPC   C4B68326  11.462  20.338   7.246
 5334POPC   NC368327  40.370  22.312   5.469
 5334POPC   PO468328  41.053  22.136   5.460
 5334POPC   GL168329  40.803  22.335   5.750
 5334POPC   GL268330  40.636  22.029   5.823
 5334POPC   C1A68331  40.755  22.368   6.185
 5334POPC   D2A68332  40.922  22.187   6.553
 5334POPC   C3A68333  40.674  22.123   6.883
 5334POPC   C4A68334  40.644  22.484   7.117
 5334POPC   C1B68335  40.872  21.809   6.180
 5334POPC   C2B68336  41.048  21.690   6.612
 5334POPC   C3B68337  41.195  21.964   6.961
 5334POPC   C4B68338  40.953  22.117   7.327
 5335POPC   NC368339  41.164   3.018   5.151
 5335POPC   PO468340  41.240   2.522   5.446
 5335POPC   GL168341  41.504   2.585   5.835
 5335POPC   GL268342  41.749   2.853   5.826
 5335POPC   C1A68343  41.626   2.494   6.301
 5335POPC   D2A68344  41.689   2.517   6.795
 5335POPC   C3A68345  41.452   2.689   7.162
 5335POPC   C4A68346  41.554   2.971   7.520
 5335POPC   C1B68347  41.953   2.909   6.248
 5335POPC   C2B68348  41.931   2.957   6.704
 5335POPC   C3B68349  41.925   2.927   7.131
 5335POPC   C4B68350  41.961   3.255   7.435
 5336POPC   NC368351  15.085  44.409   5.103
 5336POPC   PO468352  15.395  44.888   5.302
 5336POPC   GL168353  15.329  44.513   5.583
 5336POPC   GL268354  15.293  44.760   5.809
 5336POPC   C1A68355  15.199  44.351   6.068
 5336POPC   D2A68356  15.048  44.598   6.439
 5336POPC   C3A68357  15.103  44.483   6.885
 5336POPC   C4A68358  15.255  44.202   7.189
 5336POPC   C1B68359  15.335  44.974   6.180
 5336POPC   C2B68360  15.235   0.074   6.598
 5336POPC   C3B68361  15.133  44.996   6.996
 5336POPC   C4B68362  15.196   0.171   7.404
 5337POPC   NC368363   8.867  34.800   5.648
 5337POPC   PO468364   9.307  34.530   5.181
 5337POPC   GL168365   9.308  34.506   5.719
 5337POPC   GL268366   9.292  34.783   5.984
 5337POPC   C1A68367   9.031  34.364   6.101
 5337POPC   D2A68368   8.827  34.178   6.449
 5337POPC   C3A68369   8.772  34.476   6.767
 5337POPC   C4A68370   8.879  34.493   7.203
 5337POPC   C1B68371   9.531  34.429   6.193
 5337POPC   C2B68372   9.369  34.139   6.488
 5337POPC   C3B68373   9.212  34.221   6.912
 5337POPC   C4B68374   9.383  34.228   7.321
 5338POPC   NC368375  15.341  43.539   5.544
 5338POPC   PO468376  15.353  44.080   5.267
 5338POPC   GL168377  15.389  44.020   5.740
 5338POPC   GL268378  15.592  43.823   5.923
 5338POPC   C1A68379  15.138  43.826   6.142
 5338POPC   D2A68380  15.003  43.622   6.563
 5338POPC   C3A68381  14.894  43.887   6.943
 5338POPC   C4A68382  14.949  43.785   7.350
 5338POPC   C1B68383  15.581  44.062   6.277
 5338POPC   C2B68384  15.255  44.081   6.594
 5338POPC   C3B68385  15.381  43.776   6.911
 5338POPC   C4B68386  15.770  43.899   7.026
 5339POPC   NC368387   5.112  19.351   5.472
 5339POPC   PO468388   4.891  18.775   5.456
 5339POPC   GL168389   5.103  18.958   5.835
 5339POPC   GL268390   5.309  19.290   5.912
 5339POPC   C1A68391   4.927  19.142   6.202
 5339POPC   D2A68392   4.905  19.395   6.559
 5339POPC   C3A68393   5.004  19.173   6.926
 5339POPC   C4A68394   4.897  18.890   7.263
 5339POPC   C1B68395   5.487  19.259   6.269
 5339POPC   C2B68396   5.315  18.996   6.544
 5339POPC   C3B68397   5.513  19.114   6.906
 5339POPC   C4B68398   5.360  19.040   7.287
 5340POPC   NC368399  38.097  35.253   5.125
 5340POPC   PO468400  37.508  35.320   5.536
 5340POPC   GL168401  37.660  35.413   5.930
 5340POPC   GL268402  37.929  35.657   6.005
 5340POPC   C1A68403  37.653  35.139   6.288
 5340POPC   D2A68404  37.767  34.877   6.641
 5340POPC   C3A68405  37.541  35.100   6.978
 5340POPC   C4A68406  37.453  35.047   7.400
 5340POPC   C1B68407  37.582  35.741   6.306
 5340POPC   C2B68408  37.420  35.606   6.691
 5340POPC   C3B68409  37.586  35.645   7.087
 5340POPC   C4B68410  37.719  35.462   7.480
 5341POPC   NC368411  22.366  27.370   5.419
 5341POPC   PO468412  22.068  28.022   5.366
 5341POPC   GL168413  22.159  27.783   5.716
 5341POPC   GL268414  21.799  27.711   5.751
 5341POPC   C1A68415  22.410  27.730   6.125
 5341POPC   D2A68416  22.569  27.728   6.571
 5341POPC   C3A68417  22.383  27.479   6.906
 5341POPC   C4A68418  22.200  27.597   7.274
 5341POPC   C1B68419  21.912  27.534   6.139
 5341POPC   C2B68420  22.032  27.612   6.558
 5341POPC   C3B68421  21.810  27.577   6.956
 5341POPC   C4B68422  21.616  27.699   7.351
 5342POPC   NC368423  31.921  29.244   5.372
 5342POPC   PO468424  32.492  28.888   5.470
 5342POPC   GL168425  32.246  29.024   5.817
 5342POPC   GL268426  32.284  29.377   5.803
 5342POPC   C1A68427  32.161  29.018   6.278
 5342POPC   D2A68428  32.254  29.145   6.707
 5342POPC   C3A68429  32.251  28.858   7.050
 5342POPC   C4A68430  32.551  28.855   7.346
 5342POPC   C1B68431  31.949  29.469   6.106
 5342POPC   C2B68432  31.800  29.342   6.523
 5342POPC   C3B68433  31.944  29.489   6.932
 5342POPC   C4B68434  32.281  29.339   7.221
 5343POPC   NC368435   1.267  40.444   5.291
 5343POPC   PO468436   1.417  39.805   5.349
 5343POPC   GL168437   1.367  40.081   5.673
 5343POPC   GL268438   1.137  39.927   5.882
 5343POPC   C1A68439   1.505  40.120   6.125
 5343POPC   D2A68440   1.362  39.878   6.481
 5343POPC   C3A68441   1.394  40.118   6.867
 5343POPC   C4A68442   1.261  39.908   7.237
 5343POPC   C1B68443   0.905  40.206   6.161
 5343POPC   C2B68444   0.969  40.209   6.570
 5343POPC   C3B68445   0.883  40.001   6.896
 5343POPC   C4B68446   0.784  40.198   7.257
 5344POPC   NC368447   7.970  38.853   5.476
 5344POPC   PO468448   8.329  39.383   5.285
 5344POPC   GL168449   8.194  39.345   5.719
 5344POPC   GL268450   8.343  39.029   5.791
 5344POPC   C1A68451   8.060  39.270   6.161
 5344POPC   D2A68452   8.215  39.421   6.562
 5344POPC   C3A68453   7.964  39.512   6.950
 5344POPC   C4A68454   8.018  39.432   7.410
 5344POPC   C1B68455   8.377  38.841   6.193
 5344POPC   C2B68456   8.135  38.899   6.581
 5344POPC   C3B68457   8.102  39.015   7.026
 5344POPC   C4B68458   8.297  38.954   7.451
 5345POPC   NC368459  20.019   8.333   5.119
 5345POPC   PO468460  19.423   8.144   5.336
 5345POPC   GL168461  19.804   8.226   5.638
 5345POPC   GL268462  19.636   8.423   5.912
 5345POPC   C1A68463  20.044   8.187   6.087
 5345POPC   D2A68464  20.113   8.154   6.597
 5345POPC   C3A68465  19.986   8.169   7.079
 5345POPC   C4A68466  19.806   8.386   7.470
 5345POPC   C1B68467  19.634   8.292   6.378
 5345POPC   C2B68468  19.550   8.184   6.824
 5345POPC   C3B68469  19.524   8.007   7.257
 5345POPC   C4B68470  19.196   8.006   7.562
 5346POPC   NC368471   3.232  19.124   5.358
 5346POPC   PO468472   3.894  18.774   5.376
 5346POPC   GL168473   3.700  19.013   5.724
 5346POPC   GL268474   3.371  18.860   5.772
 5346POPC   C1A68475   3.487  19.264   6.057
 5346POPC   D2A68476   3.515  19.441   6.481
 5346POPC   C3A68477   3.628  19.252   6.901
 5346POPC   C4A68478   3.391  19.192   7.280
 5346POPC   C1B68479   3.331  18.777   6.190
 5346POPC   C2B68480   3.571  18.906   6.518
 5346POPC   C3B68481   3.610  18.713   6.906
 5346POPC   C4B68482   3.656  18.752   7.323
 5347POPC   NC368483  40.968  11.223   5.616
 5347POPC   PO468484  41.633  11.286   5.457
 5347POPC   GL168485  41.477  11.164   5.787
 5347POPC   GL268486  41.770  10.957   5.869
 5347POPC   C1A68487  41.425  11.363   6.178
 5347POPC   D2A68488  41.698  11.562   6.489
 5347POPC   C3A68489  41.571  11.651   6.923
 5347POPC   C4A68490  41.633  11.298   7.207
 5347POPC   C1B68491  41.396  10.811   6.128
 5347POPC   C2B68492  41.288  10.823   6.568
 5347POPC   C3B68493  41.355  10.932   6.988
 5347POPC   C4B68494  41.250  10.766   7.374
 5348POPC   NC368495  27.236   1.847   5.289
 5348POPC   PO468496  26.593   1.826   5.318
 5348POPC   GL168497  26.596   2.027   5.739
 5348POPC   GL268498  26.730   2.352   5.687
 5348POPC   C1A68499  26.623   2.025   6.202
 5348POPC   D2A68500  26.889   1.899   6.550
 5348POPC   C3A68501  26.779   1.826   6.980
 5348POPC   C4A68502  27.097   1.599   7.244
 5348POPC   C1B68503  27.018   2.346   6.045
 5348POPC   C2B68504  27.100   2.378   6.491
 5348POPC   C3B68505  26.997   2.287   6.924
 5348POPC   C4B68506  26.592   2.340   7.180
 5349POPC   NC368507  21.110   0.179   5.338
 5349POPC   PO468508  21.644   0.626   5.401
 5349POPC   GL168509  21.415   0.496   5.759
 5349POPC   GL268510  21.090   0.667   5.820
 5349POPC   C1A68511  21.483   0.319   6.177
 5349POPC   D2A68512  21.350   0.421   6.595
 5349POPC   C3A68513  21.622   0.281   6.911
 5349POPC   C4A68514  21.569   0.446   7.296
 5349POPC   C1B68515  20.897   0.873   6.236
 5349POPC   C2B68516  20.922   0.706   6.694
 5349POPC   C3B68517  21.069   0.565   7.125
 5349POPC   C4B68518  20.967   0.550   7.583
 5350POPC   NC368519  14.480  19.433   5.286
 5350POPC   PO468520  14.136  18.893   5.544
 5350POPC   GL168521  14.351  19.057   5.868
 5350POPC   GL268522  14.648  19.171   5.731
 5350POPC   C1A68523  14.310  19.202   6.288
 5350POPC   D2A68524  14.364  19.017   6.658
 5350POPC   C3A68525  14.155  19.185   6.989
 5350POPC   C4A68526  14.387  19.059   7.329
 5350POPC   C1B68527  14.782  19.301   6.150
 5350POPC   C2B68528  14.704  19.458   6.562
 5350POPC   C3B68529  14.655  19.339   6.976
 5350POPC   C4B68530  14.808  19.341   7.374
 5351POPC   NC368531   5.459  34.410   5.625
 5351POPC   PO468532   4.748  34.660   5.621
 5351POPC   GL168533   5.062  34.528   5.935
 5351POPC   GL268534   5.232  34.835   5.987
 5351POPC   C1A68535   5.353  34.478   6.321
 5351POPC   D2A68536   5.341  34.745   6.702
 5351POPC   C3A68537   5.035  34.545   6.975
 5351POPC   C4A68538   4.817  34.200   7.212
 5351POPC   C1B68539   4.960  34.926   6.335
 5351POPC   C2B68540   5.005  35.192   6.696
 5351POPC   C3B68541   5.077  35.043   7.115
 5351POPC   C4B68542   4.849  34.776   7.395
 5352POPC   NC368543  27.380  36.025   5.077
 5352POPC   PO468544  27.704  35.760   5.632
 5352POPC   GL168545  27.693  36.134   5.902
 5352POPC   GL268546  27.801  36.470   5.857
 5352POPC   C1A68547  27.495  36.237   6.279
 5352POPC   D2A68548  27.299  36.039   6.622
 5352POPC   C3A68549  27.523  36.178   7.006
 5352POPC   C4A68550  27.907  36.012   7.234
 5352POPC   C1B68551  27.999  36.390   6.255
 5352POPC   C2B68552  27.897  36.294   6.629
 5352POPC   C3B68553  27.978  36.440   7.001
 5352POPC   C4B68554  28.348  36.407   7.201
 5353POPC   NC368555   3.236  43.277   5.375
 5353POPC   PO468556   3.814  43.261   5.477
 5353POPC   GL168557   3.679  43.260   5.878
 5353POPC   GL268558   3.411  43.073   5.833
 5353POPC   C1A68559   3.563  43.223   6.320
 5353POPC   D2A68560   3.612  43.137   6.753
 5353POPC   C3A68561   3.413  43.363   7.069
 5353POPC   C4A68562   3.570  43.234   7.465
 5353POPC   C1B68563   3.178  42.805   6.125
 5353POPC   C2B68564   3.125  42.640   6.531
 5353POPC   C3B68565   3.274  42.766   6.959
 5353POPC   C4B68566   3.123  43.002   7.295
 5354POPC   NC368567  23.251  18.355   5.618
 5354POPC   PO468568  22.892  18.020   5.062
 5354POPC   GL168569  22.856  17.958   5.630
 5354POPC   GL268570  22.928  18.211   5.980
 5354POPC   C1A68571  22.754  17.775   6.084
 5354POPC   D2A68572  22.855  18.050   6.483
 5354POPC   C3A68573  23.066  17.996   6.911
 5354POPC   C4A68574  23.276  18.159   7.299
 5354POPC   C1B68575  22.689  18.524   6.263
 5354POPC   C2B68576  22.569  18.715   6.656
 5354POPC   C3B68577  22.652  18.679   7.123
 5354POPC   C4B68578  22.612  18.643   7.598
 5355POPC   NC368579  25.395   2.377   5.397
 5355POPC   PO468580  25.018   1.741   5.271
 5355POPC   GL168581  25.099   2.005   5.656
 5355POPC   GL268582  24.964   1.812   5.952
 5355POPC   C1A68583  25.213   2.240   6.075
 5355POPC   D2A68584  25.323   1.972   6.462
 5355POPC   C3A68585  25.401   2.089   6.907
 5355POPC   C4A68586  25.292   2.240   7.311
 5355POPC   C1B68587  24.941   1.625   6.359
 5355POPC   C2B68588  24.910   1.798   6.785
 5355POPC   C3B68589  24.840   2.088   7.126
 5355POPC   C4B68590  24.932   1.991   7.571
 5356POPC   NC368591  42.526   2.097   5.363
 5356POPC   PO468592  41.904   1.855   5.469
 5356POPC   GL168593  42.086   1.964   5.836
 5356POPC   GL268594  41.881   2.248   5.837
 5356POPC   C1A68595  42.221   1.816   6.257
 5356POPC   D2A68596  42.231   2.020   6.644
 5356POPC   C3A68597  42.224   1.793   7.027
 5356POPC   C4A68598  42.369   2.064   7.302
 5356POPC   C1B68599  42.099   2.330   6.207
 5356POPC   C2B68600  42.173   2.527   6.575
 5356POPC   C3B68601  42.147   2.427   7.005
 5356POPC   C4B68602  41.883   2.472   7.350
 5357POPC   NC368603  19.587  44.839   5.450
 5357POPC   PO468604  20.206  44.546   5.448
 5357POPC   GL168605  19.909  44.529   5.768
 5357POPC   GL268606  19.528  44.545   5.870
 5357POPC   C1A68607  19.922  44.447   6.200
 5357POPC   D2A68608  20.021  44.787   6.483
 5357POPC   C3A68609  19.878  44.784   6.892
 5357POPC   C4A68610  20.014  44.418   7.112
 5357POPC   C1B68611  19.708  44.927   6.100
 5357POPC   C2B68612  19.635   0.137   6.510
 5357POPC   C3B68613  19.403   0.009   6.908
 5357POPC   C4B68614  19.517  44.690   7.268
 5358POPC   NC368615  27.173   0.868   5.482
 5358POPC   PO468616  26.426   0.840   5.340
 5358POPC   GL168617  26.646   0.638   5.710
 5358POPC   GL268618  26.774   0.270   5.782
 5358POPC   C1A68619  26.574   0.532   6.159
 5358POPC   D2A68620  26.591   0.262   6.545
 5358POPC   C3A68621  26.684   0.468   6.936
 5358POPC   C4A68622  26.591   0.726   7.310
 5358POPC   C1B68623  26.990   0.233   6.215
 5358POPC   C2B68624  27.119   0.521   6.543
 5358POPC   C3B68625  27.324   0.532   6.934
 5358POPC   C4B68626  27.111   0.379   7.256
 5359POPC   NC368627  40.418  18.225   5.526
 5359POPC   PO468628  40.987  18.033   5.787
 5359POPC   GL168629  40.644  18.165   5.988
 5359POPC   GL268630  40.708  18.487   5.843
 5359POPC   C1A68631  40.475  18.359   6.366
 5359POPC   D2A68632  40.431  18.515   6.778
 5359POPC   C3A68633  40.535  18.187   7.096
 5359POPC   C4A68634  40.573  18.049   7.540
 5359POPC   C1B68635  40.912  18.576   6.211
 5359POPC   C2B68636  40.947  18.714   6.621
 5359POPC   C3B68637  40.885  18.609   7.038
 5359POPC   C4B68638  40.851  18.449   7.451
 5360POPC   NC368639   1.688  28.368   5.524
 5360POPC   PO468640   0.947  28.324   5.540
 5360POPC   GL168641   0.986  28.501   5.910
 5360POPC   GL268642   1.351  28.482   5.892
 5360POPC   C1A68643   1.108  28.291   6.294
 5360POPC   D2A68644   1.257  28.096   6.639
 5360POPC   C3A68645   0.961  28.337   6.866
 5360POPC   C4A68646   1.094  28.707   7.103
 5360POPC   C1B68647   1.506  28.037   6.107
 5360POPC   C2B68648   1.724  27.862   6.499
 5360POPC   C3B68649   1.742  28.111   6.889
 5360POPC   C4B68650   1.381  28.228   7.141
 5361POPC   NC368651  35.633  31.224   5.530
 5361POPC   PO468652  35.229  31.839   5.486
 5361POPC   GL168653  35.502  31.652   5.775
 5361POPC   GL268654  35.240  31.396   5.826
 5361POPC   C1A68655  35.625  31.416   6.176
 5361POPC   D2A68656  35.329  31.340   6.530
 5361POPC   C3A68657  35.454  31.606   6.890
 5361POPC   C4A68658  35.541  31.427   7.317
 5361POPC   C1B68659  34.992  31.155   6.131
 5361POPC   C2B68660  34.853  31.024   6.539
 5361POPC   C3B68661  34.995  30.904   6.955
 5361POPC   C4B68662  35.096  31.123   7.354
 5362POPC   NC368663  19.620  26.501   5.413
 5362POPC   PO468664  20.022  25.975   5.374
 5362POPC   GL168665  19.843  26.159   5.750
 5362POPC   GL268666  19.988  26.459   5.810
 5362POPC   C1A68667  19.948  26.083   6.209
 5362POPC   D2A68668  19.717  26.105   6.611
 5362POPC   C3A68669  19.944  25.937   6.953
 5362POPC   C4A68670  20.214  25.960   7.283
 5362POPC   C1B68671  19.888  26.591   6.188
 5362POPC   C2B68672  20.072  26.463   6.586
 5362POPC   C3B68673  19.938  26.444   7.019
 5362POPC   C4B68674  20.132  26.452   7.439
 5363POPC   NC368675  25.224  13.193   5.405
 5363POPC   PO468676  25.679  13.645   5.185
 5363POPC   GL168677  25.498  13.671   5.659
 5363POPC   GL268678  25.443  13.382   5.871
 5363POPC   C1A68679  25.182  13.772   6.057
 5363POPC   D2A68680  25.254  13.907   6.530
 5363POPC   C3A68681  25.149  13.646   6.919
 5363POPC   C4A68682  25.100  13.650   7.358
 5363POPC   C1B68683  25.560  13.546   6.302
 5363POPC   C2B68684  25.613  13.576   6.733
 5363POPC   C3B68685  25.597  13.635   7.187
 5363POPC   C4B68686  25.494  13.459   7.618
 5364POPC   NC368687   3.865  41.835   5.672
 5364POPC   PO468688   4.454  41.907   5.281
 5364POPC   GL168689   4.397  41.727   5.719
 5364POPC   GL268690   4.300  41.994   5.899
 5364POPC   C1A68691   4.337  41.513   6.152
 5364POPC   D2A68692   4.053  41.288   6.478
 5364POPC   C3A68693   4.135  41.317   6.897
 5364POPC   C4A68694   4.529  41.434   7.116
 5364POPC   C1B68695   4.277  42.047   6.320
 5364POPC   C2B68696   4.254  41.740   6.616
 5364POPC   C3B68697   4.133  41.816   6.997
 5364POPC   C4B68698   4.450  42.045   7.102
 5365POPC   NC368699  21.092  42.819   5.541
 5365POPC   PO468700  21.688  43.272   5.532
 5365POPC   GL168701  21.459  43.065   5.854
 5365POPC   GL268702  21.485  42.699   5.827
 5365POPC   C1A68703  21.313  43.269   6.267
 5365POPC   D2A68704  21.132  43.476   6.637
 5365POPC   C3A68705  21.295  43.293   6.979
 5365POPC   C4A68706  21.292  43.232   7.410
 5365POPC   C1B68707  21.253  42.757   6.206
 5365POPC   C2B68708  21.162  42.938   6.622
 5365POPC   C3B68709  21.171  42.791   7.040
 5365POPC   C4B68710  21.398  42.669   7.394
 5366POPC   NC368711   5.473  30.622   5.558
 5366POPC   PO468712   6.004  31.007   5.408
 5366POPC   GL168713   5.769  30.978   5.770
 5366POPC   GL268714   5.922  30.640   5.797
 5366POPC   C1A68715   5.609  30.867   6.157
 5366POPC   D2A68716   5.605  30.979   6.544
 5366POPC   C3A68717   5.718  30.913   6.962
 5366POPC   C4A68718   5.461  30.716   7.218
 5366POPC   C1B68719   6.003  30.544   6.226
 5366POPC   C2B68720   5.908  30.556   6.658
 5366POPC   C3B68721   6.097  30.535   7.076
 5366POPC   C4B68722   6.349  30.236   7.360
 5367POPC   NC368723  36.142   2.671   5.171
 5367POPC   PO468724  36.319   2.223   5.561
 5367POPC   GL168725  36.157   2.354   5.961
 5367POPC   GL268726  35.883   2.576   5.881
 5367POPC   C1A68727  36.242   2.510   6.423
 5367POPC   D2A68728  36.231   2.491   6.916
 5367POPC   C3A68729  36.314   2.926   7.187
 5367POPC   C4A68730  35.987   3.235   7.410
 5367POPC   C1B68731  35.764   2.401   6.289
 5367POPC   C2B68732  35.732   2.559   6.692
 5367POPC   C3B68733  35.856   2.818   7.034
 5367POPC   C4B68734  36.025   2.582   7.414
 5368POPC   NC368735   6.500  27.870   5.449
 5368POPC   PO468736   6.777  27.298   5.286
 5368POPC   GL168737   6.660  27.409   5.767
 5368POPC   GL268738   6.314  27.535   5.819
 5368POPC   C1A68739   6.607  27.510   6.252
 5368POPC   D2A68740   6.644  27.690   6.702
 5368POPC   C3A68741   6.728  27.469   7.125
 5368POPC   C4A68742   6.827  27.524   7.592
 5368POPC   C1B68743   6.105  27.691   6.205
 5368POPC   C2B68744   6.126  27.795   6.665
 5368POPC   C3B68745   6.354  27.946   7.046
 5368POPC   C4B68746   6.400  27.770   7.439
 5369POPC   NC368747  21.446  24.147   5.276
 5369POPC   PO468748  21.300  24.707   5.635
 5369POPC   GL168749  21.497  24.463   5.926
 5369POPC   GL268750  21.691  24.207   5.753
 5369POPC   C1A68751  21.526  24.555   6.357
 5369POPC   D2A68752  21.230  24.568   6.689
 5369POPC   C3A68753  21.363  24.451   7.090
 5369POPC   C4A68754  21.577  24.644   7.395
 5369POPC   C1B68755  21.734  24.105   6.209
 5369POPC   C2B68756  21.638  24.170   6.685
 5369POPC   C3B68757  21.450  23.945   7.055
 5369POPC   C4B68758  21.087  24.040   7.316
 5370POPC   NC368759  35.287  40.332   5.498
 5370POPC   PO468760  35.259  41.029   5.599
 5370POPC   GL168761  35.622  40.929   5.900
 5370POPC   GL268762  35.827  40.645   5.782
 5370POPC   C1A68763  35.710  41.104   6.316
 5370POPC   D2A68764  35.484  41.150   6.710
 5370POPC   C3A68765  35.215  40.822   6.838
 5370POPC   C4A68766  35.133  40.802   7.239
 5370POPC   C1B68767  35.694  40.550   6.224
 5370POPC   C2B68768  35.691  40.671   6.672
 5370POPC   C3B68769  35.611  40.674   7.134
 5370POPC   C4B68770  35.514  40.636   7.572
 5371POPC   NC368771   6.064  27.257   5.480
 5371POPC   PO468772   6.049  27.911   5.484
 5371POPC   GL168773   5.769  27.612   5.779
 5371POPC   GL268774   5.840  27.255   5.920
 5371POPC   C1A68775   5.590  27.561   6.231
 5371POPC   D2A68776   5.442  27.481   6.663
 5371POPC   C3A68777   5.572  27.766   6.981
 5371POPC   C4A68778   5.903  27.889   7.285
 5371POPC   C1B68779   6.196  27.195   6.196
 5371POPC   C2B68780   6.309  27.295   6.619
 5371POPC   C3B68781   6.227  27.427   7.033
 5371POPC   C4B68782   5.855  27.334   7.233
 5372POPC   NC368783  11.988  17.690   5.508
 5372POPC   PO468784  12.282  17.097   5.444
 5372POPC   GL168785  12.300  17.331   5.859
 5372POPC   GL268786  12.213  17.723   5.959
 5372POPC   C1A68787  12.363  17.402   6.318
 5372POPC   D2A68788  12.090  17.597   6.644
 5372POPC   C3A68789  12.071  17.430   7.041
 5372POPC   C4A68790  12.269  17.085   7.149
 5372POPC   C1B68791  11.871  17.890   6.271
 5372POPC   C2B68792  11.677  17.938   6.710
 5372POPC   C3B68793  11.635  17.680   7.100
 5372POPC   C4B68794  11.765  17.452   7.504
 5373POPC   NC368795  35.476  23.096   5.520
 5373POPC   PO468796  35.390  22.536   5.148
 5373POPC   GL168797  35.231  22.691   5.674
 5373POPC   GL268798  35.539  22.804   5.941
 5373POPC   C1A68799  35.112  22.848   6.156
 5373POPC   D2A68800  35.451  22.944   6.523
 5373POPC   C3A68801  35.401  22.751   6.931
 5373POPC   C4A68802  35.057  22.772   7.208
 5373POPC   C1B68803  35.440  23.256   6.128
 5373POPC   C2B68804  35.573  23.466   6.486
 5373POPC   C3B68805  35.648  23.291   6.882
 5373POPC   C4B68806  35.316  23.206   7.161
 5374POPC   NC368807  11.808   5.725   5.250
 5374POPC   PO468808  12.362   6.130   5.457
 5374POPC   GL168809  11.965   6.089   5.712
 5374POPC   GL268810  11.882   5.744   5.773
 5374POPC   C1A68811  11.743   6.060   6.130
 5374POPC   D2A68812  11.586   5.769   6.472
 5374POPC   C3A68813  11.741   5.789   6.922
 5374POPC   C4A68814  11.674   6.004   7.314
 5374POPC   C1B68815  12.027   5.629   6.177
 5374POPC   C2B68816  12.122   5.822   6.555
 5374POPC   C3B68817  12.300   5.746   6.942
 5374POPC   C4B68818  12.185   5.913   7.323
 5375POPC   NC368819  35.977   6.359   5.453
 5375POPC   PO468820  36.298   6.916   5.509
 5375POPC   GL168821  36.075   6.719   5.837
 5375POPC   GL268822  36.285   6.423   5.862
 5375POPC   C1A68823  35.945   6.909   6.242
 5375POPC   D2A68824  35.736   6.739   6.579
 5375POPC   C3A68825  35.898   6.772   6.938
 5375POPC   C4A68826  35.871   6.522   7.269
 5375POPC   C1B68827  36.380   6.651   6.256
 5375POPC   C2B68828  36.317   6.836   6.672
 5375POPC   C3B68829  36.363   6.626   7.088
 5375POPC   C4B68830  36.472   6.340   7.422
 5376POPC   NC368831  17.328  29.357   5.437
 5376POPC   PO468832  17.801  28.818   5.497
 5376POPC   GL168833  17.660  29.121   5.772
 5376POPC   GL268834  17.300  29.003   5.791
 5376POPC   C1A68835  17.486  29.336   6.129
 5376POPC   D2A68836  17.389  29.156   6.530
 5376POPC   C3A68837  17.550  29.265   6.899
 5376POPC   C4A68838  17.633  29.042   7.261
 5376POPC   C1B68839  17.104  28.955   6.159
 5376POPC   C2B68840  17.174  28.705   6.507
 5376POPC   C3B68841  17.304  28.816   6.924
 5376POPC   C4B68842  17.064  29.071   7.203
 5377POPC   NC368843  23.151   7.649   5.549
 5377POPC   PO468844  22.681   7.126   5.500
 5377POPC   GL168845  22.968   7.243   5.767
 5377POPC   GL268846  23.328   7.171   5.657
 5377POPC   C1A68847  22.877   7.466   6.146
 5377POPC   D2A68848  22.824   7.251   6.501
 5377POPC   C3A68849  23.010   7.459   6.849
 5377POPC   C4A68850  22.946   7.410   7.300
 5377POPC   C1B68851  23.361   7.261   6.125
 5377POPC   C2B68852  23.444   7.163   6.582
 5377POPC   C3B68853  23.319   7.103   7.027
 5377POPC   C4B68854  23.279   7.058   7.501
 5378POPC   NC368855  11.553   9.993   5.604
 5378POPC   PO468856  11.128   9.527   5.282
 5378POPC   GL168857  11.199   9.619   5.742
 5378POPC   GL268858  10.975   9.892   5.806
 5378POPC   C1A68859  11.450   9.660   6.175
 5378POPC   D2A68860  11.638   9.553   6.597
 5378POPC   C3A68861  11.513   9.825   6.947
 5378POPC   C4A68862  11.253   9.619   7.244
 5378POPC   C1B68863  11.140  10.087   6.220
 5378POPC   C2B68864  11.217  10.155   6.657
 5378POPC   C3B68865  10.999   9.972   6.988
 5378POPC   C4B68866  10.735  10.006   7.321
 5379POPC   NC368867  41.436  42.476   5.465
 5379POPC   PO468868  41.935  42.008   5.427
 5379POPC   GL168869  41.836  42.280   5.768
 5379POPC   GL268870  41.522  42.148   5.862
 5379POPC   C1A68871  41.827  42.495   6.173
 5379POPC   D2A68872  41.904  42.254   6.540
 5379POPC   C3A68873  41.745  42.401   6.910
 5379POPC   C4A68874  41.700  42.729   7.188
 5379POPC   C1B68875  41.327  42.266   6.265
 5379POPC   C2B68876  41.286  42.475   6.681
 5379POPC   C3B68877  41.274  42.247   7.084
 5379POPC   C4B68878  41.218  42.012   7.468
 5380POPC   NC368879  37.118   9.512   5.344
 5380POPC   PO468880  37.088   8.853   5.146
 5380POPC   GL168881  37.121   8.753   5.623
 5380POPC   GL268882  36.759   8.789   5.739
 5380POPC   C1A68883  37.114   8.857   6.113
 5380POPC   D2A68884  37.126   9.140   6.518
 5380POPC   C3A68885  37.113   8.976   6.954
 5380POPC   C4A68886  36.948   9.186   7.294
 5380POPC   C1B68887  36.624   8.662   6.181
 5380POPC   C2B68888  36.745   8.814   6.602
 5380POPC   C3B68889  36.583   8.992   7.016
 5380POPC   C4B68890  36.517   8.938   7.491
 5381POPC   NC368891   4.828  31.354   5.339
 5381POPC   PO468892   5.432  31.661   5.290
 5381POPC   GL168893   5.257  31.474   5.660
 5381POPC   GL268894   4.950  31.656   5.724
 5381POPC   C1A68895   5.213  31.375   6.106
 5381POPC   D2A68896   5.300  31.433   6.554
 5381POPC   C3A68897   5.225  31.085   6.847
 5381POPC   C4A68898   5.184  31.177   7.237
 5381POPC   C1B68899   4.813  31.691   6.141
 5381POPC   C2B68900   4.844  31.750   6.578
 5381POPC   C3B68901   4.987  31.578   6.959
 5381POPC   C4B68902   4.850  31.559   7.371
 5382POPC   NC368903  42.480  22.695   5.059
 5382POPC   PO468904  42.279  23.298   5.351
 5382POPC   GL168905  42.276  23.201   5.850
 5382POPC   GL268906  41.933  23.230   5.854
 5382POPC   C1A68907  42.481  22.933   6.219
 5382POPC   D2A68908  42.628  22.962   6.690
 5382POPC   C3A68909  42.537  22.833   7.132
 5382POPC   C4A68910  42.252  23.045   7.436
 5382POPC   C1B68911  41.968  22.914   6.152
 5382POPC   C2B68912  42.108  23.022   6.539
 5382POPC   C3B68913  42.094  22.977   6.935
 5382POPC   C4B68914  41.821  23.163   7.186
 5383POPC   NC368915  21.226  39.630   5.432
 5383POPC   PO468916  21.512  40.145   5.410
 5383POPC   GL168917  21.436  40.160   5.808
 5383POPC   GL268918  21.664  40.423   5.833
 5383POPC   C1A68919  21.480  39.899   6.184
 5383POPC   D2A68920  21.447  39.772   6.636
 5383POPC   C3A68921  21.264  40.000   7.014
 5383POPC   C4A68922  21.221  40.076   7.480
 5383POPC   C1B68923  21.490  40.392   6.266
 5383POPC   C2B68924  21.510  40.370   6.713
 5383POPC   C3B68925  21.423  40.481   7.117
 5383POPC   C4B68926  20.995  40.463   7.198
 5384POPC   NC368927  14.644  25.654   5.586
 5384POPC   PO468928  14.135  25.238   5.280
 5384POPC   GL168929  14.316  25.286   5.728
 5384POPC   GL268930  14.677  25.168   5.753
 5384POPC   C1A68931  14.476  25.418   6.173
 5384POPC   D2A68932  14.360  25.544   6.593
 5384POPC   C3A68933  14.301  25.307   6.968
 5384POPC   C4A68934  14.445  25.390   7.395
 5384POPC   C1B68935  14.781  25.000   6.172
 5384POPC   C2B68936  14.731  25.178   6.591
 5384POPC   C3B68937  14.796  25.186   7.042
 5384POPC   C4B68938  14.822  25.038   7.474
 5385POPC   NC368939  31.082  22.009   5.467
 5385POPC   PO468940  31.697  22.341   5.412
 5385POPC   GL168941  31.532  22.047   5.724
 5385POPC   GL268942  31.809  21.941   5.935
 5385POPC   C1A68943  31.318  22.008   6.131
 5385POPC   D2A68944  31.350  22.256   6.529
 5385POPC   C3A68945  31.242  22.096   6.915
 5385POPC   C4A68946  31.466  22.018   7.308
 5385POPC   C1B68947  31.716  22.366   6.146
 5385POPC   C2B68948  31.798  22.552   6.563
 5385POPC   C3B68949  31.741  22.274   6.918
 5385POPC   C4B68950  31.912  22.287   7.335
 5386POPC   NC368951  16.495  28.666   5.652
 5386POPC   PO468952  17.094  28.234   5.446
 5386POPC   GL168953  16.801  28.250   5.745
 5386POPC   GL268954  17.002  28.515   5.907
 5386POPC   C1A68955  16.773  28.106   6.166
 5386POPC   D2A68956  16.962  28.253   6.549
 5386POPC   C3A68957  16.788  28.109   6.942
 5386POPC   C4A68958  16.920  28.127   7.344
 5386POPC   C1B68959  16.719  28.621   6.251
 5386POPC   C2B68960  16.554  28.578   6.638
 5386POPC   C3B68961  16.845  28.615   6.928
 5386POPC   C4B68962  16.708  28.645   7.273
 5387POPC   NC368963  23.398   6.278   5.368
 5387POPC   PO468964  23.734   5.679   5.248
 5387POPC   GL168965  23.802   5.901   5.696
 5387POPC   GL268966  23.505   5.748   5.862
 5387POPC   C1A68967  23.892   5.841   6.180
 5387POPC   D2A68968  23.699   5.753   6.607
 5387POPC   C3A68969  23.920   5.782   6.991
 5387POPC   C4A68970  23.839   6.014   7.365
 5387POPC   C1B68971  23.461   5.479   6.253
 5387POPC   C2B68972  23.215   5.517   6.656
 5387POPC   C3B68973  23.415   5.667   7.058
 5387POPC   C4B68974  23.487   5.670   7.519
 5388POPC   NC368975   3.177  14.665   5.538
 5388POPC   PO468976   2.595  14.440   5.490
 5388POPC   GL168977   2.781  14.344   5.871
 5388POPC   GL268978   3.023  14.080   5.812
 5388POPC   C1A68979   2.692  14.551   6.264
 5388POPC   D2A68980   2.716  14.456   6.670
 5388POPC   C3A68981   2.368  14.449   6.905
 5388POPC   C4A68982   2.460  14.475   7.287
 5388POPC   C1B68983   3.109  14.232   6.251
 5388POPC   C2B68984   3.238  14.326   6.659
 5388POPC   C3B68985   3.065  14.355   7.024
 5388POPC   C4B68986   2.903  14.693   7.209
 5389POPC   NC368987  33.943  39.230   5.556
 5389POPC   PO468988  33.464  38.790   5.636
 5389POPC   GL168989  33.656  39.092   5.941
 5389POPC   GL268990  33.599  39.474   5.819
 5389POPC   C1A68991  33.923  39.114   6.283
 5389POPC   D2A68992  33.919  38.938   6.687
 5389POPC   C3A68993  34.123  39.153   7.033
 5389POPC   C4A68994  34.164  38.981   7.466
 5389POPC   C1B68995  33.476  39.491   6.221
 5389POPC   C2B68996  33.572  39.322   6.634
 5389POPC   C3B68997  33.721  39.525   7.007
 5389POPC   C4B68998  33.754  39.302   7.376
 5390POPC   NC368999   2.922  23.491   5.151
 5390POPC   PO469000   2.397  23.897   5.341
 5390POPC   GL169001   2.637  23.893   5.737
 5390POPC   GL269002   2.937  24.105   5.697
 5390POPC   C1A69003   2.688  23.685   6.157
 5390POPC   D2A69004   2.625  23.845   6.583
 5390POPC   C3A69005   2.800  23.556   6.873
 5390POPC   C4A69006   2.982  23.264   7.150
 5390POPC   C1B69007   2.937  24.129   6.172
 5390POPC   C2B69008   3.116  23.930   6.532
 5390POPC   C3B69009   2.992  24.033   6.942
 5390POPC   C4B69010   3.018  23.805   7.298
 5391POPC   NC369011  38.433  21.016   5.581
 5391POPC   PO469012  38.819  20.570   5.221
 5391POPC   GL169013  38.736  20.566   5.695
 5391POPC   GL269014  38.364  20.532   5.796
 5391POPC   C1A69015  38.684  20.782   6.135
 5391POPC   D2A69016  38.416  20.840   6.504
 5391POPC   C3A69017  38.622  20.799   6.919
 5391POPC   C4A69018  38.569  20.544   7.284
 5391POPC   C1B69019  38.447  20.350   6.236
 5391POPC   C2B69020  38.377  20.355   6.686
 5391POPC   C3B69021  38.136  20.532   7.023
 5391POPC   C4B69022  38.136  20.346   7.435
 5392POPC   NC369023  22.460  39.515   5.089
 5392POPC   PO469024  21.913  39.103   5.228
 5392POPC   GL169025  22.035  39.176   5.679
 5392POPC   GL269026  22.153  39.523   5.841
 5392POPC   C1A69027  21.991  39.123   6.134
 5392POPC   D2A69028  22.144  39.335   6.500
 5392POPC   C3A69029  22.091  39.160   6.910
 5392POPC   C4A69030  22.033  39.240   7.333
 5392POPC   C1B69031  22.428  39.664   6.213
 5392POPC   C2B69032  22.521  39.622   6.668
 5392POPC   C3B69033  22.284  39.639   7.081
 5392POPC   C4B69034  22.495  39.737   7.503
 5393POPC   NC369035   0.220  17.040   5.491
 5393POPC   PO469036   0.352  16.365   5.505
 5393POPC   GL169037   0.556  16.710   5.818
 5393POPC   GL269038   0.391  16.962   5.968
 5393POPC   C1A69039   0.763  16.721   6.259
 5393POPC   D2A69040   0.826  16.446   6.652
 5393POPC   C3A69041   0.484  16.525   6.994
 5393POPC   C4A69042   0.483  16.899   7.296
 5393POPC   C1B69043   0.246  16.577   6.191
 5393POPC   C2B69044   0.229  16.691   6.587
 5393POPC   C3B69045   0.092  16.883   6.950
 5393POPC   C4B69046  44.838  16.654   7.220
 5394POPC   NC369047  33.687  12.105   5.004
 5394POPC   PO469048  33.760  12.255   5.620
 5394POPC   GL169049  33.836  12.089   5.979
 5394POPC   GL269050  33.686  12.398   6.102
 5394POPC   C1A69051  33.567  11.959   6.319
 5394POPC   D2A69052  33.549  12.151   6.711
 5394POPC   C3A69053  33.666  11.920   7.070
 5394POPC   C4A69054  33.513  12.245   7.344
 5394POPC   C1B69055  34.118  12.359   6.310
 5394POPC   C2B69056  34.195  12.214   6.699
 5394POPC   C3B69057  33.958  12.338   7.025
 5394POPC   C4B69058  34.005  12.282   7.445
 5395POPC   NC369059  24.178  35.213   5.545
 5395POPC   PO469060  24.658  35.746   5.654
 5395POPC   GL169061  24.559  35.449   5.949
 5395POPC   GL269062  24.278  35.209   6.029
 5395POPC   C1A69063  24.452  35.512   6.379
 5395POPC   D2A69064  24.096  35.528   6.636
 5395POPC   C3A69065  24.319  35.678   6.975
 5395POPC   C4A69066  24.618  35.489   7.219
 5395POPC   C1B69067  24.619  35.000   6.195
 5395POPC   C2B69068  24.780  34.969   6.584
 5395POPC   C3B69069  24.494  35.089   6.896
 5395POPC   C4B69070  24.589  34.880   7.252
 5396POPC   NC369071  36.693  20.039   5.444
 5396POPC   PO469072  37.390  20.137   5.317
 5396POPC   GL169073  37.114  20.037   5.728
 5396POPC   GL269074  37.035  19.711   5.959
 5396POPC   C1A69075  36.938  20.181   6.131
 5396POPC   D2A69076  36.820  19.940   6.500
 5396POPC   C3A69077  36.780  20.117   6.896
 5396POPC   C4A69078  36.671  19.935   7.270
 5396POPC   C1B69079  36.705  19.507   6.266
 5396POPC   C2B69080  36.672  19.481   6.707
 5396POPC   C3B69081  36.886  19.514   7.058
 5396POPC   C4B69082  36.547  19.416   7.288
 5397POPC   NC369083  20.922  27.774   5.337
 5397POPC   PO469084  20.307  27.452   5.371
 5397POPC   GL169085  20.470  27.709   5.689
 5397POPC   GL269086  20.795  27.556   5.788
 5397POPC   C1A69087  20.540  27.857   6.126
 5397POPC   D2A69088  20.513  27.645   6.539
 5397POPC   C3A69089  20.618  27.802   6.955
 5397POPC   C4A69090  20.374  27.833   7.324
 5397POPC   C1B69091  20.633  27.303   6.140
 5397POPC   C2B69092  20.717  27.184   6.592
 5397POPC   C3B69093  20.477  27.268   6.954
 5397POPC   C4B69094  20.643  27.407   7.298
 5398POPC   NC369095  43.388  31.270   5.581
 5398POPC   PO469096  43.936  31.710   5.509
 5398POPC   GL169097  43.961  31.554   5.905
 5398POPC   GL269098  43.615  31.581   5.924
 5398POPC   C1A69099  44.128  31.482   6.325
 5398POPC   D2A69100  44.072  31.208   6.688
 5398POPC   C3A69101  43.830  31.350   7.046
 5398POPC   C4A69102  43.869  31.292   7.498
 5398POPC   C1B69103  43.688  31.841   6.255
 5398POPC   C2B69104  43.744  31.671   6.636
 5398POPC   C3B69105  43.674  31.924   6.949
 5398POPC   C4B69106  43.476  31.845   7.314
 5399POPC   NC369107  21.869  20.444   5.385
 5399POPC   PO469108  22.378  20.863   5.504
 5399POPC   GL169109  22.119  20.772   5.851
 5399POPC   GL269110  22.030  20.417   5.881
 5399POPC   C1A69111  22.199  20.856   6.271
 5399POPC   D2A69112  22.126  20.591   6.587
 5399POPC   C3A69113  21.988  20.778   6.950
 5399POPC   C4A69114  22.087  20.592   7.339
 5399POPC   C1B69115  21.755  20.610   6.211
 5399POPC   C2B69116  21.610  20.567   6.644
 5399POPC   C3B69117  21.720  20.323   7.028
 5399POPC   C4B69118  21.797  20.208   7.468
 5400POPC   NC369119  27.500   3.685   5.273
 5400POPC   PO469120  27.430   3.113   5.517
 5400POPC   GL169121  27.582   3.244   5.887
 5400POPC   GL269122  27.614   3.588   5.798
 5400POPC   C1A69123  27.684   3.340   6.316
 5400POPC   D2A69124  27.498   3.292   6.719
 5400POPC   C3A69125  27.746   3.218   7.098
 5400POPC   C4A69126  27.648   3.066   7.543
 5400POPC   C1B69127  27.389   3.788   6.136
 5400POPC   C2B69128  27.567   3.823   6.560
 5400POPC   C3B69129  27.587   3.724   6.992
 5400POPC   C4B69130  27.718   3.810   7.410
 5401POPC   NC369131   8.117  37.275   5.230
 5401POPC   PO469132   7.870  36.670   5.319
 5401POPC   GL169133   8.092  36.878   5.692
 5401POPC   GL269134   8.499  36.900   5.692
 5401POPC   C1A69135   7.912  37.073   6.101
 5401POPC   D2A69136   7.789  36.912   6.518
 5401POPC   C3A69137   7.828  37.096   6.916
 5401POPC   C4A69138   7.874  36.857   7.274
 5401POPC   C1B69139   8.372  36.852   6.136
 5401POPC   C2B69140   8.270  37.111   6.522
 5401POPC   C3B69141   8.336  37.041   6.974
 5401POPC   C4B69142   8.389  36.730   7.253
 5402POPC   NC369143  28.046  21.036   5.398
 5402POPC   PO469144  28.259  21.655   5.197
 5402POPC   GL169145  28.385  21.519   5.634
 5402POPC   GL269146  28.576  21.215   5.536
 5402POPC   C1A69147  28.264  21.477   6.102
 5402POPC   D2A69148  27.957  21.562   6.439
 5402POPC   C3A69149  28.087  21.534   6.897
 5402POPC   C4A69150  28.146  21.619   7.340
 5402POPC   C1B69151  28.697  21.251   5.967
 5402POPC   C2B69152  28.643  21.342   6.412
 5402POPC   C3B69153  28.560  21.337   6.850
 5402POPC   C4B69154  28.467  21.221   7.298
 5403POPC   NC369155  15.960  26.193   5.460
 5403POPC   PO469156  16.501  25.835   5.353
 5403POPC   GL169157  16.370  25.897   5.771
 5403POPC   GL269158  16.027  25.820   5.824
 5403POPC   C1A69159  16.285  26.190   6.105
 5403POPC   D2A69160  16.112  26.281   6.503
 5403POPC   C3A69161  16.247  26.168   6.915
 5403POPC   C4A69162  15.899  26.250   7.197
 5403POPC   C1B69163  15.815  25.967   6.179
 5403POPC   C2B69164  15.669  25.904   6.604
 5403POPC   C3B69165  15.803  25.810   6.983
 5403POPC   C4B69166  15.663  25.788   7.379
 5404POPC   NC369167  43.298  22.938   5.489
 5404POPC   PO469168  42.541  22.915   5.546
 5404POPC   GL169169  42.882  22.948   5.898
 5404POPC   GL269170  43.219  23.121   5.938
 5404POPC   C1A69171  42.943  23.155   6.336
 5404POPC   D2A69172  43.173  23.051   6.713
 5404POPC   C3A69173  42.941  23.152   7.082
 5404POPC   C4A69174  42.740  23.212   7.524
 5404POPC   C1B69175  43.301  22.761   6.215
 5404POPC   C2B69176  43.435  22.594   6.634
 5404POPC   C3B69177  43.341  22.720   7.101
 5404POPC   C4B69178  43.443  22.742   7.634
 5405POPC   NC369179  17.287  12.591   5.534
 5405POPC   PO469180  17.781  12.920   5.419
 5405POPC   GL169181  17.613  12.871   5.806
 5405POPC   GL269182  17.773  12.538   5.805
 5405POPC   C1A69183  17.505  13.055   6.208
 5405POPC   D2A69184  17.273  13.197   6.558
 5405POPC   C3A69185  17.475  13.106   6.923
 5405POPC   C4A69186  17.273  12.886   7.229
 5405POPC   C1B69187  17.460  12.537   6.164
 5405POPC   C2B69188  17.189  12.512   6.508
 5405POPC   C3B69189  17.321  12.461   6.937
 5405POPC   C4B69190  17.469  12.295   7.332
 5406POPC   NC369191  25.923   5.977   5.452
 5406POPC   PO469192  26.638   5.775   5.480
 5406POPC   GL169193  26.260   5.724   5.766
 5406POPC   GL269194  26.129   6.027   5.916
 5406POPC   C1A69195  26.047   5.626   6.181
 5406POPC   D2A69196  26.017   5.882   6.561
 5406POPC   C3A69197  26.200   5.599   6.842
 5406POPC   C4A69198  26.161   5.489   7.247
 5406POPC   C1B69199  25.724   6.045   6.147
 5406POPC   C2B69200  25.653   6.271   6.529
 5406POPC   C3B69201  25.708   6.135   6.940
 5406POPC   C4B69202  26.125   6.022   7.126
 5407POPC   NC369203  37.069  11.119   5.124
 5407POPC   PO469204  36.471  11.327   5.254
 5407POPC   GL169205  36.721  11.222   5.674
 5407POPC   GL269206  36.976  10.975   5.753
 5407POPC   C1A69207  36.909  11.351   6.108
 5407POPC   D2A69208  36.746  11.531   6.498
 5407POPC   C3A69209  36.889  11.405   6.920
 5407POPC   C4A69210  36.968  11.325   7.326
 5407POPC   C1B69211  37.140  10.895   6.184
 5407POPC   C2B69212  37.139  11.099   6.604
 5407POPC   C3B69213  37.249  10.980   7.049
 5407POPC   C4B69214  37.121  10.885   7.490
 5408POPC   NC369215  31.151   0.144   5.443
 5408POPC   PO469216  30.709   0.554   5.657
 5408POPC   GL169217  30.817   0.187   5.889
 5408POPC   GL269218  30.492   0.036   5.845
 5408POPC   C1A69219  30.872   0.276   6.341
 5408POPC   D2A69220  30.831   0.538   6.734
 5408POPC   C3A69221  31.024   0.338   7.111
 5408POPC   C4A69222  31.079   0.503   7.556
 5408POPC   C1B69223  30.387   0.155   6.244
 5408POPC   C2B69224  30.542   0.098   6.688
 5408POPC   C3B69225  30.471   0.348   7.071
 5408POPC   C4B69226  30.629   0.304   7.484
 5409POPC   NC369227  10.517  10.446   5.169
 5409POPC   PO469228  11.118  10.462   5.117
 5409POPC   GL169229  10.788  10.557   5.571
 5409POPC   GL269230  10.416  10.523   5.678
 5409POPC   C1A69231  10.768  10.456   6.047
 5409POPC   D2A69232  10.529  10.394   6.424
 5409POPC   C3A69233  10.761  10.383   6.815
 5409POPC   C4A69234  10.543  10.511   7.155
 5409POPC   C1B69235  10.181  10.677   6.062
 5409POPC   C2B69236  10.090  10.807   6.508
 5409POPC   C3B69237  10.152  10.833   6.973
 5409POPC   C4B69238  10.275  10.908   7.435
 5410POPC   NC369239  35.676  14.619   5.388
 5410POPC   PO469240  35.139  14.231   5.501
 5410POPC   GL169241  35.145  14.270   5.931
 5410POPC   GL269242  35.449  14.487   5.866
 5410POPC   C1A69243  34.962  14.096   6.317
 5410POPC   D2A69244  35.170  14.291   6.608
 5410POPC   C3A69245  35.132  14.337   7.041
 5410POPC   C4A69246  35.502  14.259   7.236
 5410POPC   C1B69247  35.392  14.713   6.254
 5410POPC   C2B69248  35.520  14.637   6.669
 5410POPC   C3B69249  35.378  14.813   7.019
 5410POPC   C4B69250  35.287  14.669   7.444
 5411POPC   NC369251  42.072  22.885   5.509
 5411POPC   PO469252  41.405  23.192   5.464
 5411POPC   GL169253  41.491  22.950   5.849
 5411POPC   GL269254  41.464  23.248   6.056
 5411POPC   C1A69255  41.551  22.626   6.211
 5411POPC   D2A69256  41.845  22.559   6.577
 5411POPC   C3A69257  41.688  22.674   6.996
 5411POPC   C4A69258  41.410  22.888   7.305
 5411POPC   C1B69259  41.582  23.077   6.446
 5411POPC   C2B69260  41.403  23.102   6.837
 5411POPC   C3B69261  41.369  23.383   7.176
 5411POPC   C4B69262  41.398  23.325   7.606
 5412POPC   NC369263   3.176  15.631   5.514
 5412POPC   PO469264   2.743  16.107   5.341
 5412POPC   GL169265   2.783  16.252   5.763
 5412POPC   GL269266   3.124  16.177   5.731
 5412POPC   C1A69267   2.695  16.106   6.215
 5412POPC   D2A69268   2.905  15.903   6.592
 5412POPC   C3A69269   2.717  16.082   6.969
 5412POPC   C4A69270   2.490  16.080   7.344
 5412POPC   C1B69271   3.192  16.073   6.156
 5412POPC   C2B69272   3.259  16.298   6.521
 5412POPC   C3B69273   3.232  16.163   6.927
 5412POPC   C4B69274   3.103  15.773   7.113
 5413POPC   NC369275  39.131  42.532   5.399
 5413POPC   PO469276  39.520  41.938   5.339
 5413POPC   GL169277  39.467  42.244   5.696
 5413POPC   GL269278  39.119  42.133   5.845
 5413POPC   C1A69279  39.400  42.461   6.107
 5413POPC   D2A69280  39.349  42.125   6.409
 5413POPC   C3A69281  39.439  42.222   6.828
 5413POPC   C4A69282  39.408  42.566   7.108
 5413POPC   C1B69283  38.864  42.289   6.234
 5413POPC   C2B69284  38.813  42.557   6.622
 5413POPC   C3B69285  38.888  42.522   7.082
 5413POPC   C4B69286  38.781  42.201   7.373
 5414POPC   NC369287  24.171  41.108   5.577
 5414POPC   PO469288  24.742  41.041   5.260
 5414POPC   GL169289  24.633  40.885   5.674
 5414POPC   GL269290  24.759  41.167   5.837
 5414POPC   C1A69291  24.578  40.765   6.136
 5414POPC   D2A69292  24.719  40.719   6.602
 5414POPC   C3A69293  24.448  40.609   6.972
 5414POPC   C4A69294  24.424  40.695   7.421
 5414POPC   C1B69295  24.670  41.265   6.275
 5414POPC   C2B69296  24.480  41.180   6.647
 5414POPC   C3B69297  24.629  41.093   7.047
 5414POPC   C4B69298  24.724  41.135   7.479
 5415POPC   NC369299  29.462  21.761   5.399
 5415POPC   PO469300  29.012  22.304   5.450
 5415POPC   GL169301  29.205  22.169   5.818
 5415POPC   GL269302  29.188  21.841   5.828
 5415POPC   C1A69303  29.099  22.149   6.261
 5415POPC   D2A69304  29.295  22.139   6.686
 5415POPC   C3A69305  29.165  22.217   7.110
 5415POPC   C4A69306  28.897  22.520   7.278
 5415POPC   C1B69307  29.500  21.817   6.170
 5415POPC   C2B69308  29.453  21.672   6.612
 5415POPC   C3B69309  29.444  21.782   7.068
 5415POPC   C4B69310  29.078  21.784   7.383
 5416POPC   NC369311  29.482   6.893   5.407
 5416POPC   PO469312  29.106   7.442   5.358
 5416POPC   GL169313  29.022   7.456   5.814
 5416POPC   GL269314  29.180   7.741   5.975
 5416POPC   C1A69315  29.118   7.293   6.241
 5416POPC   D2A69316  29.488   7.310   6.523
 5416POPC   C3A69317  29.306   7.428   6.892
 5416POPC   C4A69318  29.034   7.133   7.158
 5416POPC   C1B69319  28.745   7.735   6.149
 5416POPC   C2B69320  28.553   7.726   6.554
 5416POPC   C3B69321  28.707   7.780   6.952
 5416POPC   C4B69322  29.007   7.655   7.218
 5417POPC   NC369323  42.784   3.871   5.513
 5417POPC   PO469324  42.872   3.213   5.593
 5417POPC   GL169325  42.966   3.532   5.875
 5417POPC   GL269326  43.291   3.665   5.742
 5417POPC   C1A69327  42.928   3.507   6.326
 5417POPC   D2A69328  43.312   3.370   6.518
 5417POPC   C3A69329  43.226   3.103   6.818
 5417POPC   C4A69330  43.268   3.228   7.202
 5417POPC   C1B69331  43.314   3.775   6.179
 5417POPC   C2B69332  43.227   3.852   6.643
 5417POPC   C3B69333  43.091   3.707   7.043
 5417POPC   C4B69334  43.319   3.664   7.445
 5418POPC   NC369335  14.275  17.768   5.502
 5418POPC   PO469336  14.508  17.178   5.459
 5418POPC   GL169337  14.414  17.408   5.817
 5418POPC   GL269338  14.077  17.353   5.770
 5418POPC   C1A69339  14.497  17.629   6.197
 5418POPC   D2A69340  14.472  17.470   6.608
 5418POPC   C3A69341  14.481  17.721   6.935
 5418POPC   C4A69342  14.245  17.705   7.284
 5418POPC   C1B69343  13.999  17.496   6.194
 5418POPC   C2B69344  13.985  17.311   6.602
 5418POPC   C3B69345  14.214  17.146   6.971
 5418POPC   C4B69346  14.114  17.196   7.419
 5419POPC   NC369347  22.405  34.943   5.680
 5419POPC   PO469348  22.336  35.585   5.484
 5419POPC   GL169349  22.343  35.431   5.862
 5419POPC   GL269350  22.045  35.233   5.927
 5419POPC   C1A69351  22.408  35.286   6.273
 5419POPC   D2A69352  22.153  35.027   6.506
 5419POPC   C3A69353  22.037  35.267   6.868
 5419POPC   C4A69354  22.282  35.480   7.166
 5419POPC   C1B69355  21.891  35.421   6.296
 5419POPC   C2B69356  21.699  35.635   6.604
 5419POPC   C3B69357  21.861  35.890   6.930
 5419POPC   C4B69358  21.932  35.798   7.343
 5420POPC   NC369359  24.121  35.944   5.573
 5420POPC   PO469360  24.738  36.111   5.221
 5420POPC   GL169361  24.484  36.273   5.662
 5420POPC   GL269362  24.407  36.004   5.987
 5420POPC   C1A69363  24.521  36.466   6.102
 5420POPC   D2A69364  24.527  36.217   6.511
 5420POPC   C3A69365  24.691  36.321   6.944
 5420POPC   C4A69366  24.492  36.081   7.291
 5420POPC   C1B69367  24.084  35.919   6.285
 5420POPC   C2B69368  24.046  36.052   6.711
 5420POPC   C3B69369  23.953  36.022   7.131
 5420POPC   C4B69370  24.136  35.760   7.447
 5421POPC   NC369371  31.588  41.170   5.442
 5421POPC   PO469372  31.124  40.727   5.285
 5421POPC   GL169373  31.398  40.758   5.738
 5421POPC   GL269374  31.743  40.945   5.874
 5421POPC   C1A69375  31.455  40.802   6.241
 5421POPC   D2A69376  31.448  41.007   6.659
 5421POPC   C3A69377  31.476  40.697   6.987
 5421POPC   C4A69378  31.081  40.624   7.232
 5421POPC   C1B69379  31.897  41.148   6.286
 5421POPC   C2B69380  31.901  41.235   6.744
 5421POPC   C3B69381  31.675  41.156   7.129
 5421POPC   C4B69382  31.462  40.902   7.449
 5422POPC   NC369383  18.480  39.741   5.352
 5422POPC   PO469384  18.106  40.325   5.242
 5422POPC   GL169385  18.227  40.203   5.717
 5422POPC   GL269386  18.377  39.853   5.834
 5422POPC   C1A69387  18.259  40.179   6.198
 5422POPC   D2A69388  18.400  39.990   6.644
 5422POPC   C3A69389  18.240  40.232   6.996
 5422POPC   C4A69390  18.352  40.272   7.444
 5422POPC   C1B69391  18.133  39.688   6.209
 5422POPC   C2B69392  17.918  39.862   6.602
 5422POPC   C3B69393  18.053  39.761   7.012
 5422POPC   C4B69394  18.368  39.582   7.239
 5423POPC   NC369395   6.797  40.913   5.471
 5423POPC   PO469396   7.440  40.800   5.536
 5423POPC   GL169397   7.200  40.757   5.884
 5423POPC   GL269398   7.082  41.095   5.900
 5423POPC   C1A69399   7.316  40.553   6.282
 5423POPC   D2A69400   7.186  40.557   6.710
 5423POPC   C3A69401   7.494  40.510   7.012
 5423POPC   C4A69402   7.586  40.547   7.417
 5423POPC   C1B69403   7.449  41.073   6.195
 5423POPC   C2B69404   7.455  41.159   6.599
 5423POPC   C3B69405   7.213  41.045   6.904
 5423POPC   C4B69406   7.468  41.001   7.200
 5424POPC   NC369407   9.256   1.431   5.501
 5424POPC   PO469408   9.875   1.495   5.218
 5424POPC   GL169409   9.736   1.258   5.662
 5424POPC   GL269410   9.522   0.971   5.603
 5424POPC   C1A69411   9.885   1.309   6.121
 5424POPC   D2A69412   9.786   1.525   6.522
 5424POPC   C3A69413   9.717   1.308   6.926
 5424POPC   C4A69414   9.808   0.927   7.195
 5424POPC   C1B69415   9.572   0.915   6.055
 5424POPC   C2B69416   9.527   1.044   6.510
 5424POPC   C3B69417   9.389   0.853   6.903
 5424POPC   C4B69418   9.339   0.772   7.338
 5425POPC   NC369419  29.532  21.052   5.293
 5425POPC   PO469420  29.060  21.531   5.368
 5425POPC   GL169421  29.180  21.345   5.749
 5425POPC   GL269422  29.455  21.140   5.791
 5425POPC   C1A69423  29.124  21.441   6.185
 5425POPC   D2A69424  29.128  21.252   6.589
 5425POPC   C3A69425  29.042  21.458   6.964
 5425POPC   C4A69426  28.970  21.264   7.355
 5425POPC   C1B69427  29.597  21.276   6.202
 5425POPC   C2B69428  29.664  21.226   6.621
 5425POPC   C3B69429  29.515  21.266   7.031
 5425POPC   C4B69430  29.447  21.061   7.404
 5426POPC   NC369431   6.045  21.190   5.467
 5426POPC   PO469432   5.670  21.699   5.325
 5426POPC   GL169433   5.710  21.509   5.742
 5426POPC   GL269434   5.572  21.192   5.666
 5426POPC   C1A69435   5.966  21.376   6.126
 5426POPC   D2A69436   6.060  21.581   6.522
 5426POPC   C3A69437   5.934  21.433   6.912
 5426POPC   C4A69438   6.191  21.152   7.132
 5426POPC   C1B69439   5.539  21.109   6.073
 5426POPC   C2B69440   5.640  21.144   6.509
 5426POPC   C3B69441   5.656  20.982   6.922
 5426POPC   C4B69442   5.703  21.158   7.291
 5427POPC   NC369443  11.114  42.547   5.338
 5427POPC   PO469444  11.080  41.985   5.681
 5427POPC   GL169445  11.228  42.403   5.872
 5427POPC   GL269446  11.610  42.466   5.934
 5427POPC   C1A69447  11.243  42.387   6.332
 5427POPC   D2A69448  11.378  42.075   6.617
 5427POPC   C3A69449  11.231  42.115   7.033
 5427POPC   C4A69450  11.174  42.558   7.153
 5427POPC   C1B69451  11.613  42.720   6.338
 5427POPC   C2B69452  11.536  42.588   6.782
 5427POPC   C3B69453  11.672  42.633   7.229
 5427POPC   C4B69454  11.590  42.668   7.710
 5428POPC   NC369455  25.732   2.922   5.191
 5428POPC   PO469456  25.028   2.720   5.313
 5428POPC   GL169457  25.247   2.815   5.727
 5428POPC   GL269458  25.548   2.620   5.829
 5428POPC   C1A69459  25.125   3.038   6.143
 5428POPC   D2A69460  25.046   3.265   6.545
 5428POPC   C3A69461  25.079   3.027   6.925
 5428POPC   C4A69462  25.265   2.637   7.018
 5428POPC   C1B69463  25.597   2.902   6.203
 5428POPC   C2B69464  25.397   2.854   6.553
 5428POPC   C3B69465  25.652   2.917   6.856
 5428POPC   C4B69466  25.617   3.062   7.227
 5429POPC   NC369467  22.242  10.192   5.389
 5429POPC   PO469468  21.841  10.816   5.373
 5429POPC   GL169469  22.009  10.593   5.699
 5429POPC   GL269470  21.811  10.317   5.637
 5429POPC   C1A69471  22.045  10.661   6.155
 5429POPC   D2A69472  22.082  10.828   6.562
 5429POPC   C3A69473  22.234  10.585   6.893
 5429POPC   C4A69474  22.004  10.566   7.261
 5429POPC   C1B69475  21.886  10.153   6.055
 5429POPC   C2B69476  22.003  10.258   6.494
 5429POPC   C3B69477  21.805  10.254   6.888
 5429POPC   C4B69478  21.911  10.059   7.272
 5430POPC   NC369479  11.994  33.556   5.448
 5430POPC   PO469480  12.101  34.134   5.486
 5430POPC   GL169481  11.887  33.934   5.830
 5430POPC   GL269482  12.148  33.714   5.916
 5430POPC   C1A69483  11.747  33.759   6.238
 5430POPC   D2A69484  11.765  33.548   6.647
 5430POPC   C3A69485  11.867  33.693   7.072
 5430POPC   C4A69486  12.015  33.498   7.492
 5430POPC   C1B69487  12.250  33.830   6.335
 5430POPC   C2B69488  12.275  33.657   6.737
 5430POPC   C3B69489  12.373  33.694   7.182
 5430POPC   C4B69490  12.598  33.953   7.490
 5431POPC   NC369491  10.430  24.697   5.588
 5431POPC   PO469492  10.656  24.182   5.219
 5431POPC   GL169493  10.579  24.153   5.748
 5431POPC   GL269494  10.193  24.106   5.966
 5431POPC   C1A69495  10.575  24.356   6.186
 5431POPC   D2A69496  10.322  24.218   6.556
 5431POPC   C3A69497  10.524  24.267   6.958
 5431POPC   C4A69498  10.637  24.677   7.194
 5431POPC   C1B69499  10.105  24.523   6.161
 5431POPC   C2B69500  10.180  24.730   6.522
 5431POPC   C3B69501  10.121  24.604   6.919
 5431POPC   C4B69502  10.198  24.447   7.316
 5432POPC   NC369503  34.993  38.876   5.504
 5432POPC   PO469504  34.395  39.155   5.616
 5432POPC   GL169505  34.744  39.266   5.867
 5432POPC   GL269506  34.752  38.951   6.000
 5432POPC   C1A69507  34.553  39.387   6.278
 5432POPC   D2A69508  34.398  39.111   6.574
 5432POPC   C3A69509  34.660  39.089   6.921
 5432POPC   C4A69510  34.560  39.248   7.321
 5432POPC   C1B69511  35.024  39.200   6.290
 5432POPC   C2B69512  34.977  39.443   6.672
 5432POPC   C3B69513  35.086  39.341   7.096
 5432POPC   C4B69514  35.018  39.255   7.510
 5433POPC   NC369515  13.879  20.197   5.520
 5433POPC   PO469516  13.473  19.660   5.418
 5433POPC   GL169517  13.662  19.819   5.781
 5433POPC   GL269518  13.793  19.499   5.762
 5433POPC   C1A69519  13.691  19.973   6.215
 5433POPC   D2A69520  13.709  19.870   6.650
 5433POPC   C3A69521  13.667  20.113   7.030
 5433POPC   C4A69522  13.613  19.943   7.453
 5433POPC   C1B69523  13.495  19.487   6.124
 5433POPC   C2B69524  13.642  19.372   6.526
 5433POPC   C3B69525  13.497  19.464   6.943
 5433POPC   C4B69526  13.740  19.344   7.285
 5434POPC   NC369527  39.598  37.292   5.617
 5434POPC   PO469528  38.868  37.275   5.473
 5434POPC   GL169529  39.050  37.559   5.808
 5434POPC   GL269530  39.390  37.711   5.797
 5434POPC   C1A69531  39.076  37.713   6.217
 5434POPC   D2A69532  38.892  37.557   6.564
 5434POPC   C3A69533  38.985  37.856   6.863
 5434POPC   C4A69534  39.117  37.847   7.248
 5434POPC   C1B69535  39.600  37.630   6.227
 5434POPC   C2B69536  39.439  37.717   6.651
 5434POPC   C3B69537  39.609  37.808   7.092
 5434POPC   C4B69538  39.571  37.764   7.562
 5435POPC   NC369539  22.655  41.025   5.344
 5435POPC   PO469540  23.064  40.516   5.246
 5435POPC   GL169541  22.977  40.727   5.645
 5435POPC   GL269542  22.626  40.793   5.801
 5435POPC   C1A69543  23.020  40.608   6.078
 5435POPC   D2A69544  22.770  40.642   6.459
 5435POPC   C3A69545  23.004  40.789   6.814
 5435POPC   C4A69546  22.850  40.629   7.201
 5435POPC   C1B69547  22.710  41.057   6.149
 5435POPC   C2B69548  22.631  41.227   6.553
 5435POPC   C3B69549  22.563  41.004   6.935
 5435POPC   C4B69550  22.879  41.123   7.220
 5436POPC   NC369551  18.245  43.656   5.546
 5436POPC   PO469552  18.519  44.228   5.331
 5436POPC   GL169553  18.370  44.150   5.767
 5436POPC   GL269554  18.106  43.935   5.962
 5436POPC   C1A69555  18.525  44.071   6.190
 5436POPC   D2A69556  18.205  43.972   6.495
 5436POPC   C3A69557  18.438  44.087   6.846
 5436POPC   C4A69558  18.533  43.963   7.246
 5436POPC   C1B69559  17.960  43.575   6.215
 5436POPC   C2B69560  17.914  43.577   6.655
 5436POPC   C3B69561  18.035  43.825   6.999
 5436POPC   C4B69562  17.869  43.526   7.248
 5437POPC   NC369563  23.633  15.759   5.395
 5437POPC   PO469564  23.819  16.437   5.303
 5437POPC   GL169565  23.743  16.188   5.686
 5437POPC   GL269566  23.738  16.466   5.855
 5437POPC   C1A69567  23.558  16.079   6.133
 5437POPC   D2A69568  23.639  16.217   6.588
 5437POPC   C3A69569  23.532  15.972   6.934
 5437POPC   C4A69570  23.672  15.844   7.304
 5437POPC   C1B69571  23.926  16.471   6.266
 5437POPC   C2B69572  24.126  16.322   6.648
 5437POPC   C3B69573  23.964  16.238   7.081
 5437POPC   C4B69574  24.163  15.888   7.312
 5438POPC   NC369575  40.666  24.541   5.298
 5438POPC   PO469576  40.026  24.480   5.361
 5438POPC   GL169577  40.015  24.316   5.792
 5438POPC   GL269578  40.372  24.372   5.816
 5438POPC   C1A69579  39.791  24.334   6.217
 5438POPC   D2A69580  39.794  24.110   6.611
 5438POPC   C3A69581  40.122  24.226   6.881
 5438POPC   C4A69582  39.974  24.293   7.281
 5438POPC   C1B69583  40.185  24.664   6.135
 5438POPC   C2B69584  40.025  24.684   6.585
 5438POPC   C3B69585  40.050  24.749   7.038
 5438POPC   C4B69586  40.071  24.749   7.505
 5439POPC   NC369587  42.877   4.802   5.536
 5439POPC   PO469588  43.245   4.136   5.502
 5439POPC   GL169589  43.094   4.144   5.894
 5439POPC   GL269590  43.139   4.503   5.908
 5439POPC   C1A69591  43.073   4.207   6.331
 5439POPC   D2A69592  42.979   4.445   6.667
 5439POPC   C3A69593  42.992   4.224   7.054
 5439POPC   C4A69594  42.998   4.390   7.459
 5439POPC   C1B69595  43.395   4.619   6.276
 5439POPC   C2B69596  43.336   4.801   6.712
 5439POPC   C3B69597  43.318   4.622   7.142
 5439POPC   C4B69598  43.441   4.749   7.594
 5440POPC   NC369599  23.612  35.938   5.153
 5440POPC   PO469600  23.907  36.397   5.546
 5440POPC   GL169601  23.756  36.159   5.907
 5440POPC   GL269602  23.612  35.864   5.714
 5440POPC   C1A69603  23.683  36.246   6.388
 5440POPC   D2A69604  23.607  36.284   6.844
 5440POPC   C3A69605  23.923  36.554   7.103
 5440POPC   C4A69606  24.359  36.579   7.250
 5440POPC   C1B69607  23.456  35.842   6.168
 5440POPC   C2B69608  23.597  35.760   6.616
 5440POPC   C3B69609  23.458  35.854   7.047
 5440POPC   C4B69610  23.623  35.826   7.505
 5441POPC   NC369611   3.767  14.082   5.103
 5441POPC   PO469612   3.593  14.669   5.341
 5441POPC   GL169613   3.447  14.424   5.853
 5441POPC   GL269614   3.504  14.118   5.971
 5441POPC   C1A69615   3.585  14.464   6.325
 5441POPC   D2A69616   3.815  14.288   6.707
 5441POPC   C3A69617   3.814  14.582   7.067
 5441POPC   C4A69618   3.400  14.760   7.220
 5441POPC   C1B69619   3.546  13.925   6.356
 5441POPC   C2B69620   3.467  13.899   6.782
 5441POPC   C3B69621   3.506  14.157   7.144
 5441POPC   C4B69622   3.468  13.998   7.572
 5442POPC   NC369623   0.400  36.945   4.858
 5442POPC   PO469624   0.927  36.726   5.267
 5442POPC   GL169625   0.709  36.804   5.732
 5442POPC   GL269626   0.353  36.717   5.913
 5442POPC   C1A69627   0.638  37.035   6.164
 5442POPC   D2A69628   0.763  37.154   6.599
 5442POPC   C3A69629   0.513  37.130   6.957
 5442POPC   C4A69630   0.570  36.806   7.228
 5442POPC   C1B69631   0.269  36.722   6.346
 5442POPC   C2B69632   0.316  36.683   6.775
 5442POPC   C3B69633   0.073  36.840   7.133
 5442POPC   C4B69634   0.205  37.020   7.506
 5443POPC   NC369635  32.030  22.739   5.484
 5443POPC   PO469636  32.565  23.147   5.406
 5443POPC   GL169637  32.350  23.021   5.786
 5443POPC   GL269638  32.469  22.668   5.822
 5443POPC   C1A69639  32.097  22.852   6.140
 5443POPC   D2A69640  32.294  22.790   6.518
 5443POPC   C3A69641  32.173  22.902   6.922
 5443POPC   C4A69642  32.019  23.200   7.263
 5443POPC   C1B69643  32.683  22.625   6.229
 5443POPC   C2B69644  32.650  22.484   6.690
 5443POPC   C3B69645  32.572  22.609   7.148
 5443POPC   C4B69646  32.212  22.734   7.407
 5444POPC   NC369647  25.600  27.897   5.260
 5444POPC   PO469648  25.042  27.527   5.213
 5444POPC   GL169649  25.181  27.665   5.623
 5444POPC   GL269650  25.071  27.370   5.803
 5444POPC   C1A69651  25.353  27.771   6.060
 5444POPC   D2A69652  25.425  27.701   6.521
 5444POPC   C3A69653  25.138  27.880   6.806
 5444POPC   C4A69654  25.242  27.891   7.222
 5444POPC   C1B69655  25.391  27.259   6.143
 5444POPC   C2B69656  25.299  27.183   6.586
 5444POPC   C3B69657  25.282  27.409   6.979
 5444POPC   C4B69658  25.062  27.417   7.359
 5445POPC   NC369659  37.330  16.943   5.396
 5445POPC   PO469660  37.445  16.255   5.303
 5445POPC   GL169661  37.643  16.539   5.620
 5445POPC   GL269662  37.922  16.369   5.804
 5445POPC   C1A69663  37.593  16.758   6.030
 5445POPC   D2A69664  37.398  16.771   6.446
 5445POPC   C3A69665  37.600  16.812   6.838
 5445POPC   C4A69666  37.455  16.990   7.221
 5445POPC   C1B69667  38.102  16.667   6.108
 5445POPC   C2B69668  38.211  16.827   6.537
 5445POPC   C3B69669  38.081  16.566   6.903
 5445POPC   C4B69670  37.767  16.477   7.203
 5446POPC   NC369671  39.665  30.118   5.531
 5446POPC   PO469672  39.089  29.795   5.453
 5446POPC   GL169673  39.190  30.017   5.824
 5446POPC   GL269674  39.509  29.884   5.936
 5446POPC   C1A69675  39.008  30.002   6.241
 5446POPC   D2A69676  39.185  29.864   6.636
 5446POPC   C3A69677  38.977  29.962   7.008
 5446POPC   C4A69678  39.065  30.059   7.449
 5446POPC   C1B69679  39.680  29.856   6.339
 5446POPC   C2B69680  39.668  29.701   6.770
 5446POPC   C3B69681  39.510  29.987   7.070
 5446POPC   C4B69682  39.586  30.006   7.495
 5447POPC   NC369683  33.131  11.268   5.307
 5447POPC   PO469684  32.603  11.674   5.249
 5447POPC   GL169685  32.727  11.511   5.676
 5447POPC   GL269686  33.103  11.439   5.803
 5447POPC   C1A69687  32.721  11.436   6.124
 5447POPC   D2A69688  33.023  11.308   6.450
 5447POPC   C3A69689  32.962  11.321   6.887
 5447POPC   C4A69690  32.954  11.515   7.274
 5447POPC   C1B69691  33.423  11.480   6.192
 5447POPC   C2B69692  33.554  11.369   6.652
 5447POPC   C3B69693  33.433  11.380   7.136
 5447POPC   C4B69694  33.278  11.100   7.532
 5448POPC   NC369695  34.840   1.012   5.483
 5448POPC   PO469696  34.297   1.404   5.505
 5448POPC   GL169697  34.653   1.415   5.792
 5448POPC   GL269698  34.636   1.074   5.948
 5448POPC   C1A69699  34.757   1.472   6.240
 5448POPC   D2A69700  34.752   1.227   6.630
 5448POPC   C3A69701  34.723   1.520   6.954
 5448POPC   C4A69702  34.351   1.542   7.159
 5448POPC   C1B69703  34.818   0.774   6.256
 5448POPC   C2B69704  34.650   0.718   6.707
 5448POPC   C3B69705  34.596   1.014   7.107
 5448POPC   C4B69706  34.759   0.900   7.557
 5449POPC   NC369707  33.071  34.001   5.370
 5449POPC   PO469708  32.654  34.516   5.355
 5449POPC   GL169709  32.851  34.506   5.745
 5449POPC   GL269710  32.700  34.196   5.847
 5449POPC   C1A69711  33.160  34.581   6.067
 5449POPC   D2A69712  33.263  34.409   6.464
 5449POPC   C3A69713  33.230  34.543   6.885
 5449POPC   C4A69714  32.917  34.789   7.135
 5449POPC   C1B69715  32.741  34.370   6.284
 5449POPC   C2B69716  32.752  34.459   6.752
 5449POPC   C3B69717  32.791  34.162   7.101
 5449POPC   C4B69718  32.888  34.144   7.563
 5450POPC   NC369719  35.133  27.110   5.201
 5450POPC   PO469720  35.558  26.721   5.536
 5450POPC   GL169721  35.114  26.758   5.601
 5450POPC   GL269722  35.078  27.115   5.740
 5450POPC   C1A69723  35.096  26.680   6.029
 5450POPC   D2A69724  35.438  26.634   6.314
 5450POPC   C3A69725  35.397  26.590   6.763
 5450POPC   C4A69726  35.377  26.672   7.184
 5450POPC   C1B69727  35.249  27.151   6.182
 5450POPC   C2B69728  35.407  27.081   6.599
 5450POPC   C3B69729  35.299  27.167   7.019
 5450POPC   C4B69730  35.532  27.458   7.228
 5451POPC   NC369731  14.184  29.386   5.421
 5451POPC   PO469732  14.229  28.753   5.435
 5451POPC   GL169733  14.506  28.843   5.784
 5451POPC   GL269734  14.512  29.220   5.814
 5451POPC   C1A69735  14.602  28.734   6.219
 5451POPC   D2A69736  14.605  29.034   6.574
 5451POPC   C3A69737  14.457  28.935   6.994
 5451POPC   C4A69738  14.460  29.067   7.424
 5451POPC   C1B69739  14.534  29.471   6.205
 5451POPC   C2B69740  14.741  29.531   6.607
 5451POPC   C3B69741  14.596  29.447   7.028
 5451POPC   C4B69742  14.374  29.556   7.393
 5452POPC   NC369743  40.716   7.511   5.349
 5452POPC   PO469744  40.989   6.982   5.584
 5452POPC   GL169745  40.811   7.340   5.881
 5452POPC   GL269746  40.787   7.708   5.838
 5452POPC   C1A69747  40.944   7.481   6.313
 5452POPC   D2A69748  40.738   7.436   6.734
 5452POPC   C3A69749  40.910   7.215   7.089
 5452POPC   C4A69750  40.737   7.428   7.417
 5452POPC   C1B69751  40.490   7.693   6.175
 5452POPC   C2B69752  40.297   7.669   6.576
 5452POPC   C3B69753  40.338   7.769   7.025
 5452POPC   C4B69754  40.269   8.216   7.201
 5453POPC   NC369755  26.184  43.850   5.588
 5453POPC   PO469756  25.750  44.313   5.642
 5453POPC   GL169757  25.980  44.130   5.959
 5453POPC   GL269758  25.933  43.736   6.009
 5453POPC   C1A69759  26.099  44.131   6.364
 5453POPC   D2A69760  25.832  43.859   6.540
 5453POPC   C3A69761  25.923  43.873   6.946
 5453POPC   C4A69762  26.053  44.219   7.231
 5453POPC   C1B69763  26.241  43.599   6.286
 5453POPC   C2B69764  26.393  43.734   6.667
 5453POPC   C3B69765  26.433  43.900   7.074
 5453POPC   C4B69766  26.121  43.746   7.381
 5454POPC   NC369767  12.240  41.852   5.517
 5454POPC   PO469768  11.731  41.424   5.303
 5454POPC   GL169769  11.987  41.409   5.699
 5454POPC   GL269770  12.345  41.305   5.782
 5454POPC   C1A69771  12.052  41.563   6.133
 5454POPC   D2A69772  12.339  41.578   6.464
 5454POPC   C3A69773  12.178  41.558   6.863
 5454POPC   C4A69774  11.839  41.539   7.109
 5454POPC   C1B69775  12.282  41.068   6.206
 5454POPC   C2B69776  12.165  41.084   6.663
 5454POPC   C3B69777  12.154  41.118   7.108
 5454POPC   C4B69778  12.287  41.445   7.417
 5455POPC   NC369779  26.233  31.203   5.450
 5455POPC   PO469780  25.968  31.736   5.168
 5455POPC   GL169781  26.025  31.638   5.646
 5455POPC   GL269782  25.908  31.314   5.840
 5455POPC   C1A69783  26.202  31.636   6.087
 5455POPC   D2A69784  26.026  31.549   6.496
 5455POPC   C3A69785  25.870  31.486   6.936
 5455POPC   C4A69786  26.055  31.409   7.322
 5455POPC   C1B69787  26.199  31.148   6.205
 5455POPC   C2B69788  26.382  31.196   6.640
 5455POPC   C3B69789  26.442  30.969   7.010
 5455POPC   C4B69790  26.345  30.977   7.453
 5456POPC   NC369791  35.362  16.314   5.418
 5456POPC   PO469792  35.494  15.736   5.618
 5456POPC   GL169793  35.472  16.065   5.882
 5456POPC   GL269794  35.164  16.252   5.867
 5456POPC   C1A69795  35.330  15.887   6.264
 5456POPC   D2A69796  35.138  15.603   6.542
 5456POPC   C3A69797  35.275  15.800   6.922
 5456POPC   C4A69798  35.463  16.103   7.260
 5456POPC   C1B69799  35.176  16.376   6.256
 5456POPC   C2B69800  35.338  16.253   6.640
 5456POPC   C3B69801  35.063  16.262   6.982
 5456POPC   C4B69802  35.070  16.511   7.300
 5457POPC   NC369803  28.434  30.102   5.094
 5457POPC   PO469804  28.174  29.537   5.257
 5457POPC   GL169805  28.243  29.679   5.695
 5457POPC   GL269806  28.565  29.794   5.812
 5457POPC   C1A69807  28.255  29.545   6.158
 5457POPC   D2A69808  28.164  29.748   6.559
 5457POPC   C3A69809  28.365  29.691   6.929
 5457POPC   C4A69810  28.055  29.664   7.256
 5457POPC   C1B69811  28.357  30.025   6.182
 5457POPC   C2B69812  28.130  30.266   6.439
 5457POPC   C3B69813  28.063  30.176   6.841
 5457POPC   C4B69814  28.168  30.196   7.232
 5458POPC   NC369815  26.391  44.490   5.377
 5458POPC   PO469816  26.645  43.887   5.509
 5458POPC   GL169817  26.822  44.015   5.894
 5458POPC   GL269818  26.495  43.998   6.052
 5458POPC   C1A69819  26.896  44.154   6.345
 5458POPC   D2A69820  26.874  43.924   6.743
 5458POPC   C3A69821  26.954  43.980   7.180
 5458POPC   C4A69822  26.954  44.053   7.620
 5458POPC   C1B69823  26.766  43.657   6.262
 5458POPC   C2B69824  26.823  43.432   6.656
 5458POPC   C3B69825  26.904  43.474   7.074
 5458POPC   C4B69826  26.534  43.479   7.332
 5459POPC   NC369827  11.326  20.250   5.475
 5459POPC   PO469828  11.084  19.620   5.200
 5459POPC   GL169829  11.255  19.699   5.631
 5459POPC   GL269830  10.987  19.560   5.870
 5459POPC   C1A69831  11.384  19.920   6.035
 5459POPC   D2A69832  11.167  20.023   6.446
 5459POPC   C3A69833  11.415  20.052   6.809
 5459POPC   C4A69834  11.279  19.883   7.176
 5459POPC   C1B69835  11.212  19.516   6.277
 5459POPC   C2B69836  11.204  19.555   6.734
 5459POPC   C3B69837  11.036  19.443   7.144
 5459POPC   C4B69838  11.094  19.609   7.590
 5460POPC   NC369839  37.628  24.282   5.423
 5460POPC   PO469840  37.827  24.908   5.418
 5460POPC   GL169841  37.807  24.570   5.808
 5460POPC   GL269842  37.879  24.166   5.854
 5460POPC   C1A69843  37.667  24.539   6.249
 5460POPC   D2A69844  37.451  24.766   6.584
 5460POPC   C3A69845  37.498  24.571   6.974
 5460POPC   C4A69846  37.395  24.215   7.200
 5460POPC   C1B69847  38.111  24.266   6.214
 5460POPC   C2B69848  38.046  24.434   6.630
 5460POPC   C3B69849  37.900  24.239   7.007
 5460POPC   C4B69850  37.799  24.433   7.408
 5461POPC   NC369851  32.651   0.655   5.403
 5461POPC   PO469852  33.123   0.224   5.381
 5461POPC   GL169853  33.114   0.498   5.741
 5461POPC   GL269854  32.831   0.368   5.845
 5461POPC   C1A69855  33.225   0.531   6.214
 5461POPC   D2A69856  33.204   0.813   6.587
 5461POPC   C3A69857  32.876   0.763   6.935
 5461POPC   C4A69858  32.909   0.550   7.352
 5461POPC   C1B69859  32.714   0.503   6.248
 5461POPC   C2B69860  32.918   0.367   6.629
 5461POPC   C3B69861  32.764   0.160   7.041
 5461POPC   C4B69862  32.746   0.050   7.505
 5462POPC   NC369863  39.636  18.943   5.511
 5462POPC   PO469864  40.158  18.597   5.479
 5462POPC   GL169865  40.046  18.902   5.845
 5462POPC   GL269866  39.959  19.264   5.906
 5462POPC   C1A69867  39.949  18.949   6.293
 5462POPC   D2A69868  40.142  19.031   6.661
 5462POPC   C3A69869  39.865  19.155   6.989
 5462POPC   C4A69870  39.778  18.920   7.349
 5462POPC   C1B69871  40.274  19.353   6.221
 5462POPC   C2B69872  40.363  19.508   6.647
 5462POPC   C3B69873  40.264  19.483   7.083
 5462POPC   C4B69874  40.184  19.416   7.536
 5463POPC   NC369875  19.650  33.899   5.102
 5463POPC   PO469876  19.123  33.712   5.437
 5463POPC   GL169877  18.953  33.703   5.827
 5463POPC   GL269878  19.245  33.774   5.935
 5463POPC   C1A69879  18.877  33.827   6.279
 5463POPC   D2A69880  19.085  33.916   6.653
 5463POPC   C3A69881  18.897  33.871   7.059
 5463POPC   C4A69882  19.083  33.863   7.475
 5463POPC   C1B69883  19.385  33.654   6.290
 5463POPC   C2B69884  19.518  33.642   6.694
 5463POPC   C3B69885  19.407  33.799   7.074
 5463POPC   C4B69886  19.660  33.852   7.431
 5464POPC   NC369887   4.765  30.387   5.504
 5464POPC   PO469888   5.205  30.975   5.439
 5464POPC   GL169889   5.170  30.922   5.882
 5464POPC   GL269890   4.948  30.639   5.928
 5464POPC   C1A69891   5.132  30.924   6.366
 5464POPC   D2A69892   4.879  30.630   6.635
 5464POPC   C3A69893   4.981  30.541   7.075
 5464POPC   C4A69894   5.017  30.759   7.458
 5464POPC   C1B69895   5.274  30.470   6.235
 5464POPC   C2B69896   5.380  30.515   6.708
 5464POPC   C3B69897   5.394  30.224   7.098
 5464POPC   C4B69898   5.345  30.331   7.542
 5465POPC   NC369899  34.977  28.550   5.553
 5465POPC   PO469900  34.487  28.318   5.148
 5465POPC   GL169901  34.576  28.247   5.636
 5465POPC   GL269902  34.495  27.958   5.793
 5465POPC   C1A69903  34.620  28.308   6.133
 5465POPC   D2A69904  34.766  28.093   6.520
 5465POPC   C3A69905  34.670  28.391   6.837
 5465POPC   C4A69906  34.559  28.505   7.221
 5465POPC   C1B69907  34.172  28.050   6.121
 5465POPC   C2B69908  34.250  28.196   6.557
 5465POPC   C3B69909  34.264  28.107   7.000
 5465POPC   C4B69910  34.091  28.311   7.381
 5466POPC   NC369911  35.486  15.322   5.439
 5466POPC   PO469912  34.900  15.166   5.239
 5466POPC   GL169913  35.071  15.177   5.709
 5466POPC   GL269914  35.446  15.014   5.829
 5466POPC   C1A69915  35.123  15.210   6.169
 5466POPC   D2A69916  35.316  15.116   6.580
 5466POPC   C3A69917  35.117  15.274   6.958
 5466POPC   C4A69918  35.236  15.161   7.386
 5466POPC   C1B69919  35.625  15.319   6.160
 5466POPC   C2B69920  35.678  15.495   6.586
 5466POPC   C3B69921  35.622  15.302   6.993
 5466POPC   C4B69922  35.487  15.586   7.314
 5467POPC   NC369923  22.631  13.137   5.377
 5467POPC   PO469924  21.975  12.745   5.192
 5467POPC   GL169925  22.178  13.047   5.578
 5467POPC   GL269926  22.435  12.848   5.766
 5467POPC   C1A69927  22.187  13.188   6.067
 5467POPC   D2A69928  22.344  13.102   6.516
 5467POPC   C3A69929  22.068  13.127   6.898
 5467POPC   C4A69930  22.175  13.087   7.335
 5467POPC   C1B69931  22.387  12.684   6.206
 5467POPC   C2B69932  22.513  12.617   6.660
 5467POPC   C3B69933  22.310  12.675   7.076
 5467POPC   C4B69934  22.346  12.640   7.546
 5468POPC   NC369935  21.942  11.470   5.450
 5468POPC   PO469936  22.593  11.287   5.450
 5468POPC   GL169937  22.296  11.286   5.831
 5468POPC   GL269938  21.928  11.138   5.877
 5468POPC   C1A69939  22.332  11.240   6.287
 5468POPC   D2A69940  22.126  11.309   6.676
 5468POPC   C3A69941  22.276  11.094   7.032
 5468POPC   C4A69942  22.450  11.273   7.383
 5468POPC   C1B69943  21.897  11.486   6.221
 5468POPC   C2B69944  21.720  11.631   6.602
 5468POPC   C3B69945  21.777  11.544   7.010
 5468POPC   C4B69946  21.988  11.474   7.352
 5469POPC   NC369947  41.707  32.689   5.347
 5469POPC   PO469948  41.319  33.078   5.327
 5469POPC   GL169949  41.431  33.198   5.738
 5469POPC   GL269950  41.493  32.851   5.787
 5469POPC   C1A69951  41.496  33.357   6.171
 5469POPC   D2A69952  41.425  33.508   6.596
 5469POPC   C3A69953  41.668  33.263   6.908
 5469POPC   C4A69954  41.502  33.087   7.267
 5469POPC   C1B69955  41.600  32.747   6.178
 5469POPC   C2B69956  41.601  32.926   6.542
 5469POPC   C3B69957  41.368  32.786   6.890
 5469POPC   C4B69958  41.478  32.571   7.235
 5470POPC   NC369959  38.603  40.175   5.510
 5470POPC   PO469960  38.252  40.742   5.405
 5470POPC   GL169961  38.450  40.631   5.755
 5470POPC   GL269962  38.182  40.405   5.802
 5470POPC   C1A69963  38.554  40.862   6.119
 5470POPC   D2A69964  38.489  41.060   6.510
 5470POPC   C3A69965  38.593  40.926   6.933
 5470POPC   C4A69966  38.394  41.048   7.318
 5470POPC   C1B69967  38.111  40.645   6.205
 5470POPC   C2B69968  38.160  40.697   6.668
 5470POPC   C3B69969  38.111  40.687   7.110
 5470POPC   C4B69970  38.138  40.388   7.443
 5471POPC   NC369971  25.639  12.629   5.548
 5471POPC   PO469972  24.925  12.804   5.405
 5471POPC   GL169973  25.094  12.595   5.749
 5471POPC   GL269974  25.302  12.882   5.816
 5471POPC   C1A69975  25.230  12.526   6.188
 5471POPC   D2A69976  25.148  12.726   6.618
 5471POPC   C3A69977  25.370  12.603   6.990
 5471POPC   C4A69978  25.706  12.688   7.251
 5471POPC   C1B69979  25.307  13.041   6.217
 5471POPC   C2B69980  25.226  13.256   6.562
 5471POPC   C3B69981  25.370  13.150   6.933
 5471POPC   C4B69982  25.237  13.159   7.312
 5472POPC   NC369983  30.929  29.814   5.387
 5472POPC   PO469984  30.386  29.765   5.081
 5472POPC   GL169985  30.437  30.002   5.549
 5472POPC   GL269986  30.760  30.060   5.781
 5472POPC   C1A69987  30.337  29.940   6.031
 5472POPC   D2A69988  30.240  30.102   6.465
 5472POPC   C3A69989  30.429  30.173   6.875
 5472POPC   C4A69990  30.535  29.954   7.229
 5472POPC   C1B69991  30.831  29.816   6.178
 5472POPC   C2B69992  30.756  29.845   6.646
 5472POPC   C3B69993  30.883  29.630   7.032
 5472POPC   C4B69994  31.079  29.808   7.408
 5473POPC   NC369995  30.412   4.973   5.253
 5473POPC   PO469996  31.129   5.070   5.377
 5473POPC   GL169997  30.977   4.960   5.774
 5473POPC   GL269998  30.719   5.179   5.686
 5473POPC   C1A69999  30.968   4.837   6.197
 5473POPC   D2A70000  30.744   5.034   6.519
 5473POPC   C3A70001  30.801   4.900   6.922
 5473POPC   C4A70002  30.455   4.937   7.188
 5473POPC   C1B70003  30.787   5.354   6.088
 5473POPC   C2B70004  30.796   5.558   6.496
 5473POPC   C3B70005  30.893   5.414   6.887
 5473POPC   C4B70006  30.879   5.228   7.295
 5474POPC   NC370007  19.821  19.335   4.918
 5474POPC   PO470008  20.146  18.877   5.352
 5474POPC   GL170009  20.038  18.886   5.805
 5474POPC   GL270010  19.788  19.111   5.781
 5474POPC   C1A70011  20.053  19.100   6.226
 5474POPC   D2A70012  20.123  19.059   6.669
 5474POPC   C3A70013  19.789  18.934   6.914
 5474POPC   C4A70014  19.746  19.150   7.313
 5474POPC   C1B70015  19.597  19.341   6.144
 5474POPC   C2B70016  19.567  19.208   6.564
 5474POPC   C3B70017  19.359  19.180   6.996
 5474POPC   C4B70018  19.279  19.282   7.476
 5475POPC   NC370019  36.140  40.415   5.424
 5475POPC   PO470020  36.056  41.085   5.537
 5475POPC   GL170021  36.284  40.895   5.846
 5475POPC   GL270022  36.331  40.527   5.874
 5475POPC   C1A70023  36.148  40.840   6.265
 5475POPC   D2A70024  36.242  40.779   6.690
 5475POPC   C3A70025  35.976  40.986   6.975
 5475POPC   C4A70026  35.944  40.933   7.417
 5475POPC   C1B70027  36.140  40.322   6.217
 5475POPC   C2B70028  36.043  40.313   6.640
 5475POPC   C3B70029  36.003  40.370   7.060
 5475POPC   C4B70030  35.988  40.431   7.508
 5476POPC   NC370031   0.836  43.197   5.498
 5476POPC   PO470032   1.107  42.584   5.598
 5476POPC   GL170033   1.086  42.921   5.883
 5476POPC   GL270034   1.314  43.119   5.715
 5476POPC   C1A70035   1.133  43.022   6.333
 5476POPC   D2A70036   1.123  42.754   6.721
 5476POPC   C3A70037   1.153  42.948   7.142
 5476POPC   C4A70038   1.046  43.309   7.405
 5476POPC   C1B70039   1.349  43.428   6.031
 5476POPC   C2B70040   1.305  43.514   6.435
 5476POPC   C3B70041   1.292  43.309   6.817
 5476POPC   C4B70042   1.503  43.398   7.201
 5477POPC   NC370043  35.550  30.496   5.365
 5477POPC   PO470044  35.116  31.033   5.452
 5477POPC   GL170045  35.357  30.874   5.800
 5477POPC   GL270046  35.598  30.596   5.858
 5477POPC   C1A70047  35.453  30.917   6.226
 5477POPC   D2A70048  35.262  30.712   6.557
 5477POPC   C3A70049  35.461  30.672   6.933
 5477POPC   C4A70050  35.543  30.894   7.305
 5477POPC   C1B70051  35.236  30.439   6.111
 5477POPC   C2B70052  35.213  30.208   6.515
 5477POPC   C3B70053  35.036  30.363   6.909
 5477POPC   C4B70054  35.147  30.576   7.314
 5478POPC   NC370055  43.982   7.370   5.411
 5478POPC   PO470056  43.367   7.358   5.548
 5478POPC   GL170057  43.584   7.577   5.886
 5478POPC   GL270058  43.942   7.540   5.888
 5478POPC   C1A70059  43.716   7.594   6.342
 5478POPC   D2A70060  43.553   7.325   6.674
 5478POPC   C3A70061  43.722   7.256   7.078
 5478POPC   C4A70062  43.938   6.896   7.207
 5478POPC   C1B70063  44.010   7.190   6.219
 5478POPC   C2B70064  44.073   7.224   6.692
 5478POPC   C3B70065  44.280   7.301   7.111
 5478POPC   C4B70066  44.484   7.570   7.463
 5479POPC   NC370067   2.954  41.703   5.413
 5479POPC   PO470068   3.074  41.154   5.201
 5479POPC   GL170069   2.985  41.296   5.703
 5479POPC   GL270070   2.679  41.539   5.799
 5479POPC   C1A70071   2.935  41.292   6.199
 5479POPC   D2A70072   3.057  41.223   6.698
 5479POPC   C3A70073   2.921  41.381   7.114
 5479POPC   C4A70074   2.887  41.591   7.529
 5479POPC   C1B70075   2.860  41.793   6.108
 5479POPC   C2B70076   2.875  41.687   6.539
 5479POPC   C3B70077   3.109  41.815   6.883
 5479POPC   C4B70078   2.841  41.947   7.175
 5480POPC   NC370079  13.008  27.915   5.453
 5480POPC   PO470080  13.021  28.565   5.275
 5480POPC   GL170081  13.011  28.375   5.697
 5480POPC   GL270082  12.854  28.667   5.829
 5480POPC   C1A70083  13.055  28.237   6.160
 5480POPC   D2A70084  12.803  28.095   6.548
 5480POPC   C3A70085  12.917  28.220   6.970
 5480POPC   C4A70086  13.308  28.149   7.115
 5480POPC   C1B70087  12.847  28.718   6.267
 5480POPC   C2B70088  12.898  28.667   6.702
 5480POPC   C3B70089  12.763  28.702   7.135
 5480POPC   C4B70090  12.537  28.475   7.407
 5481POPC   NC370091  17.529  25.554   5.432
 5481POPC   PO470092  17.517  24.948   5.389
 5481POPC   GL170093  17.389  25.224   5.809
 5481POPC   GL270094  17.189  25.560   5.853
 5481POPC   C1A70095  17.498  25.337   6.264
 5481POPC   D2A70096  17.746  25.145   6.617
 5481POPC   C3A70097  17.574  24.958   7.015
 5481POPC   C4A70098  17.413  25.042   7.452
 5481POPC   C1B70099  17.167  25.728   6.309
 5481POPC   C2B70100  17.080  25.561   6.713
 5481POPC   C3B70101  17.290  25.406   7.092
 5481POPC   C4B70102  17.352  25.579   7.516
 5482POPC   NC370103  15.043  13.428   5.083
 5482POPC   PO470104  15.318  14.016   5.437
 5482POPC   GL170105  15.437  13.798   5.802
 5482POPC   GL270106  15.211  13.504   5.966
 5482POPC   C1A70107  15.330  13.913   6.203
 5482POPC   D2A70108  15.264  13.540   6.462
 5482POPC   C3A70109  15.215  13.640   6.849
 5482POPC   C4A70110  15.102  13.432   7.183
 5482POPC   C1B70111  14.842  13.761   6.188
 5482POPC   C2B70112  14.827  13.980   6.572
 5482POPC   C3B70113  14.764  13.821   6.967
 5482POPC   C4B70114  14.958  13.900   7.322
 5483POPC   NC370115  30.697  33.474   5.446
 5483POPC   PO470116  30.445  34.143   5.569
 5483POPC   GL170117  30.735  33.880   5.781
 5483POPC   GL270118  30.470  33.676   5.844
 5483POPC   C1A70119  30.886  33.755   6.193
 5483POPC   D2A70120  30.987  34.013   6.558
 5483POPC   C3A70121  30.956  33.816   6.942
 5483POPC   C4A70122  30.917  33.971   7.352
 5483POPC   C1B70123  30.414  33.472   6.198
 5483POPC   C2B70124  30.611  33.566   6.594
 5483POPC   C3B70125  30.455  33.641   6.997
 5483POPC   C4B70126  30.480  33.712   7.458
 5484POPC   NC370127  42.268  37.290   5.695
 5484POPC   PO470128  42.170  36.677   5.407
 5484POPC   GL170129  42.279  36.658   5.832
 5484POPC   GL270130  42.458  36.938   6.001
 5484POPC   C1A70131  42.050  36.678   6.220
 5484POPC   D2A70132  41.988  36.961   6.548
 5484POPC   C3A70133  42.214  37.026   6.897
 5484POPC   C4A70134  42.080  37.041   7.299
 5484POPC   C1B70135  42.569  36.617   6.268
 5484POPC   C2B70136  42.368  36.569   6.653
 5484POPC   C3B70137  42.590  36.676   7.019
 5484POPC   C4B70138  42.610  37.045   7.230
 5485POPC   NC370139  34.875  23.878   5.491
 5485POPC   PO470140  34.443  23.504   5.000
 5485POPC   GL170141  34.401  23.550   5.521
 5485POPC   GL270142  34.690  23.484   5.761
 5485POPC   C1A70143  34.349  23.723   6.003
 5485POPC   D2A70144  34.625  23.664   6.400
 5485POPC   C3A70145  34.485  23.704   6.829
 5485POPC   C4A70146  34.593  23.677   7.257
 5485POPC   C1B70147  34.909  23.326   6.122
 5485POPC   C2B70148  35.046  23.302   6.553
 5485POPC   C3B70149  34.831  23.300   6.956
 5485POPC   C4B70150  34.790  23.187   7.376
 5486POPC   NC370151  18.214  36.195   5.201
 5486POPC   PO470152  18.696  35.752   5.524
 5486POPC   GL170153  18.453  35.962   5.765
 5486POPC   GL270154  18.483  36.315   5.659
 5486POPC   C1A70155  18.577  36.044   6.189
 5486POPC   D2A70156  18.749  36.073   6.600
 5486POPC   C3A70157  18.424  36.026   6.903
 5486POPC   C4A70158  18.271  36.062   7.319
 5486POPC   C1B70159  18.166  36.324   6.027
 5486POPC   C2B70160  18.145  36.355   6.508
 5486POPC   C3B70161  17.937  36.185   6.896
 5486POPC   C4B70162  17.833  36.318   7.336
 5487POPC   NC370163  18.047  30.048   5.370
 5487POPC   PO470164  18.430  29.579   5.343
 5487POPC   GL170165  18.299  29.807   5.759
 5487POPC   GL270166  18.164  30.157   5.834
 5487POPC   C1A70167  18.266  29.862   6.225
 5487POPC   D2A70168  18.445  29.943   6.633
 5487POPC   C3A70169  18.261  29.699   6.939
 5487POPC   C4A70170  18.292  29.742   7.350
 5487POPC   C1B70171  17.859  30.267   6.112
 5487POPC   C2B70172  17.923  30.130   6.544
 5487POPC   C3B70173  17.898  30.209   6.977
 5487POPC   C4B70174  17.995  30.201   7.384
 5488POPC   NC370175  37.425  28.880   5.242
 5488POPC   PO470176  37.669  29.529   5.381
 5488POPC   GL170177  37.664  29.175   5.719
 5488POPC   GL270178  37.342  29.002   5.809
 5488POPC   C1A70179  37.838  29.199   6.154
 5488POPC   D2A70180  37.834  28.985   6.579
 5488POPC   C3A70181  37.681  29.153   6.985
 5488POPC   C4A70182  37.557  28.984   7.398
 5488POPC   C1B70183  37.366  29.072   6.278
 5488POPC   C2B70184  37.268  29.183   6.693
 5488POPC   C3B70185  37.208  29.280   7.131
 5488POPC   C4B70186  37.181  29.275   7.574
 5489POPC   NC370187  33.742  41.747   5.486
 5489POPC   PO470188  33.700  41.106   5.502
 5489POPC   GL170189  33.825  41.396   5.842
 5489POPC   GL270190  34.163  41.334   5.878
 5489POPC   C1A70191  33.799  41.805   6.174
 5489POPC   D2A70192  33.747  42.053   6.613
 5489POPC   C3A70193  33.847  41.819   6.992
 5489POPC   C4A70194  33.666  41.405   7.126
 5489POPC   C1B70195  34.042  41.382   6.300
 5489POPC   C2B70196  33.983  41.407   6.721
 5489POPC   C3B70197  34.194  41.227   7.052
 5489POPC   C4B70198  34.204  41.290   7.489
 5490POPC   NC370199  22.700  30.049   5.538
 5490POPC   PO470200  23.149  29.574   5.504
 5490POPC   GL170201  23.049  29.855   5.855
 5490POPC   GL270202  22.751  29.654   5.903
 5490POPC   C1A70203  23.128  30.087   6.259
 5490POPC   D2A70204  23.187  29.980   6.709
 5490POPC   C3A70205  22.888  30.002   7.083
 5490POPC   C4A70206  22.505  30.222   7.122
 5490POPC   C1B70207  22.648  29.897   6.258
 5490POPC   C2B70208  22.651  29.801   6.685
 5490POPC   C3B70209  22.599  29.500   7.047
 5490POPC   C4B70210  22.525  29.763   7.425
 5491POPC   NC370211  41.759  21.951   5.335
 5491POPC   PO470212  41.711  22.601   5.519
 5491POPC   GL170213  41.514  22.328   5.804
 5491POPC   GL270214  41.495  22.005   5.763
 5491POPC   C1A70215  41.255  22.202   6.160
 5491POPC   D2A70216  41.433  22.229   6.575
 5491POPC   C3A70217  41.211  22.473   6.918
 5491POPC   C4A70218  41.439  22.327   7.282
 5491POPC   C1B70219  41.750  22.039   6.154
 5491POPC   C2B70220  41.840  21.844   6.527
 5491POPC   C3B70221  41.835  22.055   6.896
 5491POPC   C4B70222  41.688  21.866   7.250
 5492POPC   NC370223  26.327   5.064   5.386
 5492POPC   PO470224  25.714   5.415   5.352
 5492POPC   GL170225  25.989   5.279   5.744
 5492POPC   GL270226  26.332   5.214   5.872
 5492POPC   C1A70227  25.945   5.127   6.190
 5492POPC   D2A70228  26.236   5.144   6.546
 5492POPC   C3A70229  26.004   5.097   6.926
 5492POPC   C4A70230  25.776   5.133   7.305
 5492POPC   C1B70231  26.331   4.797   6.098
 5492POPC   C2B70232  26.257   4.619   6.525
 5492POPC   C3B70233  26.367   4.741   6.971
 5492POPC   C4B70234  26.275   4.988   7.357
 5493POPC   NC370235   9.605  14.473   5.304
 5493POPC   PO470236   9.756  13.928   5.463
 5493POPC   GL170237   9.602  14.185   5.865
 5493POPC   GL270238   9.868  14.356   6.056
 5493POPC   C1A70239   9.463  14.267   6.342
 5493POPC   D2A70240   9.727  14.380   6.726
 5493POPC   C3A70241   9.656  14.224   7.158
 5493POPC   C4A70242   9.450  14.421   7.523
 5493POPC   C1B70243   9.734  14.706   6.327
 5493POPC   C2B70244   9.550  14.867   6.711
 5493POPC   C3B70245   9.739  14.760   7.125
 5493POPC   C4B70246   9.680  14.883   7.566
 5494POPC   NC370247   7.127  39.515   5.527
 5494POPC   PO470248   7.592  39.116   5.464
 5494POPC   GL170249   7.463  39.192   5.827
 5494POPC   GL270250   7.645  39.476   5.884
 5494POPC   C1A70251   7.622  38.990   6.203
 5494POPC   D2A70252   7.721  39.194   6.597
 5494POPC   C3A70253   7.574  38.983   6.963
 5494POPC   C4A70254   7.314  38.945   7.318
 5494POPC   C1B70255   7.390  39.454   6.264
 5494POPC   C2B70256   7.468  39.654   6.664
 5494POPC   C3B70257   7.233  39.527   7.016
 5494POPC   C4B70258   6.879  39.681   7.237
 5495POPC   NC370259  19.037  44.124   5.226
 5495POPC   PO470260  18.940  43.506   5.326
 5495POPC   GL170261  19.136  43.759   5.702
 5495POPC   GL270262  19.207  44.129   5.750
 5495POPC   C1A70263  18.973  43.767   6.140
 5495POPC   D2A70264  19.202  43.624   6.502
 5495POPC   C3A70265  19.232  43.760   6.889
 5495POPC   C4A70266  18.874  43.671   7.022
 5495POPC   C1B70267  19.057  44.279   6.188
 5495POPC   C2B70268  18.896  44.066   6.580
 5495POPC   C3B70269  18.941  44.174   7.013
 5495POPC   C4B70270  19.296  44.224   7.276
 5496POPC   NC370271  34.112  17.373   5.261
 5496POPC   PO470272  34.626  17.741   5.056
 5496POPC   GL170273  34.499  17.650   5.571
 5496POPC   GL270274  34.273  17.369   5.737
 5496POPC   C1A70275  34.665  17.536   6.017
 5496POPC   D2A70276  34.734  17.722   6.443
 5496POPC   C3A70277  34.493  17.645   6.818
 5496POPC   C4A70278  34.611  17.467   7.212
 5496POPC   C1B70279  34.209  17.146   6.120
 5496POPC   C2B70280  34.330  17.247   6.524
 5496POPC   C3B70281  34.294  17.158   6.950
 5496POPC   C4B70282  34.228  17.176   7.390
 5497POPC   NC370283  34.356  43.812   5.727
 5497POPC   PO470284  34.993  44.066   5.500
 5497POPC   GL170285  34.797  44.021   5.891
 5497POPC   GL270286  34.720  44.323   6.065
 5497POPC   C1A70287  34.744  43.728   6.253
 5497POPC   D2A70288  34.823  43.542   6.666
 5497POPC   C3A70289  34.585  43.776   6.976
 5497POPC   C4A70290  34.761  43.739   7.399
 5497POPC   C1B70291  34.432  44.162   6.380
 5497POPC   C2B70292  34.436  44.300   6.806
 5497POPC   C3B70293  34.690  44.234   7.164
 5497POPC   C4B70294  34.552  44.145   7.607
 5498POPC   NC370295  34.400  42.105   5.481
 5498POPC   PO470296  33.737  42.262   5.527
 5498POPC   GL170297  34.010  42.274   5.921
 5498POPC   GL270298  34.047  42.623   5.993
 5498POPC   C1A70299  34.095  42.355   6.403
 5498POPC   D2A70300  33.824  42.569   6.723
 5498POPC   C3A70301  33.831  42.360   7.092
 5498POPC   C4A70302  33.566  42.107   7.322
 5498POPC   C1B70303  33.630  42.634   6.254
 5498POPC   C2B70304  33.303  42.554   6.641
 5498POPC   C3B70305  33.339  42.530   7.124
 5498POPC   C4B70306  33.289  42.473   7.618
 5499POPC   NC370307  12.195  35.247   5.538
 5499POPC   PO470308  11.803  35.800   5.314
 5499POPC   GL170309  11.804  35.475   5.754
 5499POPC   GL270310  11.589  35.230   5.857
 5499POPC   C1A70311  12.087  35.307   6.176
 5499POPC   D2A70312  12.254  35.174   6.610
 5499POPC   C3A70313  12.287  35.473   6.990
 5499POPC   C4A70314  12.045  35.418   7.380
 5499POPC   C1B70315  11.609  35.261   6.302
 5499POPC   C2B70316  11.749  35.070   6.672
 5499POPC   C3B70317  11.995  35.047   7.046
 5499POPC   C4B70318  11.829  34.990   7.492
 5500POPC   NC370319  40.351  29.390   5.534
 5500POPC   PO470320  40.835  28.895   5.397
 5500POPC   GL170321  40.628  28.989   5.762
 5500POPC   GL270322  40.923  29.176   5.839
 5500POPC   C1A70323  40.572  29.073   6.209
 5500POPC   D2A70324  40.514  29.353   6.544
 5500POPC   C3A70325  40.488  29.260   6.982
 5500POPC   C4A70326  40.754  29.267   7.323
 5500POPC   C1B70327  41.075  28.994   6.220
 5500POPC   C2B70328  40.981  29.178   6.602
 5500POPC   C3B70329  41.088  29.072   6.991
 5500POPC   C4B70330  41.270  29.206   7.377
 5501POPC   NC370331   3.101  20.658   5.647
 5501POPC   PO470332   2.514  20.832   5.384
 5501POPC   GL170333   2.591  20.478   5.755
 5501POPC   GL270334   2.876  20.249   5.835
 5501POPC   C1A70335   2.488  20.463   6.250
 5501POPC   D2A70336   2.457  20.373   6.749
 5501POPC   C3A70337   2.505  20.726   7.079
 5501POPC   C4A70338   2.744  20.755   7.503
 5501POPC   C1B70339   3.029  20.407   6.240
 5501POPC   C2B70340   2.860  20.661   6.572
 5501POPC   C3B70341   2.989  20.773   6.965
 5501POPC   C4B70342   3.088  20.462   7.230
 5502POPC   NC370343   2.907  20.961   5.166
 5502POPC   PO470344   2.530  21.538   5.375
 5502POPC   GL170345   2.463  21.541   5.801
 5502POPC   GL270346   2.419  21.878   5.870
 5502POPC   C1A70347   2.528  21.267   6.177
 5502POPC   D2A70348   2.665  21.133   6.596
 5502POPC   C3A70349   2.585  21.247   7.020
 5502POPC   C4A70350   2.923  21.163   7.302
 5502POPC   C1B70351   2.751  21.739   6.210
 5502POPC   C2B70352   2.756  21.658   6.689
 5502POPC   C3B70353   2.988  21.607   7.090
 5502POPC   C4B70354   2.989  21.609   7.567
 5503POPC   NC370355  11.964  42.744   5.107
 5503POPC   PO470356  12.318  43.041   5.559
 5503POPC   GL170357  12.174  43.159   5.958
 5503POPC   GL270358  12.360  43.447   5.953
 5503POPC   C1A70359  12.040  42.992   6.368
 5503POPC   D2A70360  12.033  42.739   6.740
 5503POPC   C3A70361  12.018  43.008   7.119
 5503POPC   C4A70362  11.752  43.074   7.474
 5503POPC   C1B70363  12.079  43.500   6.338
 5503POPC   C2B70364  11.888  43.377   6.751
 5503POPC   C3B70365  11.892  43.540   7.186
 5503POPC   C4B70366  12.205  43.787   7.427
 5504POPC   NC370367   0.734  33.205   5.545
 5504POPC   PO470368   0.062  33.016   5.430
 5504POPC   GL170369   0.396  32.842   5.719
 5504POPC   GL270370   0.412  33.135   5.939
 5504POPC   C1A70371   0.560  32.665   6.132
 5504POPC   D2A70372   0.422  32.735   6.555
 5504POPC   C3A70373   0.495  32.838   6.992
 5504POPC   C4A70374   0.339  33.207   7.257
 5504POPC   C1B70375   0.761  33.143   6.237
 5504POPC   C2B70376   0.860  32.999   6.656
 5504POPC   C3B70377   0.803  33.230   7.015
 5504POPC   C4B70378   0.865  33.513   7.303
 5505POPC   NC370379  27.215   7.902   5.329
 5505POPC   PO470380  27.603   7.374   5.180
 5505POPC   GL170381  27.646   7.397   5.650
 5505POPC   GL270382  27.368   7.584   5.693
 5505POPC   C1A70383  27.822   7.312   6.111
 5505POPC   D2A70384  27.867   7.062   6.520
 5505POPC   C3A70385  27.821   7.278   6.912
 5505POPC   C4A70386  27.542   7.252   7.219
 5505POPC   C1B70387  27.312   7.411   6.108
 5505POPC   C2B70388  27.480   7.399   6.533
 5505POPC   C3B70389  27.309   7.625   6.881
 5505POPC   C4B70390  27.134   7.541   7.244
 5506POPC   NC370391  35.685  26.293   5.374
 5506POPC   PO470392  35.123  25.870   5.144
 5506POPC   GL170393  35.207  26.064   5.580
 5506POPC   GL270394  35.165  25.742   5.744
 5506POPC   C1A70395  35.270  26.200   6.050
 5506POPC   D2A70396  35.470  26.112   6.503
 5506POPC   C3A70397  35.242  26.128   6.930
 5506POPC   C4A70398  34.966  26.360   7.232
 5506POPC   C1B70399  35.302  25.707   6.176
 5506POPC   C2B70400  35.296  25.621   6.613
 5506POPC   C3B70401  35.628  25.601   6.842
 5506POPC   C4B70402  35.674  25.904   7.142
 5507POPC   NC370403   4.588  21.516   5.243
 5507POPC   PO470404   4.078  21.162   5.386
 5507POPC   GL170405   4.247  21.420   5.716
 5507POPC   GL270406   4.601  21.363   5.768
 5507POPC   C1A70407   4.300  21.574   6.155
 5507POPC   D2A70408   4.169  21.592   6.612
 5507POPC   C3A70409   4.460  21.627   6.975
 5507POPC   C4A70410   4.298  21.650   7.395
 5507POPC   C1B70411   4.419  21.080   6.122
 5507POPC   C2B70412   4.183  21.093   6.511
 5507POPC   C3B70413   4.289  20.957   6.951
 5507POPC   C4B70414   4.224  21.137   7.364
 5508POPC   NC370415  14.281  42.773   5.396
 5508POPC   PO470416  14.735  43.327   5.494
 5508POPC   GL170417  14.477  43.101   5.742
 5508POPC   GL270418  14.571  42.780   5.827
 5508POPC   C1A70419  14.387  43.160   6.159
 5508POPC   D2A70420  14.575  43.323   6.512
 5508POPC   C3A70421  14.389  43.167   6.866
 5508POPC   C4A70422  14.324  43.155   7.279
 5508POPC   C1B70423  14.628  42.717   6.277
 5508POPC   C2B70424  14.411  42.675   6.692
 5508POPC   C3B70425  14.585  42.737   7.136
 5508POPC   C4B70426  14.552  42.860   7.604
 5509POPC   NC370427   0.030  24.812   5.339
 5509POPC   PO470428   0.645  24.563   5.340
 5509POPC   GL170429   0.422  24.651   5.726
 5509POPC   GL270430   0.084  24.528   5.763
 5509POPC   C1A70431   0.595  24.644   6.146
 5509POPC   D2A70432   0.564  24.406   6.510
 5509POPC   C3A70433   0.816  24.463   6.844
 5509POPC   C4A70434   0.757  24.534   7.253
 5509POPC   C1B70435   0.097  24.742   6.138
 5509POPC   C2B70436   0.176  24.735   6.536
 5509POPC   C3B70437   0.403  24.757   6.913
 5509POPC   C4B70438   0.270  24.620   7.323
 5510POPC   NC370439   0.544  15.910   5.396
 5510POPC   PO470440  44.859  15.870   5.350
 5510POPC   GL170441   0.167  15.772   5.723
 5510POPC   GL270442   0.506  15.639   5.811
 5510POPC   C1A70443   0.247  15.914   6.160
 5510POPC   D2A70444   0.425  16.180   6.495
 5510POPC   C3A70445   0.575  16.035   6.903
 5510POPC   C4A70446   0.216  16.038   7.190
 5510POPC   C1B70447   0.482  15.448   6.198
 5510POPC   C2B70448   0.550  15.619   6.582
 5510POPC   C3B70449   0.390  15.574   6.982
 5510POPC   C4B70450   0.565  15.710   7.343
 5511POPC   NC370451  23.256  26.613   5.443
 5511POPC   PO470452  23.926  26.705   5.385
 5511POPC   GL170453  23.850  26.816   5.826
 5511POPC   GL270454  23.483  26.807   5.873
 5511POPC   C1A70455  23.769  26.879   6.275
 5511POPC   D2A70456  23.592  26.746   6.700
 5511POPC   C3A70457  23.741  26.918   7.085
 5511POPC   C4A70458  23.733  27.295   7.240
 5511POPC   C1B70459  23.277  26.701   6.282
 5511POPC   C2B70460  23.134  26.478   6.646
 5511POPC   C3B70461  23.193  26.646   7.018
 5511POPC   C4B70462  23.504  26.489   7.199
 5512POPC   NC370463  44.180  31.302   5.483
 5512POPC   PO470464  44.871  31.357   5.462
 5512POPC   GL170465  44.630  31.308   5.828
 5512POPC   GL270466  44.607  30.942   5.760
 5512POPC   C1A70467  44.698  31.509   6.249
 5512POPC   D2A70468   0.106  31.731   6.435
 5512POPC   C3A70469   0.030  31.790   6.856
 5512POPC   C4A70470  44.877  31.505   7.188
 5512POPC   C1B70471  44.382  31.001   6.149
 5512POPC   C2B70472  44.584  31.060   6.521
 5512POPC   C3B70473  44.527  31.294   6.890
 5512POPC   C4B70474  44.345  31.387   7.274
 5513POPC   NC370475  15.226  14.563   5.381
 5513POPC   PO470476  14.803  13.976   5.257
 5513POPC   GL170477  14.953  14.223   5.718
 5513POPC   GL270478  15.344  14.309   5.829
 5513POPC   C1A70479  15.000  14.309   6.205
 5513POPC   D2A70480  15.303  14.245   6.589
 5513POPC   C3A70481  15.183  14.233   7.034
 5513POPC   C4A70482  15.443  14.138   7.452
 5513POPC   C1B70483  15.604  14.585   6.066
 5513POPC   C2B70484  15.660  14.639   6.512
 5513POPC   C3B70485  15.663  14.473   6.952
 5513POPC   C4B70486  15.358  14.652   7.266
 5514POPC   NC370487  44.944  41.694   5.431
 5514POPC   PO470488  44.315  41.366   5.136
 5514POPC   GL170489  44.493  41.498   5.628
 5514POPC   GL270490  44.423  41.864   5.663
 5514POPC   C1A70491  44.792  41.677   6.038
 5514POPC   D2A70492   0.099  41.785   6.411
 5514POPC   C3A70493   0.016  41.666   6.855
 5514POPC   C4A70494  44.970  41.680   7.308
 5514POPC   C1B70495  44.349  41.922   6.113
 5514POPC   C2B70496  44.553  41.723   6.507
 5514POPC   C3B70497  44.520  41.781   6.965
 5514POPC   C4B70498  44.483  41.765   7.418
 5515POPC   NC370499  36.356  30.326   5.712
 5515POPC   PO470500  35.887  30.809   5.481
 5515POPC   GL170501  36.158  30.801   5.819
 5515POPC   GL270502  36.488  31.007   5.855
 5515POPC   C1A70503  35.973  30.630   6.199
 5515POPC   D2A70504  35.762  30.460   6.573
 5515POPC   C3A70505  35.952  30.589   6.942
 5515POPC   C4A70506  35.796  30.464   7.332
 5515POPC   C1B70507  36.507  30.730   6.204
 5515POPC   C2B70508  36.335  30.660   6.600
 5515POPC   C3B70509  36.390  30.888   6.988
 5515POPC   C4B70510  36.236  30.721   7.336
 5516POPC   NC370511  23.565  17.053   5.463
 5516POPC   PO470512  23.966  17.564   5.377
 5516POPC   GL170513  23.726  17.468   5.719
 5516POPC   GL270514  23.686  17.814   5.811
 5516POPC   C1A70515  23.490  17.366   6.089
 5516POPC   D2A70516  23.591  17.517   6.499
 5516POPC   C3A70517  23.616  17.195   6.814
 5516POPC   C4A70518  23.671  17.223   7.221
 5516POPC   C1B70519  23.865  17.901   6.207
 5516POPC   C2B70520  24.064  17.757   6.578
 5516POPC   C3B70521  23.974  17.644   7.016
 5516POPC   C4B70522  24.086  17.824   7.459
 5517POPC   NC370523  11.745  30.979   5.400
 5517POPC   PO470524  12.382  30.856   5.326
 5517POPC   GL170525  12.285  30.884   5.754
 5517POPC   GL270526  11.950  30.830   5.893
 5517POPC   C1A70527  12.404  31.037   6.169
 5517POPC   D2A70528  12.494  30.933   6.628
 5517POPC   C3A70529  12.276  31.027   7.056
 5517POPC   C4A70530  12.191  30.678   7.406
 5517POPC   C1B70531  12.040  30.734   6.369
 5517POPC   C2B70532  11.911  30.757   6.825
 5517POPC   C3B70533  11.723  30.563   7.213
 5517POPC   C4B70534  11.709  30.162   7.461
 5518POPC   NC370535  27.752  12.505   5.509
 5518POPC   PO470536  27.388  13.057   5.249
 5518POPC   GL170537  27.333  12.871   5.715
 5518POPC   GL270538  27.629  12.763   5.936
 5518POPC   C1A70539  27.180  12.733   6.164
 5518POPC   D2A70540  27.474  12.728   6.547
 5518POPC   C3A70541  27.346  12.664   6.998
 5518POPC   C4A70542  27.391  12.745   7.458
 5518POPC   C1B70543  27.885  13.001   6.216
 5518POPC   C2B70544  27.749  13.155   6.593
 5518POPC   C3B70545  27.806  12.965   6.947
 5518POPC   C4B70546  27.801  13.035   7.333
 5519POPC   NC370547  14.549   4.714   5.549
 5519POPC   PO470548  14.610   5.323   5.490
 5519POPC   GL170549  14.546   5.216   5.918
 5519POPC   GL270550  14.213   5.049   5.846
 5519POPC   C1A70551  14.676   5.283   6.381
 5519POPC   D2A70552  14.881   5.372   6.769
 5519POPC   C3A70553  14.810   5.176   7.116
 5519POPC   C4A70554  14.523   4.864   7.115
 5519POPC   C1B70555  14.308   4.941   6.273
 5519POPC   C2B70556  14.280   5.049   6.717
 5519POPC   C3B70557  14.031   4.970   7.094
 5519POPC   C4B70558  13.876   4.668   7.426
 5520POPC   NC370559  26.459  25.204   5.312
 5520POPC   PO470560  26.974  25.538   5.264
 5520POPC   GL170561  26.817  25.367   5.680
 5520POPC   GL270562  26.615  25.585   5.879
 5520POPC   C1A70563  26.819  25.143   6.102
 5520POPC   D2A70564  26.794  25.254   6.553
 5520POPC   C3A70565  26.792  24.993   6.916
 5520POPC   C4A70566  26.953  25.240   7.237
 5520POPC   C1B70567  26.401  25.410   6.248
 5520POPC   C2B70568  26.360  25.526   6.642
 5520POPC   C3B70569  26.572  25.482   7.009
 5520POPC   C4B70570  26.591  25.469   7.489
 5521POPC   NC370571  16.382  13.015   5.433
 5521POPC   PO470572  17.032  12.949   5.451
 5521POPC   GL170573  16.850  12.773   5.807
 5521POPC   GL270574  17.016  12.478   5.934
 5521POPC   C1A70575  16.994  12.921   6.204
 5521POPC   D2A70576  16.855  12.887   6.610
 5521POPC   C3A70577  16.841  13.114   6.978
 5521POPC   C4A70578  16.470  12.906   7.117
 5521POPC   C1B70579  16.716  12.484   6.252
 5521POPC   C2B70580  16.644  12.439   6.683
 5521POPC   C3B70581  16.852  12.573   7.058
 5521POPC   C4B70582  17.042  12.518   7.482
 5522POPC   NC370583   9.071  10.176   5.398
 5522POPC   PO470584   8.715   9.538   5.405
 5522POPC   GL170585   8.769   9.660   5.817
 5522POPC   GL270586   9.109   9.589   5.809
 5522POPC   C1A70587   8.868   9.817   6.243
 5522POPC   D2A70588   9.126   9.655   6.624
 5522POPC   C3A70589   9.042   9.770   7.092
 5522POPC   C4A70590   9.268   9.890   7.485
 5522POPC   C1B70591   9.044   9.351   6.186
 5522POPC   C2B70592   8.933   9.175   6.570
 5522POPC   C3B70593   8.865   9.300   6.966
 5522POPC   C4B70594   8.697   9.349   7.411
 5523POPC   NC370595  22.467  29.218   5.526
 5523POPC   PO470596  21.761  29.137   5.433
 5523POPC   GL170597  21.946  29.327   5.809
 5523POPC   GL270598  22.138  29.028   5.874
 5523POPC   C1A70599  21.922  29.268   6.275
 5523POPC   D2A70600  22.065  29.007   6.619
 5523POPC   C3A70601  22.099  29.217   7.003
 5523POPC   C4A70602  21.871  29.104   7.337
 5523POPC   C1B70603  22.439  29.121   6.227
 5523POPC   C2B70604  22.603  29.144   6.657
 5523POPC   C3B70605  22.527  28.924   7.039
 5523POPC   C4B70606  22.666  28.923   7.473
 5524POPC   NC370607  35.877   4.599   5.292
 5524POPC   PO470608  36.367   4.238   5.353
 5524POPC   GL170609  36.039   4.281   5.718
 5524POPC   GL270610  35.795   4.010   5.786
 5524POPC   C1A70611  35.952   4.378   6.208
 5524POPC   D2A70612  35.980   4.556   6.663
 5524POPC   C3A70613  36.244   4.333   6.999
 5524POPC   C4A70614  36.573   4.431   7.349
 5524POPC   C1B70615  35.596   4.007   6.210
 5524POPC   C2B70616  35.664   4.155   6.631
 5524POPC   C3B70617  35.796   4.062   7.064
 5524POPC   C4B70618  35.794   3.809   7.451
 5525POPC   NC370619   2.703  35.088   5.398
 5525POPC   PO470620   3.099  35.608   5.436
 5525POPC   GL170621   2.991  35.269   5.808
 5525POPC   GL270622   2.620  35.147   5.903
 5525POPC   C1A70623   2.914  35.286   6.297
 5525POPC   D2A70624   2.982  35.577   6.654
 5525POPC   C3A70625   2.802  35.506   7.064
 5525POPC   C4A70626   2.892  35.469   7.534
 5525POPC   C1B70627   2.416  35.089   6.329
 5525POPC   C2B70628   2.640  35.070   6.755
 5525POPC   C3B70629   2.808  35.029   7.191
 5525POPC   C4B70630   2.673  35.021   7.615
 5526POPC   NC370631  32.951  18.770   5.359
 5526POPC   PO470632  33.312  19.384   5.343
 5526POPC   GL170633  33.105  19.166   5.696
 5526POPC   GL270634  33.283  18.847   5.740
 5526POPC   C1A70635  32.841  19.160   6.095
 5526POPC   D2A70636  32.938  19.197   6.547
 5526POPC   C3A70637  32.800  19.085   6.929
 5526POPC   C4A70638  32.953  19.330   7.260
 5526POPC   C1B70639  33.300  18.707   6.173
 5526POPC   C2B70640  33.103  18.711   6.591
 5526POPC   C3B70641  33.260  18.898   6.953
 5526POPC   C4B70642  33.079  18.847   7.316
 5527POPC   NC370643  24.685  36.511   4.991
 5527POPC   PO470644  24.390  37.048   5.266
 5527POPC   GL170645  24.564  37.092   5.676
 5527POPC   GL270646  24.259  37.205   5.803
 5527POPC   C1A70647  24.764  36.920   6.090
 5527POPC   D2A70648  24.585  36.758   6.520
 5527POPC   C3A70649  24.754  37.013   6.849
 5527POPC   C4A70650  24.799  36.874   7.228
 5527POPC   C1B70651  24.276  37.011   6.180
 5527POPC   C2B70652  24.385  37.229   6.552
 5527POPC   C3B70653  24.255  36.984   6.905
 5527POPC   C4B70654  24.326  37.092   7.298
 5528POPC   NC370655   4.308  39.710   5.587
 5528POPC   PO470656   4.164  40.361   5.440
 5528POPC   GL170657   4.444  40.211   5.761
 5528POPC   GL270658   4.133  40.116   5.920
 5528POPC   C1A70659   4.551  39.956   6.151
 5528POPC   D2A70660   4.209  39.900   6.433
 5528POPC   C3A70661   4.216  39.800   6.853
 5528POPC   C4A70662   4.483  39.739   7.198
 5528POPC   C1B70663   4.365  40.417   6.233
 5528POPC   C2B70664   4.656  40.249   6.567
 5528POPC   C3B70665   4.631  40.189   6.991
 5528POPC   C4B70666   4.225  40.172   7.184
 5529POPC   NC370667  24.928  41.545   5.448
 5529POPC   PO470668  24.266  41.569   5.493
 5529POPC   GL170669  24.240  41.697   5.922
 5529POPC   GL270670  24.296  41.368   5.976
 5529POPC   C1A70671  24.357  41.650   6.392
 5529POPC   D2A70672  24.763  41.639   6.639
 5529POPC   C3A70673  24.759  41.593   7.089
 5529POPC   C4A70674  24.347  41.654   7.270
 5529POPC   C1B70675  24.158  41.060   6.239
 5529POPC   C2B70676  23.949  41.178   6.594
 5529POPC   C3B70677  24.107  41.376   6.931
 5529POPC   C4B70678  24.193  41.139   7.304
 5530POPC   NC370679  20.394  29.454   5.389
 5530POPC   PO470680  20.901  29.064   5.661
 5530POPC   GL170681  20.792  29.419   5.868
 5530POPC   GL270682  20.434  29.352   5.895
 5530POPC   C1A70683  20.758  29.365   6.316
 5530POPC   D2A70684  20.823  28.975   6.535
 5530POPC   C3A70685  20.533  29.065   6.835
 5530POPC   C4A70686  20.572  29.318   7.209
 5530POPC   C1B70687  20.427  28.983   6.183
 5530POPC   C2B70688  20.167  28.836   6.524
 5530POPC   C3B70689  20.175  28.666   6.945
 5530POPC   C4B70690  20.443  28.836   7.280
 5531POPC   NC370691   4.584   3.563   5.396
 5531POPC   PO470692   4.052   3.945   5.414
 5531POPC   GL170693   4.085   3.603   5.767
 5531POPC   GL270694   4.262   3.305   5.702
 5531POPC   C1A70695   4.124   3.338   6.182
 5531POPC   D2A70696   4.015   3.471   6.584
 5531POPC   C3A70697   4.139   3.410   6.992
 5531POPC   C4A70698   4.179   3.700   7.372
 5531POPC   C1B70699   4.542   3.537   6.022
 5531POPC   C2B70700   4.638   3.475   6.446
 5531POPC   C3B70701   4.644   3.430   6.875
 5531POPC   C4B70702   4.521   3.305   7.294
 5532POPC   NC370703  26.571  25.928   5.401
 5532POPC   PO470704  26.981  26.505   5.423
 5532POPC   GL170705  26.972  26.167   5.718
 5532POPC   GL270706  26.635  26.121   5.867
 5532POPC   C1A70707  27.056  25.835   6.019
 5532POPC   D2A70708  26.763  25.754   6.366
 5532POPC   C3A70709  26.899  25.913   6.765
 5532POPC   C4A70710  26.937  25.779   7.201
 5532POPC   C1B70711  26.836  26.270   6.247
 5532POPC   C2B70712  26.697  26.431   6.654
 5532POPC   C3B70713  26.756  26.321   7.093
 5532POPC   C4B70714  26.394  26.288   7.351
 5533POPC   NC370715  17.995  37.211   5.372
 5533POPC   PO470716  18.339  36.643   5.243
 5533POPC   GL170717  18.186  36.814   5.695
 5533POPC   GL270718  18.409  37.072   5.869
 5533POPC   C1A70719  18.128  36.806   6.190
 5533POPC   D2A70720  18.147  36.944   6.635
 5533POPC   C3A70721  18.093  36.669   6.970
 5533POPC   C4A70722  18.465  36.491   7.138
 5533POPC   C1B70723  18.249  37.287   6.261
 5533POPC   C2B70724  17.935  37.396   6.613
 5533POPC   C3B70725  17.967  37.221   7.084
 5533POPC   C4B70726  17.915  37.260   7.603
 5534POPC   NC370727  14.736   8.376   5.134
 5534POPC   PO470728  14.139   8.296   5.325
 5534POPC   GL170729  14.214   8.174   5.779
 5534POPC   GL270730  13.934   8.030   5.904
 5534POPC   C1A70731  14.253   8.182   6.286
 5534POPC   D2A70732  14.284   8.393   6.744
 5534POPC   C3A70733  14.410   8.317   7.209
 5534POPC   C4A70734  14.174   8.437   7.602
 5534POPC   C1B70735  13.819   7.880   6.286
 5534POPC   C2B70736  13.953   8.011   6.683
 5534POPC   C3B70737  14.156   7.894   7.059
 5534POPC   C4B70738  14.061   7.956   7.493
 5535POPC   NC370739  13.458  29.730   5.087
 5535POPC   PO470740  13.300  29.123   5.458
 5535POPC   GL170741  13.644  29.129   5.789
 5535POPC   GL270742  13.917  28.860   5.837
 5535POPC   C1A70743  13.679  29.110   6.245
 5535POPC   D2A70744  13.693  29.329   6.635
 5535POPC   C3A70745  13.554  29.120   7.009
 5535POPC   C4A70746  13.353  29.439   7.239
 5535POPC   C1B70747  14.181  29.019   6.173
 5535POPC   C2B70748  14.098  29.027   6.610
 5535POPC   C3B70749  14.060  29.247   7.023
 5535POPC   C4B70750  13.996  28.880   7.251
 5536POPC   NC370751  13.477  15.485   5.284
 5536POPC   PO470752  13.350  14.759   5.415
 5536POPC   GL170753  13.419  14.977   5.798
 5536POPC   GL270754  13.373  15.324   5.755
 5536POPC   C1A70755  13.575  14.955   6.236
 5536POPC   D2A70756  13.427  15.097   6.631
 5536POPC   C3A70757  13.527  14.970   7.059
 5536POPC   C4A70758  13.720  14.983   7.445
 5536POPC   C1B70759  13.607  15.467   6.098
 5536POPC   C2B70760  13.821  15.409   6.496
 5536POPC   C3B70761  13.891  15.280   6.918
 5536POPC   C4B70762  13.920  15.445   7.331
 5537POPC   NC370763   1.726  17.901   5.178
 5537POPC   PO470764   2.216  18.308   5.318
 5537POPC   GL170765   2.004  18.245   5.784
 5537POPC   GL270766   1.758  18.533   5.850
 5537POPC   C1A70767   1.960  18.064   6.262
 5537POPC   D2A70768   2.055  17.832   6.671
 5537POPC   C3A70769   2.029  18.057   7.071
 5537POPC   C4A70770   2.324  18.291   7.359
 5537POPC   C1B70771   1.564  18.692   6.232
 5537POPC   C2B70772   1.376  18.560   6.652
 5537POPC   C3B70773   1.549  18.578   7.094
 5537POPC   C4B70774   1.626  18.744   7.525
 5538POPC   NC370775  27.099   5.591   5.741
 5538POPC   PO470776  26.962   4.981   5.422
 5538POPC   GL170777  26.793   4.942   5.835
 5538POPC   GL270778  26.861   4.595   5.879
 5538POPC   C1A70779  26.684   5.140   6.246
 5538POPC   D2A70780  26.834   5.277   6.649
 5538POPC   C3A70781  26.557   5.226   6.978
 5538POPC   C4A70782  26.744   5.202   7.375
 5538POPC   C1B70783  26.722   4.481   6.269
 5538POPC   C2B70784  26.752   4.766   6.617
 5538POPC   C3B70785  26.885   4.804   7.038
 5538POPC   C4B70786  26.721   4.683   7.433
 5539POPC   NC370787  22.047  41.103   5.339
 5539POPC   PO470788  22.401  40.569   5.398
 5539POPC   GL170789  22.151  40.583   5.762
 5539POPC   GL270790  21.956  40.869   5.780
 5539POPC   C1A70791  22.031  40.430   6.164
 5539POPC   D2A70792  22.243  40.506   6.545
 5539POPC   C3A70793  22.014  40.489   6.940
 5539POPC   C4A70794  22.330  40.593   7.278
 5539POPC   C1B70795  22.202  40.916   6.175
 5539POPC   C2B70796  22.158  41.048   6.620
 5539POPC   C3B70797  22.042  40.978   7.076
 5539POPC   C4B70798  22.017  40.900   7.564
 5540POPC   NC370799   7.941   8.054   5.447
 5540POPC   PO470800   8.225   8.666   5.405
 5540POPC   GL170801   8.000   8.491   5.762
 5540POPC   GL270802   8.273   8.278   5.790
 5540POPC   C1A70803   8.056   8.401   6.232
 5540POPC   D2A70804   8.037   8.091   6.582
 5540POPC   C3A70805   8.081   8.292   7.008
 5540POPC   C4A70806   8.009   7.995   7.324
 5540POPC   C1B70807   8.431   7.958   6.033
 5540POPC   C2B70808   8.543   7.856   6.442
 5540POPC   C3B70809   8.510   8.101   6.791
 5540POPC   C4B70810   8.513   8.087   7.211
 5541POPC   NC370811  11.845  39.440   5.277
 5541POPC   PO470812  12.371  39.164   5.397
 5541POPC   GL170813  12.120  39.369   5.715
 5541POPC   GL270814  12.376  39.535   5.882
 5541POPC   C1A70815  11.971  39.354   6.169
 5541POPC   D2A70816  12.050  38.997   6.497
 5541POPC   C3A70817  11.955  39.081   6.943
 5541POPC   C4A70818  12.154  39.394   7.214
 5541POPC   C1B70819  12.389  39.069   6.046
 5541POPC   C2B70820  12.580  38.920   6.425
 5541POPC   C3B70821  12.491  39.071   6.824
 5541POPC   C4B70822  12.438  38.952   7.227
 5542POPC   NC370823  13.251   5.432   5.002
 5542POPC   PO470824  12.744   5.238   5.425
 5542POPC   GL170825  12.799   5.239   5.838
 5542POPC   GL270826  12.780   5.556   5.947
 5542POPC   C1A70827  12.907   5.201   6.283
 5542POPC   D2A70828  13.043   5.231   6.698
 5542POPC   C3A70829  12.768   4.980   6.937
 5542POPC   C4A70830  12.637   5.074   7.347
 5542POPC   C1B70831  13.120   5.666   6.281
 5542POPC   C2B70832  13.340   5.679   6.665
 5542POPC   C3B70833  13.253   5.550   7.048
 5542POPC   C4B70834  13.120   5.200   7.216
 5543POPC   NC370835   6.869  26.950   5.588
 5543POPC   PO470836   7.169  26.443   5.259
 5543POPC   GL170837   7.217  26.563   5.728
 5543POPC   GL270838   7.357  26.913   5.763
 5543POPC   C1A70839   7.133  26.737   6.194
 5543POPC   D2A70840   6.988  26.747   6.653
 5543POPC   C3A70841   7.238  26.603   7.004
 5543POPC   C4A70842   7.190  26.712   7.436
 5543POPC   C1B70843   7.520  27.087   6.169
 5543POPC   C2B70844   7.321  27.118   6.586
 5543POPC   C3B70845   7.136  27.107   7.018
 5543POPC   C4B70846   7.436  27.145   7.357
 5544POPC   NC370847  33.131   5.829   5.380
 5544POPC   PO470848  32.534   6.155   5.610
 5544POPC   GL170849  32.830   6.141   5.894
 5544POPC   GL270850  32.936   5.824   5.861
 5544POPC   C1A70851  33.092   6.119   6.268
 5544POPC   D2A70852  33.086   5.953   6.684
 5544POPC   C3A70853  33.114   6.170   7.076
 5544POPC   C4A70854  33.046   5.999   7.497
 5544POPC   C1B70855  32.941   5.576   6.255
 5544POPC   C2B70856  33.169   5.454   6.648
 5544POPC   C3B70857  33.112   5.626   7.091
 5544POPC   C4B70858  33.061   5.490   7.538
 5545POPC   NC370859  43.632   3.879   5.396
 5545POPC   PO470860  43.634   3.225   5.361
 5545POPC   GL170861  43.800   3.474   5.722
 5545POPC   GL270862  44.055   3.740   5.740
 5545POPC   C1A70863  43.707   3.460   6.159
 5545POPC   D2A70864  43.720   3.705   6.540
 5545POPC   C3A70865  43.567   3.576   6.920
 5545POPC   C4A70866  43.782   3.496   7.249
 5545POPC   C1B70867  44.036   3.917   6.171
 5545POPC   C2B70868  44.035   4.115   6.582
 5545POPC   C3B70869  43.971   3.913   6.984
 5545POPC   C4B70870  44.233   3.764   7.340
 5546POPC   NC370871  13.499  40.773   5.281
 5546POPC   PO470872  14.127  40.752   5.174
 5546POPC   GL170873  13.816  40.626   5.658
 5546POPC   GL270874  13.525  40.878   5.775
 5546POPC   C1A70875  13.554  40.502   6.073
 5546POPC   D2A70876  13.441  40.378   6.483
 5546POPC   C3A70877  13.428  40.684   6.861
 5546POPC   C4A70878  13.520  40.717   7.308
 5546POPC   C1B70879  13.409  41.023   6.207
 5546POPC   C2B70880  13.196  41.096   6.626
 5546POPC   C3B70881  13.308  41.160   7.075
 5546POPC   C4B70882  13.346  41.127   7.540
 5547POPC   NC370883  20.570  21.972   5.039
 5547POPC   PO470884  20.650  21.489   5.478
 5547POPC   GL170885  20.734  21.220   5.862
 5547POPC   GL270886  21.090  21.117   5.874
 5547POPC   C1A70887  20.603  21.188   6.334
 5547POPC   D2A70888  20.571  21.322   6.812
 5547POPC   C3A70889  20.296  21.349   7.177
 5547POPC   C4A70890  20.344  21.308   7.648
 5547POPC   C1B70891  21.082  21.355   6.263
 5547POPC   C2B70892  21.051  21.405   6.698
 5547POPC   C3B70893  20.976  21.536   7.112
 5547POPC   C4B70894  20.752  21.221   7.338
 5548POPC   NC370895  21.222  17.240   5.532
 5548POPC   PO470896  21.524  17.778   5.453
 5548POPC   GL170897  21.396  17.636   5.817
 5548POPC   GL270898  21.078  17.822   5.800
 5548POPC   C1A70899  21.626  17.435   6.175
 5548POPC   D2A70900  21.563  17.539   6.601
 5548POPC   C3A70901  21.627  17.296   6.966
 5548POPC   C4A70902  21.694  17.599   7.292
 5548POPC   C1B70903  21.126  17.687   6.252
 5548POPC   C2B70904  21.064  17.642   6.693
 5548POPC   C3B70905  21.169  17.632   7.114
 5548POPC   C4B70906  20.988  17.636   7.520
 5549POPC   NC370907  23.239   3.008   5.543
 5549POPC   PO470908  22.695   2.662   5.377
 5549POPC   GL170909  22.861   2.722   5.738
 5549POPC   GL270910  22.754   3.063   5.754
 5549POPC   C1A70911  23.019   2.737   6.127
 5549POPC   D2A70912  22.944   2.841   6.510
 5549POPC   C3A70913  23.192   2.698   6.797
 5549POPC   C4A70914  23.100   2.799   7.181
 5549POPC   C1B70915  22.533   2.996   6.140
 5549POPC   C2B70916  22.555   3.156   6.564
 5549POPC   C3B70917  22.804   3.129   6.922
 5549POPC   C4B70918  22.631   3.025   7.299
 5550POPC   NC370919   6.848  37.568   5.415
 5550POPC   PO470920   6.199  37.719   5.428
 5550POPC   GL170921   6.469  37.583   5.763
 5550POPC   GL270922   6.809  37.758   5.889
 5550POPC   C1A70923   6.562  37.400   6.154
 5550POPC   D2A70924   6.559  37.584   6.554
 5550POPC   C3A70925   6.197  37.496   6.788
 5550POPC   C4A70926   6.186  37.525   7.207
 5550POPC   C1B70927   7.078  37.491   6.180
 5550POPC   C2B70928   6.997  37.306   6.586
 5550POPC   C3B70929   6.911  37.505   6.977
 5550POPC   C4B70930   7.136  37.455   7.322
 5551POPC   NC370931  34.085  23.190   5.122
 5551POPC   PO470932  33.664  23.589   5.448
 5551POPC   GL170933  33.812  23.609   5.857
 5551POPC   GL270934  33.465  23.528   5.965
 5551POPC   C1A70935  33.918  23.781   6.272
 5551POPC   D2A70936  33.755  24.038   6.624
 5551POPC   C3A70937  33.649  23.761   6.968
 5551POPC   C4A70938  33.928  23.601   7.358
 5551POPC   C1B70939  33.507  23.520   6.416
 5551POPC   C2B70940  33.877  23.390   6.655
 5551POPC   C3B70941  33.763  23.264   7.029
 5551POPC   C4B70942  33.377  23.464   7.267
 5552POPC   NC370943   7.808  21.587   5.490
 5552POPC   PO470944   8.508  21.383   5.497
 5552POPC   GL170945   8.191  21.370   5.830
 5552POPC   GL270946   7.897  21.162   5.824
 5552POPC   C1A70947   8.328  21.302   6.250
 5552POPC   D2A70948   8.521  21.535   6.565
 5552POPC   C3A70949   8.443  21.301   6.926
 5552POPC   C4A70950   8.184  21.535   7.208
 5552POPC   C1B70951   7.820  21.252   6.278
 5552POPC   C2B70952   7.994  21.380   6.692
 5552POPC   C3B70953   7.921  21.144   7.081
 5552POPC   C4B70954   7.872  20.960   7.471
 5553POPC   NC370955  25.096  37.157   5.560
 5553POPC   PO470956  25.286  36.511   5.517
 5553POPC   GL170957  25.391  36.696   5.881
 5553POPC   GL270958  25.394  37.044   5.961
 5553POPC   C1A70959  25.217  36.585   6.233
 5553POPC   D2A70960  25.075  36.837   6.497
 5553POPC   C3A70961  25.121  36.654   6.895
 5553POPC   C4A70962  25.399  36.755   7.233
 5553POPC   C1B70963  25.431  37.215   6.361
 5553POPC   C2B70964  25.216  37.231   6.776
 5553POPC   C3B70965  25.188  37.223   7.198
 5553POPC   C4B70966  25.521  37.211   7.506
 5554POPC   NC370967  14.198  13.115   5.517
 5554POPC   PO470968  14.567  12.716   5.134
 5554POPC   GL170969  14.516  12.746   5.628
 5554POPC   GL270970  14.475  12.470   5.817
 5554POPC   C1A70971  14.400  12.946   6.083
 5554POPC   D2A70972  14.461  13.042   6.523
 5554POPC   C3A70973  14.188  12.959   6.861
 5554POPC   C4A70974  14.396  12.797   7.189
 5554POPC   C1B70975  14.497  12.483   6.289
 5554POPC   C2B70976  14.517  12.541   6.746
 5554POPC   C3B70977  14.790  12.499   7.112
 5554POPC   C4B70978  14.745  12.625   7.571
 5555POPC   NC370979   4.138  33.304   5.598
 5555POPC   PO470980   4.700  33.100   5.242
 5555POPC   GL170981   4.543  32.990   5.680
 5555POPC   GL270982   4.641  33.224   5.960
 5555POPC   C1A70983   4.283  32.885   6.072
 5555POPC   D2A70984   4.427  32.860   6.505
 5555POPC   C3A70985   4.217  32.791   6.889
 5555POPC   C4A70986   4.405  32.672   7.307
 5555POPC   C1B70987   4.387  33.365   6.298
 5555POPC   C2B70988   4.357  33.295   6.734
 5555POPC   C3B70989   4.313  33.221   7.151
 5555POPC   C4B70990   4.582  33.149   7.436
 5556POPC   NC370991  43.612   8.464   5.353
 5556POPC   PO470992  43.938   7.871   5.432
 5556POPC   GL170993  43.774   8.066   5.852
 5556POPC   GL270994  43.591   8.361   5.844
 5556POPC   C1A70995  43.674   8.123   6.337
 5556POPC   D2A70996  43.919   7.943   6.688
 5556POPC   C3A70997  43.743   7.946   7.106
 5556POPC   C4A70998  43.767   8.053   7.558
 5556POPC   C1B70999  43.771   8.643   6.116
 5556POPC   C2B71000  43.906   8.675   6.520
 5556POPC   C3B71001  43.811   8.422   6.844
 5556POPC   C4B71002  43.857   8.489   7.252
 5557POPC   NC371003  24.719  32.149   5.424
 5557POPC   PO471004  24.036  32.348   5.200
 5557POPC   GL171005  24.353  32.491   5.620
 5557POPC   GL271006  24.486  32.215   5.888
 5557POPC   C1A71007  24.262  32.623   6.102
 5557POPC   D2A71008  24.103  32.631   6.573
 5557POPC   C3A71009  24.328  32.390   6.915
 5557POPC   C4A71010  24.683  32.251   7.210
 5557POPC   C1B71011  24.306  31.917   6.242
 5557POPC   C2B71012  24.365  31.863   6.710
 5557POPC   C3B71013  24.249  31.929   7.136
 5557POPC   C4B71014  24.481  31.944   7.571
 5558POPC   NC371015  12.313  31.977   5.460
 5558POPC   PO471016  11.724  32.384   5.344
 5558POPC   GL171017  11.872  32.227   5.741
 5558POPC   GL271018  12.144  32.407   5.841
 5558POPC   C1A71019  11.862  32.130   6.200
 5558POPC   D2A71020  12.003  32.126   6.672
 5558POPC   C3A71021  11.718  32.170   7.065
 5558POPC   C4A71022  11.694  32.074   7.519
 5558POPC   C1B71023  12.277  32.410   6.314
 5558POPC   C2B71024  12.417  32.402   6.778
 5558POPC   C3B71025  12.599  32.162   7.144
 5558POPC   C4B71026  12.535  32.323   7.581
 5559POPC   NC371027   2.453  14.943   5.445
 5559POPC   PO471028   3.108  15.158   5.501
 5559POPC   GL171029   3.014  15.019   5.922
 5559POPC   GL271030   2.738  14.852   5.854
 5559POPC   C1A71031   2.871  15.057   6.368
 5559POPC   D2A71032   2.553  15.346   6.565
 5559POPC   C3A71033   2.715  15.461   6.968
 5559POPC   C4A71034   3.049  15.171   7.099
 5559POPC   C1B71035   2.419  14.999   6.155
 5559POPC   C2B71036   2.319  14.869   6.570
 5559POPC   C3B71037   2.594  14.942   6.903
 5559POPC   C4B71038   2.580  15.092   7.334
 5560POPC   NC371039  34.736   3.483   5.321
 5560POPC   PO471040  34.108   3.745   5.449
 5560POPC   GL171041  34.454   3.592   5.777
 5560POPC   GL271042  34.713   3.331   5.802
 5560POPC   C1A71043  34.683   3.639   6.220
 5560POPC   D2A71044  34.857   3.733   6.650
 5560POPC   C3A71045  34.581   3.705   6.969
 5560POPC   C4A71046  34.552   3.904   7.354
 5560POPC   C1B71047  34.608   3.116   6.177
 5560POPC   C2B71048  34.608   2.949   6.581
 5560POPC   C3B71049  34.622   3.169   6.964
 5560POPC   C4B71050  34.691   3.381   7.354
 5561POPC   NC371051  31.118   1.049   5.475
 5561POPC   PO471052  31.454   0.434   5.243
 5561POPC   GL171053  31.648   0.438   5.672
 5561POPC   GL271054  31.585   0.735   5.767
 5561POPC   C1A71055  31.618   0.362   6.151
 5561POPC   D2A71056  31.330   0.396   6.524
 5561POPC   C3A71057  31.519   0.433   6.928
 5561POPC   C4A71058  31.493   0.281   7.348
 5561POPC   C1B71059  31.820   0.837   6.139
 5561POPC   C2B71060  31.728   0.720   6.557
 5561POPC   C3B71061  31.773   0.891   6.954
 5561POPC   C4B71062  31.834   0.952   7.383
 5562POPC   NC371063  17.197  40.955   5.457
 5562POPC   PO471064  16.512  41.010   5.699
 5562POPC   GL171065  16.853  40.778   5.815
 5562POPC   GL271066  17.070  41.064   5.937
 5562POPC   C1A71067  16.812  40.424   6.087
 5562POPC   D2A71068  16.736  40.393   6.511
 5562POPC   C3A71069  16.848  40.705   6.814
 5562POPC   C4A71070  16.777  40.581   7.238
 5562POPC   C1B71071  16.823  40.914   6.312
 5562POPC   C2B71072  16.488  41.046   6.577
 5562POPC   C3B71073  16.529  41.079   7.011
 5562POPC   C4B71074  16.860  41.073   7.267
 5563POPC   NC371075  30.579  20.772   4.980
 5563POPC   PO471076  31.175  20.593   5.353
 5563POPC   GL171077  30.973  20.616   5.801
 5563POPC   GL271078  30.635  20.761   5.801
 5563POPC   C1A71079  30.759  20.445   6.170
 5563POPC   D2A71080  30.898  20.569   6.539
 5563POPC   C3A71081  30.686  20.466   6.859
 5563POPC   C4A71082  30.732  20.488   7.284
 5563POPC   C1B71083  30.747  20.943   6.178
 5563POPC   C2B71084  30.528  20.901   6.576
 5563POPC   C3B71085  30.516  20.911   7.044
 5563POPC   C4B71086  30.500  20.990   7.522
 5564POPC   NC371087  42.769   5.474   5.427
 5564POPC   PO471088  43.355   4.975   5.566
 5564POPC   GL171089  43.185   5.011   5.949
 5564POPC   GL271090  42.967   5.252   5.848
 5564POPC   C1A71091  42.962   4.856   6.311
 5564POPC   D2A71092  42.812   4.973   6.707
 5564POPC   C3A71093  42.831   4.748   7.089
 5564POPC   C4A71094  42.956   4.896   7.509
 5564POPC   C1B71095  43.163   5.450   6.222
 5564POPC   C2B71096  43.202   5.296   6.642
 5564POPC   C3B71097  43.181   5.149   7.076
 5564POPC   C4B71098  42.953   5.421   7.343
 5565POPC   NC371099  26.145  12.230   5.366
 5565POPC   PO471100  26.033  11.656   5.616
 5565POPC   GL171101  25.904  11.968   5.864
 5565POPC   GL271102  26.111  12.254   5.868
 5565POPC   C1A71103  25.886  11.919   6.298
 5565POPC   D2A71104  25.674  11.750   6.655
 5565POPC   C3A71105  25.900  11.912   6.995
 5565POPC   C4A71106  25.717  12.194   7.262
 5565POPC   C1B71107  26.353  12.112   6.208
 5565POPC   C2B71108  26.281  11.990   6.633
 5565POPC   C3B71109  26.406  12.105   7.018
 5565POPC   C4B71110  26.205  12.299   7.358
 5566POPC   NC371111  13.404  36.254   5.288
 5566POPC   PO471112  13.977  35.957   5.243
 5566POPC   GL171113  13.829  36.212   5.680
 5566POPC   GL271114  13.495  36.397   5.762
 5566POPC   C1A71115  13.886  36.224   6.185
 5566POPC   D2A71116  14.061  36.141   6.652
 5566POPC   C3A71117  13.869  36.178   7.103
 5566POPC   C4A71118  13.692  36.032   7.544
 5566POPC   C1B71119  13.374  36.201   6.126
 5566POPC   C2B71120  13.456  36.384   6.526
 5566POPC   C3B71121  13.347  36.314   6.950
 5566POPC   C4B71122  13.517  36.473   7.322
 5567POPC   NC371123  34.661  14.769   5.324
 5567POPC   PO471124  34.334  15.372   5.356
 5567POPC   GL171125  34.525  15.122   5.696
 5567POPC   GL271126  34.294  14.865   5.690
 5567POPC   C1A71127  34.629  15.035   6.127
 5567POPC   D2A71128  34.797  15.108   6.543
 5567POPC   C3A71129  34.601  15.197   6.920
 5567POPC   C4A71130  34.745  15.319   7.338
 5567POPC   C1B71131  34.160  14.824   6.116
 5567POPC   C2B71132  34.390  14.714   6.489
 5567POPC   C3B71133  34.373  14.684   6.938
 5567POPC   C4B71134  34.400  14.908   7.316
 5568POPC   NC371135  30.374  37.331   5.472
 5568POPC   PO471136  30.581  36.709   5.272
 5568POPC   GL171137  30.810  36.723   5.685
 5568POPC   GL271138  30.728  37.062   5.820
 5568POPC   C1A71139  30.743  36.617   6.151
 5568POPC   D2A71140  30.563  36.581   6.556
 5568POPC   C3A71141  30.805  36.586   6.925
 5568POPC   C4A71142  30.819  36.906   7.256
 5568POPC   C1B71143  30.605  37.093   6.273
 5568POPC   C2B71144  30.711  37.068   6.730
 5568POPC   C3B71145  30.844  37.383   7.063
 5568POPC   C4B71146  30.624  37.326   7.457
 5569POPC   NC371147   6.494  25.453   5.560
 5569POPC   PO471148   6.951  25.013   5.543
 5569POPC   GL171149   6.923  24.984   5.929
 5569POPC   GL271150   6.738  25.272   5.965
 5569POPC   C1A71151   6.907  24.946   6.365
 5569POPC   D2A71152   6.969  25.269   6.655
 5569POPC   C3A71153   6.766  25.299   7.058
 5569POPC   C4A71154   6.721  25.426   7.462
 5569POPC   C1B71155   6.569  25.386   6.337
 5569POPC   C2B71156   6.492  25.094   6.647
 5569POPC   C3B71157   6.370  24.977   7.037
 5569POPC   C4B71158   6.413  25.012   7.502
 5570POPC   NC371159   5.059  25.072   5.346
 5570POPC   PO471160   5.326  25.689   5.280
 5570POPC   GL171161   5.270  25.419   5.689
 5570POPC   GL271162   4.918  25.295   5.769
 5570POPC   C1A71163   5.217  25.358   6.156
 5570POPC   D2A71164   4.985  25.263   6.525
 5570POPC   C3A71165   5.042  25.478   6.886
 5570POPC   C4A71166   4.854  25.473   7.264
 5570POPC   C1B71167   4.770  25.025   6.121
 5570POPC   C2B71168   4.625  24.906   6.570
 5570POPC   C3B71169   4.718  24.973   7.011
 5570POPC   C4B71170   4.953  24.766   7.333
 5571POPC   NC371171  14.180  12.352   5.320
 5571POPC   PO471172  14.735  11.970   5.087
 5571POPC   GL171173  14.560  12.012   5.571
 5571POPC   GL271174  14.817  11.849   5.766
 5571POPC   C1A71175  14.283  12.051   6.008
 5571POPC   D2A71176  14.152  11.856   6.431
 5571POPC   C3A71177  14.309  12.060   6.834
 5571POPC   C4A71178  14.277  12.292   7.219
 5571POPC   C1B71179  14.769  12.058   6.165
 5571POPC   C2B71180  14.894  12.232   6.547
 5571POPC   C3B71181  15.036  12.075   6.928
 5571POPC   C4B71182  14.710  11.999   7.218
 5572POPC   NC371183  41.058  31.668   5.292
 5572POPC   PO471184  40.524  31.339   5.513
 5572POPC   GL171185  40.770  31.647   5.779
 5572POPC   GL271186  41.166  31.629   5.781
 5572POPC   C1A71187  40.682  31.700   6.240
 5572POPC   D2A71188  40.480  31.794   6.650
 5572POPC   C3A71189  40.675  31.563   7.006
 5572POPC   C4A71190  40.776  31.163   7.223
 5572POPC   C1B71191  41.028  31.321   6.094
 5572POPC   C2B71192  40.990  31.296   6.547
 5572POPC   C3B71193  41.178  31.384   6.953
 5572POPC   C4B71194  41.243  31.705   7.253
 5573POPC   NC371195  20.459   1.417   5.459
 5573POPC   PO471196  20.493   2.070   5.459
 5573POPC   GL171197  20.535   1.796   5.818
 5573POPC   GL271198  20.855   1.722   5.841
 5573POPC   C1A71199  20.422   1.751   6.275
 5573POPC   D2A71200  20.663   1.813   6.677
 5573POPC   C3A71201  20.390   1.843   7.057
 5573POPC   C4A71202  20.082   2.111   7.242
 5573POPC   C1B71203  20.854   1.986   6.202
 5573POPC   C2B71204  20.866   2.298   6.558
 5573POPC   C3B71205  21.001   2.351   6.999
 5573POPC   C4B71206  20.805   2.088   7.355
 5574POPC   NC371207  18.588  36.982   5.395
 5574POPC   PO471208  19.176  37.195   5.442
 5574POPC   GL171209  18.928  37.085   5.772
 5574POPC   GL271210  18.844  36.712   5.752
 5574POPC   C1A71211  18.822  37.220   6.177
 5574POPC   D2A71212  18.639  37.140   6.572
 5574POPC   C3A71213  18.901  37.155   6.930
 5574POPC   C4A71214  18.812  36.859   7.266
 5574POPC   C1B71215  19.146  36.771   6.108
 5574POPC   C2B71216  19.155  36.922   6.534
 5574POPC   C3B71217  19.289  36.802   6.955
 5574POPC   C4B71218  19.500  36.426   7.038
 5575POPC   NC371219  24.664  42.838   5.435
 5575POPC   PO471220  24.314  43.414   5.295
 5575POPC   GL171221  24.499  43.260   5.726
 5575POPC   GL271222  24.257  43.536   5.855
 5575POPC   C1A71223  24.581  43.035   6.167
 5575POPC   D2A71224  24.448  42.903   6.609
 5575POPC   C3A71225  24.577  43.027   7.035
 5575POPC   C4A71226  24.655  42.929   7.509
 5575POPC   C1B71227  24.161  43.309   6.220
 5575POPC   C2B71228  24.001  43.354   6.609
 5575POPC   C3B71229  24.110  43.437   7.004
 5575POPC   C4B71230  24.284  43.246   7.383
 5576POPC   NC371231  41.816  36.303   5.523
 5576POPC   PO471232  42.518  36.061   5.572
 5576POPC   GL171233  42.191  36.148   5.851
 5576POPC   GL271234  41.983  35.863   5.755
 5576POPC   C1A71235  42.264  36.211   6.293
 5576POPC   D2A71236  42.535  36.032   6.617
 5576POPC   C3A71237  42.395  36.199   7.004
 5576POPC   C4A71238  42.089  36.536   7.102
 5576POPC   C1B71239  41.996  35.810   6.198
 5576POPC   C2B71240  42.018  35.980   6.705
 5576POPC   C3B71241  42.095  35.841   7.189
 5576POPC   C4B71242  42.049  35.734   7.664
 5577POPC   NC371243   0.876  13.138   5.598
 5577POPC   PO471244   1.209  12.586   5.485
 5577POPC   GL171245   1.176  12.808   5.863
 5577POPC   GL271246   0.846  12.896   6.048
 5577POPC   C1A71247   1.321  12.915   6.248
 5577POPC   D2A71248   1.059  12.919   6.575
 5577POPC   C3A71249   1.349  12.935   6.862
 5577POPC   C4A71250   1.339  12.946   7.278
 5577POPC   C1B71251   0.965  13.316   6.216
 5577POPC   C2B71252   0.927  13.537   6.592
 5577POPC   C3B71253   0.983  13.292   6.943
 5577POPC   C4B71254   0.853  13.229   7.332
 5578POPC   NC371255  27.218   8.901   5.293
 5578POPC   PO471256  26.602   9.133   5.296
 5578POPC   GL171257  26.672   9.110   5.786
 5578POPC   GL271258  26.854   9.419   5.893
 5578POPC   C1A71259  26.728   8.941   6.234
 5578POPC   D2A71260  26.951   8.854   6.656
 5578POPC   C3A71261  26.692   8.852   7.052
 5578POPC   C4A71262  26.479   8.479   7.220
 5578POPC   C1B71263  26.549   9.417   6.234
 5578POPC   C2B71264  26.549   9.219   6.644
 5578POPC   C3B71265  26.603   9.386   7.033
 5578POPC   C4B71266  26.893   9.273   7.298
 5579POPC   NC371267  33.694  44.484   5.378
 5579POPC   PO471268  34.246  44.250   5.721
 5579POPC   GL171269  33.870  44.548   5.850
 5579POPC   GL271270  33.870  44.937   5.878
 5579POPC   C1A71271  33.728  44.640   6.262
 5579POPC   D2A71272  34.010  44.464   6.553
 5579POPC   C3A71273  33.957  44.514   6.983
 5579POPC   C4A71274  33.687  44.513   7.372
 5579POPC   C1B71275  34.066   0.055   6.272
 5579POPC   C2B71276  33.821   0.000   6.660
 5579POPC   C3B71277  33.654  44.927   7.065
 5579POPC   C4B71278  34.083  44.951   7.224
 5580POPC   NC371279  37.138  44.116   5.333
 5580POPC   PO471280  36.497  43.990   5.310
 5580POPC   GL171281  36.747  44.217   5.699
 5580POPC   GL271282  37.155  44.287   5.791
 5580POPC   C1A71283  36.825  43.996   6.107
 5580POPC   D2A71284  36.690  43.790   6.515
 5580POPC   C3A71285  36.723  43.998   6.936
 5580POPC   C4A71286  36.629  43.822   7.345
 5580POPC   C1B71287  37.333  44.115   6.153
 5580POPC   C2B71288  37.218  43.906   6.548
 5580POPC   C3B71289  37.284  43.978   6.999
 5580POPC   C4B71290  37.166  43.915   7.448
 5581POPC   NC371291  14.422  41.119   5.110
 5581POPC   PO471292  14.356  40.625   5.610
 5581POPC   GL171293  14.442  40.874   5.904
 5581POPC   GL271294  14.110  40.873   6.020
 5581POPC   C1A71295  14.526  40.699   6.307
 5581POPC   D2A71296  14.375  40.469   6.662
 5581POPC   C3A71297  14.413  40.656   7.019
 5581POPC   C4A71298  14.720  40.805   7.221
 5581POPC   C1B71299  14.045  40.496   6.242
 5581POPC   C2B71300  13.879  40.631   6.616
 5581POPC   C3B71301  13.925  40.833   6.985
 5581POPC   C4B71302  14.033  40.649   7.363
 5582POPC   NC371303   5.953  17.875   5.176
 5582POPC   PO471304   5.971  18.588   5.349
 5582POPC   GL171305   6.047  18.575   5.792
 5582POPC   GL271306   6.156  18.907   5.821
 5582POPC   C1A71307   5.901  18.385   6.214
 5582POPC   D2A71308   5.526  18.470   6.508
 5582POPC   C3A71309   5.463  18.227   6.925
 5582POPC   C4A71310   5.782  18.160   7.261
 5582POPC   C1B71311   6.233  18.773   6.235
 5582POPC   C2B71312   6.160  18.554   6.633
 5582POPC   C3B71313   6.224  18.296   7.023
 5582POPC   C4B71314   6.255  18.283   7.503
 5583POPC   NC371315  12.512  36.194   5.592
 5583POPC   PO471316  13.097  35.880   5.349
 5583POPC   GL171317  12.979  36.027   5.789
 5583POPC   GL271318  12.970  36.380   5.845
 5583POPC   C1A71319  12.807  36.063   6.243
 5583POPC   D2A71320  12.576  35.943   6.666
 5583POPC   C3A71321  12.778  35.819   7.087
 5583POPC   C4A71322  12.813  35.991   7.535
 5583POPC   C1B71323  13.052  36.568   6.255
 5583POPC   C2B71324  12.920  36.397   6.623
 5583POPC   C3B71325  12.787  36.338   7.009
 5583POPC   C4B71326  13.024  36.381   7.341
 5584POPC   NC371327   8.823  42.562   5.446
 5584POPC   PO471328   8.571  41.910   5.511
 5584POPC   GL171329   8.895  42.109   5.830
 5584POPC   GL271330   9.092  42.444   5.855
 5584POPC   C1A71331   8.889  42.240   6.283
 5584POPC   D2A71332   8.548  42.427   6.556
 5584POPC   C3A71333   8.762  42.418   6.916
 5584POPC   C4A71334   8.834  42.136   7.210
 5584POPC   C1B71335   9.270  42.604   6.237
 5584POPC   C2B71336   9.329  42.443   6.668
 5584POPC   C3B71337   9.268  42.396   7.132
 5584POPC   C4B71338   9.300  42.601   7.581
 5585POPC   NC371339  14.354  14.092   5.371
 5585POPC   PO471340  14.337  14.748   5.572
 5585POPC   GL171341  14.451  14.366   5.785
 5585POPC   GL271342  14.155  14.102   5.841
 5585POPC   C1A71343  14.492  14.205   6.195
 5585POPC   D2A71344  14.207  14.310   6.524
 5585POPC   C3A71345  14.430  14.191   6.868
 5585POPC   C4A71346  14.626  14.270   7.254
 5585POPC   C1B71347  13.925  13.972   6.229
 5585POPC   C2B71348  13.837  13.996   6.698
 5585POPC   C3B71349  13.999  14.151   7.118
 5585POPC   C4B71350  14.174  14.237   7.541
 5586POPC   NC371351   1.944  25.924   5.164
 5586POPC   PO471352   2.334  26.428   5.478
 5586POPC   GL171353   2.281  26.093   5.794
 5586POPC   GL271354   1.972  25.878   5.751
 5586POPC   C1A71355   2.149  26.113   6.219
 5586POPC   D2A71356   2.152  25.948   6.625
 5586POPC   C3A71357   2.088  26.229   6.963
 5586POPC   C4A71358   2.207  26.149   7.416
 5586POPC   C1B71359   1.669  25.930   6.099
 5586POPC   C2B71360   1.678  26.079   6.504
 5586POPC   C3B71361   1.558  26.097   6.904
 5586POPC   C4B71362   1.718  26.101   7.284
 5587POPC   NC371363  11.838  26.714   5.400
 5587POPC   PO471364  12.508  26.897   5.279
 5587POPC   GL171365  12.251  26.757   5.739
 5587POPC   GL271366  11.882  26.861   5.860
 5587POPC   C1A71367  12.082  26.509   6.151
 5587POPC   D2A71368  11.925  26.426   6.589
 5587POPC   C3A71369  12.026  26.656   6.995
 5587POPC   C4A71370  12.082  26.860   7.405
 5587POPC   C1B71371  11.949  27.007   6.252
 5587POPC   C2B71372  11.801  26.974   6.666
 5587POPC   C3B71373  11.991  27.171   7.017
 5587POPC   C4B71374  11.829  27.391   7.359
 5588POPC   NC371375  36.498  41.160   5.376
 5588POPC   PO471376  36.253  41.808   5.225
 5588POPC   GL171377  36.129  41.586   5.633
 5588POPC   GL271378  36.386  41.402   5.803
 5588POPC   C1A71379  35.993  41.521   6.095
 5588POPC   D2A71380  36.091  41.822   6.401
 5588POPC   C3A71381  36.054  41.724   6.841
 5588POPC   C4A71382  36.279  41.759   7.227
 5588POPC   C1B71383  36.451  41.278   6.211
 5588POPC   C2B71384  36.198  41.284   6.581
 5588POPC   C3B71385  36.380  41.291   7.004
 5588POPC   C4B71386  36.336  41.289   7.457
 5589POPC   NC371387  29.739  35.031   5.427
 5589POPC   PO471388  30.220  34.570   5.256
 5589POPC   GL171389  30.074  34.505   5.700
 5589POPC   GL271390  29.738  34.361   5.688
 5589POPC   C1A71391  30.131  34.695   6.119
 5589POPC   D2A71392  30.382  34.683   6.501
 5589POPC   C3A71393  30.207  34.558   6.906
 5589POPC   C4A71394  30.114  34.495   7.349
 5589POPC   C1B71395  29.785  34.307   6.162
 5589POPC   C2B71396  29.812  34.594   6.546
 5589POPC   C3B71397  29.672  34.544   6.981
 5589POPC   C4B71398  29.724  34.125   7.129
 5590POPC   NC371399  44.257  23.222   5.468
 5590POPC   PO471400  43.778  22.734   5.448
 5590POPC   GL171401  43.929  22.638   5.822
 5590POPC   GL271402  44.140  22.901   5.849
 5590POPC   C1A71403  43.829  22.732   6.239
 5590POPC   D2A71404  43.647  23.045   6.489
 5590POPC   C3A71405  43.770  22.901   6.884
 5590POPC   C4A71406  43.715  22.993   7.296
 5590POPC   C1B71407  44.039  23.217   6.164
 5590POPC   C2B71408  44.122  23.215   6.619
 5590POPC   C3B71409  44.046  23.291   7.058
 5590POPC   C4B71410  44.138  23.180   7.508
 5591POPC   NC371411  23.712   9.303   5.230
 5591POPC   PO471412  23.625   8.653   5.339
 5591POPC   GL171413  23.692   8.919   5.737
 5591POPC   GL271414  23.723   9.305   5.732
 5591POPC   C1A71415  23.981   8.865   6.125
 5591POPC   D2A71416  24.008   8.567   6.497
 5591POPC   C3A71417  23.793   8.788   6.809
 5591POPC   C4A71418  23.972   9.076   7.144
 5591POPC   C1B71419  23.598   9.311   6.140
 5591POPC   C2B71420  23.795   9.225   6.521
 5591POPC   C3B71421  23.577   9.264   6.895
 5591POPC   C4B71422  23.723   9.555   7.188
 5592POPC   NC371423  18.088  44.431   5.298
 5592POPC   PO471424  18.411   0.006   5.449
 5592POPC   GL171425  18.160  44.849   5.766
 5592POPC   GL271426  18.017   0.101   5.946
 5592POPC   C1A71427  18.110  44.514   6.077
 5592POPC   D2A71428  18.318  44.460   6.470
 5592POPC   C3A71429  18.072  44.463   6.840
 5592POPC   C4A71430  18.061  44.275   7.238
 5592POPC   C1B71431  18.228  44.964   6.319
 5592POPC   C2B71432  18.378  44.890   6.735
 5592POPC   C3B71433  18.291  44.939   7.136
 5592POPC   C4B71434  18.017   0.229   7.234
 5593POPC   NC371435  30.395   7.873   5.220
 5593POPC   PO471436  29.829   8.100   5.476
 5593POPC   GL171437  29.688   8.230   5.848
 5593POPC   GL271438  30.012   8.234   5.968
 5593POPC   C1A71439  29.584   8.165   6.253
 5593POPC   D2A71440  29.558   7.833   6.527
 5593POPC   C3A71441  29.736   7.980   6.889
 5593POPC   C4A71442  29.900   8.367   7.093
 5593POPC   C1B71443  30.160   8.302   6.324
 5593POPC   C2B71444  30.153   8.210   6.679
 5593POPC   C3B71445  30.404   8.312   6.973
 5593POPC   C4B71446  30.385   8.735   7.120
 5594POPC   NC371447  29.702  31.303   5.620
 5594POPC   PO471448  29.021  31.350   5.509
 5594POPC   GL171449  29.126  31.502   5.904
 5594POPC   GL271450  29.458  31.520   6.000
 5594POPC   C1A71451  29.000  31.536   6.337
 5594POPC   D2A71452  28.849  31.336   6.715
 5594POPC   C3A71453  29.077  31.391   7.113
 5594POPC   C4A71454  29.252  31.666   7.490
 5594POPC   C1B71455  29.390  31.178   6.319
 5594POPC   C2B71456  29.398  31.393   6.701
 5594POPC   C3B71457  29.530  31.633   7.052
 5594POPC   C4B71458  29.539  31.282   7.307
 5595POPC   NC371459  32.903  34.984   5.450
 5595POPC   PO471460  33.198  35.634   5.275
 5595POPC   GL171461  33.091  35.427   5.739
 5595POPC   GL271462  32.940  35.093   5.929
 5595POPC   C1A71463  32.961  35.511   6.209
 5595POPC   D2A71464  33.070  35.337   6.631
 5595POPC   C3A71465  33.000  35.547   7.029
 5595POPC   C4A71466  32.774  35.473   7.436
 5595POPC   C1B71467  33.296  35.060   6.225
 5595POPC   C2B71468  33.434  34.943   6.641
 5595POPC   C3B71469  33.321  35.087   7.076
 5595POPC   C4B71470  33.143  35.097   7.529
 5596POPC   NC371471  35.284   4.162   5.228
 5596POPC   PO471472  35.487   4.790   5.447
 5596POPC   GL171473  35.342   4.445   5.661
 5596POPC   GL271474  35.569   4.464   5.894
 5596POPC   C1A71475  35.163   4.160   5.987
 5596POPC   D2A71476  35.058   4.177   6.442
 5596POPC   C3A71477  35.208   4.067   6.824
 5596POPC   C4A71478  35.248   4.275   7.219
 5596POPC   C1B71479  35.386   4.552   6.309
 5596POPC   C2B71480  35.352   4.551   6.767
 5596POPC   C3B71481  35.689   4.550   7.088
 5596POPC   C4B71482  35.695   4.325   7.495
 5597POPC   NC371483  44.588   1.634   5.206
 5597POPC   PO471484  44.595   1.072   5.700
 5597POPC   GL171485  44.708   1.121   6.062
 5597POPC   GL271486  44.664   1.458   6.113
 5597POPC   C1A71487  44.964   1.101   6.389
 5597POPC   D2A71488  44.696   1.185   6.717
 5597POPC   C3A71489  44.718   0.899   7.054
 5597POPC   C4A71490  44.550   0.931   7.476
 5597POPC   C1B71491  44.316   1.677   6.278
 5597POPC   C2B71492  44.191   1.754   6.682
 5597POPC   C3B71493  44.469   1.588   6.948
 5597POPC   C4B71494  44.476   1.407   7.332
 5598POPC   NC371495   2.187  41.100   5.404
 5598POPC   PO471496   1.697  40.609   5.421
 5598POPC   GL171497   1.816  40.942   5.732
 5598POPC   GL271498   2.140  40.782   5.812
 5598POPC   C1A71499   1.906  41.060   6.189
 5598POPC   D2A71500   2.228  40.949   6.509
 5598POPC   C3A71501   2.068  40.895   6.940
 5598POPC   C4A71502   1.958  41.191   7.274
 5598POPC   C1B71503   2.274  40.540   6.169
 5598POPC   C2B71504   2.544  40.408   6.515
 5598POPC   C3B71505   2.421  40.481   6.929
 5598POPC   C4B71506   2.005  40.371   7.040
 5599POPC   NC371507  36.652   7.572   5.332
 5599POPC   PO471508  37.186   7.408   5.248
 5599POPC   GL171509  37.023   7.488   5.694
 5599POPC   GL271510  36.634   7.479   5.827
 5599POPC   C1A71511  37.006   7.432   6.167
 5599POPC   D2A71512  36.993   7.238   6.597
 5599POPC   C3A71513  37.032   7.468   7.008
 5599POPC   C4A71514  36.830   7.765   7.250
 5599POPC   C1B71515  36.399   7.326   6.218
 5599POPC   C2B71516  36.481   7.324   6.686
 5599POPC   C3B71517  36.550   7.132   7.136
 5599POPC   C4B71518  36.569   6.895   7.554
 5600POPC   NC371519   7.447  26.118   5.445
 5600POPC   PO471520   7.581  25.536   5.174
 5600POPC   GL171521   7.618  25.706   5.713
 5600POPC   GL271522   7.321  25.893   5.880
 5600POPC   C1A71523   7.590  25.783   6.267
 5600POPC   D2A71524   7.578  25.805   6.763
 5600POPC   C3A71525   7.420  26.135   7.118
 5600POPC   C4A71526   7.419  26.261   7.589
 5600POPC   C1B71527   7.117  26.211   6.113
 5600POPC   C2B71528   7.119  26.268   6.559
 5600POPC   C3B71529   6.927  26.177   6.945
 5600POPC   C4B71530   6.959  26.260   7.388
 5601POPC   NC371531  31.531   5.536   5.367
 5601POPC   PO471532  31.022   5.995   5.371
 5601POPC   GL171533  31.385   5.913   5.754
 5601POPC   GL271534  31.692   5.642   5.833
 5601POPC   C1A71535  31.498   5.850   6.240
 5601POPC   D2A71536  31.293   5.659   6.606
 5601POPC   C3A71537  31.227   5.857   6.960
 5601POPC   C4A71538  31.464   6.106   7.223
 5601POPC   C1B71539  31.810   5.395   6.210
 5601POPC   C2B71540  31.746   5.421   6.664
 5601POPC   C3B71541  31.718   5.683   7.019
 5601POPC   C4B71542  31.795   5.646   7.425
 5602POPC   NC371543  28.049   5.285   5.679
 5602POPC   PO471544  28.485   5.779   5.305
 5602POPC   GL171545  28.305   5.768   5.745
 5602POPC   GL271546  28.435   6.086   5.852
 5602POPC   C1A71547  28.338   5.759   6.237
 5602POPC   D2A71548  28.499   5.977   6.610
 5602POPC   C3A71549  28.335   5.907   6.995
 5602POPC   C4A71550  28.490   5.817   7.379
 5602POPC   C1B71551  28.396   6.305   6.237
 5602POPC   C2B71552  28.164   6.382   6.634
 5602POPC   C3B71553  28.278   6.399   7.065
 5602POPC   C4B71554  28.359   6.310   7.484
 5603POPC   NC371555  29.259  14.093   5.028
 5603POPC   PO471556  29.015  13.573   5.338
 5603POPC   GL171557  29.126  13.602   5.809
 5603POPC   GL271558  29.480  13.726   5.911
 5603POPC   C1A71559  29.236  13.345   6.175
 5603POPC   D2A71560  29.070  13.428   6.552
 5603POPC   C3A71561  29.177  13.364   6.969
 5603POPC   C4A71562  29.054  13.500   7.356
 5603POPC   C1B71563  29.543  13.705   6.385
 5603POPC   C2B71564  29.335  13.817   6.790
 5603POPC   C3B71565  29.202  14.006   7.198
 5603POPC   C4B71566  29.445  14.090   7.576
 5604POPC   NC371567  23.027   0.077   5.528
 5604POPC   PO471568  22.807  44.480   5.414
 5604POPC   GL171569  23.061  44.583   5.788
 5604POPC   GL271570  22.827  44.811   5.900
 5604POPC   C1A71571  23.161  44.736   6.244
 5604POPC   D2A71572  22.982  44.996   6.571
 5604POPC   C3A71573  23.124  44.840   6.975
 5604POPC   C4A71574  23.051  44.756   7.404
 5604POPC   C1B71575  22.701  44.519   6.256
 5604POPC   C2B71576  22.737  44.567   6.720
 5604POPC   C3B71577  22.666  44.505   7.168
 5604POPC   C4B71578  22.819  44.312   7.546
 5605POPC   NC371579  33.286   9.548   5.288
 5605POPC   PO471580  32.992  10.113   5.537
 5605POPC   GL171581  32.962   9.752   5.832
 5605POPC   GL271582  33.204   9.480   5.790
 5605POPC   C1A71583  32.945   9.810   6.271
 5605POPC   D2A71584  33.026  10.025   6.635
 5605POPC   C3A71585  32.914   9.859   7.057
 5605POPC   C4A71586  33.085   9.814   7.488
 5605POPC   C1B71587  33.054   9.326   6.201
 5605POPC   C2B71588  33.148   9.499   6.635
 5605POPC   C3B71589  33.242   9.474   7.086
 5605POPC   C4B71590  33.051   9.312   7.450
 5606POPC   NC371591  33.649  23.033   5.457
 5606POPC   PO471592  34.309  22.939   5.429
 5606POPC   GL171593  34.016  22.818   5.730
 5606POPC   GL271594  33.833  23.102   5.926
 5606POPC   C1A71595  34.023  22.687   6.135
 5606POPC   D2A71596  34.122  22.814   6.516
 5606POPC   C3A71597  33.819  22.804   6.803
 5606POPC   C4A71598  34.036  22.776   7.135
 5606POPC   C1B71599  33.662  23.031   6.353
 5606POPC   C2B71600  33.371  23.048   6.740
 5606POPC   C3B71601  33.410  22.969   7.211
 5606POPC   C4B71602  33.519  22.895   7.668
 5607POPC   NC371603  20.341  26.335   5.451
 5607POPC   PO471604  20.714  25.832   5.384
 5607POPC   GL171605  20.648  26.053   5.789
 5607POPC   GL271606  20.311  26.010   5.841
 5607POPC   C1A71607  20.575  25.912   6.262
 5607POPC   D2A71608  20.368  25.924   6.664
 5607POPC   C3A71609  20.722  25.921   6.977
 5607POPC   C4A71610  20.760  25.775   7.421
 5607POPC   C1B71611  20.382  26.364   6.138
 5607POPC   C2B71612  20.585  26.364   6.562
 5607POPC   C3B71613  20.429  26.332   6.978
 5607POPC   C4B71614  20.595  26.272   7.371
 5608POPC   NC371615  41.661  20.115   5.372
 5608POPC   PO471616  41.192  19.688   5.240
 5608POPC   GL171617  41.339  19.783   5.673
 5608POPC   GL271618  41.700  19.743   5.764
 5608POPC   C1A71619  41.339  19.702   6.134
 5608POPC   D2A71620  41.618  19.440   6.356
 5608POPC   C3A71621  41.612  19.468   6.800
 5608POPC   C4A71622  41.353  19.643   7.141
 5608POPC   C1B71623  41.821  19.946   6.149
 5608POPC   C2B71624  41.618  19.932   6.556
 5608POPC   C3B71625  41.777  19.933   6.989
 5608POPC   C4B71626  41.819  20.086   7.420
 5609POPC   NC371627  23.630  11.505   5.540
 5609POPC   PO471628  24.168  11.242   5.275
 5609POPC   GL171629  24.024  11.205   5.743
 5609POPC   GL271630  23.735  11.046   5.819
 5609POPC   C1A71631  23.980  11.233   6.217
 5609POPC   D2A71632  24.093  11.423   6.600
 5609POPC   C3A71633  23.875  11.263   6.971
 5609POPC   C4A71634  23.748  11.310   7.412
 5609POPC   C1B71635  23.470  11.244   6.168
 5609POPC   C2B71636  23.508  11.304   6.615
 5609POPC   C3B71637  23.371  11.167   7.050
 5609POPC   C4B71638  23.291  11.178   7.550
 5610POPC   NC371639  29.530   5.263   5.468
 5610POPC   PO471640  28.946   5.101   5.258
 5610POPC   GL171641  29.059   5.194   5.703
 5610POPC   GL271642  29.319   4.974   5.849
 5610POPC   C1A71643  28.958   5.159   6.149
 5610POPC   D2A71644  29.185   5.237   6.519
 5610POPC   C3A71645  28.899   5.196   6.855
 5610POPC   C4A71646  28.819   4.888   7.175
 5610POPC   C1B71647  29.540   5.259   6.141
 5610POPC   C2B71648  29.696   5.332   6.556
 5610POPC   C3B71649  29.581   5.228   6.957
 5610POPC   C4B71650  29.249   5.202   7.219
 5611POPC   NC371651  18.529   4.494   5.491
 5611POPC   PO471652  18.037   4.065   5.334
 5611POPC   GL171653  18.166   4.113   5.788
 5611POPC   GL271654  18.151   4.464   5.861
 5611POPC   C1A71655  18.293   4.083   6.253
 5611POPC   D2A71656  18.444   4.035   6.727
 5611POPC   C3A71657  18.185   4.180   7.120
 5611POPC   C4A71658  18.051   4.445   7.491
 5611POPC   C1B71659  18.456   4.585   6.207
 5611POPC   C2B71660  18.574   4.554   6.657
 5611POPC   C3B71661  18.395   4.640   7.074
 5611POPC   C4B71662  18.408   4.861   7.491
 5612POPC   NC371663  41.395  43.275   5.391
 5612POPC   PO471664  41.836  42.736   5.516
 5612POPC   GL171665  41.559  42.936   5.778
 5612POPC   GL271666  41.397  42.663   5.926
 5612POPC   C1A71667  41.587  43.073   6.217
 5612POPC   D2A71668  41.729  42.894   6.639
 5612POPC   C3A71669  41.797  43.204   7.005
 5612POPC   C4A71670  41.486  43.355   7.295
 5612POPC   C1B71671  41.177  42.786   6.270
 5612POPC   C2B71672  41.155  43.082   6.553
 5612POPC   C3B71673  41.311  43.039   6.932
 5612POPC   C4B71674  41.170  42.764   7.212
 5613POPC   NC371675  12.459   4.898   5.299
 5613POPC   PO471676  12.060   5.396   5.469
 5613POPC   GL171677  11.971   5.210   5.861
 5613POPC   GL271678  12.254   4.995   5.795
 5613POPC   C1A71679  11.868   5.142   6.304
 5613POPC   D2A71680  11.949   4.899   6.680
 5613POPC   C3A71681  11.857   5.002   7.120
 5613POPC   C4A71682  12.180   4.877   7.441
 5613POPC   C1B71683  12.395   5.273   6.149
 5613POPC   C2B71684  12.443   5.342   6.590
 5613POPC   C3B71685  12.306   5.213   6.979
 5613POPC   C4B71686  12.117   5.406   7.310
 5614POPC   NC371687   5.533  12.521   5.238
 5614POPC   PO471688   4.904  12.497   5.476
 5614POPC   GL171689   5.110  12.720   5.810
 5614POPC   GL271690   5.034  13.068   5.818
 5614POPC   C1A71691   5.407  12.713   6.175
 5614POPC   D2A71692   5.326  12.543   6.614
 5614POPC   C3A71693   5.269  12.807   6.987
 5614POPC   C4A71694   5.015  12.776   7.359
 5614POPC   C1B71695   4.975  12.956   6.271
 5614POPC   C2B71696   5.022  13.154   6.669
 5614POPC   C3B71697   4.736  13.183   6.992
 5614POPC   C4B71698   4.616  13.065   7.406
 5615POPC   NC371699   3.624  10.945   5.067
 5615POPC   PO471700   3.313  10.395   5.396
 5615POPC   GL171701   3.441  10.588   5.791
 5615POPC   GL271702   3.798  10.501   5.775
 5615POPC   C1A71703   3.332  10.776   6.215
 5615POPC   D2A71704   3.348  11.008   6.624
 5615POPC   C3A71705   3.496  10.742   6.973
 5615POPC   C4A71706   3.506  10.270   7.005
 5615POPC   C1B71707   3.955  10.663   6.166
 5615POPC   C2B71708   3.812  10.509   6.570
 5615POPC   C3B71709   4.001  10.347   6.957
 5615POPC   C4B71710   3.825  10.554   7.323
 5616POPC   NC371711   9.707   5.246   5.318
 5616POPC   PO471712   9.182   4.918   5.500
 5616POPC   GL171713   9.461   4.957   5.818
 5616POPC   GL271714   9.636   5.259   5.808
 5616POPC   C1A71715   9.441   5.071   6.260
 5616POPC   D2A71716   9.302   5.270   6.634
 5616POPC   C3A71717   9.521   5.046   6.959
 5616POPC   C4A71718   9.431   5.107   7.401
 5616POPC   C1B71719   9.928   5.068   6.127
 5616POPC   C2B71720   9.886   4.858   6.534
 5616POPC   C3B71721  10.052   5.029   6.919
 5616POPC   C4B71722   9.913   5.155   7.270
 5617POPC   NC371723  22.814  17.572   5.184
 5617POPC   PO471724  23.101  17.108   5.488
 5617POPC   GL171725  22.947  17.387   5.802
 5617POPC   GL271726  23.217  17.613   5.710
 5617POPC   C1A71727  22.678  17.302   6.209
 5617POPC   D2A71728  22.500  17.622   6.513
 5617POPC   C3A71729  22.725  17.607   6.898
 5617POPC   C4A71730  22.810  17.308   7.195
 5617POPC   C1B71731  23.250  17.805   6.127
 5617POPC   C2B71732  23.074  17.581   6.503
 5617POPC   C3B71733  23.229  17.502   6.934
 5617POPC   C4B71734  23.496  17.698   7.214
 5618POPC   NC371735  12.416  16.546   5.289
 5618POPC   PO471736  12.963  16.828   5.358
 5618POPC   GL171737  12.891  16.985   5.889
 5618POPC   GL271738  12.891  16.624   6.011
 5618POPC   C1A71739  13.067  16.966   6.332
 5618POPC   D2A71740  12.839  16.661   6.582
 5618POPC   C3A71741  12.976  16.583   6.990
 5618POPC   C4A71742  12.935  16.507   7.424
 5618POPC   C1B71743  12.554  16.919   6.234
 5618POPC   C2B71744  12.419  16.955   6.657
 5618POPC   C3B71745  12.477  16.654   7.009
 5618POPC   C4B71746  12.477  16.722   7.462
 5619POPC   NC371747  20.549  18.702   5.183
 5619POPC   PO471748  20.600  18.123   5.339
 5619POPC   GL171749  20.747  18.298   5.730
 5619POPC   GL271750  21.086  18.395   5.690
 5619POPC   C1A71751  20.649  18.384   6.163
 5619POPC   D2A71752  20.367  18.231   6.498
 5619POPC   C3A71753  20.566  18.320   6.901
 5619POPC   C4A71754  20.389  18.349   7.307
 5619POPC   C1B71755  21.121  18.209   6.120
 5619POPC   C2B71756  20.925  18.157   6.541
 5619POPC   C3B71757  21.057  18.127   6.962
 5619POPC   C4B71758  20.911  18.320   7.327
 5620POPC   NC371759  39.936  17.230   5.386
 5620POPC   PO471760  40.070  17.900   5.411
 5620POPC   GL171761  40.102  17.653   5.772
 5620POPC   GL271762  39.765  17.533   5.786
 5620POPC   C1A71763  40.104  17.514   6.212
 5620POPC   D2A71764  39.940  17.676   6.577
 5620POPC   C3A71765  40.217  17.578   6.896
 5620POPC   C4A71766  40.174  17.320   7.256
 5620POPC   C1B71767  39.602  17.510   6.199
 5620POPC   C2B71768  39.576  17.304   6.595
 5620POPC   C3B71769  39.711  17.449   6.994
 5620POPC   C4B71770  39.647  17.200   7.332
 5621POPC   NC371771  18.991  19.028   5.474
 5621POPC   PO471772  19.539  19.381   5.293
 5621POPC   GL171773  19.321  19.333   5.714
 5621POPC   GL271774  19.310  18.947   5.853
 5621POPC   C1A71775  19.069  19.288   6.120
 5621POPC   D2A71776  19.148  18.961   6.405
 5621POPC   C3A71777  18.938  18.973   6.782
 5621POPC   C4A71778  18.971  18.952   7.221
 5621POPC   C1B71779  19.598  18.805   6.168
 5621POPC   C2B71780  19.518  18.609   6.564
 5621POPC   C3B71781  19.330  18.656   6.961
 5621POPC   C4B71782  19.518  18.705   7.352
 5622POPC   NC371783  31.855  17.535   5.310
 5622POPC   PO471784  31.474  17.090   5.441
 5622POPC   GL171785  31.720  17.248   5.768
 5622POPC   GL271786  31.420  17.205   5.958
 5622POPC   C1A71787  31.813  17.425   6.219
 5622POPC   D2A71788  31.688  17.449   6.683
 5622POPC   C3A71789  31.912  17.436   7.089
 5622POPC   C4A71790  31.783  17.666   7.468
 5622POPC   C1B71791  31.292  17.449   6.332
 5622POPC   C2B71792  31.166  17.466   6.785
 5622POPC   C3B71793  31.238  17.296   7.207
 5622POPC   C4B71794  31.225  17.436   7.644
 5623POPC   NC371795  12.762  44.141   5.225
 5623POPC   PO471796  13.074  43.526   5.406
 5623POPC   GL171797  13.072  43.731   5.799
 5623POPC   GL271798  12.682  43.809   5.761
 5623POPC   C1A71799  13.259  43.756   6.279
 5623POPC   D2A71800  12.933  43.872   6.623
 5623POPC   C3A71801  12.855  43.663   7.009
 5623POPC   C4A71802  13.122  43.619   7.367
 5623POPC   C1B71803  12.414  43.914   6.177
 5623POPC   C2B71804  12.539  44.182   6.558
 5623POPC   C3B71805  12.758  44.212   6.971
 5623POPC   C4B71806  12.687  43.980   7.385
 5624POPC   NC371807   8.600   5.216   5.368
 5624POPC   PO471808   7.943   4.974   5.317
 5624POPC   GL171809   8.209   5.085   5.680
 5624POPC   GL271810   8.126   5.432   5.797
 5624POPC   C1A71811   8.374   4.950   6.089
 5624POPC   D2A71812   8.431   5.153   6.473
 5624POPC   C3A71813   8.411   4.797   6.783
 5624POPC   C4A71814   8.545   4.963   7.197
 5624POPC   C1B71815   7.949   5.194   6.172
 5624POPC   C2B71816   7.957   5.022   6.576
 5624POPC   C3B71817   8.088   5.105   6.989
 5624POPC   C4B71818   7.882   5.119   7.343
 5625POPC   NC371819  13.567  27.120   5.546
 5625POPC   PO471820  13.982  26.627   5.563
 5625POPC   GL171821  13.653  26.764   5.883
 5625POPC   GL271822  13.382  26.583   5.931
 5625POPC   C1A71823  13.472  27.034   6.202
 5625POPC   D2A71824  13.364  26.925   6.628
 5625POPC   C3A71825  13.462  27.154   7.015
 5625POPC   C4A71826  13.866  27.208   7.227
 5625POPC   C1B71827  13.431  26.294   6.209
 5625POPC   C2B71828  13.320  26.409   6.584
 5625POPC   C3B71829  13.529  26.494   6.935
 5625POPC   C4B71830  13.330  26.346   7.292
 5626POPC   NC371831  32.868  25.553   5.265
 5626POPC   PO471832  32.865  24.815   5.300
 5626POPC   GL171833  33.085  25.049   5.652
 5626POPC   GL271834  32.805  25.259   5.747
 5626POPC   C1A71835  33.158  25.232   6.123
 5626POPC   D2A71836  33.052  25.350   6.587
 5626POPC   C3A71837  33.225  25.121   6.988
 5626POPC   C4A71838  33.436  24.994   7.386
 5626POPC   C1B71839  32.768  24.902   6.041
 5626POPC   C2B71840  32.832  24.881   6.487
 5626POPC   C3B71841  32.717  25.065   6.907
 5626POPC   C4B71842  32.839  25.473   7.099
 5627POPC   NC371843  29.728  27.698   5.346
 5627POPC   PO471844  29.552  27.179   5.617
 5627POPC   GL171845  29.724  27.530   5.853
 5627POPC   GL271846  30.057  27.673   5.772
 5627POPC   C1A71847  29.818  27.563   6.286
 5627POPC   D2A71848  30.102  27.557   6.628
 5627POPC   C3A71849  29.929  27.491   7.041
 5627POPC   C4A71850  29.689  27.405   7.391
 5627POPC   C1B71851  30.037  27.994   6.122
 5627POPC   C2B71852  30.066  28.111   6.571
 5627POPC   C3B71853  30.174  27.925   6.973
 5627POPC   C4B71854  30.014  27.856   7.403
 5628POPC   NC371855  27.296   5.299   5.340
 5628POPC   PO471856  27.947   5.069   5.271
 5628POPC   GL171857  27.689   4.946   5.712
 5628POPC   GL271858  27.325   4.853   5.787
 5628POPC   C1A71859  27.707   4.998   6.217
 5628POPC   D2A71860  27.649   5.335   6.584
 5628POPC   C3A71861  27.724   5.187   7.042
 5628POPC   C4A71862  27.619   5.110   7.491
 5628POPC   C1B71863  27.187   5.025   6.223
 5628POPC   C2B71864  27.271   5.018   6.713
 5628POPC   C3B71865  27.206   5.218   7.148
 5628POPC   C4B71866  27.141   4.950   7.556
 5629POPC   NC371867  18.885  33.313   5.391
 5629POPC   PO471868  19.274  32.725   5.489
 5629POPC   GL171869  19.074  32.969   5.775
 5629POPC   GL271870  19.240  33.272   5.759
 5629POPC   C1A71871  18.993  32.828   6.183
 5629POPC   D2A71872  19.168  32.863   6.581
 5629POPC   C3A71873  18.919  32.883   6.953
 5629POPC   C4A71874  19.176  32.922   7.286
 5629POPC   C1B71875  19.003  33.333   6.152
 5629POPC   C2B71876  19.072  33.375   6.581
 5629POPC   C3B71877  18.832  33.383   6.925
 5629POPC   C4B71878  18.967  33.419   7.297
 5630POPC   NC371879  24.763   3.099   5.360
 5630POPC   PO471880  24.916   3.728   5.477
 5630POPC   GL171881  24.570   3.615   5.736
 5630POPC   GL271882  24.516   3.287   5.798
 5630POPC   C1A71883  24.415   3.661   6.156
 5630POPC   D2A71884  24.542   3.485   6.538
 5630POPC   C3A71885  24.417   3.717   6.865
 5630POPC   C4A71886  24.485   3.862   7.247
 5630POPC   C1B71887  24.633   3.126   6.185
 5630POPC   C2B71888  24.621   2.969   6.622
 5630POPC   C3B71889  24.607   3.234   6.989
 5630POPC   C4B71890  24.268   3.381   7.237
 5631POPC   NC371891  14.739   5.654   5.186
 5631POPC   PO471892  14.248   6.100   5.368
 5631POPC   GL171893  14.360   5.920   5.781
 5631POPC   GL271894  14.213   5.589   5.807
 5631POPC   C1A71895  14.374   5.906   6.251
 5631POPC   D2A71896  14.078   6.099   6.533
 5631POPC   C3A71897  14.251   6.149   6.910
 5631POPC   C4A71898  14.481   5.861   7.123
 5631POPC   C1B71899  14.206   5.442   6.248
 5631POPC   C2B71900  14.338   5.548   6.693
 5631POPC   C3B71901  14.318   5.386   7.147
 5631POPC   C4B71902  14.254   5.615   7.553
 5632POPC   NC371903  23.472  41.602   5.364
 5632POPC   PO471904  23.753  41.020   5.408
 5632POPC   GL171905  23.788  41.374   5.750
 5632POPC   GL271906  23.443  41.419   5.878
 5632POPC   C1A71907  23.853  41.492   6.197
 5632POPC   D2A71908  23.521  41.470   6.503
 5632POPC   C3A71909  23.626  41.557   6.924
 5632POPC   C4A71910  23.832  41.506   7.346
 5632POPC   C1B71911  23.482  41.821   6.107
 5632POPC   C2B71912  23.564  41.993   6.535
 5632POPC   C3B71913  23.394  42.048   6.944
 5632POPC   C4B71914  23.393  41.812   7.317
 5633POPC   NC371915  41.591  33.682   5.345
 5633POPC   PO471916  40.967  33.699   5.282
 5633POPC   GL171917  41.241  33.684   5.723
 5633POPC   GL271918  41.627  33.746   5.829
 5633POPC   C1A71919  41.280  33.879   6.160
 5633POPC   D2A71920  41.220  34.045   6.558
 5633POPC   C3A71921  41.439  33.930   6.913
 5633POPC   C4A71922  41.430  33.598   7.196
 5633POPC   C1B71923  41.808  33.956   6.172
 5633POPC   C2B71924  41.754  34.156   6.548
 5633POPC   C3B71925  41.875  34.167   6.953
 5633POPC   C4B71926  41.811  33.914   7.332
 5634POPC   NC371927  31.160  37.899   5.590
 5634POPC   PO471928  30.824  37.348   5.353
 5634POPC   GL171929  30.748  37.573   5.714
 5634POPC   GL271930  30.998  37.519   5.879
 5634POPC   C1A71931  30.549  37.628   6.124
 5634POPC   D2A71932  30.641  37.544   6.556
 5634POPC   C3A71933  30.543  37.808   6.912
 5634POPC   C4A71934  30.403  37.758   7.353
 5634POPC   C1B71935  31.082  37.728   6.255
 5634POPC   C2B71936  30.999  37.881   6.666
 5634POPC   C3B71937  31.164  37.904   7.035
 5634POPC   C4B71938  30.847  37.987   7.294
 5635POPC   NC371939  42.209  42.432   5.415
 5635POPC   PO471940  42.711  41.930   5.399
 5635POPC   GL171941  42.430  42.091   5.742
 5635POPC   GL271942  42.511  42.433   5.834
 5635POPC   C1A71943  42.218  42.129   6.150
 5635POPC   D2A71944  42.438  42.194   6.558
 5635POPC   C3A71945  42.195  42.132   6.946
 5635POPC   C4A71946  42.109  42.380   7.283
 5635POPC   C1B71947  42.361  42.603   6.233
 5635POPC   C2B71948  42.214  42.659   6.661
 5635POPC   C3B71949  42.510  42.517   6.965
 5635POPC   C4B71950  42.804  42.481   7.287
 5636POPC   NC371951  23.535  23.325   5.456
 5636POPC   PO471952  23.956  22.748   5.470
 5636POPC   GL171953  23.876  23.036   5.765
 5636POPC   GL271954  23.575  22.880   5.802
 5636POPC   C1A71955  23.881  23.105   6.213
 5636POPC   D2A71956  23.808  22.906   6.629
 5636POPC   C3A71957  23.730  23.187   6.976
 5636POPC   C4A71958  23.770  23.123   7.419
 5636POPC   C1B71959  23.492  22.783   6.208
 5636POPC   C2B71960  23.294  22.769   6.567
 5636POPC   C3B71961  23.439  22.743   6.981
 5636POPC   C4B71962  23.417  22.772   7.422
 5637POPC   NC371963  14.558  15.070   5.318
 5637POPC   PO471964  13.918  15.340   5.439
 5637POPC   GL171965  14.260  15.414   5.735
 5637POPC   GL271966  14.535  15.149   5.856
 5637POPC   C1A71967  14.286  15.509   6.185
 5637POPC   D2A71968  14.500  15.557   6.593
 5637POPC   C3A71969  14.347  15.495   7.033
 5637POPC   C4A71970  14.255  15.068   7.257
 5637POPC   C1B71971  14.621  14.739   6.146
 5637POPC   C2B71972  14.668  14.545   6.560
 5637POPC   C3B71973  14.529  14.689   6.979
 5637POPC   C4B71974  14.842  14.736   7.310
 5638POPC   NC371975  41.779  17.620   5.148
 5638POPC   PO471976  42.394  17.583   5.370
 5638POPC   GL171977  42.283  17.689   5.832
 5638POPC   GL271978  41.921  17.684   5.803
 5638POPC   C1A71979  42.533  17.857   6.224
 5638POPC   D2A71980  42.783  17.833   6.648
 5638POPC   C3A71981  42.558  17.835   7.059
 5638POPC   C4A71982  42.222  17.561   7.170
 5638POPC   C1B71983  42.035  17.427   6.214
 5638POPC   C2B71984  42.134  17.367   6.676
 5638POPC   C3B71985  41.969  17.140   7.042
 5638POPC   C4B71986  41.949  17.263   7.477
 5639POPC   NC371987  38.967  43.421   5.357
 5639POPC   PO471988  39.414  42.928   5.370
 5639POPC   GL171989  39.432  43.207   5.745
 5639POPC   GL271990  39.105  43.296   5.840
 5639POPC   C1A71991  39.486  43.042   6.193
 5639POPC   D2A71992  39.401  42.880   6.634
 5639POPC   C3A71993  39.283  43.118   7.004
 5639POPC   C4A71994  39.253  42.953   7.385
 5639POPC   C1B71995  39.127  43.419   6.272
 5639POPC   C2B71996  38.957  43.237   6.643
 5639POPC   C3B71997  38.829  43.369   7.068
 5639POPC   C4B71998  38.995  43.352   7.487
 5640POPC   NC371999  22.538  34.781   5.115
 5640POPC   PO472000  21.948  34.943   5.519
 5640POPC   GL172001  22.024  34.607   5.820
 5640POPC   GL272002  22.338  34.422   5.723
 5640POPC   C1A72003  21.961  34.586   6.274
 5640POPC   D2A72004  21.914  34.578   6.722
 5640POPC   C3A72005  22.226  34.805   6.951
 5640POPC   C4A72006  22.151  35.001   7.321
 5640POPC   C1B72007  22.384  34.305   6.153
 5640POPC   C2B72008  22.311  34.053   6.521
 5640POPC   C3B72009  22.216  34.190   6.912
 5640POPC   C4B72010  22.174  34.442   7.273
 5641POPC   NC372011  26.640  20.214   5.473
 5641POPC   PO472012  26.835  19.544   5.523
 5641POPC   GL172013  26.766  19.842   5.832
 5641POPC   GL272014  26.941  20.161   5.855
 5641POPC   C1A72015  26.660  19.788   6.255
 5641POPC   D2A72016  26.733  19.955   6.669
 5641POPC   C3A72017  26.876  19.659   7.009
 5641POPC   C4A72018  27.036  19.560   7.458
 5641POPC   C1B72019  26.624  20.272   6.146
 5641POPC   C2B72020  26.571  20.444   6.553
 5641POPC   C3B72021  26.704  20.334   7.011
 5641POPC   C4B72022  26.387  20.307   7.329
 5642POPC   NC372023  41.114  15.039   5.510
 5642POPC   PO472024  40.473  14.898   5.249
 5642POPC   GL172025  40.671  14.925   5.740
 5642POPC   GL272026  40.889  15.296   5.858
 5642POPC   C1A72027  40.582  15.066   6.193
 5642POPC   D2A72028  40.416  15.459   6.364
 5642POPC   C3A72029  40.426  15.476   6.822
 5642POPC   C4A72030  40.600  15.279   7.193
 5642POPC   C1B72031  41.085  15.211   6.213
 5642POPC   C2B72032  40.913  15.302   6.627
 5642POPC   C3B72033  41.086  15.228   7.033
 5642POPC   C4B72034  40.977  14.992   7.442
 5643POPC   NC372035   9.527  40.156   5.460
 5643POPC   PO472036  10.026  39.608   5.518
 5643POPC   GL172037   9.819  39.680   5.909
 5643POPC   GL272038   9.526  39.877   5.877
 5643POPC   C1A72039   9.596  39.673   6.327
 5643POPC   D2A72040   9.321  39.760   6.675
 5643POPC   C3A72041   9.590  39.924   6.989
 5643POPC   C4A72042  10.018  39.929   7.187
 5643POPC   C1B72043   9.834  40.165   6.119
 5643POPC   C2B72044   9.939  40.430   6.489
 5643POPC   C3B72045   9.763  40.421   6.901
 5643POPC   C4B72046   9.620  40.305   7.303
 5644POPC   NC372047  27.762   9.676   5.245
 5644POPC   PO472048  27.361  10.145   5.418
 5644POPC   GL172049  27.659   9.886   5.734
 5644POPC   GL272050  27.605   9.522   5.727
 5644POPC   C1A72051  27.792   9.695   6.176
 5644POPC   D2A72052  27.547   9.556   6.557
 5644POPC   C3A72053  27.716   9.648   6.960
 5644POPC   C4A72054  27.561   9.816   7.356
 5644POPC   C1B72055  27.487   9.286   6.121
 5644POPC   C2B72056  27.116   9.285   6.388
 5644POPC   C3B72057  27.109   9.332   6.834
 5644POPC   C4B72058  27.375   9.378   7.218
 5645POPC   NC372059  39.312  33.303   5.295
 5645POPC   PO472060  38.920  33.833   5.282
 5645POPC   GL172061  39.132  33.532   5.720
 5645POPC   GL272062  39.115  33.103   5.750
 5645POPC   C1A72063  39.346  33.306   6.125
 5645POPC   D2A72064  39.306  33.111   6.544
 5645POPC   C3A72065  39.205  33.381   6.922
 5645POPC   C4A72066  39.333  33.259   7.345
 5645POPC   C1B72067  39.205  32.765   6.066
 5645POPC   C2B72068  39.416  32.595   6.428
 5645POPC   C3B72069  39.518  32.743   6.843
 5645POPC   C4B72070  39.256  32.757   7.202
 5646POPC   NC372071  44.956   2.464   5.519
 5646POPC   PO472072  44.444   2.893   5.470
 5646POPC   GL172073  44.737   2.846   5.810
 5646POPC   GL272074  44.919   3.139   5.886
 5646POPC   C1A72075  44.720   2.619   6.205
 5646POPC   D2A72076  44.547   2.592   6.603
 5646POPC   C3A72077  44.725   2.431   6.998
 5646POPC   C4A72078  44.482   2.634   7.374
 5646POPC   C1B72079  44.640   3.147   6.225
 5646POPC   C2B72080  44.808   3.012   6.632
 5646POPC   C3B72081  44.810   2.923   7.081
 5646POPC   C4B72082  44.993   2.672   7.388
 5647POPC   NC372083  28.554  31.391   5.527
 5647POPC   PO472084  27.917  31.469   5.686
 5647POPC   GL172085  28.288  31.596   5.923
 5647POPC   GL272086  28.661  31.744   5.887
 5647POPC   C1A72087  28.433  31.294   6.259
 5647POPC   D2A72088  28.526  30.933   6.537
 5647POPC   C3A72089  28.489  31.041   6.976
 5647POPC   C4A72090  28.103  31.254   7.018
 5647POPC   C1B72091  28.531  31.793   6.327
 5647POPC   C2B72092  28.355  31.615   6.707
 5647POPC   C3B72093  28.542  31.539   7.097
 5647POPC   C4B72094  28.820  31.808   7.219
 5648POPC   NC372095  31.949  15.871   5.380
 5648POPC   PO472096  32.541  16.107   5.577
 5648POPC   GL172097  32.194  15.986   5.826
 5648POPC   GL272098  32.046  15.645   5.878
 5648POPC   C1A72099  32.305  15.972   6.239
 5648POPC   D2A72100  32.289  16.243   6.560
 5648POPC   C3A72101  32.236  16.001   6.918
 5648POPC   C4A72102  32.288  16.233   7.244
 5648POPC   C1B72103  31.849  15.441   6.269
 5648POPC   C2B72104  31.683  15.450   6.736
 5648POPC   C3B72105  31.889  15.653   7.112
 5648POPC   C4B72106  32.181  15.790   7.454
 5649POPC   NC372107  23.501  40.603   5.408
 5649POPC   PO472108  24.195  40.649   5.470
 5649POPC   GL172109  23.881  40.760   5.840
 5649POPC   GL272110  23.580  40.546   5.918
 5649POPC   C1A72111  23.642  40.996   6.199
 5649POPC   D2A72112  23.466  40.975   6.662
 5649POPC   C3A72113  23.739  41.024   7.045
 5649POPC   C4A72114  23.915  40.703   7.322
 5649POPC   C1B72115  23.872  40.377   6.232
 5649POPC   C2B72116  23.887  40.311   6.698
 5649POPC   C3B72117  23.550  40.495   6.940
 5649POPC   C4B72118  23.340  40.755   7.222
 5650POPC   NC372119  32.819  41.395   5.335
 5650POPC   PO472120  33.294  41.778   5.380
 5650POPC   GL172121  33.168  41.413   5.708
 5650POPC   GL272122  33.327  41.068   5.836
 5650POPC   C1A72123  32.931  41.263   6.093
 5650POPC   D2A72124  33.043  41.340   6.525
 5650POPC   C3A72125  32.758  41.390   6.868
 5650POPC   C4A72126  32.773  41.717   7.196
 5650POPC   C1B72127  33.435  41.410   6.155
 5650POPC   C2B72128  33.494  41.598   6.584
 5650POPC   C3B72129  33.232  41.598   6.952
 5650POPC   C4B72130  33.114  41.304   7.249
 5651POPC   NC372131   2.455  12.319   5.458
 5651POPC   PO472132   1.740  12.062   5.460
 5651POPC   GL172133   2.109  12.063   5.733
 5651POPC   GL272134   2.240  11.707   5.761
 5651POPC   C1A72135   2.071  12.314   6.129
 5651POPC   D2A72136   1.766  12.264   6.482
 5651POPC   C3A72137   1.962  12.144   6.875
 5651POPC   C4A72138   1.853  11.805   7.161
 5651POPC   C1B72139   2.168  11.806   6.162
 5651POPC   C2B72140   2.332  11.950   6.538
 5651POPC   C3B72141   2.335  11.798   6.927
 5651POPC   C4B72142   2.311  12.037   7.274
 5652POPC   NC372143  43.249  33.355   5.300
 5652POPC   PO472144  43.425  32.712   5.619
 5652POPC   GL172145  43.222  33.058   5.821
 5652POPC   GL272146  42.876  33.195   5.732
 5652POPC   C1A72147  43.142  33.111   6.290
 5652POPC   D2A72148  42.999  32.732   6.537
 5652POPC   C3A72149  43.113  32.740   6.949
 5652POPC   C4A72150  43.289  33.134   7.047
 5652POPC   C1B72151  42.696  32.939   6.111
 5652POPC   C2B72152  42.591  33.072   6.548
 5652POPC   C3B72153  42.766  33.121   7.008
 5652POPC   C4B72154  42.791  32.777   7.340
 5653POPC   NC372155  14.623  25.549   5.005
 5653POPC   PO472156  14.746  26.068   5.448
 5653POPC   GL172157  14.522  26.061   5.852
 5653POPC   GL272158  14.349  26.329   5.837
 5653POPC   C1A72159  14.303  25.913   6.234
 5653POPC   D2A72160  14.462  26.035   6.659
 5653POPC   C3A72161  14.349  25.819   7.046
 5653POPC   C4A72162  14.232  25.869   7.476
 5653POPC   C1B72163  14.450  26.414   6.281
 5653POPC   C2B72164  14.255  26.496   6.689
 5653POPC   C3B72165  14.465  26.339   7.096
 5653POPC   C4B72166  14.686  26.073   7.427
 5654POPC   NC372167  40.446  13.893   5.612
 5654POPC   PO472168  40.839  13.394   5.612
 5654POPC   GL172169  40.579  13.497   5.912
 5654POPC   GL272170  40.789  13.796   5.966
 5654POPC   C1A72171  40.710  13.453   6.314
 5654POPC   D2A72172  40.803  13.635   6.686
 5654POPC   C3A72173  40.731  13.384   7.078
 5654POPC   C4A72174  40.651  13.230   7.516
 5654POPC   C1B72175  40.559  13.963   6.309
 5654POPC   C2B72176  40.478  14.013   6.745
 5654POPC   C3B72177  40.619  13.874   7.150
 5654POPC   C4B72178  40.907  14.064   7.453
 5655POPC   NC372179   6.538  22.742   5.197
 5655POPC   PO472180   6.798  23.320   5.284
 5655POPC   GL172181   6.657  23.137   5.662
 5655POPC   GL272182   6.597  22.793   5.707
 5655POPC   C1A72183   6.782  23.085   6.087
 5655POPC   D2A72184   6.929  22.795   6.426
 5655POPC   C3A72185   6.878  23.023   6.806
 5655POPC   C4A72186   6.709  23.017   7.208
 5655POPC   C1B72187   6.538  22.647   6.143
 5655POPC   C2B72188   6.509  22.513   6.546
 5655POPC   C3B72189   6.657  22.565   6.946
 5655POPC   C4B72190   6.372  22.612   7.251
 5656POPC   NC372191  22.573  21.273   5.383
 5656POPC   PO472192  23.100  21.506   5.241
 5656POPC   GL172193  23.052  21.545   5.703
 5656POPC   GL272194  23.044  21.215   5.840
 5656POPC   C1A72195  23.202  21.565   6.184
 5656POPC   D2A72196  23.037  21.391   6.624
 5656POPC   C3A72197  22.849  21.613   7.015
 5656POPC   C4A72198  23.048  21.551   7.431
 5656POPC   C1B72199  22.763  21.259   6.198
 5656POPC   C2B72200  22.583  21.069   6.586
 5656POPC   C3B72201  22.752  21.115   7.012
 5656POPC   C4B72202  23.108  21.079   7.253
 5657POPC   NC372203  16.520  43.225   5.260
 5657POPC   PO472204  16.302  42.742   5.703
 5657POPC   GL172205  16.553  42.994   5.943
 5657POPC   GL272206  16.847  43.125   5.840
 5657POPC   C1A72207  16.646  43.088   6.376
 5657POPC   D2A72208  16.720  42.865   6.736
 5657POPC   C3A72209  16.497  42.912   7.127
 5657POPC   C4A72210  16.610  43.089   7.547
 5657POPC   C1B72211  16.950  43.437   6.142
 5657POPC   C2B72212  17.042  43.379   6.570
 5657POPC   C3B72213  17.108  43.548   6.968
 5657POPC   C4B72214  16.968  43.368   7.322
 5658POPC   NC372215  33.523   7.762   5.145
 5658POPC   PO472216  34.034   8.007   5.571
 5658POPC   GL172217  33.755   8.333   5.782
 5658POPC   GL272218  33.749   8.073   6.061
 5658POPC   C1A72219  33.464   8.479   6.118
 5658POPC   D2A72220  33.359   8.245   6.511
 5658POPC   C3A72221  33.572   8.463   6.840
 5658POPC   C4A72222  33.926   8.527   7.130
 5658POPC   C1B72223  33.974   8.367   6.333
 5658POPC   C2B72224  34.172   8.257   6.715
 5658POPC   C3B72225  33.848   8.028   6.916
 5658POPC   C4B72226  33.664   7.865   7.259
 5659POPC   NC372227  43.993  44.294   5.349
 5659POPC   PO472228  43.468  44.058   5.636
 5659POPC   GL172229  43.894  44.064   5.803
 5659POPC   GL272230  44.007  43.728   5.767
 5659POPC   C1A72231  44.034  43.985   6.220
 5659POPC   D2A72232  43.777  43.994   6.553
 5659POPC   C3A72233  43.940  44.090   6.939
 5659POPC   C4A72234  43.723  43.994   7.308
 5659POPC   C1B72235  44.290  43.529   6.096
 5659POPC   C2B72236  44.488  43.639   6.484
 5659POPC   C3B72237  44.323  43.740   6.879
 5659POPC   C4B72238  44.205  43.781   7.300
 5660POPC   NC372239   4.978  26.088   5.326
 5660POPC   PO472240   5.659  26.063   5.402
 5660POPC   GL172241   5.360  25.957   5.726
 5660POPC   GL272242   5.183  26.272   5.762
 5660POPC   C1A72243   4.995  25.786   5.956
 5660POPC   D2A72244   4.935  25.771   6.420
 5660POPC   C3A72245   5.221  25.943   6.750
 5660POPC   C4A72246   5.100  25.926   7.199
 5660POPC   C1B72247   5.079  26.229   6.188
 5660POPC   C2B72248   5.079  26.428   6.562
 5660POPC   C3B72249   4.993  26.356   6.971
 5660POPC   C4B72250   5.015  26.422   7.365
 5661POPC   NC372251  22.301   9.007   5.085
 5661POPC   PO472252  22.079   8.479   5.459
 5661POPC   GL172253  22.011   8.712   5.855
 5661POPC   GL272254  22.111   9.094   5.870
 5661POPC   C1A72255  22.092   8.801   6.307
 5661POPC   D2A72256  21.892   9.097   6.621
 5661POPC   C3A72257  22.119   9.095   7.024
 5661POPC   C4A72258  21.993   8.759   7.289
 5661POPC   C1B72259  22.392   9.209   6.253
 5661POPC   C2B72260  22.514   8.889   6.600
 5661POPC   C3B72261  22.519   8.733   7.013
 5661POPC   C4B72262  22.633   9.121   7.141
 5662POPC   NC372263  13.916   7.881   5.419
 5662POPC   PO472264  13.383   8.327   5.386
 5662POPC   GL172265  13.498   8.269   5.775
 5662POPC   GL272266  13.464   7.903   5.768
 5662POPC   C1A72267  13.634   8.368   6.190
 5662POPC   D2A72268  13.370   8.398   6.538
 5662POPC   C3A72269  13.515   8.363   6.941
 5662POPC   C4A72270  13.908   8.343   7.148
 5662POPC   C1B72271  13.309   7.950   6.211
 5662POPC   C2B72272  13.457   7.902   6.654
 5662POPC   C3B72273  13.636   7.895   7.058
 5662POPC   C4B72274  13.283   7.985   7.217
 5663POPC   NC372275   4.266   9.519   5.398
 5663POPC   PO472276   4.624  10.027   5.595
 5663POPC   GL172277   4.396   9.767   5.892
 5663POPC   GL272278   4.338   9.417   5.894
 5663POPC   C1A72279   4.161   9.721   6.301
 5663POPC   D2A72280   4.289   9.897   6.707
 5663POPC   C3A72281   4.277   9.962   7.141
 5663POPC   C4A72282   4.209   9.821   7.572
 5663POPC   C1B72283   4.322   9.245   6.332
 5663POPC   C2B72284   4.134   9.417   6.724
 5663POPC   C3B72285   4.300   9.463   7.125
 5663POPC   C4B72286   4.536   9.109   7.271
 5664POPC   NC372287  11.528   4.825   5.004
 5664POPC   PO472288  11.447   4.216   5.296
 5664POPC   GL172289  11.395   4.358   5.717
 5664POPC   GL272290  11.126   4.592   5.632
 5664POPC   C1A72291  11.519   4.304   6.182
 5664POPC   D2A72292  11.650   4.483   6.612
 5664POPC   C3A72293  11.511   4.286   7.003
 5664POPC   C4A72294  11.235   4.095   7.327
 5664POPC   C1B72295  11.051   4.509   6.077
 5664POPC   C2B72296  11.136   4.496   6.529
 5664POPC   C3B72297  11.014   4.425   6.959
 5664POPC   C4B72298  11.054   4.581   7.385
 5665POPC   NC372299  39.637  23.094   5.743
 5665POPC   PO472300  39.074  22.829   5.409
 5665POPC   GL172301  39.059  22.905   5.801
 5665POPC   GL272302  39.366  22.679   5.847
 5665POPC   C1A72303  39.170  23.081   6.186
 5665POPC   D2A72304  39.506  22.887   6.385
 5665POPC   C3A72305  39.485  23.087   6.759
 5665POPC   C4A72306  39.519  23.000   7.155
 5665POPC   C1B72307  39.104  22.582   6.193
 5665POPC   C2B72308  39.028  22.743   6.626
 5665POPC   C3B72309  39.156  22.621   7.043
 5665POPC   C4B72310  38.862  22.500   7.367
 5666POPC   NC372311  25.830   8.752   5.374
 5666POPC   PO472312  26.138   9.211   5.665
 5666POPC   GL172313  26.055   8.905   5.944
 5666POPC   GL272314  25.727   8.755   5.874
 5666POPC   C1A72315  26.206   8.935   6.367
 5666POPC   D2A72316  26.267   8.769   6.774
 5666POPC   C3A72317  26.189   9.052   7.097
 5666POPC   C4A72318  26.132   9.468   7.240
 5666POPC   C1B72319  25.708   8.847   6.325
 5666POPC   C2B72320  25.775   8.997   6.755
 5666POPC   C3B72321  25.772   8.708   7.139
 5666POPC   C4B72322  25.668   8.620   7.603
 5667POPC   NC372323  34.777   9.053   5.461
 5667POPC   PO472324  34.138   8.949   5.341
 5667POPC   GL172325  34.280   9.087   5.784
 5667POPC   GL272326  34.547   8.936   5.925
 5667POPC   C1A72327  34.250   9.385   6.167
 5667POPC   D2A72328  34.494   9.525   6.544
 5667POPC   C3A72329  34.564   9.245   6.887
 5667POPC   C4A72330  34.618   8.965   7.242
 5667POPC   C1B72331  34.526   9.007   6.374
 5667POPC   C2B72332  34.771   8.835   6.689
 5667POPC   C3B72333  34.999   8.705   7.027
 5667POPC   C4B72334  35.049   8.771   7.470
 5668POPC   NC372335  39.048  15.205   5.315
 5668POPC   PO472336  39.590  15.362   5.169
 5668POPC   GL172337  39.394  15.350   5.665
 5668POPC   GL272338  39.254  15.034   5.758
 5668POPC   C1A72339  39.206  15.388   6.125
 5668POPC   D2A72340  39.374  15.484   6.522
 5668POPC   C3A72341  39.184  15.401   6.957
 5668POPC   C4A72342  39.309  15.259   7.374
 5668POPC   C1B72343  39.048  14.902   6.159
 5668POPC   C2B72344  39.056  15.045   6.602
 5668POPC   C3B72345  39.206  14.877   7.020
 5668POPC   C4B72346  39.615  14.851   7.277
 5669POPC   NC372347  12.830  41.063   5.344
 5669POPC   PO472348  12.670  41.674   5.538
 5669POPC   GL172349  13.051  41.540   5.807
 5669POPC   GL272350  13.064  41.168   5.828
 5669POPC   C1A72351  13.206  41.531   6.270
 5669POPC   D2A72352  13.104  41.849   6.616
 5669POPC   C3A72353  13.024  41.726   7.063
 5669POPC   C4A72354  12.684  41.770   7.347
 5669POPC   C1B72355  12.742  41.316   6.162
 5669POPC   C2B72356  12.790  41.422   6.617
 5669POPC   C3B72357  12.629  41.363   7.024
 5669POPC   C4B72358  12.888  41.300   7.383
 5670POPC   NC372359   4.802  12.014   5.426
 5670POPC   PO472360   5.450  12.071   5.286
 5670POPC   GL172361   5.354  12.257   5.714
 5670POPC   GL272362   5.019  12.197   5.855
 5670POPC   C1A72363   5.397  12.184   6.180
 5670POPC   D2A72364   5.505  11.993   6.552
 5670POPC   C3A72365   5.348  12.127   6.942
 5670POPC   C4A72366   5.374  11.918   7.314
 5670POPC   C1B72367   4.952  12.440   6.226
 5670POPC   C2B72368   4.874  12.282   6.637
 5670POPC   C3B72369   4.940  12.407   7.038
 5670POPC   C4B72370   4.936  12.271   7.469
 5671POPC   NC372371  25.000  35.744   5.338
 5671POPC   PO472372  25.439  35.257   5.270
 5671POPC   GL172373  25.418  35.285   5.731
 5671POPC   GL272374  25.056  35.209   5.829
 5671POPC   C1A72375  25.482  35.213   6.192
 5671POPC   D2A72376  25.264  35.200   6.609
 5671POPC   C3A72377  25.329  35.551   6.881
 5671POPC   C4A72378  25.561  35.337   7.155
 5671POPC   C1B72379  24.955  35.382   6.262
 5671POPC   C2B72380  24.842  35.459   6.730
 5671POPC   C3B72381  24.996  35.169   7.095
 5671POPC   C4B72382  24.840  35.194   7.569
 5672POPC   NC372383   8.430   2.671   5.299
 5672POPC   PO472384   8.042   3.042   5.072
 5672POPC   GL172385   8.067   2.815   5.606
 5672POPC   GL272386   8.319   2.948   5.854
 5672POPC   C1A72387   7.952   2.604   6.058
 5672POPC   D2A72388   7.805   2.455   6.527
 5672POPC   C3A72389   7.945   2.697   6.938
 5672POPC   C4A72390   7.944   3.029   7.280
 5672POPC   C1B72391   8.372   3.162   6.278
 5672POPC   C2B72392   8.351   3.012   6.732
 5672POPC   C3B72393   8.458   2.652   6.988
 5672POPC   C4B72394   8.247   2.542   7.325
 5673POPC   NC372395  42.060  11.332   5.640
 5673POPC   PO472396  42.650  11.583   5.464
 5673POPC   GL172397  42.507  11.463   5.882
 5673POPC   GL272398  42.514  11.083   5.913
 5673POPC   C1A72399  42.444  11.475   6.350
 5673POPC   D2A72400  42.185  11.694   6.691
 5673POPC   C3A72401  42.342  11.533   7.058
 5673POPC   C4A72402  42.134  11.143   7.174
 5673POPC   C1B72403  42.156  11.024   6.215
 5673POPC   C2B72404  42.133  11.157   6.641
 5673POPC   C3B72405  42.507  11.081   6.861
 5673POPC   C4B72406  42.642  10.999   7.277
 5674POPC   NC372407  16.177  23.765   5.415
 5674POPC   PO472408  15.659  23.654   5.349
 5674POPC   GL172409  15.808  23.761   5.824
 5674POPC   GL272410  16.144  23.630   5.934
 5674POPC   C1A72411  15.854  23.703   6.339
 5674POPC   D2A72412  15.937  23.523   6.808
 5674POPC   C3A72413  15.935  23.813   7.184
 5674POPC   C4A72414  16.160  24.225   7.160
 5674POPC   C1B72415  16.332  23.531   6.387
 5674POPC   C2B72416  16.445  23.357   6.812
 5674POPC   C3B72417  16.296  23.478   7.210
 5674POPC   C4B72418  15.892  23.375   7.453
 5675POPC   NC372419   5.471  43.795   5.393
 5675POPC   PO472420   4.875  43.832   5.277
 5675POPC   GL172421   4.945  44.012   5.733
 5675POPC   GL272422   5.278  43.968   5.875
 5675POPC   C1A72423   4.901  43.944   6.240
 5675POPC   D2A72424   4.846  43.718   6.668
 5675POPC   C3A72425   4.761  43.896   7.096
 5675POPC   C4A72426   4.762  43.762   7.571
 5675POPC   C1B72427   5.323  44.288   6.238
 5675POPC   C2B72428   5.319  44.273   6.690
 5675POPC   C3B72429   5.247  43.932   6.937
 5675POPC   C4B72430   5.195  43.753   7.329
 5676POPC   NC372431  33.660  21.168   5.632
 5676POPC   PO472432  34.037  21.751   5.489
 5676POPC   GL172433  34.076  21.444   5.831
 5676POPC   GL272434  34.106  21.035   5.812
 5676POPC   C1A72435  33.967  21.658   6.250
 5676POPC   D2A72436  33.745  21.802   6.637
 5676POPC   C3A72437  33.768  21.554   7.037
 5676POPC   C4A72438  33.608  21.270   7.364
 5676POPC   C1B72439  33.963  21.137   6.236
 5676POPC   C2B72440  34.041  21.332   6.640
 5676POPC   C3B72441  33.844  21.070   6.907
 5676POPC   C4B72442  33.894  20.870   7.248
 5677POPC   NC372443  28.514  10.000   5.134
 5677POPC   PO472444  28.098   9.650   5.579
 5677POPC   GL172445  28.385   9.644   5.911
 5677POPC   GL272446  28.221   9.946   5.996
 5677POPC   C1A72447  28.497   9.699   6.365
 5677POPC   D2A72448  28.758   9.826   6.745
 5677POPC   C3A72449  28.595   9.781   7.212
 5677POPC   C4A72450  28.314   9.546   7.554
 5677POPC   C1B72451  28.080  10.092   6.377
 5677POPC   C2B72452  28.064   9.992   6.798
 5677POPC   C3B72453  28.069   9.893   7.249
 5677POPC   C4B72454  27.920   9.876   7.690
 5678POPC   NC372455  37.477   1.208   5.388
 5678POPC   PO472456  36.831   1.427   5.502
 5678POPC   GL172457  36.922   1.116   5.877
 5678POPC   GL272458  37.245   0.977   5.876
 5678POPC   C1A72459  36.715   0.947   6.275
 5678POPC   D2A72460  36.488   1.088   6.680
 5678POPC   C3A72461  36.700   1.022   7.083
 5678POPC   C4A72462  36.929   1.381   7.250
 5678POPC   C1B72463  37.181   0.700   6.215
 5678POPC   C2B72464  37.098   0.808   6.669
 5678POPC   C3B72465  37.232   0.940   7.107
 5678POPC   C4B72466  37.368   1.127   7.501
 5679POPC   NC372467  20.765  15.520   4.973
 5679POPC   PO472468  20.432  15.836   5.401
 5679POPC   GL172469  20.557  15.909   5.789
 5679POPC   GL272470  20.331  16.101   5.945
 5679POPC   C1A72471  20.819  15.687   6.072
 5679POPC   D2A72472  20.911  15.658   6.501
 5679POPC   C3A72473  20.657  15.887   6.799
 5679POPC   C4A72474  20.730  15.943   7.240
 5679POPC   C1B72475  20.327  15.759   6.252
 5679POPC   C2B72476  20.140  15.771   6.675
 5679POPC   C3B72477  20.233  15.937   7.097
 5679POPC   C4B72478  20.305  15.999   7.545
 5680POPC   NC372479  40.258   8.989   5.282
 5680POPC   PO472480  40.189   8.427   5.155
 5680POPC   GL172481  40.263   8.717   5.667
 5680POPC   GL272482  40.395   9.063   5.776
 5680POPC   C1A72483  40.009   8.944   6.075
 5680POPC   D2A72484  39.732   9.180   6.406
 5680POPC   C3A72485  39.814   9.093   6.864
 5680POPC   C4A72486  39.828   9.129   7.311
 5680POPC   C1B72487  40.507   9.092   6.227
 5680POPC   C2B72488  40.583   9.061   6.677
 5680POPC   C3B72489  40.345   9.083   7.078
 5680POPC   C4B72490  40.330   8.751   7.407
 5681POPC   NC372491  16.600  13.894   5.322
 5681POPC   PO472492  17.282  13.785   5.471
 5681POPC   GL172493  16.937  13.943   5.744
 5681POPC   GL272494  16.636  13.706   5.803
 5681POPC   C1A72495  16.840  13.956   6.195
 5681POPC   D2A72496  16.707  13.717   6.531
 5681POPC   C3A72497  16.967  13.658   6.878
 5681POPC   C4A72498  16.784  13.717   7.280
 5681POPC   C1B72499  16.716  13.377   6.143
 5681POPC   C2B72500  16.502  13.265   6.564
 5681POPC   C3B72501  16.445  13.457   6.952
 5681POPC   C4B72502  16.462  13.326   7.381
 5682POPC   NC372503  38.628  24.131   5.412
 5682POPC   PO472504  38.510  23.407   5.400
 5682POPC   GL172505  38.470  23.589   5.825
 5682POPC   GL272506  38.349  23.921   5.810
 5682POPC   C1A72507  38.630  23.510   6.261
 5682POPC   D2A72508  38.814  23.748   6.627
 5682POPC   C3A72509  38.751  23.530   7.020
 5682POPC   C4A72510  38.381  23.385   7.182
 5682POPC   C1B72511  38.575  24.015   6.188
 5682POPC   C2B72512  38.421  24.082   6.604
 5682POPC   C3B72513  38.465  23.942   7.030
 5682POPC   C4B72514  38.199  24.063   7.372
 5683POPC   NC372515  32.093  37.942   5.231
 5683POPC   PO472516  32.271  38.609   5.241
 5683POPC   GL172517  32.279  38.342   5.649
 5683POPC   GL272518  32.005  38.457   5.858
 5683POPC   C1A72519  32.470  38.342   6.112
 5683POPC   D2A72520  32.470  38.549   6.551
 5683POPC   C3A72521  32.555  38.325   6.959
 5683POPC   C4A72522  32.440  38.454   7.367
 5683POPC   C1B72523  31.980  38.236   6.239
 5683POPC   C2B72524  31.833  38.388   6.626
 5683POPC   C3B72525  32.065  38.465   6.970
 5683POPC   C4B72526  32.093  38.111   7.178
 5684POPC   NC372527  41.290  24.319   5.431
 5684POPC   PO472528  40.696  24.132   5.489
 5684POPC   GL172529  40.897  24.402   5.791
 5684POPC   GL272530  41.005  24.702   5.682
 5684POPC   C1A72531  40.710  24.547   6.169
 5684POPC   D2A72532  40.452  24.435   6.501
 5684POPC   C3A72533  40.570  24.624   6.858
 5684POPC   C4A72534  40.461  24.485   7.240
 5684POPC   C1B72535  41.124  24.829   6.144
 5684POPC   C2B72536  41.185  24.693   6.617
 5684POPC   C3B72537  41.058  24.706   7.088
 5684POPC   C4B72538  40.697  24.927   7.267
 5685POPC   NC372539  27.864  20.335   5.122
 5685POPC   PO472540  28.391  20.673   5.398
 5685POPC   GL172541  28.444  20.790   5.812
 5685POPC   GL272542  28.518  20.481   5.941
 5685POPC   C1A72543  28.323  20.943   6.220
 5685POPC   D2A72544  28.151  21.115   6.603
 5685POPC   C3A72545  28.313  20.894   6.956
 5685POPC   C4A72546  28.250  20.761   7.373
 5685POPC   C1B72547  28.542  20.438   6.400
 5685POPC   C2B72548  28.559  20.445   6.864
 5685POPC   C3B72549  28.458  20.271   7.285
 5685POPC   C4B72550  28.414  20.012   7.703
 5686POPC   NC372551   1.848  37.499   5.531
 5686POPC   PO472552   2.445  37.958   5.346
 5686POPC   GL172553   2.213  38.022   5.779
 5686POPC   GL272554   2.124  37.673   5.967
 5686POPC   C1A72555   2.077  38.100   6.240
 5686POPC   D2A72556   2.070  38.087   6.658
 5686POPC   C3A72557   1.763  37.829   6.847
 5686POPC   C4A72558   1.991  37.597   7.137
 5686POPC   C1B72559   1.818  37.616   6.355
 5686POPC   C2B72560   1.643  37.360   6.727
 5686POPC   C3B72561   1.518  37.460   7.175
 5686POPC   C4B72562   1.749  37.312   7.595
 5687POPC   NC372563  44.480   8.949   5.382
 5687POPC   PO472564  44.937   9.342   5.581
 5687POPC   GL172565  44.528   9.259   5.855
 5687POPC   GL272566  44.450   8.919   5.893
 5687POPC   C1A72567  44.497   9.230   6.346
 5687POPC   D2A72568  44.823   9.095   6.631
 5687POPC   C3A72569  44.929   9.228   7.039
 5687POPC   C4A72570  44.723   9.089   7.406
 5687POPC   C1B72571  44.339   8.741   6.274
 5687POPC   C2B72572  44.392   8.818   6.717
 5687POPC   C3B72573  44.709   8.720   7.025
 5687POPC   C4B72574  44.690   8.592   7.474
 5688POPC   NC372575   0.688   3.114   5.477
 5688POPC   PO472576   0.750   2.451   5.391
 5688POPC   GL172577   0.616   2.686   5.762
 5688POPC   GL272578   0.256   2.724   5.834
 5688POPC   C1A72579   0.646   2.575   6.184
 5688POPC   D2A72580   0.449   2.477   6.550
 5688POPC   C3A72581   0.285   2.689   6.922
 5688POPC   C4A72582   0.464   2.510   7.331
 5688POPC   C1B72583   0.182   2.818   6.267
 5688POPC   C2B72584   0.473   3.017   6.538
 5688POPC   C3B72585   0.602   3.095   6.947
 5688POPC   C4B72586   0.363   3.031   7.295
 5689POPC   NC372587  29.590  37.876   5.262
 5689POPC   PO472588  29.833  37.244   5.276
 5689POPC   GL172589  29.832  37.413   5.723
 5689POPC   GL272590  29.700  37.754   5.790
 5689POPC   C1A72591  29.964  37.535   6.169
 5689POPC   D2A72592  30.149  37.727   6.550
 5689POPC   C3A72593  30.091  37.534   6.975
 5689POPC   C4A72594  29.707  37.489   7.224
 5689POPC   C1B72595  29.513  37.865   6.196
 5689POPC   C2B72596  29.555  37.966   6.624
 5689POPC   C3B72597  29.881  37.997   6.924
 5689POPC   C4B72598  29.931  37.935   7.354
 5690POPC   NC372599  14.937  42.894   5.431
 5690POPC   PO472600  15.477  43.113   5.488
 5690POPC   GL172601  15.300  43.186   5.892
 5690POPC   GL272602  14.981  43.068   5.916
 5690POPC   C1A72603  15.477  43.391   6.234
 5690POPC   D2A72604  15.550  43.130   6.555
 5690POPC   C3A72605  15.267  43.250   6.845
 5690POPC   C4A72606  15.361  43.357   7.257
 5690POPC   C1B72607  15.031  43.114   6.365
 5690POPC   C2B72608  14.853  42.958   6.742
 5690POPC   C3B72609  14.837  43.191   7.130
 5690POPC   C4B72610  15.027  43.020   7.479
 5691POPC   NC372611   8.662  37.834   5.157
 5691POPC   PO472612   7.984  37.763   5.169
 5691POPC   GL172613   8.041  37.636   5.630
 5691POPC   GL272614   7.879  37.919   5.816
 5691POPC   C1A72615   8.161  37.548   6.085
 5691POPC   D2A72616   8.003  37.568   6.531
 5691POPC   C3A72617   8.261  37.533   6.893
 5691POPC   C4A72618   8.632  37.525   7.151
 5691POPC   C1B72619   7.857  37.973   6.246
 5691POPC   C2B72620   7.665  38.088   6.633
 5691POPC   C3B72621   7.762  38.082   7.052
 5691POPC   C4B72622   7.949  37.752   7.242
 5692POPC   NC372623  27.001  11.990   5.383
 5692POPC   PO472624  26.562  12.445   5.369
 5692POPC   GL172625  26.622  12.153   5.731
 5692POPC   GL272626  26.479  11.822   5.772
 5692POPC   C1A72627  26.871  11.950   6.083
 5692POPC   D2A72628  26.776  11.963   6.543
 5692POPC   C3A72629  26.909  12.227   6.904
 5692POPC   C4A72630  26.984  12.448   7.308
 5692POPC   C1B72631  26.494  11.625   6.207
 5692POPC   C2B72632  26.613  11.501   6.665
 5692POPC   C3B72633  26.737  11.707   7.075
 5692POPC   C4B72634  27.027  11.948   7.372
 5693POPC   NC372635  36.054  37.722   5.470
 5693POPC   PO472636  36.495  37.229   5.347
 5693POPC   GL172637  36.224  37.295   5.755
 5693POPC   GL272638  36.157  37.672   5.954
 5693POPC   C1A72639  35.960  37.256   6.135
 5693POPC   D2A72640  36.009  37.565   6.461
 5693POPC   C3A72641  35.968  37.416   6.875
 5693POPC   C4A72642  36.276  37.411   7.191
 5693POPC   C1B72643  35.875  38.039   6.058
 5693POPC   C2B72644  35.691  38.184   6.454
 5693POPC   C3B72645  35.794  37.911   6.773
 5693POPC   C4B72646  36.162  37.898   7.032
 5694POPC   NC372647  41.532   2.161   5.455
 5694POPC   PO472648  41.251   1.534   5.460
 5694POPC   GL172649  41.532   1.786   5.819
 5694POPC   GL272650  41.363   2.095   5.925
 5694POPC   C1A72651  41.739   1.956   6.221
 5694POPC   D2A72652  41.580   2.062   6.607
 5694POPC   C3A72653  41.793   2.061   7.009
 5694POPC   C4A72654  41.890   1.963   7.437
 5694POPC   C1B72655  41.230   1.815   6.268
 5694POPC   C2B72656  41.110   1.898   6.711
 5694POPC   C3B72657  41.292   2.186   7.035
 5694POPC   C4B72658  41.449   2.220   7.454
 5695POPC   NC372659  42.893  37.760   5.284
 5695POPC   PO472660  43.606  37.535   5.329
 5695POPC   GL172661  43.306  37.678   5.665
 5695POPC   GL272662  42.993  37.512   5.708
 5695POPC   C1A72663  43.064  37.907   6.027
 5695POPC   D2A72664  42.869  38.078   6.436
 5695POPC   C3A72665  42.689  37.885   6.809
 5695POPC   C4A72666  42.826  37.816   7.229
 5695POPC   C1B72667  43.020  37.374   6.105
 5695POPC   C2B72668  42.986  37.583   6.468
 5695POPC   C3B72669  43.106  37.553   6.852
 5695POPC   C4B72670  43.020  37.323   7.177
 5696POPC   NC372671  12.291  11.784   5.566
 5696POPC   PO472672  11.719  12.092   5.354
 5696POPC   GL172673  11.876  12.045   5.737
 5696POPC   GL272674  12.015  12.336   5.787
 5696POPC   C1A72675  11.844  12.004   6.187
 5696POPC   D2A72676  12.100  12.098   6.542
 5696POPC   C3A72677  12.041  11.892   6.920
 5696POPC   C4A72678  12.497  11.857   6.995
 5696POPC   C1B72679  12.094  12.529   6.195
 5696POPC   C2B72680  12.117  12.615   6.632
 5696POPC   C3B72681  12.016  12.406   6.990
 5696POPC   C4B72682  12.092  12.212   7.367
 5697POPC   NC372683  19.757   3.636   5.383
 5697POPC   PO472684  19.493   3.136   5.774
 5697POPC   GL172685  19.764   3.437   5.843
 5697POPC   GL272686  19.996   3.202   5.956
 5697POPC   C1A72687  19.897   3.681   6.183
 5697POPC   D2A72688  19.880   3.531   6.599
 5697POPC   C3A72689  20.079   3.755   6.961
 5697POPC   C4A72690  19.884   3.790   7.385
 5697POPC   C1B72691  20.251   3.227   6.317
 5697POPC   C2B72692  20.262   3.247   6.750
 5697POPC   C3B72693  19.945   3.271   7.057
 5697POPC   C4B72694  20.068   3.324   7.472
 5698POPC   NC372695   8.547  11.737   5.477
 5698POPC   PO472696   8.295  11.199   5.169
 5698POPC   GL172697   8.135  11.151   5.631
 5698POPC   GL272698   8.367  11.313   5.881
 5698POPC   C1A72699   7.892  11.126   6.052
 5698POPC   D2A72700   8.130  11.268   6.423
 5698POPC   C3A72701   8.060  11.342   6.845
 5698POPC   C4A72702   8.231  11.224   7.219
 5698POPC   C1B72703   8.516  11.670   6.169
 5698POPC   C2B72704   8.669  11.718   6.607
 5698POPC   C3B72705   8.527  11.559   6.987
 5698POPC   C4B72706   8.565  11.483   7.477
 5699POPC   NC372707   4.190  25.540   5.451
 5699POPC   PO472708   4.607  25.003   5.399
 5699POPC   GL172709   4.422  25.176   5.789
 5699POPC   GL272710   4.471  25.534   5.882
 5699POPC   C1A72711   4.266  25.021   6.201
 5699POPC   D2A72712   4.087  24.982   6.620
 5699POPC   C3A72713   4.196  25.046   7.051
 5699POPC   C4A72714   3.842  25.046   7.291
 5699POPC   C1B72715   4.523  25.464   6.322
 5699POPC   C2B72716   4.483  25.367   6.760
 5699POPC   C3B72717   4.362  25.545   7.177
 5699POPC   C4B72718   4.535  25.624   7.631
 5700POPC   NC372719  27.211  13.345   5.548
 5700POPC   PO472720  26.465  13.438   5.299
 5700POPC   GL172721  26.501  13.715   5.743
 5700POPC   GL272722  26.870  13.799   5.885
 5700POPC   C1A72723  26.503  13.697   6.213
 5700POPC   D2A72724  26.650  13.383   6.508
 5700POPC   C3A72725  26.933  13.489   6.817
 5700POPC   C4A72726  26.874  13.430   7.206
 5700POPC   C1B72727  27.000  13.746   6.330
 5700POPC   C2B72728  26.789  13.953   6.689
 5700POPC   C3B72729  26.860  13.947   7.158
 5700POPC   C4B72730  26.874  14.037   7.626
 5701POPC   NC372731  10.935   7.427   5.433
 5701POPC   PO472732  11.489   7.775   5.203
 5701POPC   GL172733  11.447   7.466   5.663
 5701POPC   GL272734  11.143   7.517   5.873
 5701POPC   C1A72735  11.444   7.287   6.176
 5701POPC   D2A72736  11.415   7.396   6.646
 5701POPC   C3A72737  11.560   7.180   7.063
 5701POPC   C4A72738  11.548   7.208   7.544
 5701POPC   C1B72739  11.024   7.612   6.301
 5701POPC   C2B72740  10.929   7.545   6.739
 5701POPC   C3B72741  11.219   7.567   7.089
 5701POPC   C4B72742  11.433   7.865   7.292
 5702POPC   NC372743  44.745  21.622   5.431
 5702POPC   PO472744   0.194  21.210   5.320
 5702POPC   GL172745  44.916  21.299   5.779
 5702POPC   GL272746  44.538  21.212   5.939
 5702POPC   C1A72747  44.748  21.605   6.136
 5702POPC   D2A72748  44.420  21.625   6.489
 5702POPC   C3A72749  44.565  21.505   6.900
 5702POPC   C4A72750  44.658  21.521   7.358
 5702POPC   C1B72751  44.816  21.114   6.317
 5702POPC   C2B72752  44.857  21.067   6.781
 5702POPC   C3B72753  44.671  20.844   7.136
 5702POPC   C4B72754  44.531  21.012   7.536
 5703POPC   NC372755  17.577  38.318   5.292
 5703POPC   PO472756  17.690  37.571   5.410
 5703POPC   GL172757  17.538  37.576   5.809
 5703POPC   GL272758  17.484  37.903   5.843
 5703POPC   C1A72759  17.612  37.603   6.240
 5703POPC   D2A72760  17.406  37.460   6.596
 5703POPC   C3A72761  17.587  37.585   6.959
 5703POPC   C4A72762  17.677  37.731   7.352
 5703POPC   C1B72763  17.731  38.102   6.211
 5703POPC   C2B72764  17.635  37.963   6.608
 5703POPC   C3B72765  17.759  38.107   6.973
 5703POPC   C4B72766  17.738  38.237   7.351
 5704POPC   NC372767  15.768  44.844   5.537
 5704POPC   PO472768  16.282  44.433   5.373
 5704POPC   GL172769  16.087  44.561   5.799
 5704POPC   GL272770  15.716  44.464   5.920
 5704POPC   C1A72771  16.084  44.672   6.234
 5704POPC   D2A72772  16.009  44.451   6.609
 5704POPC   C3A72773  16.046  44.623   7.022
 5704POPC   C4A72774  15.738  44.372   7.195
 5704POPC   C1B72775  15.571  44.562   6.362
 5704POPC   C2B72776  15.563  44.705   6.804
 5704POPC   C3B72777  15.585  44.871   7.233
 5704POPC   C4B72778  15.648   0.023   7.658
 5705POPC   NC372779   7.022   8.447   5.540
 5705POPC   PO472780   7.583   8.336   5.454
 5705POPC   GL172781   7.439   8.259   5.864
 5705POPC   GL272782   7.259   7.963   5.819
 5705POPC   C1A72783   7.598   8.120   6.266
 5705POPC   D2A72784   7.530   7.903   6.624
 5705POPC   C3A72785   7.601   8.117   7.012
 5705POPC   C4A72786   7.497   8.197   7.445
 5705POPC   C1B72787   7.162   7.792   6.230
 5705POPC   C2B72788   7.030   7.903   6.616
 5705POPC   C3B72789   7.175   7.837   7.016
 5705POPC   C4B72790   7.045   7.976   7.398
 5706POPC   NC372791   8.804   7.709   5.220
 5706POPC   PO472792   8.924   7.105   5.312
 5706POPC   GL172793   9.064   7.475   5.612
 5706POPC   GL272794   8.861   7.822   5.708
 5706POPC   C1A72795   9.087   7.518   6.075
 5706POPC   D2A72796   8.877   7.376   6.478
 5706POPC   C3A72797   9.064   7.290   6.898
 5706POPC   C4A72798   8.833   7.117   7.239
 5706POPC   C1B72799   8.936   8.014   6.122
 5706POPC   C2B72800   9.056   7.836   6.530
 5706POPC   C3B72801   8.830   7.728   6.884
 5706POPC   C4B72802   8.737   7.620   7.292
 5707POPC   NC372803  39.272  34.098   5.219
 5707POPC   PO472804  38.675  34.278   5.490
 5707POPC   GL172805  39.023  34.065   5.746
 5707POPC   GL272806  39.413  33.965   5.702
 5707POPC   C1A72807  39.136  33.914   6.166
 5707POPC   D2A72808  39.354  34.094   6.534
 5707POPC   C3A72809  39.126  33.986   6.918
 5707POPC   C4A72810  39.174  34.197   7.292
 5707POPC   C1B72811  39.611  33.745   6.068
 5707POPC   C2B72812  39.504  33.609   6.492
 5707POPC   C3B72813  39.604  33.750   6.873
 5707POPC   C4B72814  39.456  33.748   7.269
 5708POPC   NC372815  34.330   2.552   5.272
 5708POPC   PO472816  34.793   3.021   5.363
 5708POPC   GL172817  34.646   2.824   5.736
 5708POPC   GL272818  34.303   3.018   5.721
 5708POPC   C1A72819  34.872   2.672   6.131
 5708POPC   D2A72820  34.739   2.441   6.525
 5708POPC   C3A72821  34.869   2.549   6.964
 5708POPC   C4A72822  34.690   2.802   7.299
 5708POPC   C1B72823  34.162   2.900   6.133
 5708POPC   C2B72824  34.223   2.617   6.484
 5708POPC   C3B72825  34.370   2.639   6.913
 5708POPC   C4B72826  34.201   2.949   7.225
 5709POPC   NC372827   6.478  32.273   5.434
 5709POPC   PO472828   7.001  32.464   5.164
 5709POPC   GL172829   6.990  32.332   5.692
 5709POPC   GL272830   6.686  32.152   5.875
 5709POPC   C1A72831   6.860  32.502   6.183
 5709POPC   D2A72832   6.723  32.461   6.654
 5709POPC   C3A72833   7.003  32.491   7.048
 5709POPC   C4A72834   7.009  32.314   7.485
 5709POPC   C1B72835   6.437  32.110   6.293
 5709POPC   C2B72836   6.401  32.044   6.768
 5709POPC   C3B72837   6.573  32.209   7.162
 5709POPC   C4B72838   6.524  32.132   7.604
 5710POPC   NC372839  17.955   5.975   5.343
 5710POPC   PO472840  18.535   5.669   5.207
 5710POPC   GL172841  18.319   5.649   5.651
 5710POPC   GL272842  18.455   5.918   5.893
 5710POPC   C1A72843  18.221   5.520   6.130
 5710POPC   D2A72844  18.412   5.336   6.518
 5710POPC   C3A72845  18.260   5.520   6.912
 5710POPC   C4A72846  18.146   5.770   7.269
 5710POPC   C1B72847  18.680   5.700   6.264
 5710POPC   C2B72848  18.739   5.673   6.734
 5710POPC   C3B72849  18.614   5.910   7.126
 5710POPC   C4B72850  18.857   6.142   7.446
 5711POPC   NC372851  33.587  22.038   5.371
 5711POPC   PO472852  33.892  22.687   5.168
 5711POPC   GL172853  33.665  22.504   5.554
 5711POPC   GL272854  33.301  22.598   5.577
 5711POPC   C1A72855  33.766  22.261   5.990
 5711POPC   D2A72856  34.044  22.247   6.399
 5711POPC   C3A72857  33.978  22.293   6.853
 5711POPC   C4A72858  33.689  22.047   7.086
 5711POPC   C1B72859  33.494  22.686   6.003
 5711POPC   C2B72860  33.596  22.519   6.419
 5711POPC   C3B72861  33.468  22.426   6.841
 5711POPC   C4B72862  33.616  22.525   7.264
 5712POPC   NC372863  30.810   1.742   5.410
 5712POPC   PO472864  30.270   1.976   5.727
 5712POPC   GL172865  30.618   1.982   5.879
 5712POPC   GL272866  30.665   1.634   5.892
 5712POPC   C1A72867  30.714   2.228   6.237
 5712POPC   D2A72868  30.858   2.136   6.660
 5712POPC   C3A72869  30.509   2.177   6.975
 5712POPC   C4A72870  30.520   2.054   7.415
 5712POPC   C1B72871  30.844   1.720   6.295
 5712POPC   C2B72872  30.624   1.664   6.690
 5712POPC   C3B72873  30.713   1.664   7.112
 5712POPC   C4B72874  31.077   1.533   7.343
 5713POPC   NC372875   0.402  40.465   5.445
 5713POPC   PO472876   0.949  40.784   5.199
 5713POPC   GL172877   0.797  40.795   5.645
 5713POPC   GL272878   0.431  40.875   5.778
 5713POPC   C1A72879   0.819  40.772   6.106
 5713POPC   D2A72880   0.641  40.579   6.460
 5713POPC   C3A72881   0.429  40.796   6.801
 5713POPC   C4A72882   0.552  40.677   7.198
 5713POPC   C1B72883   0.278  40.834   6.233
 5713POPC   C2B72884   0.093  40.515   6.522
 5713POPC   C3B72885  44.994  40.564   6.973
 5713POPC   C4B72886   0.103  40.893   7.299
 5714POPC   NC372887   5.328  36.902   5.387
 5714POPC   PO472888   4.659  37.132   5.473
 5714POPC   GL172889   4.894  36.872   5.821
 5714POPC   GL272890   4.776  36.489   5.903
 5714POPC   C1A72891   5.229  36.807   6.120
 5714POPC   D2A72892   5.397  37.028   6.489
 5714POPC   C3A72893   5.174  37.051   6.875
 5714POPC   C4A72894   5.154  36.767   7.193
 5714POPC   C1B72895   4.683  36.699   6.277
 5714POPC   C2B72896   4.738  36.935   6.641
 5714POPC   C3B72897   4.626  36.844   7.064
 5714POPC   C4B72898   4.740  36.798   7.494
 5715POPC   NC372899  14.996  13.715   5.571
 5715POPC   PO472900  14.286  13.604   5.497
 5715POPC   GL172901  14.480  13.420   5.834
 5715POPC   GL272902  14.744  13.219   5.734
 5715POPC   C1A72903  14.372  13.465   6.238
 5715POPC   D2A72904  14.345  13.804   6.491
 5715POPC   C3A72905  14.251  13.710   6.872
 5715POPC   C4A72906  14.369  13.834   7.271
 5715POPC   C1B72907  14.837  13.245   6.198
 5715POPC   C2B72908  14.769  13.448   6.606
 5715POPC   C3B72909  14.571  13.317   6.985
 5715POPC   C4B72910  14.203  13.365   7.252
 5716POPC   NC372911  40.052  10.866   5.434
 5716POPC   PO472912  40.104  10.228   5.316
 5716POPC   GL172913  40.169  10.392   5.772
 5716POPC   GL272914  40.312  10.746   5.858
 5716POPC   C1A72915  39.902  10.394   6.164
 5716POPC   D2A72916  39.800  10.146   6.561
 5716POPC   C3A72917  39.750  10.403   6.956
 5716POPC   C4A72918  39.976  10.446   7.351
 5716POPC   C1B72919  40.360  10.585   6.291
 5716POPC   C2B72920  40.185  10.638   6.719
 5716POPC   C3B72921  40.330  10.761   7.137
 5716POPC   C4B72922  40.304  10.724   7.622
 5717POPC   NC372923  43.267  21.951   5.389
 5717POPC   PO472924  42.974  22.598   5.513
 5717POPC   GL172925  43.091  22.403   5.895
 5717POPC   GL272926  43.166  22.045   5.877
 5717POPC   C1A72927  43.086  22.296   6.344
 5717POPC   D2A72928  42.977  22.416   6.766
 5717POPC   C3A72929  43.297  22.223   7.024
 5717POPC   C4A72930  43.275  22.309   7.466
 5717POPC   C1B72931  42.819  21.894   6.147
 5717POPC   C2B72932  42.833  21.806   6.583
 5717POPC   C3B72933  42.854  21.967   6.979
 5717POPC   C4B72934  43.078  21.873   7.342
 5718POPC   NC372935   1.496   3.447   5.410
 5718POPC   PO472936   0.795   3.585   5.402
 5718POPC   GL172937   1.089   3.529   5.730
 5718POPC   GL272938   0.884   3.450   5.978
 5718POPC   C1A72939   1.272   3.715   6.152
 5718POPC   D2A72940   1.201   3.888   6.585
 5718POPC   C3A72941   1.309   3.623   6.967
 5718POPC   C4A72942   1.231   3.596   7.423
 5718POPC   C1B72943   0.910   3.476   6.448
 5718POPC   C2B72944   1.083   3.185   6.760
 5718POPC   C3B72945   1.060   3.143   7.202
 5718POPC   C4B72946   0.812   3.304   7.517
 5719POPC   NC372947  43.919  20.085   5.627
 5719POPC   PO472948  44.119  19.478   5.303
 5719POPC   GL172949  43.966  19.565   5.734
 5719POPC   GL272950  43.671  19.373   5.833
 5719POPC   C1A72951  44.168  19.694   6.133
 5719POPC   D2A72952  44.099  19.907   6.518
 5719POPC   C3A72953  44.048  19.684   6.902
 5719POPC   C4A72954  44.101  19.764   7.348
 5719POPC   C1B72955  43.659  19.655   6.191
 5719POPC   C2B72956  43.597  19.721   6.617
 5719POPC   C3B72957  43.597  19.912   7.004
 5719POPC   C4B72958  43.263  20.111   7.213
 5720POPC   NC372959  27.270  19.570   5.371
 5720POPC   PO472960  27.456  20.140   5.185
 5720POPC   GL172961  27.443  20.136   5.693
 5720POPC   GL272962  27.305  19.818   5.865
 5720POPC   C1A72963  27.635  20.125   6.155
 5720POPC   D2A72964  27.632  20.345   6.575
 5720POPC   C3A72965  27.715  20.097   6.956
 5720POPC   C4A72966  28.020  19.963   7.275
 5720POPC   C1B72967  27.142  20.014   6.286
 5720POPC   C2B72968  27.253  19.968   6.728
 5720POPC   C3B72969  27.303  19.882   7.155
 5720POPC   C4B72970  27.567  19.651   7.442
 5721POPC   NC372971  40.429  37.761   5.614
 5721POPC   PO472972  41.094  37.450   5.515
 5721POPC   GL172973  40.907  37.524   5.895
 5721POPC   GL272974  40.605  37.333   5.879
 5721POPC   C1A72975  41.001  37.817   6.248
 5721POPC   D2A72976  40.848  37.764   6.655
 5721POPC   C3A72977  41.062  37.871   7.031
 5721POPC   C4A72978  40.877  37.792   7.436
 5721POPC   C1B72979  40.552  37.525   6.284
 5721POPC   C2B72980  40.361  37.560   6.669
 5721POPC   C3B72981  40.566  37.587   7.054
 5721POPC   C4B72982  40.532  37.429   7.439
 5722POPC   NC372983  31.104   7.241   5.535
 5722POPC   PO472984  30.419   7.309   5.243
 5722POPC   GL172985  30.594   7.379   5.684
 5722POPC   GL272986  30.681   7.049   5.811
 5722POPC   C1A72987  30.625   7.409   6.157
 5722POPC   D2A72988  30.580   7.546   6.581
 5722POPC   C3A72989  30.715   7.385   6.985
 5722POPC   C4A72990  30.923   7.589   7.319
 5722POPC   C1B72991  30.569   6.898   6.220
 5722POPC   C2B72992  30.604   6.987   6.665
 5722POPC   C3B72993  30.450   6.950   7.115
 5722POPC   C4B72994  30.618   7.121   7.510
 5723POPC   NC372995  30.983  13.121   5.458
 5723POPC   PO472996  31.274  12.559   5.599
 5723POPC   GL172997  31.596  12.798   5.823
 5723POPC   GL272998  31.942  12.604   5.786
 5723POPC   C1A72999  31.558  13.004   6.262
 5723POPC   D2A73000  31.656  13.047   6.734
 5723POPC   C3A73001  31.322  12.846   6.926
 5723POPC   C4A73002  31.153  12.877   7.305
 5723POPC   C1B73003  31.736  12.480   6.183
 5723POPC   C2B73004  31.621  12.560   6.585
 5723POPC   C3B73005  31.479  12.371   6.959
 5723POPC   C4B73006  31.696  12.571   7.296
 5724POPC   NC373007  33.547   0.069   5.485
 5724POPC   PO473008  34.053   0.549   5.553
 5724POPC   GL173009  33.959   0.440   5.941
 5724POPC   GL273010  33.615   0.406   5.877
 5724POPC   C1A73011  33.790   0.633   6.315
 5724POPC   D2A73012  33.586   0.476   6.651
 5724POPC   C3A73013  33.805   0.404   7.014
 5724POPC   C4A73014  33.808   0.667   7.374
 5724POPC   C1B73015  33.570   0.151   6.237
 5724POPC   C2B73016  33.317   0.050   6.588
 5724POPC   C3B73017  33.261   0.267   6.984
 5724POPC   C4B73018  33.433   0.334   7.344
 5725POPC   NC373019  35.047   2.634   5.417
 5725POPC   PO473020  35.742   2.822   5.348
 5725POPC   GL173021  35.437   2.782   5.726
 5725POPC   GL273022  35.154   3.028   5.731
 5725POPC   C1A73023  35.405   2.784   6.194
 5725POPC   D2A73024  35.133   2.783   6.574
 5725POPC   C3A73025  35.342   2.768   6.987
 5725POPC   C4A73026  35.583   2.449   7.210
 5725POPC   C1B73027  35.098   3.189   6.113
 5725POPC   C2B73028  34.995   3.274   6.511
 5725POPC   C3B73029  35.104   3.348   6.917
 5725POPC   C4B73030  35.116   3.110   7.282
 5726POPC   NC373031  34.284  13.207   5.473
 5726POPC   PO473032  34.697  13.723   5.365
 5726POPC   GL173033  34.492  13.621   5.746
 5726POPC   GL273034  34.241  13.870   5.719
 5726POPC   C1A73035  34.636  13.642   6.191
 5726POPC   D2A73036  34.628  13.815   6.619
 5726POPC   C3A73037  34.700  13.535   7.000
 5726POPC   C4A73038  34.930  13.392   7.388
 5726POPC   C1B73039  34.181  13.841   6.135
 5726POPC   C2B73040  34.124  13.755   6.570
 5726POPC   C3B73041  34.270  13.848   6.998
 5726POPC   C4B73042  34.179  13.626   7.370
 5727POPC   NC373043  20.590  33.265   5.385
 5727POPC   PO473044  20.899  32.770   5.755
 5727POPC   GL173045  20.869  33.192   5.904
 5727POPC   GL273046  20.526  33.324   5.917
 5727POPC   C1A73047  20.824  33.215   6.364
 5727POPC   D2A73048  20.532  32.979   6.674
 5727POPC   C3A73049  20.692  33.065   7.088
 5727POPC   C4A73050  21.011  32.794   7.277
 5727POPC   C1B73051  20.330  33.327   6.339
 5727POPC   C2B73052  20.487  33.486   6.753
 5727POPC   C3B73053  20.396  33.498   7.205
 5727POPC   C4B73054  20.393  33.195   7.495
 5728POPC   NC373055  24.092  26.334   5.124
 5728POPC   PO473056  23.882  25.884   5.522
 5728POPC   GL173057  23.571  26.017   5.836
 5728POPC   GL273058  23.645  26.343   5.726
 5728POPC   C1A73059  23.619  25.850   6.250
 5728POPC   D2A73060  23.868  25.894   6.592
 5728POPC   C3A73061  23.767  26.135   6.968
 5728POPC   C4A73062  23.758  26.123   7.435
 5728POPC   C1B73063  23.682  26.376   6.186
 5728POPC   C2B73064  23.951  26.423   6.557
 5728POPC   C3B73065  24.076  26.553   6.970
 5728POPC   C4B73066  24.170  26.400   7.350
 5729POPC   NC373067  10.659  34.068   5.434
 5729POPC   PO473068   9.968  33.994   5.260
 5729POPC   GL173069  10.194  33.872   5.717
 5729POPC   GL273070  10.516  33.933   5.898
 5729POPC   C1A73071  10.235  33.662   6.197
 5729POPC   D2A73072  10.398  33.556   6.612
 5729POPC   C3A73073  10.520  33.838   6.909
 5729POPC   C4A73074  10.337  34.060   7.202
 5729POPC   C1B73075  10.755  33.701   6.235
 5729POPC   C2B73076  10.954  33.734   6.652
 5729POPC   C3B73077  10.918  33.509   7.040
 5729POPC   C4B73078  10.663  33.607   7.381
 5730POPC   NC373079  26.009  24.832   5.557
 5730POPC   PO473080  26.268  25.566   5.511
 5730POPC   GL173081  26.067  25.467   5.868
 5730POPC   GL273082  26.278  25.149   5.841
 5730POPC   C1A73083  25.911  25.608   6.318
 5730POPC   D2A73084  25.929  25.736   6.777
 5730POPC   C3A73085  26.040  25.410   7.061
 5730POPC   C4A73086  26.331  25.080   7.226
 5730POPC   C1B73087  25.981  25.107   6.207
 5730POPC   C2B73088  26.116  25.051   6.633
 5730POPC   C3B73089  25.842  24.955   6.964
 5730POPC   C4B73090  25.763  25.079   7.379
 5731POPC   NC373091  43.265  29.009   5.440
 5731POPC   PO473092  42.929  29.622   5.344
 5731POPC   GL173093  42.998  29.362   5.727
 5731POPC   GL273094  43.339  29.455   5.791
 5731POPC   C1A73095  43.034  29.089   6.132
 5731POPC   D2A73096  42.907  29.022   6.589
 5731POPC   C3A73097  43.098  28.993   7.002
 5731POPC   C4A73098  43.209  28.655   7.228
 5731POPC   C1B73099  43.474  29.358   6.208
 5731POPC   C2B73100  43.390  29.260   6.654
 5731POPC   C3B73101  43.173  29.493   6.992
 5731POPC   C4B73102  43.317  29.641   7.421
 5732POPC   NC373103  34.781  32.054   5.361
 5732POPC   PO473104  34.232  32.528   5.502
 5732POPC   GL173105  34.379  32.324   5.870
 5732POPC   GL273106  34.734  32.279   5.826
 5732POPC   C1A73107  34.412  32.037   6.232
 5732POPC   D2A73108  34.429  32.058   6.688
 5732POPC   C3A73109  34.617  32.410   6.888
 5732POPC   C4A73110  34.376  32.438   7.247
 5732POPC   C1B73111  34.719  32.461   6.239
 5732POPC   C2B73112  34.897  32.141   6.501
 5732POPC   C3B73113  34.916  31.959   6.893
 5732POPC   C4B73114  34.627  32.007   7.221
 5733POPC   NC373115  16.523  15.660   5.712
 5733POPC   PO473116  16.875  16.208   5.493
 5733POPC   GL173117  16.815  16.059   5.899
 5733POPC   GL273118  16.995  15.793   5.866
 5733POPC   C1A73119  16.652  15.872   6.320
 5733POPC   D2A73120  16.507  15.757   6.748
 5733POPC   C3A73121  16.575  16.029   7.120
 5733POPC   C4A73122  16.781  15.880   7.539
 5733POPC   C1B73123  17.148  15.959   6.284
 5733POPC   C2B73124  17.011  15.990   6.707
 5733POPC   C3B73125  16.976  15.722   7.049
 5733POPC   C4B73126  17.296  15.686   7.337
 5734POPC   NC373127  38.186  28.258   5.423
 5734POPC   PO473128  38.727  28.292   5.851
 5734POPC   GL173129  38.397  28.591   5.822
 5734POPC   GL273130  38.172  28.338   5.924
 5734POPC   C1A73131  38.234  28.735   6.233
 5734POPC   D2A73132  38.340  28.402   6.550
 5734POPC   C3A73133  38.475  28.515   6.947
 5734POPC   C4A73134  38.807  28.477   7.231
 5734POPC   C1B73135  37.931  28.247   6.267
 5734POPC   C2B73136  37.947  28.112   6.687
 5734POPC   C3B73137  38.101  28.188   7.086
 5734POPC   C4B73138  38.487  28.095   7.276
 5735POPC   NC373139  19.432  31.447   5.429
 5735POPC   PO473140  18.870  31.872   5.452
 5735POPC   GL173141  18.941  31.619   5.825
 5735POPC   GL273142  19.022  31.271   5.714
 5735POPC   C1A73143  19.065  31.727   6.260
 5735POPC   D2A73144  19.253  31.702   6.664
 5735POPC   C3A73145  19.126  31.683   7.059
 5735POPC   C4A73146  19.224  31.292   7.210
 5735POPC   C1B73147  19.012  31.233   6.158
 5735POPC   C2B73148  18.921  31.316   6.588
 5735POPC   C3B73149  18.746  31.346   6.990
 5735POPC   C4B73150  18.739  31.459   7.424
 5736POPC   NC373151  12.729  26.537   4.990
 5736POPC   PO473152  13.234  26.778   5.478
 5736POPC   GL173153  12.923  26.778   5.824
 5736POPC   GL273154  12.680  27.051   5.875
 5736POPC   C1A73155  13.026  26.758   6.264
 5736POPC   D2A73156  12.841  26.877   6.656
 5736POPC   C3A73157  13.076  26.744   7.006
 5736POPC   C4A73158  13.091  26.818   7.432
 5736POPC   C1B73159  12.511  26.792   6.216
 5736POPC   C2B73160  12.317  26.920   6.599
 5736POPC   C3B73161  12.490  27.148   6.920
 5736POPC   C4B73162  12.601  26.855   7.211
 5737POPC   NC373163   9.365  40.910   5.555
 5737POPC   PO473164   9.918  40.507   5.463
 5737POPC   GL173165   9.732  40.641   5.848
 5737POPC   GL273166   9.458  40.423   5.907
 5737POPC   C1A73167   9.802  40.873   6.237
 5737POPC   D2A73168   9.666  40.884   6.674
 5737POPC   C3A73169  10.011  40.860   6.972
 5737POPC   C4A73170  10.045  40.608   7.283
 5737POPC   C1B73171   9.302  40.695   6.202
 5737POPC   C2B73172   9.155  40.721   6.609
 5737POPC   C3B73173   9.243  40.927   6.989
 5737POPC   C4B73174   9.573  40.802   7.232
 5738POPC   NC373175  44.829   0.794   5.425
 5738POPC   PO473176  44.793   0.188   5.276
 5738POPC   GL173177  44.874   0.260   5.730
 5738POPC   GL273178  44.777   0.605   5.897
 5738POPC   C1A73179  44.723   0.148   6.160
 5738POPC   D2A73180  44.408   0.083   6.499
 5738POPC   C3A73181  44.633   0.133   6.886
 5738POPC   C4A73182  44.959   0.259   7.157
 5738POPC   C1B73183  44.617   0.678   6.339
 5738POPC   C2B73184  44.281   0.833   6.637
 5738POPC   C3B73185  44.219   0.840   7.079
 5738POPC   C4B73186  44.483   0.471   7.253
 5739POPC   NC373187   4.668  13.806   5.436
 5739POPC   PO473188   3.943  13.753   5.379
 5739POPC   GL173189   4.127  13.581   5.752
 5739POPC   GL273190   4.340  13.275   5.759
 5739POPC   C1A73191   4.279  13.679   6.165
 5739POPC   D2A73192   4.136  13.541   6.560
 5739POPC   C3A73193   3.977  13.813   6.861
 5739POPC   C4A73194   4.125  13.661   7.231
 5739POPC   C1B73195   4.677  13.352   6.116
 5739POPC   C2B73196   4.716  13.550   6.516
 5739POPC   C3B73197   4.522  13.699   6.892
 5739POPC   C4B73198   4.609  13.561   7.313
 5740POPC   NC373199  21.829  18.806   5.368
 5740POPC   PO473200  22.375  19.147   5.267
 5740POPC   GL173201  22.303  19.001   5.722
 5740POPC   GL273202  22.363  18.638   5.786
 5740POPC   C1A73203  22.417  19.001   6.187
 5740POPC   D2A73204  22.169  19.206   6.518
 5740POPC   C3A73205  22.265  19.045   6.918
 5740POPC   C4A73206  22.081  19.178   7.276
 5740POPC   C1B73207  22.001  18.732   6.058
 5740POPC   C2B73208  22.008  18.736   6.526
 5740POPC   C3B73209  21.835  18.780   6.976
 5740POPC   C4B73210  22.008  18.668   7.362
 5741POPC   NC373211   9.049  19.957   5.489
 5741POPC   PO473212   8.860  19.390   5.612
 5741POPC   GL173213   8.597  19.706   5.889
 5741POPC   GL273214   8.624  20.079   5.807
 5741POPC   C1A73215   8.627  19.717   6.362
 5741POPC   D2A73216   8.978  19.549   6.609
 5741POPC   C3A73217   8.898  19.432   7.014
 5741POPC   C4A73218   8.951  19.630   7.363
 5741POPC   C1B73219   8.952  20.060   6.147
 5741POPC   C2B73220   8.964  20.062   6.613
 5741POPC   C3B73221   8.916  20.067   7.066
 5741POPC   C4B73222   8.612  19.998   7.415
 5742POPC   NC373223  18.823   1.983   5.391
 5742POPC   PO473224  19.428   1.806   5.140
 5742POPC   GL173225  19.276   1.880   5.645
 5742POPC   GL273226  18.966   2.053   5.863
 5742POPC   C1A73227  19.360   1.889   6.125
 5742POPC   D2A73228  19.138   1.823   6.533
 5742POPC   C3A73229  19.285   1.953   6.941
 5742POPC   C4A73230  19.156   1.780   7.360
 5742POPC   C1B73231  18.713   2.354   6.120
 5742POPC   C2B73232  18.534   2.422   6.529
 5742POPC   C3B73233  18.716   2.236   6.877
 5742POPC   C4B73234  18.958   2.212   7.241
 5743POPC   NC373235  40.819  41.710   5.549
 5743POPC   PO473236  41.294  41.250   5.552
 5743POPC   GL173237  41.083  41.481   5.926
 5743POPC   GL273238  41.108  41.860   5.948
 5743POPC   C1A73239  40.703  41.449   6.214
 5743POPC   D2A73240  40.667  41.166   6.576
 5743POPC   C3A73241  40.904  41.371   6.903
 5743POPC   C4A73242  40.765  41.454   7.329
 5743POPC   C1B73243  41.075  41.797   6.390
 5743POPC   C2B73244  40.779  41.810   6.732
 5743POPC   C3B73245  40.797  41.935   7.174
 5743POPC   C4B73246  40.680  41.898   7.618
 5744POPC   NC373247   8.599   8.370   5.411
 5744POPC   PO473248   9.157   8.037   5.304
 5744POPC   GL173249   9.082   8.308   5.713
 5744POPC   GL273250   8.775   8.456   5.880
 5744POPC   C1A73251   9.253   8.443   6.125
 5744POPC   D2A73252   9.362   8.274   6.544
 5744POPC   C3A73253   9.011   8.237   6.812
 5744POPC   C4A73254   9.011   8.076   7.214
 5744POPC   C1B73255   8.624   8.388   6.326
 5744POPC   C2B73256   8.571   8.602   6.741
 5744POPC   C3B73257   8.785   8.547   7.139
 5744POPC   C4B73258   8.735   8.551   7.585
 5745POPC   NC373259  28.853   7.069   5.507
 5745POPC   PO473260  29.118   6.449   5.244
 5745POPC   GL173261  29.067   6.580   5.683
 5745POPC   GL273262  29.389   6.504   5.748
 5745POPC   C1A73263  29.099   6.500   6.163
 5745POPC   D2A73264  29.106   6.768   6.547
 5745POPC   C3A73265  29.122   6.533   6.957
 5745POPC   C4A73266  28.919   6.624   7.377
 5745POPC   C1B73267  29.543   6.737   6.122
 5745POPC   C2B73268  29.639   6.762   6.552
 5745POPC   C3B73269  29.432   6.930   6.903
 5745POPC   C4B73270  29.395   6.782   7.331
 5746POPC   NC373271  20.921  14.343   5.506
 5746POPC   PO473272  21.507  14.470   5.432
 5746POPC   GL173273  21.409  14.464   5.845
 5746POPC   GL273274  21.072  14.483   5.950
 5746POPC   C1A73275  21.401  14.240   6.242
 5746POPC   D2A73276  21.147  14.197   6.574
 5746POPC   C3A73277  21.466  14.096   6.867
 5746POPC   C4A73278  21.487  14.134   7.256
 5746POPC   C1B73279  21.280  14.758   6.238
 5746POPC   C2B73280  21.424  14.632   6.617
 5746POPC   C3B73281  21.223  14.506   6.998
 5746POPC   C4B73282  21.307  14.800   7.229
 5747POPC   NC373283  22.112  33.376   5.348
 5747POPC   PO473284  21.786  32.856   5.301
 5747POPC   GL173285  21.971  32.796   5.719
 5747POPC   GL273286  22.177  33.063   5.751
 5747POPC   C1A73287  21.842  32.844   6.167
 5747POPC   D2A73288  21.749  32.756   6.615
 5747POPC   C3A73289  21.980  32.981   6.974
 5747POPC   C4A73290  22.012  32.789   7.383
 5747POPC   C1B73291  22.332  32.876   6.116
 5747POPC   C2B73292  22.265  32.881   6.550
 5747POPC   C3B73293  22.553  32.739   6.901
 5747POPC   C4B73294  22.494  32.673   7.325
 5748POPC   NC373295  18.620  16.487   5.324
 5748POPC   PO473296  18.277  17.072   5.458
 5748POPC   GL173297  18.278  16.681   5.725
 5748POPC   GL273298  18.585  16.512   5.828
 5748POPC   C1A73299  18.160  16.750   6.149
 5748POPC   D2A73300  18.302  17.022   6.501
 5748POPC   C3A73301  18.225  16.753   6.813
 5748POPC   C4A73302  18.210  16.808   7.235
 5748POPC   C1B73303  18.572  16.267   6.204
 5748POPC   C2B73304  18.471  16.308   6.640
 5748POPC   C3B73305  18.537  16.450   7.070
 5748POPC   C4B73306  18.761  16.317   7.410
 5749POPC   NC373307  38.070  29.250   5.385
 5749POPC   PO473308  38.626  28.955   5.441
 5749POPC   GL173309  38.588  29.099   5.822
 5749POPC   GL273310  38.221  29.083   5.837
 5749POPC   C1A73311  38.816  29.345   6.132
 5749POPC   D2A73312  38.764  29.547   6.534
 5749POPC   C3A73313  38.721  29.245   6.894
 5749POPC   C4A73314  38.579  28.924   7.244
 5749POPC   C1B73315  38.325  29.328   6.198
 5749POPC   C2B73316  38.255  29.327   6.630
 5749POPC   C3B73317  38.172  29.067   6.989
 5749POPC   C4B73318  38.024  29.162   7.421
 5750POPC   NC373319   6.302  19.666   5.370
 5750POPC   PO473320   6.544  20.135   5.660
 5750POPC   GL173321   6.613  19.686   5.816
 5750POPC   GL273322   6.265  19.516   5.854
 5750POPC   C1A73323   6.834  19.653   6.215
 5750POPC   D2A73324   6.691  20.005   6.505
 5750POPC   C3A73325   6.821  19.901   6.939
 5750POPC   C4A73326   6.644  19.937   7.349
 5750POPC   C1B73327   6.322  19.704   6.271
 5750POPC   C2B73328   6.502  19.562   6.678
 5750POPC   C3B73329   6.309  19.634   7.069
 5750POPC   C4B73330   6.277  19.358   7.397
 5751POPC   NC373331  31.138  10.558   5.535
 5751POPC   PO473332  30.660  10.116   5.483
 5751POPC   GL173333  30.670  10.479   5.790
 5751POPC   GL273334  30.417  10.787   5.745
 5751POPC   C1A73335  30.750  10.336   6.214
 5751POPC   D2A73336  30.913  10.168   6.609
 5751POPC   C3A73337  30.758  10.295   7.001
 5751POPC   C4A73338  30.845  10.628   7.271
 5751POPC   C1B73339  30.494  10.778   6.189
 5751POPC   C2B73340  30.592  10.625   6.618
 5751POPC   C3B73341  30.401  10.667   7.016
 5751POPC   C4B73342  30.363  10.941   7.387
 5752POPC   NC373343  38.279  42.923   5.331
 5752POPC   PO473344  38.498  43.581   5.496
 5752POPC   GL173345  38.592  43.242   5.722
 5752POPC   GL273346  38.257  43.162   5.787
 5752POPC   C1A73347  38.638  43.211   6.178
 5752POPC   D2A73348  38.448  43.206   6.587
 5752POPC   C3A73349  38.606  42.932   6.914
 5752POPC   C4A73350  38.722  42.937   7.353
 5752POPC   C1B73351  38.093  43.079   6.182
 5752POPC   C2B73352  37.895  43.146   6.558
 5752POPC   C3B73353  38.097  43.056   6.915
 5752POPC   C4B73354  38.323  43.276   7.191
 5753POPC   NC373355  13.878  14.857   5.561
 5753POPC   PO473356  13.845  14.198   5.440
 5753POPC   GL173357  13.712  14.388   5.832
 5753POPC   GL273358  13.487  14.138   5.909
 5753POPC   C1A73359  13.701  14.437   6.333
 5753POPC   D2A73360  13.821  14.758   6.674
 5753POPC   C3A73361  13.936  14.652   7.117
 5753POPC   C4A73362  13.699  14.453   7.476
 5753POPC   C1B73363  13.280  14.549   6.065
 5753POPC   C2B73364  13.191  14.662   6.489
 5753POPC   C3B73365  13.356  14.542   6.868
 5753POPC   C4B73366  13.241  14.591   7.279
 5754POPC   NC373367   3.978  36.244   5.496
 5754POPC   PO473368   3.313  36.487   5.375
 5754POPC   GL173369   3.531  36.346   5.731
 5754POPC   GL273370   3.568  35.978   5.703
 5754POPC   C1A73371   3.723  36.369   6.142
 5754POPC   D2A73372   3.416  36.390   6.482
 5754POPC   C3A73373   3.409  36.293   6.908
 5754POPC   C4A73374   3.803  36.371   7.140
 5754POPC   C1B73375   3.363  36.000   6.102
 5754POPC   C2B73376   3.403  35.884   6.540
 5754POPC   C3B73377   3.677  35.856   6.878
 5754POPC   C4B73378   3.515  35.938   7.278
 5755POPC   NC373379  34.932   1.789   5.509
 5755POPC   PO473380  34.390   2.107   5.344
 5755POPC   GL173381  34.490   1.931   5.759
 5755POPC   GL273382  34.714   2.210   5.873
 5755POPC   C1A73383  34.315   1.840   6.189
 5755POPC   D2A73384  34.425   1.925   6.633
 5755POPC   C3A73385  34.217   2.026   7.019
 5755POPC   C4A73386  34.403   1.919   7.484
 5755POPC   C1B73387  34.831   1.987   6.252
 5755POPC   C2B73388  34.917   1.999   6.702
 5755POPC   C3B73389  34.711   2.037   7.083
 5755POPC   C4B73390  34.742   2.312   7.447
 5756POPC   NC373391  22.474  15.318   5.185
 5756POPC   PO473392  21.771  15.090   5.373
 5756POPC   GL173393  22.031  15.135   5.744
 5756POPC   GL273394  21.997  15.468   5.843
 5756POPC   C1A73395  22.197  14.878   6.118
 5756POPC   D2A73396  22.254  14.616   6.498
 5756POPC   C3A73397  22.226  14.818   6.903
 5756POPC   C4A73398  22.157  14.897   7.339
 5756POPC   C1B73399  22.130  15.368   6.266
 5756POPC   C2B73400  22.295  15.275   6.669
 5756POPC   C3B73401  22.249  15.396   7.108
 5756POPC   C4B73402  22.055  15.358   7.508
 5757POPC   NC373403  30.065  23.255   5.381
 5757POPC   PO473404  29.605  23.662   5.506
 5757POPC   GL173405  29.871  23.827   5.819
 5757POPC   GL273406  30.030  23.536   5.849
 5757POPC   C1A73407  29.901  23.890   6.273
 5757POPC   D2A73408  29.902  23.636   6.676
 5757POPC   C3A73409  29.830  23.894   7.084
 5757POPC   C4A73410  29.701  23.926   7.525
 5757POPC   C1B73411  30.327  23.632   6.193
 5757POPC   C2B73412  30.438  23.553   6.601
 5757POPC   C3B73413  30.282  23.699   6.999
 5757POPC   C4B73414  30.083  23.610   7.433
 5758POPC   NC373415   4.339  40.786   5.518
 5758POPC   PO473416   3.975  41.389   5.567
 5758POPC   GL173417   4.103  41.050   5.900
 5758POPC   GL273418   4.030  40.645   5.908
 5758POPC   C1A73419   4.389  40.978   6.238
 5758POPC   D2A73420   4.499  40.747   6.624
 5758POPC   C3A73421   4.460  40.904   7.031
 5758POPC   C4A73422   4.470  40.581   7.314
 5758POPC   C1B73423   3.928  40.793   6.343
 5758POPC   C2B73424   4.013  40.824   6.793
 5758POPC   C3B73425   3.942  40.593   7.206
 5758POPC   C4B73426   4.008  40.299   7.617
 5759POPC   NC373427  18.520  31.586   5.507
 5759POPC   PO473428  18.451  30.970   5.555
 5759POPC   GL173429  18.545  31.260   5.899
 5759POPC   GL273430  18.226  31.223   6.007
 5759POPC   C1A73431  18.560  31.500   6.288
 5759POPC   D2A73432  18.345  31.327   6.670
 5759POPC   C3A73433  18.279  31.536   7.086
 5759POPC   C4A73434  18.277  31.686   7.512
 5759POPC   C1B73435  18.095  30.972   6.361
 5759POPC   C2B73436  17.878  31.037   6.758
 5759POPC   C3B73437  17.874  31.228   7.170
 5759POPC   C4B73438  17.862  31.070   7.585
 5760POPC   NC373439  12.396  14.078   5.554
 5760POPC   PO473440  11.810  13.954   5.366
 5760POPC   GL173441  11.948  14.206   5.753
 5760POPC   GL273442  12.190  14.511   5.746
 5760POPC   C1A73443  12.163  14.135   6.163
 5760POPC   D2A73444  12.186  14.347   6.577
 5760POPC   C3A73445  11.920  14.217   6.919
 5760POPC   C4A73446  12.137  14.231   7.283
 5760POPC   C1B73447  12.245  14.664   6.173
 5760POPC   C2B73448  12.166  14.860   6.592
 5760POPC   C3B73449  12.119  14.698   7.021
 5760POPC   C4B73450  11.970  14.679   7.477
 5761POPC   NC373451  26.965  22.241   5.382
 5761POPC   PO473452  26.350  22.297   5.177
 5761POPC   GL173453  26.533  22.350   5.634
 5761POPC   GL273454  26.718  22.077   5.802
 5761POPC   C1A73455  26.621  22.455   6.110
 5761POPC   D2A73456  26.777  22.503   6.579
 5761POPC   C3A73457  26.694  22.237   6.998
 5761POPC   C4A73458  26.338  21.929   7.017
 5761POPC   C1B73459  26.600  21.955   6.237
 5761POPC   C2B73460  26.801  21.905   6.637
 5761POPC   C3B73461  26.803  21.709   7.048
 5761POPC   C4B73462  26.947  21.963   7.394
 5762POPC   NC373463  12.123  16.104   4.653
 5762POPC   PO473464  12.222  16.099   5.402
 5762POPC   GL173465  12.314  16.043   5.811
 5762POPC   GL273466  12.559  16.276   5.775
 5762POPC   C1A73467  12.165  15.995   6.267
 5762POPC   D2A73468  11.983  16.163   6.677
 5762POPC   C3A73469  11.880  15.969   7.100
 5762POPC   C4A73470  11.806  16.163   7.518
 5762POPC   C1B73471  12.473  16.407   6.215
 5762POPC   C2B73472  12.508  16.260   6.658
 5762POPC   C3B73473  12.358  16.159   7.102
 5762POPC   C4B73474  12.324  16.209   7.558
 5763POPC   NC373475  42.918  41.073   5.454
 5763POPC   PO473476  43.367  41.550   5.393
 5763POPC   GL173477  43.014  41.584   5.686
 5763POPC   GL273478  42.989  41.300   5.903
 5763POPC   C1A73479  43.028  41.763   6.104
 5763POPC   D2A73480  42.947  41.873   6.517
 5763POPC   C3A73481  42.793  41.567   6.799
 5763POPC   C4A73482  42.942  41.616   7.202
 5763POPC   C1B73483  42.863  41.326   6.339
 5763POPC   C2B73484  43.163  41.237   6.674
 5763POPC   C3B73485  43.178  41.188   7.123
 5763POPC   C4B73486  42.968  41.176   7.527
 5764POPC   NC373487  44.292  13.311   5.575
 5764POPC   PO473488  43.685  13.635   5.389
 5764POPC   GL173489  43.855  13.678   5.800
 5764POPC   GL273490  43.603  13.542   6.031
 5764POPC   C1A73491  43.882  13.912   6.199
 5764POPC   D2A73492  43.995  13.832   6.595
 5764POPC   C3A73493  43.750  13.761   6.918
 5764POPC   C4A73494  43.977  13.771   7.314
 5764POPC   C1B73495  43.787  13.383   6.404
 5764POPC   C2B73496  43.895  13.284   6.827
 5764POPC   C3B73497  43.682  13.359   7.239
 5764POPC   C4B73498  43.794  13.391   7.701
 5765POPC   NC373499   6.578  41.827   5.411
 5765POPC   PO473500   6.501  41.194   5.273
 5765POPC   GL173501   6.461  41.184   5.755
 5765POPC   GL273502   6.122  41.262   5.853
 5765POPC   C1A73503   6.698  41.322   6.149
 5765POPC   D2A73504   6.984  41.325   6.515
 5765POPC   C3A73505   6.850  41.407   6.942
 5765POPC   C4A73506   6.960  41.773   7.187
 5765POPC   C1B73507   6.207  41.361   6.292
 5765POPC   C2B73508   6.421  41.599   6.637
 5765POPC   C3B73509   6.425  41.672   7.084
 5765POPC   C4B73510   6.427  41.262   7.211
 5766POPC   NC373511   9.116   4.452   5.459
 5766POPC   PO473512   8.877   3.801   5.444
 5766POPC   GL173513   8.957   4.114   5.802
 5766POPC   GL273514   8.820   4.454   5.890
 5766POPC   C1A73515   9.148   4.098   6.237
 5766POPC   D2A73516   9.078   4.265   6.672
 5766POPC   C3A73517   8.935   4.028   7.027
 5766POPC   C4A73518   8.846   4.154   7.467
 5766POPC   C1B73519   9.160   4.624   6.184
 5766POPC   C2B73520   9.251   4.749   6.644
 5766POPC   C3B73521   9.215   4.665   7.141
 5766POPC   C4B73522   9.413   4.657   7.613
 5767POPC   NC373523  22.600  41.701   4.883
 5767POPC   PO473524  22.855  41.460   5.419
 5767POPC   GL173525  22.908  41.357   5.806
 5767POPC   GL273526  22.705  41.619   5.893
 5767POPC   C1A73527  23.055  41.469   6.239
 5767POPC   D2A73528  23.089  41.757   6.590
 5767POPC   C3A73529  23.102  41.555   6.982
 5767POPC   C4A73530  23.349  41.290   7.269
 5767POPC   C1B73531  22.485  41.960   6.062
 5767POPC   C2B73532  22.567  42.060   6.480
 5767POPC   C3B73533  22.615  41.754   6.827
 5767POPC   C4B73534  22.665  41.610   7.248
 5768POPC   NC373535   8.623  43.143   5.462
 5768POPC   PO473536   8.015  43.314   5.264
 5768POPC   GL173537   8.143  43.202   5.697
 5768POPC   GL273538   8.417  43.489   5.780
 5768POPC   C1A73539   8.009  42.999   6.125
 5768POPC   D2A73540   8.012  43.232   6.564
 5768POPC   C3A73541   8.001  43.037   6.995
 5768POPC   C4A73542   8.117  42.951   7.457
 5768POPC   C1B73543   8.481  43.151   6.090
 5768POPC   C2B73544   8.409  42.916   6.476
 5768POPC   C3B73545   8.531  42.900   6.903
 5768POPC   C4B73546   8.578  43.129   7.289
 5769POPC   NC373547  23.361  19.828   5.473
 5769POPC   PO473548  23.909  20.113   5.454
 5769POPC   GL173549  23.742  19.970   5.826
 5769POPC   GL273550  23.503  20.221   5.843
 5769POPC   C1A73551  23.756  19.711   6.212
 5769POPC   D2A73552  23.610  19.542   6.603
 5769POPC   C3A73553  23.679  19.714   7.020
 5769POPC   C4A73554  23.733  19.904   7.424
 5769POPC   C1B73555  23.443  20.115   6.257
 5769POPC   C2B73556  23.358  19.980   6.690
 5769POPC   C3B73557  23.334  20.071   7.129
 5769POPC   C4B73558  23.218  19.887   7.537
 5770POPC   NC373559  39.755  21.558   5.621
 5770POPC   PO473560  39.370  21.400   5.139
 5770POPC   GL173561  39.312  21.345   5.686
 5770POPC   GL273562  38.996  21.423   5.942
 5770POPC   C1A73563  39.442  21.292   6.150
 5770POPC   D2A73564  39.273  21.554   6.508
 5770POPC   C3A73565  39.455  21.636   6.936
 5770POPC   C4A73566  39.249  21.673   7.375
 5770POPC   C1B73567  38.991  21.139   6.339
 5770POPC   C2B73568  39.115  21.086   6.801
 5770POPC   C3B73569  39.158  21.178   7.266
 5770POPC   C4B73570  39.111  20.945   7.705
 5771POPC   NC373571  34.613  10.214   5.533
 5771POPC   PO473572  34.505   9.482   5.531
 5771POPC   GL173573  34.542   9.800   5.841
 5771POPC   GL273574  34.904   9.869   5.775
 5771POPC   C1A73575  34.492   9.951   6.267
 5771POPC   D2A73576  34.441  10.005   6.736
 5771POPC   C3A73577  34.345   9.681   7.048
 5771POPC   C4A73578  34.067   9.664   7.407
 5771POPC   C1B73579  34.923   9.626   6.138
 5771POPC   C2B73580  34.936   9.812   6.518
 5771POPC   C3B73581  34.861   9.678   6.920
 5771POPC   C4B73582  34.802   9.464   7.297
 5772POPC   NC373583  34.748  11.197   5.657
 5772POPC   PO473584  34.152  11.294   5.499
 5772POPC   GL173585  34.293  11.280   5.907
 5772POPC   GL273586  34.454  11.595   5.866
 5772POPC   C1A73587  34.441  11.381   6.332
 5772POPC   D2A73588  34.303  11.327   6.746
 5772POPC   C3A73589  34.592  11.047   6.980
 5772POPC   C4A73590  34.274  10.917   7.242
 5772POPC   C1B73591  34.853  11.665   6.128
 5772POPC   C2B73592  34.971  11.537   6.533
 5772POPC   C3B73593  34.706  11.592   6.890
 5772POPC   C4B73594  34.468  11.437   7.259
 5773POPC   NC373595  42.143   9.275   5.461
 5773POPC   PO473596  42.553   9.858   5.421
 5773POPC   GL173597  42.485   9.638   5.785
 5773POPC   GL273598  42.138   9.705   5.797
 5773POPC   C1A73599  42.523   9.741   6.237
 5773POPC   D2A73600  42.672   9.927   6.644
 5773POPC   C3A73601  42.438   9.908   7.068
 5773POPC   C4A73602  42.523   9.805   7.525
 5773POPC   C1B73603  42.010   9.613   6.201
 5773POPC   C2B73604  42.178   9.627   6.605
 5773POPC   C3B73605  42.103   9.347   6.923
 5773POPC   C4B73606  42.269   9.425   7.312
 5774POPC   NC373607   3.179  42.383   5.275
 5774POPC   PO473608   2.619  42.031   5.385
 5774POPC   GL173609   2.962  42.135   5.688
 5774POPC   GL273610   2.870  42.470   5.691
 5774POPC   C1A73611   3.081  42.280   6.111
 5774POPC   D2A73612   2.812  42.183   6.471
 5774POPC   C3A73613   2.856  42.355   6.863
 5774POPC   C4A73614   2.811  42.593   7.236
 5774POPC   C1B73615   2.595  42.449   6.062
 5774POPC   C2B73616   2.550  42.622   6.468
 5774POPC   C3B73617   2.402  42.568   6.875
 5774POPC   C4B73618   2.308  42.678   7.254
 5775POPC   NC373619  14.024  36.994   5.471
 5775POPC   PO473620  14.582  36.588   5.344
 5775POPC   GL173621  14.581  36.811   5.774
 5775POPC   GL273622  14.394  37.105   5.801
 5775POPC   C1A73623  14.700  37.009   6.197
 5775POPC   D2A73624  14.563  37.163   6.604
 5775POPC   C3A73625  14.633  36.932   6.961
 5775POPC   C4A73626  14.497  36.973   7.380
 5775POPC   C1B73627  14.176  37.053   6.200
 5775POPC   C2B73628  14.053  37.099   6.626
 5775POPC   C3B73629  14.125  36.972   7.022
 5775POPC   C4B73630  14.020  36.660   7.318
 5776POPC   NC373631  30.889  32.215   5.297
 5776POPC   PO473632  30.151  32.403   5.415
 5776POPC   GL173633  30.481  32.311   5.681
 5776POPC   GL273634  30.571  32.652   5.724
 5776POPC   C1A73635  30.682  32.119   6.071
 5776POPC   D2A73636  30.792  31.917   6.465
 5776POPC   C3A73637  30.822  32.001   6.898
 5776POPC   C4A73638  30.532  31.952   7.179
 5776POPC   C1B73639  30.826  32.643   6.123
 5776POPC   C2B73640  30.901  32.432   6.524
 5776POPC   C3B73641  30.752  32.511   6.943
 5776POPC   C4B73642  30.815  32.398   7.364
 5777POPC   NC373643   2.595  32.325   5.173
 5777POPC   PO473644   2.892  31.769   5.296
 5777POPC   GL173645   2.919  32.125   5.593
 5777POPC   GL273646   3.081  31.985   5.874
 5777POPC   C1A73647   2.745  32.347   5.988
 5777POPC   D2A73648   2.463  32.301   6.378
 5777POPC   C3A73649   2.611  32.358   6.826
 5777POPC   C4A73650   2.493  32.435   7.252
 5777POPC   C1B73651   2.948  31.965   6.325
 5777POPC   C2B73652   2.989  32.019   6.767
 5777POPC   C3B73653   3.149  32.022   7.194
 5777POPC   C4B73654   3.112  32.122   7.651
 5778POPC   NC373655  17.896  18.363   5.572
 5778POPC   PO473656  17.266  18.329   5.524
 5778POPC   GL173657  17.484  18.168   5.872
 5778POPC   GL273658  17.208  18.277   6.049
 5778POPC   C1A73659  17.680  18.267   6.281
 5778POPC   D2A73660  17.928  18.490   6.616
 5778POPC   C3A73661  17.759  18.658   6.952
 5778POPC   C4A73662  17.634  18.572   7.344
 5778POPC   C1B73663  17.220  17.905   6.262
 5778POPC   C2B73664  17.399  17.985   6.640
 5778POPC   C3B73665  17.419  18.242   6.990
 5778POPC   C4B73666  17.395  18.100   7.402
 5779POPC   NC373667  38.298  14.558   5.363
 5779POPC   PO473668  38.721  14.057   5.577
 5779POPC   GL173669  38.380  14.223   5.825
 5779POPC   GL273670  38.389  14.565   5.851
 5779POPC   C1A73671  38.343  14.196   6.275
 5779POPC   D2A73672  38.532  14.356   6.656
 5779POPC   C3A73673  38.302  14.411   7.032
 5779POPC   C4A73674  38.147  14.026   7.181
 5779POPC   C1B73675  38.579  14.674   6.208
 5779POPC   C2B73676  38.586  14.866   6.572
 5779POPC   C3B73677  38.718  14.738   6.948
 5779POPC   C4B73678  38.798  14.485   7.287
 5780POPC   NC373679  11.258  10.730   5.517
 5780POPC   PO473680  11.629  11.311   5.251
 5780POPC   GL173681  11.555  11.278   5.737
 5780POPC   GL273682  11.356  11.031   5.939
 5780POPC   C1A73683  11.355  11.583   6.069
 5780POPC   D2A73684  11.109  11.648   6.446
 5780POPC   C3A73685  11.301  11.422   6.769
 5780POPC   C4A73686  11.545  11.535   7.149
 5780POPC   C1B73687  11.097  11.134   6.306
 5780POPC   C2B73688  10.775  11.298   6.576
 5780POPC   C3B73689  10.839  11.496   6.969
 5780POPC   C4B73690  11.099  11.282   7.245
 5781POPC   NC373691   3.048  19.836   5.296
 5781POPC   PO473692   2.379  20.003   5.489
 5781POPC   GL173693   2.579  19.834   5.862
 5781POPC   GL273694   2.927  19.745   5.780
 5781POPC   C1A73695   2.734  19.979   6.291
 5781POPC   D2A73696   2.954  20.143   6.668
 5781POPC   C3A73697   2.801  20.039   7.048
 5781POPC   C4A73698   2.613  20.306   7.339
 5781POPC   C1B73699   3.140  19.668   6.170
 5781POPC   C2B73700   3.051  19.635   6.628
 5781POPC   C3B73701   3.125  19.584   7.066
 5781POPC   C4B73702   3.013  19.476   7.493
 5782POPC   NC373703  26.448   1.371   5.283
 5782POPC   PO473704  27.139   1.368   5.334
 5782POPC   GL173705  26.821   1.174   5.668
 5782POPC   GL273706  26.663   1.479   5.748
 5782POPC   C1A73707  26.936   0.933   6.101
 5782POPC   D2A73708  27.084   1.040   6.541
 5782POPC   C3A73709  26.964   0.896   6.983
 5782POPC   C4A73710  26.942   1.071   7.460
 5782POPC   C1B73711  26.831   1.445   6.177
 5782POPC   C2B73712  26.698   1.377   6.609
 5782POPC   C3B73713  26.716   1.333   7.055
 5782POPC   C4B73714  26.574   1.459   7.458
 5783POPC   NC373715  12.332  19.049   5.210
 5783POPC   PO473716  11.675  18.895   5.293
 5783POPC   GL173717  11.963  18.952   5.645
 5783POPC   GL273718  12.309  19.045   5.728
 5783POPC   C1A73719  11.916  19.051   6.085
 5783POPC   D2A73720  12.092  18.971   6.506
 5783POPC   C3A73721  11.883  18.884   6.880
 5783POPC   C4A73722  11.955  19.183   7.206
 5783POPC   C1B73723  12.433  19.199   6.145
 5783POPC   C2B73724  12.613  19.084   6.534
 5783POPC   C3B73725  12.425  18.977   6.900
 5783POPC   C4B73726  12.477  18.961   7.293
 5784POPC   NC373727  20.890  42.092   5.363
 5784POPC   PO473728  20.675  42.773   5.338
 5784POPC   GL173729  20.633  42.561   5.781
 5784POPC   GL273730  20.789  42.252   5.875
 5784POPC   C1A73731  20.299  42.457   6.135
 5784POPC   D2A73732  20.117  42.366   6.569
 5784POPC   C3A73733  20.451  42.288   6.892
 5784POPC   C4A73734  20.650  42.456   7.267
 5784POPC   C1B73735  20.741  42.282   6.350
 5784POPC   C2B73736  20.882  42.036   6.719
 5784POPC   C3B73737  20.800  41.965   7.135
 5784POPC   C4B73738  20.834  42.041   7.571
 5785POPC   NC373739  21.761   4.125   5.661
 5785POPC   PO473740  21.139   4.010   5.419
 5785POPC   GL173741  21.268   4.369   5.703
 5785POPC   GL273742  21.382   4.200   5.971
 5785POPC   C1A73743  21.225   4.664   6.118
 5785POPC   D2A73744  20.949   4.727   6.473
 5785POPC   C3A73745  21.156   4.625   6.840
 5785POPC   C4A73746  21.168   4.346   7.186
 5785POPC   C1B73747  21.442   4.293   6.395
 5785POPC   C2B73748  21.413   4.140   6.789
 5785POPC   C3B73749  21.649   4.215   7.146
 5785POPC   C4B73750  21.884   4.554   7.144
 5786POPC   NC373751   8.040  34.720   5.506
 5786POPC   PO473752   8.649  34.371   5.534
 5786POPC   GL173753   8.422  34.561   5.829
 5786POPC   GL273754   8.136  34.354   5.847
 5786POPC   C1A73755   8.527  34.565   6.255
 5786POPC   D2A73756   8.328  34.747   6.591
 5786POPC   C3A73757   8.331  34.591   7.005
 5786POPC   C4A73758   8.466  34.792   7.366
 5786POPC   C1B73759   7.996  34.569   6.199
 5786POPC   C2B73760   7.883  34.504   6.611
 5786POPC   C3B73761   7.816  34.594   7.036
 5786POPC   C4B73762   8.004  34.374   7.362
 5787POPC   NC373763  39.971   0.875   5.593
 5787POPC   PO473764  40.042   0.316   5.120
 5787POPC   GL173765  40.011   0.329   5.606
 5787POPC   GL273766  40.320   0.259   5.807
 5787POPC   C1A73767  39.889   0.389   6.053
 5787POPC   D2A73768  39.655   0.266   6.403
 5787POPC   C3A73769  39.790   0.365   6.814
 5787POPC   C4A73770  39.724   0.495   7.234
 5787POPC   C1B73771  40.300   0.183   6.298
 5787POPC   C2B73772  40.403   0.246   6.752
 5787POPC   C3B73773  40.210   0.408   7.148
 5787POPC   C4B73774  40.287   0.303   7.576
 5788POPC   NC373775   3.846  30.780   5.454
 5788POPC   PO473776   3.339  30.528   5.148
 5788POPC   GL173777   3.360  30.845   5.614
 5788POPC   GL273778   3.603  30.887   5.868
 5788POPC   C1A73779   3.231  30.642   6.103
 5788POPC   D2A73780   3.426  30.604   6.544
 5788POPC   C3A73781   3.229  30.793   6.926
 5788POPC   C4A73782   3.378  30.681   7.304
 5788POPC   C1B73783   3.809  30.742   6.208
 5788POPC   C2B73784   3.887  30.851   6.626
 5788POPC   C3B73785   3.797  30.576   6.990
 5788POPC   C4B73786   4.023  30.642   7.340
 5789POPC   NC373787  24.238  26.498   5.652
 5789POPC   PO473788  24.603  27.127   5.535
 5789POPC   GL173789  24.604  26.815   5.870
 5789POPC   GL273790  24.765  26.468   5.776
 5789POPC   C1A73791  24.317  26.777   6.244
 5789POPC   D2A73792  24.111  26.925   6.624
 5789POPC   C3A73793  24.221  27.094   7.004
 5789POPC   C4A73794  24.179  26.921   7.427
 5789POPC   C1B73795  24.774  26.509   6.245
 5789POPC   C2B73796  24.512  26.588   6.675
 5789POPC   C3B73797  24.559  26.726   7.124
 5789POPC   C4B73798  24.583  26.588   7.561
 5790POPC   NC373799  44.999  30.110   5.501
 5790POPC   PO473800  44.421  29.863   5.376
 5790POPC   GL173801  44.496  29.921   5.780
 5790POPC   GL273802  44.802  29.766   5.815
 5790POPC   C1A73803  44.334  29.916   6.198
 5790POPC   D2A73804  44.244  30.207   6.522
 5790POPC   C3A73805  44.424  30.197   6.933
 5790POPC   C4A73806  44.263  30.061   7.313
 5790POPC   C1B73807  44.819  30.088   6.148
 5790POPC   C2B73808   0.092  30.143   6.490
 5790POPC   C3B73809  44.947  30.127   6.916
 5790POPC   C4B73810  44.766  29.917   7.272
 5791POPC   NC373811  43.613   5.462   5.684
 5791POPC   PO473812  44.029   5.131   5.249
 5791POPC   GL173813  44.024   4.889   5.687
 5791POPC   GL273814  43.716   4.881   5.916
 5791POPC   C1A73815  44.187   4.889   6.145
 5791POPC   D2A73816  44.093   5.065   6.556
 5791POPC   C3A73817  44.299   4.980   6.946
 5791POPC   C4A73818  44.182   4.723   7.311
 5791POPC   C1B73819  43.585   5.098   6.314
 5791POPC   C2B73820  43.707   5.368   6.670
 5791POPC   C3B73821  43.906   5.275   7.020
 5791POPC   C4B73822  43.727   4.903   7.135
 5792POPC   NC373823  14.918  12.398   5.118
 5792POPC   PO473824  15.469  12.378   5.451
 5792POPC   GL173825  15.301  12.144   5.823
 5792POPC   GL273826  14.995  12.327   5.813
 5792POPC   C1A73827  15.266  11.959   6.269
 5792POPC   D2A73828  15.210  11.633   6.624
 5792POPC   C3A73829  15.477  11.723   6.946
 5792POPC   C4A73830  15.416  11.965   7.279
 5792POPC   C1B73831  15.221  12.472   6.216
 5792POPC   C2B73832  15.354  12.425   6.673
 5792POPC   C3B73833  15.325  12.481   7.142
 5792POPC   C4B73834  15.080  12.273   7.475
 5793POPC   NC373835  38.832  10.013   5.551
 5793POPC   PO473836  38.297   9.769   5.250
 5793POPC   GL173837  38.350   9.792   5.694
 5793POPC   GL273838  38.554   9.511   5.680
 5793POPC   C1A73839  38.308   9.665   6.147
 5793POPC   D2A73840  38.059   9.729   6.518
 5793POPC   C3A73841  38.064   9.962   6.890
 5793POPC   C4A73842  38.425   9.879   7.082
 5793POPC   C1B73843  38.782   9.480   6.067
 5793POPC   C2B73844  38.792   9.421   6.510
 5793POPC   C3B73845  38.569   9.401   6.890
 5793POPC   C4B73846  38.874   9.424   7.192
 5794POPC   NC373847  21.869  35.427   5.473
 5794POPC   PO473848  21.168  35.290   5.482
 5794POPC   GL173849  21.251  35.459   5.848
 5794POPC   GL273850  21.577  35.448   5.880
 5794POPC   C1A73851  21.056  35.499   6.222
 5794POPC   D2A73852  21.217  35.338   6.572
 5794POPC   C3A73853  21.052  35.484   6.925
 5794POPC   C4A73854  21.140  35.367   7.302
 5794POPC   C1B73855  21.488  35.122   6.187
 5794POPC   C2B73856  21.639  35.047   6.614
 5794POPC   C3B73857  21.544  35.322   6.971
 5794POPC   C4B73858  21.747  35.325   7.319
 5795POPC   NC373859  36.594   1.845   5.507
 5795POPC   PO473860  35.956   1.848   5.266
 5795POPC   GL173861  35.968   1.781   5.736
 5795POPC   GL273862  36.253   1.603   5.803
 5795POPC   C1A73863  35.809   1.794   6.179
 5795POPC   D2A73864  35.584   1.980   6.525
 5795POPC   C3A73865  35.753   2.024   6.935
 5795POPC   C4A73866  35.873   1.619   7.124
 5795POPC   C1B73867  36.300   1.900   6.164
 5795POPC   C2B73868  36.117   2.036   6.575
 5795POPC   C3B73869  36.272   1.952   7.024
 5795POPC   C4B73870  36.664   1.815   7.304
 5796POPC   NC373871  37.665  33.453   5.430
 5796POPC   PO473872  37.461  32.774   5.192
 5796POPC   GL173873  37.793  32.978   5.522
 5796POPC   GL273874  38.061  32.814   5.661
 5796POPC   C1A73875  37.784  33.090   6.029
 5796POPC   D2A73876  37.494  33.137   6.417
 5796POPC   C3A73877  37.676  33.248   6.824
 5796POPC   C4A73878  37.631  33.050   7.265
 5796POPC   C1B73879  38.157  32.752   6.104
 5796POPC   C2B73880  37.991  32.976   6.501
 5796POPC   C3B73881  37.856  32.765   6.884
 5796POPC   C4B73882  38.045  32.740   7.291
 5797POPC   NC373883  32.714   4.404   5.492
 5797POPC   PO473884  33.347   4.600   5.524
 5797POPC   GL173885  33.138   4.265   5.787
 5797POPC   GL273886  33.417   4.072   5.893
 5797POPC   C1A73887  32.839   4.304   6.157
 5797POPC   D2A73888  32.826   4.660   6.459
 5797POPC   C3A73889  32.936   4.681   6.903
 5797POPC   C4A73890  32.679   4.580   7.265
 5797POPC   C1B73891  33.324   4.261   6.324
 5797POPC   C2B73892  33.028   4.219   6.712
 5797POPC   C3B73893  32.880   4.095   7.174
 5797POPC   C4B73894  32.829   3.824   7.585
 5798POPC   NC373895  44.687  20.603   5.264
 5798POPC   PO473896  44.455  21.253   5.429
 5798POPC   GL173897  44.741  20.828   5.700
 5798POPC   GL273898  44.571  20.491   5.762
 5798POPC   C1A73899  44.865  20.608   6.134
 5798POPC   D2A73900  44.685  20.638   6.549
 5798POPC   C3A73901  44.780  20.363   6.883
 5798POPC   C4A73902  44.857  20.402   7.331
 5798POPC   C1B73903  44.318  20.445   6.174
 5798POPC   C2B73904  44.254  20.385   6.663
 5798POPC   C3B73905  44.304  20.339   7.135
 5798POPC   C4B73906  43.998  20.262   7.488
 5799POPC   NC373907  32.168   5.202   5.235
 5799POPC   PO473908  32.669   4.869   5.471
 5799POPC   GL173909  32.403   4.924   5.811
 5799POPC   GL273910  32.219   5.247   5.771
 5799POPC   C1A73911  32.366   4.784   6.236
 5799POPC   D2A73912  32.218   4.953   6.614
 5799POPC   C3A73913  32.464   4.943   6.961
 5799POPC   C4A73914  32.359   4.973   7.376
 5799POPC   C1B73915  32.355   5.307   6.222
 5799POPC   C2B73916  32.277   5.463   6.659
 5799POPC   C3B73917  32.119   5.314   7.071
 5799POPC   C4B73918  32.192   5.385   7.589
 5800POPC   NC373919  21.617  36.345   5.165
 5800POPC   PO473920  21.041  36.204   5.419
 5800POPC   GL173921  21.264  36.299   5.771
 5800POPC   GL273922  21.447  35.970   5.761
 5800POPC   C1A73923  21.433  36.325   6.188
 5800POPC   D2A73924  21.664  36.138   6.514
 5800POPC   C3A73925  21.554  36.340   6.859
 5800POPC   C4A73926  21.540  36.254   7.273
 5800POPC   C1B73927  21.439  35.820   6.182
 5800POPC   C2B73928  21.199  35.866   6.555
 5800POPC   C3B73929  21.357  35.878   6.931
 5800POPC   C4B73930  21.434  35.759   7.313
 5801POPC   NC373931  40.175  31.662   5.428
 5801POPC   PO473932  39.691  31.226   5.464
 5801POPC   GL173933  39.906  31.439   5.793
 5801POPC   GL273934  39.780  31.714   5.927
 5801POPC   C1A73935  40.203  31.458   6.150
 5801POPC   D2A73936  40.464  31.311   6.508
 5801POPC   C3A73937  40.213  31.383   6.878
 5801POPC   C4A73938  39.910  31.573   7.137
 5801POPC   C1B73939  39.658  31.433   6.256
 5801POPC   C2B73940  39.693  31.438   6.692
 5801POPC   C3B73941  39.501  31.301   7.063
 5801POPC   C4B73942  39.635  31.258   7.507
 5802POPC   NC373943  24.266  21.017   5.494
 5802POPC   PO473944  24.719  20.683   5.313
 5802POPC   GL173945  24.501  20.603   5.726
 5802POPC   GL273946  24.595  20.882   5.910
 5802POPC   C1A73947  24.402  20.424   6.162
 5802POPC   D2A73948  24.406  20.603   6.570
 5802POPC   C3A73949  24.281  20.402   6.928
 5802POPC   C4A73950  24.611  20.324   7.181
 5802POPC   C1B73951  24.205  20.874   6.152
 5802POPC   C2B73952  24.002  20.896   6.540
 5802POPC   C3B73953  23.876  20.769   6.937
 5802POPC   C4B73954  24.112  20.740   7.303
 5803POPC   NC373955  34.718  23.135   5.375
 5803POPC   PO473956  34.775  22.483   5.592
 5803POPC   GL173957  34.685  22.888   5.848
 5803POPC   GL273958  34.385  23.115   5.898
 5803POPC   C1A73959  34.631  22.934   6.320
 5803POPC   D2A73960  34.865  22.823   6.710
 5803POPC   C3A73961  34.564  22.818   7.064
 5803POPC   C4A73962  34.383  22.882   7.500
 5803POPC   C1B73963  34.220  23.280   6.271
 5803POPC   C2B73964  34.387  23.220   6.689
 5803POPC   C3B73965  34.291  23.261   7.122
 5803POPC   C4B73966  34.340  23.376   7.552
 5804POPC   NC373967  12.665  39.569   5.419
 5804POPC   PO473968  13.117  39.033   5.465
 5804POPC   GL173969  12.807  39.215   5.765
 5804POPC   GL273970  13.079  39.385   5.906
 5804POPC   C1A73971  12.729  39.385   6.236
 5804POPC   D2A73972  13.025  39.515   6.567
 5804POPC   C3A73973  12.920  39.325   6.951
 5804POPC   C4A73974  12.666  39.453   7.294
 5804POPC   C1B73975  13.069  39.006   6.153
 5804POPC   C2B73976  13.135  39.012   6.581
 5804POPC   C3B73977  13.153  38.828   6.973
 5804POPC   C4B73978  12.959  38.965   7.339
 5805POPC   NC373979  37.831  19.009   4.861
 5805POPC   PO473980  37.620  19.179   5.488
 5805POPC   GL173981  37.731  18.900   5.816
 5805POPC   GL273982  37.451  19.003   6.016
 5805POPC   C1A73983  37.885  19.066   6.222
 5805POPC   D2A73984  37.594  19.182   6.519
 5805POPC   C3A73985  37.779  19.047   6.865
 5805POPC   C4A73986  37.756  19.187   7.242
 5805POPC   C1B73987  37.158  19.262   6.233
 5805POPC   C2B73988  37.154  19.498   6.579
 5805POPC   C3B73989  37.373  19.391   6.958
 5805POPC   C4B73990  37.253  19.288   7.372
 5806POPC   NC373991  12.656  38.808   5.429
 5806POPC   PO473992  13.091  38.383   5.233
 5806POPC   GL173993  12.867  38.371   5.640
 5806POPC   GL273994  13.072  38.619   5.741
 5806POPC   C1A73995  12.716  38.547   6.081
 5806POPC   D2A73996  12.595  38.422   6.516
 5806POPC   C3A73997  12.710  38.586   6.932
 5806POPC   C4A73998  12.506  38.443   7.321
 5806POPC   C1B73999  13.230  38.514   6.138
 5806POPC   C2B74000  13.121  38.511   6.567
 5806POPC   C3B74001  13.151  38.311   6.989
 5806POPC   C4B74002  13.000  38.454   7.388
 5807POPC   NC374003  13.577  26.412   5.504
 5807POPC   PO474004  13.437  25.800   5.428
 5807POPC   GL174005  13.657  25.950   5.822
 5807POPC   GL274006  13.843  26.260   5.900
 5807POPC   C1A74007  13.614  25.807   6.247
 5807POPC   D2A74008  13.252  25.893   6.508
 5807POPC   C3A74009  13.392  25.983   6.921
 5807POPC   C4A74010  13.497  25.760   7.278
 5807POPC   C1B74011  13.948  26.267   6.306
 5807POPC   C2B74012  13.834  26.127   6.694
 5807POPC   C3B74013  13.881  26.056   7.136
 5807POPC   C4B74014  13.790  26.287   7.523
 5808POPC   NC374015  15.783  38.221   5.079
 5808POPC   PO474016  15.758  37.685   5.582
 5808POPC   GL174017  16.147  37.620   5.813
 5808POPC   GL274018  16.343  37.928   5.858
 5808POPC   C1A74019  16.126  37.581   6.271
 5808POPC   D2A74020  15.775  37.599   6.568
 5808POPC   C3A74021  15.964  37.558   6.963
 5808POPC   C4A74022  15.824  37.340   7.313
 5808POPC   C1B74023  16.112  38.088   6.219
 5808POPC   C2B74024  16.087  37.996   6.660
 5808POPC   C3B74025  16.203  38.021   7.071
 5808POPC   C4B74026  16.118  38.151   7.487
 5809POPC   NC374027   0.451   1.178   5.424
 5809POPC   PO474028  44.793   1.215   5.234
 5809POPC   GL174029   0.096   1.074   5.740
 5809POPC   GL274030   0.171   1.358   5.983
 5809POPC   C1A74031   0.435   0.950   6.091
 5809POPC   D2A74032   0.706   0.868   6.474
 5809POPC   C3A74033   0.669   1.196   6.813
 5809POPC   C4A74034   0.442   1.265   7.208
 5809POPC   C1B74035   0.388   1.407   6.366
 5809POPC   C2B74036   0.193   1.394   6.780
 5809POPC   C3B74037  44.933   1.366   7.133
 5809POPC   C4B74038  44.943   1.392   7.593
 5810POPC   NC374039  22.431   8.246   5.195
 5810POPC   PO474040  22.994   8.076   5.470
 5810POPC   GL174041  22.955   8.162   5.848
 5810POPC   GL274042  23.000   8.523   5.746
 5810POPC   C1A74043  22.868   8.036   6.299
 5810POPC   D2A74044  23.047   7.988   6.717
 5810POPC   C3A74045  22.786   7.874   7.079
 5810POPC   C4A74046  22.871   7.886   7.532
 5810POPC   C1B74047  23.097   8.480   6.194
 5810POPC   C2B74048  22.873   8.485   6.594
 5810POPC   C3B74049  22.882   8.358   7.048
 5810POPC   C4B74050  23.166   8.295   7.401
 5811POPC   NC374051  32.890  39.807   5.417
 5811POPC   PO474052  33.086  39.189   5.240
 5811POPC   GL174053  32.962  39.340   5.668
 5811POPC   GL274054  33.174  39.162   5.849
 5811POPC   C1A74055  32.760  39.265   6.112
 5811POPC   D2A74056  32.696  39.039   6.526
 5811POPC   C3A74057  32.797  39.239   6.946
 5811POPC   C4A74058  32.931  38.950   7.262
 5811POPC   C1B74059  33.214  39.034   6.277
 5811POPC   C2B74060  33.080  39.368   6.524
 5811POPC   C3B74061  33.195  39.626   6.839
 5811POPC   C4B74062  33.253  39.371   7.188
 5812POPC   NC374063  34.213  24.649   5.339
 5812POPC   PO474064  33.634  24.865   5.599
 5812POPC   GL174065  33.817  25.082   5.894
 5812POPC   GL274066  33.809  25.410   5.741
 5812POPC   C1A74067  33.632  25.108   6.295
 5812POPC   D2A74068  33.593  25.295   6.672
 5812POPC   C3A74069  33.752  25.004   6.974
 5812POPC   C4A74070  34.049  25.070   7.310
 5812POPC   C1B74071  33.930  25.503   6.166
 5812POPC   C2B74072  33.984  25.841   6.445
 5812POPC   C3B74073  33.899  25.684   6.846
 5812POPC   C4B74074  33.715  25.460   7.186
 5813POPC   NC374075  11.154   6.481   5.274
 5813POPC   PO474076  11.603   6.861   5.433
 5813POPC   GL174077  11.423   6.922   5.795
 5813POPC   GL274078  11.127   7.018   5.647
 5813POPC   C1A74079  11.350   6.784   6.208
 5813POPC   D2A74080  11.459   6.886   6.623
 5813POPC   C3A74081  11.424   6.676   6.992
 5813POPC   C4A74082  11.338   6.753   7.425
 5813POPC   C1B74083  10.964   7.057   6.049
 5813POPC   C2B74084  11.002   7.093   6.506
 5813POPC   C3B74085  11.072   7.078   6.972
 5813POPC   C4B74086  10.895   7.032   7.422
 5814POPC   NC374087   5.796  33.603   5.444
 5814POPC   PO474088   6.164  34.181   5.292
 5814POPC   GL174089   5.945  34.040   5.695
 5814POPC   GL274090   6.252  33.836   5.742
 5814POPC   C1A74091   5.626  33.986   6.089
 5814POPC   D2A74092   5.475  33.759   6.431
 5814POPC   C3A74093   5.550  33.930   6.856
 5814POPC   C4A74094   5.645  33.776   7.259
 5814POPC   C1B74095   6.074  33.785   6.136
 5814POPC   C2B74096   5.951  33.600   6.513
 5814POPC   C3B74097   6.024  33.713   6.920
 5814POPC   C4B74098   6.094  33.426   7.234
 5815POPC   NC374099  13.155  24.158   5.339
 5815POPC   PO474100  12.553  24.509   5.344
 5815POPC   GL174101  12.747  24.353   5.792
 5815POPC   GL274102  13.066  24.418   5.890
 5815POPC   C1A74103  12.783  24.504   6.290
 5815POPC   D2A74104  13.013  24.582   6.654
 5815POPC   C3A74105  12.755  24.611   7.023
 5815POPC   C4A74106  12.627  24.703   7.454
 5815POPC   C1B74107  13.108  24.125   6.303
 5815POPC   C2B74108  13.227  24.134   6.710
 5815POPC   C3B74109  13.269  24.383   7.073
 5815POPC   C4B74110  12.954  24.279   7.372
 5816POPC   NC374111  37.152  33.108   5.279
 5816POPC   PO474112  37.432  32.677   5.704
 5816POPC   GL174113  37.042  32.958   5.817
 5816POPC   GL274114  36.824  33.271   5.626
 5816POPC   C1A74115  37.002  32.989   6.286
 5816POPC   D2A74116  36.821  32.767   6.650
 5816POPC   C3A74117  36.904  32.768   7.115
 5816POPC   C4A74118  37.134  33.030   7.376
 5816POPC   C1B74119  36.762  33.401   6.050
 5816POPC   C2B74120  36.828  33.418   6.511
 5816POPC   C3B74121  36.952  33.255   6.912
 5816POPC   C4B74122  36.661  33.221   7.254
 5817POPC   NC374123  35.205  42.231   5.495
 5817POPC   PO474124  34.601  42.539   5.481
 5817POPC   GL174125  34.525  42.397   5.886
 5817POPC   GL274126  34.875  42.309   5.872
 5817POPC   C1A74127  34.416  42.014   6.151
 5817POPC   D2A74128  34.226  41.829   6.540
 5817POPC   C3A74129  34.261  42.142   6.881
 5817POPC   C4A74130  34.293  42.611   6.914
 5817POPC   C1B74131  34.821  42.316   6.276
 5817POPC   C2B74132  34.585  42.461   6.535
 5817POPC   C3B74133  34.763  42.327   6.859
 5817POPC   C4B74134  34.940  42.364   7.225
 5818POPC   NC374135  20.140  13.089   5.128
 5818POPC   PO474136  19.679  13.530   5.421
 5818POPC   GL174137  19.759  13.589   5.822
 5818POPC   GL274138  19.504  13.333   5.899
 5818POPC   C1A74139  20.107  13.559   6.098
 5818POPC   D2A74140  20.200  13.801   6.455
 5818POPC   C3A74141  19.896  13.760   6.786
 5818POPC   C4A74142  19.960  13.727   7.213
 5818POPC   C1B74143  19.585  13.554   6.311
 5818POPC   C2B74144  19.504  13.431   6.733
 5818POPC   C3B74145  19.435  13.487   7.163
 5818POPC   C4B74146  19.713  13.343   7.451
 5819POPC   NC374147  19.912  36.112   5.405
 5819POPC   PO474148  19.304  36.469   5.439
 5819POPC   GL174149  19.685  36.364   5.776
 5819POPC   GL274150  19.838  36.006   5.890
 5819POPC   C1A74151  19.871  36.345   6.245
 5819POPC   D2A74152  19.706  36.138   6.650
 5819POPC   C3A74153  19.964  36.184   7.051
 5819POPC   C4A74154  20.209  36.406   7.380
 5819POPC   C1B74155  20.011  35.786   6.252
 5819POPC   C2B74156  20.145  35.576   6.639
 5819POPC   C3B74157  20.052  35.667   7.058
 5819POPC   C4B74158  19.941  35.573   7.468
 5820POPC   NC374159  40.928  12.369   5.389
 5820POPC   PO474160  40.665  11.843   5.247
 5820POPC   GL174161  40.506  11.776   5.700
 5820POPC   GL274162  40.651  12.097   5.784
 5820POPC   C1A74163  40.445  11.814   6.160
 5820POPC   D2A74164  40.736  11.679   6.503
 5820POPC   C3A74165  40.580  11.742   6.928
 5820POPC   C4A74166  40.809  11.725   7.315
 5820POPC   C1B74167  40.842  12.130   6.206
 5820POPC   C2B74168  40.694  12.176   6.616
 5820POPC   C3B74169  40.874  12.356   6.929
 5820POPC   C4B74170  40.761  12.264   7.326
 5821POPC   NC374171   8.530   1.424   5.293
 5821POPC   PO474172   9.025   1.022   5.452
 5821POPC   GL174173   9.004   1.123   5.836
 5821POPC   GL274174   8.836   1.429   5.804
 5821POPC   C1A74175   9.092   0.992   6.229
 5821POPC   D2A74176   8.969   0.982   6.634
 5821POPC   C3A74177   9.164   1.301   6.931
 5821POPC   C4A74178   8.941   1.028   7.173
 5821POPC   C1B74179   8.692   1.316   6.228
 5821POPC   C2B74180   8.762   1.438   6.660
 5821POPC   C3B74181   8.567   1.365   7.078
 5821POPC   C4B74182   8.366   1.370   7.499
 5822POPC   NC374183  24.490   9.399   5.453
 5822POPC   PO474184  24.608   8.737   5.501
 5822POPC   GL174185  24.477   8.756   5.908
 5822POPC   GL274186  24.418   9.097   5.877
 5822POPC   C1A74187  24.456   8.760   6.356
 5822POPC   D2A74188  24.261   8.976   6.719
 5822POPC   C3A74189  24.417   8.814   7.111
 5822POPC   C4A74190  24.826   8.618   7.181
 5822POPC   C1B74191  24.345   9.256   6.280
 5822POPC   C2B74192  24.375   9.492   6.645
 5822POPC   C3B74193  24.339   9.418   7.068
 5822POPC   C4B74194  24.412   9.228   7.443
 5823POPC   NC374195  11.040   9.999   5.282
 5823POPC   PO474196  10.466   9.714   5.240
 5823POPC   GL174197  10.464   9.649   5.706
 5823POPC   GL274198  10.712   9.423   5.836
 5823POPC   C1A74199  10.554   9.924   6.099
 5823POPC   D2A74200  10.734   9.935   6.534
 5823POPC   C3A74201  10.450   9.959   6.886
 5823POPC   C4A74202  10.242  10.093   7.260
 5823POPC   C1B74203  10.943   9.596   6.203
 5823POPC   C2B74204  11.103   9.597   6.621
 5823POPC   C3B74205  10.761   9.541   6.916
 5823POPC   C4B74206  10.477   9.567   7.275
 5824POPC   NC374207  30.146  31.925   5.473
 5824POPC   PO474208  30.144  31.211   5.517
 5824POPC   GL174209  30.098  31.301   5.938
 5824POPC   GL274210  29.975  31.669   5.901
 5824POPC   C1A74211  29.858  31.397   6.305
 5824POPC   D2A74212  29.848  31.665   6.635
 5824POPC   C3A74213  29.915  31.345   6.923
 5824POPC   C4A74214  30.059  31.163   7.284
 5824POPC   C1B74215  30.170  31.909   6.255
 5824POPC   C2B74216  30.309  31.876   6.699
 5824POPC   C3B74217  30.054  31.812   7.096
 5824POPC   C4B74218  30.131  32.001   7.492
 5825POPC   NC374219  42.878  35.719   5.487
 5825POPC   PO474220  43.322  35.087   5.431
 5825POPC   GL174221  43.133  35.271   5.793
 5825POPC   GL274222  42.878  35.083   5.896
 5825POPC   C1A74223  43.040  35.435   6.214
 5825POPC   D2A74224  42.844  35.605   6.577
 5825POPC   C3A74225  42.933  35.370   6.931
 5825POPC   C4A74226  43.008  35.550   7.314
 5825POPC   C1B74227  42.625  35.074   6.234
 5825POPC   C2B74228  42.557  35.165   6.617
 5825POPC   C3B74229  42.590  34.973   6.990
 5825POPC   C4B74230  42.696  35.174   7.359
 5826W        W74231  38.730   7.404  13.461
 5827W        W74232  15.334  15.056   3.716
 5828W        W74233  39.304  30.129   4.572
 5829W        W74234  31.737  42.662  13.165
 5830W        W74235  33.480  42.000   4.548
 5831W        W74236   5.005  36.939   3.675
 5832W        W74237  40.485  30.249   0.387
 5833W        W74238  17.243  22.585  11.884
 5834W        W74239  26.309  13.060   2.277
 5835W        W74240  17.770   7.720  13.072
 5836W        W74241   1.757  19.739  10.394
 5837W        W74242  42.825   6.954  10.691
 5838W        W74243  35.611  35.159  11.557
 5839W        W74244  36.643   4.984   0.905
 5840W        W74245  18.678  33.985   2.248
 5841W        W74246  22.751  19.202   0.297
 5842W        W74247  29.518  40.054  12.232
 5843W        W74248  15.752  34.248  14.889
 5844W        W74249   1.433  35.100  13.974
 5845W        W74250  41.866  32.629  13.963
 5846W        W74251  40.828  26.669  12.960
 5847W        W74252  13.312   7.074  13.810
 5848W        W74253  11.729  25.710  11.583
 5849W        W74254  13.314  14.010   3.257
 5850W        W74255  22.051   3.077   1.175
 5851W        W74256  35.597  13.831  14.769
 5852W        W74257  11.000  34.007  11.084
 5853W        W74258  26.524  37.980   4.141
 5854W        W74259  14.256  21.206   1.905
 5855W        W74260   9.933  27.332  10.729
 5856W        W74261  30.399  28.485  10.652
 5857W        W74262  27.057  37.963  12.784
 5858W        W74263  16.080  35.025  10.713
 5859W        W74264  43.451  41.320   2.666
 5860W        W74265   6.443  22.225   2.852
 5861W        W74266  34.172  20.790  10.645
 5862W        W74267   8.218   0.380  11.325
 5863W        W74268   5.857  11.672   2.375
 5864W        W74269  27.838   9.227   4.064
 5865W        W74270  23.791  41.450  10.489
 5866W        W74271   7.082  12.590  12.538
 5867W        W74272  42.998  18.785   3.622
 5868W        W74273  12.413  15.670  10.631
 5869W        W74274  38.409   2.984   1.787
 5870W        W74275  24.032   4.878   3.545
 5871W        W74276  13.590  31.425  12.004
 5872W        W74277  28.547  31.264  11.174
 5873W        W74278  10.134  35.926  14.388
 5874W        W74279  33.025  20.828  11.570
 5875W        W74280  39.589   2.995   1.813
 5876W        W74281   8.279   3.444   3.570
 5877W        W74282  38.077  13.049   0.975
 5878W        W74283  21.390  29.645   2.446
 5879W        W74284  28.672   5.325   1.219
 5880W        W74285  41.090  38.744   1.272
 5881W        W74286  32.206  35.228   5.071
 5882W        W74287  12.623  43.983   3.745
 5883W        W74288   3.777   6.929   1.420
 5884W        W74289  44.962   5.909   2.260
 5885W        W74290  43.471  11.193   3.114
 5886W        W74291  40.038  16.213  14.879
 5887W        W74292  39.565  15.354   1.821
 5888W        W74293   3.415  30.601  13.903
 5889W        W74294  43.884  42.995   0.634
 5890W        W74295  17.580   5.262  14.575
 5891W        W74296  34.448   6.274   3.063
 5892W        W74297  10.827  29.887  14.942
 5893W        W74298  39.028  10.282   0.886
 5894W        W74299  32.554  32.458  14.502
 5895W        W74300  15.459   0.403   2.268
 5896W        W74301  22.081   1.939   2.256
 5897W        W74302  23.232  14.350   4.078
 5898W        W74303   1.441  40.788  14.438
 5899W        W74304  42.950  31.869   4.065
 5900W        W74305  15.141  19.550  10.858
 5901W        W74306  37.127   0.952  11.382
 5902W        W74307   8.280  17.775   1.812
 5903W        W74308  25.145   5.587   2.860
 5904W        W74309  32.941  16.838   1.467
 5905W        W74310  27.502   7.396  13.522
 5906W        W74311  12.886  15.067  13.878
 5907W        W74312  18.398   3.648  12.673
 5908W        W74313  40.253  28.002   0.380
 5909W        W74314  13.541  15.214   3.018
 5910W        W74315  37.914  33.177  14.306
 5911W        W74316  36.508  10.785   2.836
 5912W        W74317  23.476  15.587  13.409
 5913W        W74318  16.767   1.583   1.946
 5914W        W74319  39.119  42.797   0.694
 5915W        W74320  15.005   3.935   1.829
 5916W        W74321  18.995  19.654   4.239
 5917W        W74322  33.636  37.677  10.291
 5918W        W74323   1.446  14.744  13.903
 5919W        W74324  17.220  36.088  14.757
 5920W        W74325  39.761   1.255   5.017
 5921W        W74326  15.591   1.776  13.866
 5922W        W74327   0.763  43.559   1.177
 5923W        W74328   6.803   4.678   1.446
 5924W        W74329  34.868  35.043  11.110
 5925W        W74330  32.009   5.708  12.878
 5926W        W74331  19.838  17.742   1.396
 5927W        W74332  39.985  27.165  13.032
 5928W        W74333  14.573  42.517   2.906
 5929W        W74334   9.698   8.748  11.660
 5930W        W74335   3.997  30.643   4.585
 5931W        W74336  17.020   9.437  13.418
 5932W        W74337  18.503  26.677  12.084
 5933W        W74338  30.537  20.356   2.601
 5934W        W74339  18.689  10.939   2.947
 5935W        W74340  20.044  20.599  11.002
 5936W        W74341   1.243   7.381  12.382
 5937W        W74342   2.159   9.277   4.565
 5938W        W74343  25.956  21.068   1.859
 5939W        W74344   5.873  24.736   1.892
 5940W        W74345  22.069  11.867  11.536
 5941W        W74346  19.630  29.496   4.260
 5942W        W74347  42.704   6.698   1.417
 5943W        W74348  38.975  27.471  11.713
 5944W        W74349  36.883   4.943  13.816
 5945W        W74350  20.160  28.199  12.031
 5946W        W74351  13.097  20.524   0.306
 5947W        W74352  12.713  27.494   1.273
 5948W        W74353  18.849   0.915  13.382
 5949W        W74354  13.819  33.858   1.915
 5950W        W74355   6.455  37.401   3.271
 5951W        W74356  43.504  27.022  10.421
 5952W        W74357   5.918  38.476   1.656
 5953W        W74358  40.546   2.231  12.058
 5954W        W74359  25.038  43.356   2.083
 5955W        W74360  16.087  29.892   2.595
 5956W        W74361  37.653  43.612   3.626
 5957W        W74362  12.091  23.531   4.670
 5958W        W74363   9.870  14.773  14.421
 5959W        W74364  26.433  38.334  11.137
 5960W        W74365  23.793   8.824   3.179
 5961W        W74366   9.907  32.058  14.912
 5962W        W74367  34.343   4.199   2.219
 5963W        W74368   2.660  30.578  14.557
 5964W        W74369  36.485  27.346  13.116
 5965W        W74370  14.292  28.983  11.489
 5966W        W74371  17.901  23.337   1.452
 5967W        W74372  27.463   1.291  12.609
 5968W        W74373  20.694  23.466   3.651
 5969W        W74374  10.862  40.886  13.344
 5970W        W74375  22.264  27.969  14.334
 5971W        W74376  43.062  18.473   3.190
 5972W        W74377  26.709  28.948   3.405
 5973W        W74378   3.221  17.434   1.165
 5974W        W74379  41.798   1.944  12.026
 5975W        W74380  43.936  31.459   0.745
 5976W        W74381  38.880  27.031   1.824
 5977W        W74382   0.185  39.397   2.831
 5978W        W74383  42.073  12.644   2.797
 5979W        W74384   4.756  19.336  11.430
 5980W        W74385   0.017  13.343  11.991
 5981W        W74386  24.331  23.107   2.362
 5982W        W74387   3.994  21.182   3.309
 5983W        W74388  24.629  15.435   2.260
 5984W        W74389  16.992  19.995  12.849
 5985W        W74390  38.954  26.143   0.837
 5986W        W74391  11.926  18.922  12.062
 5987W        W74392  28.961  15.252   2.290
 5988W        W74393  37.523  29.604   4.555
 5989W        W74394  19.150  24.959   4.196
 5990W        W74395  24.443  12.180   3.842
 5991W        W74396  31.910  16.097  12.541
 5992W        W74397  42.860  35.070   0.462
 5993W        W74398   5.407  31.389  13.820
 5994W        W74399  25.985  26.082   3.766
 5995W        W74400  42.234  18.152  13.470
 5996W        W74401   1.073  15.244  13.320
 5997W        W74402  14.074   9.748  11.211
 5998W        W74403  15.553   9.165   4.167
 5999W        W74404  30.427  27.761   0.422
 6000W        W74405   7.645  24.126  13.821
 6001W        W74406  22.294  43.828   0.397
 6002W        W74407   3.689  32.986  14.879
 6003W        W74408  16.365   7.181   2.765
 6004W        W74409   8.201  23.312   3.154
 6005W        W74410  26.917   5.992  14.894
 6006W        W74411  18.329  11.593  10.765
 6007W        W74412  37.942   2.351   1.243
 6008W        W74413  23.971   0.852   2.195
 6009W        W74414  11.601   1.441  14.217
 6010W        W74415  32.103  40.208  13.010
 6011W        W74416  12.804  15.301   1.745
 6012W        W74417  36.603  33.281  11.185
 6013W        W74418  15.196   4.716   3.742
 6014W        W74419  26.398  25.948  14.811
 6015W        W74420  19.714  14.691  13.133
 6016W        W74421  22.238  16.209   0.132
 6017W        W74422  25.929  42.799   3.248
 6018W        W74423   8.889  26.501  14.427
 6019W        W74424  34.162   0.522  14.561
 6020W        W74425  32.492  14.235   4.186
 6021W        W74426  20.592   2.365   5.057
 6022W        W74427  10.178  24.814  11.121
 6023W        W74428  33.624  32.653   9.985
 6024W        W74429  10.593   3.963   1.086
 6025W        W74430  24.804  13.784  12.497
 6026W        W74431  33.170  42.450   4.021
 6027W        W74432   9.971  14.649  13.030
 6028W        W74433  39.010  28.342  10.648
 6029W        W74434  19.770  36.862  13.434
 6030W        W74435   5.724  33.092  10.449
 6031W        W74436  11.662  33.796   4.515
 6032W        W74437  20.722  25.566   0.362
 6033W        W74438  25.844  13.806   3.188
 6034W        W74439   4.419  28.144  10.696
 6035W        W74440   6.821  12.474  13.457
 6036W        W74441  25.979  26.013  12.933
 6037W        W74442  43.202  14.250   2.549
 6038W        W74443   4.504  17.663  11.955
 6039W        W74444  12.685  29.036  12.643
 6040W        W74445  27.992  33.875   2.453
 6041W        W74446  42.583   2.906  12.532
 6042W        W74447  16.052   7.357  12.092
 6043W        W74448  26.689  44.542  12.869
 6044W        W74449  27.614  38.169  10.605
 6045W        W74450  44.760  43.667   2.816
 6046W        W74451  19.676  22.060  10.169
 6047W        W74452  19.674  41.393   2.221
 6048W        W74453  43.759  23.622  13.940
 6049W        W74454   1.830  16.487  13.430
 6050W        W74455  37.372  43.024   4.292
 6051W        W74456   9.121  41.958  13.492
 6052W        W74457  20.277  18.725  10.731
 6053W        W74458  15.042  23.344   2.312
 6054W        W74459   3.868  14.856   1.129
 6055W        W74460   1.928  17.877  14.306
 6056W        W74461  42.354  41.418  11.550
 6057W        W74462  17.362   7.380   1.803
 6058W        W74463  40.929   7.390   1.380
 6059W        W74464   7.092  40.560   0.911
 6060W        W74465  26.644  27.427   3.676
 6061W        W74466  32.847   3.841  12.592
 6062W        W74467  37.465   9.355   2.488
 6063W        W74468  16.828  11.448  12.002
 6064W        W74469   1.903  16.283   0.786
 6065W        W74470  27.738  26.552  14.939
 6066W        W74471  44.792   7.999   9.944
 6067W        W74472   5.800  14.365  11.463
 6068W        W74473  37.397  31.593   3.173
 6069W        W74474  39.565  30.007   0.170
 6070W        W74475  25.562  43.477  11.119
 6071W        W74476  30.606  32.165   4.818
 6072W        W74477  11.288  13.150  10.592
 6073W        W74478  11.125  35.837   1.391
 6074W        W74479  25.454   2.801   1.353
 6075W        W74480  11.324  29.677  10.901
 6076W        W74481   0.976   8.225  13.537
 6077W        W74482  20.098  29.627  13.182
 6078W        W74483  35.562  13.521  13.408
 6079W        W74484  17.291  13.019   3.766
 6080W        W74485  39.571  11.439  14.760
 6081W        W74486  38.485  37.469  14.878
 6082W        W74487  42.119  38.418  13.029
 6083W        W74488  43.561  20.616  14.974
 6084W        W74489  27.133  40.386  11.392
 6085W        W74490  18.679  13.861   2.689
 6086W        W74491   0.918  30.387   0.268
 6087W        W74492   9.823   7.011  14.790
 6088W        W74493  37.343  33.414   2.877
 6089W        W74494  17.783  30.653  12.059
 6090W        W74495  37.632   0.851  11.048
 6091W        W74496  33.930   7.774   4.845
 6092W        W74497  44.422   8.898  11.626
 6093W        W74498   5.882  41.141  13.404
 6094W        W74499  27.060  20.184   0.195
 6095W        W74500  14.675  24.485  13.763
 6096W        W74501  26.006  10.007  14.791
 6097W        W74502  10.264  32.633   0.542
 6098W        W74503  30.212   2.739  12.985
 6099W        W74504  32.910  18.669  14.554
 6100W        W74505  39.330   6.097  10.582
 6101W        W74506  18.736  41.122   2.872
 6102W        W74507  11.598  32.586  14.183
 6103W        W74508  10.794   2.942   4.900
 6104W        W74509  10.943   4.954  13.022
 6105W        W74510  26.765  18.687  11.647
 6106W        W74511  44.488  38.178  12.974
 6107W        W74512  41.059   2.543   4.954
 6108W        W74513  16.472  38.000  12.576
 6109W        W74514  43.722  31.953  14.889
 6110W        W74515  14.583   1.181  12.480
 6111W        W74516   3.737   2.352  11.120
 6112W        W74517  31.318  17.556   5.558
 6113W        W74518  30.173  15.691  11.037
 6114W        W74519  35.955  30.779  13.303
 6115W        W74520  14.214  14.649   0.859
 6116W        W74521   7.985  37.453  11.487
 6117W        W74522  30.966  23.094   3.329
 6118W        W74523  41.362  20.301   0.516
 6119W        W74524   6.676  30.726   2.772
 6120W        W74525  40.606  10.723  11.017
 6121W        W74526  43.297  28.541   4.858
 6122W        W74527   4.471  15.694   1.863
 6123W        W74528   8.004  25.920   1.836
 6124W        W74529  35.950  23.626  14.879
 6125W        W74530  37.985   1.915  13.285
 6126W        W74531   7.432  13.170   2.778
 6127W        W74532  22.500  37.000   3.147
 6128W        W74533  25.615  36.251  13.839
 6129W        W74534  25.174  15.469  13.529
 6130W        W74535  23.642   3.363   0.666
 6131W        W74536  30.341   7.941  12.024
 6132W        W74537  15.081   4.227   4.889
 6133W        W74538  11.268  26.684  10.866
 6134W        W74539  24.912   7.479   4.730
 6135W        W74540  43.995  10.139   3.359
 6136W        W74541   3.502  22.750   1.346
 6137W        W74542  43.184  39.917   9.984
 6138W        W74543   9.366  35.489   4.419
 6139W        W74544  13.143  29.361  12.064
 6140W        W74545  33.434   2.342   1.001
 6141W        W74546  39.607  17.150   2.690
 6142W        W74547  31.468  35.767   3.341
 6143W        W74548  35.532   5.439  12.936
 6144W        W74549  10.096  21.153   4.653
 6145W        W74550  21.570   7.161   1.860
 6146W        W74551  16.689  11.645   2.715
 6147W        W74552  18.664  26.476  14.469
 6148W        W74553  22.191  35.526   1.760
 6149W        W74554  13.667   7.217  11.023
 6150W        W74555  36.487  36.137  14.006
 6151W        W74556  33.826   8.138   1.766
 6152W        W74557  44.832  31.071   3.634
 6153W        W74558  11.288  21.764  14.783
 6154W        W74559  28.188   0.385  13.158
 6155W        W74560  18.683  44.497   2.200
 6156W        W74561  29.445  12.021  12.594
 6157W        W74562  11.175  27.993  14.042
 6158W        W74563   8.759   9.696   2.416
 6159W        W74564  12.579  25.991   2.854
 6160W        W74565   4.103  26.655   3.784
 6161W        W74566  11.273  30.350   4.467
 6162W        W74567   5.194   0.868  14.789
 6163W        W74568  37.976  32.085   0.326
 6164W        W74569  17.301   2.268   4.466
 6165W        W74570  16.272  27.203   1.099
 6166W        W74571   2.504  11.296  13.018
 6167W        W74572   9.193  19.178   5.239
 6168W        W74573  21.101  29.759   3.197
 6169W        W74574  42.929  10.296   2.301
 6170W        W74575  33.851  38.990  11.308
 6171W        W74576  12.844   6.828   0.051
 6172W        W74577   0.100  20.455   1.393
 6173W        W74578  14.735  31.980  10.304
 6174W        W74579  15.206  16.205  13.201
 6175W        W74580  17.204   6.902   2.157
 6176W        W74581   8.127  26.134  13.512
 6177W        W74582   7.879  18.773   3.207
 6178W        W74583  25.528  38.343   3.637
 6179W        W74584  41.624   5.443   3.685
 6180W        W74585  26.476  25.913   3.585
 6181W        W74586  14.685  33.298  13.895
 6182W        W74587  30.475  21.292   3.869
 6183W        W74588  13.567  30.171   3.730
 6184W        W74589   2.287   4.207  14.980
 6185W        W74590   3.448  34.616  12.400
 6186W        W74591  19.954  38.587  11.351
 6187W        W74592   2.684  38.753   2.455
 6188W        W74593  18.200  37.660   0.009
 6189W        W74594  15.707  41.134   4.190
 6190W        W74595  18.294  34.012   3.237
 6191W        W74596  32.684  20.649  14.539
 6192W        W74597  26.199  42.444   1.360
 6193W        W74598   9.868  38.398   4.152
 6194W        W74599  20.092  22.211  13.978
 6195W        W74600   0.246  15.198   1.865
 6196W        W74601  32.119  17.283   2.318
 6197W        W74602  34.820  11.233   3.849
 6198W        W74603   2.708  22.582   4.580
 6199W        W74604  36.146  26.692  14.018
 6200W        W74605  40.311   7.892   0.309
 6201W        W74606  31.929  33.814  14.310
 6202W        W74607  34.026  23.504   4.687
 6203W        W74608  30.104  44.438  11.863
 6204W        W74609  23.673  27.884  11.930
 6205W        W74610  39.459  31.921   4.529
 6206W        W74611  28.364  21.243  11.548
 6207W        W74612  34.296  37.949  12.547
 6208W        W74613   4.487  38.155  11.039
 6209W        W74614  25.956  18.818   2.492
 6210W        W74615  21.116  37.143  12.082
 6211W        W74616  38.195  26.128   1.687
 6212W        W74617   8.401  10.902   1.714
 6213W        W74618  20.961  20.679  14.538
 6214W        W74619  13.629   0.419  12.696
 6215W        W74620  43.049   6.307  12.022
 6216W        W74621   3.804  17.849   3.644
 6217W        W74622  40.024  26.272   2.161
 6218W        W74623   2.881  40.884   4.229
 6219W        W74624  20.940  25.520   1.311
 6220W        W74625  30.909  17.346   9.771
 6221W        W74626  21.159  35.116   1.449
 6222W        W74627  17.842   4.739  11.500
 6223W        W74628  33.840  25.609  13.895
 6224W        W74629  42.151  23.636  14.847
 6225W        W74630  12.370  39.890  13.375
 6226W        W74631   9.086  13.708  10.752
 6227W        W74632  26.669   9.919   1.390
 6228W        W74633  31.161  40.338  11.023
 6229W        W74634  11.234  41.793   1.695
 6230W        W74635   2.264   6.322  14.792
 6231W        W74636  33.680  27.666  10.365
 6232W        W74637  43.780  44.757   1.290
 6233W        W74638  15.867  17.978  10.532
 6234W        W74639   4.357   2.641   2.229
 6235W        W74640  38.338  11.887   1.846
 6236W        W74641  10.616  16.209  11.965
 6237W        W74642   6.829  40.351   0.178
 6238W        W74643  30.630  14.804  14.822
 6239W        W74644  28.316  10.251   1.785
 6240W        W74645  28.990  31.960  14.386
 6241W        W74646  24.496  31.088  11.102
 6242W        W74647   8.382  22.949   2.787
 6243W        W74648   2.326   8.812  12.991
 6244W        W74649  19.073  40.650   4.632
 6245W        W74650  23.205  23.739   1.697
 6246W        W74651  42.891  22.598   2.262
 6247W        W74652  26.722   4.806  12.684
 6248W        W74653  19.195  39.161   4.554
 6249W        W74654  34.921  20.033  11.672
 6250W        W74655   1.332  15.847   2.711
 6251W        W74656  41.291  14.591   0.906
 6252W        W74657  19.243  10.398   0.402
 6253W        W74658  20.548  10.285  13.138
 6254W        W74659   9.979  41.947  12.855
 6255W        W74660  20.034  44.313  11.648
 6256W        W74661  13.293  16.969  10.681
 6257W        W74662  30.035  37.045  12.925
 6258W        W74663   8.344  11.264  13.486
 6259W        W74664  17.356  43.885   2.624
 6260W        W74665  27.507  41.965  12.937
 6261W        W74666   9.300   7.231   3.065
 6262W        W74667  40.456  14.003   0.981
 6263W        W74668   2.722  17.168   1.776
 6264W        W74669  21.686   5.047   4.192
 6265W        W74670   4.820   2.803  13.799
 6266W        W74671  19.586  26.647   3.881
 6267W        W74672  29.721  15.091   1.265
 6268W        W74673   5.373  26.259   5.023
 6269W        W74674  15.941   4.951   3.066
 6270W        W74675   1.885  20.994  13.086
 6271W        W74676  21.516  30.349   2.863
 6272W        W74677  14.292   3.715  11.481
 6273W        W74678  23.041  31.867   0.307
 6274W        W74679  19.668  37.903  12.505
 6275W        W74680   0.457  31.481  14.842
 6276W        W74681  34.912  34.646   0.233
 6277W        W74682   1.184  33.400  13.623
 6278W        W74683  15.580  15.768   1.241
 6279W        W74684  15.556  31.841   4.660
 6280W        W74685  11.088   3.743   1.822
 6281W        W74686  37.785  23.575   3.925
 6282W        W74687  14.674  23.763   4.206
 6283W        W74688  20.626  12.309   0.298
 6284W        W74689  38.718   5.593  10.324
 6285W        W74690  13.707   1.737  14.922
 6286W        W74691   8.703   6.937  14.417
 6287W        W74692  24.012   6.877  12.191
 6288W        W74693  24.037  10.562  10.771
 6289W        W74694   2.214  10.680  14.483
 6290W        W74695   8.590  37.841   2.420
 6291W        W74696   3.284  42.358   2.626
 6292W        W74697  36.579  40.470   1.194
 6293W        W74698   1.630  37.976  14.923
 6294W        W74699  18.455  33.938   0.757
 6295W        W74700  37.090  37.001  14.141
 6296W        W74701  21.579  37.792   2.347
 6297W        W74702  14.770  10.221   2.290
 6298W        W74703   7.807  11.402   0.246
 6299W        W74704  13.787   0.961   3.542
 6300W        W74705  20.551   6.010   1.542
 6301W        W74706  26.072  25.492   1.939
 6302W        W74707   4.686  21.243   2.281
 6303W        W74708  38.977  33.922  11.482
 6304W        W74709  25.963  27.234  12.501
 6305W        W74710   7.700  22.770   1.275
 6306W        W74711  23.106  27.725   3.046
 6307W        W74712  24.975   6.930   0.295
 6308W        W74713  44.305  20.053  11.575
 6309W        W74714  29.942  30.608   0.727
 6310W        W74715  22.988  38.168  11.076
 6311W        W74716  32.049  21.018   3.550
 6312W        W74717  28.176   8.246  11.233
 6313W        W74718   4.701  26.509  11.676
 6314W        W74719   3.474   4.496   0.502
 6315W        W74720   6.181   7.470   1.851
 6316W        W74721  12.451  16.432  11.599
 6317W        W74722  10.401  40.146   4.702
 6318W        W74723   9.102   5.322  11.586
 6319W        W74724  28.736  28.992   3.190
 6320W        W74725  24.567  31.164   3.805
 6321W        W74726  20.471  26.065  12.935
 6322W        W74727  28.168  11.815  10.347
 6323W        W74728  29.686  12.310  12.092
 6324W        W74729  16.367  26.090   1.149
 6325W        W74730  37.815  39.958   3.593
 6326W        W74731  38.424  31.564  14.998
 6327W        W74732  11.022  30.778   3.738
 6328W        W74733  17.266  37.092  11.409
 6329W        W74734  23.687  16.177   1.915
 6330W        W74735  43.077  42.270   0.370
 6331W        W74736  14.133  18.631  13.984
 6332W        W74737  32.522  39.249  11.156
 6333W        W74738  24.863  19.197  13.195
 6334W        W74739  25.670  16.078  13.949
 6335W        W74740  13.300   6.521   1.331
 6336W        W74741  35.844   6.479  11.660
 6337W        W74742  42.413  24.951  13.997
 6338W        W74743  30.595  30.384  11.670
 6339W        W74744   9.799   7.692  11.521
 6340W        W74745  20.177  13.782   3.907
 6341W        W74746   9.911  27.650   0.790
 6342W        W74747   1.725  10.224   0.934
 6343W        W74748   7.692  21.589  14.211
 6344W        W74749  32.616   4.247   2.862
 6345W        W74750   9.680   2.351  10.811
 6346W        W74751   9.271   3.236   0.831
 6347W        W74752   2.981  44.034  12.125
 6348W        W74753  12.628  24.152   2.683
 6349W        W74754  24.142  10.379   3.644
 6350W        W74755  18.626  27.609  10.662
 6351W        W74756  32.874  35.873   1.656
 6352W        W74757  11.306  33.852  14.255
 6353W        W74758  40.422   3.651   1.628
 6354W        W74759  27.313  29.073   2.216
 6355W        W74760  27.675  20.967  13.284
 6356W        W74761  28.577  33.166  12.306
 6357W        W74762   5.138  22.535  14.284
 6358W        W74763  17.101  29.406   9.492
 6359W        W74764  36.602  22.719  13.019
 6360W        W74765  43.373   1.219  14.010
 6361W        W74766  33.440  39.352   0.831
 6362W        W74767  42.291  28.600   4.253
 6363W        W74768  17.876  31.567  12.160
 6364W        W74769   7.087  31.942  13.123
 6365W        W74770  43.248  27.396  12.609
 6366W        W74771   8.440  38.370   0.561
 6367W        W74772  35.679   1.919  12.930
 6368W        W74773  24.060   9.266   3.251
 6369W        W74774  43.935  23.484  11.204
 6370W        W74775  32.856  24.642  12.019
 6371W        W74776  33.185  32.573  13.469
 6372W        W74777   4.485  30.073   2.971
 6373W        W74778  12.222  11.310   1.819
 6374W        W74779  19.779   8.595   2.840
 6375W        W74780   8.666  35.106   2.824
 6376W        W74781  25.133  20.502  13.858
 6377W        W74782   6.778   2.400  12.884
 6378W        W74783  21.831   1.228   0.842
 6379W        W74784  36.570  11.812   0.383
 6380W        W74785  13.370  21.593   3.427
 6381W        W74786   5.372  41.759  13.823
 6382W        W74787  37.372  35.371   2.372
 6383W        W74788  37.810  37.987  13.402
 6384W        W74789  39.856  11.053   1.579
 6385W        W74790   1.424  21.164   1.183
 6386W        W74791  13.255  16.723   4.395
 6387W        W74792   4.196  30.039   4.106
 6388W        W74793  37.242  30.534  14.982
 6389W        W74794  36.611  28.447   3.339
 6390W        W74795  27.757  13.287   3.313
 6391W        W74796   3.936   8.329   0.766
 6392W        W74797  17.453  21.736  13.470
 6393W        W74798  27.113  25.259   1.457
 6394W        W74799  34.847  24.854   3.151
 6395W        W74800  27.446  24.708   1.073
 6396W        W74801   8.215  24.037   4.347
 6397W        W74802   8.929  42.730   1.917
 6398W        W74803  16.764   9.406   0.393
 6399W        W74804  21.061  35.731  11.702
 6400W        W74805   6.070  39.012   4.467
 6401W        W74806  22.065  33.942  14.526
 6402W        W74807  16.051  26.481  11.423
 6403W        W74808  34.467   3.277   3.383
 6404W        W74809   6.228  20.098  14.483
 6405W        W74810  21.993  13.254  11.447
 6406W        W74811   3.914  23.679  14.964
 6407W        W74812  36.974  33.390   0.240
 6408W        W74813  15.215  23.973  13.245
 6409W        W74814  37.540   1.313  13.286
 6410W        W74815  14.090  41.838  11.215
 6411W        W74816  23.687   8.225  13.408
 6412W        W74817  15.210  44.267   0.429
 6413W        W74818  12.071  43.624   4.917
 6414W        W74819  44.450  44.773  14.910
 6415W        W74820  19.817  12.128  11.138
 6416W        W74821  26.545  11.008  13.842
 6417W        W74822  15.653  39.050   0.557
 6418W        W74823  41.109  13.785  11.997
 6419W        W74824   1.456  16.829  13.428
 6420W        W74825   4.854  18.517   2.569
 6421W        W74826  13.714  44.826   0.237
 6422W        W74827  13.287  39.020  12.429
 6423W        W74828  42.012  13.408  11.834
 6424W        W74829  17.006  31.827   2.260
 6425W        W74830  19.832  43.854  11.407
 6426W        W74831  44.757   5.233  13.381
 6427W        W74832  33.781  34.007   2.398
 6428W        W74833   6.140   8.815  12.926
 6429W        W74834   7.095   7.751   3.744
 6430W        W74835  10.994  39.976  11.950
 6431W        W74836  44.176  12.722  12.158
 6432W        W74837  41.854  19.607   0.163
 6433W        W74838   8.511   9.991  12.989
 6434W        W74839  12.424  20.649   2.479
 6435W        W74840  30.997  42.007   2.185
 6436W        W74841  12.774  20.781   1.470
 6437W        W74842   4.577  11.698   3.652
 6438W        W74843  37.904  23.310  11.157
 6439W        W74844  23.019  17.020  12.945
 6440W        W74845  16.292   6.917  12.877
 6441W        W74846  36.614  26.415   3.389
 6442W        W74847  41.868  44.008   2.820
 6443W        W74848   8.577   2.450  10.744
 6444W        W74849  35.985  44.056   4.659
 6445W        W74850  23.615  35.947  14.536
 6446W        W74851   5.716  11.608   2.889
 6447W        W74852  43.436  34.610   1.412
 6448W        W74853  27.582  34.558   0.989
 6449W        W74854  14.167  34.343  12.924
 6450W        W74855   9.650  14.301  14.341
 6451W        W74856  24.193  16.616   3.700
 6452W        W74857   7.244  11.737  12.684
 6453W        W74858  20.117  16.175   4.610
 6454W        W74859  23.607  25.523   2.194
 6455W        W74860  32.807  32.298   3.736
 6456W        W74861  31.538  12.188   0.042
 6457W        W74862  31.884   1.806  13.765
 6458W        W74863  32.929  24.177   1.667
 6459W        W74864  23.609  41.171  11.290
 6460W        W74865  11.810  15.196   1.526
 6461W        W74866   5.733   0.454   2.353
 6462W        W74867  36.087   9.503   3.657
 6463W        W74868  24.565  33.683  14.439
 6464W        W74869  42.718  41.499   4.647
 6465W        W74870  25.515  40.584   4.593
 6466W        W74871   7.252  29.393  14.845
 6467W        W74872  15.733  28.767  14.888
 6468W        W74873   9.692  16.779   0.855
 6469W        W74874   1.556  34.413   4.663
 6470W        W74875  25.918  25.076   0.320
 6471W        W74876   4.739  29.561   0.911
 6472W        W74877  44.663  15.925   4.560
 6473W        W74878   1.236  28.359   0.368
 6474W        W74879  12.381   6.938  11.600
 6475W        W74880  24.677  27.730   3.296
 6476W        W74881  19.779  39.520   1.413
 6477W        W74882  29.648  34.791   1.387
 6478W        W74883  22.283  15.245  14.984
 6479W        W74884  20.319   2.244   2.762
 6480W        W74885  30.950  17.711  12.360
 6481W        W74886   2.948   3.898   1.712
 6482W        W74887  22.606  13.902  12.844
 6483W        W74888  22.983   9.864   2.809
 6484W        W74889  31.420  20.820   0.017
 6485W        W74890  22.701   8.365   1.751
 6486W        W74891   5.367  38.077   0.832
 6487W        W74892  12.719  40.806  14.468
 6488W        W74893  27.620  11.698  12.342
 6489W        W74894  40.490   7.802  12.404
 6490W        W74895  32.367  40.883   3.748
 6491W        W74896  20.328  43.307   3.725
 6492W        W74897  28.674  20.692  14.956
 6493W        W74898  30.175  26.664  10.614
 6494W        W74899  17.614  19.555   0.290
 6495W        W74900   1.457  41.016  14.935
 6496W        W74901   9.689  29.462  13.931
 6497W        W74902  31.867  26.401   4.034
 6498W        W74903  18.200  17.914   4.169
 6499W        W74904  42.196  37.327   3.260
 6500W        W74905  14.280  16.642  12.470
 6501W        W74906  25.033  10.073   1.417
 6502W        W74907  10.946  16.938   1.395
 6503W        W74908  14.090  24.509  11.360
 6504W        W74909  12.709  11.339  10.885
 6505W        W74910  10.253  26.111  12.038
 6506W        W74911  28.913  19.799   4.535
 6507W        W74912  44.819  10.710   2.249
 6508W        W74913  17.496   8.693  11.417
 6509W        W74914   9.899   0.406  10.709
 6510W        W74915   7.271   9.946  13.777
 6511W        W74916  42.241  29.062  10.683
 6512W        W74917   7.347   4.926   3.237
 6513W        W74918   7.327  12.261   1.514
 6514W        W74919   5.149  23.512  14.434
 6515W        W74920  21.878  36.371   0.853
 6516W        W74921  28.591  29.246  13.464
 6517W        W74922  15.536  42.630  12.929
 6518W        W74923  19.671  23.723  14.009
 6519W        W74924  21.287  32.507  14.270
 6520W        W74925  31.925  17.603   3.355
 6521W        W74926   1.778  34.134   0.349
 6522W        W74927  15.612  14.680  12.518
 6523W        W74928   8.712  13.306  14.333
 6524W        W74929  30.513  17.602   0.480
 6525W        W74930  39.850  24.206  14.923
 6526W        W74931  34.882  24.510  13.613
 6527W        W74932  41.763  35.125  12.028
 6528W        W74933  19.013  22.790   0.281
 6529W        W74934  24.202  30.334   2.700
 6530W        W74935  12.519   6.825   3.284
 6531W        W74936  33.165  18.119   1.634
 6532W        W74937   5.537   8.288  10.702
 6533W        W74938  20.095  21.649  11.874
 6534W        W74939  39.306  20.598   4.524
 6535W        W74940  17.021  25.306  11.170
 6536W        W74941   9.857   2.185  12.130
 6537W        W74942  24.527  41.846   2.328
 6538W        W74943  20.283   3.366   1.142
 6539W        W74944  31.739  39.587   3.266
 6540W        W74945  24.583   4.718  10.305
 6541W        W74946   6.115  12.397  10.756
 6542W        W74947  18.916   2.167  11.953
 6543W        W74948  34.047  25.125  13.802
 6544W        W74949   5.821   7.696  10.859
 6545W        W74950  27.884  43.482  10.864
 6546W        W74951  24.334   8.144   0.354
 6547W        W74952  41.773  21.771  12.335
 6548W        W74953   2.610  29.774   3.675
 6549W        W74954  28.447  41.213   4.031
 6550W        W74955  13.466  21.598  14.101
 6551W        W74956  12.724  43.569  12.384
 6552W        W74957  11.766  13.372   3.789
 6553W        W74958  28.560  30.034  10.695
 6554W        W74959   7.906  19.855   2.399
 6555W        W74960  19.323  38.974  10.662
 6556W        W74961  21.970  23.524  12.601
 6557W        W74962  30.392  15.752  14.410
 6558W        W74963  17.867  35.535  10.701
 6559W        W74964  19.674  27.482   1.471
 6560W        W74965   6.626  22.001   3.858
 6561W        W74966  26.203  21.962   1.985
 6562W        W74967  38.492  21.800  10.384
 6563W        W74968   4.228  37.172  11.167
 6564W        W74969   1.728  27.959   2.403
 6565W        W74970  17.668  19.487   4.828
 6566W        W74971  22.135   5.856   4.021
 6567W        W74972  28.122  33.360   1.154
 6568W        W74973  44.689  10.168   0.635
 6569W        W74974  35.913   9.800  14.075
 6570W        W74975  43.257  18.330  12.484
 6571W        W74976   7.831  19.595   1.462
 6572W        W74977  30.407  43.677  14.767
 6573W        W74978  26.289  44.363   2.267
 6574W        W74979   5.879  20.481  12.427
 6575W        W74980  44.956  16.597   2.279
 6576W        W74981  11.377  17.767  10.176
 6577W        W74982  30.532  30.494  11.184
 6578W        W74983  29.091  17.616   3.714
 6579W        W74984  44.594   9.865  12.542
 6580W        W74985  22.865  25.393   0.833
 6581W        W74986   1.406  36.077  10.908
 6582W        W74987  19.539   7.820   3.267
 6583W        W74988   0.184  28.038  12.048
 6584W        W74989   1.381  39.388  11.629
 6585W        W74990  35.428  44.240  12.443
 6586W        W74991   2.481  25.661  10.544
 6587W        W74992  25.626  19.777   4.909
 6588W        W74993   1.264   5.287  10.673
 6589W        W74994  36.061  19.090  11.871
 6590W        W74995  10.681  32.572   1.815
 6591W        W74996   9.664   8.260  11.482
 6592W        W74997   9.233   2.770   1.142
 6593W        W74998  16.710  39.559  12.225
 6594W        W74999  16.728  28.267   2.671
 6595W        W75000  36.575  34.613  14.894
 6596W        W75001  21.993   6.157  13.388
 6597W        W75002   5.405  22.852  13.800
 6598W        W75003   2.862  23.707  13.952
 6599W        W75004  38.947  38.363   2.316
 6600W        W75005  15.708  21.656   3.305
 6601W        W75006  27.343  35.021  13.993
 6602W        W75007  43.252  18.205  13.433
 6603W        W75008  41.894  32.745  11.165
 6604W        W75009   3.383  10.965   1.210
 6605W        W75010  30.578  10.692  14.510
 6606W        W75011  14.128   0.316  12.512
 6607W        W75012  23.323   6.223   4.534
 6608W        W75013  14.311  35.034  12.993
 6609W        W75014  20.824  19.836   4.557
 6610W        W75015  43.785  11.647   0.312
 6611W        W75016  32.200  29.098  11.567
 6612W        W75017  33.093   6.765  10.480
 6613W        W75018  24.665   5.225  14.344
 6614W        W75019  31.457  28.277   3.760
 6615W        W75020  44.346  10.150   0.155
 6616W        W75021   0.273   7.634   1.840
 6617W        W75022  20.124   4.971   4.693
 6618W        W75023  31.008  39.100  13.348
 6619W        W75024  31.275  17.735  10.967
 6620W        W75025  21.977   8.339  14.423
 6621W        W75026   5.335  20.528   2.387
 6622W        W75027  37.032  36.884  10.888
 6623W        W75028  17.870  29.235   1.421
 6624W        W75029  11.622  27.179  12.477
 6625W        W75030  23.412  41.424  14.178
 6626W        W75031  37.996  14.695   0.763
 6627W        W75032  17.709  18.751   3.263
 6628W        W75033  32.169  24.329  10.688
 6629W        W75034  19.827  10.228  12.498
 6630W        W75035  28.319  12.255  10.083
 6631W        W75036  24.294  33.024   0.760
 6632W        W75037  19.780   2.457   0.336
 6633W        W75038  33.429  31.935  14.361
 6634W        W75039   9.718   2.735   1.438
 6635W        W75040  10.605  41.389   2.377
 6636W        W75041  16.908  10.299  13.975
 6637W        W75042  31.235  27.057   4.196
 6638W        W75043  12.302  20.963  12.532
 6639W        W75044  18.202  15.747  14.403
 6640W        W75045   8.790  36.995   4.595
 6641W        W75046  42.744  33.819   0.255
 6642W        W75047  42.352  38.692   4.783
 6643W        W75048  16.336  28.244   4.856
 6644W        W75049  36.916  42.265   4.308
 6645W        W75050   8.258   6.781   4.577
 6646W        W75051  24.137   0.255   0.466
 6647W        W75052   0.751  26.135  14.330
 6648W        W75053  31.333  20.667  10.883
 6649W        W75054  17.895  16.384   3.980
 6650W        W75055   5.905  14.814  10.609
 6651W        W75056   6.564  42.353  13.669
 6652W        W75057  10.352  18.257  10.323
 6653W        W75058  26.909   6.388  12.713
 6654W        W75059   9.261  11.651   4.243
 6655W        W75060  12.629   2.913  10.221
 6656W        W75061  44.264   7.546  13.028
 6657W        W75062   4.452  18.560   1.813
 6658W        W75063  44.737  12.130  11.443
 6659W        W75064  26.650  37.555   3.233
 6660W        W75065  15.594  26.047   2.956
 6661W        W75066  13.819  33.068   1.009
 6662W        W75067  18.060  28.524   3.715
 6663W        W75068   3.644  21.837   3.779
 6664W        W75069  35.452  34.428  13.078
 6665W        W75070  32.400   0.961   3.750
 6666W        W75071   0.008  27.461  12.704
 6667W        W75072  23.170   5.439  12.858
 6668W        W75073  23.137   4.845   1.945
 6669W        W75074   9.083  19.211   4.313
 6670W        W75075  35.812  16.302  11.169
 6671W        W75076   7.852  20.160   3.386
 6672W        W75077  23.060  19.401  14.493
 6673W        W75078   9.590  42.126  11.119
 6674W        W75079   8.574  23.714   2.258
 6675W        W75080  19.816  33.263  13.012
 6676W        W75081  15.884   7.445   2.781
 6677W        W75082  12.848  24.976   3.690
 6678W        W75083  35.165  19.149   3.664
 6679W        W75084  20.087   0.863   1.007
 6680W        W75085  35.931  41.219   4.577
 6681W        W75086   5.658  16.690  13.477
 6682W        W75087  27.707  41.782   2.216
 6683W        W75088  26.490   8.623   3.077
 6684W        W75089  18.265   7.766  12.907
 6685W        W75090  39.891   1.649   4.711
 6686W        W75091  30.197  16.244   1.807
 6687W        W75092  16.177  20.780   4.224
 6688W        W75093  20.574  28.385   4.265
 6689W        W75094   7.244   6.397   2.549
 6690W        W75095  44.823  35.205  12.014
 6691W        W75096   8.172  30.689   0.405
 6692W        W75097  28.185   7.070   4.209
 6693W        W75098  21.918  33.064   1.342
 6694W        W75099  40.334   5.199   4.129
 6695W        W75100  19.103  27.094  12.563
 6696W        W75101  20.231  32.369  11.156
 6697W        W75102  15.355  30.124  13.802
 6698W        W75103  27.673  21.295   0.175
 6699W        W75104  21.680  17.526   4.627
 6700W        W75105   3.190  12.162  12.871
 6701W        W75106  17.703   7.275   0.358
 6702W        W75107   9.397  39.825   3.718
 6703W        W75108  38.794   2.645   1.580
 6704W        W75109   8.230  15.268  14.061
 6705W        W75110  29.389  40.918   1.264
 6706W        W75111   3.728  20.340  11.094
 6707W        W75112   1.832   1.250  14.856
 6708W        W75113  10.008  13.015   4.590
 6709W        W75114  20.835  34.910  11.655
 6710W        W75115  41.357  17.729   0.275
 6711W        W75116   9.839  37.037   3.330
 6712W        W75117  27.524  12.074   4.109
 6713W        W75118  30.041   3.648   1.292
 6714W        W75119  44.403  28.708   1.901
 6715W        W75120   1.801   6.178   0.861
 6716W        W75121  30.947  25.196   0.143
 6717W        W75122  10.592  34.718  11.680
 6718W        W75123   6.449   8.339   1.383
 6719W        W75124  37.447  40.435   1.583
 6720W        W75125  30.046  26.238   1.146
 6721W        W75126  27.099  30.600  10.812
 6722W        W75127  42.861  40.407   2.757
 6723W        W75128   4.440  29.466   4.154
 6724W        W75129  13.209  25.518   1.816
 6725W        W75130  41.030  25.223  14.772
 6726W        W75131  34.595  34.909   3.775
 6727W        W75132  34.382  20.670  11.981
 6728W        W75133  24.592  22.736   1.829
 6729W        W75134  16.978  21.112   1.776
 6730W        W75135  32.288   5.769   2.006
 6731W        W75136  19.586   9.860  12.825
 6732W        W75137  25.274  41.344   1.007
 6733W        W75138  27.635  15.269  13.575
 6734W        W75139  21.394  22.272   0.628
 6735W        W75140   7.800   1.917   1.653
 6736W        W75141  36.981   2.462   4.178
 6737W        W75142  21.498   4.392  11.725
 6738W        W75143   1.880   6.843  12.900
 6739W        W75144  36.967  32.907  12.446
 6740W        W75145  27.994   6.622  13.367
 6741W        W75146  14.835   6.789   1.869
 6742W        W75147  19.071  32.517  13.020
 6743W        W75148  18.948  26.442   5.431
 6744W        W75149   1.735  28.655   4.465
 6745W        W75150  26.612  20.468   4.162
 6746W        W75151   8.452  43.584   3.702
 6747W        W75152  26.522  21.324   2.391
 6748W        W75153  36.725  42.687  10.973
 6749W        W75154  33.943  12.130   1.839
 6750W        W75155  14.846  36.968  11.567
 6751W        W75156  32.868  25.581   0.133
 6752W        W75157  36.935  37.616   1.274
 6753W        W75158  27.363  18.017   3.708
 6754W        W75159   0.200  40.379  12.502
 6755W        W75160  29.067  27.960   2.302
 6756W        W75161  29.485  34.291   1.597
 6757W        W75162  44.461  11.166   4.112
 6758W        W75163  10.962  12.808  14.838
 6759W        W75164  27.911  34.033   4.814
 6760W        W75165  22.622   1.803   2.361
 6761W        W75166  29.555   8.698  14.677
 6762W        W75167  27.669  27.293  13.663
 6763W        W75168   9.714   4.782  12.038
 6764W        W75169  22.351  33.192  14.889
 6765W        W75170  17.771  13.628   4.492
 6766W        W75171  15.802  24.076  13.928
 6767W        W75172  37.480   3.726   2.288
 6768W        W75173  44.407  23.449  11.496
 6769W        W75174   0.846   9.383  10.643
 6770W        W75175  10.258  26.488  13.518
 6771W        W75176  36.409  35.032   0.811
 6772W        W75177   2.146  32.313  10.786
 6773W        W75178   2.495  10.928  12.637
 6774W        W75179  27.837  23.437  14.248
 6775W        W75180   1.083  33.932  12.392
 6776W        W75181   8.756  29.680   0.966
 6777W        W75182   4.356  15.918   2.812
 6778W        W75183  10.342   3.122  14.087
 6779W        W75184  44.903  24.228  13.107
 6780W        W75185   4.883  41.916   2.216
 6781W        W75186   5.047  24.746   1.509
 6782W        W75187  14.048  18.132  14.086
 6783W        W75188   3.019  34.150  13.910
 6784W        W75189  28.667  11.288   2.411
 6785W        W75190  30.605  18.494  11.436
 6786W        W75191  25.344   6.649  11.327
 6787W        W75192  11.371   3.098   9.979
 6788W        W75193  22.047  23.383  12.099
 6789W        W75194  24.203   2.662  12.972
 6790W        W75195  36.802   6.309   1.332
 6791W        W75196  12.674  34.314  10.457
 6792W        W75197   5.047  40.688   0.225
 6793W        W75198  10.162  11.968  12.965
 6794W        W75199  44.813  37.592   2.282
 6795W        W75200  22.500   1.564  13.697
 6796W        W75201  39.423  30.370   0.548
 6797W        W75202  40.424  14.332   3.247
 6798W        W75203  34.146   5.674  14.917
 6799W        W75204  18.634  11.116   9.911
 6800W        W75205  40.532  14.294  13.574
 6801W        W75206  44.246  38.995   3.620
 6802W        W75207  24.006   8.459  11.190
 6803W        W75208  29.084  27.613  12.636
 6804W        W75209  16.833  17.230  10.818
 6805W        W75210  17.600  14.673   0.215
 6806W        W75211   9.823  16.554  14.380
 6807W        W75212  11.760  11.227  13.827
 6808W        W75213  35.214  43.175  13.967
 6809W        W75214  25.495  21.026  14.800
 6810W        W75215  38.710  27.090  13.498
 6811W        W75216  35.019  13.067   4.060
 6812W        W75217  43.112  26.761   0.804
 6813W        W75218  43.685  22.553   1.969
 6814W        W75219  31.910  16.461  14.724
 6815W        W75220  38.451  18.155  11.638
 6816W        W75221  14.211  12.356   1.950
 6817W        W75222  17.296  35.006   3.335
 6818W        W75223  35.514  44.705  10.751
 6819W        W75224   1.994  34.336  13.863
 6820W        W75225  15.652  24.095   3.690
 6821W        W75226  13.208  28.628   1.740
 6822W        W75227  44.616   1.901  11.120
 6823W        W75228  19.159  29.383  14.990
 6824W        W75229  17.451  13.044  12.518
 6825W        W75230  36.893  15.501   0.856
 6826W        W75231  33.852   6.629   1.475
 6827W        W75232  14.577  33.671   3.158
 6828W        W75233   4.083   7.538   4.733
 6829W        W75234  39.882  44.220  14.460
 6830W        W75235   2.388  44.811   1.037
 6831W        W75236  10.330  11.700  10.798
 6832W        W75237   8.818  38.977   2.762
 6833W        W75238   4.273  40.344   1.067
 6834W        W75239  30.936  22.115   4.328
 6835W        W75240  19.376  27.129   3.872
 6836W        W75241  27.470  30.517  12.201
 6837W        W75242  33.063  38.114  14.901
 6838W        W75243  42.851  20.839  12.488
 6839W        W75244  34.015  39.962   0.792
 6840W        W75245   9.781  25.173   3.069
 6841W        W75246  10.153   2.295  10.128
 6842W        W75247   6.747  25.399   3.238
 6843W        W75248   2.232  14.333   4.536
 6844W        W75249  19.561  25.326  14.528
 6845W        W75250  20.140  44.933  10.566
 6846W        W75251  20.729  21.279   2.726
 6847W        W75252  20.638  33.599   0.063
 6848W        W75253  41.442  25.830  12.050
 6849W        W75254  37.623  21.580   4.584
 6850W        W75255  14.662  32.500  11.118
 6851W        W75256  41.451  38.009   1.247
 6852W        W75257   5.384  30.084  11.353
 6853W        W75258  37.140  24.164  13.071
 6854W        W75259  13.699  22.161  10.980
 6855W        W75260   3.553  29.099   1.827
 6856W        W75261  44.988   5.887   0.757
 6857W        W75262  12.553  31.864   2.871
 6858W        W75263  10.489  17.032   1.915
 6859W        W75264   4.089  28.573  10.852
 6860W        W75265  13.830  13.407   2.380
 6861W        W75266  11.160  27.288  12.305
 6862W        W75267  16.303  28.247   1.218
 6863W        W75268  14.107  23.449   3.168
 6864W        W75269   7.486  34.379  14.331
 6865W        W75270  14.959   1.413  14.875
 6866W        W75271  37.487  22.914   1.901
 6867W        W75272   6.714  15.628  10.239
 6868W        W75273  14.725   6.708   0.381
 6869W        W75274  35.574   2.805   0.030
 6870W        W75275  32.609  37.326  13.393
 6871W        W75276  25.971   9.931   2.911
 6872W        W75277  12.376  32.654   4.897
 6873W        W75278  12.072  14.783   3.718
 6874W        W75279  43.261  37.315   0.010
 6875W        W75280  11.441  12.805  11.951
 6876W        W75281   9.341  25.569  13.282
 6877W        W75282  28.892  11.664  10.963
 6878W        W75283   6.857  19.012   1.169
 6879W        W75284   3.594   6.378  14.886
 6880W        W75285  39.326   7.234  11.853
 6881W        W75286  11.665  12.651   3.024
 6882W        W75287   0.845   7.265  13.997
 6883W        W75288   9.691   1.500   0.963
 6884W        W75289  16.720  11.152   0.825
 6885W        W75290  42.661  41.277  11.128
 6886W        W75291  13.866  38.433  11.742
 6887W        W75292  33.109  40.807  14.344
 6888W        W75293  44.724  20.753   1.160
 6889W        W75294  17.818  25.467  12.012
 6890W        W75295  32.432  32.834  11.110
 6891W        W75296   0.036  11.734  10.647
 6892W        W75297  23.025  37.359   4.467
 6893W        W75298  14.599  39.631   0.886
 6894W        W75299  28.738  27.590  11.634
 6895W        W75300  15.818  21.315   1.019
 6896W        W75301  39.535  40.606   2.337
 6897W        W75302  33.496  11.318   4.494
 6898W        W75303  24.206  33.519  12.096
 6899W        W75304  10.387   3.831   3.306
 6900W        W75305  16.599  32.467   0.936
 6901W        W75306  19.545  31.614  14.999
 6902W        W75307   3.406  28.566  14.556
 6903W        W75308  34.223   3.305   4.187
 6904W        W75309  21.717  29.531   0.253
 6905W        W75310  14.745   6.290   4.516
 6906W        W75311  12.090  25.494  13.485
 6907W        W75312   4.039  33.036  13.618
 6908W        W75313  40.870  30.910   4.247
 6909W        W75314   6.287  43.701   2.441
 6910W        W75315  34.787  16.532  13.957
 6911W        W75316   7.722  10.867   4.212
 6912W        W75317  29.491  38.746   2.361
 6913W        W75318   8.037  39.271   1.703
 6914W        W75319  44.113   0.249   4.615
 6915W        W75320  39.423  32.916  11.904
 6916W        W75321   9.619  42.946   3.710
 6917W        W75322  25.969   5.315  12.951
 6918W        W75323   5.128  42.833  14.381
 6919W        W75324   0.011  27.492  14.339
 6920W        W75325  41.124  28.655  12.059
 6921W        W75326  37.507   6.752  13.842
 6922W        W75327  32.543   6.437   4.195
 6923W        W75328  11.402  44.383   0.964
 6924W        W75329  29.554  35.981   2.137
 6925W        W75330  39.523   2.563  14.281
 6926W        W75331   2.081   5.316   1.200
 6927W        W75332  20.191  33.897  11.957
 6928W        W75333  34.955  19.790  14.495
 6929W        W75334  42.043  17.745  11.050
 6930W        W75335  14.738  35.448  10.420
 6931W        W75336  44.512   1.312   4.154
 6932W        W75337  12.760  23.505  13.090
 6933W        W75338  27.152   5.931  14.421
 6934W        W75339   2.703  19.290   3.816
 6935W        W75340  41.046   6.065   9.701
 6936W        W75341  13.565  34.666   0.276
 6937W        W75342  19.251  16.490  13.405
 6938W        W75343  38.944  21.516  13.548
 6939W        W75344  24.723  35.862  13.557
 6940W        W75345  34.855  19.491  14.017
 6941W        W75346  34.139   6.318  11.065
 6942W        W75347  43.231  34.099  11.655
 6943W        W75348  13.092  16.474   0.419
 6944W        W75349  11.429  23.569  10.468
 6945W        W75350  20.987  30.527   3.778
 6946W        W75351  43.903  23.691   1.837
 6947W        W75352  16.337   2.688  13.584
 6948W        W75353   3.406  19.964  10.991
 6949W        W75354   5.113  23.797  11.153
 6950W        W75355   8.780  41.552  12.580
 6951W        W75356   5.713  34.796   1.724
 6952W        W75357  10.721  32.431  14.002
 6953W        W75358   5.682  23.072  11.067
 6954W        W75359  21.557  16.223  14.334
 6955W        W75360   4.861   7.343   0.065
 6956W        W75361  42.342   4.562   0.472
 6957W        W75362  10.500  31.086   2.889
 6958W        W75363   2.366  20.436  11.392
 6959W        W75364  30.580  29.860   2.753
 6960W        W75365  13.198  37.624  12.462
 6961W        W75366  22.611  10.194   3.568
 6962W        W75367   3.869  26.222   2.832
 6963W        W75368   0.389  26.577   1.669
 6964W        W75369  37.383  14.878  11.993
 6965W        W75370  41.521  12.316  14.366
 6966W        W75371  39.096  19.308  12.633
 6967W        W75372  22.540   1.959  12.871
 6968W        W75373  12.355  40.088  11.526
 6969W        W75374  38.538   0.767  11.458
 6970W        W75375  34.599  24.153  14.785
 6971W        W75376   3.245  13.327  11.122
 6972W        W75377  24.779  34.133   3.678
 6973W        W75378  24.754  34.252   1.911
 6974W        W75379   8.603   2.654  12.570
 6975W        W75380  43.372  43.962   1.825
 6976W        W75381  40.321  20.582  12.852
 6977W        W75382  35.033  11.343   3.368
 6978W        W75383  32.870  37.686   4.718
 6979W        W75384  29.542  22.142  14.366
 6980W        W75385  34.354  12.845   0.462
 6981W        W75386  27.063  41.322   4.142
 6982W        W75387   5.978  35.571  14.396
 6983W        W75388  24.070  23.486   0.738
 6984W        W75389  12.856   3.852  14.806
 6985W        W75390  18.108  32.434  12.673
 6986W        W75391  11.502  19.720   4.941
 6987W        W75392  44.985  28.664   0.823
 6988W        W75393   4.495   1.360  13.618
 6989W        W75394   1.626  43.570   1.474
 6990W        W75395  10.839   7.436  12.854
 6991W        W75396  14.821  35.022  11.172
 6992W        W75397  43.535  27.795  12.506
 6993W        W75398   5.747  27.174  14.976
 6994W        W75399  13.664   7.419   0.265
 6995W        W75400  13.222   1.418  12.358
 6996W        W75401  15.324  32.500  14.739
 6997W        W75402  41.464   8.858  13.529
 6998W        W75403  14.595  21.745   0.694
 6999W        W75404  36.080   2.408   2.480
 7000W        W75405  15.221  24.012   1.006
 7001W        W75406   1.949  11.376   1.910
 7002W        W75407  21.987   9.323  14.283
 7003W        W75408  25.293  25.491   2.849
 7004W        W75409  32.526  10.172  13.561
 7005W        W75410  36.309  10.801  14.922
 7006W        W75411   7.535  18.954   4.137
 7007W        W75412  35.786  28.616   0.422
 7008W        W75413   6.148  23.743  14.317
 7009W        W75414  30.054   7.252  13.576
 7010W        W75415  10.701  44.064  14.557
 7011W        W75416   4.813   4.981  11.763
 7012W        W75417  34.190  27.727   0.922
 7013W        W75418   3.735  32.625   0.277
 7014W        W75419  38.013  10.275  10.338
 7015W        W75420  22.193  43.917   1.045
 7016W        W75421  40.743  41.627   4.181
 7017W        W75422  12.811   3.783  14.273
 7018W        W75423   4.974   2.072   4.837
 7019W        W75424   7.297  16.547  13.164
 7020W        W75425   1.456  26.548   3.295
 7021W        W75426  35.812  10.185  10.699
 7022W        W75427  40.525  36.430  11.611
 7023W        W75428  16.490   6.750  11.385
 7024W        W75429  36.632  13.470  13.950
 7025W        W75430  18.069  25.623  12.434
 7026W        W75431  43.325  13.376   4.074
 7027W        W75432  25.716  32.492   0.407
 7028W        W75433   2.938  36.613   3.161
 7029W        W75434  17.337  42.735   4.159
 7030W        W75435  22.364  25.273  11.999
 7031W        W75436  16.783  39.143  14.504
 7032W        W75437  21.027  39.406   2.146
 7033W        W75438   2.099  38.792  10.049
 7034W        W75439  25.053   6.912   3.128
 7035W        W75440  25.133  38.786   3.074
 7036W        W75441   5.905  28.114   3.150
 7037W        W75442  13.680  11.112   4.281
 7038W        W75443  11.170  18.661  10.683
 7039W        W75444  41.016  15.785  10.659
 7040W        W75445  33.444  27.717  13.408
 7041W        W75446  27.569  13.768   0.706
 7042W        W75447  18.489  16.770  13.890
 7043W        W75448   1.313   6.667   0.329
 7044W        W75449  18.672  18.627   3.583
 7045W        W75450   4.491  32.601   1.785
 7046W        W75451  44.774  30.689  10.686
 7047W        W75452  16.067  11.178  14.430
 7048W        W75453  25.461  41.583   5.029
 7049W        W75454   2.504  25.473   4.222
 7050W        W75455  19.228  11.224   1.214
 7051W        W75456   9.089   2.336  12.623
 7052W        W75457  21.485  28.843   2.001
 7053W        W75458  27.973  11.593   3.295
 7054W        W75459  28.518  16.812   2.811
 7055W        W75460  32.572  24.232  11.885
 7056W        W75461  23.959  43.462  10.578
 7057W        W75462   3.270  42.862  12.112
 7058W        W75463  13.876   5.175  14.330
 7059W        W75464  42.408  15.223   1.294
 7060W        W75465  44.946  21.968  10.870
 7061W        W75466  37.082  18.480  12.439
 7062W        W75467   9.136   2.875  13.286
 7063W        W75468  23.018  16.217  11.441
 7064W        W75469  44.570  26.777   4.141
 7065W        W75470   5.175   6.301   2.809
 7066W        W75471  28.035  33.151   4.455
 7067W        W75472  43.616  27.894  11.155
 7068W        W75473  13.700  11.199   3.351
 7069W        W75474  23.530  33.029  11.916
 7070W        W75475  43.153  21.587   1.815
 7071W        W75476   7.278   7.830  14.064
 7072W        W75477  16.752  30.950  11.146
 7073W        W75478  43.587  10.665  14.935
 7074W        W75479  44.149  39.779  14.668
 7075W        W75480  35.443   2.448   4.685
 7076W        W75481  34.680  36.313   0.879
 7077W        W75482   2.005  13.794  14.436
 7078W        W75483  16.230  40.276   4.403
 7079W        W75484  33.405  32.243   2.620
 7080W        W75485  38.763  34.094  12.429
 7081W        W75486  13.813  39.774   2.170
 7082W        W75487  18.081  43.978   0.280
 7083W        W75488  21.230  12.820  13.468
 7084W        W75489  17.477  20.191  13.895
 7085W        W75490  17.184  18.551   3.290
 7086W        W75491   2.501  23.005  12.452
 7087W        W75492   2.052  16.373  12.976
 7088W        W75493  27.205  10.996   0.892
 7089W        W75494  23.913  26.676   3.096
 7090W        W75495   3.264   6.449  13.049
 7091W        W75496  25.714   5.325   1.774
 7092W        W75497  29.847  24.987   4.543
 7093W        W75498  28.449  21.017   1.052
 7094W        W75499   7.042  39.418   2.688
 7095W        W75500  16.606  44.063   1.342
 7096W        W75501  13.117  15.669  10.026
 7097W        W75502   4.141  27.248   1.753
 7098W        W75503  29.116  28.564   0.365
 7099W        W75504  31.104  16.486  10.629
 7100W        W75505  23.009   5.410  11.560
 7101W        W75506  33.999  41.877  10.743
 7102W        W75507   9.340   1.303   1.279
 7103W        W75508  41.887  32.221  11.202
 7104W        W75509  12.255   9.211   3.307
 7105W        W75510   4.512  40.455   4.226
 7106W        W75511  13.214  35.426  10.897
 7107W        W75512  37.787  40.832  11.170
 7108W        W75513   5.201  37.640  12.055
 7109W        W75514  33.654   5.427   1.867
 7110W        W75515   5.559   5.283   1.258
 7111W        W75516  38.276   3.952  12.875
 7112W        W75517   6.352  36.973   4.834
 7113W        W75518  40.982   1.851  12.963
 7114W        W75519  38.439  22.050   1.717
 7115W        W75520   9.264  10.416  10.656
 7116W        W75521  29.643  43.216   4.120
 7117W        W75522  21.498  11.966   0.876
 7118W        W75523  35.517  41.914  13.168
 7119W        W75524  37.096   4.808  14.791
 7120W        W75525  38.573  34.900   1.670
 7121W        W75526  39.846  44.844  13.517
 7122W        W75527  20.953  30.421   4.752
 7123W        W75528  43.375  21.806   2.635
 7124W        W75529  33.539  26.573   4.135
 7125W        W75530   2.086  42.761  11.479
 7126W        W75531  10.973  36.533   4.776
 7127W        W75532  39.947  34.002   4.758
 7128W        W75533  21.965  33.037   3.943
 7129W        W75534  39.056  24.661   4.591
 7130W        W75535  43.120   6.210  14.496
 7131W        W75536  22.553  20.736   3.616
 7132W        W75537   8.876  23.090   0.321
 7133W        W75538  16.311  20.968  14.292
 7134W        W75539   7.438   4.210   0.960
 7135W        W75540   9.671  18.868  10.878
 7136W        W75541  41.749  17.023  12.968
 7137W        W75542  43.481  18.592   4.630
 7138W        W75543   1.809  37.033   1.128
 7139W        W75544  34.055  26.391  11.978
 7140W        W75545  17.730  32.589  14.002
 7141W        W75546  11.680   7.824  14.981
 7142W        W75547  36.497  41.884   2.886
 7143W        W75548   1.273  30.172  11.703
 7144W        W75549   5.727  29.398  11.255
 7145W        W75550  43.433  16.769  11.103
 7146W        W75551  32.107  25.533   5.082
 7147W        W75552  20.622  30.410   2.908
 7148W        W75553  33.898  18.246  14.368
 7149W        W75554  43.488   3.965  13.911
 7150W        W75555   6.826  31.878   0.838
 7151W        W75556  16.822  30.970  13.898
 7152W        W75557   6.662   7.198  13.424
 7153W        W75558  22.696  24.425  11.179
 7154W        W75559  44.301   5.823  11.774
 7155W        W75560  14.711  37.861   2.246
 7156W        W75561  30.685  31.526   2.150
 7157W        W75562   2.237   6.201   0.300
 7158W        W75563  26.129  15.875   4.232
 7159W        W75564  41.917  12.123   2.780
 7160W        W75565   2.877  40.833   3.286
 7161W        W75566  24.628  37.392  11.716
 7162W        W75567   1.403  26.959  12.088
 7163W        W75568   2.676  31.168  13.131
 7164W        W75569  28.084  29.187  10.479
 7165W        W75570   3.278  41.621  12.416
 7166W        W75571   0.096   8.826   4.600
 7167W        W75572  38.466  22.213   4.055
 7168W        W75573  22.333  15.884   3.312
 7169W        W75574   3.105  38.426  14.012
 7170W        W75575  11.075  26.576   4.352
 7171W        W75576  23.656  28.682  12.520
 7172W        W75577  32.223  16.053  11.670
 7173W        W75578   4.242  26.048   2.424
 7174W        W75579  37.931  39.258  14.461
 7175W        W75580   2.388   1.843  11.934
 7176W        W75581   4.160  17.463  12.413
 7177W        W75582   9.237   1.927  13.390
 7178W        W75583  15.292   7.154  10.250
 7179W        W75584  28.605  17.795   0.208
 7180W        W75585  38.198  39.943  11.617
 7181W        W75586  28.402  20.262  12.537
 7182W        W75587  21.648  44.743  13.311
 7183W        W75588  35.222  18.584  10.670
 7184W        W75589  31.719  26.627  14.467
 7185W        W75590  40.896  28.141  11.725
 7186W        W75591  30.635  15.827   4.288
 7187W        W75592  38.467  13.816   0.000
 7188W        W75593  30.649  17.111   0.625
 7189W        W75594   7.663   5.186  11.515
 7190W        W75595  39.777  18.254  12.412
 7191W        W75596  31.833  36.175   4.109
 7192W        W75597  10.094  32.208   4.359
 7193W        W75598   0.325  27.182   0.279
 7194W        W75599  42.839  32.384  14.570
 7195W        W75600  36.474  18.491  13.795
 7196W        W75601  35.373   0.699   0.429
 7197W        W75602  29.696   0.445  12.699
 7198W        W75603   7.993  16.646   4.034
 7199W        W75604  42.058  21.065  12.148
 7200W        W75605   9.675   1.029   5.108
 7201W        W75606  24.545  15.418   3.137
 7202W        W75607  27.460  23.893   4.572
 7203W        W75608  34.422  26.489   3.163
 7204W        W75609   9.760  35.402  10.693
 7205W        W75610  18.690  11.818  10.460
 7206W        W75611   2.080  21.762   3.684
 7207W        W75612   1.369  25.535  13.619
 7208W        W75613  26.094  30.965  11.988
 7209W        W75614  24.173  39.262   3.668
 7210W        W75615  11.828  19.483   2.351
 7211W        W75616  13.209  29.699   1.196
 7212W        W75617  34.452  28.913  13.501
 7213W        W75618  37.524  35.529  13.884
 7214W        W75619  17.921   4.276   4.170
 7215W        W75620  36.922  14.150   0.340
 7216W        W75621  14.704  31.815   4.191
 7217W        W75622   2.283  32.174   4.646
 7218W        W75623  26.164  10.864  11.266
 7219W        W75624  38.389  24.580  14.820
 7220W        W75625  29.282   3.206  11.090
 7221W        W75626  29.993  43.410  12.656
 7222W        W75627  17.712  44.287  12.993
 7223W        W75628  44.967  34.581  14.433
 7224W        W75629  31.201   5.094   3.470
 7225W        W75630  27.037  36.090  14.151
 7226W        W75631  20.581  19.151  10.664
 7227W        W75632  13.196  27.858  11.949
 7228W        W75633  32.895   3.155  13.074
 7229W        W75634  34.443  28.511  13.094
 7230W        W75635  43.424   4.684   2.234
 7231W        W75636   4.454  44.828   0.514
 7232W        W75637  36.296   2.547   1.228
 7233W        W75638  27.904   0.531  14.310
 7234W        W75639  32.110  18.912  11.547
 7235W        W75640  41.188  25.462  12.559
 7236W        W75641   8.938  29.910  12.436
 7237W        W75642  17.793   7.934   0.763
 7238W        W75643  22.498  24.107   3.634
 7239W        W75644  25.643  14.323  13.432
 7240W        W75645  22.603  10.130   1.431
 7241W        W75646  44.258  33.096  10.694
 7242W        W75647  17.662  22.265  11.940
 7243W        W75648  34.411   2.718  11.970
 7244W        W75649  13.126  25.163   2.669
 7245W        W75650  16.959  14.295   4.233
 7246W        W75651  26.610   3.728  14.453
 7247W        W75652  12.808  13.970   0.360
 7248W        W75653  20.296  10.215   3.944
 7249W        W75654   0.856  38.425   1.409
 7250W        W75655   6.905   3.747   2.837
 7251W        W75656  30.538  34.306   0.248
 7252W        W75657  42.945   8.706  11.714
 7253W        W75658   8.929  26.281   0.803
 7254W        W75659  29.540  41.768  12.278
 7255W        W75660  40.378  30.964  14.871
 7256W        W75661   3.223  18.131   4.364
 7257W        W75662   4.309  23.669  11.407
 7258W        W75663  12.040  20.085   4.023
 7259W        W75664  42.385  15.314   2.823
 7260W        W75665  19.525   3.961  14.710
 7261W        W75666  38.331  38.853   4.329
 7262W        W75667  20.621   8.224   0.902
 7263W        W75668  15.806  15.036  13.241
 7264W        W75669  14.159  14.392   2.767
 7265W        W75670  17.539  21.568   2.432
 7266W        W75671  24.182  20.325  13.314
 7267W        W75672  42.620  26.538   5.060
 7268W        W75673  40.400   7.260  14.047
 7269W        W75674  28.181  16.735   0.013
 7270W        W75675   4.892  11.102   2.788
 7271W        W75676  42.315  28.499   3.349
 7272W        W75677  35.880  27.515   1.903
 7273W        W75678  19.228  12.097   2.158
 7274W        W75679  41.397  33.370  10.486
 7275W        W75680   4.862  41.868   3.845
 7276W        W75681  42.550  14.926  12.057
 7277W        W75682  16.811   4.823  14.341
 7278W        W75683  15.292   3.718   3.610
 7279W        W75684   1.694  25.552   4.683
 7280W        W75685  24.595  37.986   2.864
 7281W        W75686   7.876  19.558   4.167
 7282W        W75687   4.374  41.713   3.720
 7283W        W75688   4.731  30.416  13.025
 7284W        W75689  38.064  44.860   4.496
 7285W        W75690  38.534  14.042  14.014
 7286W        W75691  29.536   3.537   0.646
 7287W        W75692  21.476   0.647   0.325
 7288W        W75693  25.132  26.666   4.124
 7289W        W75694  20.852  25.535   4.128
 7290W        W75695  25.485  33.290  12.520
 7291W        W75696  22.710  34.877  14.644
 7292W        W75697  14.898  34.827  12.645
 7293W        W75698  15.422  43.485  11.897
 7294W        W75699   0.767  42.803   2.467
 7295W        W75700   9.605   4.854  13.396
 7296W        W75701  42.405  13.406   3.261
 7297W        W75702   2.034  28.806  14.420
 7298W        W75703  34.010  24.153  12.360
 7299W        W75704   0.793  37.876   0.171
 7300W        W75705  15.743  19.289  14.049
 7301W        W75706  26.936   3.258   1.122
 7302W        W75707  28.908  38.961   1.769
 7303W        W75708   4.798  37.068   4.992
 7304W        W75709  14.663  33.591   2.281
 7305W        W75710   7.757  14.749   1.511
 7306W        W75711  12.792  23.889   9.990
 7307W        W75712  33.508  43.182  11.685
 7308W        W75713   7.247  21.116   5.072
 7309W        W75714  12.273  27.979  13.113
 7310W        W75715  43.008  13.035   3.808
 7311W        W75716  21.178  32.340   1.656
 7312W        W75717  12.811  26.575   2.214
 7313W        W75718  37.632  13.754  11.171
 7314W        W75719  38.629  25.973  10.724
 7315W        W75720  38.430  33.241   3.691
 7316W        W75721  35.232  18.142  11.162
 7317W        W75722   0.626  34.882  10.909
 7318W        W75723  21.102  23.078  11.893
 7319W        W75724   7.284  29.988   4.297
 7320W        W75725  16.013  22.236   4.608
 7321W        W75726   6.605  42.830  12.573
 7322W        W75727   0.777  23.034   3.489
 7323W        W75728  13.433   3.607  11.317
 7324W        W75729   4.911  14.624   3.059
 7325W        W75730  14.115  36.768  11.036
 7326W        W75731   4.460  21.004   5.030
 7327W        W75732  35.445  34.046   1.366
 7328W        W75733  24.218  36.876  13.265
 7329W        W75734  36.012  33.079  13.421
 7330W        W75735  32.428  35.726  11.537
 7331W        W75736  23.290  42.472  12.934
 7332W        W75737   2.659  26.935  11.595
 7333W        W75738  41.386  39.585  11.237
 7334W        W75739  22.927  42.126  12.057
 7335W        W75740  38.027   7.719  10.586
 7336W        W75741   7.297  25.609  14.418
 7337W        W75742  17.806  18.732   0.318
 7338W        W75743  11.874  19.040   0.814
 7339W        W75744  41.667  29.586   2.658
 7340W        W75745  41.394  19.753  12.794
 7341W        W75746  23.135  13.105  12.356
 7342W        W75747  44.669  29.640  10.580
 7343W        W75748   2.497  26.004   4.280
 7344W        W75749  44.157  11.733  10.878
 7345W        W75750  42.259  20.163   3.745
 7346W        W75751  30.483   3.067  11.544
 7347W        W75752  23.100  16.396   0.742
 7348W        W75753  20.405  10.316   3.429
 7349W        W75754  13.705  37.012   0.321
 7350W        W75755  38.342  17.767  14.058
 7351W        W75756   2.353  10.352   2.745
 7352W        W75757  39.664  33.376  11.002
 7353W        W75758  23.138  17.716   1.919
 7354W        W75759  16.856  30.621   5.011
 7355W        W75760  32.258  38.079  10.608
 7356W        W75761  14.314   6.832   1.887
 7357W        W75762  43.300  17.279   4.146
 7358W        W75763   4.928   5.940  11.641
 7359W        W75764   6.757  42.958  10.710
 7360W        W75765  23.871  24.476   0.486
 7361W        W75766  31.476  16.698   1.829
 7362W        W75767  17.776  31.424  13.487
 7363W        W75768  21.023  33.871   4.380
 7364W        W75769   6.445  39.152  12.102
 7365W        W75770   2.433   0.763  10.389
 7366W        W75771  18.482  35.657  13.988
 7367W        W75772  40.925  27.749  13.988
 7368W        W75773   6.729   2.292   1.368
 7369W        W75774  19.281   1.685  13.748
 7370W        W75775  44.987  21.774  14.113
 7371W        W75776  39.599  25.490  13.905
 7372W        W75777  27.066  21.013  11.372
 7373W        W75778  44.649  36.998   4.596
 7374W        W75779   4.240  44.115  13.380
 7375W        W75780  17.196  30.071  12.436
 7376W        W75781   0.826  34.621  11.926
 7377W        W75782  21.253  23.520   3.650
 7378W        W75783  25.492  35.811   0.705
 7379W        W75784   3.351   6.824   2.908
 7380W        W75785  38.345  33.471   1.776
 7381W        W75786  26.475   7.840   3.674
 7382W        W75787  31.094  44.395  10.700
 7383W        W75788   4.889  26.026  13.306
 7384W        W75789  17.858  16.177   2.603
 7385W        W75790  18.047   0.417  14.167
 7386W        W75791  15.749   6.311  10.926
 7387W        W75792  16.087  31.395  13.049
 7388W        W75793  20.710   8.338   1.401
 7389W        W75794  17.513   4.823  13.972
 7390W        W75795  29.243  23.762  13.357
 7391W        W75796  10.769  20.228   3.118
 7392W        W75797  22.992  26.071  12.886
 7393W        W75798  36.398  20.536  13.831
 7394W        W75799  30.413  34.298  14.328
 7395W        W75800  12.253  17.198   4.066
 7396W        W75801   1.510  33.576   4.141
 7397W        W75802   2.880  15.169   3.602
 7398W        W75803  41.220   7.722   4.235
 7399W        W75804  23.000  38.077   1.353
 7400W        W75805  15.992  31.425   2.631
 7401W        W75806  18.359  28.038  10.708
 7402W        W75807   5.838  22.977  13.495
 7403W        W75808  28.280  40.738  11.116
 7404W        W75809  32.609  17.404   4.484
 7405W        W75810  19.242  16.227   1.715
 7406W        W75811  43.280  18.534   1.883
 7407W        W75812  41.658  35.867  14.218
 7408W        W75813  39.161  39.569   0.378
 7409W        W75814  23.967  39.937   1.769
 7410W        W75815  20.713  35.155   3.214
 7411W        W75816  12.755  25.560   1.559
 7412W        W75817  31.882  26.113   1.365
 7413W        W75818  11.052   1.412   1.798
 7414W        W75819  43.536   1.272   3.170
 7415W        W75820  36.391  39.350  14.417
 7416W        W75821  14.508  25.037  11.060
 7417W        W75822  35.151   1.461   2.716
 7418W        W75823  12.163  17.164  11.062
 7419W        W75824  34.828  12.031  14.019
 7420W        W75825  25.147  43.050  10.074
 7421W        W75826   0.842  37.424  12.444
 7422W        W75827  35.065  18.615  14.729
 7423W        W75828   2.901   2.996  14.814
 7424W        W75829   2.259  39.076   2.567
 7425W        W75830  10.287   4.948   1.788
 7426W        W75831  15.422  32.077  11.989
 7427W        W75832  13.796   2.977   2.858
 7428W        W75833  35.415  44.749   2.946
 7429W        W75834  12.374  29.074   2.681
 7430W        W75835  20.859  39.569   3.844
 7431W        W75836  25.588   4.860   3.762
 7432W        W75837  25.603  36.025   0.208
 7433W        W75838  15.006   2.915   3.255
 7434W        W75839   3.744  25.610  11.415
 7435W        W75840  33.626   5.965  13.452
 7436W        W75841  21.573  23.117   2.192
 7437W        W75842  37.288  24.721  14.892
 7438W        W75843  16.160  37.308  12.045
 7439W        W75844  36.888  15.390   4.312
 7440W        W75845  40.371  17.129  12.088
 7441W        W75846  13.195  18.487   0.434
 7442W        W75847   8.201   4.484  13.439
 7443W        W75848  21.611  36.122  10.467
 7444W        W75849   7.789  44.846   3.243
 7445W        W75850  38.400  29.647   1.770
 7446W        W75851  26.990   5.770  13.549
 7447W        W75852  40.380  19.063  12.852
 7448W        W75853  12.198  12.392  11.610
 7449W        W75854  38.144  16.039   1.107
 7450W        W75855  30.327  13.906  14.858
 7451W        W75856  38.254  33.919   4.031
 7452W        W75857  30.006  18.866   0.361
 7453W        W75858  25.505  15.205  11.127
 7454W        W75859  42.770  40.721  14.265
 7455W        W75860   5.304  13.893   4.920
 7456W        W75861  28.839  33.934   0.890
 7457W        W75862   2.246  27.091  14.286
 7458W        W75863  20.351  29.894  11.197
 7459W        W75864  27.336  14.805  13.609
 7460W        W75865  10.851   8.787  13.530
 7461W        W75866  17.948  13.180  12.484
 7462W        W75867  37.451  13.585  12.223
 7463W        W75868   4.966  30.096   0.200
 7464W        W75869  44.566  22.122   3.086
 7465W        W75870  44.017   8.658  10.471
 7466W        W75871  35.938  26.693   2.123
 7467W        W75872   0.804  36.774   0.852
 7468W        W75873  19.866  37.111  12.166
 7469W        W75874  13.218  39.827  11.649
 7470W        W75875   3.933  29.603  11.237
 7471W        W75876  18.271  26.230   4.895
 7472W        W75877  16.737   3.930   4.694
 7473W        W75878  26.316   3.380   5.018
 7474W        W75879  38.211  43.018   4.298
 7475W        W75880   2.360   2.968  12.841
 7476W        W75881  15.702  44.184   0.991
 7477W        W75882  38.635  40.453   0.229
 7478W        W75883   0.444  22.198   4.321
 7479W        W75884  14.204  12.702   0.576
 7480W        W75885   5.578  44.370  14.387
 7481W        W75886  39.707  10.586   1.382
 7482W        W75887  13.791  13.063   4.623
 7483W        W75888   8.268   1.795  12.328
 7484W        W75889  41.663  25.936   4.159
 7485W        W75890  41.745  35.649   0.467
 7486W        W75891  41.890   8.713  11.562
 7487W        W75892  41.074   6.053  12.785
 7488W        W75893  19.572   5.919  11.576
 7489W        W75894  14.100  34.404   4.188
 7490W        W75895  33.935  13.359   3.227
 7491W        W75896  20.143  44.591   4.244
 7492W        W75897   7.320  20.276  11.015
 7493W        W75898  32.116  11.930   0.928
 7494W        W75899   3.967  32.594   1.662
 7495W        W75900   3.683   0.222   1.256
 7496W        W75901  20.301  24.445  10.534
 7497W        W75902  36.627  32.969   4.149
 7498W        W75903  29.527  25.811  12.429
 7499W        W75904  11.819  12.557  14.111
 7500W        W75905  23.643  17.325  10.984
 7501W        W75906  33.198   7.499  12.063
 7502W        W75907   7.757  24.355  12.223
 7503W        W75908   3.924  17.594  14.430
 7504W        W75909  20.707  38.837   0.836
 7505W        W75910  11.734   3.468  13.982
 7506W        W75911  38.374  25.921  13.755
 7507W        W75912  25.953  18.702   0.775
 7508W        W75913  13.960  35.713  10.297
 7509W        W75914   8.935  26.201  13.739
 7510W        W75915  28.040  25.144   2.176
 7511W        W75916  40.117  39.530  11.516
 7512W        W75917   5.626  39.842   4.607
 7513W        W75918   6.266  19.809   0.018
 7514W        W75919  23.202   2.760  11.430
 7515W        W75920  12.757  21.952  11.423
 7516W        W75921   2.990  12.182   4.226
 7517W        W75922  29.866  35.278  11.125
 7518W        W75923  10.612  19.130   4.286
 7519W        W75924  43.061  40.306   2.266
 7520W        W75925  44.055  38.380   3.344
 7521W        W75926  35.588  23.919  10.720
 7522W        W75927  13.713  20.757  12.033
 7523W        W75928  42.294   1.396   3.760
 7524W        W75929  31.704  37.906   1.857
 7525W        W75930  18.015  19.132  12.675
 7526W        W75931  29.883  18.553   3.695
 7527W        W75932   4.871  43.771  13.970
 7528W        W75933   6.865  36.805   0.367
 7529W        W75934  43.387  23.083  12.561
 7530W        W75935  19.455  25.751   1.198
 7531W        W75936  31.456  17.862   4.618
 7532W        W75937  39.051  25.208   0.896
 7533W        W75938  15.578  14.032   3.743
 7534W        W75939  33.178  44.778  10.353
 7535W        W75940  38.388  22.566  12.566
 7536W        W75941  41.560   6.733   3.664
 7537W        W75942  15.254  36.962  13.328
 7538W        W75943  16.288  43.755  13.302
 7539W        W75944  43.337  27.467  11.204
 7540W        W75945  40.312  26.642  10.563
 7541W        W75946  22.016  31.386   2.709
 7542W        W75947   5.267   5.265  13.377
 7543W        W75948  41.154  42.894  11.779
 7544W        W75949  22.783  17.583   3.885
 7545W        W75950  31.710  40.059  11.608
 7546W        W75951   9.047  25.522  10.781
 7547W        W75952  15.173  30.464   1.909
 7548W        W75953  18.625  34.126  10.482
 7549W        W75954   5.158   4.795  13.607
 7550W        W75955  29.596  38.553  11.985
 7551W        W75956   9.418   8.079   2.560
 7552W        W75957  31.908  37.901   1.000
 7553W        W75958  10.114   4.687  14.976
 7554W        W75959   5.411  34.324   4.025
 7555W        W75960   6.756  29.738  14.861
 7556W        W75961  16.791  12.731   1.067
 7557W        W75962  10.298   4.912  11.236
 7558W        W75963  28.218  36.635  12.092
 7559W        W75964   8.909  27.618   4.101
 7560W        W75965  14.603  26.567   3.702
 7561W        W75966  42.521   5.314  10.915
 7562W        W75967  29.799  21.089  14.065
 7563W        W75968   3.375  34.028  11.038
 7564W        W75969  35.458   4.854  10.635
 7565W        W75970  34.282   5.138  12.482
 7566W        W75971  40.652  40.829   2.928
 7567W        W75972  41.352  21.364  10.392
 7568W        W75973  29.553  29.636  10.753
 7569W        W75974   9.652  22.201  13.823
 7570W        W75975  18.536   1.139   1.811
 7571W        W75976   2.573  26.439   1.223
 7572W        W75977  10.576  10.729  11.580
 7573W        W75978  44.908   6.936  11.070
 7574W        W75979  26.606  14.874  12.875
 7575W        W75980  39.826  34.819  10.992
 7576W        W75981  26.090  15.267  14.596
 7577W        W75982  41.837  43.129   4.688
 7578W        W75983  34.011  43.472   1.753
 7579W        W75984  36.054  17.712  14.363
 7580W        W75985  40.868  15.068  14.022
 7581W        W75986  15.045  42.289   1.742
 7582W        W75987  14.727  10.293  12.024
 7583W        W75988  21.522   8.296   0.334
 7584W        W75989  30.272  44.716   1.251
 7585W        W75990  27.634   5.160   3.120
 7586W        W75991  33.806   7.768   2.503
 7587W        W75992  13.316  25.677  10.368
 7588W        W75993  28.974  30.245  12.044
 7589W        W75994  24.397   9.831  11.684
 7590W        W75995  13.635  24.551  14.517
 7591W        W75996  16.656  23.947  12.143
 7592W        W75997   1.551   4.006  13.150
 7593W        W75998  13.814  10.602  14.007
 7594W        W75999  16.715   7.191  14.950
 7595W        W76000  18.295  25.260   4.229
 7596W        W76001   5.774   1.496   4.600
 7597W        W76002  31.540  25.053  12.517
 7598W        W76003   8.181  25.985  14.439
 7599W        W76004  11.912  30.055  14.968
 7600W        W76005  38.300  10.691  14.562
 7601W        W76006  24.520  34.954  11.671
 7602W        W76007  41.364  36.288   0.704
 7603W        W76008  12.187  27.484  13.136
 7604W        W76009  22.008  43.694  14.436
 7605W        W76010  28.877   2.467  13.470
 7606W        W76011  17.945  16.798   0.766
 7607W        W76012  37.984   0.965   4.548
 7608W        W76013  25.470  10.062   2.859
 7609W        W76014  31.789  20.439  10.968
 7610W        W76015  21.467  27.699  12.108
 7611W        W76016  27.257   6.435  11.180
 7612W        W76017  16.529   6.354  12.867
 7613W        W76018   2.871  44.359  12.549
 7614W        W76019  27.965  35.899  11.627
 7615W        W76020  36.283  14.214   3.683
 7616W        W76021  32.231  16.893  14.837
 7617W        W76022  21.241  10.794   2.348
 7618W        W76023  14.188  22.637  10.908
 7619W        W76024  30.405  42.121   4.251
 7620W        W76025  12.383  18.580  13.014
 7621W        W76026  26.037  25.100  14.818
 7622W        W76027  21.579   3.825   4.291
 7623W        W76028   9.426  23.954   0.236
 7624W        W76029  37.864  21.169  10.768
 7625W        W76030   2.551  14.540   4.166
 7626W        W76031  33.485  41.009   2.773
 7627W        W76032   0.686   3.005  12.051
 7628W        W76033  27.998  12.168  11.610
 7629W        W76034  44.907  12.900   3.389
 7630W        W76035  25.667   4.167   3.645
 7631W        W76036  23.359  24.630   0.454
 7632W        W76037  27.546  16.585  11.135
 7633W        W76038  14.550  19.784  11.973
 7634W        W76039  22.152   6.202  10.793
 7635W        W76040   5.383  30.049  13.539
 7636W        W76041   4.757  14.822  13.936
 7637W        W76042   1.800  33.924   1.810
 7638W        W76043  34.059  43.824   2.186
 7639W        W76044  13.180   8.961  11.677
 7640W        W76045   9.815   2.474   0.761
 7641W        W76046  12.785  43.528  11.508
 7642W        W76047  35.309  13.884   1.137
 7643W        W76048  26.640  17.710   0.918
 7644W        W76049  39.528  23.104  12.572
 7645W        W76050  11.125  32.403  14.324
 7646W        W76051  13.827  37.610  14.263
 7647W        W76052   8.964  24.287  11.182
 7648W        W76053  26.564  43.546   0.200
 7649W        W76054  25.116  12.144   1.375
 7650W        W76055  19.746  37.962   1.805
 7651W        W76056  13.773  10.637  11.701
 7652W        W76057  32.863  28.161  14.100
 7653W        W76058  25.021  44.519  14.979
 7654W        W76059  41.130  44.250   4.170
 7655W        W76060  32.422  43.830  12.472
 7656W        W76061  38.933  29.308  11.581
 7657W        W76062  31.395  16.704   4.999
 7658W        W76063  23.684  39.836   3.164
 7659W        W76064   1.302  30.410   3.174
 7660W        W76065  33.013  39.963   4.942
 7661W        W76066  20.242  33.276  14.969
 7662W        W76067   2.010   7.244  12.601
 7663W        W76068  32.167   4.989   3.723
 7664W        W76069  40.303  27.702   3.313
 7665W        W76070  11.291   3.792  13.478
 7666W        W76071  40.991  27.134   4.169
 7667W        W76072  30.187   9.646  14.374
 7668W        W76073  41.109  19.273  14.932
 7669W        W76074  18.545  20.666   0.537
 7670W        W76075  38.217  11.621  12.959
 7671W        W76076  23.059  11.701  12.450
 7672W        W76077   2.365  19.354  13.878
 7673W        W76078   5.343  38.211   3.285
 7674W        W76079  33.183  24.550  10.826
 7675W        W76080  18.592   7.453   1.361
 7676W        W76081  30.523  24.458  12.048
 7677W        W76082  23.734  14.141  14.923
 7678W        W76083  21.287  29.541   0.536
 7679W        W76084  34.742  19.406   4.815
 7680W        W76085  36.546  23.456   4.058
 7681W        W76086  29.947   9.874  12.517
 7682W        W76087  33.814  38.646   4.126
 7683W        W76088  24.676  23.016  14.676
 7684W        W76089  28.606   4.802   1.251
 7685W        W76090  13.658  42.234   3.267
 7686W        W76091   1.793   6.382  14.102
 7687W        W76092  33.475   2.721  13.272
 7688W        W76093  31.648  41.476  10.655
 7689W        W76094  11.160   4.023  12.003
 7690W        W76095  13.414  33.422   9.975
 7691W        W76096  24.699  27.543  14.329
 7692W        W76097  29.729  23.105   1.979
 7693W        W76098  33.300  40.313   4.128
 7694W        W76099  39.040   4.504   5.004
 7695W        W76100  44.488   3.795  14.756
 7696W        W76101  13.402   1.795  14.042
 7697W        W76102  34.109  29.709   3.454
 7698W        W76103   3.626   2.712  12.818
 7699W        W76104   0.790  29.729  13.807
 7700W        W76105  42.785  41.046  10.668
 7701W        W76106  22.143  35.463  14.304
 7702W        W76107   0.279  42.778   2.636
 7703W        W76108   9.372  33.318   1.357
 7704W        W76109  12.635  29.323  11.115
 7705W        W76110   6.810  33.604   4.236
 7706W        W76111  28.514   2.710   0.294
 7707W        W76112  40.063   9.385   4.824
 7708W        W76113  20.448  35.328  13.677
 7709W        W76114   5.667  22.094  13.514
 7710W        W76115  44.460  29.213  12.185
 7711W        W76116  39.937  17.855   0.327
 7712W        W76117  44.904  12.505  11.757
 7713W        W76118  32.568   1.747   4.552
 7714W        W76119  18.088  41.842   2.896
 7715W        W76120  18.855  28.244   3.662
 7716W        W76121  36.871   4.885   5.338
 7717W        W76122   8.675  15.130  11.864
 7718W        W76123  39.812  12.161  11.251
 7719W        W76124   7.535  26.778   2.441
 7720W        W76125  43.256  42.833   2.884
 7721W        W76126  17.889   6.858  13.804
 7722W        W76127   7.107  14.430   4.218
 7723W        W76128  24.646   4.721  14.465
 7724W        W76129  10.225  37.306   4.945
 7725W        W76130  30.855  11.100  14.390
 7726W        W76131  36.072   5.937  12.534
 7727W        W76132  11.454  17.275   0.599
 7728W        W76133   2.438  12.181   1.472
 7729W        W76134  28.669  31.655  14.087
 7730W        W76135   1.171  21.240   4.827
 7731W        W76136  18.640  42.458   3.571
 7732W        W76137  27.582  27.413  14.547
 7733W        W76138  36.767  43.769   3.839
 7734W        W76139   5.581  34.378  12.574
 7735W        W76140  28.440   1.326  13.471
 7736W        W76141  38.697  37.634  11.942
 7737W        W76142  22.076  40.716  12.956
 7738W        W76143  16.132  34.435  11.256
 7739W        W76144  24.464  30.125  14.141
 7740W        W76145   6.418  26.189   4.148
 7741W        W76146  20.320  44.279  12.096
 7742W        W76147  25.736   2.072  12.383
 7743W        W76148  39.288   5.115   0.383
 7744W        W76149   9.295  44.882   0.871
 7745W        W76150   7.858   3.842  12.062
 7746W        W76151  35.065   8.325   4.159
 7747W        W76152  19.120  15.856   3.896
 7748W        W76153  32.774  28.115   4.175
 7749W        W76154   9.134  27.244   0.924
 7750W        W76155   9.261  37.434   0.117
 7751W        W76156  21.082  13.391   0.765
 7752W        W76157  38.881   4.932   4.756
 7753W        W76158  44.378  18.095  11.112
 7754W        W76159  12.008  34.884   1.085
 7755W        W76160  35.331   4.443   2.174
 7756W        W76161  11.168  11.330   3.710
 7757W        W76162  26.479  28.610  13.612
 7758W        W76163  44.986   3.277  14.518
 7759W        W76164  14.721  17.068   2.841
 7760W        W76165   5.817   4.181   2.978
 7761W        W76166  16.489  12.098  13.530
 7762W        W76167  17.913  19.237  13.996
 7763W        W76168  43.909  30.081  13.431
 7764W        W76169   0.409  31.085   0.932
 7765W        W76170  27.150  12.789   2.543
 7766W        W76171  26.701  18.759   3.805
 7767W        W76172   4.384  38.995  14.953
 7768W        W76173  37.963  22.781  11.084
 7769W        W76174  19.363  21.494  13.938
 7770W        W76175  16.614  44.434  14.984
 7771W        W76176  22.259  15.807   0.456
 7772W        W76177  23.459   9.502  13.015
 7773W        W76178   9.625  37.536   0.464
 7774W        W76179  14.050  11.199   3.743
 7775W        W76180  26.402  42.927   3.435
 7776W        W76181  29.702   5.455  13.792
 7777W        W76182  43.028  12.186   4.320
 7778W        W76183   6.883   6.447  11.618
 7779W        W76184  32.544  30.603   0.957
 7780W        W76185  35.473  23.257  13.564
 7781W        W76186   5.935  42.897  11.955
 7782W        W76187  30.680  23.146   2.038
 7783W        W76188  24.673  20.688   2.000
 7784W        W76189  37.368   8.815  14.011
 7785W        W76190   8.831  16.343  13.141
 7786W        W76191  28.052   5.413   2.250
 7787W        W76192  28.730  35.588   3.326
 7788W        W76193  15.669   2.437   3.334
 7789W        W76194  42.442  43.793  12.560
 7790W        W76195  18.620  32.964   2.823
 7791W        W76196   6.308  40.533   3.729
 7792W        W76197  21.616  40.054  13.738
 7793W        W76198   8.696   1.214  13.463
 7794W        W76199  29.826  35.611  12.539
 7795W        W76200  20.280  31.894  13.852
 7796W        W76201  14.727  44.905   4.108
 7797W        W76202  44.463   2.068   3.595
 7798W        W76203  19.601  33.973   3.707
 7799W        W76204   2.842  22.152   0.220
 7800W        W76205  31.581  36.234   1.256
 7801W        W76206   5.208  24.288   0.251
 7802W        W76207  36.803  38.450  13.954
 7803W        W76208  13.608  30.088  12.438
 7804W        W76209  22.029  21.016   1.267
 7805W        W76210  18.525  15.865  11.736
 7806W        W76211  33.551  25.715   3.765
 7807W        W76212  18.132  15.476   1.127
 7808W        W76213  19.343  21.663   1.721
 7809W        W76214  35.614  31.104   3.230
 7810W        W76215  37.460  18.979  12.024
 7811W        W76216  21.233  30.697   3.326
 7812W        W76217  27.897  10.309   4.053
 7813W        W76218  10.352  39.631   4.475
 7814W        W76219  21.521  10.651   2.786
 7815W        W76220  35.400  38.256  12.872
 7816W        W76221   7.054  20.088  11.409
 7817W        W76222   9.361  43.325  12.482
 7818W        W76223  30.444  17.830  12.264
 7819W        W76224  16.705   9.844   2.167
 7820W        W76225  37.465  12.157   4.942
 7821W        W76226  34.376   2.859   1.922
 7822W        W76227  31.991  15.490  10.295
 7823W        W76228  38.516  37.118   3.404
 7824W        W76229  25.495  10.318   2.370
 7825W        W76230  42.982  37.289  12.897
 7826W        W76231   6.757  13.506  11.595
 7827W        W76232  10.549  12.413   1.372
 7828W        W76233  37.928  18.033  13.343
 7829W        W76234  15.256  14.684  10.807
 7830W        W76235  31.096  28.449  13.106
 7831W        W76236  11.491  44.741  12.450
 7832W        W76237  21.049  37.504   4.607
 7833W        W76238   6.171  28.388  14.831
 7834W        W76239   9.966   1.933  11.698
 7835W        W76240  15.217  16.360  11.550
 7836W        W76241  20.682   0.844   2.128
 7837W        W76242  34.996  34.097  11.472
 7838W        W76243  32.152   0.041  13.059
 7839W        W76244  41.976  17.727  12.335
 7840W        W76245  22.111  43.324   0.303
 7841W        W76246  17.714  19.495   2.763
 7842W        W76247  25.670  17.576   3.085
 7843W        W76248  22.766   7.423   3.114
 7844W        W76249   5.442  42.416  14.462
 7845W        W76250  41.896  35.623  13.390
 7846W        W76251  28.869  25.698   4.659
 7847W        W76252  27.727  40.628   3.373
 7848W        W76253  10.883  36.371  12.659
 7849W        W76254  44.892  31.431  14.095
 7850W        W76255  36.041  21.113  12.376
 7851W        W76256  27.534  39.309   3.859
 7852W        W76257  10.701  40.766   0.877
 7853W        W76258  42.128  42.020  12.181
 7854W        W76259   3.352  37.571  14.497
 7855W        W76260  39.497   2.701   4.937
 7856W        W76261  35.357  43.016  11.385
 7857W        W76262   3.239  28.566   1.933
 7858W        W76263  18.499   2.230  13.351
 7859W        W76264  42.064   0.765   1.777
 7860W        W76265  11.346  12.313  13.987
 7861W        W76266  20.462   6.420  10.317
 7862W        W76267  33.057  23.634  11.031
 7863W        W76268  35.693   7.441   2.732
 7864W        W76269   2.851  34.400  12.519
 7865W        W76270  42.302  32.462  11.407
 7866W        W76271  36.839  37.462   4.667
 7867W        W76272   9.379  28.707  11.647
 7868W        W76273  41.093  35.021   3.758
 7869W        W76274  37.138  14.380   4.212
 7870W        W76275  15.078  44.419   4.167
 7871W        W76276   7.969  41.381  10.401
 7872W        W76277   4.789  17.543   0.393
 7873W        W76278  13.573   3.770  10.211
 7874W        W76279  10.002  33.340  10.811
 7875W        W76280  43.451  24.250   2.168
 7876W        W76281   1.310  40.176  10.962
 7877W        W76282   0.537  43.209   2.749
 7878W        W76283  38.613   3.997   1.909
 7879W        W76284  24.476  34.173  11.167
 7880W        W76285  39.024  14.226  12.074
 7881W        W76286  19.694  24.032   4.217
 7882W        W76287  38.480  41.384   0.395
 7883W        W76288  23.320  28.292  12.560
 7884W        W76289  18.522  17.059   4.133
 7885W        W76290   0.019  17.389  13.466
 7886W        W76291  36.565  14.279   3.257
 7887W        W76292  25.404  19.583  12.328
 7888W        W76293   9.696   8.779   2.806
 7889W        W76294  39.748  33.943   3.130
 7890W        W76295  13.657  26.176  14.310
 7891W        W76296  21.778  22.771  10.034
 7892W        W76297  13.332  36.747  10.714
 7893W        W76298  38.982  36.284   0.861
 7894W        W76299  35.121  39.083   2.807
 7895W        W76300  43.022  33.206   3.637
 7896W        W76301  30.256   5.928   1.724
 7897W        W76302   9.189  35.474  13.412
 7898W        W76303  29.110   6.611   4.077
 7899W        W76304  35.486  32.802  12.203
 7900W        W76305  15.117  34.082  14.535
 7901W        W76306  20.583  34.097  11.157
 7902W        W76307  34.138   1.938   3.950
 7903W        W76308  32.881  40.868   1.969
 7904W        W76309   8.110   9.185  12.069
 7905W        W76310  37.336  17.645   0.792
 7906W        W76311  33.996  35.529   4.255
 7907W        W76312  11.212  20.362  14.018
 7908W        W76313   6.926   8.228  13.827
 7909W        W76314  21.124   3.395  11.858
 7910W        W76315   3.861  40.314   3.272
 7911W        W76316  15.368   6.919  11.985
 7912W        W76317  41.053  43.689  12.433
 7913W        W76318  27.869  14.803  13.581
 7914W        W76319  41.423  29.479  11.568
 7915W        W76320  33.631  16.899  13.383
 7916W        W76321  30.786  28.546   2.412
 7917W        W76322  42.796  17.795   2.142
 7918W        W76323  38.239  26.986  12.609
 7919W        W76324  21.267  24.125  14.216
 7920W        W76325   4.804  23.761   0.799
 7921W        W76326  37.085  37.980  13.944
 7922W        W76327   0.873  17.417   3.288
 7923W        W76328  15.994  23.190  14.097
 7924W        W76329  23.553  14.760  13.107
 7925W        W76330  35.402   9.268   1.718
 7926W        W76331  29.940  22.644   1.903
 7927W        W76332  14.632  44.864   5.100
 7928W        W76333   3.686   2.974   1.248
 7929W        W76334  19.422  13.374   3.237
 7930W        W76335   4.334  44.856  11.656
 7931W        W76336  35.848  16.961  12.472
 7932W        W76337   1.184  34.134  13.885
 7933W        W76338   5.847  36.557   2.787
 7934W        W76339  21.489  23.342   4.098
 7935W        W76340  38.638  22.100  12.543
 7936W        W76341  12.265  32.011  11.994
 7937W        W76342   8.682  23.924   0.124
 7938W        W76343  24.673  23.268  13.141
 7939W        W76344  29.441  10.670   3.461
 7940W        W76345  37.990  16.139  14.717
 7941W        W76346  37.060  36.548  14.442
 7942W        W76347   0.390  20.618   0.415
 7943W        W76348  25.141  40.938  11.424
 7944W        W76349  39.822   2.034   0.014
 7945W        W76350  43.702  44.488  12.779
 7946W        W76351  39.587  21.962   2.858
 7947W        W76352  19.001   7.704  13.419
 7948W        W76353  36.961  17.275  14.976
 7949W        W76354  13.835  17.564   2.810
 7950W        W76355  27.096  22.945   1.145
 7951W        W76356  39.868  31.581  13.494
 7952W        W76357  35.490   6.129   1.550
 7953W        W76358  44.532  42.875  13.366
 7954W        W76359   7.934  22.611  12.192
 7955W        W76360  25.396  43.937  12.821
 7956W        W76361  15.284  27.487  12.272
 7957W        W76362  17.858   7.429   3.586
 7958W        W76363  20.639  14.897   2.168
 7959W        W76364   4.512   0.843   2.662
 7960W        W76365  16.553  28.814  12.628
 7961W        W76366  20.153  30.160  14.419
 7962W        W76367   3.119   5.353  14.626
 7963W        W76368  20.817  10.408  11.027
 7964W        W76369   6.398  17.047  13.139
 7965W        W76370   8.878   5.789  11.633
 7966W        W76371   1.649  20.795  14.775
 7967W        W76372   0.949   3.492   1.835
 7968W        W76373  26.578  42.096   2.886
 7969W        W76374  23.481  37.110   0.881
 7970W        W76375  15.019  31.009  11.549
 7971W        W76376  15.308  14.571  12.120
 7972W        W76377  16.984   6.676  13.913
 7973W        W76378  17.042  29.468   1.293
 7974W        W76379   2.673  41.403   2.673
 7975W        W76380  17.650  19.643   2.256
 7976W        W76381  25.549  40.954   3.155
 7977W        W76382  32.488   8.649  14.784
 7978W        W76383  11.454  36.250  10.923
 7979W        W76384  15.605  30.664   2.104
 7980W        W76385   6.362  18.641   2.907
 7981W        W76386  12.859   6.381  11.115
 7982W        W76387   6.346  25.420  10.743
 7983W        W76388   2.696   8.880   0.922
 7984W        W76389  34.447  25.287  14.443
 7985W        W76390  34.207   1.833  14.923
 7986W        W76391  15.823  42.845  10.176
 7987W        W76392  18.896  16.070  13.412
 7988W        W76393   3.708  34.942  12.122
 7989W        W76394  15.311  35.098  12.918
 7990W        W76395  17.845  44.002   2.865
 7991W        W76396  36.921  20.482  12.569
 7992W        W76397  17.735  33.122   4.224
 7993W        W76398  18.908  41.082  12.944
 7994W        W76399   4.222  43.915  13.841
 7995W        W76400  32.091  17.015  12.561
 7996W        W76401  12.187  13.233  14.772
 7997W        W76402  43.796  11.072  11.199
 7998W        W76403  39.627  43.586   1.102
 7999W        W76404  28.277   7.367   0.973
 8000W        W76405  17.762   0.028  12.445
 8001W        W76406  15.256  43.989   4.418
 8002W        W76407  29.631   6.194   0.729
 8003W        W76408   3.398  16.829  11.560
 8004W        W76409  14.543  21.169   4.638
 8005W        W76410   7.339  36.345  13.020
 8006W        W76411  29.284  43.382   9.763
 8007W        W76412  36.381  31.739   4.596
 8008W        W76413  31.928  35.717  14.549
 8009W        W76414  32.615  36.787  12.497
 8010W        W76415  41.349  12.723   4.773
 8011W        W76416  44.336  40.482   1.525
 8012W        W76417  17.028  42.829   3.724
 8013W        W76418  43.731  22.428   4.157
 8014W        W76419  28.055  37.456  14.913
 8015W        W76420  44.673  17.339   2.644
 8016W        W76421   7.312  20.845  10.218
 8017W        W76422  19.459  39.244  11.067
 8018W        W76423   8.407  26.457   2.243
 8019W        W76424   9.311  29.107  12.992
 8020W        W76425  18.885  18.008   2.404
 8021W        W76426  33.467   7.363  11.080
 8022W        W76427  32.610   2.824  14.307
 8023W        W76428  20.647   7.077   3.152
 8024W        W76429  36.051  11.235  12.672
 8025W        W76430   8.086   9.238   2.816
 8026W        W76431  26.052   4.474   1.167
 8027W        W76432  39.299   0.750   4.188
 8028W        W76433  32.657  28.587  13.501
 8029W        W76434  23.846   6.471  12.973
 8030W        W76435   9.028  18.680   5.297
 8031W        W76436   2.414  19.599  11.968
 8032W        W76437  30.891   3.256  14.910
 8033W        W76438  16.564  28.928  11.736
 8034W        W76439  35.120  23.616   4.068
 8035W        W76440   2.943  40.593  14.558
 8036W        W76441  10.596   7.550   5.084
 8037W        W76442  37.551  44.634   1.748
 8038W        W76443  16.290  11.584  14.927
 8039W        W76444  16.582   0.889  11.007
 8040W        W76445   0.561   0.066  14.318
 8041W        W76446  23.162  40.473   0.495
 8042W        W76447  28.536  18.852   4.525
 8043W        W76448   0.431  14.111  11.585
 8044W        W76449  31.351   0.816  11.089
 8045W        W76450  33.054  38.052   1.013
 8046W        W76451  11.655   3.914  11.462
 8047W        W76452  17.223  19.000  11.492
 8048W        W76453  14.123  19.770  11.162
 8049W        W76454   4.724  42.887  13.307
 8050W        W76455  27.566   3.273  11.834
 8051W        W76456  18.385  35.357   2.861
 8052W        W76457  21.162   2.201  14.997
 8053W        W76458   4.698  39.531   0.876
 8054W        W76459  39.493  15.814  11.536
 8055W        W76460  41.380   5.715   0.804
 8056W        W76461   1.107  18.135  13.459
 8057W        W76462  15.258  28.243  13.791
 8058W        W76463  21.141  18.579   3.502
 8059W        W76464  11.878  20.961   4.111
 8060W        W76465  23.650  25.699   3.679
 8061W        W76466  27.102  13.726   3.498
 8062W        W76467  31.934  20.463   0.048
 8063W        W76468  32.558  13.964   3.716
 8064W        W76469  26.126  19.805  12.890
 8065W        W76470  21.147  24.213   0.236
 8066W        W76471  11.216   7.368   4.571
 8067W        W76472  41.099  28.039   4.462
 8068W        W76473   1.242  21.316  11.340
 8069W        W76474  16.895   6.689   3.407
 8070W        W76475  44.726  41.470   2.158
 8071W        W76476  27.754   2.250   1.968
 8072W        W76477  12.935  30.719   0.884
 8073W        W76478  24.530  23.032  11.242
 8074W        W76479   9.582   8.935  10.730
 8075W        W76480   5.146   1.319   0.072
 8076W        W76481  22.804  36.383  12.214
 8077W        W76482   6.206  30.905  11.587
 8078W        W76483  38.590  42.240  14.991
 8079W        W76484  41.373   6.896   1.975
 8080W        W76485  42.099  42.916   5.118
 8081W        W76486  19.569  21.210   0.823
 8082W        W76487  35.162  32.866   2.700
 8083W        W76488  28.484  40.727  10.628
 8084W        W76489   6.853  12.600   4.864
 8085W        W76490  17.319  44.498  11.063
 8086W        W76491  20.081  27.551   4.554
 8087W        W76492  30.392  18.770  10.194
 8088W        W76493  10.660  40.094  12.673
 8089W        W76494  39.087  37.922   3.273
 8090W        W76495  25.709  15.555  14.019
 8091W        W76496  19.927  19.283  11.886
 8092W        W76497   1.829  27.955   1.888
 8093W        W76498  14.880  24.898   1.238
 8094W        W76499  34.275  19.745   0.828
 8095W        W76500  24.151  19.278   4.081
 8096W        W76501   6.398  35.011  11.476
 8097W        W76502  39.045   5.973   1.428
 8098W        W76503   8.487  15.739   3.204
 8099W        W76504  12.075  14.249   2.653
 8100W        W76505  16.465   5.344   1.226
 8101W        W76506  44.457   9.283  10.913
 8102W        W76507  40.086   4.468   1.668
 8103W        W76508  22.659  41.690   9.581
 8104W        W76509   9.765   2.705  13.394
 8105W        W76510  40.407  21.636  14.974
 8106W        W76511  11.640  13.265  10.993
 8107W        W76512  40.064  12.125  12.963
 8108W        W76513   2.564  28.935   1.157
 8109W        W76514  24.646  12.608   0.781
 8110W        W76515  24.606  23.522  10.558
 8111W        W76516  24.895   2.162  12.487
 8112W        W76517   0.032  10.470  12.009
 8113W        W76518  21.083  44.839  14.541
 8114W        W76519  27.618  10.370  12.227
 8115W        W76520   1.406  11.469   2.813
 8116W        W76521   5.008   7.431   2.213
 8117W        W76522  12.620  28.099   3.170
 8118W        W76523   3.127   0.314  12.082
 8119W        W76524   2.034   9.417  10.294
 8120W        W76525  41.315  41.345  12.858
 8121W        W76526  13.409  16.161  11.879
 8122W        W76527  42.329  30.649  12.837
 8123W        W76528  21.614   7.618  14.702
 8124W        W76529  11.146  11.381  14.668
 8125W        W76530  12.191  31.522  14.822
 8126W        W76531  39.732  38.927   0.575
 8127W        W76532  27.714   8.158   2.466
 8128W        W76533  22.495  42.907  13.967
 8129W        W76534   5.997   2.954  11.116
 8130W        W76535   4.800  23.090  11.964
 8131W        W76536   6.451  35.037   2.184
 8132W        W76537  26.646   2.373  13.994
 8133W        W76538  27.088   2.617  13.136
 8134W        W76539  10.119  26.765   1.723
 8135W        W76540   1.312  42.390   1.295
 8136W        W76541  18.177  34.493   3.129
 8137W        W76542   1.493  36.547  13.708
 8138W        W76543  22.512  26.540  14.872
 8139W        W76544  22.144  34.398   4.138
 8140W        W76545  40.993   3.805   4.105
 8141W        W76546  10.868  27.629  12.608
 8142W        W76547  23.409  16.607   1.964
 8143W        W76548   7.590  33.978  13.962
 8144W        W76549  41.720  18.033   1.228
 8145W        W76550   4.014   3.168   4.865
 8146W        W76551  13.666  28.823   4.190
 8147W        W76552   6.547   7.248   1.184
 8148W        W76553  37.271  42.563   4.567
 8149W        W76554   5.784   5.616  11.246
 8150W        W76555   2.921  27.310   0.680
 8151W        W76556  39.491  37.469  11.510
 8152W        W76557  38.176  37.467   3.134
 8153W        W76558   1.811  30.456  12.648
 8154W        W76559  24.276  28.610   0.807
 8155W        W76560  36.157  36.348   3.243
 8156W        W76561  14.999  34.928   4.180
 8157W        W76562  17.677  33.389   0.917
 8158W        W76563  25.922  40.280  13.002
 8159W        W76564  16.498  19.476   4.961
 8160W        W76565  33.223  29.951  10.246
 8161W        W76566  17.431  14.387  10.197
 8162W        W76567   0.811  29.910  11.798
 8163W        W76568   9.867  43.271  13.188
 8164W        W76569  11.719  19.973  11.088
 8165W        W76570  10.273   8.974  11.204
 8166W        W76571   2.124   9.389   2.343
 8167W        W76572  12.411   6.361   2.426
 8168W        W76573  16.369   9.364   4.575
 8169W        W76574  44.460   3.456   3.692
 8170W        W76575  20.768  29.641  13.465
 8171W        W76576  12.584   2.541  11.193
 8172W        W76577  10.814   5.169   0.315
 8173W        W76578  15.802   1.694  14.905
 8174W        W76579  40.480  12.572  11.281
 8175W        W76580  28.882  30.009   4.030
 8176W        W76581   4.127  36.758   2.407
 8177W        W76582   2.168   9.103  13.940
 8178W        W76583   5.012  28.151   3.663
 8179W        W76584  26.932  44.109   3.589
 8180W        W76585  38.974  15.173   1.269
 8181W        W76586  13.247   4.727  12.621
 8182W        W76587  17.872  24.580  13.607
 8183W        W76588  44.290  32.721   5.108
 8184W        W76589   1.777  28.921  12.012
 8185W        W76590  16.161  26.530  10.501
 8186W        W76591   3.870   9.784   2.125
 8187W        W76592  22.168  13.954   0.300
 8188W        W76593   6.434  12.592  10.359
 8189W        W76594  14.345   7.264   3.111
 8190W        W76595  37.580  16.178   4.178
 8191W        W76596  37.285   7.224  14.942
 8192W        W76597  30.641  31.613  11.659
 8193W        W76598  20.293  35.873  11.894
 8194W        W76599  11.355  40.079  11.597
 8195W        W76600  44.756   3.741  14.302
 8196W        W76601  24.616  38.828   0.881
 8197W        W76602  29.043  22.531   3.769
 8198W        W76603  20.942  16.200   3.099
 8199W        W76604  17.081   9.271  10.612
 8200W        W76605  15.335   2.482   2.633
 8201W        W76606  30.939  18.042  13.563
 8202W        W76607   7.352  25.030   4.750
 8203W        W76608  35.039   0.950   3.151
 8204W        W76609  29.077  39.426   2.733
 8205W        W76610  34.282  15.010   4.369
 8206W        W76611  14.305  15.730  10.120
 8207W        W76612   8.171   5.902   2.674
 8208W        W76613   8.147   0.482   2.548
 8209W        W76614   3.286   6.951  12.938
 8210W        W76615   3.436  41.301   3.632
 8211W        W76616  30.960  24.724  12.087
 8212W        W76617  33.855  23.887   0.231
 8213W        W76618   9.913  34.215  12.601
 8214W        W76619  42.962  44.432   3.453
 8215W        W76620   5.357  41.439   1.255
 8216W        W76621  38.008  18.691   0.494
 8217W        W76622  20.171  32.557   3.345
 8218W        W76623  27.932   0.777   0.932
 8219W        W76624  33.964  22.937   3.710
 8220W        W76625  34.299   3.182  13.884
 8221W        W76626  39.689  23.212  14.555
 8222W        W76627  32.415  15.885  12.640
 8223W        W76628  43.000   2.933   4.619
 8224W        W76629  22.899  11.553   0.386
 8225W        W76630   5.657  40.802   1.979
 8226W        W76631  28.642  38.279   4.968
 8227W        W76632  43.971  35.421   1.515
 8228W        W76633  28.752  13.764  10.986
 8229W        W76634   6.073  30.701  11.110
 8230W        W76635  29.903  10.265  11.542
 8231W        W76636  34.785  12.483   1.406
 8232W        W76637  26.012  27.560  14.262
 8233W        W76638  37.856  18.221  12.857
 8234W        W76639   1.466  31.584  11.341
 8235W        W76640  40.980  21.119   0.239
 8236W        W76641  29.212  36.536   0.177
 8237W        W76642  43.504  42.980  13.421
 8238W        W76643  31.876  37.531   5.044
 8239W        W76644  14.279   3.176  13.864
 8240W        W76645  14.301  11.751   3.805
 8241W        W76646  30.985   7.951   1.305
 8242W        W76647  30.684   1.357   2.427
 8243W        W76648   7.292  10.914   3.093
 8244W        W76649  29.613  23.315  14.100
 8245W        W76650  20.782  35.721   3.222
 8246W        W76651  37.316  33.584  12.558
 8247W        W76652  11.421  28.565  12.526
 8248W        W76653  15.003   6.001   0.438
 8249W        W76654  24.060  14.106  10.797
 8250W        W76655  26.170  30.391   2.753
 8251W        W76656  40.156  20.650   1.820
 8252W        W76657  33.687  28.446  12.105
 8253W        W76658  10.189  37.644   4.566
 8254W        W76659  18.715   1.209  12.436
 8255W        W76660   6.380  24.559   2.563
 8256W        W76661  42.820  33.678  12.500
 8257W        W76662  22.211  38.279  14.799
 8258W        W76663  34.520  22.698   0.278
 8259W        W76664  36.388   8.324   4.283
 8260W        W76665  29.488  11.885   4.675
 8261W        W76666  37.074   9.108   3.251
 8262W        W76667  41.467   9.206   0.164
 8263W        W76668   5.200   9.851   3.870
 8264W        W76669   6.141   2.398   3.625
 8265W        W76670  11.180   2.993  12.990
 8266W        W76671  10.026  10.188  14.937
 8267W        W76672  36.401  26.077   4.773
 8268W        W76673  40.416   0.538  10.544
 8269W        W76674   9.092  18.113  11.565
 8270W        W76675  40.486   0.695   0.820
 8271W        W76676  44.256   3.871   3.922
 8272W        W76677  18.025  16.416  14.976
 8273W        W76678  36.036   3.778  12.989
 8274W        W76679   6.356  22.357   4.178
 8275W        W76680  14.657  15.053  12.547
 8276W        W76681   6.333  37.295  14.641
 8277W        W76682  34.216  13.047   0.919
 8278W        W76683  19.808  44.350  11.023
 8279W        W76684  39.623  23.204   4.190
 8280W        W76685  12.797  15.400  13.449
 8281W        W76686  41.542  33.357  13.335
 8282W        W76687  21.322  12.546  14.249
 8283W        W76688  24.678  10.951  12.856
 8284W        W76689   8.125  41.760   1.314
 8285W        W76690  30.395  29.222   0.021
 8286W        W76691  31.505  25.769   0.037
 8287W        W76692  16.767  12.055  13.962
 8288W        W76693  30.085  10.869  13.797
 8289W        W76694  19.576  27.902   3.263
 8290W        W76695  43.063   6.925  12.477
 8291W        W76696  40.437  39.303  14.780
 8292W        W76697  21.675   2.976  14.544
 8293W        W76698  18.547  17.623   1.804
 8294W        W76699  23.457   8.203  14.357
 8295W        W76700  12.320  23.700  12.940
 8296W        W76701  23.462  20.616  11.660
 8297W        W76702   2.492  26.758   2.212
 8298W        W76703  43.304  17.184   1.296
 8299W        W76704  32.901  38.586   4.408
 8300W        W76705  40.295  44.799   1.025
 8301W        W76706  31.487  19.050  14.089
 8302W        W76707  21.713  39.500  13.579
 8303W        W76708  21.302   2.141  13.303
 8304W        W76709   3.257  44.717   0.793
 8305W        W76710  11.482  30.784  14.737
 8306W        W76711  36.374   7.615   1.719
 8307W        W76712   1.396   3.368   4.375
 8308W        W76713  26.505  35.034   4.512
 8309W        W76714   8.429  41.089  14.522
 8310W        W76715   8.097  44.826   0.034
 8311W        W76716  21.252  38.987   2.835
 8312W        W76717  32.422  37.814  12.415
 8313W        W76718  42.865  41.229   1.365
 8314W        W76719   6.166  11.418   2.716
 8315W        W76720  26.735  38.393  11.528
 8316W        W76721  21.175  33.522   1.139
 8317W        W76722  28.516   3.062   0.706
 8318W        W76723  13.089  30.163  12.454
 8319W        W76724  31.418  11.100  11.893
 8320W        W76725  33.001  25.935   0.518
 8321W        W76726  25.109   3.183  12.215
 8322W        W76727  19.145  21.182   0.400
 8323W        W76728  18.559   2.890  14.971
 8324W        W76729  35.622   8.192  12.840
 8325W        W76730  33.381   5.643  10.163
 8326W        W76731  18.646  19.779  11.491
 8327W        W76732  29.866  11.270   3.318
 8328W        W76733  43.502  23.133   4.118
 8329W        W76734  42.616  14.871  14.048
 8330W        W76735  24.248  24.443  12.857
 8331W        W76736  37.125  34.549   2.690
 8332W        W76737   4.763  33.035   1.171
 8333W        W76738   7.429  30.424  12.921
 8334W        W76739   7.016   7.884  11.073
 8335W        W76740  42.832  25.756   3.777
 8336W        W76741  28.697  38.983  13.884
 8337W        W76742  31.371  27.953   4.452
 8338W        W76743  43.968  42.515  13.034
 8339W        W76744  34.098  28.772   1.565
 8340W        W76745  35.492  35.519   0.189
 8341W        W76746  39.609   9.104   2.430
 8342W        W76747  38.764  15.339   0.820
 8343W        W76748   6.227  10.911   2.812
 8344W        W76749  15.964   6.771  11.316
 8345W        W76750  26.040  28.907  10.511
 8346W        W76751  29.493  34.452   0.578
 8347W        W76752  27.675  19.233   1.001
 8348W        W76753   0.402  23.234  12.464
 8349W        W76754  38.906  40.805   1.630
 8350W        W76755  27.458   0.657   0.260
 8351W        W76756  27.110  38.297   1.898
 8352W        W76757   2.497  25.046   1.856
 8353W        W76758  38.742   8.733   4.443
 8354W        W76759   2.386  21.676  12.085
 8355W        W76760  42.974  43.612   1.824
 8356W        W76761   4.678  19.482  13.965
 8357W        W76762  25.456  26.317  12.542
 8358W        W76763  18.733   0.491   0.278
 8359W        W76764  12.645   5.399  12.998
 8360W        W76765   1.112  20.782  12.595
 8361W        W76766   5.262  27.858   0.939
 8362W        W76767  11.301   6.443  11.990
 8363W        W76768  13.071  41.733   3.790
 8364W        W76769  33.895   5.281   1.407
 8365W        W76770  24.172  11.694  13.779
 8366W        W76771   1.229  40.405   1.571
 8367W        W76772  27.901  43.004   0.682
 8368W        W76773  25.208  42.042   5.139
 8369W        W76774   8.804  43.777   4.906
 8370W        W76775  17.363  25.614  13.865
 8371W        W76776   1.651  41.318   1.600
 8372W        W76777  31.378  37.100   4.557
 8373W        W76778  34.654  23.007  11.581
 8374W        W76779  26.366  26.519   0.540
 8375W        W76780   2.876  19.532   4.788
 8376W        W76781   9.485   6.211  10.024
 8377W        W76782  30.384  42.124  14.938
 8378W        W76783  35.253  39.942  13.687
 8379W        W76784  27.889   5.667   1.809
 8380W        W76785  13.674  43.255   3.280
 8381W        W76786  25.371  13.171   0.984
 8382W        W76787  22.572  26.882  12.583
 8383W        W76788  18.400  19.243  13.866
 8384W        W76789   2.451   2.837   3.904
 8385W        W76790  37.918  18.294  11.057
 8386W        W76791  43.261  38.029   4.721
 8387W        W76792  23.228   5.180   1.164
 8388W        W76793  35.958  35.995   0.285
 8389W        W76794  36.040  31.527   0.980
 8390W        W76795  38.048  14.745  11.243
 8391W        W76796   2.869  17.461   0.427
 8392W        W76797   3.401  15.695   2.475
 8393W        W76798   6.650  27.453  14.427
 8394W        W76799  25.715  32.807   0.838
 8395W        W76800  40.563  26.439   3.234
 8396W        W76801  24.312  29.484   3.194
 8397W        W76802  29.548  10.631  11.645
 8398W        W76803   0.884  35.336   4.618
 8399W        W76804   7.282  35.493  12.535
 8400W        W76805   9.746  37.169  12.610
 8401W        W76806  44.216   3.914   0.719
 8402W        W76807  11.055  35.843   0.436
 8403W        W76808  41.326   0.847  14.051
 8404W        W76809   8.193  17.090  14.275
 8405W        W76810   1.198  34.527  13.069
 8406W        W76811  16.619  16.001   4.450
 8407W        W76812   9.734   7.973  13.815
 8408W        W76813  27.708  12.241  11.158
 8409W        W76814  13.357  11.296   0.900
 8410W        W76815   9.461  28.260   2.876
 8411W        W76816  23.484  11.704  11.662
 8412W        W76817   2.392  25.184   0.020
 8413W        W76818   1.884  19.132  12.101
 8414W        W76819  40.257  29.132  10.835
 8415W        W76820  41.948  20.260  14.339
 8416W        W76821  28.486   6.241   2.361
 8417W        W76822  15.697  12.310   2.190
 8418W        W76823   9.236  31.424   3.139
 8419W        W76824  30.379  44.172  13.991
 8420W        W76825  11.850  23.716  13.892
 8421W        W76826   3.692  36.989   4.624
 8422W        W76827  32.073   5.668  14.713
 8423W        W76828   4.435   3.368   0.754
 8424W        W76829  21.238  20.954  11.893
 8425W        W76830   7.918  40.977   2.372
 8426W        W76831  37.835   6.193   3.668
 8427W        W76832  17.037  30.046   2.487
 8428W        W76833  29.482  39.360   3.697
 8429W        W76834  10.262  29.071  11.905
 8430W        W76835  38.937  40.327  14.225
 8431W        W76836  30.198  28.405   4.089
 8432W        W76837  18.658   7.687  11.209
 8433W        W76838  41.967  24.677  14.019
 8434W        W76839  40.219   5.009  10.713
 8435W        W76840   9.285  30.749   5.614
 8436W        W76841  28.179  25.806   0.211
 8437W        W76842   7.299  15.683   9.856
 8438W        W76843   9.983  12.795  10.493
 8439W        W76844   1.737  25.713  11.693
 8440W        W76845  17.770  14.384  13.410
 8441W        W76846   6.716  44.252   0.867
 8442W        W76847   1.964  24.214   1.927
 8443W        W76848  30.908  42.719  12.775
 8444W        W76849  20.175  42.235  12.953
 8445W        W76850  33.504  42.292   1.754
 8446W        W76851  38.114  17.571  13.561
 8447W        W76852  24.916  40.860   1.748
 8448W        W76853  38.417  35.841  13.987
 8449W        W76854  15.275  26.965  13.922
 8450W        W76855   8.206  36.260   3.758
 8451W        W76856  39.062  22.938  13.670
 8452W        W76857   5.926  19.573   1.175
 8453W        W76858   1.743  42.850   0.651
 8454W        W76859  36.244  24.253   4.263
 8455W        W76860   4.149  32.407  12.040
 8456W        W76861   3.952  18.845  14.990
 8457W        W76862  35.540   9.950   0.241
 8458W        W76863  25.819  39.588   2.215
 8459W        W76864  23.277  20.750   4.607
 8460W        W76865   5.425  14.404  14.859
 8461W        W76866  28.563  39.780   0.726
 8462W        W76867  21.961  44.071   1.992
 8463W        W76868  22.423  30.027   1.411
 8464W        W76869  16.863  24.765  13.412
 8465W        W76870   2.892  16.593   3.718
 8466W        W76871  18.203  39.479  12.865
 8467W        W76872  43.895  22.505  11.537
 8468W        W76873  38.028  26.414   4.055
 8469W        W76874  21.703  32.589   1.446
 8470W        W76875  44.520  18.811  11.572
 8471W        W76876  24.466  16.739   3.291
 8472W        W76877  44.489   2.962   0.713
 8473W        W76878   9.302  36.369  12.985
 8474W        W76879  19.270  11.421  14.872
 8475W        W76880  21.804  27.585   4.197
 8476W        W76881  17.264   3.293  14.257
 8477W        W76882  16.810   6.697  14.696
 8478W        W76883   6.177  14.803  12.470
 8479W        W76884   7.292  26.889  14.000
 8480W        W76885  27.584  30.122   2.314
 8481W        W76886  39.217  33.624  14.792
 8482W        W76887  43.453  31.725   1.302
 8483W        W76888  18.743  30.957   1.450
 8484W        W76889  21.552  23.079  10.864
 8485W        W76890  16.131   2.719   4.649
 8486W        W76891  40.289   1.343  12.234
 8487W        W76892  28.683  42.164  13.421
 8488W        W76893  18.564  11.409   0.964
 8489W        W76894  29.233  38.006   1.916
 8490W        W76895   8.850   0.201  14.510
 8491W        W76896  12.876   6.381   4.189
 8492W        W76897  19.064  19.368   0.943
 8493W        W76898  31.924  44.390  13.839
 8494W        W76899  42.403  14.607  12.478
 8495W        W76900  21.301  33.762   4.814
 8496W        W76901  38.039   5.921  11.112
 8497W        W76902  17.537  19.069   4.096
 8498W        W76903  12.951   2.870   4.046
 8499W        W76904  22.966   9.775  12.869
 8500W        W76905  12.619  44.637  14.871
 8501W        W76906  16.634  33.343  11.701
 8502W        W76907  26.181   7.353  13.943
 8503W        W76908  24.336   2.926   1.623
 8504W        W76909  43.329   4.860   1.759
 8505W        W76910  12.291   7.966   2.661
 8506W        W76911   9.329  13.316  10.492
 8507W        W76912  36.600  43.922  11.115
 8508W        W76913   9.691  42.505  11.660
 8509W        W76914  20.366  22.269  10.679
 8510W        W76915  23.045  11.239  13.524
 8511W        W76916  13.260  29.169   4.200
 8512W        W76917  26.478  14.269  12.002
 8513W        W76918   6.263  10.944   3.881
 8514W        W76919  36.927  31.008  10.645
 8515W        W76920  29.231  25.812   0.966
 8516W        W76921   5.262  40.518   4.719
 8517W        W76922  42.932   0.982  12.426
 8518W        W76923  27.273   5.850  11.116
 8519W        W76924  43.381  44.312   1.413
 8520W        W76925  10.755  33.910  12.084
 8521W        W76926   4.404   7.691   4.153
 8522W        W76927  27.216  30.393  11.778
 8523W        W76928  24.449   7.368   1.180
 8524W        W76929  44.204  21.718   3.102
 8525W        W76930   7.394  36.848  13.849
 8526W        W76931  42.267  44.351   0.638
 8527W        W76932  29.808   6.501   4.946
 8528W        W76933  15.447   7.935   1.312
 8529W        W76934  11.916  15.291  10.169
 8530W        W76935   7.705  19.180  14.854
 8531W        W76936   6.298  11.702  13.128
 8532W        W76937  14.503  38.324   2.185
 8533W        W76938   9.860  37.998   1.811
 8534W        W76939  36.367  21.277   4.500
 8535W        W76940  22.487   6.464  13.335
 8536W        W76941  30.431  12.366   2.614
 8537W        W76942  39.953   0.089   2.712
 8538W        W76943   3.302  10.977   1.955
 8539W        W76944  38.142   6.634   4.101
 8540W        W76945  44.304  43.508   1.468
 8541W        W76946   0.472  17.776  14.213
 8542W        W76947   7.877   0.539  12.865
 8543W        W76948  10.463  41.064   0.426
 8544W        W76949  43.730  41.603   4.795
 8545W        W76950   0.273  20.845   4.508
 8546W        W76951  37.571  34.628   3.807
 8547W        W76952  12.143  16.207  14.968
 8548W        W76953  23.578  37.078  14.899
 8549W        W76954  30.048   0.735   0.306
 8550W        W76955  30.222  22.228   3.300
 8551W        W76956  17.644   6.343   4.495
 8552W        W76957  35.563   3.363   2.561
 8553W        W76958   7.957  20.599  10.588
 8554W        W76959  10.366  26.133  10.630
 8555W        W76960  25.886   0.319  14.276
 8556W        W76961  36.617   0.677   4.003
 8557W        W76962  42.280  39.991  11.201
 8558W        W76963  34.530  36.351   3.724
 8559W        W76964   2.491  31.099   2.848
 8560W        W76965   5.873  44.682   3.267
 8561W        W76966  13.702   6.929  14.957
 8562W        W76967  17.040  44.738   1.718
 8563W        W76968  19.615  34.479  11.487
 8564W        W76969   2.339  11.709  11.461
 8565W        W76970  30.217  40.374  13.853
 8566W        W76971  36.336  19.914  13.019
 8567W        W76972  21.727   0.266  12.394
 8568W        W76973   4.690   5.403   1.654
 8569W        W76974  40.534  30.682   3.141
 8570W        W76975  26.541  34.158  12.007
 8571W        W76976   8.061  15.358  10.286
 8572W        W76977  14.184   0.832  12.378
 8573W        W76978   6.197  12.022  13.521
 8574W        W76979   0.230   1.455   1.730
 8575W        W76980  30.893   1.686   2.779
 8576W        W76981  28.313  32.389  12.832
 8577W        W76982  36.580  28.188  11.166
 8578W        W76983  44.110  24.872   5.044
 8579W        W76984   1.471  43.523   3.707
 8580W        W76985  41.733   3.273   3.245
 8581W        W76986  26.161  21.547   4.509
 8582W        W76987   2.059   2.359   2.716
 8583W        W76988  38.288  37.332  11.812
 8584W        W76989  22.458  39.351   3.598
 8585W        W76990   5.645  19.647   0.735
 8586W        W76991  20.119  12.430   4.052
 8587W        W76992   6.416  27.388   3.624
 8588W        W76993  35.382   6.185   2.833
 8589W        W76994  40.709  26.548  11.964
 8590W        W76995  41.479  36.370  12.139
 8591W        W76996  18.788  30.203   2.802
 8592W        W76997   5.520  25.528   1.025
 8593W        W76998  16.215   1.852  11.192
 8594W        W76999  12.220  32.335   2.850
 8595W        W77000  37.542   8.667  10.162
 8596W        W77001  33.618  14.713   2.754
 8597W        W77002   9.651  43.602   1.836
 8598W        W77003   4.198  34.853   1.729
 8599W        W77004   5.672  21.637  13.805
 8600W        W77005   8.226  22.519   2.094
 8601W        W77006  23.479  11.722  12.178
 8602W        W77007  36.208  14.357  12.019
 8603W        W77008  44.419  44.251   4.603
 8604W        W77009  35.429   6.769   3.607
 8605W        W77010  40.442  29.148   4.563
 8606W        W77011  24.879  13.138   0.784
 8607W        W77012  33.680  27.637   0.922
 8608W        W77013  43.769  39.848   2.164
 8609W        W77014  22.061  40.037  11.068
 8610W        W77015  11.177  15.950  12.791
 8611W        W77016  43.194  19.063   1.431
 8612W        W77017   1.249  17.480   3.962
 8613W        W77018  20.418  43.537  10.789
 8614W        W77019  31.372  19.832  12.407
 8615W        W77020  39.316  33.421   4.576
 8616W        W77021  10.443  32.393  12.290
 8617W        W77022  16.983  39.515  10.784
 8618W        W77023  22.979  44.277  10.094
 8619W        W77024  17.681   3.681   3.816
 8620W        W77025  22.021  25.098   0.775
 8621W        W77026   2.727  22.463  11.627
 8622W        W77027  10.850  15.424   5.481
 8623W        W77028  30.612  12.294  12.149
 8624W        W77029  18.466  37.836  12.149
 8625W        W77030  18.274  24.265   1.644
 8626W        W77031  40.315   4.179  13.410
 8627W        W77032   5.386   7.166   4.593
 8628W        W77033  32.669   0.189   2.590
 8629W        W77034  35.493  31.961   2.440
 8630W        W77035  40.281   6.149   0.335
 8631W        W77036  39.468   5.302   5.375
 8632W        W77037  29.883  15.259  11.182
 8633W        W77038  19.970   3.834   0.006
 8634W        W77039  37.393  24.768   1.745
 8635W        W77040  26.170  14.073  11.642
 8636W        W77041  33.671   2.370   3.294
 8637W        W77042  39.037  36.707  11.562
 8638W        W77043  20.230  27.746  14.822
 8639W        W77044  11.651  43.043   3.767
 8640W        W77045   2.324  38.873  12.912
 8641W        W77046  22.661  31.978   4.537
 8642W        W77047  14.348  10.677   4.697
 8643W        W77048  20.724   5.244  13.487
 8644W        W77049  27.213   1.531   1.972
 8645W        W77050   0.478  17.603   0.823
 8646W        W77051  44.277   6.464   4.123
 8647W        W77052  16.018  43.728   4.840
 8648W        W77053  26.683  39.509   1.774
 8649W        W77054   2.427  16.305   3.799
 8650W        W77055  26.565  27.777  11.079
 8651W        W77056  44.476  41.977   1.171
 8652W        W77057  24.027  43.577  12.330
 8653W        W77058  36.584  43.215   3.577
 8654W        W77059  39.946  28.418   1.401
 8655W        W77060  18.373  13.034   1.849
 8656W        W77061  13.503   4.360   4.168
 8657W        W77062  19.486  21.102  11.455
 8658W        W77063  33.986   5.776  11.490
 8659W        W77064  32.806  28.425  11.075
 8660W        W77065  26.629   5.588   3.353
 8661W        W77066  31.096   7.422  11.438
 8662W        W77067  14.308  17.732  13.877
 8663W        W77068  30.416  36.617  13.799
 8664W        W77069  32.601   4.189   0.530
 8665W        W77070  36.637  41.497   4.992
 8666W        W77071  31.945  18.163   4.636
 8667W        W77072  12.068  35.798  14.781
 8668W        W77073  27.672  27.178  13.121
 8669W        W77074   8.111   5.150  13.062
 8670W        W77075   3.837  34.143   0.548
 8671W        W77076   1.887   7.315  13.881
 8672W        W77077  44.421   2.387   4.643
 8673W        W77078   4.887  44.257  10.281
 8674W        W77079  30.830  26.825   2.637
 8675W        W77080  32.759  13.936  14.014
 8676W        W77081  15.729  35.010   3.694
 8677W        W77082  21.722  27.441  11.153
 8678W        W77083   3.808  26.403  14.484
 8679W        W77084   2.287  13.065   0.492
 8680W        W77085  10.015  35.001   2.380
 8681W        W77086  12.161  13.086   3.607
 8682W        W77087  10.348  28.997  14.449
 8683W        W77088  43.766   3.890  11.633
 8684W        W77089  39.794  32.450   0.514
 8685W        W77090   9.721  15.719   1.684
 8686W        W77091  11.458  17.739  14.984
 8687W        W77092  38.124  29.451   0.849
 8688W        W77093  40.432  35.811   3.313
 8689W        W77094  24.054   9.685  14.773
 8690W        W77095  10.731  27.927   4.933
 8691W        W77096  40.893   5.748  10.651
 8692W        W77097  39.124   8.081  12.479
 8693W        W77098  23.227  32.872   1.801
 8694W        W77099   9.393  33.947   4.188
 8695W        W77100  28.545  18.235   2.791
 8696W        W77101  35.808  43.265  11.113
 8697W        W77102  28.125  15.988   3.506
 8698W        W77103  14.806  42.159   3.752
 8699W        W77104  22.174  43.775   4.112
 8700W        W77105  44.212  42.412   1.300
 8701W        W77106  26.104  35.579   3.486
 8702W        W77107  39.033  42.738  14.877
 8703W        W77108   2.312  30.917  13.422
 8704W        W77109  36.084  28.560   3.236
 8705W        W77110  40.719  28.198  11.205
 8706W        W77111  11.210   7.398  11.908
 8707W        W77112   4.992  10.280  13.709
 8708W        W77113  20.622  36.978  10.835
 8709W        W77114  41.029  22.094  14.739
 8710W        W77115  43.871  20.201  14.772
 8711W        W77116  30.642  18.158  13.087
 8712W        W77117  23.363  37.140   2.875
 8713W        W77118  34.286  20.245  12.586
 8714W        W77119  35.882   8.296   1.428
 8715W        W77120  18.543  29.472  12.135
 8716W        W77121   4.721  39.495   2.397
 8717W        W77122  40.940  36.579   0.781
 8718W        W77123  26.178   6.656   0.340
 8719W        W77124   9.954  43.742  13.427
 8720W        W77125  14.691  43.027  12.300
 8721W        W77126  16.210  10.179   4.597
 8722W        W77127  13.115  44.583  13.001
 8723W        W77128  40.496  25.674   4.395
 8724W        W77129   0.273   1.664   3.674
 8725W        W77130  14.011  19.511  12.681
 8726W        W77131  24.949   1.007  13.457
 8727W        W77132   8.397  36.694  12.600
 8728W        W77133  37.935  43.378   4.010
 8729W        W77134  42.167  15.706   4.980
 8730W        W77135  32.825  16.638   3.312
 8731W        W77136  30.602  19.317   0.665
 8732W        W77137  29.757  30.444   4.049
 8733W        W77138  44.328  20.782   1.891
 8734W        W77139  12.567  25.681   2.431
 8735W        W77140  42.340  27.850  13.594
 8736W        W77141  30.435  32.962  13.415
 8737W        W77142  30.436  35.995  11.943
 8738W        W77143  26.188  43.820  13.502
 8739W        W77144  30.030  14.915   0.872
 8740W        W77145  15.329   9.588  14.477
 8741W        W77146  21.545  35.493  13.073
 8742W        W77147   8.065  24.407   2.585
 8743W        W77148  22.273  26.396  12.432
 8744W        W77149  37.903   5.558   2.405
 8745W        W77150   6.267  39.465  14.417
 8746W        W77151  40.351  32.951   1.828
 8747W        W77152   2.705  31.669  11.707
 8748W        W77153  41.224  22.188   2.672
 8749W        W77154  27.078  28.130   0.652
 8750W        W77155  36.465  36.200  10.194
 8751W        W77156  26.589  24.990   2.153
 8752W        W77157  13.122   6.856   2.784
 8753W        W77158   7.693  44.357   3.081
 8754W        W77159   7.700  23.886  12.465
 8755W        W77160  20.702  16.245  13.945
 8756W        W77161  31.779  30.163  14.410
 8757W        W77162  34.838  38.058  14.520
 8758W        W77163  34.439  25.599  11.096
 8759W        W77164  19.869  25.021  11.540
 8760W        W77165  25.160   3.773   4.099
 8761W        W77166  27.779  25.590   4.851
 8762W        W77167  44.893  21.141  11.973
 8763W        W77168  31.461  22.004  13.761
 8764W        W77169  21.039  38.437   2.908
 8765W        W77170  31.886  14.669   4.709
 8766W        W77171  11.247  12.894  12.689
 8767W        W77172  26.631  19.276  12.040
 8768W        W77173   0.352  10.137   2.426
 8769W        W77174  14.146  31.862   2.322
 8770W        W77175  18.594  36.528  14.297
 8771W        W77176  42.210   3.661  12.431
 8772W        W77177  33.662  22.732   4.076
 8773W        W77178  35.959   6.717   0.813
 8774W        W77179  15.855  25.537  13.823
 8775W        W77180  21.039  32.734   0.467
 8776W        W77181  22.510  39.975  10.816
 8777W        W77182   2.960  12.245  14.694
 8778W        W77183  12.297   7.851  11.738
 8779W        W77184   0.448  26.170   3.281
 8780W        W77185  38.057  20.474   3.523
 8781W        W77186  41.383   6.038   0.327
 8782W        W77187  43.306   1.764   4.676
 8783W        W77188  22.244  19.283   0.489
 8784W        W77189  21.806   4.615   1.813
 8785W        W77190   3.840   5.906  12.720
 8786W        W77191  35.029  43.386  12.434
 8787W        W77192   9.252  18.274   1.923
 8788W        W77193   1.308  23.039   1.463
 8789W        W77194  44.276  20.647   1.377
 8790W        W77195  33.575   9.636   1.701
 8791W        W77196  23.695  32.763  13.814
 8792W        W77197  11.977  13.178   1.501
 8793W        W77198  38.803   3.129   3.199
 8794W        W77199  36.832  28.380  13.837
 8795W        W77200   1.281  21.819  11.233
 8796W        W77201  41.044  29.474   3.340
 8797W        W77202  23.799   4.788  11.646
 8798W        W77203   1.450  44.120  14.004
 8799W        W77204  11.491  24.415  13.422
 8800W        W77205   2.746  14.208   1.701
 8801W        W77206  24.315  42.076   1.400
 8802W        W77207  28.055  22.396  12.531
 8803W        W77208  40.791   9.744   1.501
 8804W        W77209  34.520  29.445   0.751
 8805W        W77210   9.223  23.028   0.707
 8806W        W77211  10.879  44.415   4.363
 8807W        W77212  34.362  30.977   3.678
 8808W        W77213  37.662  29.980  11.429
 8809W        W77214  38.126  20.643   2.988
 8810W        W77215  16.575  13.207   2.366
 8811W        W77216   7.908  14.045  12.875
 8812W        W77217  28.387  27.574   1.250
 8813W        W77218  28.435  26.943   0.660
 8814W        W77219  41.009  40.816  10.827
 8815W        W77220  16.161  23.479  14.963
 8816W        W77221  29.499   1.404   1.480
 8817W        W77222  34.444  42.214   4.431
 8818W        W77223  28.568  31.440  10.667
 8819W        W77224  31.530   6.512  12.086
 8820W        W77225  35.092  39.625  11.816
 8821W        W77226  25.520  15.570   5.017
 8822W        W77227   7.476   9.656  11.823
 8823W        W77228  11.126   9.769   1.172
 8824W        W77229  37.064  15.149   3.730
 8825W        W77230  12.869  29.089   4.533
 8826W        W77231  17.980   7.369  12.629
 8827W        W77232  34.810  11.112   2.512
 8828W        W77233  37.462  25.088  12.022
 8829W        W77234   3.350   9.335  13.446
 8830W        W77235  18.466  18.710   1.319
 8831W        W77236  43.430   5.280  10.868
 8832W        W77237  26.788  32.818   3.693
 8833W        W77238  17.841  34.580   0.882
 8834W        W77239  36.585  16.586   3.382
 8835W        W77240  14.192  42.989  10.515
 8836W        W77241  10.171  17.979   5.055
 8837W        W77242  19.774  14.617   1.903
 8838W        W77243   6.604  27.508   0.156
 8839W        W77244  20.035  34.433   3.253
 8840W        W77245   9.663  39.737   4.152
 8841W        W77246  18.109  14.425  11.103
 8842W        W77247   8.620  17.150   0.821
 8843W        W77248  40.698  18.221  13.415
 8844W        W77249  34.026  31.462  13.954
 8845W        W77250  34.097   4.308   3.336
 8846W        W77251  15.678  17.292  11.266
 8847W        W77252  40.555  43.306  12.497
 8848W        W77253   2.529  28.363  10.688
 8849W        W77254   4.227   2.234   3.933
 8850W        W77255  34.114  38.388   0.526
 8851W        W77256   7.697  24.158  10.652
 8852W        W77257  26.245  39.839  11.994
 8853W        W77258  26.513  42.552   2.164
 8854W        W77259  34.679  29.116  11.621
 8855W        W77260  18.631  42.630   0.439
 8856W        W77261   9.833  36.980   1.817
 8857W        W77262   2.921  40.025  11.779
 8858W        W77263  10.311  35.293  13.829
 8859W        W77264  12.284  27.171   4.574
 8860W        W77265   4.861  25.118  12.290
 8861W        W77266   7.680  41.899  12.042
 8862W        W77267   8.026  29.800  14.258
 8863W        W77268  26.541  35.842   3.698
 8864W        W77269  37.112   4.805  14.271
 8865W        W77270  42.932  29.964  11.190
 8866W        W77271  23.235  23.717  10.706
 8867W        W77272  28.551   9.420   4.263
 8868W        W77273  41.951  14.602   0.330
 8869W        W77274  16.727  10.082   4.510
 8870W        W77275   8.765   2.741   3.272
 8871W        W77276   5.367  40.050   2.824
 8872W        W77277  30.100  17.340   0.614
 8873W        W77278   4.707   1.296  14.116
 8874W        W77279   3.369  29.030  10.725
 8875W        W77280   7.759  33.891  13.469
 8876W        W77281   4.847  24.727   2.425
 8877W        W77282  22.151  34.462   3.637
 8878W        W77283  32.566  16.127   3.320
 8879W        W77284  44.441  12.973   4.581
 8880W        W77285  31.193  32.561   0.221
 8881W        W77286  43.799  30.455  10.514
 8882W        W77287  24.170  35.707  12.934
 8883W        W77288  16.132  18.042  14.292
 8884W        W77289   9.378  19.020  13.463
 8885W        W77290  36.446  41.981   4.245
 8886W        W77291  11.657  39.612  12.421
 8887W        W77292  22.718  13.803   0.939
 8888W        W77293  41.271  21.168  13.937
 8889W        W77294  27.555  38.056   4.100
 8890W        W77295  36.628  20.592   3.584
 8891W        W77296  40.391  19.709  13.354
 8892W        W77297   8.523   7.382  12.489
 8893W        W77298  20.971  32.902  13.468
 8894W        W77299  21.204  36.007  10.162
 8895W        W77300  42.853  39.268   0.785
 8896W        W77301   4.401  34.446   2.052
 8897W        W77302  43.453  11.750  13.932
 8898W        W77303  29.413  14.689   1.248
 8899W        W77304  19.731  23.962  11.627
 8900W        W77305   4.681  22.747  14.308
 8901W        W77306  12.696  32.117   0.272
 8902W        W77307  40.940  39.180  11.255
 8903W        W77308  17.389  21.146   3.171
 8904W        W77309  19.246  34.223   2.949
 8905W        W77310  33.951  28.029   4.177
 8906W        W77311  39.925   5.658   4.191
 8907W        W77312  18.076  13.049  13.912
 8908W        W77313  19.129  28.164  13.342
 8909W        W77314  20.542  16.825   1.141
 8910W        W77315  29.423  10.216  11.366
 8911W        W77316  32.470  31.069  14.883
 8912W        W77317   3.794  41.746   3.272
 8913W        W77318  11.936  12.612  12.013
 8914W        W77319   2.795  22.164   1.204
 8915W        W77320   6.902  32.124   1.875
 8916W        W77321   8.846  26.713  10.762
 8917W        W77322  11.608  43.396   2.484
 8918W        W77323  19.673  37.386  11.428
 8919W        W77324   2.933   8.619   1.347
 8920W        W77325   0.935  36.986  14.801
 8921W        W77326   3.363  22.969  13.389
 8922W        W77327  31.110  22.746  13.456
 8923W        W77328  20.135  36.267   4.190
 8924W        W77329  37.558  38.791  11.703
 8925W        W77330  38.536  27.547   1.224
 8926W        W77331  11.301  13.541   2.588
 8927W        W77332  38.734  31.038  12.639
 8928W        W77333  30.106  26.000  13.356
 8929W        W77334  31.362  15.625  13.343
 8930W        W77335   9.599  10.195  14.100
 8931W        W77336  36.598  14.692   2.698
 8932W        W77337  37.847  42.560   2.666
 8933W        W77338  20.649  22.989   0.007
 8934W        W77339  42.945  26.204   4.715
 8935W        W77340   2.737  24.681  13.078
 8936W        W77341   1.220   6.178  11.063
 8937W        W77342  29.616  24.045  11.450
 8938W        W77343  35.338   9.288  12.420
 8939W        W77344  15.433   3.320   2.281
 8940W        W77345  13.518  35.922   3.569
 8941W        W77346  44.481  15.336  12.410
 8942W        W77347  41.804  33.495  14.426
 8943W        W77348   9.104   8.712   4.927
 8944W        W77349  25.050  27.211  12.232
 8945W        W77350  24.219  11.284  14.735
 8946W        W77351   9.708  17.650  13.664
 8947W        W77352  23.078  11.396   0.859
 8948W        W77353  41.831  41.522  11.629
 8949W        W77354  22.124   0.769   3.196
 8950W        W77355  17.690  35.889  14.805
 8951W        W77356  35.078   9.313  14.536
 8952W        W77357  23.982  34.119  10.944
 8953W        W77358  19.997  19.731   4.089
 8954W        W77359  42.534  41.176   2.637
 8955W        W77360   8.010   7.075   4.195
 8956W        W77361  17.670  31.138  14.855
 8957W        W77362  22.576  14.339   1.887
 8958W        W77363  11.601   0.658   0.377
 8959W        W77364  14.605  29.881  14.928
 8960W        W77365  42.301  35.469  14.108
 8961W        W77366   9.118  28.403  12.046
 8962W        W77367  34.415   7.687  11.647
 8963W        W77368  32.525  10.522  11.966
 8964W        W77369  19.023   8.902  14.776
 8965W        W77370  43.271   8.439   4.747
 8966W        W77371  13.306  38.202  13.525
 8967W        W77372  38.611  24.142   2.266
 8968W        W77373   8.677  24.064  10.760
 8969W        W77374  41.412   9.533   3.684
 8970W        W77375  22.149  33.475   3.356
 8971W        W77376  33.691  28.185   2.797
 8972W        W77377  37.861  38.523  13.946
 8973W        W77378  44.937   0.597  14.822
 8974W        W77379  12.231  31.486   2.757
 8975W        W77380   2.771  26.469  14.930
 8976W        W77381  26.303  39.851  10.242
 8977W        W77382  26.906  10.643   4.592
 8978W        W77383  23.801  43.336   1.385
 8979W        W77384   3.100  28.000  13.974
 8980W        W77385   4.335  34.400  12.856
 8981W        W77386  10.592  30.549   2.926
 8982W        W77387  42.941   8.876   0.860
 8983W        W77388  23.518  38.806  14.290
 8984W        W77389  31.478  35.000   0.823
 8985W        W77390   0.713  19.325   2.215
 8986W        W77391  30.093  36.400  14.448
 8987W        W77392  38.439  13.139  10.799
 8988W        W77393  22.578  23.863   1.893
 8989W        W77394   2.168  32.972   1.844
 8990W        W77395  32.137  10.868  13.111
 8991W        W77396  16.329  42.572  12.468
 8992W        W77397   0.766  30.598  13.890
 8993W        W77398  18.658  18.570  14.416
 8994W        W77399  34.125  26.359   3.686
 8995W        W77400  33.884  10.804   3.755
 8996W        W77401  11.468   0.232   4.290
 8997W        W77402  36.093  41.212   3.112
 8998W        W77403  13.304  38.976   4.296
 8999W        W77404  28.145  37.743   0.347
 9000W        W77405  23.243  10.327   2.748
 9001W        W77406   2.442  16.430   4.349
 9002W        W77407  15.676  43.981  12.316
 9003W        W77408  42.469  40.572   0.853
 9004W        W77409  28.690   0.750   0.176
 9005W        W77410  32.604  27.043  14.008
 9006W        W77411   6.076   7.600  12.211
 9007W        W77412  35.794  37.754   0.925
 9008W        W77413  27.062  39.306  13.593
 9009W        W77414  33.070   3.950   0.368
 9010W        W77415  11.168  34.311  11.469
 9011W        W77416  27.993   5.150  14.341
 9012W        W77417  39.669  43.818  13.720
 9013W        W77418  37.851  42.904   2.274
 9014W        W77419   9.392   9.208   0.674
 9015W        W77420  34.918  26.204   2.701
 9016W        W77421  32.381  41.527   2.779
 9017W        W77422   4.003   6.259   0.919
 9018W        W77423  32.133  31.263   3.662
 9019W        W77424  35.628  27.453   0.681
 9020W        W77425  20.022   4.330  14.917
 9021W        W77426  21.251  27.009   2.630
 9022W        W77427  28.049  26.724   1.229
 9023W        W77428  26.538  43.496   2.196
 9024W        W77429   9.742   4.701  11.111
 9025W        W77430  22.900  36.990  10.017
 9026W        W77431  18.549   0.495  13.949
 9027W        W77432  43.849  14.090   1.315
 9028W        W77433  41.637  10.712   2.739
 9029W        W77434  19.749  29.580   1.470
 9030W        W77435   2.023   5.710   0.841
 9031W        W77436  20.540  20.575   0.487
 9032W        W77437  10.605  18.711  11.215
 9033W        W77438  11.061  15.829   4.135
 9034W        W77439  12.651  12.842   3.021
 9035W        W77440  29.936  24.897  12.530
 9036W        W77441  15.729  36.970   4.146
 9037W        W77442   5.611  23.905   4.893
 9038W        W77443   4.963  15.796   0.865
 9039W        W77444  10.129  42.822  11.585
 9040W        W77445  30.668  26.753  10.816
 9041W        W77446  24.038   3.419   1.873
 9042W        W77447  13.852  19.646   2.178
 9043W        W77448   4.825  19.054   0.275
 9044W        W77449  28.698  14.756   5.547
 9045W        W77450  30.947  43.939   0.241
 9046W        W77451   2.474   2.478  13.894
 9047W        W77452  13.267   3.359   3.275
 9048W        W77453   2.214  38.814   1.612
 9049W        W77454  40.249  25.186  11.254
 9050W        W77455  34.098  31.187   1.195
 9051W        W77456  15.148   5.329   1.776
 9052W        W77457   7.769  41.061  11.664
 9053W        W77458  14.027  40.822  14.701
 9054W        W77459  10.925  37.909   1.887
 9055W        W77460   5.602  11.907   0.010
 9056W        W77461  12.039  38.987  13.430
 9057W        W77462  25.942  44.804  14.401
 9058W        W77463  42.012  19.753   3.925
 9059W        W77464  40.820  12.694   2.793
 9060W        W77465  26.786   1.465  11.540
 9061W        W77466  36.705  31.011  11.180
 9062W        W77467  36.843  21.472  14.356
 9063W        W77468  18.801  15.086  11.581
 9064W        W77469  25.485  42.661  10.119
 9065W        W77470   4.947  12.782   2.815
 9066W        W77471  44.352  36.169  10.746
 9067W        W77472  35.901   8.171   0.406
 9068W        W77473  42.872   3.417  11.188
 9069W        W77474  41.749  43.601  14.224
 9070W        W77475  30.882  38.043   1.216
 9071W        W77476  28.070   7.315  10.461
 9072W        W77477  33.037  41.729   4.567
 9073W        W77478  23.123  19.212  12.966
 9074W        W77479   1.030   4.908  10.939
 9075W        W77480  28.822  28.715  13.786
 9076W        W77481  24.192  43.861   3.184
 9077W        W77482  40.132   2.542  12.910
 9078W        W77483   1.623  20.567  11.867
 9079W        W77484  28.782   4.865   2.743
 9080W        W77485   2.230  31.460  10.671
 9081W        W77486  32.911   0.434   2.200
 9082W        W77487  24.221  16.784   2.283
 9083W        W77488  33.534  15.882  14.430
 9084W        W77489  12.166  33.166  14.372
 9085W        W77490  40.448  29.546  12.086
 9086W        W77491   5.718   3.465  11.598
 9087W        W77492  36.055  17.609  10.458
 9088W        W77493   1.267  10.655  14.366
 9089W        W77494  40.187  32.028  10.720
 9090W        W77495  36.751  28.314  10.171
 9091W        W77496  18.846   7.326  10.762
 9092W        W77497  43.528  33.916  14.944
 9093W        W77498   5.954  42.461  14.283
 9094W        W77499  10.617   9.697  14.475
 9095W        W77500  25.362  21.910  12.982
 9096W        W77501   7.042   4.602   2.954
 9097W        W77502  42.890  13.207   3.342
 9098W        W77503  44.925  36.874   5.093
 9099W        W77504  15.577  27.153   0.899
 9100W        W77505  19.814   9.878   4.971
 9101W        W77506  17.323  29.628   4.200
 9102W        W77507  44.541  32.208   1.838
 9103W        W77508  15.610  10.002   0.283
 9104W        W77509  17.455  30.496   9.851
 9105W        W77510  44.226   1.788  12.085
 9106W        W77511   3.254  44.231  10.536
 9107W        W77512  21.772   1.909  13.336
 9108W        W77513  24.953  23.533   3.710
 9109W        W77514   9.939  16.638  11.615
 9110W        W77515  13.624   2.192   2.417
 9111W        W77516  26.052   6.702   0.919
 9112W        W77517  39.815  24.682   1.949
 9113W        W77518  40.475  40.415   0.754
 9114W        W77519   2.198  12.152   2.851
 9115W        W77520  30.562   7.470  12.003
 9116W        W77521   4.975  44.806   0.439
 9117W        W77522  42.751  28.695  13.805
 9118W        W77523  17.099  13.744  10.687
 9119W        W77524   7.362  25.067  14.824
 9120W        W77525  43.585  20.185  10.672
 9121W        W77526  38.754  10.691   1.148
 9122W        W77527  29.196  32.586  13.272
 9123W        W77528  43.540  30.102   1.792
 9124W        W77529  10.516  19.575  14.055
 9125W        W77530  43.048  43.946   2.227
 9126W        W77531  11.641  17.056  11.885
 9127W        W77532  39.840  43.764   0.362
 9128W        W77533  42.761  30.655  11.727
 9129W        W77534   7.866  42.376  11.174
 9130W        W77535   2.380  36.562  12.401
 9131W        W77536  43.158   9.904  13.893
 9132W        W77537  12.327  38.785   0.952
 9133W        W77538  40.074  20.637  10.629
 9134W        W77539  41.693  44.456   3.001
 9135W        W77540  42.609   5.388  14.508
 9136W        W77541  37.455  33.664  11.290
 9137W        W77542  21.533   9.950   1.877
 9138W        W77543  19.718  30.401  14.249
 9139W        W77544  28.203  29.503  14.308
 9140W        W77545   5.707  33.178  14.350
 9141W        W77546  41.751  42.392   3.625
 9142W        W77547  25.075  35.333   2.308
 9143W        W77548   1.671  36.492  12.922
 9144W        W77549  10.822  19.527   3.810
 9145W        W77550   9.257  43.417  10.615
 9146W        W77551  18.233   1.305  10.668
 9147W        W77552  27.174  22.588   3.639
 9148W        W77553  38.805  35.514  10.759
 9149W        W77554  18.623  23.497  13.932
 9150W        W77555  42.840  16.108   2.719
 9151W        W77556   4.901  13.712  12.980
 9152W        W77557  39.235  39.041   0.507
 9153W        W77558  32.201   0.105   4.329
 9154W        W77559  31.203  12.332  13.879
 9155W        W77560  16.184  24.424   2.225
 9156W        W77561  16.819  35.822  13.080
 9157W        W77562   5.165  41.905  12.496
 9158W        W77563  44.251  43.144   4.158
 9159W        W77564  23.404  18.695  12.189
 9160W        W77565  12.537  10.102  14.401
 9161W        W77566  34.336   7.799   2.417
 9162W        W77567  29.160  12.725  13.745
 9163W        W77568  35.049  42.553  14.341
 9164W        W77569  20.780  31.893  10.653
 9165W        W77570  22.196  44.267   0.677
 9166W        W77571  24.550  43.179   2.166
 9167W        W77572  22.159  37.795   1.030
 9168W        W77573  10.926  25.111  14.324
 9169W        W77574  34.672   0.659  11.656
 9170W        W77575   4.515  24.208   3.377
 9171W        W77576   8.447  41.282  10.592
 9172W        W77577  11.596  17.863  10.644
 9173W        W77578  15.082  40.779  14.470
 9174W        W77579   3.580  13.670  12.641
 9175W        W77580  26.080  21.656  13.826
 9176W        W77581  37.679  30.225  12.441
 9177W        W77582  20.249  38.337   0.326
 9178W        W77583   3.849  28.504  11.418
 9179W        W77584  37.099  20.040  14.552
 9180W        W77585   7.075  19.644   0.257
 9181W        W77586  10.321  43.349   4.680
 9182W        W77587  11.888  24.164  12.536
 9183W        W77588  36.817   7.269  11.981
 9184W        W77589  42.437  26.928   2.470
 9185W        W77590  10.126   6.254  10.516
 9186W        W77591  22.141  29.221  13.812
 9187W        W77592  18.240   4.313  11.591
 9188W        W77593   8.214  41.768  10.837
 9189W        W77594  24.247  11.600  12.834
 9190W        W77595  12.232  22.584   0.406
 9191W        W77596  43.052  21.269  10.646
 9192W        W77597  40.329  19.589  12.335
 9193W        W77598  12.867   3.562   9.624
 9194W        W77599  31.590   5.660   4.527
 9195W        W77600  12.059  17.101  14.927
 9196W        W77601  23.121  12.900   4.765
 9197W        W77602  33.495  24.385   2.427
 9198W        W77603  17.294   1.080  14.865
 9199W        W77604   3.708  44.002  14.570
 9200W        W77605  38.599  34.645   3.709
 9201W        W77606  39.840   9.128  11.629
 9202W        W77607  44.960  40.237  11.144
 9203W        W77608  35.986  36.841   3.245
 9204W        W77609  19.310  12.406   3.382
 9205W        W77610   9.111   0.917  13.481
 9206W        W77611   7.286  11.740   2.275
 9207W        W77612  23.797  39.416  11.032
 9208W        W77613  38.572  22.215  14.469
 9209W        W77614   0.283  21.508  13.253
 9210W        W77615   5.868  37.900   0.843
 9211W        W77616  39.336  14.627  13.962
 9212W        W77617  20.599  15.720  13.960
 9213W        W77618  33.420  28.740  12.936
 9214W        W77619  39.116  16.806  11.090
 9215W        W77620  27.976  21.528  14.828
 9216W        W77621  11.070   2.534  14.866
 9217W        W77622  14.170   4.285   3.336
 9218W        W77623  13.082  23.124  13.860
 9219W        W77624  42.532  35.893   2.868
 9220W        W77625  16.340  44.481  14.300
 9221W        W77626   6.337  16.037  10.735
 9222W        W77627  41.289  16.151  14.348
 9223W        W77628  20.516  29.615  12.007
 9224W        W77629  12.382  17.061  13.029
 9225W        W77630  41.106   8.308   0.171
 9226W        W77631  23.964  19.618  10.506
 9227W        W77632  28.073  26.605   2.879
 9228W        W77633   5.718  10.115  12.542
 9229W        W77634  39.870  30.236  11.238
 9230W        W77635  44.659  18.236  14.970
 9231W        W77636  43.238   9.137  11.531
 9232W        W77637  37.895   1.481   4.552
 9233W        W77638  11.096  40.806  12.896
 9234W        W77639  42.460  32.649  14.223
 9235W        W77640  19.720  40.757   2.880
 9236W        W77641  38.889  26.396  14.404
 9237W        W77642  27.942   0.449   0.243
 9238W        W77643  34.393   6.641  11.620
 9239W        W77644   5.303  31.873  12.426
 9240W        W77645  11.476   0.426  11.955
 9241W        W77646  37.865   3.412   3.143
 9242W        W77647  32.997   6.081   4.106
 9243W        W77648  15.202  37.570  12.675
 9244W        W77649  20.027  32.563   1.445
 9245W        W77650  35.047   6.238   3.988
 9246W        W77651  42.420  21.636   0.739
 9247W        W77652   2.719  16.071   4.625
 9248W        W77653  22.473  11.773  10.268
 9249W        W77654  37.489   3.245   0.480
 9250W        W77655   1.731  30.390  11.656
 9251W        W77656  22.292  26.259   1.435
 9252W        W77657   8.933  17.103   1.392
 9253W        W77658  15.318  41.395   2.755
 9254W        W77659  14.759  11.668   4.589
 9255W        W77660  23.042  25.467  14.328
 9256W        W77661  11.216  24.651   4.170
 9257W        W77662  38.504  18.808   0.572
 9258W        W77663  28.221  20.310  11.125
 9259W        W77664   7.822  37.488   2.064
 9260W        W77665  12.086  25.676   1.130
 9261W        W77666  37.827  42.301  14.517
 9262W        W77667  34.581  42.087  12.566
 9263W        W77668  24.534  35.943   2.365
 9264W        W77669  11.594   2.374  13.794
 9265W        W77670  17.716  35.113   3.665
 9266W        W77671  32.028  10.669  11.751
 9267W        W77672  14.689   1.296   0.878
 9268W        W77673  13.723  10.583  12.201
 9269W        W77674  10.112   8.866  13.973
 9270W        W77675  39.374  11.536   2.264
 9271W        W77676  14.043  41.167  13.830
 9272W        W77677  26.017  14.291   4.084
 9273W        W77678  20.686  40.972  14.838
 9274W        W77679   8.881  32.501   4.332
 9275W        W77680  19.527  22.853   3.939
 9276W        W77681  31.888  41.502   0.510
 9277W        W77682  17.695  34.166  12.022
 9278W        W77683  41.983  40.332   5.403
 9279W        W77684  36.697  28.554  11.916
 9280W        W77685  39.788  11.212   3.076
 9281W        W77686  26.987  42.428  11.084
 9282W        W77687  39.968  25.728  13.054
 9283W        W77688  37.137  32.884  14.335
 9284W        W77689  30.558  41.763   2.366
 9285W        W77690   8.969  20.250   1.341
 9286W        W77691  14.109  44.725   1.265
 9287W        W77692   4.188  34.646   2.993
 9288W        W77693  33.547  17.767  12.135
 9289W        W77694  33.813  13.850   0.716
 9290W        W77695  22.007  19.945  10.953
 9291W        W77696  35.133  26.710  14.836
 9292W        W77697  28.917  16.032   4.003
 9293W        W77698  29.751  14.143   1.304
 9294W        W77699  42.370  22.928  12.402
 9295W        W77700  15.856  12.136  12.988
 9296W        W77701  21.948  17.065   4.633
 9297W        W77702  27.079  44.829  12.644
 9298W        W77703  39.306   9.864   3.501
 9299W        W77704  18.553  44.520  11.586
 9300W        W77705  26.892  34.136   4.599
 9301W        W77706   6.646  14.959  12.597
 9302W        W77707  23.254  41.078  13.774
 9303W        W77708  35.992  12.174  14.895
 9304W        W77709   1.044  14.755  13.087
 9305W        W77710  33.353  27.096   3.625
 9306W        W77711   5.748  22.067   2.278
 9307W        W77712  30.850  31.938   0.956
 9308W        W77713  24.167  40.057  11.959
 9309W        W77714   6.134   7.912   1.498
 9310W        W77715   9.856   1.403  11.678
 9311W        W77716  37.212  40.453   0.158
 9312W        W77717  37.758   3.847   2.913
 9313W        W77718  16.726  38.310  10.829
 9314W        W77719  12.102   0.977  12.540
 9315W        W77720  29.351   1.063  13.421
 9316W        W77721  44.882  22.492   3.528
 9317W        W77722  34.499  32.162  12.548
 9318W        W77723  44.979  26.962   0.883
 9319W        W77724  25.748  12.881  12.381
 9320W        W77725  29.843  22.812  11.033
 9321W        W77726   9.198  30.660   4.232
 9322W        W77727  43.524  13.726   1.804
 9323W        W77728   7.307  37.360  12.001
 9324W        W77729  21.646  29.463   4.268
 9325W        W77730   1.139  42.883   3.939
 9326W        W77731   6.785   2.893   3.085
 9327W        W77732  13.607  36.139  13.145
 9328W        W77733  14.339  16.664   1.149
 9329W        W77734  34.284   4.838   4.822
 9330W        W77735  32.623  29.196   3.137
 9331W        W77736  43.398  24.055  12.043
 9332W        W77737  31.140  15.769   3.715
 9333W        W77738  43.695  27.998   1.817
 9334W        W77739  11.917  19.719  13.506
 9335W        W77740  29.199   1.909   4.428
 9336W        W77741  24.732   4.058   3.327
 9337W        W77742  37.098  23.712   2.217
 9338W        W77743  17.972  27.616   2.389
 9339W        W77744  15.342  21.305   3.228
 9340W        W77745  17.666  31.155  11.928
 9341W        W77746  28.536  25.005   4.896
 9342W        W77747  23.272  25.669   0.729
 9343W        W77748  18.363   8.264   1.378
 9344W        W77749   5.759  33.804   2.771
 9345W        W77750  40.036   0.240  14.496
 9346W        W77751  11.721  26.868   3.446
 9347W        W77752   8.886  36.877  12.594
 9348W        W77753  28.780  42.026  14.385
 9349W        W77754  35.400  15.733   2.703
 9350W        W77755   1.798  44.808  14.382
 9351W        W77756  31.735  21.519   2.718
 9352W        W77757  15.237  28.274   2.854
 9353W        W77758  39.891  36.848   0.985
 9354W        W77759  28.402  38.570  14.025
 9355W        W77760  14.305  25.462   0.371
 9356W        W77761  29.612  43.780  10.672
 9357W        W77762  10.736   8.461  10.697
 9358W        W77763   8.609  23.062  14.888
 9359W        W77764   9.354   5.955   4.677
 9360W        W77765  18.175   2.459   2.835
 9361W        W77766  43.831   5.680  10.862
 9362W        W77767  42.375   4.018  11.516
 9363W        W77768   6.386   0.507   2.728
 9364W        W77769  15.807  20.796   0.978
 9365W        W77770  13.385  14.205   2.338
 9366W        W77771   7.870  25.526   4.189
 9367W        W77772  23.339  42.294  11.283
 9368W        W77773  39.478  36.088   0.883
 9369W        W77774  40.819  24.772  13.801
 9370W        W77775   3.747  35.177   0.346
 9371W        W77776  40.112  14.220  13.874
 9372W        W77777  34.895  28.491  14.493
 9373W        W77778  24.079   8.254  13.738
 9374W        W77779  22.269  17.088  14.996
 9375W        W77780  27.020  10.590  11.599
 9376W        W77781  21.247  25.792   0.964
 9377W        W77782  15.520  11.607   3.618
 9378W        W77783  36.034   5.466   0.065
 9379W        W77784  33.582  36.341   4.636
 9380W        W77785  33.639  31.726   3.774
 9381W        W77786   9.740  17.510   4.652
 9382W        W77787  19.902  14.647   4.259
 9383W        W77788  37.963  37.250  10.189
 9384W        W77789  11.840  36.604  14.716
 9385W        W77790   1.348   0.581   2.373
 9386W        W77791  23.301  34.357  14.835
 9387W        W77792  20.803  26.926   2.320
 9388W        W77793  30.766   4.970   0.463
 9389W        W77794  15.856   3.725  11.067
 9390W        W77795  12.412  33.166  13.901
 9391W        W77796  29.140   1.777  12.903
 9392W        W77797  31.869  39.989   1.310
 9393W        W77798  21.113  19.297  13.041
 9394W        W77799  13.580  11.058  11.513
 9395W        W77800   8.991   7.215   2.412
 9396W        W77801  31.973  24.432   0.974
 9397W        W77802  32.652  44.435  12.382
 9398W        W77803  35.626   0.496  13.692
 9399W        W77804   8.315  36.161  12.517
 9400W        W77805  21.093  44.822   1.962
 9401W        W77806  17.615  25.585   3.636
 9402W        W77807  43.144  25.680   5.023
 9403W        W77808   0.271   7.401   5.448
 9404W        W77809  32.564  39.513   4.507
 9405W        W77810  22.969  14.582  14.017
 9406W        W77811   0.820  23.484   3.800
 9407W        W77812  15.999  29.549   0.734
 9408W        W77813   4.742  38.348  12.846
 9409W        W77814  42.206   3.768   3.829
 9410W        W77815  42.374  44.745   0.308
 9411W        W77816   6.712  16.076   2.795
 9412W        W77817  31.357   7.082  12.275
 9413W        W77818  29.670   3.412  13.856
 9414W        W77819  26.134  12.424   4.483
 9415W        W77820   1.994  22.658  14.816
 9416W        W77821  14.341   9.350  11.417
 9417W        W77822  40.445  33.928   4.088
 9418W        W77823  26.810   1.066   5.088
 9419W        W77824   9.872  36.846  13.040
 9420W        W77825  11.433   8.134  11.113
 9421W        W77826   8.966   8.214   4.503
 9422W        W77827  11.858  44.780  10.745
 9423W        W77828  44.020  10.773  10.851
 9424W        W77829  19.270  43.852   1.062
 9425W        W77830  32.977  14.010   0.861
 9426W        W77831  24.480  43.985   3.744
 9427W        W77832  16.350   3.266   3.346
 9428W        W77833  22.867  33.887   2.855
 9429W        W77834  14.409  19.457   4.789
 9430W        W77835  30.634  43.678  10.680
 9431W        W77836  15.417   9.145  12.184
 9432W        W77837   9.683  35.619  13.476
 9433W        W77838  32.192  37.719   1.897
 9434W        W77839  30.516  36.868  12.150
 9435W        W77840  38.640  17.163  11.331
 9436W        W77841  11.829   8.704  11.698
 9437W        W77842  32.107  18.704  10.614
 9438W        W77843  26.384  28.297   1.773
 9439W        W77844  23.020  39.500  10.650
 9440W        W77845  42.356   2.403  11.772
 9441W        W77846   4.950  25.025  13.252
 9442W        W77847  17.180  20.294  12.068
 9443W        W77848  23.476   7.385   0.441
 9444W        W77849  12.306  21.637  11.415
 9445W        W77850  24.190  18.885   2.773
 9446W        W77851  34.406  39.971  13.339
 9447W        W77852  38.726  19.147  10.365
 9448W        W77853  23.335  21.879  11.919
 9449W        W77854   9.897  27.962  11.585
 9450W        W77855  32.405  35.415   2.681
 9451W        W77856  27.418  38.610  11.885
 9452W        W77857  15.539   1.515  12.452
 9453W        W77858  15.429  31.301  11.475
 9454W        W77859  32.342  36.844   3.723
 9455W        W77860  13.049  21.729  13.436
 9456W        W77861  38.854  33.860   1.788
 9457W        W77862  39.004  44.318   2.659
 9458W        W77863  11.160  22.743  11.914
 9459W        W77864  40.262  10.168   3.696
 9460W        W77865   8.555  23.848   1.321
 9461W        W77866   2.022  22.686  10.500
 9462W        W77867  12.438   6.343  12.629
 9463W        W77868  34.780   8.742   4.065
 9464W        W77869   0.893  22.141   2.983
 9465W        W77870  27.788  42.161  10.738
 9466W        W77871   3.225  24.478   4.208
 9467W        W77872  22.149  32.992  10.616
 9468W        W77873  11.772  21.154   1.300
 9469W        W77874  27.478  44.224   4.133
 9470W        W77875  20.210   1.360  13.929
 9471W        W77876  32.412   3.396  10.336
 9472W        W77877  28.231  42.942   2.047
 9473W        W77878  10.324  31.203   0.422
 9474W        W77879  18.709   7.851  13.833
 9475W        W77880  35.410  11.216  11.198
 9476W        W77881  24.965  14.658  10.750
 9477W        W77882  44.262  43.192  10.755
 9478W        W77883  39.500  32.873  14.970
 9479W        W77884   8.317  25.441  10.719
 9480W        W77885  36.976  16.836   3.594
 9481W        W77886  25.600  39.559   3.185
 9482W        W77887   9.849   3.386   4.582
 9483W        W77888  22.232  19.967  11.463
 9484W        W77889  11.687  26.000   1.356
 9485W        W77890  38.306   2.841  10.581
 9486W        W77891  24.075  20.021   0.943
 9487W        W77892  22.323   7.276   0.748
 9488W        W77893  16.141  26.997   0.229
 9489W        W77894  18.683  40.850  14.636
 9490W        W77895  38.898  43.051   0.267
 9491W        W77896   1.495  27.564   0.880
 9492W        W77897  31.306   7.752  12.146
 9493W        W77898  38.529  35.764   1.304
 9494W        W77899  16.747   3.060  14.470
 9495W        W77900  40.020  24.801   4.836
 9496W        W77901  29.522  44.448   0.976
 9497W        W77902  13.745  44.770  10.663
 9498W        W77903  10.330   7.845   0.393
 9499W        W77904  15.842  30.042   4.316
 9500W        W77905  35.352  13.608   3.172
 9501W        W77906  32.291  41.394  12.633
 9502W        W77907  36.099  12.394   4.528
 9503W        W77908  44.394  42.158   0.701
 9504W        W77909  31.680  24.184   3.637
 9505W        W77910  37.149  24.627  11.197
 9506W        W77911   8.877   1.716  11.945
 9507W        W77912  16.144   9.180   1.214
 9508W        W77913  20.523  39.754  11.732
 9509W        W77914   7.751  37.322   4.354
 9510W        W77915  16.216   2.094   9.794
 9511W        W77916  16.134  36.132  12.939
 9512W        W77917   3.854   7.971   4.991
 9513W        W77918  42.217  28.259   5.111
 9514W        W77919  16.205  23.769   3.416
 9515W        W77920  34.468  34.109   4.410
 9516W        W77921  42.949  28.789   0.945
 9517W        W77922  37.968   1.592  14.527
 9518W        W77923  31.423   4.270  10.463
 9519W        W77924   0.804  26.756   2.534
 9520W        W77925  34.960  24.043   3.786
 9521W        W77926  30.940  16.274   2.394
 9522W        W77927  16.015  25.735   0.944
 9523W        W77928  39.309   6.733   2.125
 9524W        W77929  26.965   8.311   1.218
 9525W        W77930  34.377   5.853   0.350
 9526W        W77931  22.232  16.588  10.766
 9527W        W77932   0.999  24.085  12.489
 9528W        W77933  10.226  12.236  14.783
 9529W        W77934  11.136  11.434  11.996
 9530W        W77935   5.691  41.315   2.188
 9531W        W77936  30.060  14.077  11.939
 9532W        W77937  13.245  36.208   4.542
 9533W        W77938  10.436  12.102  11.639
 9534W        W77939  40.672  41.464   0.388
 9535W        W77940  29.566  22.121   2.708
 9536W        W77941  30.268  13.295  10.437
 9537W        W77942  36.993   9.281   4.631
 9538W        W77943  11.242  39.352   4.227
 9539W        W77944  38.643  30.587  12.427
 9540W        W77945  27.641  33.491   1.356
 9541W        W77946  33.825   8.718   3.212
 9542W        W77947  41.081  31.408   2.910
 9543W        W77948   0.465  14.610   3.254
 9544W        W77949   7.580   9.463   1.910
 9545W        W77950  13.031  40.265  13.893
 9546W        W77951  30.546   6.575  14.686
 9547W        W77952  12.335  10.357   3.254
 9548W        W77953  21.159  15.969  12.038
 9549W        W77954  41.335  23.105  14.611
 9550W        W77955  38.300  26.951   0.029
 9551W        W77956  44.242  19.794   3.686
 9552W        W77957  19.814   9.910  10.224
 9553W        W77958  43.060  34.584   1.018
 9554W        W77959   4.733  28.369  12.961
 9555W        W77960  13.942  33.944  11.147
 9556W        W77961   9.350  36.881  12.894
 9557W        W77962  39.850  15.873   1.346
 9558W        W77963  38.138  27.099   2.313
 9559W        W77964  15.690  19.324   4.883
 9560W        W77965  20.672  39.302  14.877
 9561W        W77966  30.435  16.262   4.068
 9562W        W77967  37.707  36.547  14.896
 9563W        W77968  25.284  13.044   0.466
 9564W        W77969  11.486   3.383   1.700
 9565W        W77970  30.976  27.941  11.606
 9566W        W77971  19.906  30.370  12.358
 9567W        W77972   1.464  32.466  12.482
 9568W        W77973  44.239  42.853  11.149
 9569W        W77974  44.103   3.165  12.042
 9570W        W77975   9.402  18.992  11.534
 9571W        W77976   3.666  31.237   0.252
 9572W        W77977  14.711  14.495   5.314
 9573W        W77978  19.868  30.481  13.578
 9574W        W77979   6.812   5.868  10.556
 9575W        W77980  25.978  27.503   1.647
 9576W        W77981  17.469  25.527   4.635
 9577W        W77982  39.719  27.289  12.607
 9578W        W77983  13.662  24.473  14.007
 9579W        W77984  25.073  25.048   2.714
 9580W        W77985  23.288  43.328   1.361
 9581W        W77986   6.202  37.083  13.174
 9582W        W77987   1.063  10.227  11.372
 9583W        W77988   5.183  32.112   3.324
 9584W        W77989   4.748  25.580   4.410
 9585W        W77990  33.657   9.372  13.752
 9586W        W77991  31.073   9.416   0.430
 9587W        W77992  18.654  22.167  11.113
 9588W        W77993  23.000  32.070  12.568
 9589W        W77994   9.908  27.943   0.359
 9590W        W77995  32.593   8.757   1.012
 9591W        W77996  32.362  18.570   1.915
 9592W        W77997  44.268  19.618  13.284
 9593W        W77998   1.218   7.933   2.616
 9594W        W77999  38.006  38.801  11.960
 9595W        W78000  35.422  24.213   3.953
 9596W        W78001  24.679  44.124  14.764
 9597W        W78002  36.030  43.338   1.177
 9598W        W78003   9.761  17.136  13.755
 9599W        W78004   5.818  15.717   1.735
 9600W        W78005  20.770   0.019   4.503
 9601W        W78006  13.860  13.973   2.350
 9602W        W78007  40.211  36.335   0.290
 9603W        W78008  21.279  41.365  11.122
 9604W        W78009  27.434  18.376   5.062
 9605W        W78010   7.826  11.523   2.442
 9606W        W78011  14.278  10.837  12.774
 9607W        W78012   2.309   6.730   1.376
 9608W        W78013   6.957  44.523  14.280
 9609W        W78014  23.879   5.787   3.479
 9610W        W78015  23.598  43.396   4.796
 9611W        W78016  26.141   6.376   3.332
 9612W        W78017  38.986   8.291  11.997
 9613W        W78018  41.432   8.899  11.682
 9614W        W78019   9.161  25.186  13.604
 9615W        W78020  42.548  12.758   2.623
 9616W        W78021  40.409  30.159  11.601
 9617W        W78022  18.461  35.757   3.695
 9618W        W78023  21.022  11.795   1.236
 9619W        W78024  18.229  24.127   0.318
 9620W        W78025  19.757  40.051  12.376
 9621W        W78026  13.282   3.172  12.642
 9622W        W78027   0.466   5.703  11.205
 9623W        W78028   4.226  27.035  13.898
 9624W        W78029  24.040  36.375  10.737
 9625W        W78030  14.090  34.355   2.414
 9626W        W78031  38.448  40.201  14.013
 9627W        W78032   6.705  24.826  11.478
 9628W        W78033  23.599  28.905   2.971
 9629W        W78034  14.641  41.545  13.148
 9630W        W78035  11.578   2.617  10.206
 9631W        W78036   7.834  40.024  11.226
 9632W        W78037  17.819   8.295   0.049
 9633W        W78038  21.075   7.140  11.540
 9634W        W78039  17.491  21.246  12.598
 9635W        W78040  40.342  13.052  13.376
 9636W        W78041  43.296  17.723   3.055
 9637W        W78042   4.005   2.370  14.990
 9638W        W78043  23.966   9.287   0.445
 9639W        W78044   5.280  20.475   2.918
 9640W        W78045  14.386  41.414   0.941
 9641W        W78046   6.335  17.026  14.153
 9642W        W78047  16.777  16.327   0.152
 9643W        W78048  24.862  23.910  14.936
 9644W        W78049  40.553  39.048   2.091
 9645W        W78050  31.098  22.007  13.100
 9646W        W78051  18.050  40.016  12.204
 9647W        W78052  40.545  26.421   0.728
 9648W        W78053  27.700  11.213   3.617
 9649W        W78054   8.105  29.902  13.008
 9650W        W78055  14.207  39.406  12.646
 9651W        W78056   8.297  29.849   0.728
 9652W        W78057  35.882  38.856   2.181
 9653W        W78058  39.415  37.970  11.506
 9654W        W78059  18.137  43.892  10.922
 9655W        W78060  14.377  27.638   4.243
 9656W        W78061   0.970  37.424  13.333
 9657W        W78062  40.439  38.799   3.559
 9658W        W78063  15.761  23.967   3.176
 9659W        W78064  39.907  17.516  13.831
 9660W        W78065   7.612  23.539  10.727
 9661W        W78066  41.897  23.182  12.769
 9662W        W78067  37.890  37.835  14.469
 9663W        W78068  35.317  21.679   1.054
 9664W        W78069  29.955  44.964   2.201
 9665W        W78070  38.950  30.301  14.645
 9666W        W78071  26.077   9.870  13.063
 9667W        W78072  25.907  44.199   1.962
 9668W        W78073  21.123  15.860  13.943
 9669W        W78074  14.255  40.295   0.360
 9670W        W78075  25.100  17.295   0.508
 9671W        W78076   6.321  30.834   0.451
 9672W        W78077  15.173  27.598  11.224
 9673W        W78078  18.972  44.398   0.734
 9674W        W78079  21.141  16.757   4.365
 9675W        W78080  29.380  42.843  10.685
 9676W        W78081  17.969  21.394  12.051
 9677W        W78082  16.360  28.653  13.810
 9678W        W78083   4.151  15.040   0.707
 9679W        W78084   0.282  39.941  11.849
 9680W        W78085   9.163  42.355  10.806
 9681W        W78086   8.904  20.256  14.865
 9682W        W78087  32.836  39.882   0.175
 9683W        W78088   1.031  20.008   0.277
 9684W        W78089  31.109  40.878  14.415
 9685W        W78090  41.810  24.453   1.776
 9686W        W78091   4.601  25.113  10.046
 9687W        W78092   1.831   8.953   2.237
 9688W        W78093  40.743  23.726   1.747
 9689W        W78094  37.136   1.398  12.120
 9690W        W78095  39.959  27.259   2.362
 9691W        W78096  38.605  41.826   0.756
 9692W        W78097  38.683  37.951   3.588
 9693W        W78098  28.711  23.242   1.812
 9694W        W78099   7.120   2.042   2.181
 9695W        W78100  21.317  24.210  13.278
 9696W        W78101  44.785   2.125  12.547
 9697W        W78102   4.896   8.375  12.663
 9698W        W78103  29.912   9.629   1.322
 9699W        W78104   4.758  10.676  13.070
 9700W        W78105  25.736  31.999   0.553
 9701W        W78106  15.805  21.594  12.044
 9702W        W78107  23.708  28.394  12.002
 9703W        W78108  18.622  43.974  13.089
 9704W        W78109   7.676  25.944   2.252
 9705W        W78110  14.963   3.476   5.599
 9706W        W78111  19.634   3.066  14.841
 9707W        W78112   8.652  13.835  10.536
 9708W        W78113  21.086   2.280  11.497
 9709W        W78114  11.461  15.788  14.497
 9710W        W78115  34.984  15.380   1.245
 9711W        W78116  43.629  41.608  13.468
 9712W        W78117  35.069   2.033  10.643
 9713W        W78118  38.943  42.702  12.923
 9714W        W78119  34.452  11.279   4.525
 9715W        W78120   9.779  33.571  11.221
 9716W        W78121   9.386  33.872   1.841
 9717W        W78122   1.876   8.937  10.353
 9718W        W78123  40.971  26.261  14.915
 9719W        W78124  40.044  37.425   2.677
 9720W        W78125  15.115  14.859  12.491
 9721W        W78126  37.620  38.998  14.801
 9722W        W78127   8.673  42.660   3.708
 9723W        W78128  11.893  25.249   4.001
 9724W        W78129  27.536  40.068  11.346
 9725W        W78130  34.352  31.676  13.603
 9726W        W78131   7.199  18.062  12.635
 9727W        W78132  23.621  24.956  14.734
 9728W        W78133   3.852  35.877   2.446
 9729W        W78134  28.115  20.033   3.669
 9730W        W78135   4.081  30.463  11.394
 9731W        W78136  12.228  18.181   4.706
 9732W        W78137  39.301  36.289   0.413
 9733W        W78138   8.429  22.553  13.104
 9734W        W78139  36.795  41.127   2.769
 9735W        W78140  20.372  31.445   2.447
 9736W        W78141  20.308  12.355   3.154
 9737W        W78142  42.069  43.504   1.231
 9738W        W78143  39.079  16.378   2.080
 9739W        W78144   1.777  10.236  10.207
 9740W        W78145  14.508   2.487  11.119
 9741W        W78146  10.463   5.178   2.420
 9742W        W78147  23.887  16.464  10.217
 9743W        W78148   5.727   9.795   1.692
 9744W        W78149  35.484  26.974  13.075
 9745W        W78150  35.746  39.265   0.274
 9746W        W78151  15.510  31.581   2.560
 9747W        W78152  40.369  16.702   3.751
 9748W        W78153  33.037  39.654  12.607
 9749W        W78154   9.391  28.527   1.146
 9750W        W78155  26.571  18.514   2.859
 9751W        W78156  32.579   9.253   1.198
 9752W        W78157  14.509  14.075  13.991
 9753W        W78158   4.228  34.398   0.303
 9754W        W78159   6.250  14.314   4.533
 9755W        W78160  25.706  34.288   0.859
 9756W        W78161   6.686   2.497   0.558
 9757W        W78162  27.552  43.362  11.251
 9758W        W78163  21.536   7.784   1.145
 9759W        W78164  27.388   2.203  13.339
 9760W        W78165   5.639   0.989  11.912
 9761W        W78166   3.950  26.675   1.391
 9762W        W78167  14.327  20.704  12.806
 9763W        W78168   7.250  14.588  13.590
 9764W        W78169   8.244   3.447   0.259
 9765W        W78170  24.326  20.114   1.782
 9766W        W78171  11.334  42.448   4.378
 9767W        W78172  28.749  42.018  10.663
 9768W        W78173  21.531  38.886  14.791
 9769W        W78174  35.298  37.396   2.401
 9770W        W78175  32.883   8.633   0.080
 9771W        W78176  43.144  27.660  10.308
 9772W        W78177   1.177  27.735  10.673
 9773W        W78178  16.563  38.781   1.947
 9774W        W78179   1.062  26.522   1.589
 9775W        W78180  42.896  23.655   4.403
 9776W        W78181  26.529  24.559  13.729
 9777W        W78182  12.106  19.439   4.540
 9778W        W78183  15.610   9.862  13.444
 9779W        W78184  27.718   0.075  11.998
 9780W        W78185   0.047  35.604  13.344
 9781W        W78186  12.030  16.503   5.639
 9782W        W78187   6.747  38.610  11.496
 9783W        W78188  23.202   5.731   1.442
 9784W        W78189  25.200  42.665   2.598
 9785W        W78190  43.307   1.279  14.844
 9786W        W78191  31.185  18.476  14.867
 9787W        W78192  17.994  23.139  14.009
 9788W        W78193  40.322  27.108   1.050
 9789W        W78194  25.756  13.565  13.928
 9790W        W78195  19.308  28.370   3.360
 9791W        W78196  26.295  42.328  10.212
 9792W        W78197  26.234  42.893  13.958
 9793W        W78198  40.813  15.332  10.768
 9794W        W78199   3.434  12.082  13.708
 9795W        W78200  27.610  17.363   0.094
 9796W        W78201  37.448  23.733   4.286
 9797W        W78202  21.177   5.792   1.777
 9798W        W78203   7.199  14.248  13.216
 9799W        W78204  36.598  25.167   2.655
 9800W        W78205  27.981   5.464   4.256
 9801W        W78206  11.918  30.514  14.745
 9802W        W78207  26.418  40.435  13.024
 9803W        W78208  14.437  36.802   0.750
 9804W        W78209  20.014  16.356   0.297
 9805W        W78210  18.942  38.000  12.314
 9806W        W78211  22.726  35.405  12.041
 9807W        W78212  11.897  37.025   2.432
 9808W        W78213  31.357   0.089  12.648
 9809W        W78214   9.969  18.889   5.071
 9810W        W78215  12.946  32.341  14.871
 9811W        W78216  27.108   1.546  13.876
 9812W        W78217   3.480  44.183   0.035
 9813W        W78218  29.194   8.826  13.126
 9814W        W78219  20.408  21.410  10.436
 9815W        W78220  24.157  44.268   0.011
 9816W        W78221  27.181  19.200   4.751
 9817W        W78222  29.755  30.770  10.284
 9818W        W78223  17.304  11.201  12.601
 9819W        W78224  20.806   3.858  12.239
 9820W        W78225  15.964  12.356  11.239
 9821W        W78226  28.009  41.678  10.583
 9822W        W78227  39.040   4.468   4.472
 9823W        W78228  28.967  34.038  11.680
 9824W        W78229  38.837  14.626   3.580
 9825W        W78230  28.518  19.533   2.305
 9826W        W78231  22.195  31.287   1.303
 9827W        W78232  33.809  10.292  11.469
 9828W        W78233  30.546   1.285  11.265
 9829W        W78234  27.022  27.154   0.320
 9830W        W78235   8.225  38.882   3.500
 9831W        W78236  26.170  16.519   1.488
 9832W        W78237  31.888  26.605  12.692
 9833W        W78238  42.054   4.110  10.502
 9834W        W78239  19.080  17.869  14.717
 9835W        W78240  26.425  14.104   1.291
 9836W        W78241  23.703  33.923   0.898
 9837W        W78242  44.848  33.894  13.975
 9838W        W78243  30.514  20.598  10.729
 9839W        W78244  18.073  38.647  13.181
 9840W        W78245  28.026   7.518  12.993
 9841W        W78246  32.122  36.321  13.920
 9842W        W78247  33.489  41.603   3.730
 9843W        W78248   6.883  41.780  12.882
 9844W        W78249  18.140  43.746  13.438
 9845W        W78250  36.118  31.380  12.392
 9846W        W78251  43.477  42.660   0.899
 9847W        W78252  15.086  20.631  14.977
 9848W        W78253  23.261   7.340  14.501
 9849W        W78254   6.044  22.449  13.364
 9850W        W78255  18.012  15.749   1.556
 9851W        W78256  27.776  36.041  11.180
 9852W        W78257  31.720  42.304   2.759
 9853W        W78258   6.686  36.961   3.354
 9854W        W78259  39.337  11.113   0.071
 9855W        W78260  12.227   8.128  12.792
 9856W        W78261  36.094  23.536  11.052
 9857W        W78262  18.967   1.877  11.538
 9858W        W78263  33.573  10.477   2.376
 9859W        W78264  44.290  12.590   0.298
 9860W        W78265   8.622  43.096  13.558
 9861W        W78266  29.413  19.675  12.935
 9862W        W78267  41.837  26.189  14.912
 9863W        W78268  28.128  33.541  13.428
 9864W        W78269  14.668   9.240   5.533
 9865W        W78270  19.734  17.709   0.855
 9866W        W78271   2.681  41.802  13.962
 9867W        W78272   7.148   3.750  11.676
 9868W        W78273   7.343  10.709  11.228
 9869W        W78274  42.339  25.672  13.300
 9870W        W78275  34.930  26.176  10.689
 9871W        W78276  22.503  27.979  13.842
 9872W        W78277  22.105  16.033   4.382
 9873W        W78278  17.285  36.132   4.938
 9874W        W78279  40.042  36.372   2.843
 9875W        W78280  27.594   9.660   1.309
 9876W        W78281   7.276  42.315  10.523
 9877W        W78282  36.787   5.724  13.872
 9878W        W78283  43.845   3.983  14.915
 9879W        W78284  12.852  40.020   2.392
 9880W        W78285  26.742  31.740  11.622
 9881W        W78286  38.514  43.009  11.740
 9882W        W78287  36.004  30.240   4.102
 9883W        W78288  24.280   4.014  11.609
 9884W        W78289  27.874  43.353   1.978
 9885W        W78290  13.381  17.356  11.582
 9886W        W78291   8.832  17.602  12.443
 9887W        W78292   3.357  39.012  13.335
 9888W        W78293  37.004  17.968  12.387
 9889W        W78294  25.343  29.816  13.530
 9890W        W78295  32.374  14.258  13.829
 9891W        W78296  30.271  13.379   2.541
 9892W        W78297   9.929   8.392   0.787
 9893W        W78298  28.798  14.624  10.472
 9894W        W78299   6.256  27.567   4.150
 9895W        W78300  28.294   0.564  13.957
 9896W        W78301  44.124  17.199   0.336
 9897W        W78302   2.291   6.806   0.018
 9898W        W78303  29.570  38.356   1.252
 9899W        W78304  25.582  39.856   5.027
 9900W        W78305  14.085  29.979   4.511
 9901W        W78306  44.277  43.744  10.758
 9902W        W78307  18.713   2.321   0.021
 9903W        W78308  27.384  24.800   4.352
 9904W        W78309  32.760  35.416  10.520
 9905W        W78310  21.961   2.273  13.966
 9906W        W78311  34.816  44.899  12.115
 9907W        W78312  31.900  15.307   2.761
 9908W        W78313  24.064  24.677   4.949
 9909W        W78314  16.784   4.259  10.658
 9910W        W78315  24.716  28.708   1.329
 9911W        W78316  26.430  10.895   1.535
 9912W        W78317  31.049  22.831   0.839
 9913W        W78318  35.447  14.618   2.138
 9914W        W78319  36.154  43.849  14.536
 9915W        W78320   9.078  12.251   1.067
 9916W        W78321  34.975  23.019   0.391
 9917W        W78322  32.416   5.293  14.912
 9918W        W78323  13.791  36.440   3.788
 9919W        W78324  22.131  38.110   3.312
 9920W        W78325  21.009  36.489  13.788
 9921W        W78326  17.679  12.987  12.054
 9922W        W78327  34.974  24.518  11.641
 9923W        W78328  18.651   7.920   0.436
 9924W        W78329  43.765   0.896  12.207
 9925W        W78330   2.591  36.538  13.770
 9926W        W78331  10.250  21.624   2.272
 9927W        W78332  35.895   7.888  12.521
 9928W        W78333   4.893  25.227   1.651
 9929W        W78334   5.632   7.282  10.663
 9930W        W78335  39.378  17.226  14.504
 9931W        W78336  23.488  19.248  11.622
 9932W        W78337  18.724  19.276  11.639
 9933W        W78338   8.173   2.975   3.818
 9934W        W78339  14.323  37.389  14.041
 9935W        W78340   9.823   3.050  12.483
 9936W        W78341  30.380  38.470   3.850
 9937W        W78342  37.561  41.235  11.894
 9938W        W78343  13.213   4.838  10.560
 9939W        W78344   4.761   5.245  11.062
 9940W        W78345  31.011  44.741   2.709
 9941W        W78346  23.441   9.421  13.840
 9942W        W78347  26.968  37.843   0.862
 9943W        W78348  37.896  33.700  14.242
 9944W        W78349   7.084  20.262  10.554
 9945W        W78350  13.802   1.204   2.438
 9946W        W78351  14.294  24.131  14.944
 9947W        W78352  40.311  28.481   2.142
 9948W        W78353  36.344   7.070   3.248
 9949W        W78354  31.698  18.581  14.142
 9950W        W78355  23.920  40.439   4.284
 9951W        W78356  19.490   5.435   3.590
 9952W        W78357  36.935  27.375  14.727
 9953W        W78358  30.814  17.284   2.573
 9954W        W78359   8.391   4.705  12.997
 9955W        W78360  31.962  25.978   0.817
 9956W        W78361   4.919  21.305  14.950
 9957W        W78362  39.251   0.040  10.574
 9958W        W78363  41.823  17.813  13.466
 9959W        W78364  17.342  35.435   0.437
 9960W        W78365   5.955  30.523  13.967
 9961W        W78366  21.008  29.114  14.733
 9962W        W78367  14.171  23.460   1.213
 9963W        W78368   9.625  19.195   4.150
 9964W        W78369  15.661  20.803  13.192
 9965W        W78370  42.645  22.411  12.469
 9966W        W78371  32.263  32.822   2.281
 9967W        W78372  21.784  12.741  14.964
 9968W        W78373   6.428   6.794   1.440
 9969W        W78374  20.832   2.909  13.323
 9970W        W78375  18.710  20.069  12.101
 9971W        W78376  30.750  20.142  10.624
 9972W        W78377  17.882  24.074  12.858
 9973W        W78378  22.336  29.320  12.514
 9974W        W78379  24.179  29.866  14.511
 9975W        W78380   2.994  28.133   2.647
 9976W        W78381   0.049   4.729   1.270
 9977W        W78382  36.067  40.409  13.895
 9978W        W78383  21.850  26.477  10.822
 9979W        W78384  11.782   1.966   0.916
 9980W        W78385  28.962  28.689  14.897
 9981W        W78386  35.906   1.416   3.428
 9982W        W78387  29.510  44.623  13.941
 9983W        W78388  37.079  16.089  11.645
 9984W        W78389   8.050  34.868   0.888
 9985W        W78390   6.097  15.241   2.355
 9986W        W78391   4.999  19.515   2.748
 9987W        W78392  18.575   2.955  12.097
 9988W        W78393   1.775  11.413  14.951
 9989W        W78394  38.792  22.534   5.080
 9990W        W78395  28.575  33.719   3.317
 9991W        W78396  24.413  11.720   0.485
 9992W        W78397  41.478  28.938  13.438
 9993W        W78398  14.127  35.415   3.221
 9994W        W78399  13.825  17.708  11.149
 9995W        W78400  24.055  34.603  11.148
 9996W        W78401  29.084  27.134  12.847
 9997W        W78402  40.414   3.325   2.074
 9998W        W78403   9.482   8.155  12.603
 9999W        W78404  10.666  44.536  11.079
10000W        W78405   2.887  38.081   1.436
10001W        W78406  30.187  31.270   3.838
10002W        W78407  35.053  40.719   2.317
10003W        W78408  43.423  21.574  11.980
10004W        W78409   2.202  43.246   4.152
10005W        W78410  33.916  12.821   1.274
10006W        W78411  24.176  30.123   4.090
10007W        W78412  24.421  35.639  11.057
10008W        W78413  26.255   0.414  11.649
10009W        W78414   3.739  40.865  13.007
10010W        W78415  22.079   2.236   4.555
10011W        W78416  29.133  37.928   1.054
10012W        W78417  33.448  38.470   2.580
10013W        W78418   1.434  41.629  13.117
10014W        W78419  26.297  24.395   1.721
10015W        W78420   9.110   4.474   0.505
10016W        W78421  33.253  35.485   0.712
10017W        W78422  12.909  42.317   1.208
10018W        W78423  18.022  33.555   4.199
10019W        W78424  41.752  30.188  14.937
10020W        W78425  13.756  29.004  13.391
10021W        W78426  29.018  16.155   1.249
10022W        W78427  27.403  10.303  14.471
10023W        W78428  20.622   1.289   2.387
10024W        W78429  28.590   2.559   0.795
10025W        W78430  15.904  14.204  10.892
10026W        W78431  38.081  31.592   0.411
10027W        W78432   2.610  25.574  12.625
10028W        W78433  23.452  16.998  11.926
10029W        W78434  16.077  41.203   2.296
10030W        W78435  24.634   9.447  13.516
10031W        W78436  32.887  17.355   1.500
10032W        W78437  12.681   2.355   0.948
10033W        W78438  14.636  14.395   3.401
10034W        W78439  28.694  17.270   3.649
10035W        W78440  43.852  44.858  14.098
10036W        W78441   3.118  13.042   2.217
10037W        W78442  25.151  32.648  11.604
10038W        W78443  42.560  11.624  13.620
10039W        W78444  37.437  35.661   0.981
10040W        W78445  43.040  44.464   0.956
10041W        W78446  17.621  43.253  13.973
10042W        W78447  16.512   5.705  11.124
10043W        W78448   7.188  10.327  10.305
10044W        W78449  33.260  13.080   5.065
10045W        W78450  40.939  29.594  13.948
10046W        W78451  39.436   4.221  11.302
10047W        W78452  33.395  37.044   0.260
10048W        W78453   3.353   7.437   0.783
10049W        W78454  15.254   3.709   2.778
10050W        W78455  14.870  36.297  14.908
10051W        W78456  28.999  21.004   1.717
10052W        W78457  26.606  44.014   1.829
10053W        W78458  24.182  39.748  14.092
10054W        W78459  13.581  17.023   1.334
10055W        W78460  26.278  17.659   1.638
10056W        W78461  44.485  41.891  13.454
10057W        W78462  13.670  20.048   2.860
10058W        W78463  40.206  27.913  11.187
10059W        W78464  17.994  32.193  11.373
10060W        W78465  16.216   2.388   5.054
10061W        W78466  21.296  37.354  13.749
10062W        W78467  42.345  16.778  14.947
10063W        W78468  19.429  24.728  12.238
10064W        W78469   2.530  12.557  13.782
10065W        W78470  26.629  27.162   3.221
10066W        W78471   6.528   4.330   0.794
10067W        W78472  40.319  22.032  14.262
10068W        W78473  21.969   8.129   4.973
10069W        W78474  34.776   8.342  11.150
10070W        W78475  39.545  41.925  12.532
10071W        W78476  24.015  18.597  10.776
10072W        W78477  44.536   7.918   4.433
10073W        W78478  36.411   9.754   4.842
10074W        W78479  16.349  24.423   4.060
10075W        W78480  18.313   8.345   2.221
10076W        W78481  36.733  27.111   2.916
10077W        W78482   7.412  40.440   2.641
10078W        W78483   2.354  21.004   3.739
10079W        W78484  29.041  26.105   2.506
10080W        W78485  40.063  11.655  11.129
10081W        W78486   2.532   9.267  10.896
10082W        W78487  22.187  21.345   0.809
10083W        W78488  24.534  40.101   0.815
10084W        W78489   0.839   1.021   3.741
10085W        W78490   6.743  29.493  10.976
10086W        W78491  13.843  11.716  13.357
10087W        W78492  22.668  29.680   1.122
10088W        W78493  11.565  42.052   0.934
10089W        W78494   6.367  20.261  12.451
10090W        W78495  24.978   5.170  13.008
10091W        W78496  18.567  19.565  13.480
10092W        W78497   5.156   4.332  14.318
10093W        W78498   3.588  23.767  12.052
10094W        W78499  35.561  30.893   0.325
10095W        W78500  12.215  30.573   4.534
10096W        W78501  23.467  11.054   0.904
10097W        W78502   7.871  15.750   2.198
10098W        W78503  19.202  37.226  11.213
10099W        W78504   0.826   5.260   3.726
10100W        W78505  33.034  18.260   2.108
10101W        W78506  36.406   1.689   3.150
10102W        W78507   8.908  44.223  13.678
10103W        W78508  18.609  43.011  13.589
10104W        W78509  34.369  37.078   4.085
10105W        W78510  33.569   2.579   4.480
10106W        W78511  11.171   7.383  13.821
10107W        W78512  24.582  17.768   2.657
10108W        W78513  10.879  25.080   4.236
10109W        W78514   9.169  19.746   4.545
10110W        W78515  43.875  41.620   0.202
10111W        W78516  20.730  10.875   0.390
10112W        W78517  24.743  44.955   3.747
10113W        W78518  34.057  17.753  12.071
10114W        W78519  29.659  25.910  13.800
10115W        W78520  13.305  17.908  10.430
10116W        W78521  15.766  36.131  14.033
10117W        W78522  38.913  37.125   0.408
10118W        W78523   1.439  39.674   2.769
10119W        W78524   3.325  17.302  14.329
10120W        W78525  14.801  22.988   1.458
10121W        W78526  30.555  24.973   0.911
10122W        W78527  32.897   2.613   1.471
10123W        W78528   2.257   3.357  10.682
10124W        W78529   4.787   9.905   3.491
10125W        W78530  37.633  44.917   3.516
10126W        W78531  37.877   7.703  14.457
10127W        W78532   0.572   8.170   3.607
10128W        W78533  29.976  42.850  13.949
10129W        W78534  24.535   6.147  12.520
10130W        W78535  40.465  20.198   1.861
10131W        W78536   0.317  13.154   1.457
10132W        W78537  19.247  27.070   2.285
10133W        W78538  32.233  20.974  11.939
10134W        W78539   6.318  21.604   3.712
10135W        W78540  17.310  36.090  11.696
10136W        W78541  44.240  40.053   4.373
10137W        W78542  37.389  15.801  12.418
10138W        W78543   7.802  19.510  11.200
10139W        W78544  22.945  41.481   1.430
10140W        W78545   1.717  38.065  13.364
10141W        W78546  28.265  26.337   2.457
10142W        W78547  15.652   6.873   2.274
10143W        W78548  30.678  39.984   4.566
10144W        W78549  13.836  13.145  14.413
10145W        W78550  42.403  31.942   2.410
10146W        W78551   1.953   5.716  11.169
10147W        W78552   1.866  25.956  13.005
10148W        W78553  14.865  39.190   0.921
10149W        W78554   1.683  12.411   3.711
10150W        W78555  10.708  11.470  10.533
10151W        W78556   7.259  31.798   9.961
10152W        W78557  38.094  29.351  14.917
10153W        W78558  15.176   8.438   0.197
10154W        W78559  11.166  43.259   3.629
10155W        W78560  26.481   4.457  13.109
10156W        W78561  16.709  34.033  12.089
10157W        W78562  34.624  43.172   1.863
10158W        W78563  29.091  32.852  14.068
10159W        W78564  28.416  21.813  12.970
10160W        W78565  36.534  20.501   2.781
10161W        W78566  12.665  16.987   3.662
10162W        W78567   3.267   1.979  12.898
10163W        W78568  39.024   6.355  11.989
10164W        W78569  32.719  22.594   0.805
10165W        W78570  14.264  16.176   0.025
10166W        W78571   3.176  11.833   4.603
10167W        W78572  24.082  31.661  11.646
10168W        W78573  19.283  25.112  14.944
10169W        W78574  17.728  13.612   3.564
10170W        W78575  23.967  29.178  13.415
10171W        W78576  18.574  21.444  12.386
10172W        W78577  15.235  34.394   2.273
10173W        W78578  19.886   0.025  13.744
10174W        W78579  12.003  10.298   4.076
10175W        W78580  17.929   0.293  11.641
10176W        W78581  28.195   2.356  14.322
10177W        W78582  15.689  32.338  13.606
10178W        W78583  42.800  38.785   0.930
10179W        W78584  27.048  29.083   1.738
10180W        W78585   4.647  10.167   1.354
10181W        W78586   7.113  15.706   4.163
10182W        W78587  32.371  28.482   3.516
10183W        W78588  14.192  25.180   3.197
10184W        W78589  33.447  38.075   4.677
10185W        W78590  10.781   7.748   3.937
10186W        W78591  43.233  14.114  10.275
10187W        W78592   6.472  31.946   0.038
10188W        W78593  38.453  32.422   3.356
10189W        W78594   6.644  13.992  11.560
10190W        W78595   6.624  14.471  12.426
10191W        W78596  10.598  23.988  14.428
10192W        W78597  39.329   0.068   0.844
10193W        W78598  38.461  16.008  13.424
10194W        W78599   1.774  38.581  13.479
10195W        W78600  35.951  19.687   4.085
10196W        W78601  42.459  20.155  13.119
10197W        W78602  29.201  39.523   0.907
10198W        W78603  32.301  44.798  11.930
10199W        W78604  41.298  22.928   1.598
10200W        W78605  42.072  42.112  14.560
10201W        W78606  10.706  22.415  13.039
10202W        W78607  31.001  31.296  10.850
10203W        W78608  33.546  41.260   3.337
10204W        W78609  17.626   9.255   3.342
10205W        W78610  37.114  37.380  11.066
10206W        W78611  12.098  34.423   0.467
10207W        W78612  23.970  39.508  13.047
10208W        W78613  43.546   2.171  14.912
10209W        W78614   5.099  31.900   4.983
10210W        W78615  20.489  29.165  14.705
10211W        W78616  15.076   6.214   2.642
10212W        W78617  34.601   2.021   4.169
10213W        W78618  35.328  18.197   4.625
10214W        W78619   1.784  36.338   0.526
10215W        W78620  38.131  26.059  10.679
10216W        W78621  21.520  25.598  13.444
10217W        W78622  13.167  42.908  11.446
10218W        W78623  14.869   2.240   2.728
10219W        W78624  44.321  30.751  10.273
10220W        W78625  38.346  40.508   1.949
10221W        W78626  37.479  37.109  10.758
10222W        W78627  12.021  26.728   4.669
10223W        W78628  13.552  35.621   5.343
10224W        W78629   9.823  15.592  11.887
10225W        W78630  10.605  30.846  14.753
10226W        W78631  43.524  38.578   0.763
10227W        W78632  26.282  20.482  13.498
10228W        W78633  31.415  17.864  10.499
10229W        W78634  26.260  41.224  13.976
10230W        W78635  15.373   0.959   9.832
10231W        W78636  29.400  41.758   1.026
10232W        W78637  41.083  22.136  10.695
10233W        W78638  36.852  29.564   0.325
10234W        W78639  26.574  27.016  10.663
10235W        W78640  43.182  44.394  10.170
10236W        W78641  10.635  37.928  13.979
10237W        W78642   0.286  14.641  12.564
10238W        W78643   1.197  15.830  10.604
10239W        W78644  24.721  16.660   3.746
10240W        W78645  44.333  15.153  10.656
10241W        W78646  12.281  26.292   3.211
10242W        W78647  18.158  16.627  10.751
10243W        W78648  14.869  19.259   4.530
10244W        W78649   1.335  41.001   0.832
10245W        W78650   0.785  30.989  14.384
10246W        W78651  16.631  29.844   4.927
10247W        W78652  37.919  34.398  11.042
10248W        W78653  36.354  25.089  14.983
10249W        W78654  42.564  35.392   0.741
10250W        W78655   2.634  41.501   1.893
10251W        W78656  25.190   6.259   4.829
10252W        W78657  31.852  18.661   3.727
10253W        W78658  37.753  28.173  13.800
10254W        W78659  44.788   9.766  11.595
10255W        W78660   5.667  27.665   2.247
10256W        W78661  44.034  34.679   2.270
10257W        W78662   3.012  28.116   3.614
10258W        W78663  18.986   2.628   2.361
10259W        W78664  31.540  18.357  10.565
10260W        W78665  32.848  39.456   1.356
10261W        W78666   4.317   2.487   0.957
10262W        W78667  21.029   0.396  13.388
10263W        W78668  22.554   9.915   4.213
10264W        W78669  18.583  19.164   1.031
10265W        W78670  42.045   2.426   2.079
10266W        W78671  10.496  36.423   4.215
10267W        W78672   0.487  28.311  14.743
10268W        W78673  44.311  42.509  12.104
10269W        W78674   0.755  20.773  10.496
10270W        W78675  16.116  10.312  11.855
10271W        W78676  30.453  20.771  14.489
10272W        W78677  18.260  15.242   4.661
10273W        W78678  33.318   1.935   0.704
10274W        W78679  40.126  42.154   0.291
10275W        W78680   4.231  15.732   2.337
10276W        W78681  27.524   0.230   2.209
10277W        W78682   3.825  32.166  11.687
10278W        W78683  37.069  44.261   4.062
10279W        W78684  34.156  31.031  11.997
10280W        W78685  31.940  35.055  13.375
10281W        W78686  37.825  35.607   1.930
10282W        W78687  42.889  38.556  13.564
10283W        W78688  17.397  13.296   0.781
10284W        W78689  41.480  30.029   1.254
10285W        W78690  10.632  39.465   2.692
10286W        W78691  11.820  14.058  11.496
10287W        W78692  32.097  38.209   1.976
10288W        W78693  27.556  39.883   0.968
10289W        W78694  35.049  15.747  14.335
10290W        W78695  16.444  35.750  11.502
10291W        W78696  33.612  22.323   0.946
10292W        W78697  40.920  33.640   1.494
10293W        W78698  19.682  13.339   4.493
10294W        W78699  10.121   3.715   1.360
10295W        W78700   6.891  10.621  13.316
10296W        W78701  42.386   9.755   0.971
10297W        W78702  39.871  42.960  14.964
10298W        W78703  27.054  34.605   1.932
10299W        W78704  41.168  10.796  12.887
10300W        W78705  12.768  14.344   1.735
10301W        W78706  19.544  26.999   1.652
10302W        W78707   5.028  24.086  11.982
10303W        W78708  44.427  12.875  10.367
10304W        W78709   2.306  38.832   4.666
10305W        W78710  10.905  29.642  11.232
10306W        W78711  39.527  26.163   3.419
10307W        W78712  10.686   2.322  13.957
10308W        W78713  11.854  37.628  11.197
10309W        W78714  23.637  42.478  13.329
10310W        W78715  28.928  20.408  13.939
10311W        W78716  13.248  44.827   1.478
10312W        W78717  27.677   5.554   3.559
10313W        W78718  35.990  14.626   4.382
10314W        W78719   1.704  14.111  12.142
10315W        W78720   4.281  32.800  12.887
10316W        W78721  18.322  11.214   1.713
10317W        W78722  37.378  42.058   1.390
10318W        W78723  41.393  10.402  11.493
10319W        W78724   3.274  30.162  14.083
10320W        W78725  14.664   8.937   2.830
10321W        W78726  38.919  42.269   0.786
10322W        W78727  25.902  21.080  14.499
10323W        W78728   4.191  43.517   0.368
10324W        W78729  13.619  44.469   1.282
10325W        W78730  14.563  27.574   1.252
10326W        W78731  12.781  12.651   1.763
10327W        W78732  22.527   7.372  13.375
10328W        W78733  30.619   1.983  14.474
10329W        W78734  30.683  19.242   4.541
10330W        W78735  41.887  19.622  11.636
10331W        W78736  28.531  18.780   5.371
10332W        W78737  13.683  29.581   2.590
10333W        W78738  42.403  14.303  14.608
10334W        W78739  13.691  41.211  12.967
10335W        W78740  37.617  13.323   1.059
10336W        W78741   5.906  17.145  13.402
10337W        W78742  42.475  37.426  12.943
10338W        W78743  14.131  11.828   0.763
10339W        W78744  40.629  23.015   1.297
10340W        W78745  44.512  22.586   3.879
10341W        W78746  11.373  26.961   1.779
10342W        W78747  26.728  34.074  13.332
10343W        W78748  18.645  28.639  11.915
10344W        W78749   9.141  14.665   0.393
10345W        W78750   8.365  43.934   1.613
10346W        W78751   6.251  44.730   1.423
10347W        W78752  26.453  44.517   1.797
10348W        W78753  18.496  19.510   4.129
10349W        W78754   1.722  21.219  14.455
10350W        W78755   1.007   2.051   2.613
10351W        W78756  16.046   8.748   1.498
10352W        W78757  16.566  27.022   3.636
10353W        W78758  22.539  31.090   0.209
10354W        W78759  30.087  20.576  10.442
10355W        W78760  18.230  25.143   4.718
10356W        W78761  21.252  31.665   2.407
10357W        W78762  36.539  35.299   3.458
10358W        W78763  11.919  42.996   2.467
10359W        W78764  25.081  17.852  14.781
10360W        W78765  35.380  19.491  12.825
10361W        W78766  15.943   0.383   1.261
10362W        W78767  14.873  10.672   0.886
10363W        W78768  43.483  14.443   1.308
10364W        W78769  15.065  28.928   0.682
10365W        W78770   0.779  10.923   3.264
10366W        W78771  43.605  38.778  10.691
10367W        W78772   0.316  11.728   4.711
10368W        W78773  32.515  18.326   4.421
10369W        W78774  31.851  40.945   1.253
10370W        W78775  26.932  26.903  14.821
10371W        W78776   0.931  33.117   2.275
10372W        W78777  35.298  43.443  11.099
10373W        W78778  11.083  17.801  10.599
10374W        W78779  28.145  33.862   0.344
10375W        W78780  30.525  23.008  12.657
10376W        W78781   3.673  43.469   0.366
10377W        W78782  43.101   6.946   2.287
10378W        W78783   7.145   5.872   0.809
10379W        W78784  25.188   5.073   2.681
10380W        W78785  20.156   2.034  10.800
10381W        W78786  29.374  13.757   4.309
10382W        W78787   1.612  35.658  12.170
10383W        W78788  25.635  27.967  12.172
10384W        W78789  25.195  11.213  12.079
10385W        W78790   0.724  21.043   1.797
10386W        W78791  19.125   6.393  14.763
10387W        W78792   0.087  39.925   1.784
10388W        W78793  16.225  40.467   3.927
10389W        W78794   0.383   0.182  13.476
10390W        W78795  38.833  17.772  14.296
10391W        W78796   6.151  24.683   4.223
10392W        W78797  14.866  13.520  12.614
10393W        W78798  23.560  26.562  12.382
10394W        W78799  35.122   3.925   3.940
10395W        W78800  41.752  36.573   4.341
10396W        W78801  36.095   0.404  12.630
10397W        W78802  29.723  17.818  13.005
10398W        W78803  42.384  12.717  12.054
10399W        W78804  30.896  19.223  10.635
10400W        W78805  27.040  36.611  12.503
10401W        W78806  10.471  14.222   4.236
10402W        W78807  16.728  37.954  13.064
10403W        W78808  22.132  31.748  10.283
10404W        W78809   4.321  44.736  12.180
10405W        W78810  16.597  44.904   0.232
10406W        W78811  23.675  26.916   4.166
10407W        W78812  44.036  36.432  14.904
10408W        W78813  30.414  32.478   1.407
10409W        W78814  44.952  29.395  12.351
10410W        W78815   5.837  10.334   0.483
10411W        W78816   4.649  16.328   1.599
10412W        W78817  21.233  37.428   1.331
10413W        W78818  10.212   9.952   2.554
10414W        W78819   8.846  33.271   1.413
10415W        W78820  12.105  43.759   4.412
10416W        W78821  43.484  37.840   4.244
10417W        W78822  18.265   8.798  13.942
10418W        W78823  13.709  36.173   3.051
10419W        W78824   1.281  32.209   1.329
10420W        W78825   7.961  40.164  12.977
10421W        W78826  36.428  14.937   1.820
10422W        W78827  32.812  39.392  14.975
10423W        W78828  25.727   3.250   1.732
10424W        W78829  36.578  33.839  12.876
10425W        W78830  29.517  36.305  14.807
10426W        W78831  39.244  29.940   1.678
10427W        W78832  11.385  19.060  11.024
10428W        W78833   4.406  14.850  12.455
10429W        W78834   7.341  41.958  14.668
10430W        W78835  23.498   8.755  10.620
10431W        W78836   9.872  17.605   5.329
10432W        W78837  13.176  21.221  10.103
10433W        W78838   2.464   4.224  13.460
10434W        W78839  27.210  28.262  12.064
10435W        W78840  24.089   4.610   3.985
10436W        W78841  15.459   0.936   0.572
10437W        W78842  33.454  14.597  10.473
10438W        W78843  44.810   1.058   0.013
10439W        W78844  38.885  27.601  12.627
10440W        W78845  30.847   5.992   0.884
10441W        W78846  32.977  30.244  13.009
10442W        W78847  32.541  21.466   4.654
10443W        W78848  36.164  15.987   4.726
10444W        W78849  20.751  33.805   1.101
10445W        W78850  19.019  27.044   0.238
10446W        W78851  12.439  30.556   4.067
10447W        W78852   0.960  42.916   2.929
10448W        W78853   4.465   6.937  14.010
10449W        W78854  31.885  42.335  14.090
10450W        W78855  10.991   6.410   3.754
10451W        W78856  40.713   1.881  14.284
10452W        W78857  28.253  14.110  11.670
10453W        W78858   1.096  44.552   2.756
10454W        W78859   4.757   5.759   3.213
10455W        W78860  40.209  26.588   4.852
10456W        W78861  13.022   0.958  12.480
10457W        W78862  25.787   6.927   5.010
10458W        W78863   0.299  39.814  13.637
10459W        W78864  40.809  18.523  14.984
10460W        W78865   6.102   5.226  11.440
10461W        W78866  15.223  22.484  10.782
10462W        W78867  13.105  19.708  13.048
10463W        W78868  29.561  28.714   4.597
10464W        W78869   5.289  15.111   3.616
10465W        W78870  11.651  12.579  13.621
10466W        W78871  10.406  35.073  12.655
10467W        W78872  33.621  25.288   1.314
10468W        W78873  17.126  12.792   1.457
10469W        W78874  17.485  36.105   3.898
10470W        W78875  15.873  43.031   1.072
10471W        W78876  25.104  44.909   1.247
10472W        W78877   4.306  24.967  13.865
10473W        W78878  16.269  37.166  13.137
10474W        W78879  14.194  34.505  14.950
10475W        W78880  14.520  30.526  10.261
10476W        W78881  21.559   3.771   2.750
10477W        W78882  37.599   2.482   0.848
10478W        W78883  38.781  30.613   2.233
10479W        W78884  21.149  31.542   2.896
10480W        W78885  43.514   2.945  11.552
10481W        W78886  35.910  32.947  12.467
10482W        W78887   4.289   3.727   0.359
10483W        W78888  16.785  27.953   3.728
10484W        W78889   0.328  33.050  11.499
10485W        W78890   6.447  29.754  11.939
10486W        W78891  18.974  28.664  10.689
10487W        W78892  38.014   8.065  11.630
10488W        W78893  21.628  15.172   0.567
10489W        W78894  37.938  15.419  13.948
10490W        W78895   9.490  43.406   4.216
10491W        W78896  26.166  14.248  11.151
10492W        W78897   9.605  43.337   3.317
10493W        W78898  18.488   9.077  14.809
10494W        W78899  36.462   8.749   2.527
10495W        W78900   8.834  24.824   0.751
10496W        W78901  20.309  36.286  11.542
10497W        W78902  10.290  31.448  11.542
10498W        W78903  39.007  42.284   3.657
10499W        W78904  18.654  36.905  13.058
10500W        W78905  12.866   9.642   4.845
10501W        W78906  39.251  26.555   5.056
10502W        W78907   1.598  37.029  12.233
10503W        W78908  16.052  41.793  13.147
10504W        W78909  37.905  28.123  14.689
10505W        W78910  23.908  20.473   0.766
10506W        W78911  42.960  25.478  11.186
10507W        W78912  16.695  33.843  13.057
10508W        W78913  33.256   7.357   4.965
10509W        W78914   8.448  41.895   4.695
10510W        W78915  17.602  23.657  11.905
10511W        W78916  16.863  22.170  12.572
10512W        W78917  19.074   7.912  14.783
10513W        W78918  13.671  14.374  11.490
10514W        W78919   1.572  10.576   1.813
10515W        W78920  13.308  39.833  14.009
10516W        W78921  14.325  17.084   3.615
10517W        W78922   9.843   3.280  11.088
10518W        W78923  15.759  11.251  14.861
10519W        W78924  43.803  24.082  14.784
10520W        W78925  38.664  42.953   2.978
10521W        W78926  21.659  22.106  11.166
10522W        W78927  27.169  36.686  11.128
10523W        W78928   1.096   6.974   2.929
10524W        W78929  35.492  21.110  12.981
10525W        W78930  39.339  23.367  10.377
10526W        W78931  11.291  19.904   1.348
10527W        W78932  17.930   3.935   0.455
10528W        W78933  12.306   8.285   3.082
10529W        W78934  20.936  20.200  13.843
10530W        W78935  24.614  38.505   1.318
10531W        W78936  28.192   9.586  14.834
10532W        W78937  30.591  33.390   4.406
10533W        W78938  15.922  37.501  14.041
10534W        W78939  25.599   5.281  13.364
10535W        W78940   7.629  24.286   1.257
10536W        W78941   4.195   9.465   3.428
10537W        W78942  31.590   9.206   4.924
10538W        W78943  10.247  13.356   3.804
10539W        W78944  12.722   4.181  10.256
10540W        W78945   5.967   2.840  14.367
10541W        W78946  22.973  25.707  14.768
10542W        W78947  32.400  15.270   2.643
10543W        W78948  37.780  32.035   1.435
10544W        W78949  14.741  24.118   1.922
10545W        W78950  37.766   6.903  11.064
10546W        W78951  43.190  23.792   2.145
10547W        W78952  35.706  42.402  14.949
10548W        W78953   4.818   8.253  10.350
10549W        W78954  13.301  14.236   4.225
10550W        W78955  22.647  31.370   3.179
10551W        W78956  37.397   8.231   4.150
10552W        W78957  36.444   2.396   4.293
10553W        W78958  27.936  15.938  14.329
10554W        W78959  43.337  21.137   9.801
10555W        W78960   5.824  40.210  11.593
10556W        W78961  17.685   9.636  11.205
10557W        W78962  18.210  23.489   0.955
10558W        W78963  41.340  18.131  11.608
10559W        W78964   0.833  21.511  10.926
10560W        W78965  25.349   7.878   2.699
10561W        W78966  27.112  30.502   1.326
10562W        W78967   4.749   7.974  11.861
10563W        W78968  16.077   8.940   4.535
10564W        W78969   9.733  19.150   3.231
10565W        W78970  12.379  44.321   1.290
10566W        W78971  33.578  27.238  13.365
10567W        W78972   7.363  27.475   1.927
10568W        W78973  22.476  21.678   1.137
10569W        W78974  27.386  34.615   3.821
10570W        W78975  13.089  22.414  14.384
10571W        W78976  16.163  40.728   1.332
10572W        W78977   6.621  31.671   2.774
10573W        W78978  17.446  26.236   4.267
10574W        W78979  33.588  26.901   3.192
10575W        W78980   3.876   9.641   2.648
10576W        W78981   1.248  13.078  14.364
10577W        W78982  28.855  43.241  13.993
10578W        W78983  33.474   6.941   1.627
10579W        W78984  15.853  43.996  12.973
10580W        W78985  14.735  44.481  10.650
10581W        W78986  41.792  32.641   0.714
10582W        W78987  30.791  16.051  10.619
10583W        W78988  18.778   9.766  14.298
10584W        W78989  26.497  27.124  13.497
10585W        W78990   6.248  21.857  11.470
10586W        W78991  13.913   7.799   4.735
10587W        W78992  26.552   2.963   1.397
10588W        W78993  21.317  38.556  14.447
10589W        W78994   1.473  20.154  10.577
10590W        W78995  18.030  22.824   3.759
10591W        W78996  20.551  28.891   1.891
10592W        W78997  27.880   5.400  10.559
10593W        W78998  37.790  21.156  14.879
10594W        W78999  22.501   9.711   3.747
10595W        W79000   3.536  44.702  13.707
10596W        W79001  17.604  11.634  14.004
10597W        W79002  36.162   6.974  14.885
10598W        W79003  24.028  34.995   3.425
10599W        W79004   4.019  17.829  14.874
10600W        W79005   8.103  41.248   1.327
10601W        W79006  34.870  26.657  14.390
10602W        W79007  15.345  30.507  12.660
10603W        W79008   9.450  27.961   3.770
10604W        W79009  16.849  23.676   2.331
10605W        W79010  26.181  16.344  11.144
10606W        W79011   9.108  16.540   4.449
10607W        W79012  11.362   6.051   1.355
10608W        W79013  43.071  35.938   1.246
10609W        W79014   2.318   3.285   0.021
10610W        W79015  41.025  31.462   1.464
10611W        W79016   3.383  33.559   3.332
10612W        W79017  20.541   7.770  10.402
10613W        W79018   0.813  33.315  11.469
10614W        W79019   5.745  42.753   1.601
10615W        W79020   7.596  28.608  13.904
10616W        W79021  17.240  10.579   3.071
10617W        W79022   3.212  44.591  13.298
10618W        W79023  17.210   8.352  12.620
10619W        W79024  38.052   3.806   1.490
10620W        W79025  40.757  31.124  11.452
10621W        W79026   4.789  17.738   1.053
10622W        W79027  43.035  21.535   2.337
10623W        W79028  15.869  41.215  11.218
10624W        W79029  28.631  33.724  12.208
10625W        W79030  15.772   1.286   0.778
10626W        W79031  13.798   3.897  13.780
10627W        W79032   6.736  40.031  12.016
10628W        W79033   7.926   9.789  14.439
10629W        W79034  42.248  24.718   1.831
10630W        W79035  23.042  15.178   0.380
10631W        W79036  44.459  43.218  11.542
10632W        W79037  25.090   3.804  14.847
10633W        W79038  13.002  44.553   1.900
10634W        W79039   3.337  33.057   3.427
10635W        W79040   9.673  40.022   4.580
10636W        W79041  24.469  19.839   2.704
10637W        W79042  37.489  43.763   1.866
10638W        W79043   6.239  29.936  13.287
10639W        W79044  31.340  39.961   1.478
10640W        W79045   3.167   4.353   1.861
10641W        W79046   8.221  43.426  13.423
10642W        W79047   7.079  15.331  14.552
10643W        W79048  10.786  20.558   4.432
10644W        W79049  38.207   8.865   1.259
10645W        W79050  19.542  44.268  11.457
10646W        W79051  29.496  13.710  12.324
10647W        W79052   5.407  36.098   4.478
10648W        W79053   2.145  17.102  14.865
10649W        W79054  34.592  38.957  14.772
10650W        W79055  33.577  34.839  14.964
10651W        W79056  15.142  18.451   0.889
10652W        W79057  31.791   8.207  14.237
10653W        W79058  19.243  41.994   4.562
10654W        W79059  43.015  31.846   1.838
10655W        W79060  41.505  18.061  13.108
10656W        W79061   0.342   4.754   2.861
10657W        W79062  12.811   9.709   0.436
10658W        W79063   8.807   4.469   3.377
10659W        W79064  19.169  30.691  13.456
10660W        W79065  44.248  22.612  12.807
10661W        W79066  40.498  12.343  13.115
10662W        W79067  32.634  29.389  11.961
10663W        W79068  13.766  14.743   4.374
10664W        W79069  33.106  15.198  13.827
10665W        W79070   0.066  35.077   0.844
10666W        W79071   8.235   6.805   0.893
10667W        W79072  11.927  38.219   1.756
10668W        W79073  13.447  10.866   3.643
10669W        W79074   6.255  24.730  14.483
10670W        W79075  28.010  43.416  13.005
10671W        W79076  30.731   5.842  11.842
10672W        W79077  44.570  32.534   4.518
10673W        W79078   8.745  37.501   2.815
10674W        W79079  44.725   9.730  10.210
10675W        W79080   2.501  36.570  11.520
10676W        W79081  20.153  33.340   4.264
10677W        W79082   1.142   2.652   3.872
10678W        W79083  27.661  20.068   2.817
10679W        W79084  28.202   9.816  10.591
10680W        W79085  28.902  22.332   0.766
10681W        W79086   4.147  14.214  11.051
10682W        W79087   1.785   8.761  11.240
10683W        W79088  35.827  37.321   2.327
10684W        W79089   3.778  21.742  12.327
10685W        W79090  12.663  36.018   2.092
10686W        W79091  36.527  13.773   3.911
10687W        W79092   9.419   0.976  14.975
10688W        W79093  17.501  14.065  12.785
10689W        W79094   3.464   1.330   2.828
10690W        W79095  27.162  23.930   0.414
10691W        W79096   1.473  24.063  11.611
10692W        W79097  34.315  21.300  14.687
10693W        W79098  42.427  35.015  11.222
10694W        W79099  39.250  16.774   2.582
10695W        W79100  33.640  44.420  13.773
10696W        W79101  20.683   1.158  13.982
10697W        W79102  13.151  39.497  11.135
10698W        W79103  35.136   3.976  13.008
10699W        W79104  28.073  38.392   2.399
10700W        W79105  12.894  18.567  11.953
10701W        W79106  36.684   3.904   3.303
10702W        W79107  16.810   7.715  13.109
10703W        W79108  20.044  22.944   4.092
10704W        W79109  11.347  33.355   4.501
10705W        W79110  38.959   1.985   3.789
10706W        W79111  38.916  11.578  12.180
10707W        W79112  35.984  16.088  11.585
10708W        W79113  28.469  25.502   0.635
10709W        W79114  27.894  26.478  10.947
10710W        W79115  39.340  40.583   3.186
10711W        W79116  25.925  33.843   4.639
10712W        W79117   5.965  22.614   3.690
10713W        W79118   5.011  22.764  13.306
10714W        W79119  33.821  32.032   4.583
10715W        W79120  40.975  17.195   2.716
10716W        W79121  12.841  11.434   4.152
10717W        W79122  41.941  43.844  11.311
10718W        W79123  11.792   8.849   4.575
10719W        W79124   4.741  42.237  12.120
10720W        W79125  36.805  35.057   3.883
10721W        W79126  23.390  31.402   1.169
10722W        W79127  25.487   2.365   1.668
10723W        W79128   9.263  29.462   0.906
10724W        W79129  33.861  14.942   4.055
10725W        W79130  34.502  39.368  14.453
10726W        W79131   8.407  31.798   1.629
10727W        W79132  38.907  31.323  11.640
10728W        W79133   8.860  22.207   4.189
10729W        W79134  18.086  28.088   2.151
10730W        W79135  38.508  29.285  11.905
10731W        W79136  38.252  10.420  13.496
10732W        W79137  42.200  20.640   0.383
10733W        W79138  31.115   7.828   4.688
10734W        W79139  10.291  41.815   1.685
10735W        W79140  43.919  36.897  10.656
10736W        W79141  31.893  37.037  11.630
10737W        W79142  11.536  33.904  11.237
10738W        W79143  29.775  43.804  11.497
10739W        W79144  44.967   9.779   1.205
10740W        W79145  12.827  18.042   4.579
10741W        W79146  20.594  31.400  11.269
10742W        W79147   0.451   8.746  14.021
10743W        W79148  39.089  38.793   3.838
10744W        W79149  17.780  22.293   4.007
10745W        W79150  28.466   3.327   0.263
10746W        W79151  26.131  11.749   3.315
10747W        W79152  19.741   7.204   4.543
10748W        W79153  31.419  31.550  11.517
10749W        W79154  29.120   1.027   4.530
10750W        W79155   5.855  31.164   4.665
10751W        W79156  22.777  14.070   4.068
10752W        W79157  38.097  25.930   2.997
10753W        W79158  28.913  22.721  14.502
10754W        W79159  21.550   7.098  11.690
10755W        W79160  39.896  16.616  11.529
10756W        W79161  16.525  10.885   0.355
10757W        W79162  38.772   6.488   9.972
10758W        W79163  13.057  26.119  10.689
10759W        W79164  39.942  12.702   3.881
10760W        W79165  36.133  23.101  10.731
10761W        W79166   7.360   0.030  13.481
10762W        W79167  28.956   8.307   0.065
10763W        W79168  20.061   2.325   4.122
10764W        W79169  10.323   3.512  12.148
10765W        W79170  43.202   2.813  11.161
10766W        W79171   3.538   5.819   3.657
10767W        W79172  24.541  25.674  11.663
10768W        W79173  24.204  20.717   2.891
10769W        W79174  13.213  16.394  13.308
10770W        W79175  22.905  40.330  11.085
10771W        W79176  25.402  38.484   4.127
10772W        W79177  10.462  36.534   4.721
10773W        W79178  13.386  30.838  14.755
10774W        W79179  34.150  14.482  13.818
10775W        W79180  44.339  34.133  13.897
10776W        W79181  17.016   4.661   1.870
10777W        W79182  26.111  15.524   2.463
10778W        W79183  23.228  18.619   4.446
10779W        W79184   3.745  19.284   4.810
10780W        W79185  32.676   1.682   1.464
10781W        W79186  31.455  40.583   3.238
10782W        W79187  26.991   4.141   2.734
10783W        W79188  17.439  41.168  12.981
10784W        W79189  26.048  33.144   1.040
10785W        W79190  42.524  29.655  14.577
10786W        W79191  35.688   7.701  12.972
10787W        W79192  34.217  38.766  13.805
10788W        W79193  35.286  16.195  12.855
10789W        W79194  11.048  40.907   3.211
10790W        W79195  36.422   4.508  12.926
10791W        W79196   3.995   9.882  11.303
10792W        W79197  44.217  26.193   2.411
10793W        W79198  34.021  19.509  13.962
10794W        W79199  19.703  36.095   2.911
10795W        W79200  24.530   1.376  12.154
10796W        W79201  25.074  22.098  11.741
10797W        W79202   8.304  22.520   0.727
10798W        W79203  42.103  36.276   4.117
10799W        W79204  41.036   3.211  10.683
10800W        W79205   3.713  40.189  10.950
10801W        W79206  42.513  10.585   2.447
10802W        W79207  18.012   4.172   0.908
10803W        W79208  34.573  12.602   2.283
10804W        W79209  39.551  17.316   3.331
10805W        W79210  13.537  30.368  10.236
10806W        W79211   8.385  31.367  11.392
10807W        W79212  19.594  35.874   1.917
10808W        W79213  11.866   8.878   3.553
10809W        W79214  20.211  38.336  12.254
10810W        W79215   1.798  19.201  11.578
10811W        W79216  15.753  42.939   4.142
10812W        W79217  36.837  26.612   4.626
10813W        W79218  13.512  44.900  12.901
10814W        W79219  22.179  41.263   2.832
10815W        W79220  23.907  28.658  10.880
10816W        W79221  28.942   0.837  12.244
10817W        W79222  33.936  12.574  13.354
10818W        W79223  43.863  24.322   1.818
10819W        W79224  36.068  27.055   1.756
10820W        W79225  38.344  26.584   0.423
10821W        W79226  11.055  38.520   1.202
10822W        W79227  24.686  12.761   4.145
10823W        W79228   6.417  35.427  12.103
10824W        W79229  18.712  19.455  10.591
10825W        W79230  28.368   6.952  14.986
10826W        W79231  36.784  38.088  13.499
10827W        W79232  25.570  27.917   2.475
10828W        W79233  23.427  37.094   3.394
10829W        W79234  24.011  19.331  13.441
10830W        W79235   1.123  42.902   2.099
10831W        W79236  18.188  44.477  12.566
10832W        W79237  42.839  40.860   4.753
10833W        W79238   2.089  39.830  11.472
10834W        W79239  24.004  23.076   1.753
10835W        W79240  20.840  29.050   4.321
10836W        W79241  13.335  15.752   4.801
10837W        W79242  41.786  27.259  13.936
10838W        W79243  37.030   3.769  11.393
10839W        W79244  28.748  39.858  11.098
10840W        W79245  19.060  26.885  11.549
10841W        W79246  14.257  26.072   4.643
10842W        W79247   5.333  42.852  14.853
10843W        W79248  15.700  15.788   2.317
10844W        W79249  41.051   7.156  11.336
10845W        W79250  12.566  25.237  12.055
10846W        W79251  29.534   1.739   3.706
10847W        W79252  12.335  42.551   0.151
10848W        W79253  31.062  19.954   0.870
10849W        W79254   6.355  18.111   3.798
10850W        W79255  27.419  26.665  14.285
10851W        W79256  14.456  27.400  11.088
10852W        W79257  24.676  43.173   3.386
10853W        W79258  15.706  35.072   5.409
10854W        W79259  37.206   7.172  10.291
10855W        W79260  37.803   3.189   5.141
10856W        W79261  34.954  30.355   1.364
10857W        W79262  38.365  39.887   4.482
10858W        W79263  21.488  30.620   3.783
10859W        W79264  26.722  15.270   1.339
10860W        W79265  39.848   4.375  13.566
10861W        W79266  13.835  37.514   0.411
10862W        W79267  25.945  36.104  12.370
10863W        W79268  20.717  34.513   2.824
10864W        W79269  10.798   3.020  13.348
10865W        W79270  14.286  20.052   3.521
10866W        W79271  30.989  24.204   4.197
10867W        W79272  23.534  17.022  11.406
10868W        W79273  23.785  32.116   2.317
10869W        W79274  37.818  28.912  14.887
10870W        W79275  39.961  22.278  14.529
10871W        W79276  18.974  24.052  14.720
10872W        W79277   5.649   5.155  14.351
10873W        W79278  15.150  11.683  13.329
10874W        W79279  32.860  27.523   2.819
10875W        W79280  29.629   9.189  11.611
10876W        W79281  34.797  33.523  11.548
10877W        W79282  37.149  16.465   0.829
10878W        W79283  39.846  34.591  12.954
10879W        W79284  17.060   5.180  10.194
10880W        W79285  24.279  21.241   4.638
10881W        W79286  16.254   0.098  11.647
10882W        W79287  11.593  19.065   1.268
10883W        W79288  43.271   2.505  10.748
10884W        W79289  36.466   1.557  12.514
10885W        W79290  43.008  16.232  14.727
10886W        W79291  11.633  20.175   3.007
10887W        W79292  19.342   6.398  11.579
10888W        W79293  25.505  41.147  14.515
10889W        W79294   3.905  30.037  12.838
10890W        W79295  10.200   7.753  13.976
10891W        W79296   1.229  42.426  11.959
10892W        W79297   8.646   5.427   1.247
10893W        W79298  40.468  19.357  13.726
10894W        W79299  44.109  23.744  12.499
10895W        W79300  32.343  33.602   4.156
10896W        W79301  38.199  14.330  12.371
10897W        W79302  33.448  12.834  11.720
10898W        W79303  37.120  22.048   3.601
10899W        W79304  12.543  10.428  14.822
10900W        W79305   9.023  14.538  14.041
10901W        W79306  18.650  16.528  13.435
10902W        W79307   1.963  30.426  12.133
10903W        W79308  22.584  26.211  11.995
10904W        W79309  22.033  10.786   1.368
10905W        W79310   0.176  44.687  12.055
10906W        W79311  23.918   3.585   2.369
10907W        W79312  40.348  37.343   4.874
10908W        W79313  24.065  32.069  12.545
10909W        W79314  11.298  14.687  10.965
10910W        W79315  38.448  23.714   2.472
10911W        W79316   2.876  27.023  10.861
10912W        W79317  19.345   7.244   1.629
10913W        W79318  23.498  43.614   0.967
10914W        W79319  27.771   7.763  10.450
10915W        W79320  36.851  22.794   3.808
10916W        W79321  37.368   7.715   1.924
10917W        W79322  29.908   9.137   2.166
10918W        W79323  40.917  41.263  11.044
10919W        W79324  11.706  28.554  14.559
10920W        W79325   4.179  16.034   1.555
10921W        W79326   7.698   7.138  11.148
10922W        W79327  42.541  11.934   3.875
10923W        W79328  37.914  21.520  13.375
10924W        W79329  40.883  42.752   3.190
10925W        W79330  14.133  18.088  11.541
10926W        W79331   9.870  36.360  11.680
10927W        W79332  18.752  36.970   0.360
10928W        W79333  41.072  44.183   0.304
10929W        W79334  18.525  14.169  12.886
10930W        W79335  16.133  42.567   4.059
10931W        W79336   4.252  18.239   3.249
10932W        W79337  32.472   6.841   3.575
10933W        W79338  44.823   0.925  13.766
10934W        W79339  24.622   6.076   0.970
10935W        W79340  35.924  22.973   4.600
10936W        W79341  28.053   4.854  10.533
10937W        W79342   3.838  12.999   2.277
10938W        W79343  41.819   3.892   0.572
10939W        W79344  31.141   4.729   4.568
10940W        W79345  41.725   1.038  12.127
10941W        W79346   4.797   6.979  12.360
10942W        W79347  41.301  28.440   4.192
10943W        W79348  40.800  15.731  13.428
10944W        W79349   4.636  37.672   0.466
10945W        W79350   1.244  35.518   2.870
10946W        W79351  38.504   1.363  12.323
10947W        W79352  35.537  44.590  13.793
10948W        W79353  23.429  20.051   4.166
10949W        W79354  32.517  38.786   0.832
10950W        W79355   4.193   0.940  13.821
10951W        W79356  13.689  31.414  12.932
10952W        W79357  25.440   4.212  12.306
10953W        W79358  33.885  21.209  10.708
10954W        W79359   3.336  19.480  13.486
10955W        W79360  20.229   0.118   1.988
10956W        W79361  31.328  41.850   1.377
10957W        W79362  38.629  40.554  12.429
10958W        W79363   8.160  24.399  10.519
10959W        W79364   8.227  18.248   3.313
10960W        W79365  35.484  27.980  12.066
10961W        W79366  20.264  14.997   4.872
10962W        W79367  40.035  17.643  11.179
10963W        W79368  11.685   9.777  12.645
10964W        W79369   4.101   5.598  10.707
10965W        W79370  32.969  11.666  13.965
10966W        W79371   8.839  34.178  11.473
10967W        W79372  24.939  28.586  13.437
10968W        W79373  37.396  13.256   3.756
10969W        W79374  31.528  29.943  13.926
10970W        W79375  42.568  28.530   3.828
10971W        W79376  34.288  18.258  13.352
10972W        W79377  40.282   2.320   3.313
10973W        W79378  12.498  18.237  13.534
10974W        W79379  19.671  18.241  14.038
10975W        W79380  42.623  43.484  13.969
10976W        W79381  34.554  17.641   0.511
10977W        W79382  12.555   5.959   4.100
10978W        W79383  42.660  41.981  12.126
10979W        W79384  40.300  41.227   2.947
10980W        W79385  13.594  39.253   1.386
10981W        W79386  32.562  44.774   3.398
10982W        W79387   6.865  38.939   2.746
10983W        W79388  32.620  38.580  12.101
10984W        W79389  17.777  25.652   1.662
10985W        W79390  28.461   5.229   2.555
10986W        W79391  44.391  35.817   1.717
10987W        W79392  18.025  37.316   0.361
10988W        W79393  14.261  23.059  10.597
10989W        W79394  18.570  18.328   2.140
10990W        W79395  29.556  10.151  13.273
10991W        W79396  22.033  31.965  14.441
10992W        W79397   6.879  27.076   3.668
10993W        W79398  20.136  11.638  13.971
10994W        W79399   5.442  35.965   3.993
10995W        W79400  35.660   0.759  13.252
10996W        W79401  12.619   7.408  13.340
10997W        W79402  11.248  25.717  12.946
10998W        W79403  11.382  33.029  14.015
10999W        W79404   0.710  23.948   2.978
11000W        W79405   0.616  13.651  11.509
11001W        W79406  41.529  15.266   4.351
11002W        W79407  33.357  34.092   2.134
11003W        W79408  26.124  43.586   1.398
11004W        W79409  20.439  24.983   4.758
11005W        W79410  29.273  41.931  14.231
11006W        W79411  16.342   6.722   1.472
11007W        W79412  15.835   5.415  10.829
11008W        W79413   7.216  12.791   2.226
11009W        W79414  26.325   4.928  12.969
11010W        W79415   0.778   9.978  11.006
11011W        W79416   9.177  30.257   5.049
11012W        W79417  16.768   1.821   2.858
11013W        W79418  27.032  33.942  11.081
11014W        W79419  18.098  28.474   2.701
11015W        W79420  43.001   5.504  12.002
11016W        W79421  38.638  43.888  13.538
11017W        W79422   7.720  40.760   1.934
11018W        W79423   7.689  14.532   2.886
11019W        W79424  36.462  29.875   1.978
11020W        W79425  42.391  41.950   1.418
11021W        W79426  19.620  16.042   3.854
11022W        W79427  19.179  33.013  11.380
11023W        W79428  12.140  27.400   0.702
11024W        W79429  29.854  33.542  14.270
11025W        W79430  38.047   0.295   4.200
11026W        W79431  25.200  26.211   4.863
11027W        W79432  37.911  12.026   3.228
11028W        W79433  13.287  30.014  12.930
11029W        W79434  31.133  12.716   5.122
11030W        W79435  27.920  27.009  10.939
11031W        W79436  16.902  37.043   1.857
11032W        W79437  44.301  38.425   4.214
11033W        W79438  35.302  16.132   0.443
11034W        W79439  30.955  10.217  10.697
11035W        W79440   6.128  14.119   3.291
11036W        W79441  34.675   6.302   0.274
11037W        W79442  35.503  22.150   2.705
11038W        W79443  37.358  33.785  14.292
11039W        W79444  36.766  22.489  13.477
11040W        W79445  39.382   2.315   0.276
11041W        W79446  13.703  27.940  10.700
11042W        W79447  16.262  22.968   0.022
11043W        W79448  12.601  16.566   0.490
11044W        W79449  15.395  24.304  11.133
11045W        W79450  41.559  29.260  11.127
11046W        W79451  14.075  34.552   1.468
11047W        W79452   3.040   9.103   5.117
11048W        W79453  28.458  42.492  13.762
11049W        W79454  37.952  26.914   4.043
11050W        W79455  34.794  22.216   1.451
11051W        W79456  42.596  19.092   3.766
11052W        W79457  37.945  38.529   2.583
11053W        W79458  42.449  25.195   1.237
11054W        W79459  22.648   0.157   0.754
11055W        W79460   5.825   2.549   0.263
11056W        W79461  24.115  40.615   1.343
11057W        W79462  32.073  17.538  11.187
11058W        W79463  26.570  16.181  13.519
11059W        W79464  30.568  43.688  13.885
11060W        W79465  23.799  34.928  12.954
11061W        W79466  38.469  41.246   2.433
11062W        W79467  37.936   6.243   0.443
11063W        W79468  11.776  43.796   3.238
11064W        W79469  24.533  40.672  10.515
11065W        W79470  31.390  22.653   2.647
11066W        W79471  15.193  11.094   2.784
11067W        W79472   4.000  31.123   2.431
11068W        W79473  40.061  44.678  12.095
11069W        W79474   2.666   9.716   4.977
11070W        W79475  27.318  39.534  13.195
11071W        W79476  15.129   8.386   4.406
11072W        W79477  19.110  12.863   3.180
11073W        W79478  12.041  16.207   3.316
11074W        W79479   9.129  33.611   0.973
11075W        W79480  23.108  24.188   4.441
11076W        W79481  40.788   0.174   1.739
11077W        W79482  12.362  26.400   0.764
11078W        W79483  21.136  25.143  13.107
11079W        W79484  37.541  35.435  11.993
11080W        W79485  43.172  38.312   2.686
11081W        W79486   2.459  19.148  12.778
11082W        W79487  11.964  33.501   1.440
11083W        W79488  22.552  16.059   4.117
11084W        W79489  32.312   7.367   0.335
11085W        W79490  38.526  25.722   3.770
11086W        W79491  22.664  19.785   2.928
11087W        W79492  39.492   8.321  12.754
11088W        W79493  25.103  22.067   0.810
11089W        W79494  25.697  13.130   0.117
11090W        W79495  24.267  25.978   4.799
11091W        W79496  20.141  41.992   4.053
11092W        W79497  12.041  34.043   4.826
11093W        W79498  22.477   8.930   2.792
11094W        W79499  11.761   1.368  11.147
11095W        W79500  18.965  39.307  10.873
11096W        W79501   0.226   2.825   0.271
11097W        W79502  30.098  32.651   2.795
11098W        W79503  31.003  33.891   2.870
11099W        W79504  36.561  11.610  14.001
11100W        W79505  11.240  35.838  11.147
11101W        W79506  12.886  39.503  10.599
11102W        W79507  25.621  28.764  14.508
11103W        W79508  40.813  42.063  13.054
11104W        W79509  39.799  20.746  12.834
11105W        W79510  34.878   7.051  12.017
11106W        W79511  38.422  17.933   2.849
11107W        W79512  13.613  39.853   4.557
11108W        W79513  38.484  14.472   0.809
11109W        W79514  13.208   1.942   4.068
11110W        W79515   8.603  19.761  12.054
11111W        W79516   8.181  31.093  13.532
11112W        W79517  14.611   3.010  11.151
11113W        W79518  12.643  40.634   4.276
11114W        W79519   8.272   9.193  12.574
11115W        W79520  19.310  32.101   2.699
11116W        W79521  18.002  22.627  14.449
11117W        W79522  15.019  42.752   2.840
11118W        W79523  20.576  40.001   1.711
11119W        W79524  12.313   7.291   3.142
11120W        W79525  18.428  35.619  14.508
11121W        W79526  30.198   3.664   2.214
11122W        W79527  32.684   4.419  14.415
11123W        W79528  44.371  34.386   1.992
11124W        W79529  36.944  28.988  12.091
11125W        W79530  35.654  40.861  13.959
11126W        W79531  28.786  29.153   1.114
11127W        W79532  17.845  10.429   5.069
11128W        W79533   8.266  12.212   2.728
11129W        W79534  24.184  18.211  12.605
11130W        W79535  29.059   9.523  10.779
11131W        W79536  36.094  37.426   0.232
11132W        W79537  34.553  39.050  10.644
11133W        W79538  18.620  37.433   2.417
11134W        W79539  43.865  29.563   3.472
11135W        W79540  26.970  20.760  13.958
11136W        W79541  38.309  44.994   0.313
11137W        W79542  29.167  28.173  12.909
11138W        W79543  26.597  21.454   5.091
11139W        W79544  43.873  18.754  13.372
11140W        W79545  21.988   8.858   3.594
11141W        W79546  39.124  19.527  13.951
11142W        W79547  19.627  24.600  13.745
11143W        W79548   0.096  11.183   1.817
11144W        W79549   2.464  42.863  10.739
11145W        W79550  23.485  23.550  13.561
11146W        W79551  40.805  13.569   1.395
11147W        W79552   1.899  31.505  13.492
11148W        W79553  44.392  20.738   3.851
11149W        W79554  21.961  43.738  12.014
11150W        W79555   2.205   0.877  14.825
11151W        W79556  20.502  11.301   0.228
11152W        W79557   7.895  37.979   3.747
11153W        W79558   9.614  12.147   2.561
11154W        W79559  28.622  27.200   1.769
11155W        W79560  36.837  26.058   1.829
11156W        W79561  17.088  20.562   5.262
11157W        W79562  15.012   4.599  12.235
11158W        W79563  35.154  36.527   2.663
11159W        W79564  30.857  23.042  13.110
11160W        W79565  32.484  20.261   3.210
11161W        W79566  26.976  13.515   1.998
11162W        W79567  21.176  11.871  14.952
11163W        W79568  21.821  39.714  11.936
11164W        W79569  40.639  42.854  13.425
11165W        W79570  16.080  31.571  14.989
11166W        W79571  15.691  41.115   4.870
11167W        W79572  35.571  31.078   2.354
11168W        W79573   3.276  40.081  14.015
11169W        W79574  19.945  11.912   9.749
11170W        W79575   4.581   1.023  12.401
11171W        W79576   6.694   8.742  14.326
11172W        W79577   7.479  38.809  11.034
11173W        W79578  44.238   3.302  13.989
11174W        W79579  32.005   9.298   2.945
11175W        W79580  21.614  41.352  13.395
11176W        W79581   3.150  32.448   2.170
11177W        W79582  42.774   4.838  14.686
11178W        W79583   8.650   8.314   0.451
11179W        W79584  16.452  16.014  11.156
11180W        W79585   1.458  28.956   4.127
11181W        W79586  35.004   4.507  12.844
11182W        W79587  18.834  17.599  14.156
11183W        W79588  13.085  19.784  11.720
11184W        W79589  14.560  23.002   4.231
11185W        W79590   6.957   5.275   3.199
11186W        W79591  16.328  26.685  13.942
11187W        W79592   3.463  13.389   2.376
11188W        W79593   1.089   5.711  10.459
11189W        W79594  43.374  36.071   3.276
11190W        W79595  10.798  38.349   0.283
11191W        W79596  12.598  30.453  13.016
11192W        W79597  28.120  26.211  12.343
11193W        W79598  44.779  11.856  13.328
11194W        W79599   2.960  15.221  13.942
11195W        W79600   9.384  34.999  13.437
11196W        W79601   8.955   3.241   4.692
11197W        W79602   4.645   4.652  13.488
11198W        W79603   9.657  28.132   0.806
11199W        W79604  10.663  22.931  13.076
11200W        W79605  10.765  35.966  11.336
11201W        W79606  23.556   6.248  11.701
11202W        W79607  17.233  30.463   1.439
11203W        W79608  12.009  21.878   3.693
11204W        W79609  15.222  12.938   4.406
11205W        W79610   0.038   5.240   1.177
11206W        W79611  22.805  20.579   1.692
11207W        W79612   6.849  21.064  10.357
11208W        W79613  43.463   2.258  11.147
11209W        W79614  40.962  30.506   1.384
11210W        W79615  16.114   6.472  11.712
11211W        W79616  29.635  32.496   4.742
11212W        W79617  19.220  12.933   1.821
11213W        W79618  15.024  16.128  11.107
11214W        W79619  32.099  31.113   2.789
11215W        W79620  35.411  19.958   3.302
11216W        W79621   0.787   7.193  13.490
11217W        W79622  18.332  14.179   4.711
11218W        W79623  36.806  10.934   3.255
11219W        W79624   4.349  34.078   0.703
11220W        W79625  36.635  42.069   0.770
11221W        W79626  11.438  14.267  13.045
11222W        W79627  18.519   6.632  12.931
11223W        W79628  31.465  28.001   1.917
11224W        W79629   4.171  29.070   3.346
11225W        W79630  20.610   8.746   3.587
11226W        W79631  19.254   7.067   1.088
11227W        W79632  15.645  38.107   0.450
11228W        W79633   7.925  34.439  14.046
11229W        W79634  28.860  18.728  13.016
11230W        W79635  32.959   0.619   3.272
11231W        W79636  15.747  30.169   2.281
11232W        W79637  26.740  14.882   2.575
11233W        W79638   9.621  38.122  14.819
11234W        W79639   4.720  33.544   0.750
11235W        W79640  30.635  19.628   0.044
11236W        W79641   5.541  41.524  14.312
11237W        W79642   8.384  24.145   0.481
11238W        W79643  40.934  17.671  10.892
11239W        W79644   6.310  38.084  13.057
11240W        W79645  26.507  43.269   0.641
11241W        W79646  24.405  34.509   2.230
11242W        W79647   2.799  17.420   3.272
11243W        W79648   6.188  20.119  13.115
11244W        W79649  39.510   6.251   1.427
11245W        W79650   7.228  18.207   3.843
11246W        W79651  11.384  40.870  13.373
11247W        W79652  33.090  22.220   4.717
11248W        W79653  42.984   5.264  12.954
11249W        W79654  11.638  34.909   1.470
11250W        W79655  25.697   8.745  14.372
11251W        W79656  37.922  20.726   3.970
11252W        W79657  23.705  43.423   0.478
11253W        W79658   8.869  42.419   4.114
11254W        W79659   1.771  24.800   4.125
11255W        W79660   8.385  14.215  12.855
11256W        W79661   2.962   1.912  13.900
11257W        W79662  38.095   8.404   3.748
11258W        W79663  11.245  15.189  13.427
11259W        W79664   2.379  15.009  13.954
11260W        W79665  24.569  40.886  13.752
11261W        W79666  14.124  17.586  14.491
11262W        W79667  28.556  24.233  14.797
11263W        W79668  42.490  43.232   4.964
11264W        W79669  22.744   5.725   0.915
11265W        W79670  37.058   5.197   2.179
11266W        W79671  15.608  23.667  11.536
11267W        W79672  26.667   7.253   1.838
11268W        W79673  16.760   9.367  13.893
11269W        W79674  32.058  10.721   2.189
11270W        W79675  33.763   8.303  14.190
11271W        W79676  43.885  41.036   4.613
11272W        W79677  17.431  32.777  12.973
11273W        W79678  35.067  36.040   2.913
11274W        W79679  36.045   6.758  12.142
11275W        W79680  14.652   1.529   0.420
11276W        W79681  36.356   5.942  12.984
11277W        W79682   5.423   1.914   4.615
11278W        W79683   7.685  16.825  13.553
11279W        W79684   9.762  24.781  12.045
11280W        W79685  40.795  16.122   4.044
11281W        W79686   6.961  37.625  13.430
11282W        W79687   4.984  18.375  11.129
11283W        W79688  17.784   1.172   4.224
11284W        W79689  22.090  13.619   1.654
11285W        W79690  18.122  42.748  10.462
11286W        W79691  13.559   2.455   1.028
11287W        W79692   9.129  34.190  11.963
11288W        W79693  14.221  35.016   2.275
11289W        W79694   1.531   1.494  12.365
11290W        W79695  32.985  26.409   1.413
11291W        W79696   2.559   7.342   3.619
11292W        W79697  25.656  11.304  11.893
11293W        W79698   3.251   2.781   0.945
11294W        W79699  10.815  35.051  12.972
11295W        W79700  13.612   7.328  11.961
11296W        W79701  26.265   2.507   1.367
11297W        W79702   3.732  11.781   1.948
11298W        W79703  10.015  28.473   4.427
11299W        W79704  12.885  30.780  14.715
11300W        W79705   2.302  31.134   4.415
11301W        W79706   0.405   4.246   2.838
11302W        W79707  28.444  31.571  12.568
11303W        W79708   5.166  11.557   1.804
11304W        W79709   0.252  21.296   4.801
11305W        W79710  41.333  43.556  13.905
11306W        W79711  24.792   8.993   2.788
11307W        W79712  17.259  28.516  11.213
11308W        W79713  33.492  27.138   0.908
11309W        W79714  28.895   7.118   1.715
11310W        W79715  28.319  12.400   3.088
11311W        W79716  32.896  13.234   0.176
11312W        W79717  11.599  41.011  12.928
11313W        W79718  32.693  37.578  12.024
11314W        W79719  39.379  22.616  12.356
11315W        W79720  33.763  14.159  14.839
11316W        W79721  30.967  11.436  13.990
11317W        W79722  18.142  37.855   2.961
11318W        W79723   5.410  30.031   2.924
11319W        W79724  17.387  43.384   0.275
11320W        W79725   2.220  25.609   1.190
11321W        W79726  21.489  27.909   3.206
11322W        W79727  38.487  37.000   2.460
11323W        W79728  37.255  30.833  14.277
11324W        W79729  29.924  35.804  14.743
11325W        W79730  41.782  25.576   4.521
11326W        W79731  33.047  24.236   2.729
11327W        W79732  24.951  43.195   4.095
11328W        W79733   6.014   3.462  11.179
11329W        W79734   9.623  16.063  12.083
11330W        W79735   3.231  16.575   1.430
11331W        W79736  27.100  12.144   0.312
11332W        W79737  40.857  22.758   3.951
11333W        W79738  30.699   7.733  11.565
11334W        W79739   5.179  18.627  13.073
11335W        W79740  35.338  41.845  14.364
11336W        W79741  33.389  12.707   0.373
11337W        W79742  23.764  36.059   3.975
11338W        W79743  39.006  25.271   4.149
11339W        W79744  33.554  28.721  13.457
11340W        W79745  25.492  30.001  12.534
11341W        W79746  30.524  23.922  13.125
11342W        W79747  35.335  39.965   1.436
11343W        W79748  19.855  26.892  11.932
11344W        W79749  13.831  44.402  13.019
11345W        W79750   9.047  15.986   4.545
11346W        W79751  34.438  39.234   2.356
11347W        W79752  16.757  29.369   1.750
11348W        W79753   7.134  37.072  14.689
11349W        W79754  23.728  33.564   1.280
11350W        W79755   6.295  37.890   3.312
11351W        W79756  11.724  42.352  14.330
11352W        W79757   3.394  27.376  11.172
11353W        W79758  41.034   3.184   1.389
11354W        W79759  38.068  38.650  12.436
11355W        W79760   8.187  29.361   3.352
11356W        W79761   4.267  14.183   0.462
11357W        W79762  36.852  24.302   2.849
11358W        W79763  44.724  34.117  11.589
11359W        W79764  44.777   4.931  14.215
11360W        W79765  14.964   3.769  12.191
11361W        W79766   4.663  20.087   0.434
11362W        W79767  44.989  11.323   4.119
11363W        W79768  28.038   5.596   1.251
11364W        W79769   6.457  16.108  11.696
11365W        W79770  26.194  11.329   3.695
11366W        W79771  34.766   2.182  11.181
11367W        W79772  24.746  23.979   3.141
11368W        W79773   5.364  41.559   0.309
11369W        W79774  19.828  44.928   4.507
11370W        W79775   3.448  20.807   2.871
11371W        W79776  34.475  16.572   4.423
11372W        W79777  20.025  15.587  14.893
11373W        W79778   5.812  10.128  14.381
11374W        W79779  42.111   1.191  13.771
11375W        W79780  29.166  19.512   1.708
11376W        W79781  31.791  44.693   5.180
11377W        W79782  18.990  32.099  13.380
11378W        W79783  43.974  31.492  13.400
11379W        W79784   7.422   0.198  12.978
11380W        W79785  26.049  17.153  10.584
11381W        W79786  27.330  25.691   1.266
11382W        W79787  37.962  37.653  12.564
11383W        W79788  35.931  37.157  14.817
11384W        W79789  23.952   0.991   5.046
11385W        W79790  38.958  32.462  11.662
11386W        W79791  36.553  28.440   2.439
11387W        W79792  10.586  39.308   2.194
11388W        W79793  33.996  35.440  13.833
11389W        W79794   0.428  35.936   2.381
11390W        W79795   3.589  30.604  11.488
11391W        W79796  30.925  21.926  11.038
11392W        W79797   2.355   1.440   4.016
11393W        W79798  17.229  27.213  13.923
11394W        W79799  40.781  31.444   4.212
11395W        W79800  15.767  42.039   2.284
11396W        W79801   5.882  44.932   0.704
11397W        W79802  35.475  35.037   1.464
11398W        W79803  34.321  12.505  14.564
11399W        W79804  29.637  13.812   4.751
11400W        W79805  15.820  15.439  10.795
11401W        W79806  19.774  14.494  12.514
11402W        W79807   3.441   6.807   1.888
11403W        W79808  36.421  27.857  10.800
11404W        W79809  10.750   0.253  13.809
11405W        W79810  37.691  37.659   0.903
11406W        W79811  11.746  27.942   4.618
11407W        W79812  36.598  43.387   3.068
11408W        W79813  35.601  39.497   1.578
11409W        W79814  20.205   2.999  11.131
11410W        W79815  42.631  40.044   0.121
11411W        W79816  36.328  18.040  13.582
11412W        W79817  23.194  37.732  13.768
11413W        W79818  13.517   4.440  10.741
11414W        W79819  23.618  42.768  14.893
11415W        W79820  41.368  43.333   0.834
11416W        W79821  25.400  19.740   2.277
11417W        W79822  40.000  39.048   1.564
11418W        W79823   4.294  18.792  10.636
11419W        W79824  28.963  14.430  12.399
11420W        W79825  20.249  30.636   1.964
11421W        W79826  22.723  25.750   4.089
11422W        W79827  23.221  33.660  14.106
11423W        W79828  24.893  42.688   0.311
11424W        W79829  44.353  40.695   2.353
11425W        W79830  39.925  19.201  11.042
11426W        W79831  27.679   9.862   4.224
11427W        W79832  14.881  33.342  14.415
11428W        W79833  23.590  27.982  11.065
11429W        W79834  27.912  34.880  11.523
11430W        W79835  28.711   8.119   2.347
11431W        W79836  28.039   9.209   3.565
11432W        W79837  12.598  42.972   4.025
11433W        W79838  14.104  29.609  14.974
11434W        W79839   1.818  43.370  12.485
11435W        W79840   6.217   1.936  12.107
11436W        W79841  20.752  24.661   5.055
11437W        W79842  16.050  32.323  10.885
11438W        W79843   0.481  17.244   3.583
11439W        W79844   2.770  16.152   1.525
11440W        W79845  42.503   5.686  13.764
11441W        W79846  27.156  44.407   0.765
11442W        W79847   3.891   8.297  11.995
11443W        W79848  24.732  33.582  10.785
11444W        W79849  19.274  27.966   3.693
11445W        W79850  31.197  15.825   4.228
11446W        W79851  19.483  26.923  13.727
11447W        W79852   0.802  16.679   3.814
11448W        W79853   3.332  37.448  12.997
11449W        W79854   1.419  15.058   2.252
11450W        W79855  33.685  30.102   4.579
11451W        W79856   3.369  34.696   1.226
11452W        W79857  42.346  24.024  13.613
11453W        W79858  19.297  38.229  12.626
11454W        W79859   2.230   4.263  12.529
11455W        W79860  23.585   4.375   0.407
11456W        W79861   4.640  23.161   0.972
11457W        W79862   2.251   2.015  12.405
11458W        W79863   7.237   4.252   1.983
11459W        W79864  43.814  39.000   0.197
11460W        W79865   3.726  34.654   0.497
11461W        W79866  21.843  12.389  13.988
11462W        W79867  11.945  25.418   3.017
11463W        W79868  21.634  26.635  14.505
11464W        W79869   2.505  23.511  10.552
11465W        W79870  25.977  35.629  12.564
11466W        W79871  38.484  11.147  12.849
11467W        W79872  27.060  10.233  11.991
11468W        W79873   9.419   0.845   0.490
11469W        W79874  38.070  29.056  11.245
11470W        W79875   6.759  26.913   2.312
11471W        W79876  30.158  43.409  13.148
11472W        W79877  14.114  20.301  11.173
11473W        W79878  20.246  17.838   3.609
11474W        W79879   3.439  23.977  12.529
11475W        W79880  36.921  27.852  14.876
11476W        W79881  22.002  21.449   2.408
11477W        W79882  29.438  30.001  14.814
11478W        W79883  34.350  31.473   3.380
11479W        W79884  30.979  44.772   4.018
11480W        W79885   0.431  33.848  13.041
11481W        W79886  23.425   2.905   1.480
11482W        W79887  43.314   8.096  12.113
11483W        W79888  27.503   3.263   1.234
11484W        W79889  10.563  34.478   3.843
11485W        W79890  24.357  41.337   3.163
11486W        W79891  33.830  17.238   2.773
11487W        W79892  15.701  22.849   2.115
11488W        W79893  43.492   8.294   2.009
11489W        W79894  41.686  25.832   2.616
11490W        W79895  13.799  26.684  13.079
11491W        W79896  43.619  23.147  13.776
11492W        W79897  23.348  17.641   0.534
11493W        W79898  26.082   9.774   4.634
11494W        W79899   6.708  40.807   1.876
11495W        W79900  10.675  35.275   0.014
11496W        W79901  35.382   8.797   1.967
11497W        W79902  11.856  25.135   0.820
11498W        W79903  27.715  27.563  10.722
11499W        W79904  15.157   8.175   4.865
11500W        W79905  15.220   7.340  13.789
11501W        W79906  33.610  21.262   1.154
11502W        W79907  15.760  18.781  12.231
11503W        W79908  39.295  42.425   9.949
11504W        W79909  29.887   0.239   0.440
11505W        W79910  19.048  43.539   1.925
11506W        W79911  36.078   7.721  13.558
11507W        W79912  19.739  16.731  14.444
11508W        W79913  20.546  42.850   0.126
11509W        W79914  24.010   8.206   1.210
11510W        W79915  15.282  18.343   4.695
11511W        W79916  38.064  14.881   0.265
11512W        W79917  30.011  16.096  11.297
11513W        W79918  42.558   8.415  10.638
11514W        W79919  25.126  26.661   2.124
11515W        W79920  33.979  30.226  11.587
11516W        W79921  31.652   0.919   2.863
11517W        W79922  34.560  44.445   4.015
11518W        W79923  44.892  41.613   1.302
11519W        W79924  25.982  39.540  14.546
11520W        W79925  25.490   9.755   0.894
11521W        W79926  14.062  30.075   3.700
11522W        W79927  44.548  25.692   1.887
11523W        W79928  42.507  23.665  14.449
11524W        W79929  27.775   8.674   1.494
11525W        W79930  29.174  29.066   0.189
11526W        W79931  20.596  15.342   3.044
11527W        W79932   3.380   5.230  12.406
11528W        W79933  39.954  32.473  13.560
11529W        W79934  12.407  35.033  11.036
11530W        W79935  37.226   6.688  12.922
11531W        W79936  34.094   0.228   0.813
11532W        W79937  42.096  29.645   4.150
11533W        W79938  22.294  18.217  13.533
11534W        W79939  32.682  10.786  14.485
11535W        W79940  12.300  27.370  13.633
11536W        W79941  28.210  36.372  11.219
11537W        W79942  22.723  31.959  10.915
11538W        W79943  22.799  20.268  13.588
11539W        W79944  36.364  42.758   2.332
11540W        W79945  15.125  24.763  13.935
11541W        W79946  18.054  37.398  12.387
11542W        W79947  41.556  17.170  11.551
11543W        W79948  40.079  19.660   4.037
11544W        W79949  38.055  20.151   4.591
11545W        W79950  35.713  16.030   2.973
11546W        W79951  40.584   9.940  13.489
11547W        W79952  42.237  38.525  14.177
11548W        W79953  41.862  44.347   1.719
11549W        W79954  19.646  17.858  13.072
11550W        W79955  40.330  29.612  13.083
11551W        W79956  22.748  17.486  12.956
11552W        W79957  43.446  21.497  14.427
11553W        W79958  18.708   8.857  13.617
11554W        W79959  35.867  25.490   4.186
11555W        W79960   3.677  44.309   1.317
11556W        W79961  33.992  21.009   1.971
11557W        W79962   5.144   5.225  14.394
11558W        W79963  40.765  18.375   0.884
11559W        W79964  22.964  12.903  12.863
11560W        W79965  39.322  33.581   1.718
11561W        W79966  39.204   7.312  11.000
11562W        W79967  44.766  30.376   4.586
11563W        W79968  24.921  22.911  11.610
11564W        W79969  16.269  31.604  11.644
11565W        W79970   5.362   7.314   3.246
11566W        W79971  36.950  16.756   3.042
11567W        W79972  34.466  25.617   0.338
11568W        W79973   3.985  25.630   2.267
11569W        W79974  21.493   2.582  11.634
11570W        W79975  10.315   7.697   4.186
11571W        W79976  43.480  37.374  12.984
11572W        W79977  31.161  41.406  13.008
11573W        W79978   7.107  37.060  13.037
11574W        W79979  23.342  44.247  14.360
11575W        W79980  37.893  39.825  12.045
11576W        W79981  36.699  15.296  13.538
11577W        W79982   2.450   3.776  14.740
11578W        W79983  44.293  33.616   4.488
11579W        W79984  31.592  18.067  12.866
11580W        W79985  43.088   8.242  11.484
11581W        W79986  22.515  30.048   0.367
11582W        W79987   5.540  25.495   3.914
11583W        W79988  14.268  11.349   4.199
11584W        W79989  34.443  20.507  14.446
11585W        W79990   3.793  12.001   3.881
11586W        W79991  22.214  26.985   0.117
11587W        W79992   0.116   8.226   2.852
11588W        W79993  32.956  37.167  14.263
11589W        W79994  28.219  24.460  13.070
11590W        W79995  33.898   4.946   1.835
11591W        W79996   8.405  12.785  14.964
11592W        W79997   0.303  42.054  10.841
11593W        W79998   7.000  17.251   0.829
11594W        W79999  27.511  29.657  12.059
11595W        W80000  32.662  21.998  11.072
11596W        W80001  28.481  21.087  10.759
11597W        W80002  16.158  34.821   0.360
11598W        W80003  33.051  39.487   0.430
11599W        W80004  43.263  40.355   1.780
11600W        W80005  20.053  24.649  14.820
11601W        W80006   4.365   1.010  14.328
11602W        W80007   5.836  23.402   4.991
11603W        W80008   5.883  42.380  11.515
11604W        W80009  16.204  44.912  13.519
11605W        W80010  22.201  23.575   1.371
11606W        W80011  20.681  42.397  11.252
11607W        W80012  37.088  18.243  11.955
11608W        W80013  13.800  28.671  11.113
11609W        W80014  10.525  26.600  10.408
11610W        W80015   8.647  40.518  11.169
11611W        W80016  36.964  36.278   3.617
11612W        W80017  35.566  41.929  12.646
11613W        W80018  39.460  14.330   4.642
11614W        W80019  14.620  37.254   0.876
11615W        W80020  11.814  20.357   2.554
11616W        W80021  29.167   8.471  11.767
11617W        W80022  33.536  16.658   2.313
11618W        W80023  22.890  19.599   2.479
11619W        W80024  20.864  16.719  12.388
11620W        W80025  15.117  15.336  12.676
11621W        W80026  30.895  35.918   1.899
11622W        W80027  23.717   1.529  10.419
11623W        W80028  26.587   7.042  14.031
11624W        W80029  17.666  40.367   3.413
11625W        W80030   9.784   3.300   3.055
11626W        W80031  18.760   6.958  12.477
11627W        W80032  23.121  36.703  13.037
11628W        W80033  34.071  21.648   2.839
11629W        W80034  36.382   1.114   1.327
11630W        W80035  31.850  43.241   0.188
11631W        W80036  12.619  38.089   2.976
11632W        W80037  27.933  13.185   1.733
11633W        W80038  42.478  18.980  11.184
11634W        W80039  43.546  15.120  12.097
11635W        W80040  41.308   5.627   1.396
11636W        W80041  34.441  20.835  14.847
11637W        W80042   6.115  28.380  14.217
11638W        W80043   7.557  42.426   1.855
11639W        W80044  27.789  12.780  14.367
11640W        W80045  13.253  20.267   2.636
11641W        W80046   2.236  29.707   2.687
11642W        W80047  24.963   9.843  13.888
11643W        W80048  35.977  20.893  13.032
11644W        W80049  14.322  21.794   2.678
11645W        W80050  20.458   3.689  14.875
11646W        W80051  37.704  36.498   2.207
11647W        W80052   6.409   4.259  11.755
11648W        W80053   9.267   6.793   2.284
11649W        W80054  15.966   7.922  11.698
11650W        W80055  19.717  44.919   1.219
11651W        W80056  15.277  34.780   0.387
11652W        W80057  10.788  38.909  10.078
11653W        W80058  38.427  38.969  10.749
11654W        W80059  15.399  22.721   5.015
11655W        W80060  35.089  14.651   3.833
11656W        W80061   5.345  10.425   3.141
11657W        W80062   8.098  11.827   0.360
11658W        W80063   1.156  24.117   2.797
11659W        W80064  42.388   2.504  11.275
11660W        W80065  29.135  29.831   0.246
11661W        W80066  30.497  42.001  10.304
11662W        W80067  20.672   3.168   4.709
11663W        W80068  20.815  38.789   2.624
11664W        W80069  33.591  17.612  14.027
11665W        W80070  30.376   4.390   5.132
11666W        W80071  43.515  23.954   0.422
11667W        W80072  35.579  34.652  11.489
11668W        W80073   3.597  42.406   4.271
11669W        W80074  25.005  38.757  13.539
11670W        W80075   1.490  27.700  14.959
11671W        W80076  39.224   0.519  10.330
11672W        W80077  14.597  32.494   3.537
11673W        W80078  19.161   5.068   4.362
11674W        W80079  27.020   8.797   2.668
11675W        W80080  15.563  41.681  10.685
11676W        W80081  14.092  26.202  14.001
11677W        W80082  18.796  44.267  14.737
11678W        W80083  22.428  39.534   0.797
11679W        W80084   5.153  38.983  10.614
11680W        W80085  29.394  28.328  14.959
11681W        W80086  17.533  13.295   1.296
11682W        W80087  18.771   5.656  12.853
11683W        W80088  11.758  31.184   0.930
11684W        W80089  22.564  32.156   2.699
11685W        W80090  11.580  20.108  13.354
11686W        W80091  31.852   6.531   4.759
11687W        W80092  31.640   0.851  14.442
11688W        W80093  37.463  34.845   2.312
11689W        W80094   4.324  26.913  10.002
11690W        W80095  18.477  23.649  13.418
11691W        W80096  35.802   6.973  12.547
11692W        W80097  18.245  40.891  11.106
11693W        W80098  38.786   9.326   4.582
11694W        W80099  18.118  35.214   4.842
11695W        W80100  38.267  11.807   4.205
11696W        W80101  20.119  21.759   2.446
11697W        W80102  17.203  34.037   0.288
11698W        W80103  38.363  43.470   0.870
11699W        W80104  41.947  24.540  12.410
11700W        W80105  12.146  28.600   0.909
11701W        W80106  10.909  26.637  11.769
11702W        W80107  39.462  30.016  12.852
11703W        W80108  28.031   2.007   2.375
11704W        W80109  35.036  42.195   3.706
11705W        W80110  30.942  12.009  12.464
11706W        W80111  27.902  14.286   1.792
11707W        W80112  22.249  23.012   1.434
11708W        W80113  27.989  30.971  12.620
11709W        W80114  44.616  12.478   0.953
11710W        W80115   7.685   3.801  10.797
11711W        W80116  23.026  18.673  10.955
11712W        W80117  35.607  22.848   0.815
11713W        W80118   6.276  29.846   1.827
11714W        W80119  22.137  30.098  13.100
11715W        W80120  28.019  35.007  13.325
11716W        W80121  30.154   4.639   3.005
11717W        W80122  19.005  27.017   0.771
11718W        W80123  10.723  26.664   2.695
11719W        W80124   2.224  15.857   2.760
11720W        W80125  17.826  27.146  10.633
11721W        W80126  28.173  10.101  14.902
11722W        W80127  23.773   6.600   0.869
11723W        W80128  40.865  23.755   2.240
11724W        W80129   8.264  16.088   0.024
11725W        W80130  31.394  31.054   2.207
11726W        W80131   9.732   9.709  14.277
11727W        W80132  13.298  32.285  12.189
11728W        W80133   0.471  27.469  12.474
11729W        W80134   1.069  11.164   2.031
11730W        W80135  11.849  23.312   9.721
11731W        W80136  10.626  36.632  10.709
11732W        W80137  40.032  44.778  13.036
11733W        W80138  13.845  41.109   1.886
11734W        W80139  32.946  31.934  11.074
11735W        W80140  11.111   5.730  12.876
11736W        W80141  34.493   8.097  14.846
11737W        W80142   8.348  35.608  12.203
11738W        W80143   4.319  36.032   0.799
11739W        W80144  43.792   7.077   3.950
11740W        W80145   2.035   7.331   1.110
11741W        W80146  21.442  22.325   2.833
11742W        W80147   8.121  28.052   1.011
11743W        W80148  11.306   4.385  12.372
11744W        W80149   4.776  27.494  11.849
11745W        W80150  19.847  12.087  14.062
11746W        W80151   1.705  42.242  11.101
11747W        W80152   0.310  28.204   1.328
11748W        W80153   8.118  44.859  14.255
11749W        W80154  41.243  33.192   3.438
11750W        W80155   3.105  15.158   0.766
11751W        W80156  15.624  21.740  13.513
11752W        W80157   2.272   7.279  13.022
11753W        W80158  42.389  39.440  10.873
11754W        W80159   8.746  23.185  11.019
11755W        W80160  42.175  12.706  13.344
11756W        W80161  30.977   8.303  11.353
11757W        W80162  17.672   8.216  12.923
11758W        W80163  23.181  28.607   3.091
11759W        W80164   7.097  25.828   3.185
11760W        W80165  19.080  30.627   2.788
11761W        W80166  14.422  40.394   4.971
11762W        W80167  14.729  21.728   1.198
11763W        W80168  11.318  28.711  10.735
11764W        W80169   9.903  27.233   1.890
11765W        W80170  37.004   0.007   0.873
11766W        W80171  14.692  26.036  11.194
11767W        W80172   6.222  35.868   1.205
11768W        W80173   6.740   9.477   2.355
11769W        W80174  43.506   6.375  11.582
11770W        W80175  30.440  29.557  11.541
11771W        W80176  43.088  25.995  11.066
11772W        W80177  34.443   2.620   0.942
11773W        W80178   0.074  15.224  13.496
11774W        W80179  42.985  36.425  14.886
11775W        W80180  44.548  20.682  14.854
11776W        W80181  37.102  29.065   0.379
11777W        W80182  41.550   4.735   0.319
11778W        W80183  10.530   7.652  14.400
11779W        W80184  35.458  34.005   4.712
11780W        W80185  38.389   9.836   4.176
11781W        W80186   9.296   6.676   1.387
11782W        W80187   9.842  39.515   2.152
11783W        W80188  18.197  14.831  14.365
11784W        W80189  37.605  18.269   4.136
11785W        W80190   8.737  10.977  11.258
11786W        W80191   8.590  27.506   0.384
11787W        W80192  25.042  39.726  13.702
11788W        W80193  40.393  19.214  11.955
11789W        W80194   4.058  18.330  12.237
11790W        W80195  28.105  38.039  12.585
11791W        W80196   3.894  13.187  11.904
11792W        W80197  10.400  18.551  14.851
11793W        W80198  35.885  38.589   2.630
11794W        W80199  42.022  19.115   2.304
11795W        W80200  14.768  16.422   0.745
11796W        W80201  24.465   4.165  11.153
11797W        W80202   4.300  27.201  10.659
11798W        W80203  18.261  27.632   3.620
11799W        W80204  22.675  13.534   3.368
11800W        W80205   7.993  37.441  12.373
11801W        W80206   9.390  34.845  10.870
11802W        W80207  26.714  38.332   0.719
11803W        W80208  22.747  22.617  11.526
11804W        W80209  27.066  12.702   3.035
11805W        W80210  39.340  32.138   3.371
11806W        W80211  26.871  31.224  14.345
11807W        W80212  30.384  22.522   1.670
11808W        W80213  25.556  19.909  12.936
11809W        W80214  21.901  16.595   3.663
11810W        W80215   6.177  21.735   0.411
11811W        W80216   8.913   0.505  11.817
11812W        W80217  42.457  31.278  13.890
11813W        W80218   5.237  40.118   0.451
11814W        W80219  16.930   1.300  12.661
11815W        W80220   8.373  26.036  11.943
11816W        W80221  16.264  37.359  10.685
11817W        W80222  13.109  44.343   1.349
11818W        W80223   1.681  13.707  14.835
11819W        W80224  22.542  11.883  10.774
11820W        W80225   8.371  13.831  11.162
11821W        W80226  42.170  12.317   1.527
11822W        W80227  29.349  33.314  11.623
11823W        W80228  41.782  29.887   0.365
11824W        W80229  34.099  29.958  14.600
11825W        W80230  15.682   0.766   1.520
11826W        W80231  22.489   4.735  13.135
11827W        W80232  11.840  39.469  13.340
11828W        W80233  12.159  12.283  14.581
11829W        W80234  19.561  44.511   4.648
11830W        W80235  37.490  36.584   1.657
11831W        W80236   2.679   4.631   2.670
11832W        W80237  42.462  41.074  12.467
11833W        W80238   4.319  12.765  13.370
11834W        W80239  41.348   2.871   0.346
11835W        W80240  25.157  24.487   4.028
11836W        W80241  44.203  35.666  11.489
11837W        W80242  37.286   5.973   4.702
11838W        W80243  37.578  10.792   0.404
11839W        W80244  14.551  13.250  14.838
11840W        W80245  34.781  40.049  14.087
11841W        W80246  34.358  13.789   2.884
11842W        W80247  28.144  29.355  10.990
11843W        W80248   6.902   1.835   1.246
11844W        W80249  29.883  25.425  12.512
11845W        W80250  40.463  14.984  10.579
11846W        W80251   1.522  20.522  12.423
11847W        W80252  40.538  26.933   4.018
11848W        W80253   2.977   4.987   3.518
11849W        W80254  19.001  40.484   1.278
11850W        W80255  16.578  17.333   2.837
11851W        W80256   2.790   4.252  12.099
11852W        W80257  18.055  16.877  14.209
11853W        W80258  17.858  32.435  10.384
11854W        W80259  37.750  36.969   3.674
11855W        W80260  17.383   9.214  10.195
11856W        W80261  15.090   0.719  11.168
11857W        W80262  28.511  29.479   0.839
11858W        W80263  20.061   4.943   2.869
11859W        W80264   9.753  11.321   0.714
11860W        W80265  25.135  21.792  13.432
11861W        W80266  21.468  22.046   0.131
11862W        W80267   3.237  12.448   3.574
11863W        W80268  37.015  16.183  14.332
11864W        W80269  11.371  22.071  13.353
11865W        W80270  17.408   5.226   2.900
11866W        W80271  42.559  38.824  13.895
11867W        W80272   4.820  17.396   3.245
11868W        W80273   6.340   0.812  13.827
11869W        W80274  21.066  32.644  11.238
11870W        W80275  20.183  14.143  11.126
11871W        W80276   0.136  41.727  14.355
11872W        W80277   8.772  33.780  11.850
11873W        W80278  19.119  26.419  14.709
11874W        W80279  28.711  42.490  12.434
11875W        W80280  43.938   2.451  14.308
11876W        W80281  14.888   6.442  14.938
11877W        W80282  17.093  32.063  13.401
11878W        W80283  17.382   7.519  14.431
11879W        W80284  38.370   4.901   0.093
11880W        W80285  40.714  24.393  10.786
11881W        W80286  42.974  37.600  11.047
11882W        W80287   0.158  28.190  12.927
11883W        W80288   5.838  20.762   3.763
11884W        W80289  31.541  40.906  12.638
11885W        W80290  41.133  14.530  13.038
11886W        W80291  37.001   2.835   1.486
11887W        W80292   0.440   8.242   0.269
11888W        W80293   8.345  39.969  13.585
11889W        W80294  33.991  17.191   0.274
11890W        W80295  36.668  36.191   3.198
11891W        W80296  41.169  24.418  11.069
11892W        W80297  37.614  42.854   0.872
11893W        W80298   3.746   6.257   2.735
11894W        W80299  28.121   5.977   4.219
11895W        W80300   5.327  15.767  14.514
11896W        W80301  15.542  37.633   4.595
11897W        W80302   4.248  26.703   0.895
11898W        W80303  22.484   3.279  12.936
11899W        W80304  14.744  33.155   1.313
11900W        W80305  15.651  38.607  14.776
11901W        W80306  42.596  20.544   1.922
11902W        W80307  31.565  16.140   1.144
11903W        W80308   0.834  42.076   0.353
11904W        W80309  13.363  16.680  11.153
11905W        W80310  22.632  16.940   0.356
11906W        W80311  35.115   0.810  13.102
11907W        W80312  11.960   6.408   0.941
11908W        W80313  18.484  11.684  14.445
11909W        W80314   1.580  15.148   3.588
11910W        W80315  43.515  30.911  13.922
11911W        W80316  29.552  13.672   1.316
11912W        W80317   9.912  22.069  12.477
11913W        W80318  12.886  41.980  12.521
11914W        W80319   2.340  11.330   1.242
11915W        W80320   4.383   7.504   3.663
11916W        W80321  37.783  40.117   2.759
11917W        W80322  39.958  14.369   2.608
11918W        W80323  22.624  42.480  12.585
11919W        W80324  44.903  18.024   0.441
11920W        W80325  33.774  26.550   4.605
11921W        W80326  10.130  30.384   2.761
11922W        W80327  42.266  27.720  12.458
11923W        W80328  44.262  13.344  14.919
11924W        W80329  18.548  43.722   1.884
11925W        W80330  30.723  31.651  12.974
11926W        W80331   1.352  36.068  13.873
11927W        W80332  38.836  44.992   0.296
11928W        W80333  40.053  40.083  14.322
11929W        W80334   2.268  29.516  11.047
11930W        W80335  28.342   4.211  11.504
11931W        W80336  27.024  18.816   2.695
11932W        W80337   2.719  37.962   1.912
11933W        W80338  10.895   3.352  10.409
11934W        W80339   6.364  25.032   2.772
11935W        W80340  40.819  10.849   4.026
11936W        W80341  12.540  39.921  10.560
11937W        W80342   3.634   3.955   3.862
11938W        W80343   3.822   5.341  11.534
11939W        W80344  39.575  39.534  12.481
11940W        W80345  35.828  31.141   0.694
11941W        W80346  44.877  25.106  14.088
11942W        W80347  35.474   8.604   1.517
11943W        W80348  21.255  14.761  13.563
11944W        W80349   6.787  26.218   1.455
11945W        W80350  25.929  28.008   4.300
11946W        W80351  21.662  24.033   2.299
11947W        W80352  33.521  25.896   0.441
11948W        W80353   4.723  32.394  12.959
11949W        W80354   0.818  12.086  13.794
11950W        W80355  34.357  23.156   2.167
11951W        W80356  12.266  41.797  13.071
11952W        W80357  16.823   7.771  12.081
11953W        W80358   8.135  31.563   1.992
11954W        W80359  11.771  24.235  13.874
11955W        W80360  21.914   4.680   4.528
11956W        W80361   0.916   4.799  12.346
11957W        W80362  11.386  40.799  11.237
11958W        W80363  32.755  13.206  14.674
11959W        W80364  33.922  34.433  14.966
11960W        W80365  20.794   5.443  12.133
11961W        W80366  41.617  29.445   0.128
11962W        W80367  39.017  39.419   4.541
11963W        W80368  15.401  36.924  10.202
11964W        W80369   2.002  29.226  12.707
11965W        W80370  36.869  25.104   4.076
11966W        W80371  13.692  29.902   0.867
11967W        W80372  42.443  21.443   2.754
11968W        W80373  23.126  33.531   2.569
11969W        W80374  43.921  19.156   4.209
11970W        W80375  13.362  33.952  11.923
11971W        W80376  28.234  35.547   4.935
11972W        W80377  23.834   3.139   4.905
11973W        W80378   7.105  38.322  11.238
11974W        W80379  39.900  26.135   3.798
11975W        W80380  44.628  30.017  13.063
11976W        W80381  28.772   9.868   4.139
11977W        W80382  30.433  20.024  14.077
11978W        W80383   1.701  42.492  10.655
11979W        W80384   3.043   0.934   4.124
11980W        W80385  39.531  39.521  13.278
11981W        W80386   2.846   1.650  13.043
11982W        W80387  18.198  40.094   2.000
11983W        W80388   3.932  29.097   0.858
11984W        W80389  12.713  23.463   1.398
11985W        W80390  15.136  10.249  14.360
11986W        W80391  21.790  20.166   2.452
11987W        W80392   4.739   3.511  11.423
11988W        W80393   3.933   7.703   2.787
11989W        W80394   3.378  22.211  10.749
11990W        W80395  42.002  11.445   1.355
11991W        W80396  10.178   5.470  13.011
11992W        W80397  29.323   0.458  13.504
11993W        W80398  33.849  38.555  13.501
11994W        W80399  26.086  16.335  13.718
11995W        W80400  33.450  37.929   3.307
11996W        W80401  21.610  16.137   4.227
11997W        W80402  27.034  21.284  13.926
11998W        W80403  32.073   6.453  13.606
11999W        W80404  42.865   9.057   4.050
12000W        W80405  39.258  29.491   4.035
12001W        W80406  42.804  24.597   0.985
12002W        W80407  31.713  34.044   1.194
12003W        W80408  43.633  42.566   3.117
12004W        W80409  34.375  31.884   2.230
12005W        W80410  11.988   0.854   1.118
12006W        W80411   9.797  37.812   4.840
12007W        W80412   8.832  27.911   4.534
12008W        W80413  38.927  42.610  13.521
12009W        W80414  43.045  43.906   1.400
12010W        W80415  18.618  40.658  13.253
12011W        W80416   6.814  35.929   3.919
12012W        W80417  42.815  34.490   3.686
12013W        W80418  39.179   6.830   0.723
12014W        W80419  25.434  14.814   2.216
12015W        W80420  13.368  41.998  12.391
12016W        W80421  10.200  27.641   4.633
12017W        W80422  44.719  41.230  13.891
12018W        W80423  20.520  41.573  11.614
12019W        W80424   7.574  38.428  13.346
12020W        W80425  30.897   0.181  13.365
12021W        W80426  15.192  41.869   2.962
12022W        W80427  43.920   1.821   1.987
12023W        W80428  25.150  14.812   0.073
12024W        W80429   7.334  24.479   0.879
12025W        W80430  28.201  22.727   2.917
12026W        W80431  42.867   6.426  13.362
12027W        W80432  43.923  27.936   4.742
12028W        W80433   4.331  10.222  11.119
12029W        W80434  39.949   6.231  14.740
12030W        W80435  19.258  32.145  12.676
12031W        W80436  27.469  13.607   2.153
12032W        W80437  17.539  39.866   0.783
12033W        W80438  22.679  12.781  13.538
12034W        W80439  37.909  22.195  12.047
12035W        W80440  18.085   1.973  14.375
12036W        W80441  25.760  37.643   2.271
12037W        W80442   4.000  39.927   3.678
12038W        W80443  12.739  11.873  10.173
12039W        W80444  43.774   8.239   0.868
12040W        W80445   7.604  27.965  11.939
12041W        W80446  22.645  31.283   3.691
12042W        W80447   5.182   9.651  11.706
12043W        W80448   0.878  13.121  13.967
12044W        W80449  29.702   9.708   4.160
12045W        W80450  31.956  21.094  14.311
12046W        W80451  23.802  17.737  11.909
12047W        W80452  12.680  28.515   4.435
12048W        W80453  14.234  20.035   2.236
12049W        W80454  42.303   6.658  14.891
12050W        W80455  24.007  26.345  14.338
12051W        W80456  29.540  35.672  11.094
12052W        W80457  27.725   5.584  11.027
12053W        W80458  23.215  35.094  11.581
12054W        W80459  18.084  15.173   3.267
12055W        W80460  15.800  31.125   1.880
12056W        W80461  34.033  22.465   2.110
12057W        W80462  33.633  14.731   0.914
12058W        W80463  44.008   5.881  14.558
12059W        W80464  14.862  16.296   4.038
12060W        W80465   0.219  19.096  12.714
12061W        W80466  32.086  11.253  12.202
12062W        W80467   4.310  23.975   2.905
12063W        W80468   8.948   3.734   4.286
12064W        W80469  13.219   2.115   5.418
12065W        W80470   6.439  37.468  11.581
12066W        W80471  43.441   3.758   4.904
12067W        W80472   4.560   4.737   0.747
12068W        W80473  11.088   9.882  14.417
12069W        W80474   3.492  34.413  11.329
12070W        W80475  10.851  25.175   1.919
12071W        W80476   2.372   1.001   1.838
12072W        W80477  28.575   0.257   2.119
12073W        W80478  21.768  39.426  14.108
12074W        W80479  35.318  28.187  11.594
12075W        W80480  10.377  36.112   0.852
12076W        W80481  21.775  42.365   1.421
12077W        W80482  16.560  38.294   2.148
12078W        W80483   2.403  16.415   4.881
12079W        W80484   7.260  14.142  14.516
12080W        W80485   2.435   4.656   0.220
12081W        W80486  41.359   5.710   2.211
12082W        W80487  25.536   1.665   4.689
12083W        W80488  25.157   1.450  13.629
12084W        W80489  22.714  26.896   1.707
12085W        W80490  31.987   4.914  13.997
12086W        W80491  29.497  40.546  11.544
12087W        W80492  20.098  15.655  13.806
12088W        W80493  18.536   3.377   1.163
12089W        W80494  38.414  11.407   2.751
12090W        W80495  29.415   3.219   2.782
12091W        W80496  18.324   4.532   4.367
12092W        W80497   5.733   9.918  13.817
12093W        W80498   4.509  37.538   2.688
12094W        W80499  30.445  24.112   3.301
12095W        W80500  17.320  10.255  11.079
12096W        W80501  26.012  12.275   3.037
12097W        W80502  18.115   1.931  12.531
12098W        W80503  25.558   9.832   2.186
12099W        W80504  14.293  36.593  10.586
12100W        W80505  39.044  27.855  10.469
12101W        W80506   6.723  38.811   3.624
12102W        W80507  16.295  32.107  14.943
12103W        W80508  33.009  15.482   0.060
12104W        W80509  42.550  10.723   0.267
12105W        W80510  29.977  13.581   4.416
12106W        W80511  40.502   1.684   0.865
12107W        W80512   9.005  40.195  12.113
12108W        W80513  40.003  43.234  10.878
12109W        W80514  20.821  15.724  14.437
12110W        W80515  39.520  34.254   2.774
12111W        W80516   1.214   4.474   1.783
12112W        W80517  14.103  42.470   0.796
12113W        W80518  42.607  30.927  11.178
12114W        W80519  27.761  33.199  12.124
12115W        W80520  37.277   9.625   0.379
12116W        W80521   2.570  27.556   1.627
12117W        W80522  26.489  30.907   0.176
12118W        W80523  25.913  27.428  11.123
12119W        W80524  31.538  10.118  12.038
12120W        W80525  23.846  42.456   1.945
12121W        W80526   4.739  31.875   3.189
12122W        W80527  39.399  30.004  12.348
12123W        W80528  34.683   2.336   3.101
12124W        W80529  26.690  33.351  12.160
12125W        W80530  32.874  44.730   3.814
12126W        W80531  28.834  20.126   4.092
12127W        W80532  38.827   2.654  13.327
12128W        W80533  43.596  43.757   4.005
12129W        W80534   2.192  18.564   3.662
12130W        W80535  44.041  23.990  11.169
12131W        W80536  23.548   2.411   2.582
12132W        W80537  34.513  42.801  13.573
12133W        W80538  38.893  38.462  14.097
12134W        W80539  17.280   9.562   0.291
12135W        W80540  15.875  35.847   3.334
12136W        W80541  27.999   0.420  11.030
12137W        W80542  29.480  35.798  10.584
12138W        W80543  28.625  34.981  14.507
12139W        W80544   0.814  40.781   4.042
12140W        W80545  26.553  22.579   4.128
12141W        W80546  11.799  25.080  11.683
12142W        W80547  10.829  44.966   3.175
12143W        W80548  18.317  23.553  12.036
12144W        W80549  35.587  23.220  12.621
12145W        W80550  18.690  10.486   0.918
12146W        W80551   5.672  41.311  13.851
12147W        W80552  14.155   0.123   0.255
12148W        W80553   7.442   0.940  10.991
12149W        W80554  37.939  30.897  13.782
12150W        W80555   3.803   4.709   3.415
12151W        W80556   2.163  34.846   3.254
12152W        W80557  37.821  12.035   1.852
12153W        W80558  33.121   3.360  11.974
12154W        W80559  35.622  33.093   4.318
12155W        W80560   9.402  13.467  14.877
12156W        W80561  39.734  41.826  12.050
12157W        W80562  27.555  26.677   2.024
12158W        W80563  22.441   3.721  14.943
12159W        W80564  39.827  32.073  10.356
12160W        W80565  42.716  25.497   1.566
12161W        W80566  43.909  34.375  11.126
12162W        W80567  26.334   1.438  10.659
12163W        W80568  39.065  37.842  12.819
12164W        W80569  16.908  29.451  11.012
12165W        W80570   1.084   3.617  13.939
12166W        W80571  16.610   8.469   3.190
12167W        W80572  13.028   7.643  10.550
12168W        W80573   7.714  41.062  12.437
12169W        W80574  40.318  37.392   3.140
12170W        W80575  36.492  40.098  13.945
12171W        W80576   7.234   0.596   4.461
12172W        W80577  14.528  27.902  10.982
12173W        W80578  28.539  26.923  12.816
12174W        W80579  22.805  10.377   1.009
12175W        W80580   8.289  31.840   2.440
12176W        W80581  40.444  23.052   3.188
12177W        W80582   7.199  41.368   1.630
12178W        W80583  30.556  10.321   1.236
12179W        W80584  23.902  38.582  11.246
12180W        W80585  14.636  10.402  14.345
12181W        W80586  12.109  44.942   4.549
12182W        W80587   6.361  12.250   2.394
12183W        W80588  39.360  35.382   3.746
12184W        W80589  14.114  41.903  13.320
12185W        W80590  25.453  17.220   1.146
12186W        W80591   6.407  32.053  11.979
12187W        W80592  17.534  32.626   4.184
12188W        W80593  11.344  33.000   4.881
12189W        W80594  16.184  41.533  11.631
12190W        W80595  11.931  31.444  13.467
12191W        W80596   8.806  24.609  12.596
12192W        W80597  12.158  43.611  12.962
12193W        W80598  18.831  31.544  14.379
12194W        W80599  40.859  16.636   3.917
12195W        W80600  39.038  25.225  13.830
12196W        W80601  11.374  37.378   0.208
12197W        W80602  34.336   1.928  11.203
12198W        W80603   2.055  26.580  10.488
12199W        W80604  36.282   3.753  12.033
12200W        W80605   3.612  17.470  11.210
12201W        W80606   4.452  43.287   1.732
12202W        W80607  26.939  16.589  13.527
12203W        W80608  40.941  35.701  14.427
12204W        W80609   1.146  35.931  14.348
12205W        W80610  17.562  21.651   3.305
12206W        W80611  27.134   6.335   3.136
12207W        W80612   9.211  38.762  14.479
12208W        W80613   6.345  14.120  12.167
12209W        W80614   9.775  13.672  12.923
12210W        W80615   3.897  38.981   3.843
12211W        W80616  33.570  13.383   1.936
12212W        W80617  31.306  25.953   3.544
12213W        W80618  23.007   8.647   1.273
12214W        W80619  22.537  34.914  12.068
12215W        W80620  22.178  32.950   2.656
12216W        W80621  25.060  27.525   0.672
12217W        W80622  17.725  37.965  13.869
12218W        W80623  37.533  41.332   4.528
12219W        W80624  17.556  24.673  11.639
12220W        W80625  35.588  21.713  13.592
12221W        W80626   7.920  41.245  14.616
12222W        W80627  35.128  21.044   0.743
12223W        W80628  18.520   6.348   1.921
12224W        W80629  28.476  24.095  12.098
12225W        W80630  42.970  17.327   0.930
12226W        W80631   8.390   5.861  11.511
12227W        W80632   2.490  10.873  14.040
12228W        W80633  29.360  42.283  13.880
12229W        W80634  12.951  28.369  11.168
12230W        W80635  44.237  17.100   1.368
12231W        W80636  42.499  20.001  12.559
12232W        W80637  30.723   8.098  13.700
12233W        W80638  15.783   6.427   0.869
12234W        W80639  25.656  36.174  12.779
12235W        W80640  27.466  35.642  11.420
12236W        W80641   1.517  14.375   4.015
12237W        W80642  43.649  18.774   0.120
12238W        W80643  12.243  35.743   1.855
12239W        W80644  42.031  13.812   3.221
12240W        W80645   4.238  25.728  14.365
12241W        W80646  39.015  12.043  14.793
12242W        W80647  41.220   1.352  12.304
12243W        W80648  18.673   5.446  13.299
12244W        W80649  36.142  30.054  12.617
12245W        W80650  30.139   0.617  12.465
12246W        W80651  31.102  11.910  11.567
12247W        W80652  44.404  37.760  14.837
12248W        W80653  12.953   4.654  14.062
12249W        W80654  29.721  36.550   0.214
12250W        W80655   3.695  12.492   2.166
12251W        W80656  27.485   3.910  13.054
12252W        W80657  24.982   2.371  13.264
12253W        W80658  31.966  10.540  11.231
12254W        W80659  40.690  12.671   5.041
12255W        W80660   8.380  34.441  11.521
12256W        W80661  15.409  13.074   1.619
12257W        W80662  19.085   7.568   1.195
12258W        W80663  18.058   2.285  13.603
12259W        W80664   7.453  18.738  14.819
12260W        W80665   3.961  39.241  14.741
12261W        W80666  14.748   5.440  14.000
12262W        W80667  44.292  29.783   0.184
12263W        W80668  21.889  31.157  12.660
12264W        W80669   9.683  37.359   2.698
12265W        W80670  23.027   0.292   3.131
12266W        W80671  20.067  22.768   2.264
12267W        W80672  27.054  10.310   1.352
12268W        W80673  32.314  22.811   0.471
12269W        W80674  43.796  12.028   4.176
12270W        W80675  44.451  14.748   2.259
12271W        W80676  16.034  14.793   2.923
12272W        W80677  38.476  42.656  13.153
12273W        W80678  21.300  19.199  11.357
12274W        W80679   8.405  17.333   2.703
12275W        W80680   4.868   1.498   2.732
12276W        W80681  25.296   8.824  11.474
12277W        W80682  36.469  14.706   4.182
12278W        W80683  34.539   3.782  14.444
12279W        W80684  31.071  39.452   1.369
12280W        W80685   4.928  39.025   2.404
12281W        W80686  39.357  13.359  10.755
12282W        W80687  15.524   8.762   2.945
12283W        W80688  10.643   9.960   1.312
12284W        W80689  44.063   5.984   2.176
12285W        W80690  10.292  11.642  12.538
12286W        W80691   3.249  30.562   4.181
12287W        W80692  42.003  15.302   3.164
12288W        W80693  12.556  31.080   0.895
12289W        W80694  18.785  27.702   4.434
12290W        W80695  13.292  16.405  12.801
12291W        W80696  40.043   1.307   4.346
12292W        W80697  24.082  29.018  14.223
12293W        W80698  40.789   2.722   1.335
12294W        W80699  19.678  25.483   3.109
12295W        W80700  40.028  19.893  12.632
12296W        W80701  13.834  12.335  11.005
12297W        W80702  15.481  41.330  10.295
12298W        W80703  37.022  27.201   0.534
12299W        W80704  13.636  27.088  14.424
12300W        W80705  41.304  33.091  12.934
12301W        W80706   2.176  29.443   3.568
12302W        W80707  19.513  11.088   4.723
12303W        W80708  29.953  27.689   3.687
12304W        W80709  19.757  30.429  11.151
12305W        W80710  19.136  41.539  13.038
12306W        W80711  40.686  43.057  11.644
12307W        W80712   8.185  16.771  13.407
12308W        W80713   6.989  24.655  13.975
12309W        W80714   0.902  25.277   0.989
12310W        W80715  37.774  10.191  13.475
12311W        W80716  18.511  15.252  14.401
12312W        W80717  25.422  30.672   1.407
12313W        W80718  43.110  27.216   3.751
12314W        W80719   2.066  41.082  13.463
12315W        W80720   9.098  39.286   0.333
12316W        W80721  38.604  36.417  11.574
12317W        W80722   4.305  33.684   1.025
12318W        W80723   2.762  37.439   0.745
12319W        W80724   7.036  36.209  14.991
12320W        W80725  18.730  40.069   2.719
12321W        W80726  15.538  23.044  12.086
12322W        W80727  32.833  31.480   3.139
12323W        W80728   6.130  23.423   0.203
12324W        W80729   4.296  15.617  10.668
12325W        W80730  35.735  43.318   0.756
12326W        W80731  23.225  17.472   1.451
12327W        W80732  22.810  28.226  12.402
12328W        W80733  25.723  26.008   0.834
12329W        W80734   4.493  25.218   3.126
12330W        W80735  15.512  29.532  13.268
12331W        W80736  36.205  38.701   0.928
12332W        W80737   9.118  43.357  14.096
12333W        W80738   9.581  26.456  14.877
12334W        W80739  13.821  10.780   2.646
12335W        W80740   1.352  39.380   4.696
12336W        W80741  19.796  11.193   3.787
12337W        W80742  33.445   3.626   0.189
12338W        W80743   2.689  39.078   2.862
12339W        W80744  36.098  26.426   3.382
12340W        W80745   0.039  30.994  11.177
12341W        W80746  18.040   4.723   1.678
12342W        W80747  14.824  35.092  14.365
12343W        W80748  14.099  34.655   0.428
12344W        W80749  36.839  44.615  10.787
12345W        W80750   9.814   6.805  10.649
12346W        W80751  20.856  12.410  13.889
12347W        W80752  21.133  39.505   2.670
12348W        W80753   3.589  31.532   4.647
12349W        W80754  26.209  11.600   5.078
12350W        W80755   5.871  25.876   3.662
12351W        W80756  18.490  12.649   4.174
12352W        W80757  16.166  33.087   4.243
12353W        W80758  22.666  24.468   4.535
12354W        W80759   5.289  35.979   3.508
12355W        W80760  17.829  29.175   3.133
12356W        W80761  25.072  30.107   1.393
12357W        W80762  13.341  34.159   1.871
12358W        W80763   0.005  15.621   2.073
12359W        W80764  43.433   4.004   1.377
12360W        W80765   3.798  35.784   5.284
12361W        W80766   6.469   7.095   0.222
12362W        W80767   2.289  27.049   2.756
12363W        W80768  24.647  31.949   4.228
12364W        W80769   4.396  27.557  13.918
12365W        W80770  43.116  41.351  10.406
12366W        W80771  25.108  22.667   3.113
12367W        W80772  12.802  39.839   1.549
12368W        W80773  15.770   0.793  12.901
12369W        W80774   9.439  32.644  10.730
12370W        W80775  28.227   7.583   4.124
12371W        W80776  14.358   5.498  13.619
12372W        W80777   5.575  40.060  14.576
12373W        W80778  41.767  27.189  14.908
12374W        W80779  12.585   3.813  11.818
12375W        W80780  18.460  32.037  12.536
12376W        W80781  28.983  30.165   1.736
12377W        W80782  40.361  33.488   2.112
12378W        W80783  18.766  10.474   2.739
12379W        W80784  26.311   6.510  11.988
12380W        W80785   9.319  21.147   3.238
12381W        W80786  10.768  36.090   4.512
12382W        W80787  35.958  10.017  12.016
12383W        W80788   0.975   7.614  11.738
12384W        W80789   1.418  18.658  13.073
12385W        W80790  33.712  29.168  11.664
12386W        W80791   3.908  30.967  11.232
12387W        W80792  28.803  10.822  11.057
12388W        W80793  15.306  42.487   0.350
12389W        W80794  40.933   1.531  13.987
12390W        W80795  13.558  23.215   0.789
12391W        W80796   8.813  37.801  10.519
12392W        W80797  43.325  33.610  12.587
12393W        W80798  34.524  44.060  11.969
12394W        W80799  13.270   5.256   1.771
12395W        W80800  22.851  41.061   3.481
12396W        W80801  41.300  28.901   1.443
12397W        W80802  42.801  40.948  14.757
12398W        W80803   4.888  28.550  12.472
12399W        W80804  43.105  27.953  11.137
12400W        W80805  27.263   2.272  11.496
12401W        W80806   7.799  37.049   1.709
12402W        W80807  18.689  39.741   1.185
12403W        W80808  35.561  27.724   2.831
12404W        W80809  18.217  38.222  11.197
12405W        W80810  42.786  27.912   1.788
12406W        W80811   4.658  38.061   2.786
12407W        W80812   0.832   1.971  13.404
12408W        W80813   1.818  38.850   1.243
12409W        W80814  11.102  10.346  13.564
12410W        W80815  17.651  39.240  10.256
12411W        W80816  40.330  26.525  14.356
12412W        W80817  15.287  11.693   0.948
12413W        W80818  11.294  28.050   3.329
12414W        W80819   6.615  31.163   1.741
12415W        W80820  11.108  22.074  10.707
12416W        W80821   5.199   3.201  13.465
12417W        W80822   1.982  24.691   1.172
12418W        W80823   6.788  39.316   3.675
12419W        W80824  15.742  23.208   1.668
12420W        W80825  17.054  40.878  13.142
12421W        W80826  29.931  15.340   4.060
12422W        W80827  31.094  18.100  12.691
12423W        W80828  25.718  37.545   0.450
12424W        W80829  44.938  19.682   4.948
12425W        W80830  31.635  12.602  13.844
12426W        W80831  21.580  37.574   0.064
12427W        W80832  11.224  31.519   3.235
12428W        W80833   9.333  34.479  10.523
12429W        W80834   1.204  20.583  10.684
12430W        W80835  31.958   5.394   0.320
12431W        W80836  24.432  12.295  14.767
12432W        W80837  43.238  25.965  12.091
12433W        W80838   5.462  11.393   2.197
12434W        W80839  16.715  34.377  13.292
12435W        W80840  28.434  24.580   0.677
12436W        W80841  25.462  29.710   0.488
12437W        W80842  16.025   0.569   3.039
12438W        W80843  18.106  36.459  14.411
12439W        W80844  19.086   2.257   2.745
12440W        W80845  29.484  17.352  12.049
12441W        W80846   1.873   7.449   4.165
12442W        W80847  26.868   6.286   0.869
12443W        W80848  35.083  37.383   4.687
12444W        W80849  24.173  37.773   4.043
12445W        W80850  25.236  38.426   0.669
12446W        W80851   7.817  13.983   3.594
12447W        W80852  37.761   4.498   3.574
12448W        W80853  12.617  37.927  10.601
12449W        W80854  43.528  18.012  13.041
12450W        W80855  16.995  43.886   1.716
12451W        W80856  19.659  23.357  14.978
12452W        W80857  13.067  28.181   2.891
12453W        W80858  11.128  30.187   1.748
12454W        W80859   4.807  33.954  11.591
12455W        W80860  20.951   9.428   0.967
12456W        W80861  36.470   2.218  14.252
12457W        W80862  16.516   1.935   4.191
12458W        W80863  37.469  24.930   0.942
12459W        W80864  42.409  17.533   3.963
12460W        W80865  25.265   4.848  14.831
12461W        W80866   3.267  32.803  12.134
12462W        W80867  17.575  13.911  13.562
12463W        W80868  28.701  35.383  11.945
12464W        W80869   8.108  32.083   1.309
12465W        W80870  16.789  42.054   2.401
12466W        W80871  14.934  21.316   0.967
12467W        W80872  20.487  10.610  14.499
12468W        W80873  28.765  38.956  11.102
12469W        W80874  39.837  27.149   0.869
12470W        W80875   4.763   3.491   0.347
12471W        W80876  41.527  31.591   4.359
12472W        W80877  36.148  11.298   1.804
12473W        W80878  39.067   5.777   4.296
12474W        W80879  21.963  39.356   1.874
12475W        W80880  40.462   4.623   2.357
12476W        W80881   9.456  34.355   3.365
12477W        W80882  26.140  12.083  12.441
12478W        W80883  41.989  44.525   5.024
12479W        W80884  34.835  10.244   2.777
12480W        W80885  17.865   1.056   2.279
12481W        W80886  42.909  33.355  14.387
12482W        W80887  14.239  40.577  13.341
12483W        W80888  22.504  26.064  12.767
12484W        W80889   8.904   0.939   2.257
12485W        W80890  11.664  11.173   3.607
12486W        W80891  44.222  39.977  12.519
12487W        W80892  26.045  43.394   0.882
12488W        W80893  14.794   7.733  12.873
12489W        W80894  35.019  11.168   0.218
12490W        W80895  15.599  14.040   1.851
12491W        W80896  15.103   2.995   5.444
12492W        W80897  44.202   1.614  13.927
12493W        W80898   0.821   5.392  10.923
12494W        W80899  35.388  26.131   3.951
12495W        W80900   4.749   0.282   0.371
12496W        W80901  41.751  35.967   0.853
12497W        W80902  21.751  12.721   2.820
12498W        W80903  34.584   0.119   0.173
12499W        W80904  41.596  20.143   0.949
12500W        W80905  37.690  29.083  11.621
12501W        W80906  30.624  38.015   3.833
12502W        W80907  12.553   0.295  13.804
12503W        W80908  30.129   2.254  11.521
12504W        W80909  41.569  31.898  14.523
12505W        W80910  10.867  42.914   0.378
12506W        W80911  29.069   9.826   2.824
12507W        W80912   6.336  14.757   2.321
12508W        W80913  20.395  44.843  12.824
12509W        W80914  19.717  19.107   2.244
12510W        W80915  35.490  40.011   0.934
12511W        W80916   2.932  24.481   4.664
12512W        W80917   2.297  38.512  11.132
12513W        W80918  11.420  27.937  13.589
12514W        W80919  32.033  23.276  12.458
12515W        W80920  15.103  21.901  12.326
12516W        W80921  19.047  23.778   2.748
12517W        W80922  11.332  28.256   1.299
12518W        W80923   0.338  17.878   2.230
12519W        W80924  16.668   0.511   4.191
12520W        W80925  26.078  43.311  10.350
12521W        W80926  37.849   9.830   4.653
12522W        W80927  28.421  29.584  12.357
12523W        W80928   4.874  18.716  12.395
12524W        W80929  22.567  14.276   0.453
12525W        W80930  31.494  35.714   1.224
12526W        W80931  37.385  30.154   1.923
12527W        W80932  32.324  14.156  12.825
12528W        W80933   2.795  36.272  13.369
12529W        W80934   6.830  38.783   4.131
12530W        W80935  29.285   3.461   3.231
12531W        W80936  28.499  13.303  13.638
12532W        W80937  26.374  38.476   4.136
12533W        W80938   8.668  25.175  14.364
12534W        W80939  29.801   0.878   0.722
12535W        W80940  30.976  38.786  11.545
12536W        W80941   8.403   8.952  14.566
12537W        W80942  18.566  29.993   2.363
12538W        W80943   0.280  28.276  13.797
12539W        W80944  37.881   5.103  10.863
12540W        W80945  13.884  16.098   0.387
12541W        W80946  21.273  44.569  11.129
12542W        W80947  25.641  26.590   2.654
12543W        W80948  19.580  39.274  12.802
12544W        W80949  21.992  20.507   1.316
12545W        W80950  27.947  22.225  13.534
12546W        W80951  38.466  38.548   1.493
12547W        W80952  27.929  42.864  13.074
12548W        W80953  41.295  30.257  11.236
12549W        W80954  39.407   5.482  12.786
12550W        W80955   8.808  25.541   1.248
12551W        W80956  27.643  31.940   0.369
12552W        W80957  37.354  28.277  11.551
12553W        W80958  13.659  23.498  11.952
12554W        W80959  13.646  13.607  12.099
12555W        W80960   9.101   0.595   0.152
12556W        W80961   9.293  41.452  12.335
12557W        W80962  25.957  19.143  13.452
12558W        W80963  28.018   8.680  11.015
12559W        W80964  32.611  13.345  11.585
12560W        W80965  13.162  22.793   2.761
12561W        W80966   1.346   1.814  14.377
12562W        W80967  10.862  22.441  10.438
12563W        W80968  40.409  40.849   1.492
12564W        W80969   7.251  44.468  10.672
12565W        W80970   8.595   8.661   0.908
12566W        W80971  13.634  25.545   0.993
12567W        W80972  10.123  29.667   3.324
12568W        W80973  44.875   2.924   1.915
12569W        W80974   2.341  15.034  12.984
12570W        W80975  34.826  21.173   3.205
12571W        W80976  41.275  28.563  14.510
12572W        W80977  17.338   1.448   4.174
12573W        W80978  44.419  10.067   4.599
12574W        W80979   5.688  43.873   1.740
12575W        W80980   2.901  40.010  12.283
12576W        W80981  41.600  32.226   4.982
12577W        W80982   2.805  15.602  11.632
12578W        W80983  24.876  26.141  11.174
12579W        W80984   1.752  21.177   0.802
12580W        W80985  14.744   4.254  13.493
12581W        W80986  13.654  17.611  13.589
12582W        W80987  43.062   8.114  13.950
12583W        W80988  44.896  39.428   0.398
12584W        W80989  24.909  29.888  14.331
12585W        W80990   1.076  27.919   4.596
12586W        W80991  20.861  37.262  13.475
12587W        W80992  38.056  14.165   0.875
12588W        W80993   8.790  36.349  12.507
12589W        W80994  37.055   8.359   3.615
12590W        W80995  17.888  32.647  12.179
12591W        W80996  34.085  27.368   4.128
12592W        W80997   4.022   7.739  14.376
12593W        W80998   1.493  35.137  12.365
12594W        W80999  25.044  43.452   3.621
12595W        W81000  30.490  43.400   3.491
12596W        W81001  43.069  21.626   1.279
12597W        W81002  20.707  16.240  12.168
12598W        W81003  28.756   8.235   2.861
12599W        W81004  44.178  18.492   1.756
12600W        W81005  26.454   1.861  14.046
12601W        W81006   7.174  43.052   1.335
12602W        W81007  30.024   6.127   3.175
12603W        W81008   5.720  34.523  13.074
12604W        W81009  32.462   0.775   1.883
12605W        W81010  36.238  24.712  12.169
12606W        W81011  16.713  17.780   3.142
12607W        W81012  22.951  33.909  14.879
12608W        W81013  21.928  26.020   1.043
12609W        W81014  42.327   7.163  14.927
12610W        W81015  13.055  34.953   4.655
12611W        W81016   4.897   0.814   0.238
12612W        W81017   0.513  28.565   4.156
12613W        W81018  15.844  39.031   4.109
12614W        W81019   2.197  25.570  12.975
12615W        W81020  29.134  26.010   0.029
12616W        W81021   7.187   2.889  11.841
12617W        W81022  32.132  27.871  10.707
12618W        W81023  31.197  36.010  11.716
12619W        W81024  13.866  19.681   1.336
12620W        W81025   9.464   0.179   5.457
12621W        W81026  35.398  18.531   2.369
12622W        W81027  20.727   1.031  11.917
12623W        W81028  17.750   7.270   5.416
12624W        W81029   9.416  42.976  13.912
12625W        W81030  24.232  35.925   3.814
12626W        W81031  42.307   5.909   1.699
12627W        W81032  14.495  41.413   3.080
12628W        W81033  13.338  20.719  13.847
12629W        W81034  29.259  11.117   3.665
12630W        W81035   6.808   7.420   2.603
12631W        W81036  31.145   6.735   4.917
12632W        W81037   4.379  15.164   1.715
12633W        W81038  10.226  17.199   1.510
12634W        W81039  27.776  20.566  11.029
12635W        W81040   5.232  29.576   0.677
12636W        W81041   7.355  10.266  12.573
12637W        W81042  33.330  32.068   4.743
12638W        W81043   1.213  22.256  14.026
12639W        W81044  29.089  14.704  10.898
12640W        W81045  21.782  29.997  12.448
12641W        W81046  29.047   9.315   2.688
12642W        W81047  36.150  19.725   0.219
12643W        W81048  22.196  40.308  14.374
12644W        W81049  35.833  30.043  13.054
12645W        W81050   5.338  36.966  13.471
12646W        W81051   8.123  16.678   3.126
12647W        W81052   0.841  18.336  13.048
12648W        W81053   7.443  18.720  11.580
12649W        W81054  15.759  15.809  11.713
12650W        W81055  14.229  19.499   3.410
12651W        W81056  31.964  29.946   0.752
12652W        W81057  29.921  24.138   4.091
12653W        W81058  39.551  40.310  11.492
12654W        W81059  17.043  16.568  14.713
12655W        W81060  25.590  41.316  10.158
12656W        W81061   0.983  43.077   0.255
12657W        W81062  35.205  35.812  13.497
12658W        W81063  18.242  34.425   1.676
12659W        W81064  27.486  14.808   3.112
12660W        W81065  36.279  23.894   1.446
12661W        W81066  11.886  23.973   3.110
12662W        W81067  16.047  18.745   1.705
12663W        W81068  41.383   8.226  14.744
12664W        W81069  44.900   7.216  10.245
12665W        W81070   4.109  11.470   0.877
12666W        W81071  41.769   0.811   0.038
12667W        W81072   0.969  41.817  14.913
12668W        W81073  10.509  19.074  12.906
12669W        W81074  36.515  38.579   1.380
12670W        W81075  41.981  31.465  14.027
12671W        W81076  34.126  15.712   4.672
12672W        W81077   6.916  35.872  12.576
12673W        W81078  22.137  32.600   4.951
12674W        W81079  41.495  41.022  13.617
12675W        W81080   9.177   5.866   2.377
12676W        W81081  12.277   5.121  13.194
12677W        W81082  37.392  40.183  12.813
12678W        W81083   3.831  40.976   4.467
12679W        W81084  38.718  40.991  10.781
12680W        W81085  20.651  41.982  12.851
12681W        W81086   6.899   4.865  12.900
12682W        W81087  24.032   5.249  11.669
12683W        W81088  30.849  33.291  11.183
12684W        W81089  37.545  44.524   0.361
12685W        W81090  23.129  27.243  14.970
12686W        W81091  43.983  14.266   2.183
12687W        W81092  26.526  17.192   2.284
12688W        W81093  28.522  25.511  11.549
12689W        W81094  32.128  38.052   2.893
12690W        W81095  26.645  35.575  10.409
12691W        W81096  12.209  29.177  10.852
12692W        W81097  20.261   1.845   3.119
12693W        W81098   3.468  29.369   1.388
12694W        W81099  32.315  43.812   1.411
12695W        W81100  25.645  25.194  11.735
12696W        W81101   4.946  42.398   3.792
12697W        W81102  38.001  35.381  11.078
12698W        W81103  14.184  16.499  11.537
12699W        W81104   2.875  39.071  12.561
12700W        W81105  18.337  25.467   1.827
12701W        W81106  35.900  18.330   0.004
12702W        W81107  11.326  23.969   2.187
12703W        W81108  33.216  15.530  10.195
12704W        W81109  15.395  35.393  11.202
12705W        W81110   7.284  18.274  14.961
12706W        W81111  13.875  39.473   2.662
12707W        W81112  21.025  36.546   4.172
12708W        W81113  25.510   0.796   2.696
12709W        W81114  12.779   8.731   2.656
12710W        W81115  39.978  25.320   4.966
12711W        W81116   3.614  14.063  10.308
12712W        W81117  42.485  20.073   3.288
12713W        W81118  14.043  13.746  14.354
12714W        W81119  43.104  12.666  10.600
12715W        W81120  31.500  12.164   2.741
12716W        W81121  43.902  30.984  10.485
12717W        W81122   6.179  20.911  10.360
12718W        W81123   7.479   6.234   4.596
12719W        W81124  26.764   2.991   0.228
12720W        W81125  26.627   6.668   4.501
12721W        W81126  12.528   9.789   3.246
12722W        W81127  35.154  20.303  12.052
12723W        W81128  27.544  27.428   1.034
12724W        W81129   2.809  17.599  11.224
12725W        W81130  22.510  44.483   9.825
12726W        W81131  40.979  41.260   1.239
12727W        W81132  18.006  24.774   9.851
12728W        W81133  17.311   0.993   4.427
12729W        W81134  32.183  15.781   0.620
12730W        W81135  42.903  43.888  11.881
12731W        W81136  44.011  40.780   0.725
12732W        W81137  19.244  34.442  11.859
12733W        W81138  13.244  23.438  10.789
12734W        W81139  14.311  35.512   4.647
12735W        W81140   4.305  34.742  10.831
12736W        W81141  43.409   5.950   0.893
12737W        W81142  28.117   9.747   3.380
12738W        W81143  40.241   6.849  13.418
12739W        W81144  13.369  10.341  11.851
12740W        W81145   6.544  26.804   0.750
12741W        W81146  15.859  17.835  12.135
12742W        W81147  18.139  42.346   3.643
12743W        W81148  33.822  20.769   3.374
12744W        W81149   0.404  21.722  14.870
12745W        W81150  25.261  38.936   1.589
12746W        W81151   1.818  27.883  13.036
12747W        W81152  27.652  41.441  13.090
12748W        W81153  30.894  28.681  13.984
12749W        W81154  40.538  21.116  13.484
12750W        W81155  42.843   9.419   2.141
12751W        W81156  21.520  14.735   1.735
12752W        W81157  28.241  18.974  13.741
12753W        W81158  24.489  25.224  10.930
12754W        W81159  29.974   8.372   1.046
12755W        W81160  25.879  17.755  14.401
12756W        W81161  31.025  14.794  11.374
12757W        W81162  20.989  27.508   1.943
12758W        W81163  22.253  18.617   1.848
12759W        W81164  24.538  34.114  12.049
12760W        W81165  29.514  38.247   2.294
12761W        W81166  14.843  19.012   3.208
12762W        W81167  23.187  27.180   0.862
12763W        W81168  16.200  33.997  12.013
12764W        W81169  16.161  24.209  10.755
12765W        W81170  22.123   4.165  11.933
12766W        W81171   3.625  39.955  14.364
12767W        W81172  37.499  28.524  14.722
12768W        W81173  42.485  12.362   2.951
12769W        W81174  24.729  13.662   0.706
12770W        W81175  26.718   2.965   2.337
12771W        W81176  27.440  37.831  13.720
12772W        W81177   2.050  32.655  11.949
12773W        W81178  14.738  44.232  12.851
12774W        W81179   1.222  42.873   1.537
12775W        W81180  35.318  40.442   4.115
12776W        W81181  28.241  30.493   4.358
12777W        W81182  29.546  41.051  11.531
12778W        W81183  16.076  27.397   2.358
12779W        W81184  17.908   0.025   3.314
12780W        W81185  10.092  35.943  10.246
12781W        W81186  36.609  42.465   1.108
12782W        W81187  38.881  18.534   1.466
12783W        W81188  16.010   8.325  13.268
12784W        W81189  44.884  44.549   0.919
12785W        W81190  12.613  32.033   4.811
12786W        W81191  44.325  37.457  12.291
12787W        W81192  18.526  15.761   2.679
12788W        W81193  30.177  43.820   0.735
12789W        W81194  14.633  42.208  12.035
12790W        W81195   1.052   7.231   0.799
12791W        W81196  25.450  27.594   2.876
12792W        W81197  24.025  23.802   3.639
12793W        W81198  23.092  32.567  12.541
12794W        W81199  38.804  20.080   0.048
12795W        W81200  18.588   4.880   1.724
12796W        W81201  17.261  41.350   3.926
12797W        W81202   0.278   5.274  13.379
12798W        W81203  21.139  20.650  13.495
12799W        W81204  15.670  32.646   1.426
12800W        W81205   4.418   4.263  13.884
12801W        W81206  32.923  16.840  12.062
12802W        W81207  11.915  41.232  12.004
12803W        W81208  38.605  42.249  12.853
12804W        W81209  34.069   7.679   0.691
12805W        W81210   3.665   5.467   5.445
12806W        W81211  36.004  27.739  14.800
12807W        W81212   5.106  44.829   2.804
12808W        W81213  25.524  40.944  13.275
12809W        W81214  25.026  40.434  11.165
12810W        W81215  40.004  23.293  11.952
12811W        W81216   0.416  13.087  11.195
12812W        W81217  10.377  30.709   1.834
12813W        W81218   9.320  43.606  11.553
12814W        W81219   9.069  15.755  13.131
12815W        W81220  44.141   7.705   4.678
12816W        W81221  39.506  12.664   2.940
12817W        W81222  38.886  11.228   2.957
12818W        W81223  44.664   9.479   5.153
12819W        W81224  24.107  14.072   3.299
12820W        W81225  26.613   5.158  12.323
12821W        W81226   7.921  27.704  12.414
12822W        W81227  14.504  44.268   2.892
12823W        W81228  16.288  25.744  11.128
12824W        W81229  31.848   6.266   3.279
12825W        W81230  37.697  36.181   3.127
12826W        W81231  33.119   1.852  14.330
12827W        W81232   5.782   2.368   0.755
12828W        W81233   5.137  13.486   2.799
12829W        W81234  24.664  39.427  10.450
12830W        W81235  33.670  16.706   4.261
12831W        W81236  42.276  21.994  11.592
12832W        W81237   2.258   7.581  10.378
12833W        W81238   0.830  16.696  11.886
12834W        W81239   4.824  24.318  11.586
12835W        W81240  24.009  31.084   0.319
12836W        W81241  43.170  31.162  10.683
12837W        W81242  42.434  26.755   3.318
12838W        W81243  10.227  12.411   3.364
12839W        W81244   8.817  10.593  13.104
12840W        W81245  11.347  30.037   3.237
12841W        W81246  16.804   1.449   4.131
12842W        W81247  13.458  11.385  13.153
12843W        W81248  17.591  34.245  12.859
12844W        W81249  42.384   9.430   2.371
12845W        W81250   9.948  32.378   2.307
12846W        W81251   4.360  28.600   3.814
12847W        W81252  23.994  22.490  10.954
12848W        W81253  40.966  23.302   1.553
12849W        W81254  30.068  34.850   2.220
12850W        W81255  18.216  39.514   3.735
12851W        W81256   7.167  27.679  11.972
12852W        W81257   8.701   4.850   4.589
12853W        W81258   4.600   4.341  10.219
12854W        W81259  18.762  39.274   0.911
12855W        W81260  14.192   6.895   3.993
12856W        W81261   8.759  31.205   5.103
12857W        W81262  36.084  21.261   3.179
12858W        W81263  13.872   9.891   1.113
12859W        W81264   0.803   6.138  12.504
12860W        W81265   8.415  17.648  11.210
12861W        W81266  32.134   3.354  13.607
12862W        W81267  11.827  10.771  14.409
12863W        W81268  29.700  13.084   3.652
12864W        W81269  37.657  31.359  11.038
12865W        W81270  42.366  22.526   2.260
12866W        W81271  44.376   2.954   3.443
12867W        W81272  17.546   9.793  12.493
12868W        W81273  16.555  44.848   2.720
12869W        W81274  17.618  29.040   1.879
12870W        W81275  18.185  35.866  13.586
12871W        W81276  36.725  19.354   2.160
12872W        W81277   5.039  39.533   3.288
12873W        W81278  19.251  33.280  10.721
12874W        W81279  15.134  22.755  11.226
12875W        W81280  35.034  23.071   3.400
12876W        W81281  30.107   6.867   2.149
12877W        W81282  32.431   8.191  13.993
12878W        W81283  10.802  22.200  12.559
12879W        W81284   1.458  18.973   0.887
12880W        W81285  43.051  39.293   3.732
12881W        W81286  42.387  25.591   0.715
12882W        W81287  27.834   0.772  13.175
12883W        W81288  21.291  17.144   3.234
12884W        W81289   5.411  35.352   2.866
12885W        W81290  33.308  30.056   3.743
12886W        W81291   0.514  13.837   0.748
12887W        W81292  16.244  27.712  10.962
12888W        W81293  30.387  25.473  11.243
12889W        W81294   6.980  35.838   3.013
12890W        W81295  40.735  44.817   2.141
12891W        W81296  33.001  11.250  10.311
12892W        W81297  17.518   9.786   2.652
12893W        W81298  21.532  41.769   0.332
12894W        W81299   9.693  40.248   4.110
12895W        W81300  11.430  21.199   3.162
12896W        W81301  22.760  28.625   4.226
12897W        W81302  19.790  38.128   4.148
12898W        W81303  40.002  12.318  13.884
12899W        W81304   9.153  19.564   1.700
12900W        W81305  42.471  42.303   4.857
12901W        W81306  20.433  20.006  14.836
12902W        W81307  40.573  17.704   3.738
12903W        W81308  26.188   6.278  14.622
12904W        W81309   9.272  27.833   5.248
12905W        W81310  34.838  44.563   4.426
12906W        W81311  20.882  26.063   0.416
12907W        W81312  16.332   6.677   2.884
12908W        W81313   5.686  14.467  10.963
12909W        W81314  24.201  12.789   2.712
12910W        W81315  43.331  41.757   4.084
12911W        W81316  41.481   1.343   4.284
12912W        W81317  34.250  36.329  10.944
12913W        W81318  18.537  28.065   1.214
12914W        W81319  32.242  37.343  12.900
12915W        W81320  34.880  34.102   0.206
12916W        W81321  19.350  12.720   1.348
12917W        W81322  22.333  28.969   5.045
12918W        W81323   3.483  25.597  13.991
12919W        W81324   6.948   5.015  11.032
12920W        W81325  18.674  41.915  10.637
12921W        W81326   4.328  37.499  12.891
12922W        W81327  17.695   9.878  13.875
12923W        W81328   2.228  16.906  10.698
12924W        W81329  26.636  29.074   4.396
12925W        W81330   9.342  24.938   0.900
12926W        W81331  39.465  25.642  14.410
12927W        W81332  36.846  33.848  14.227
12928W        W81333  29.047   3.360   5.052
12929W        W81334  25.555  25.984  12.169
12930W        W81335  33.429  42.450   0.414
12931W        W81336  33.153  35.849  13.540
12932W        W81337  15.305  35.408   5.455
12933W        W81338  27.073  29.108   4.105
12934W        W81339   2.504  37.456  10.758
12935W        W81340  20.075   4.441   0.804
12936W        W81341  23.682  31.778  10.481
12937W        W81342   0.736   8.567  11.241
12938W        W81343  32.817   2.187   4.357
12939W        W81344  20.670  13.174   5.026
12940W        W81345   7.202  40.321   1.342
12941W        W81346  31.115  37.101   4.111
12942W        W81347  11.765  18.509  14.011
12943W        W81348  24.041  14.270  12.466
12944W        W81349   9.236  26.656   2.725
12945W        W81350   5.143  43.366  12.674
12946W        W81351  14.869  40.098  11.568
12947W        W81352  24.655  27.430  10.856
12948W        W81353  24.449  17.250   2.257
12949W        W81354  21.574   3.254  11.140
12950W        W81355  13.178  32.895   1.365
12951W        W81356  18.877  38.109  14.686
12952W        W81357  26.412  34.953   1.304
12953W        W81358  34.206  39.202  12.180
12954W        W81359  41.101  13.548   4.158
12955W        W81360  43.388  31.313  11.835
12956W        W81361  44.623   0.870   3.827
12957W        W81362  39.774   5.782   3.711
12958W        W81363  10.614   3.911   2.103
12959W        W81364   0.083  27.053  13.547
12960W        W81365  24.201  25.931  10.424
12961W        W81366  34.993  20.108  14.920
12962W        W81367   9.284  20.557  12.981
12963W        W81368   4.873   0.870   3.981
12964W        W81369  14.906  26.706   4.171
12965W        W81370   9.373  26.681  14.468
12966W        W81371  15.562  43.763  10.416
12967W        W81372  22.875  32.902   3.219
12968W        W81373  28.068  12.802   2.564
12969W        W81374  14.154   2.049  14.984
12970W        W81375   3.580  26.727  10.017
12971W        W81376  25.637  35.058  11.983
12972W        W81377   1.582  21.725  11.633
12973W        W81378  44.708  24.615   3.747
12974W        W81379   8.690   3.886  12.447
12975W        W81380  19.829  24.701   3.626
12976W        W81381   7.787   5.714  10.735
12977W        W81382   1.196  42.548   0.793
12978W        W81383   0.931  36.780  11.199
12979W        W81384   6.540   4.222  13.033
12980W        W81385  23.675  23.721   1.957
12981W        W81386  18.299  11.405  13.959
12982W        W81387  39.154  12.741  12.476
12983W        W81388  25.847   8.649   2.839
12984W        W81389   6.377  11.666   2.279
12985W        W81390  21.591  38.530  13.521
12986W        W81391   9.397  43.204  11.884
12987W        W81392  15.187   1.694   0.500
12988W        W81393  24.676  36.823  12.483
12989W        W81394  16.316  27.901   0.792
12990W        W81395  31.691  27.371  14.104
12991W        W81396  16.831  32.524  12.870
12992W        W81397  26.748  32.193  13.369
12993W        W81398  30.842   2.413   1.425
12994W        W81399  20.857  42.292   1.793
12995W        W81400  42.482  23.826  12.184
12996W        W81401   2.857  30.676  13.235
12997W        W81402  14.156  14.154  12.507
12998W        W81403  24.487  29.951   3.325
12999W        W81404  42.817  13.110   0.746
13000W        W81405  34.933   2.443   4.319
13001W        W81406  44.276  42.757   1.960
13002W        W81407  41.670  13.042   2.772
13003W        W81408  20.021   3.424   1.597
13004W        W81409  27.019  33.892   2.403
13005W        W81410  39.842  37.504   2.198
13006W        W81411  26.128   9.423  11.163
13007W        W81412   2.029  12.067  12.129
13008W        W81413  10.836  39.338  10.380
13009W        W81414  15.621   5.659   1.331
13010W        W81415  32.991  20.318  13.635
13011W        W81416  15.328  36.288  12.489
13012W        W81417  34.856   2.842   3.026
13013W        W81418  32.176  13.792   2.226
13014W        W81419   6.339  33.317  13.947
13015W        W81420  20.672   8.334   2.930
13016W        W81421  24.140  26.868  14.383
13017W        W81422  19.300   7.987  14.339
13018W        W81423  27.730  28.529  12.994
13019W        W81424  19.638   5.937  13.906
13020W        W81425  30.333  12.046  12.494
13021W        W81426   2.440  32.941  13.437
13022W        W81427   2.583  13.042   2.235
13023W        W81428  18.283   2.434  12.471
13024W        W81429  33.525  28.240   4.393
13025W        W81430   4.681  32.416   2.251
13026W        W81431  25.962  28.111   2.765
13027W        W81432  27.708  30.624   2.747
13028W        W81433   0.460  22.152   0.430
13029W        W81434  27.693  30.046  12.365
13030W        W81435   4.274  17.950  12.512
13031W        W81436  11.150  18.536   3.774
13032W        W81437   0.216  33.241   3.169
13033W        W81438   8.408  28.980  14.001
13034W        W81439  20.932  31.018  10.716
13035W        W81440   5.733  32.712   1.345
13036W        W81441  11.772   8.442   1.784
13037W        W81442  42.929  41.804   3.270
13038W        W81443  14.591  35.143   1.214
13039W        W81444  41.874  14.662   2.897
13040W        W81445  16.224  29.404  14.345
13041W        W81446  40.864   3.982   1.786
13042W        W81447  38.681   1.465  10.631
13043W        W81448  41.123  30.486   5.027
13044W        W81449  22.753  32.317  14.797
13045W        W81450  37.285  35.001   1.471
13046W        W81451  20.098   1.162   0.332
13047W        W81452  20.315  10.396  12.565
13048W        W81453  43.820  14.775  12.666
13049W        W81454   5.394  44.973   2.029
13050W        W81455  28.556  15.181   0.788
13051W        W81456   4.436  30.904   4.640
13052W        W81457  41.596  40.565   1.243
13053W        W81458  42.876  34.358  14.419
13054W        W81459  16.136  35.339  11.406
13055W        W81460   3.927  14.571   4.969
13056W        W81461  42.946  41.507   0.905
13057W        W81462  38.473  37.897   0.209
13058W        W81463   7.408  19.242   0.346
13059W        W81464  24.019  13.350  11.217
13060W        W81465   5.785  37.675  12.503
13061W        W81466  38.949  31.632  13.728
13062W        W81467  24.439  41.403  14.552
13063W        W81468  11.458  40.229   9.994
13064W        W81469  30.704  37.981  13.935
13065W        W81470  34.745  14.202   5.162
13066W        W81471  27.273   4.625  13.321
13067W        W81472   0.710  29.406   3.865
13068W        W81473  35.521  12.048   3.128
13069W        W81474   3.183  11.335   4.794
13070W        W81475  31.570  37.441  11.537
13071W        W81476  31.666  15.845  10.530
13072W        W81477  25.137  14.286   0.021
13073W        W81478  39.796   0.505   3.718
13074W        W81479   5.667  40.515   1.524
13075W        W81480   1.876  29.576  13.097
13076W        W81481  21.140   1.259  11.308
13077W        W81482  27.577  43.190   2.410
13078W        W81483  16.965   6.111  11.784
13079W        W81484  39.346   0.740  13.924
13080W        W81485  21.406  19.104   1.309
13081W        W81486   2.873  14.116  14.712
13082W        W81487  39.489  42.262  10.433
13083W        W81488   2.969  40.353  13.075
13084W        W81489  28.733  43.873  12.480
13085W        W81490   0.564   1.883  14.795
13086W        W81491  31.087   6.177  12.095
13087W        W81492  11.361  22.005  12.481
13088W        W81493   8.709  18.034   0.879
13089W        W81494  36.339  13.809   3.379
13090W        W81495  25.595   8.309   1.617
13091W        W81496   7.899   8.246  12.085
13092W        W81497  40.599   0.865   4.661
13093W        W81498  29.763   3.936   2.377
13094W        W81499  16.327  41.328   2.728
13095W        W81500  37.777  39.522  11.632
13096W        W81501  37.963   0.963  12.953
13097W        W81502  26.097  16.523   2.379
13098W        W81503  17.394   9.199  13.008
13099W        W81504  15.735  18.316   3.370
13100W        W81505   1.904   1.853   2.430
13101W        W81506  40.507  38.425  14.206
13102W        W81507  23.072   6.724   1.196
13103W        W81508  20.732  43.519  13.925
13104W        W81509  29.175   0.333  10.582
13105W        W81510  24.125  29.880   1.747
13106W        W81511  22.166  29.589  14.992
13107W        W81512  25.598  36.131  11.113
13108W        W81513  12.955  43.771  11.969
13109W        W81514  32.547  24.529   1.666
13110W        W81515  16.181   2.488  13.132
13111W        W81516   1.237   6.467  12.566
13112W        W81517  14.748  25.287  10.666
13113W        W81518  31.520  43.276   4.135
13114W        W81519  38.906  31.860  12.501
13115W        W81520  30.415  32.856   2.397
13116W        W81521  27.125   9.754  10.614
13117W        W81522  35.010  30.872   4.087
13118W        W81523  16.471  29.197   0.516
13119W        W81524   4.905  30.940  11.069
13120W        W81525  14.258  41.900   0.185
13121W        W81526  39.287  28.232  10.181
13122W        W81527  25.490  42.999  12.035
13123W        W81528  39.078  26.894  10.473
13124W        W81529  34.043  31.097   4.795
13125W        W81530  16.546   6.258  11.548
13126W        W81531  10.515  38.865  11.545
13127W        W81532  11.315  34.249  12.887
13128W        W81533   8.543   0.833   3.174
13129W        W81534  31.376   0.005  13.381
13130W        W81535   0.766  41.255  11.674
13131W        W81536  43.985  26.247   3.957
13132W        W81537  33.126  23.097   1.159
13133W        W81538  18.277  20.418   5.063
13134W        W81539  16.984   8.634  12.239
13135W        W81540  43.070  10.222   1.179
13136W        W81541  22.052  44.937  14.053
13137W        W81542   6.848  39.161   2.247
13138W        W81543  23.969  32.635  13.039
13139W        W81544   2.830  20.293  12.428
13140W        W81545   5.856   9.265   3.865
13141W        W81546  27.260  37.921  12.301
13142W        W81547  29.443  11.443  14.789
13143W        W81548  23.075   9.050   0.340
13144W        W81549  18.029  17.394   3.252
13145W        W81550  10.897  35.504  14.606
13146W        W81551  25.249  32.882   0.981
13147W        W81552  40.814  39.152   3.564
13148W        W81553  21.392   4.979  11.103
13149W        W81554  33.743  35.327   0.665
13150W        W81555  13.359  44.985   4.332
13151W        W81556  32.118  42.927  12.878
13152W        W81557   3.482  37.271   1.755
13153W        W81558   4.064   7.664   9.951
13154W        W81559  24.655  20.709  13.902
13155W        W81560  32.714  15.791   4.116
13156W        W81561  42.432  15.227   4.904
13157W        W81562   3.987  44.244  14.985
13158W        W81563  12.763  44.043  12.557
13159W        W81564  26.399   7.697  11.606
13160W        W81565  25.249   4.554   2.709
13161W        W81566   7.841  15.094   0.869
13162W        W81567  43.012  21.059   1.268
13163W        W81568  41.949  29.675  13.450
13164W        W81569   0.790  11.761  11.443
13165W        W81570  26.701  35.521   2.840
13166W        W81571  12.319  31.838   1.414
13167W        W81572  29.918  17.951  13.490
13168W        W81573  21.458  35.850   0.366
13169W        W81574  11.530  28.968   4.813
13170W        W81575   3.961  27.623   4.189
13171W        W81576  21.525  34.788  13.458
13172W        W81577   2.232  38.074  13.922
13173W        W81578  23.477  15.188   3.659
13174W        W81579  18.671  14.316  13.877
13175W        W81580  33.559  30.454  14.168
13176W        W81581  11.422  43.481   0.066
13177W        W81582  20.515   2.501   1.709
13178W        W81583  16.560   2.692   2.784
13179W        W81584  40.454  36.553  14.378
13180W        W81585  40.917   7.729  14.605
13181W        W81586   6.986  13.872   3.195
13182W        W81587  35.148  33.842  13.929
13183W        W81588   5.480  30.083   0.016
13184W        W81589  12.886   6.291   1.003
13185W        W81590  18.669  40.533  11.565
13186W        W81591   7.348  33.376   2.320
13187W        W81592  20.731  26.025  14.888
13188W        W81593  34.179  36.184  11.970
13189W        W81594  27.541  28.055   4.226
13190W        W81595  12.105  30.818  14.354
13191W        W81596  24.578  22.183   3.733
13192W        W81597  39.361  38.095   4.401
13193W        W81598  43.385   4.950  10.472
13194W        W81599   8.381  33.079   1.864
13195W        W81600  24.301  13.501   0.355
13196W        W81601  44.653  26.533   0.658
13197W        W81602  31.163  33.130   1.378
13198W        W81603  10.901  25.979  14.891
13199W        W81604   8.492   6.274   2.395
13200W        W81605  36.219   3.715   3.350
13201W        W81606  17.097  14.909  13.773
13202W        W81607   1.695  39.335   1.056
13203W        W81608  14.765  19.969  11.514
13204W        W81609  38.210  40.808  13.092
13205W        W81610  31.946  38.961   1.230
13206W        W81611   0.461  40.392   4.738
13207W        W81612  37.094   9.783   2.644
13208W        W81613  30.226  16.043  11.741
13209W        W81614  14.090   4.000   0.803
13210W        W81615  27.631  37.283   3.641
13211W        W81616  17.262  42.164   0.344
13212W        W81617   2.782  44.879   0.723
13213W        W81618  34.566  14.183   2.248
13214W        W81619  42.282  35.362  13.613
13215W        W81620  21.256  43.244  11.145
13216W        W81621  38.856   9.374  11.058
13217W        W81622  34.328  32.397  14.332
13218W        W81623  14.200  22.126   4.163
13219W        W81624   3.549  42.282  12.268
13220W        W81625  16.168   0.211  10.464
13221W        W81626   0.694  33.791  11.611
13222W        W81627  35.675   9.517  11.601
13223W        W81628  31.767  39.513   5.051
13224W        W81629  17.358  34.869  11.001
13225W        W81630  15.600  37.358  10.016
13226W        W81631  37.666  41.228   0.988
13227W        W81632  41.399  42.408   0.874
13228W        W81633   1.449  16.136   1.570
13229W        W81634  17.645   5.694  11.161
13230W        W81635   0.872  18.865   3.162
13231W        W81636  30.922  16.606  13.991
13232W        W81637  40.770  15.921  13.912
13233W        W81638  39.867   5.923  14.280
13234W        W81639  17.817  14.237   0.415
13235W        W81640  27.225  21.438  14.435
13236W        W81641  35.897   9.902   4.454
13237W        W81642   9.236  14.275  10.896
13238W        W81643   0.631  22.513   4.796
13239W        W81644  15.381  44.750  13.526
13240W        W81645  30.431  43.152  12.798
13241W        W81646  41.471  11.160   4.514
13242W        W81647  31.417   2.870  13.371
13243W        W81648   3.755  11.947   0.021
13244W        W81649  21.878  39.972   4.485
13245W        W81650  31.873  12.561   2.745
13246W        W81651  35.118  22.360  11.024
13247W        W81652  28.237   4.896   0.851
13248W        W81653   1.943  20.951  10.286
13249W        W81654  34.973  26.334  12.084
13250W        W81655  23.635   5.461  14.933
13251W        W81656  30.537  22.460  13.503
13252W        W81657  26.959  24.747  12.526
13253W        W81658  20.630   1.211  12.995
13254W        W81659  22.590   1.458   1.986
13255W        W81660  36.366  14.787   4.731
13256W        W81661   0.545  38.177   1.022
13257W        W81662   8.797   2.005  13.125
13258W        W81663   3.526  36.526  11.473
13259W        W81664  39.904   7.158   2.292
13260W        W81665  40.875  32.201  11.185
13261W        W81666  43.462  16.503   4.564
13262W        W81667   3.742  24.268  12.242
13263W        W81668  44.451  29.322  14.271
13264W        W81669  33.204  41.958   0.473
13265W        W81670   3.475  39.384   0.175
13266W        W81671  35.973  24.436  11.804
13267W        W81672  21.279  36.412  14.842
13268W        W81673  42.956  11.248   2.910
13269W        W81674  37.136  13.997   0.831
13270W        W81675  15.774  26.319   2.529
13271W        W81676  31.041  25.933   2.752
13272W        W81677  22.418  31.520   4.427
13273W        W81678  30.995  15.688  11.694
13274W        W81679  37.004  38.124   1.220
13275W        W81680  35.621   3.992  12.755
13276W        W81681   9.137   4.893  12.494
13277W        W81682  39.335  25.814  11.144
13278W        W81683  20.936  18.304  14.002
13279W        W81684  16.030  19.635  12.491
13280W        W81685  10.607  28.950  11.024
13281W        W81686  21.256  29.433   1.044
13282W        W81687   9.631   3.319   0.475
13283W        W81688  11.788  25.115  14.836
13284W        W81689  30.515  10.112   4.978
13285W        W81690  10.784   3.351  13.784
13286W        W81691  17.736  30.605   2.342
13287W        W81692  23.176   7.183  10.695
13288W        W81693  35.092  24.166  13.937
13289W        W81694   7.620   0.704   1.758
13290W        W81695   7.717  16.828   1.151
13291W        W81696  13.811  21.296  13.466
13292W        W81697   5.115  41.607   2.772
13293W        W81698  28.498  12.388   4.043
13294W        W81699  40.229  29.429  11.243
13295W        W81700  23.961  44.373  13.689
13296W        W81701   2.525  30.021   0.123
13297W        W81702  18.753  27.011  14.468
13298W        W81703  25.033   6.469   3.819
13299W        W81704  37.074  35.174  11.043
13300W        W81705  32.981   9.080   0.872
13301W        W81706  31.489  27.703   1.128
13302W        W81707  23.799   0.863   1.692
13303W        W81708   8.212  25.971   2.310
13304W        W81709  17.559   8.912   2.902
13305W        W81710   8.695  22.198   4.979
13306W        W81711   2.982  37.924  10.624
13307W        W81712  43.588  28.373  13.317
13308W        W81713  28.789  19.904  13.904
13309W        W81714   6.228  38.639  11.228
13310W        W81715  13.695   0.049  11.191
13311W        W81716  20.103  19.975   4.533
13312W        W81717  27.846  31.562  14.298
13313W        W81718   9.014   5.931   2.907
13314W        W81719  34.160  32.487   0.793
13315W        W81720   3.899  42.947   1.428
13316W        W81721   2.731  39.372   0.732
13317W        W81722  38.566   9.442  13.465
13318W        W81723  23.633  16.026   3.477
13319W        W81724   5.436  16.018  10.953
13320W        W81725  18.652   5.147   2.170
13321W        W81726  32.035  25.561  12.168
13322W        W81727  13.562  37.979   0.436
13323W        W81728   9.309  18.800   4.521
13324W        W81729  31.486  18.148   0.800
13325W        W81730  31.882  13.422   4.074
13326W        W81731  27.264  20.813   2.730
13327W        W81732   7.888  12.052   2.345
13328W        W81733  22.080   8.275  10.754
13329W        W81734  10.427  41.860  11.441
13330W        W81735  36.834  31.511   4.808
13331W        W81736  17.069  24.670  13.932
13332W        W81737  37.292  34.587   4.666
13333W        W81738  31.679  36.415  11.734
13334W        W81739  11.719  31.590   4.630
13335W        W81740  24.682   1.422  14.328
13336W        W81741  24.154  44.290  11.671
13337W        W81742   3.366   4.896   3.175
13338W        W81743   1.261   8.328   4.834
13339W        W81744   3.997  41.335  12.919
13340W        W81745  10.285  30.543  12.927
13341W        W81746   3.859   7.602   3.632
13342W        W81747   2.436   9.386   1.914
13343W        W81748  39.093  31.087   1.296
13344W        W81749  22.687  36.658  13.935
13345W        W81750  32.575  36.294  13.532
13346W        W81751   1.423   7.658   2.223
13347W        W81752   4.180  35.077  11.236
13348W        W81753   5.196  20.972  12.792
13349W        W81754  19.858  28.105  11.621
13350W        W81755  23.700  27.662   1.198
13351W        W81756  10.390  30.351  11.214
13352W        W81757   8.976  18.591   0.773
13353W        W81758  22.701  40.477  10.643
13354W        W81759  35.963   7.965   3.796
13355W        W81760  20.503  11.968   3.698
13356W        W81761  29.436  34.946  11.059
13357W        W81762   2.836  38.878  14.006
13358W        W81763  16.625  23.607  11.704
13359W        W81764   5.493  15.492  11.046
13360W        W81765   4.446  39.430  11.198
13361W        W81766  16.192  43.775   1.503
13362W        W81767  14.608   6.205   5.002
13363W        W81768   5.517  20.523  14.866
13364W        W81769   4.338  42.990   4.158
13365W        W81770  10.723  13.186  11.105
13366W        W81771  42.600  10.144  13.490
13367W        W81772  34.899  25.675  14.330
13368W        W81773   6.915  40.015  10.298
13369W        W81774  15.252   9.882  13.991
13370W        W81775  26.197  38.432   1.438
13371W        W81776  22.088  14.607  11.864
13372W        W81777  30.111  35.936   3.180
13373W        W81778  41.821   0.110  14.539
13374W        W81779  17.826  41.549  14.929
13375W        W81780  39.981  13.983  12.439
13376W        W81781  34.377  35.026   2.751
13377W        W81782   2.862  15.682  14.878
13378W        W81783  15.755   6.963   0.931
13379W        W81784   8.438  40.808  13.559
13380W        W81785   8.778  27.129  14.830
13381W        W81786  24.461  32.122   1.708
13382W        W81787  40.816   9.850   4.810
13383W        W81788   3.889   5.988   0.058
13384W        W81789  20.043  20.496  12.529
13385W        W81790  10.116  18.710  11.076
13386W        W81791   0.449   9.250  14.021
13387W        W81792  29.105   7.574   4.120
13388W        W81793  26.259  21.365   0.879
13389W        W81794   0.802   3.812  11.509
13390W        W81795   2.900   6.127  12.025
13391W        W81796  11.677  43.936   4.668
13392W        W81797   5.021  40.829   3.780
13393W        W81798  20.172  43.551   4.204
13394W        W81799   8.185  41.934  12.141
13395W        W81800  32.638  15.665   0.391
13396W        W81801  22.826  26.773   2.197
13397W        W81802  35.963   7.899  14.523
13398W        W81803   7.521  43.438   1.281
13399W        W81804  10.675  36.836  12.864
13400W        W81805  22.153   7.206   2.336
13401W        W81806  21.867   5.414   1.387
13402W        W81807  41.479   2.355  11.698
13403W        W81808  30.472   5.966   0.511
13404W        W81809  36.404  25.097   3.878
13405W        W81810  34.678  30.909   2.029
13406W        W81811   4.430   0.922  10.671
13407W        W81812   1.389  38.986   5.078
13408W        W81813  40.624  38.907  13.943
13409W        W81814  34.842  36.962  12.976
13410W        W81815  37.353   2.758  14.296
13411W        W81816  40.028  42.026   4.671
13412W        W81817  31.675  24.067  13.941
13413W        W81818   1.454  44.887  12.503
13414W        W81819  27.860  19.736   4.492
13415W        W81820  18.167  23.284  10.771
13416W        W81821  23.150  11.095   0.439
13417W        W81822  23.170  13.041  14.314
13418W        W81823  19.953  15.181   1.216
13419W        W81824  33.100  30.944  13.901
13420W        W81825  23.040   3.331   4.298
13421W        W81826  18.017  22.351  11.578
13422W        W81827   6.348  28.723   3.658
13423W        W81828  44.745  17.853  13.547
13424W        W81829  38.613   9.598   1.879
13425W        W81830  17.133  42.252   4.214
13426W        W81831  35.552   1.827   3.956
13427W        W81832  27.753  41.227   1.984
13428W        W81833  32.592  35.435   1.735
13429W        W81834  10.832   8.594   1.746
13430W        W81835  30.676  16.197   5.119
13431W        W81836  41.900  13.273   3.215
13432W        W81837  11.449  42.988   3.282
13433W        W81838  35.967  25.012   3.068
13434W        W81839   9.915   4.805   4.084
13435W        W81840  13.576   9.695   3.178
13436W        W81841  30.689  24.562   3.265
13437W        W81842  43.902   5.432  14.803
13438W        W81843  44.856  24.366  13.597
13439W        W81844   8.784  27.959  14.508
13440W        W81845  43.874  30.136  12.521
13441W        W81846  35.921  23.441   0.362
13442W        W81847  43.713  29.028   0.488
13443W        W81848  12.126  29.727   3.739
13444W        W81849  33.051   9.208   4.633
13445W        W81850   3.313  41.476  10.694
13446W        W81851  24.497  13.070  12.013
13447W        W81852   9.276  42.267   0.830
13448W        W81853  13.534  27.456   1.130
13449W        W81854  39.373  21.461   3.650
13450W        W81855  16.853   7.555   0.341
13451W        W81856  24.394   6.841  12.999
13452W        W81857  44.455  28.041  13.812
13453W        W81858  24.478  21.674   2.173
13454W        W81859   3.923  44.009  13.002
13455W        W81860  24.670  43.599  12.822
13456W        W81861  17.412  44.339   0.285
13457W        W81862   6.472  14.184   2.889
13458W        W81863  15.208  17.903   2.698
13459W        W81864  18.198  38.087   2.519
13460W        W81865   1.900   2.374   0.006
13461W        W81866  13.172  41.155  11.987
13462W        W81867   3.055  13.779  12.660
13463W        W81868   9.874   2.996  13.831
13464W        W81869  42.337  18.036   3.847
13465W        W81870   8.642   2.768   1.691
13466W        W81871  20.477  35.508   2.850
13467W        W81872   7.654  37.040  14.807
13468W        W81873  33.291   5.862   0.758
13469W        W81874  30.544  35.326   3.648
13470W        W81875  38.736  26.631  12.069
13471W        W81876  41.505  36.598  14.899
13472W        W81877  20.735  29.556  14.960
13473W        W81878  35.530  27.183   4.889
13474W        W81879  20.908  25.159  12.279
13475W        W81880  12.289  20.596   1.702
13476W        W81881  44.865  41.946   2.311
13477W        W81882  28.531   2.886   1.199
13478W        W81883   1.287  43.544   2.341
13479W        W81884  11.169  10.147  11.015
13480W        W81885  13.384  20.715  13.303
13481W        W81886  16.053  11.647   1.408
13482W        W81887   4.664  17.542  12.459
13483W        W81888  25.669  39.417   2.680
13484W        W81889  20.629  40.101   0.303
13485W        W81890   1.002  10.926  12.625
13486W        W81891  11.319   9.055   2.338
13487W        W81892  41.416  17.073   1.756
13488W        W81893  26.419  13.237   2.746
13489W        W81894  12.251  30.055  11.378
13490W        W81895  40.786  16.240  13.505
13491W        W81896  21.940  40.375  11.988
13492W        W81897  16.088  35.378   0.287
13493W        W81898   0.319  20.898   2.875
13494W        W81899  32.015  19.495  11.991
13495W        W81900  39.509  40.866  13.434
13496W        W81901  40.871  22.936   0.831
13497W        W81902  40.481  13.159   1.323
13498W        W81903  44.846  44.723   2.933
13499W        W81904  16.000  42.742   2.983
13500W        W81905  14.720  20.248   4.661
13501W        W81906  39.957  19.662   1.675
13502W        W81907  31.183  11.336   0.892
13503W        W81908  18.991  27.388  14.769
13504W        W81909  13.642   6.622  14.417
13505W        W81910  37.928   1.297   3.257
13506W        W81911  40.010  22.355   4.129
13507W        W81912  36.596  34.615   2.273
13508W        W81913  43.359  31.475   1.736
13509W        W81914  16.133  15.586  14.940
13510W        W81915  26.266   0.774  12.065
13511W        W81916  31.031   4.816   9.869
13512W        W81917  36.337  30.122  13.972
13513W        W81918  22.239  32.929  12.477
13514W        W81919  38.491  34.994   2.719
13515W        W81920  30.035   6.147  13.504
13516W        W81921   3.641   8.793   2.222
13517W        W81922  43.427  18.533   0.533
13518W        W81923   6.301  40.818  13.509
13519W        W81924   3.241  42.892   2.795
13520W        W81925   8.962  44.493   0.969
13521W        W81926   3.325  42.825   3.964
13522W        W81927  11.343  40.310  14.824
13523W        W81928  11.184   5.360   1.656
13524W        W81929  15.647  38.531   4.172
13525W        W81930  27.480  22.786   4.524
13526W        W81931  26.243  44.490  11.565
13527W        W81932  19.075   4.784  12.892
13528W        W81933   1.974  26.418  12.781
13529W        W81934  24.666   6.199   3.598
13530W        W81935  14.307  14.609  13.886
13531W        W81936  21.525   4.425   3.135
13532W        W81937  44.401  10.067  13.557
13533W        W81938  44.314  39.910   4.881
13534W        W81939  31.392  41.268   4.354
13535W        W81940  15.203   5.402  14.239
13536W        W81941  36.336   8.713  13.055
13537W        W81942   4.421  25.444  12.983
13538W        W81943  44.809  25.701   4.798
13539W        W81944  18.694  41.181  12.459
13540W        W81945  19.393  11.810   0.906
13541W        W81946  32.442  35.525  10.922
13542W        W81947  12.698  34.072  14.558
13543W        W81948   6.686   7.433  14.891
13544W        W81949  35.798  43.647  12.219
13545W        W81950  33.662  23.217   3.421
13546W        W81951  39.947   1.835   3.693
13547W        W81952  43.498  21.775  11.501
13548W        W81953  18.662  11.584   4.174
13549W        W81954  14.392   7.691   3.827
13550W        W81955  40.552  21.048  14.345
13551W        W81956  35.324  32.829   1.381
13552W        W81957  22.675  37.046   1.311
13553W        W81958  40.600  20.608  10.508
13554W        W81959  14.773   4.176  14.364
13555W        W81960  14.857  31.766   0.848
13556W        W81961   7.970  18.644  14.874
13557W        W81962  29.177  26.731  12.528
13558W        W81963  34.483  25.647  12.030
13559W        W81964   9.452  38.696   4.042
13560W        W81965  10.310  29.720   2.481
13561W        W81966  25.677  33.436  10.535
13562W        W81967  14.586   2.427   4.027
13563W        W81968  26.500  18.844   3.338
13564W        W81969  13.687  15.044  14.363
13565W        W81970   6.281   4.958   3.982
13566W        W81971  42.539   2.248   2.152
13567W        W81972  41.018  12.789   0.806
13568W        W81973  39.524  16.837   3.583
13569W        W81974  23.086  17.509  13.718
13570W        W81975   9.750  13.552  14.272
13571W        W81976  31.565  34.085  12.408
13572W        W81977  31.752   0.793  13.044
13573W        W81978   2.279  26.094   0.919
13574W        W81979  30.530  35.341  14.343
13575W        W81980  26.923  43.916   0.267
13576W        W81981  21.008  16.342   0.401
13577W        W81982   3.088  37.067   1.494
13578W        W81983  35.009   4.283  12.360
13579W        W81984   6.416   3.223   2.233
13580W        W81985  14.618  40.325   1.134
13581W        W81986   8.408  10.297   0.352
13582W        W81987  27.448  19.617  12.544
13583W        W81988   3.254   0.067  11.067
13584W        W81989  42.417  33.521  10.645
13585W        W81990  20.462  26.543   2.500
13586W        W81991  38.147  31.315  13.439
13587W        W81992  10.721   1.887  10.539
13588W        W81993  20.057  19.023  12.299
13589W        W81994  38.933  20.667   3.685
13590W        W81995  44.410  12.895  11.090
13591W        W81996   4.007  10.447   3.413
13592W        W81997  17.606  30.964  14.288
13593W        W81998  30.457  32.904  14.211
13594W        W81999   2.221   6.856  11.851
13595W        W82000  41.477  16.599  10.714
13596W        W82001  15.865  37.012   3.246
13597W        W82002   0.916  31.683  14.983
13598W        W82003  44.667   0.919  12.428
13599W        W82004  19.689   3.092   2.817
13600W        W82005  10.495  39.185   4.073
13601W        W82006  21.346  42.940   2.251
13602W        W82007  40.720  34.040   3.282
13603W        W82008  21.148   7.699  14.464
13604W        W82009   2.210  35.063  11.108
13605W        W82010  21.530  21.701  10.830
13606W        W82011  42.861   5.885  11.692
13607W        W82012   2.229   6.155  11.246
13608W        W82013  23.966  40.815   2.554
13609W        W82014  32.031  17.095   0.317
13610W        W82015  42.018  18.222  12.170
13611W        W82016  32.443  37.737   4.313
13612W        W82017  27.880  10.883   1.422
13613W        W82018  30.767   6.450   5.117
13614W        W82019   3.238   6.333   1.716
13615W        W82020   2.932   4.684   4.127
13616W        W82021  29.456  38.104   0.689
13617W        W82022  25.598   5.390   2.658
13618W        W82023  44.481   1.375  11.846
13619W        W82024  18.696  25.424   3.343
13620W        W82025  12.194  39.949   3.397
13621W        W82026  27.116  29.192  11.999
13622W        W82027   4.419  36.300   4.148
13623W        W82028  38.440   5.373   0.332
13624W        W82029  26.967  39.631   0.382
13625W        W82030  13.806   3.411   0.635
13626W        W82031  35.798  12.798   4.332
13627W        W82032  16.994  22.465   4.023
13628W        W82033  18.410  15.117   2.265
13629W        W82034  15.794  30.193  14.519
13630W        W82035  39.174   2.403  12.074
13631W        W82036   0.371  26.500  14.436
13632W        W82037   6.020  42.441   4.746
13633W        W82038  18.790   5.358   4.643
13634W        W82039  40.544  24.815   3.809
13635W        W82040  15.292  39.070   4.130
13636W        W82041  24.001  31.409   1.855
13637W        W82042   8.092   1.506  10.726
13638W        W82043  36.028   2.451   1.971
13639W        W82044   3.317   4.473  10.329
13640W        W82045  36.336   4.301  12.023
13641W        W82046  26.107  24.967   2.816
13642W        W82047  35.534  10.707  11.161
13643W        W82048  13.848  39.610  12.315
13644W        W82049  11.388  23.082  14.419
13645W        W82050  24.076  37.780   3.005
13646W        W82051  34.147  17.695   4.810
13647W        W82052  14.190   1.439   1.641
13648W        W82053   1.709  23.195   3.300
13649W        W82054  38.252  16.671   3.721
13650W        W82055  26.431  38.012   1.697
13651W        W82056  36.138  16.303  14.906
13652W        W82057  10.615  15.086  12.563
13653W        W82058  33.874   2.954   1.714
13654W        W82059  13.451  19.545   4.075
13655W        W82060  22.057  38.837  14.273
13656W        W82061  30.131  36.331   4.581
13657W        W82062  33.753  36.829   0.930
13658W        W82063  40.569  29.220   3.262
13659W        W82064  43.870   6.464   2.202
13660W        W82065  24.671  33.504  13.555
13661W        W82066  14.219  11.977   3.306
13662W        W82067  18.599  16.180  14.468
13663W        W82068  36.746  38.912   0.114
13664W        W82069   4.109  24.256  10.999
13665W        W82070   7.582  13.833   0.352
13666W        W82071  21.785  21.723   2.024
13667W        W82072  19.721  10.938   3.329
13668W        W82073   5.662  35.002   0.528
13669W        W82074   9.804  18.493  13.831
13670W        W82075  24.053  39.864   5.195
13671W        W82076  43.971  25.181   1.356
13672W        W82077  41.299  16.187   0.242
13673W        W82078  21.505  24.045   1.800
13674W        W82079  39.038  29.635   3.575
13675W        W82080  33.996  25.889   3.932
13676W        W82081  38.421  18.065   4.357
13677W        W82082  20.719  20.789   4.528
13678W        W82083  37.824  29.928   2.236
13679W        W82084  16.890  41.504  11.900
13680W        W82085   9.073   1.786   2.209
13681W        W82086  40.816  23.697   4.258
13682W        W82087   5.830   9.172  13.970
13683W        W82088   3.189   8.851   1.950
13684W        W82089  32.411  35.359   0.340
13685W        W82090  41.499  42.410   4.285
13686W        W82091  31.391  38.013   2.246
13687W        W82092  28.613   7.111  12.962
13688W        W82093  42.713  29.781  12.899
13689W        W82094   3.281   0.275   3.710
13690W        W82095  34.328   8.663  14.963
13691W        W82096   3.018  26.709   1.327
13692W        W82097   3.566  21.128  11.556
13693W        W82098  10.751  12.663   3.655
13694W        W82099  12.202   6.664  14.458
13695W        W82100  24.372  32.467   0.500
13696W        W82101  20.072  11.619   0.320
13697W        W82102  16.228   6.699   0.951
13698W        W82103  10.423   8.365  11.935
13699W        W82104  40.820  42.266  12.502
13700W        W82105  34.884   9.482  12.085
13701W        W82106  23.574   2.655  12.594
13702W        W82107  23.713  15.965  10.277
13703W        W82108  11.312  27.944  10.298
13704W        W82109  31.889  44.029  14.825
13705W        W82110   7.368  20.748  12.975
13706W        W82111   9.452  14.671   5.768
13707W        W82112  23.428   0.603   3.239
13708W        W82113  30.070   8.752   1.822
13709W        W82114  37.308  39.557  14.878
13710W        W82115   8.610  14.055   4.487
13711W        W82116  12.030  39.769  13.938
13712W        W82117  16.682  34.053   2.685
13713W        W82118  21.807  25.461   2.566
13714W        W82119  15.691  24.974   4.219
13715W        W82120  15.401  34.243  12.997
13716W        W82121  22.175  13.688   2.603
13717W        W82122   4.993  23.708  13.949
13718W        W82123  43.888  39.300  14.044
13719W        W82124   2.798  37.863  13.030
13720W        W82125   9.811  39.119   1.417
13721W        W82126  36.329  26.662   4.770
13722W        W82127   9.727  29.411  12.937
13723W        W82128  22.246   5.696  13.148
13724W        W82129  42.261  23.681  13.983
13725W        W82130  18.642  21.965  12.334
13726W        W82131  10.182  20.010   3.877
13727W        W82132  26.006   0.222  12.071
13728W        W82133   8.370  13.257  12.883
13729W        W82134  24.099  39.902   4.162
13730W        W82135  28.994   9.499   3.831
13731W        W82136  43.782  35.125  13.398
13732W        W82137  18.756  24.751   0.267
13733W        W82138  22.786   7.171   2.663
13734W        W82139  10.040  39.388   4.158
13735W        W82140  20.823   2.724  10.600
13736W        W82141  38.452  32.475   4.804
13737W        W82142  11.371   7.165   4.114
13738W        W82143  24.195   8.841  12.060
13739W        W82144   7.565  30.657  14.523
13740W        W82145   0.401  42.019   3.684
13741W        W82146  17.593  15.990   1.781
13742W        W82147  37.465   7.776  11.856
13743W        W82148  20.628  23.704   0.839
13744W        W82149  30.999  17.388  12.780
13745W        W82150  43.489   5.747  14.494
13746W        W82151  11.863  29.532   1.801
13747W        W82152   4.554  34.714   2.623
13748W        W82153  16.534  25.816  14.427
13749W        W82154  16.715  40.642  14.960
13750W        W82155  22.969   9.253  13.943
13751W        W82156   9.479  26.641  11.490
13752W        W82157  13.055  29.881   3.870
13753W        W82158  21.722  34.648  12.521
13754W        W82159  19.979  13.238   3.159
13755W        W82160  38.313  14.636   4.446
13756W        W82161  40.507  15.675  14.330
13757W        W82162  20.129  27.911  12.486
13758W        W82163  29.944  20.100  14.862
13759W        W82164  37.879  37.551  14.046
13760W        W82165  31.395  42.503   3.664
13761W        W82166  12.012  30.534  11.066
13762W        W82167  27.120  36.835   2.392
13763W        W82168   9.930  19.776   3.485
13764W        W82169   3.875  44.912   0.429
13765W        W82170   0.214  14.885  10.797
13766W        W82171  39.809  18.578  14.092
13767W        W82172  29.512  44.074  13.564
13768W        W82173  13.127  32.576  13.005
13769W        W82174   7.803  37.372  14.439
13770W        W82175  12.859   5.445  11.115
13771W        W82176   4.796   0.268  10.625
13772W        W82177  10.258  34.644  12.956
13773W        W82178   3.892  43.953   0.411
13774W        W82179  20.048   5.846   4.547
13775W        W82180   3.087   7.668   1.432
13776W        W82181  21.222  26.429  10.725
13777W        W82182  27.174  20.460  14.363
13778W        W82183  17.936  22.727   0.312
13779W        W82184  37.454  29.213   1.677
13780W        W82185  12.862  15.005  11.190
13781W        W82186   9.665  31.199  14.859
13782W        W82187  12.851  12.302   4.913
13783W        W82188   5.523  10.683  10.432
13784W        W82189  33.567  31.156  13.825
13785W        W82190  11.755  10.638   0.908
13786W        W82191  33.103  26.805  12.102
13787W        W82192  32.254   6.260   4.579
13788W        W82193  28.267  26.142   3.611
13789W        W82194  18.498  42.017  12.994
13790W        W82195  30.251  41.789   3.789
13791W        W82196   4.810  10.568  12.150
13792W        W82197  15.119  29.499   1.395
13793W        W82198  30.710   3.312  11.951
13794W        W82199  21.762  23.279   3.628
13795W        W82200  27.653  44.483   0.646
13796W        W82201  15.402   5.491   2.207
13797W        W82202  19.692  43.721   4.240
13798W        W82203  19.211   1.410  12.349
13799W        W82204  18.127  11.274   0.200
13800W        W82205   0.981  38.453   3.282
13801W        W82206  42.228  35.899   3.807
13802W        W82207  30.277  13.215   1.269
13803W        W82208  40.882  30.675  13.531
13804W        W82209  10.340  21.572   1.761
13805W        W82210  10.666  10.024   4.901
13806W        W82211  39.550  43.606  11.169
13807W        W82212  27.492  13.197  14.412
13808W        W82213  24.143  17.579   0.931
13809W        W82214  11.153   5.440  11.200
13810W        W82215   8.344   5.818  14.761
13811W        W82216  28.630  29.716  14.530
13812W        W82217  36.766   5.725  11.174
13813W        W82218  10.049   0.412   4.175
13814W        W82219  22.091  38.373   1.960
13815W        W82220  44.826  13.650   2.410
13816W        W82221  23.594  32.577  14.340
13817W        W82222  24.070  18.033   4.564
13818W        W82223  42.587  39.392   2.153
13819W        W82224  33.148  36.978   3.055
13820W        W82225  27.500  31.928   1.272
13821W        W82226  44.174  41.490  13.421
13822W        W82227  36.369  33.816  14.439
13823W        W82228  30.908  39.710   4.937
13824W        W82229  20.627  14.800   0.487
13825W        W82230   1.892  28.183   0.538
13826W        W82231  41.759  22.640   3.191
13827W        W82232  29.495  10.852  10.791
13828W        W82233  17.261  39.496   4.380
13829W        W82234  27.572  21.977   0.862
13830W        W82235  20.972  18.019   1.669
13831W        W82236  32.618  37.919  13.352
13832W        W82237  10.428  38.008   1.683
13833W        W82238  22.620  24.892  14.565
13834W        W82239  33.103  20.948  14.329
13835W        W82240  17.520  31.354   2.806
13836W        W82241  15.035  25.877  14.885
13837W        W82242   8.470  36.275  11.214
13838W        W82243  14.660  39.783   2.428
13839W        W82244  18.597  15.403  10.458
13840W        W82245  36.429  13.272  13.487
13841W        W82246  20.156   1.271  13.388
13842W        W82247  25.696   7.478  13.863
13843W        W82248  38.095   4.231   1.768
13844W        W82249   6.294  29.262   3.146
13845W        W82250  33.911  21.478   4.539
13846W        W82251   6.875  28.941  13.113
13847W        W82252  38.081  10.772   0.474
13848W        W82253  30.552  37.692   2.370
13849W        W82254  42.459  40.927  11.436
13850W        W82255  29.424  20.110  14.864
13851W        W82256  17.957  25.050   2.603
13852W        W82257  20.523  17.162  10.719
13853W        W82258  13.190  37.299   3.004
13854W        W82259   4.901  38.457   3.094
13855W        W82260  42.295  34.145   4.147
13856W        W82261   4.327   5.833   2.567
13857W        W82262  25.212  12.569  11.547
13858W        W82263   0.746  31.814   1.475
13859W        W82264  19.643  20.999   3.168
13860W        W82265   4.358  41.569   1.226
13861W        W82266  13.626  20.325  12.349
13862W        W82267  14.713  20.062  12.425
13863W        W82268  18.909  31.023   3.713
13864W        W82269  17.727  11.243  10.869
13865W        W82270  27.575  12.151   0.498
13866W        W82271  17.566  11.734   0.840
13867W        W82272  29.322  37.966  10.640
13868W        W82273  11.647   1.727  12.138
13869W        W82274  37.256  31.079  13.425
13870W        W82275  30.008  41.508  11.129
13871W        W82276  31.820  31.117   4.092
13872W        W82277  25.552  26.754  10.358
13873W        W82278  28.941  26.444   3.221
13874W        W82279   7.884   7.668   5.076
13875W        W82280  25.779  20.591   3.711
13876W        W82281  41.458  42.007   1.208
13877W        W82282  14.745  23.672   3.664
13878W        W82283  35.804   6.242  14.406
13879W        W82284  32.526  15.916  10.794
13880W        W82285  11.939  35.212  14.532
13881W        W82286  13.339   4.462   1.237
13882W        W82287   4.178  15.355  14.732
13883W        W82288  44.562  31.707   9.951
13884W        W82289   3.096  40.094  14.524
13885W        W82290  23.076  38.550  14.405
13886W        W82291  40.080   6.543   0.649
13887W        W82292  23.604  24.813  11.136
13888W        W82293  43.819  43.282   2.411
13889W        W82294  26.416  31.447  14.470
13890W        W82295  26.004   4.095  13.843
13891W        W82296  31.484  40.206  13.986
13892W        W82297   7.926  26.255   3.324
13893W        W82298  33.087  34.166   4.468
13894W        W82299  32.049   1.803  12.353
13895W        W82300  33.523  37.831  14.916
13896W        W82301  19.468  43.849   1.952
13897W        W82302  29.764   1.080  10.266
13898W        W82303  15.211   7.462   1.386
13899W        W82304  18.748  39.804  12.306
13900W        W82305  44.252   2.897   3.950
13901W        W82306  30.612  29.993   3.636
13902W        W82307   3.684  44.783   3.744
13903W        W82308  24.555  11.262  13.250
13904W        W82309  43.821  44.745   3.172
13905W        W82310  37.935  25.903   3.991
13906W        W82311   7.344  29.224  13.088
13907W        W82312   3.847  14.840   4.520
13908W        W82313  17.597  15.271   0.996
13909W        W82314   7.618  32.832   2.218
13910W        W82315  32.993  20.259   3.322
13911W        W82316  19.606  36.092   0.254
13912W        W82317  31.315  35.779   4.793
13913W        W82318   1.234   1.691  11.179
13914W        W82319  15.779  29.412  11.782
13915W        W82320  22.898  15.659   5.380
13916W        W82321  30.121  13.702  13.468
13917W        W82322  19.630  22.698   2.927
13918W        W82323   8.789  40.342   3.236
13919W        W82324  19.952  22.440   1.013
13920W        W82325  13.344  20.293   3.792
13921W        W82326  12.029  44.772  12.407
13922W        W82327   6.596  22.466  13.396
13923W        W82328  18.217  29.226  12.456
13924W        W82329   9.437  21.057  12.061
13925W        W82330  19.046  25.748  10.691
13926W        W82331  33.625  37.423   3.472
13927W        W82332  18.093   4.442  12.929
13928W        W82333  36.962   6.946   9.864
13929W        W82334  44.777  25.647   3.789
13930W        W82335   3.267  12.228  14.189
13931W        W82336  37.291   6.308   5.501
13932W        W82337  19.261  33.502   0.823
13933W        W82338  27.777  29.627  14.687
13934W        W82339   7.158  23.998   0.956
13935W        W82340  38.789  28.053   3.146
13936W        W82341  35.847  44.332   3.164
13937W        W82342  35.834  32.938   1.398
13938W        W82343  39.345   0.296   3.556
13939W        W82344  17.327  12.758  13.018
13940W        W82345   3.923   9.841   0.311
13941W        W82346  30.573  37.184   2.318
13942W        W82347  23.522  23.207  11.132
13943W        W82348  39.618  29.199  13.441
13944W        W82349  25.875  23.134  12.469
13945W        W82350  30.990  42.838   4.624
13946W        W82351  29.857  17.645   0.950
13947W        W82352  16.238  38.083   1.289
13948W        W82353  31.165  31.373   0.300
13949W        W82354  40.977   2.428  13.389
13950W        W82355  18.820  17.329  11.594
13951W        W82356   1.166  39.439  12.510
13952W        W82357  20.823  30.013  12.136
13953W        W82358  26.221  26.040   1.009
13954W        W82359  17.181  42.439   1.734
13955W        W82360  23.909  11.229  13.858
13956W        W82361  43.358  17.801   4.208
13957W        W82362  21.780  31.410  13.656
13958W        W82363  23.117  24.128   1.347
13959W        W82364  42.164  11.290   0.878
13960W        W82365  26.231  14.904   2.673
13961W        W82366  10.716   5.833   2.106
13962W        W82367  14.062   4.503   0.924
13963W        W82368   9.317   0.367   1.060
13964W        W82369   8.689  43.969  11.047
13965W        W82370  19.235   2.405   0.288
13966W        W82371  40.331   6.776   3.870
13967W        W82372  43.814  10.185  11.614
13968W        W82373   5.749  11.172   2.567
13969W        W82374   1.506  19.034  12.416
13970W        W82375  41.605  14.890  14.617
13971W        W82376   8.121  31.521   0.605
13972W        W82377  34.027  13.748  13.309
13973W        W82378   1.670  25.788   4.030
13974W        W82379  10.340  30.972  11.682
13975W        W82380  22.595  21.646  10.146
13976W        W82381  18.916  40.131  11.159
13977W        W82382  28.670  26.302  14.802
13978W        W82383  36.476  43.755   1.661
13979W        W82384  34.557  39.888  14.558
13980W        W82385  40.004  28.642   0.869
13981W        W82386  23.978  11.290   0.830
13982W        W82387  43.444  10.970   1.291
13983W        W82388  30.687   8.396  12.193
13984W        W82389  28.458  22.206  11.699
13985W        W82390  29.751  44.945  14.645
13986W        W82391  20.014  38.813  12.137
13987W        W82392  14.837   7.218   3.283
13988W        W82393   2.553  29.923  13.332
13989W        W82394   2.951  23.767  12.539
13990W        W82395  29.702  20.209   1.698
13991W        W82396   2.935  42.714  13.423
13992W        W82397  18.736  15.206  13.066
13993W        W82398  38.933  20.810  14.332
13994W        W82399  31.032   7.957   0.394
13995W        W82400  44.895  17.702  14.998
13996W        W82401  41.503  28.546  10.753
13997W        W82402   6.875  40.811  12.744
13998W        W82403  22.986   6.807   1.802
13999W        W82404  40.072  12.715   1.815
14000W        W82405   5.797  28.868  12.361
14001W        W82406  40.627  17.740   4.567
14002W        W82407  18.044  15.102  11.830
14003W        W82408  14.628  14.543  12.520
14004W        W82409  38.311  22.173  12.958
14005W        W82410  27.448  38.203  13.012
14006W        W82411   5.149  24.568  13.104
14007W        W82412  31.316  11.608  13.323
14008W        W82413  24.260  14.162  12.926
14009W        W82414  10.579  23.465  13.086
14010W        W82415  33.435  12.309   1.806
14011W        W82416   1.384  18.862  14.962
14012W        W82417   9.127  20.346  11.506
14013W        W82418  43.846  21.525  11.194
14014W        W82419  22.882  27.480   1.249
14015W        W82420   7.303  16.239   3.333
14016W        W82421  13.502  43.357  13.595
14017W        W82422  37.095  22.828  14.783
14018W        W82423  44.829  10.370  14.377
14019W        W82424  22.695   3.753  12.973
14020W        W82425  10.134  15.847   1.377
14021W        W82426  19.497  13.351   1.549
14022W        W82427  29.688  20.599   1.293
14023W        W82428  16.539  16.101   3.177
14024W        W82429  41.377  44.935  13.074
14025W        W82430  13.864  43.115  10.128
14026W        W82431  40.832   0.084  11.565
14027W        W82432   3.420  35.336   3.218
14028W        W82433   7.517   0.742   2.781
14029W        W82434  33.116  16.024  14.154
14030W        W82435  35.589   9.057   2.974
14031W        W82436  32.123  14.288   4.984
14032W        W82437  31.500  39.809   1.928
14033W        W82438  38.846  43.852   2.832
14034W        W82439   3.999   3.829  12.339
14035W        W82440   5.281  19.110  13.218
14036W        W82441  43.699  11.632   3.257
14037W        W82442  35.820  40.200   2.084
14038W        W82443  15.640   9.665  11.621
14039W        W82444  24.875   5.789   2.477
14040W        W82445   8.174  41.578  11.325
14041W        W82446   7.074  27.819   4.731
14042W        W82447  23.699   5.515   2.677
14043W        W82448  30.100  14.249  13.801
14044W        W82449  42.915  35.178  11.087
14045W        W82450  41.302  43.565   1.710
14046W        W82451  31.056  36.446   1.992
14047W        W82452  39.002  15.846  13.447
14048W        W82453  41.487   9.151  13.952
14049W        W82454  38.591   6.794  10.686
14050W        W82455   9.909  41.116  11.186
14051W        W82456   8.838  36.957   0.821
14052W        W82457  39.084  35.045  10.422
14053W        W82458   9.686  17.006  12.877
14054W        W82459  13.391  31.413  12.519
14055W        W82460  10.983  30.999  12.996
14056W        W82461  29.445  16.585  12.049
14057W        W82462   7.822  36.519  13.022
14058W        W82463  26.680  41.829  13.503
14059W        W82464  40.384  15.272  12.455
14060W        W82465  15.638  24.194  13.438
14061W        W82466   0.013  24.836   4.121
14062W        W82467   5.695  33.543   3.249
14063W        W82468   1.523  21.611   3.652
14064W        W82469  16.789  32.628  14.453
14065W        W82470  29.924  42.742   3.604
14066W        W82471  15.799  26.778   4.388
14067W        W82472  43.537  43.533   0.927
14068W        W82473  14.784  29.657   0.382
14069W        W82474   9.626  18.335   3.667
14070W        W82475  33.360  18.774   4.061
14071W        W82476  18.651  22.150   1.296
14072W        W82477  31.096  10.830   0.744
14073W        W82478  31.550  38.686  12.840
14074W        W82479   1.966  38.712  11.477
14075W        W82480  42.489  43.805  13.076
14076W        W82481  44.044   1.169   3.211
14077W        W82482  34.568  27.036   3.890
14078W        W82483  11.926  15.746   3.669
14079W        W82484  22.994  42.996  13.949
14080W        W82485   4.556  18.580  13.828
14081W        W82486  29.455  29.396   3.134
14082W        W82487  28.785  40.791  11.050
14083W        W82488  25.957  31.588   0.283
14084W        W82489  31.797  15.511  14.770
14085W        W82490  30.069  27.664  12.786
14086W        W82491  40.909  32.631  14.988
14087W        W82492  22.623  40.808   0.318
14088W        W82493  35.449  14.620  14.241
14089W        W82494  26.600  11.239  11.484
14090W        W82495  32.997   9.446   1.864
14091W        W82496  41.938   1.700  13.845
14092W        W82497  33.992  38.341   2.692
14093W        W82498  33.072   4.893  11.198
14094W        W82499  14.566  38.664  13.581
14095W        W82500  12.769  27.996   0.312
14096W        W82501  24.791   9.118   4.105
14097W        W82502  44.203  24.565  12.919
14098W        W82503  28.077  40.814   0.493
14099W        W82504  11.618  30.202   4.128
14100W        W82505   3.038  37.459   2.840
14101W        W82506  22.985  27.670   4.335
14102W        W82507  30.607  28.699  11.941
14103W        W82508  44.903  40.506   2.181
14104W        W82509   9.570  31.509   9.830
14105W        W82510  23.190   6.927   2.320
14106W        W82511  22.063  37.372  12.037
14107W        W82512  27.132  25.573  12.115
14108W        W82513   5.683   6.234  13.929
14109W        W82514  21.212  27.934  14.388
14110W        W82515   8.897  40.851   1.407
14111W        W82516  41.560  43.042   1.782
14112W        W82517  25.178   6.963  13.154
14113W        W82518   7.130  43.704   1.838
14114W        W82519  33.465   8.391   4.839
14115W        W82520  38.486   2.797   4.932
14116W        W82521  36.438  32.876  13.161
14117W        W82522   2.426  12.651   2.874
14118W        W82523  44.949  11.981  11.874
14119W        W82524   2.448  23.675   2.617
14120W        W82525  10.988  19.030   3.843
14121W        W82526   3.170  26.377   1.754
14122W        W82527  28.041   8.291   4.837
14123W        W82528  19.318   6.192  13.330
14124W        W82529  11.751  25.231  12.578
14125W        W82530   1.250  11.600   4.791
14126W        W82531  21.049   5.667  13.375
14127W        W82532  30.684  12.701   4.798
14128W        W82533  13.569  15.792  13.936
14129W        W82534  33.581  34.124   4.328
14130W        W82535   6.269  21.125  11.974
14131W        W82536  29.455  44.287   4.151
14132W        W82537  43.496  32.629   0.291
14133W        W82538  30.582  29.038  11.526
14134W        W82539   0.878  18.723  11.577
14135W        W82540  30.298  22.157  11.996
14136W        W82541  18.776  25.991  13.484
14137W        W82542  15.805   2.944  10.640
14138W        W82543  10.065  37.810   2.676
14139W        W82544  22.441  12.359   1.872
14140W        W82545  37.094  32.566   2.198
14141W        W82546  39.571   4.397  14.103
14142W        W82547   8.657   3.604   9.660
14143W        W82548  23.325  24.686  11.866
14144W        W82549  37.457   7.274   2.248
14145W        W82550   2.731  27.564  11.067
14146W        W82551  43.732  24.217  11.658
14147W        W82552   4.951  26.212   1.675
14148W        W82553   1.280   6.277   0.907
14149W        W82554  28.905  21.113   4.153
14150W        W82555  15.589  10.621   4.150
14151W        W82556  40.638  29.445  14.843
14152W        W82557  23.434   9.877   1.424
14153W        W82558  38.754   3.188   0.854
14154W        W82559  33.031   8.148  10.994
14155W        W82560  23.252   9.085  12.171
14156W        W82561  19.265  10.006  13.225
14157W        W82562  26.381   2.735  14.274
14158W        W82563  16.064  11.822   4.353
14159W        W82564  39.774   5.662   2.778
14160W        W82565  42.895  42.484   3.652
14161W        W82566  17.907  13.130   3.594
14162W        W82567  26.517  41.029  11.970
14163W        W82568  11.821  23.540   1.860
14164W        W82569  25.995  34.023   0.477
14165W        W82570  31.190  38.436   1.095
14166W        W82571  20.795  36.096   4.092
14167W        W82572  33.424   0.410  11.334
14168W        W82573  34.138  18.019  14.801
14169W        W82574   4.352  26.420   2.768
14170W        W82575  33.937   4.364  10.408
14171W        W82576  30.667  37.898   2.819
14172W        W82577  31.664  29.340   0.519
14173W        W82578  24.011  41.580   0.427
14174W        W82579  37.789   8.557   4.142
14175W        W82580   5.902  41.770  13.920
14176W        W82581   8.291  43.262   2.075
14177W        W82582  29.436  17.352  13.002
14178W        W82583  32.628  24.212   1.233
14179W        W82584  38.745   3.279  13.878
14180W        W82585  14.090  42.436  13.330
14181W        W82586   8.402  12.917  14.467
14182W        W82587   9.074  27.671   1.260
14183W        W82588   0.265  11.839  14.031
14184W        W82589  38.798   2.208   5.250
14185W        W82590  13.015   4.201   2.600
14186W        W82591  25.002  27.039   4.456
14187W        W82592  25.734  16.854  11.636
14188W        W82593  29.214  16.364  14.333
14189W        W82594  22.399   6.648  12.852
14190W        W82595   2.849  35.136   2.225
14191W        W82596   0.407  16.836   2.224
14192W        W82597  12.362  43.871   2.497
14193W        W82598  43.700  24.848   2.190
14194W        W82599  35.377  37.025   0.495
14195W        W82600  19.123  23.016   0.775
14196W        W82601  36.108  32.617  11.629
14197W        W82602  26.136   6.769   4.623
14198W        W82603  24.754   9.285   2.317
14199W        W82604   2.757  32.980   0.885
14200W        W82605  19.167  44.920   3.948
14201W        W82606  40.443  22.950  12.679
14202W        W82607   4.963  34.577   4.025
14203W        W82608   7.977  14.006   2.195
14204W        W82609  27.512   3.654  14.392
14205W        W82610  35.191  37.074   0.979
14206W        W82611   4.373  36.880   1.969
14207W        W82612  38.473  25.159   3.953
14208W        W82613   4.958  22.364   5.085
14209W        W82614  11.212   0.594  11.504
14210W        W82615   3.923   9.254  14.092
14211W        W82616  25.563  34.381  13.332
14212W        W82617   8.326  35.414   1.879
14213W        W82618   8.333  28.095   4.495
14214W        W82619   5.317   8.463   1.237
14215W        W82620  38.160  37.391  13.632
14216W        W82621  15.251  39.553  12.354
14217W        W82622  31.011  25.261   2.226
14218W        W82623   7.895   4.544  11.582
14219W        W82624   4.374   3.360  13.880
14220W        W82625  40.762  28.211  12.858
14221W        W82626  35.319  21.152   2.829
14222W        W82627   0.982  44.114   0.347
14223W        W82628  13.535  35.029  13.953
14224W        W82629   9.200  14.693   5.007
14225W        W82630  10.769   8.690   0.385
14226W        W82631   1.280  31.720   1.454
14227W        W82632  22.797  30.950   4.636
14228W        W82633  20.950  10.839  11.896
14229W        W82634  28.299  19.771  10.297
14230W        W82635  35.921  39.403   4.782
14231W        W82636  28.360   0.193  13.591
14232W        W82637   6.200   7.633   2.356
14233W        W82638  10.280   3.761  12.713
14234W        W82639  30.071  34.900   3.218
14235W        W82640  15.105  36.493   0.325
14236W        W82641  39.651   5.663  12.339
14237W        W82642  37.385  12.836   1.353
14238W        W82643  33.935  11.616   1.798
14239W        W82644  37.975  21.449   2.403
14240W        W82645  22.929  26.980  10.706
14241W        W82646  36.326   8.645   3.576
14242W        W82647  39.178  38.422  11.531
14243W        W82648   1.779  21.477  12.073
14244W        W82649  32.064  33.184   1.474
14245W        W82650  40.498  40.938  10.807
14246W        W82651  29.553  17.780   2.422
14247W        W82652  43.264  39.996   4.869
14248W        W82653  31.127   3.493   0.313
14249W        W82654  29.966  37.503   3.161
14250W        W82655  31.067  37.575   2.293
14251W        W82656  17.715  17.558  12.053
14252W        W82657   5.740  18.650   1.152
14253W        W82658  30.598  21.733   4.141
14254W        W82659  11.114  40.438  13.369
14255W        W82660  24.096  15.691   3.074
14256W        W82661   2.155   8.667   3.333
14257W        W82662  12.154  43.700   5.523
14258W        W82663  17.614   2.676   0.845
14259W        W82664   2.331  32.512   1.624
14260W        W82665   3.916  12.492   0.029
14261W        W82666   2.299  35.409  10.735
14262W        W82667  28.065   7.876   4.543
14263W        W82668  11.953  21.613  13.980
14264W        W82669  28.594  23.442   2.388
14265W        W82670  30.302  16.621   3.739
14266W        W82671   3.058  35.120   3.495
14267W        W82672  36.562  41.320   3.620
14268W        W82673  27.479  34.110   4.484
14269W        W82674   4.874  35.922  12.507
14270W        W82675   7.753  33.645   0.485
14271W        W82676   9.657  41.603  12.660
14272W        W82677   5.330   7.624   1.751
14273W        W82678  28.470  25.795  11.093
14274W        W82679  34.054   0.039  13.650
14275W        W82680  16.291  12.653   3.640
14276W        W82681  38.087  20.283  12.906
14277W        W82682  23.526  25.013   2.787
14278W        W82683  10.332  42.039   1.203
14279W        W82684  21.302  23.490  10.531
14280W        W82685  39.268  40.269  11.057
14281W        W82686   1.308  38.203   0.276
14282W        W82687  10.079  29.766   0.371
14283W        W82688  43.290  43.713   3.148
14284W        W82689  43.820  36.832  11.480
14285W        W82690  11.345   7.221   0.976
14286W        W82691   7.663   3.309  12.377
14287W        W82692   8.714  21.255   1.163
14288W        W82693   7.166  35.713  14.941
14289W        W82694  12.612  40.584  11.694
14290W        W82695  30.639  39.882  13.064
14291W        W82696  23.196  44.244   0.384
14292W        W82697  26.309  19.495   1.844
14293W        W82698   3.269  20.381   1.601
14294W        W82699  18.567  23.786  11.659
14295W        W82700  21.536   5.775  10.522
14296W        W82701   7.386  38.627   4.618
14297W        W82702   4.261  39.194   1.324
14298W        W82703  28.035  16.486   1.277
14299W        W82704  16.894  23.629  12.480
14300W        W82705  37.039  37.419   0.374
14301W        W82706   2.027   0.927  13.059
14302W        W82707  15.161  16.582  10.680
14303W        W82708  34.845  41.957  14.455
14304W        W82709  18.200  10.885  11.212
14305W        W82710   9.746  14.137  11.158
14306W        W82711   4.336   7.731  10.691
14307W        W82712  32.127   3.303   2.293
14308W        W82713  19.170  25.689   1.649
14309W        W82714   6.669   2.787   1.554
14310W        W82715  35.079   2.079   4.669
14311W        W82716  30.868  25.657   1.326
14312W        W82717  44.289  25.502   3.786
14313W        W82718  12.593  20.955   0.949
14314W        W82719  34.058  30.168   3.193
14315W        W82720  40.723  12.083   3.280
14316W        W82721  17.365  25.309   4.144
14317W        W82722   1.474  26.525   4.608
14318W        W82723  21.659  21.038   3.684
14319W        W82724  40.358  25.394   2.375
14320W        W82725  24.202  12.536  13.846
14321W        W82726  24.641  29.438  11.044
14322W        W82727   3.165   4.730   0.147
14323W        W82728  24.544  22.076  14.509
14324W        W82729  43.921  37.444   3.545
14325W        W82730  31.376  14.487   4.699
14326W        W82731  14.113  11.868  11.092
14327W        W82732  34.838  32.374   1.862
14328W        W82733   4.606   7.630   4.619
14329W        W82734  41.413   0.941   0.480
14330W        W82735  12.341  38.133  12.561
14331W        W82736   9.496  30.291   5.449
14332W        W82737   8.324  22.959   4.670
14333W        W82738  20.022  24.150   2.887
14334W        W82739  10.300  18.127   3.121
14335W        W82740  16.574  38.900  11.510
14336W        W82741  44.654  18.681  13.486
14337W        W82742  25.459  38.893   0.745
14338W        W82743  22.659  40.331  14.776
14339W        W82744  18.050   9.547  10.837
14340W        W82745   1.138  23.913   3.292
14341W        W82746  25.216   1.202   2.813
14342W        W82747  37.024  22.169   0.831
14343W        W82748   6.687   7.994  14.914
14344W        W82749   9.183   4.879  11.981
14345W        W82750  39.835   3.461  12.056
14346W        W82751  14.367  42.866  11.904
14347W        W82752  23.603   8.803   0.220
14348W        W82753  18.314  10.903  13.779
14349W        W82754  22.675   4.804   4.066
14350W        W82755  27.112  40.768   3.396
14351W        W82756   5.993  11.587  14.455
14352W        W82757  34.874  31.270  12.882
14353W        W82758  33.927  23.039  10.764
14354W        W82759  44.807  36.353  12.538
14355W        W82760  19.007   3.844   4.254
14356W        W82761  30.890  26.266  11.076
14357W        W82762  33.848  30.151   3.702
14358W        W82763  38.436  41.808   4.598
14359W        W82764  38.107  16.844   2.625
14360W        W82765  32.000  44.317   4.719
14361W        W82766  13.675  11.569  12.713
14362W        W82767  15.882  35.044   9.818
14363W        W82768  15.832  27.909  13.014
14364W        W82769  26.988  11.457   0.068
14365W        W82770  38.530   9.176   0.327
14366W        W82771  10.330  20.154  13.963
14367W        W82772  38.632  30.440   1.243
14368W        W82773  44.383  10.456   0.956
14369W        W82774  15.880   2.697  10.190
14370W        W82775  42.899  39.254   4.620
14371W        W82776  15.535  31.089   3.759
14372W        W82777  38.455  44.916   1.717
14373W        W82778  33.025  39.515   2.166
14374W        W82779  32.376  32.517  10.700
14375W        W82780  29.663  21.806   1.804
14376W        W82781  38.850  39.909  13.809
14377W        W82782  17.052  12.609  10.304
14378W        W82783  41.398  37.015  11.011
14379W        W82784  19.365  24.873  11.559
14380W        W82785  19.731   1.607   1.167
14381W        W82786  13.791   4.684   1.426
14382W        W82787  42.805  25.006   3.280
14383W        W82788  22.609  38.628   3.753
14384W        W82789  22.287  20.769   4.757
14385W        W82790  11.803  38.675  12.479
14386W        W82791  32.996  34.449   2.230
14387W        W82792  15.611   5.687   3.604
14388W        W82793  14.411  30.848   0.681
14389W        W82794  32.134  15.173   4.523
14390W        W82795  23.906  25.155  13.322
14391W        W82796  21.540  10.177  13.884
14392W        W82797  18.249   6.785  11.947
14393W        W82798  31.701   6.133   0.939
14394W        W82799  18.038  42.912   3.801
14395W        W82800   7.655  31.545  10.945
14396W        W82801  10.347  37.918   2.204
14397W        W82802  12.401   7.687   1.940
14398W        W82803  31.984   4.226  11.783
14399W        W82804   2.578  37.448  13.369
14400W        W82805   3.010  25.326   0.878
14401W        W82806  11.254  26.021  10.644
14402W        W82807  18.353  42.814   4.187
14403W        W82808  31.777  23.923  11.946
14404W        W82809  37.027   3.317   4.573
14405W        W82810  29.135  10.836  13.963
14406W        W82811   6.927  10.147   4.616
14407W        W82812   0.370  35.356   3.347
14408W        W82813  37.978  25.255   0.777
14409W        W82814  20.531  10.103   0.096
14410W        W82815   4.916  13.514  11.269
14411W        W82816  22.765  17.555   1.225
14412W        W82817  40.255  43.994   1.693
14413W        W82818   9.814  24.071  10.852
14414W        W82819   1.196  35.375  12.009
14415W        W82820  41.362   5.885  10.813
14416W        W82821   9.380   9.452  12.898
14417W        W82822  35.114  27.193   1.721
14418W        W82823  26.213   8.137  10.602
14419W        W82824  44.092  11.562   4.134
14420W        W82825  14.340  21.476   1.457
14421W        W82826  34.603  36.450   4.671
14422W        W82827   0.985  21.602   3.678
14423W        W82828  30.655  30.939   4.625
14424W        W82829   2.703   7.762   3.369
14425W        W82830  20.717   7.020  14.855
14426W        W82831  28.607  21.136   4.583
14427W        W82832  18.320  38.948   2.986
14428W        W82833  32.574  14.982  10.786
14429W        W82834  10.674  10.734  12.455
14430W        W82835  25.860   2.256  10.459
14431W        W82836  29.920   2.790  10.580
14432W        W82837  11.358   8.840  11.529
14433W        W82838   4.749  29.690   1.908
14434W        W82839  24.284   6.378   1.217
14435W        W82840  43.217   4.853  13.201
14436W        W82841  36.552  36.553   4.233
14437W        W82842  43.944  28.980   0.974
14438W        W82843  43.426  28.039   2.295
14439W        W82844  30.991  27.571   1.256
14440W        W82845  35.563  22.136   0.945
14441W        W82846  21.133  43.514   4.100
14442W        W82847  23.271  22.688  11.583
14443W        W82848  38.449   9.726  14.043
14444W        W82849  32.737  38.497  14.976
14445W        W82850   3.643  10.610  14.894
14446W        W82851  29.192  35.407   0.006
14447W        W82852  20.052  41.299  11.611
14448W        W82853  19.587  39.951  14.069
14449W        W82854  19.517  43.093  10.627
14450W        W82855   0.542  27.894   4.646
14451W        W82856  23.339  29.701   3.257
14452W        W82857  42.000  22.195   3.072
14453W        W82858  31.474   8.485  13.920
14454W        W82859   1.576  18.373  13.463
14455W        W82860  25.443  39.945  10.601
14456W        W82861  25.228  16.655  12.868
14457W        W82862   5.912  44.480   0.421
14458W        W82863   5.679   9.727   3.672
14459W        W82864   1.384  11.082   0.752
14460W        W82865  35.467   8.191   3.257
14461W        W82866  30.940  39.672   9.846
14462W        W82867  25.066  13.910   3.829
14463W        W82868  12.894   4.940   0.347
14464W        W82869   0.727  42.587  12.128
14465W        W82870  28.338  30.623  14.373
14466W        W82871  10.901  18.270   3.409
14467W        W82872  32.191  10.066  11.180
14468W        W82873  34.077   4.760   1.368
14469W        W82874   7.062  30.689  14.644
14470W        W82875  33.841   1.835  12.054
14471W        W82876  35.619  21.538  11.207
14472W        W82877   9.223  29.978  13.570
14473W        W82878  43.039   1.520  12.439
14474W        W82879  18.119  42.692   0.403
14475W        W82880  24.857   0.750   0.677
14476W        W82881  11.291  43.369   1.613
14477W        W82882  28.863  37.562   2.696
14478W        W82883  29.619  21.624  11.187
14479W        W82884   3.300  15.314   2.142
14480W        W82885  40.982  44.523   3.720
14481W        W82886   1.145  25.196   0.533
14482W        W82887  22.638  13.293  13.448
14483W        W82888  20.800  25.739  14.404
14484W        W82889  38.072  40.930  14.891
14485W        W82890  43.576   5.711   4.095
14486W        W82891  21.598  30.674   2.478
14487W        W82892   1.032  43.936  13.192
14488W        W82893  12.472  10.201  11.674
14489W        W82894   9.595  18.043  11.564
14490W        W82895   7.161  32.895   0.275
14491W        W82896  20.114  15.434   1.645
14492W        W82897  14.547  18.820  11.058
14493W        W82898   6.954   3.595   4.098
14494W        W82899  25.272  20.668   3.750
14495W        W82900  15.139   2.991  11.131
14496W        W82901  44.941   1.990  13.443
14497W        W82902  24.800  32.440   1.930
14498W        W82903  30.298  42.872  11.942
14499W        W82904   3.292  35.794   4.079
14500W        W82905  23.527   1.868   0.810
14501W        W82906   7.838   9.306   4.937
14502W        W82907  35.566  28.489  14.949
14503W        W82908   6.636  40.529  11.988
14504W        W82909  43.014   3.399   2.093
14505W        W82910  13.910  24.029  13.427
14506W        W82911  43.041  36.077   2.095
14507W        W82912   9.718  38.907  13.075
14508W        W82913  18.106  41.369   4.149
14509W        W82914  13.548  24.673  12.748
14510W        W82915  32.211  38.369  14.843
14511W        W82916  42.984  20.936  13.884
14512W        W82917  43.819  20.560  12.552
14513W        W82918  40.859  39.931  13.846
14514W        W82919  38.460   2.046   4.552
14515W        W82920  21.796  13.634   0.490
14516W        W82921   6.468  28.105  14.479
14517W        W82922   0.247   5.660  12.031
14518W        W82923   2.487   3.925  11.645
14519W        W82924  32.863  18.175  14.388
14520W        W82925  20.813  19.816   2.767
14521W        W82926  31.278  24.599  12.469
14522W        W82927  20.694   9.428  12.918
14523W        W82928  22.508  33.663  12.496
14524W        W82929   3.335  35.121  12.474
14525W        W82930  34.424  21.502   3.266
14526W        W82931  19.331  21.699  13.466
14527W        W82932  15.668  28.671  14.345
14528W        W82933   1.193  32.923  13.411
14529W        W82934  31.500   6.291  11.082
14530W        W82935   0.434  22.218   1.292
14531W        W82936  17.599   3.308  12.489
14532W        W82937  41.672  24.116  12.525
14533W        W82938  19.715   7.891   1.109
14534W        W82939  11.800  10.611   2.845
14535W        W82940  24.204   5.378   4.387
14536W        W82941  11.354  17.552   3.718
14537W        W82942   9.476   1.850  11.955
14538W        W82943  15.499  34.355  12.014
14539W        W82944  40.169  19.627  14.078
14540W        W82945  31.921  40.343   3.130
14541W        W82946  24.274  14.486  12.056
14542W        W82947  14.775  11.376  13.499
14543W        W82948   2.389  43.021   0.512
14544W        W82949   9.382  22.016  13.335
14545W        W82950   6.222  19.349  14.765
14546W        W82951  26.657   6.214  10.496
14547W        W82952  11.224  12.966  11.074
14548W        W82953  12.295  29.891   3.276
14549W        W82954  33.363  29.141   3.729
14550W        W82955   9.274  36.518  11.562
14551W        W82956  29.157   6.032   0.856
14552W        W82957  29.724  39.266  13.549
14553W        W82958   1.439  16.243   1.061
14554W        W82959   6.756   5.274  13.183
14555W        W82960  20.222  29.575  11.585
14556W        W82961  18.631  16.850  10.914
14557W        W82962  41.304  30.391   0.866
14558W        W82963   5.230  18.098  14.264
14559W        W82964   8.565  27.249  11.905
14560W        W82965  42.142  34.401   0.673
14561W        W82966  42.396  31.901  12.062
14562W        W82967  43.812  21.901  12.133
14563W        W82968  35.515  37.795   2.722
14564W        W82969  19.634  24.479   2.847
14565W        W82970  24.675  12.590   2.787
14566W        W82971  41.637   2.287   2.873
14567W        W82972  25.032  16.418   0.351
14568W        W82973   9.280   1.019   4.243
14569W        W82974  23.505  29.080  14.402
14570W        W82975  38.958  18.101   3.082
14571W        W82976  19.657  32.659   0.330
14572W        W82977  27.482  36.117  11.603
14573W        W82978  33.571  11.792  13.310
14574W        W82979   1.983   8.943   2.934
14575W        W82980   3.602  25.235   1.488
14576W        W82981  26.692  32.383  11.776
14577W        W82982  13.429  12.146   3.305
14578W        W82983   1.727  10.074   4.937
14579W        W82984  13.336  42.911  11.937
14580W        W82985  32.367  18.909  14.776
14581W        W82986  41.214  17.060  14.506
14582W        W82987  44.254  19.019   0.165
14583W        W82988  11.449  21.899   0.894
14584W        W82989   7.836  14.497   3.774
14585W        W82990  39.102  24.036   1.557
14586W        W82991   3.269  24.979   1.207
14587W        W82992  26.624  21.521   3.316
14588W        W82993   5.268  15.167   0.512
14589W        W82994   0.900  34.030   2.155
14590W        W82995  24.749  10.557  11.067
14591W        W82996  14.737  31.234  10.715
14592W        W82997  13.300  14.945   0.933
14593W        W82998  21.500   6.803  10.735
14594W        W82999  21.979  27.463  10.675
14595W        W83000  18.474  33.531   0.402
14596W        W83001  32.368  32.986  12.548
14597W        W83002  32.999   0.466   1.228
14598W        W83003  33.816  22.728  14.354
14599W        W83004  13.702   8.504  10.202
14600W        W83005  20.462  30.952  11.023
14601W        W83006  30.894  38.089   2.375
14602W        W83007   0.315  12.227  13.079
14603W        W83008  21.701  42.327   4.248
14604W        W83009  18.521   9.427   0.810
14605W        W83010   4.445  17.708   4.110
14606W        W83011   2.389  44.550  10.996
14607W        W83012  35.882  16.290  13.388
14608W        W83013  36.162  29.188  11.776
14609W        W83014   1.287   6.303   4.129
14610W        W83015   9.643   6.523   4.208
14611W        W83016  31.190  21.657   0.467
14612W        W83017  13.109  24.667   2.373
14613W        W83018  28.610  44.721   3.495
14614W        W83019  22.410   2.040  14.000
14615W        W83020  41.632   4.980   3.388
14616W        W83021  11.315   8.903  14.326
14617W        W83022   8.568   3.617   3.144
14618W        W83023  20.563  19.369  11.125
14619W        W83024  16.958  14.818  11.115
14620W        W83025  24.984  29.207  10.663
14621W        W83026  33.424   1.430  10.496
14622W        W83027  43.587  38.157  14.938
14623W        W83028  28.874  20.821  12.103
14624W        W83029  29.643  43.078   1.223
14625W        W83030   3.683   8.714  14.940
14626W        W83031  31.866  29.054   4.700
14627W        W83032  15.127  31.582   5.368
14628W        W83033  32.774  40.412   2.177
14629W        W83034  25.934  24.170   0.760
14630W        W83035  34.451  32.867   2.871
14631W        W83036   7.969   0.467  14.286
14632W        W83037  44.340  36.866   3.702
14633W        W83038  19.506  10.379  10.661
14634W        W83039   2.413  20.718  14.331
14635W        W83040  17.329   6.422  12.604
14636W        W83041  33.541  29.163   1.631
14637W        W83042   5.443   8.355  11.998
14638W        W83043  30.133  23.619  12.949
14639W        W83044  27.461  31.638   4.046
14640W        W83045  23.363  44.757   0.288
14641W        W83046   0.542   5.214   2.822
14642W        W83047  21.777  44.174  10.194
14643W        W83048  18.809  40.034   4.454
14644W        W83049  42.915  14.689  13.070
14645W        W83050  18.274  35.649   2.445
14646W        W83051   8.698  26.614   4.061
14647W        W83052  43.206  24.429  13.231
14648W        W83053  13.624  25.087   1.233
14649W        W83054  29.746   0.546   4.276
14650W        W83055  33.413  25.154  13.073
14651W        W83056  34.843  25.522  13.793
14652W        W83057  36.877   6.177  12.125
14653W        W83058  17.051  32.509  11.137
14654W        W83059  37.446   4.894   1.942
14655W        W83060  35.039  44.515  10.605
14656W        W83061  27.631  17.041   1.962
14657W        W83062  41.368  19.617  11.491
14658W        W83063  16.180  43.371   0.735
14659W        W83064   1.637  37.466  14.906
14660W        W83065  27.515  36.518  12.905
14661W        W83066  10.947  17.698  12.075
14662W        W83067  35.384  35.423   3.493
14663W        W83068  43.474  13.102   3.616
14664W        W83069   8.092  44.397   4.973
14665W        W83070  11.835  16.681   2.297
14666W        W83071   9.097   1.529   4.206
14667W        W83072  21.129  26.528   1.315
14668W        W83073  22.643  29.565  10.323
14669W        W83074   4.490  44.914   3.247
14670W        W83075   3.225   1.762  11.897
14671W        W83076  30.858  26.431   4.954
14672W        W83077   1.706   7.646  14.785
14673W        W83078   3.888  37.740  12.777
14674W        W83079  16.253  23.610   2.901
14675W        W83080  35.511  43.793   1.281
14676W        W83081  32.578  30.471  12.549
14677W        W83082  31.994  30.528  13.243
14678W        W83083   3.904  34.117   2.785
14679W        W83084  38.444  43.477   1.821
14680W        W83085   3.885   1.381   0.437
14681W        W83086  38.283   2.266   3.497
14682W        W83087  40.389  15.161   1.464
14683W        W83088   6.410  18.189  13.402
14684W        W83089   9.769  40.798  10.743
14685W        W83090  11.446  35.568  13.979
14686W        W83091  21.890  11.489   0.172
14687W        W83092  11.394  26.607  13.487
14688W        W83093  28.528  34.437  10.973
14689W        W83094  29.910  24.504   0.879
14690W        W83095   8.659  37.916   3.191
14691W        W83096  33.715  42.398  12.957
14692W        W83097  42.795  34.515   2.886
14693W        W83098  17.661  38.498  13.755
14694W        W83099  12.215  43.391   1.199
14695W        W83100   4.917  26.882  13.505
14696W        W83101  22.292  11.324   2.790
14697W        W83102  16.178   4.972  10.711
14698W        W83103  34.407   7.182   1.309
14699W        W83104  39.450  33.748  11.649
14700W        W83105   6.055  30.721   0.008
14701W        W83106  11.678  22.011  12.903
14702W        W83107  41.522  41.136  14.115
14703W        W83108  27.417  14.622   0.378
14704W        W83109  15.093  18.944   1.757
14705W        W83110  20.593   0.685  14.839
14706W        W83111   3.292  39.384   1.645
14707W        W83112  36.151  24.248   2.417
14708W        W83113   7.514  21.660  13.323
14709W        W83114  12.800   4.600  14.960
14710W        W83115  41.015  26.168  12.933
14711W        W83116   2.494  12.780  10.546
14712W        W83117   5.336  41.594   3.834
14713W        W83118  27.090  19.197   3.136
14714W        W83119  42.427  13.178   1.911
14715W        W83120  10.403  15.125  14.002
14716W        W83121  35.511  35.893   2.597
14717W        W83122  28.167  10.733   1.857
14718W        W83123   2.776  37.444  11.211
14719W        W83124  17.168  32.005   3.170
14720W        W83125  15.776  17.652   0.569
14721W        W83126  43.331   4.777   3.688
14722W        W83127   0.777  41.395   3.743
14723W        W83128  15.774  43.607  12.651
14724W        W83129   0.148  28.433  12.476
14725W        W83130  36.463  31.980   0.107
14726W        W83131   3.320   3.882  12.046
14727W        W83132  43.895   5.391  14.291
14728W        W83133  20.103  39.580   2.347
14729W        W83134  27.906  17.071   2.830
14730W        W83135  28.396   2.315  13.381
14731W        W83136  15.849  27.228   4.141
14732W        W83137  29.949   6.501   0.989
14733W        W83138  30.153  41.887  13.849
14734W        W83139  21.268  18.723   0.761
14735W        W83140  25.660  44.753  13.410
14736W        W83141  32.558   2.364   0.053
14737W        W83142  30.430  27.478   2.348
14738W        W83143   0.642  13.193   0.321
14739W        W83144  20.250  18.196   0.175
14740W        W83145  21.853  19.955   4.220
14741W        W83146  29.073  40.261  13.634
14742W        W83147  16.273  40.919   3.210
14743W        W83148  44.272   5.890   2.865
14744W        W83149  32.662  43.062  13.572
14745W        W83150  11.827  39.901  11.148
14746W        W83151  27.109   0.420  14.935
14747W        W83152   5.141  29.579  10.579
14748W        W83153  28.177  26.857   2.443
14749W        W83154  10.254  36.082   4.566
14750W        W83155  23.777  25.493  13.996
14751W        W83156  38.032  23.268  14.774
14752W        W83157  32.179   4.734   4.534
14753W        W83158  26.640  30.161  13.831
14754W        W83159  43.017  17.297   3.698
14755W        W83160  41.016  39.020   3.067
14756W        W83161  34.613  10.117  14.666
14757W        W83162  37.247  17.178   3.256
14758W        W83163  43.073  37.811   0.690
14759W        W83164  17.822  21.364   0.060
14760W        W83165   4.019  15.932   1.065
14761W        W83166  17.858  35.684  12.939
14762W        W83167  13.923  27.613  12.091
14763W        W83168  29.087  43.456   3.391
14764W        W83169  14.063  43.567   3.203
14765W        W83170  30.405   5.133  12.480
14766W        W83171   9.338   7.267  13.827
14767W        W83172   8.971  15.292   1.747
14768W        W83173  30.208   5.734   2.200
14769W        W83174   7.156  21.790  12.904
14770W        W83175  22.488  30.528   4.672
14771W        W83176   8.201  27.410   2.191
14772W        W83177  16.123  32.535   0.246
14773W        W83178  25.978  30.187   3.322
14774W        W83179  38.018  12.270   4.219
14775W        W83180  31.553  15.597  11.013
14776W        W83181  27.412  10.573   2.563
14777W        W83182   7.600  23.228  13.923
14778W        W83183  37.101  23.655  11.503
14779W        W83184  12.676  34.607  13.402
14780W        W83185  32.428   2.882  10.474
14781W        W83186  15.288  42.313   3.618
14782W        W83187  37.428   7.281   0.429
14783W        W83188  35.963  22.457   0.792
14784W        W83189   2.243   6.347   2.542
14785W        W83190   1.860  15.552  10.698
14786W        W83191  20.557  35.013   2.729
14787W        W83192  32.986   8.249   4.629
14788W        W83193  32.118  10.365  13.822
14789W        W83194   7.403  34.505  12.482
14790W        W83195  21.065  21.878   5.185
14791W        W83196  24.080  30.584  12.458
14792W        W83197  24.826   5.847  13.431
14793W        W83198   0.950   3.937   3.851
14794W        W83199  37.400  41.960  11.452
14795W        W83200   6.862  25.174   2.772
14796W        W83201   0.425  41.719  12.679
14797W        W83202  35.349   4.920  12.874
14798W        W83203  15.682  42.573  11.536
14799W        W83204   6.652  30.203  12.177
14800W        W83205   3.738  36.331  12.392
14801W        W83206  31.863  29.931  11.838
14802W        W83207   0.218  18.672  12.395
14803W        W83208  31.973  40.012   1.817
14804W        W83209  31.638  23.971  13.409
14805W        W83210  35.811   7.248  12.068
14806W        W83211  27.709  15.052  12.900
14807W        W83212   5.756   7.044   3.638
14808W        W83213  10.186  43.443  14.042
14809W        W83214  39.033   7.342   4.710
14810W        W83215  42.323  10.643  12.018
14811W        W83216  13.331  32.127  10.237
14812W        W83217   7.893  43.514   0.350
14813W        W83218  32.480  17.815  12.597
14814W        W83219   1.233  44.223   3.118
14815W        W83220  23.769  20.614  14.085
14816W        W83221   8.821  35.399   2.170
14817W        W83222   3.860  38.943  13.454
14818W        W83223  31.655  25.878  11.998
14819W        W83224  27.912  13.143   4.171
14820W        W83225   0.728  10.674  14.444
14821W        W83226  10.254  25.014  10.639
14822W        W83227  12.270  30.584  12.652
14823W        W83228  13.783  37.165   3.168
14824W        W83229  38.972  39.250   3.584
14825W        W83230  15.899  26.348   3.296
14826W        W83231  27.012   0.817  14.359
14827W        W83232  26.263   4.382  12.074
14828W        W83233  17.442  22.704   4.094
14829W        W83234  29.985  11.471   0.967
14830W        W83235  34.156  17.726  10.601
14831W        W83236  11.633  22.654  13.544
14832W        W83237  29.556  43.324   0.361
14833W        W83238  34.826  30.642   4.572
14834W        W83239  36.379  21.022   4.069
14835W        W83240  25.090  16.536  14.288
14836W        W83241  37.988  32.918   1.915
14837W        W83242  22.205  32.261   3.628
14838W        W83243  24.210  39.636  13.538
14839W        W83244  29.474  14.778   2.384
14840W        W83245  39.382  17.796   3.168
14841W        W83246  41.235  33.810   4.143
14842W        W83247  41.721  25.562   3.639
14843W        W83248  38.868  12.170   3.221
14844W        W83249   1.680  26.538   2.688
14845W        W83250  11.060  14.760   3.884
14846W        W83251  31.173  40.782  10.094
14847W        W83252  19.574  43.416  11.101
14848W        W83253  25.705  21.785   4.605
14849W        W83254  42.829   1.781   0.496
14850W        W83255   1.601  42.717   4.065
14851W        W83256  15.803   0.627   9.870
14852W        W83257  21.058  25.543   4.998
14853W        W83258  36.964   6.774  13.772
14854W        W83259   7.250  35.860   3.632
14855W        W83260  28.669  14.695   1.895
14856W        W83261  39.604  28.497  14.933
14857W        W83262  42.308   3.395  10.941
14858W        W83263  14.796  22.979  11.651
14859W        W83264  27.266   8.269   0.792
14860W        W83265  25.568  39.470  11.501
14861W        W83266  40.332  33.326   3.556
14862W        W83267  43.516   3.790  11.188
14863W        W83268  38.382  13.540   3.478
14864W        W83269   0.816   5.762  12.138
14865W        W83270   6.335  10.065  12.240
14866W        W83271  38.492  20.964   4.723
14867W        W83272  15.239  28.905   0.163
14868W        W83273   6.001  44.752  13.359
14869W        W83274  29.952  30.093   0.580
14870W        W83275  40.936   9.434  12.933
14871W        W83276  10.744   2.647   4.470
14872W        W83277  25.561  11.804  14.217
14873W        W83278  31.886  17.897  11.529
14874W        W83279  44.242  38.294   1.292
14875W        W83280  24.966  38.066  12.130
14876W        W83281   3.220  28.842  12.380
14877W        W83282  24.155  28.596  12.896
14878W        W83283  26.094  20.951  13.564
14879W        W83284  37.865  34.932   0.035
14880W        W83285  31.470  34.911  13.280
14881W        W83286   4.728  37.820  11.942
14882W        W83287  27.071  14.621  12.852
14883W        W83288  44.491   5.132   0.406
14884W        W83289  33.996  26.894  10.102
14885W        W83290   9.871   4.682  10.608
14886W        W83291   6.107  35.006  11.016
14887W        W83292  11.287  31.382  10.534
14888W        W83293  27.125  38.129   0.458
14889W        W83294  27.506  41.853  14.306
14890W        W83295  35.629  23.233  11.612
14891W        W83296  13.148   9.902   1.721
14892W        W83297  28.613  16.520   5.034
14893W        W83298   8.204   5.676   1.120
14894W        W83299  25.500  15.616  13.068
14895W        W83300  30.065  22.756   1.350
14896W        W83301  29.227  44.197  13.966
14897W        W83302  22.042  21.054  14.072
14898W        W83303  11.584  13.080  11.496
14899W        W83304   9.257   9.400  14.243
14900W        W83305  38.932  16.568  11.511
14901W        W83306   2.189  18.180   4.355
14902W        W83307  33.777   0.002  12.130
14903W        W83308  17.470  12.116   2.940
14904W        W83309  19.785  20.205  11.669
14905W        W83310   0.402  15.678  13.512
14906W        W83311  27.702  18.110  10.929
14907W        W83312   6.264  12.859   5.100
14908W        W83313  40.100  27.913   1.409
14909W        W83314  29.639  37.969   3.748
14910W        W83315   4.785  28.770   1.343
14911W        W83316  31.558  40.065   3.349
14912W        W83317  21.011   7.940  11.178
14913W        W83318  32.557  36.817  13.454
14914W        W83319  17.634   7.965  14.699
14915W        W83320  17.723  22.334  14.804
14916W        W83321   6.835  16.812  10.547
14917W        W83322  16.243  40.345  14.868
14918W        W83323   1.990  18.282  11.469
14919W        W83324  38.223  31.643   5.046
14920W        W83325   1.341  29.733   2.266
14921W        W83326   6.054  32.722   0.948
14922W        W83327   1.797  17.632   1.938
14923W        W83328  14.480   0.818   0.918
14924W        W83329  39.715  15.223   0.262
14925W        W83330  39.540  25.597   2.772
14926W        W83331  36.567  10.693  13.078
14927W        W83332  19.878  33.755  12.839
14928W        W83333  20.128  41.837   0.848
14929W        W83334   2.521  19.217  14.949
14930W        W83335  40.944  29.167   0.616
14931W        W83336  19.387  27.482  11.112
14932W        W83337  30.888   1.513  13.927
14933W        W83338  13.538  14.640  13.557
14934W        W83339  16.571  18.086   0.950
14935W        W83340  26.184  18.973  13.917
14936W        W83341  35.019  28.025   5.387
14937W        W83342  30.133  21.718   1.186
14938W        W83343  34.099  20.111   2.871
14939W        W83344  28.914   2.987  13.545
14940W        W83345  33.385  31.130  14.805
14941W        W83346   1.290   2.532  13.119
14942W        W83347  13.274  28.520   0.310
14943W        W83348  36.599  18.602  14.807
14944W        W83349  17.703   7.418   0.855
14945W        W83350  11.702  22.125   1.691
14946W        W83351  16.815   9.021  11.937
14947W        W83352   8.426  40.024  11.162
14948W        W83353  41.928   8.093   4.198
14949W        W83354  33.441  41.338  11.173
14950W        W83355  32.644   4.693   0.704
14951W        W83356   2.798  30.518   0.055
14952W        W83357   8.823  10.495  12.574
14953W        W83358  33.282  44.857  11.968
14954W        W83359  15.112  25.655  11.880
14955W        W83360  30.340   1.453  13.640
14956W        W83361  19.732  37.166   0.460
14957W        W83362  43.012  28.636  11.650
14958W        W83363   8.885  14.235  12.845
14959W        W83364  38.422   4.612  12.217
14960W        W83365  20.682  39.331  13.469
14961W        W83366  21.214   3.953  13.980
14962W        W83367  18.141  24.125   3.102
14963W        W83368  19.149   7.705   1.703
14964W        W83369   6.005   1.904  10.984
14965W        W83370   7.408  15.292  11.089
14966W        W83371  14.272  43.846  11.723
14967W        W83372  26.610  14.418   1.720
14968W        W83373   4.728  32.694   2.688
14969W        W83374  43.705  24.682   3.750
14970W        W83375  44.004  32.869   1.132
14971W        W83376  31.129   1.964  13.756
14972W        W83377  22.916  35.283  14.852
14973W        W83378  27.885  14.251  11.981
14974W        W83379  40.990   7.010  14.694
14975W        W83380  44.397  32.333  12.602
14976W        W83381  44.718  29.024   3.689
14977W        W83382  22.678   1.488   2.905
14978W        W83383   7.358   3.935  12.126
14979W        W83384   3.257  18.056   0.870
14980W        W83385  37.068   1.379  14.324
14981W        W83386  44.828  39.220  11.055
14982W        W83387  38.901  44.386  10.966
14983W        W83388  19.149  39.502  12.941
14984W        W83389  15.070  35.613   0.138
14985W        W83390   2.562  11.202   2.651
14986W        W83391  17.728  43.358  14.469
14987W        W83392   8.628  19.268   3.197
14988W        W83393   4.484  12.678  11.503
14989W        W83394  42.492  32.935  11.346
14990W        W83395  12.167  41.648  12.202
14991W        W83396   5.428  26.920  12.311
14992W        W83397  41.924  40.336   3.490
14993W        W83398  12.903   6.040   4.955
14994W        W83399   0.808  33.821   2.660
14995W        W83400  22.303  16.162  11.063
14996W        W83401  35.887  12.169   1.620
14997W        W83402   0.879  33.411  14.670
14998W        W83403  26.441  35.368  11.393
14999W        W83404  39.993  26.227  10.509
15000W        W83405  20.579  22.472  14.819
15001W        W83406  27.807  39.605  11.994
15002W        W83407  29.457  35.293  10.675
15003W        W83408   3.721  42.684  14.965
15004W        W83409  38.052  10.301  10.846
15005W        W83410   2.406  27.116  12.018
15006W        W83411  25.034  11.214  14.856
15007W        W83412  25.411  28.050   4.284
15008W        W83413  14.750   8.779  14.982
15009W        W83414   4.461  28.245  11.593
15010W        W83415  13.071  37.127   1.731
15011W        W83416  23.250   9.419   1.148
15012W        W83417  19.325  13.081  13.580
15013W        W83418  32.051  30.970   4.582
15014W        W83419  44.335  18.172  11.987
15015W        W83420  21.984  43.849  13.029
15016W        W83421  21.102  21.191  13.269
15017W        W83422  15.415  16.596  11.137
15018W        W83423  30.521  43.167  14.829
15019W        W83424  43.006   4.367  14.417
15020W        W83425   5.460  25.529  11.257
15021W        W83426  36.576  23.396   3.219
15022W        W83427  22.841  34.599  11.568
15023W        W83428   8.609  37.576   0.491
15024W        W83429  10.318  25.796  11.042
15025W        W83430   9.837   7.677   1.920
15026W        W83431   0.135  14.990   4.327
15027W        W83432  28.112  14.454   0.881
15028W        W83433   0.444  39.101   1.523
15029W        W83434  43.325  23.144   2.742
15030W        W83435  21.308  38.989   4.192
15031W        W83436  34.010  28.687   3.639
15032W        W83437   1.299  24.300  12.915
15033W        W83438  42.973  36.984   4.915
15034W        W83439  23.697  36.881   3.809
15035W        W83440  22.145  36.986  13.407
15036W        W83441   8.831  13.189   3.004
15037W        W83442   1.880  18.363  13.033
15038W        W83443  39.471  21.949   3.754
15039W        W83444  41.296  13.143   4.411
15040W        W83445  27.374  42.955   0.834
15041W        W83446  35.758   0.565   2.391
15042W        W83447   1.957   5.356  14.748
15043W        W83448  19.700  39.813   2.096
15044W        W83449  31.493  21.129  14.599
15045W        W83450  35.897  28.488  13.636
15046W        W83451  31.808  28.239   5.331
15047W        W83452  40.178  18.045  10.525
15048W        W83453  18.918  14.888   4.041
15049W        W83454   5.698  12.716   2.785
15050W        W83455   6.224   4.767  13.774
15051W        W83456  14.779  16.093   2.718
15052W        W83457  15.769  12.491   1.258
15053W        W83458  18.711  29.492   2.311
15054W        W83459  40.425  29.300  14.386
15055W        W83460  36.921  18.427  14.252
15056W        W83461  22.289   1.249   2.373
15057W        W83462   2.003  16.635  12.529
15058W        W83463  27.071  30.155  13.519
15059W        W83464  18.048  21.125  13.471
15060W        W83465  19.393  32.052  11.109
15061W        W83466  24.943  41.847   1.996
15062W        W83467  19.059  34.049   3.723
15063W        W83468  11.217  43.838   3.851
15064W        W83469  12.093  28.599  14.891
15065W        W83470  39.548  32.027   3.872
15066W        W83471  40.689  15.626  12.030
15067W        W83472   4.970  28.498  11.948
15068W        W83473  19.850  38.913   0.106
15069W        W83474  10.382  15.973  11.513
15070W        W83475  37.546  37.036  13.899
15071W        W83476  28.670  43.872  10.641
15072W        W83477  12.066   0.767   0.623
15073W        W83478  43.952  17.276   4.546
15074W        W83479  10.636   9.111   2.930
15075W        W83480  20.991   9.846  14.989
15076W        W83481   0.980  29.077  10.331
15077W        W83482  39.989  20.965   9.896
15078W        W83483  42.828   5.462  12.468
15079W        W83484   6.132  40.042  11.967
15080W        W83485  23.737  13.283  13.023
15081W        W83486   0.769   1.387   2.389
15082W        W83487   7.332  16.057  14.966
15083W        W83488  22.043  31.965  12.490
15084W        W83489  25.266  39.991  11.868
15085W        W83490  26.268  22.076  12.920
15086W        W83491   2.275  30.704   0.861
15087W        W83492  41.311  17.131  11.990
15088W        W83493  27.028  42.845   3.198
15089W        W83494  32.546  12.694   2.685
15090W        W83495  25.666  21.856   3.330
15091W        W83496  12.155   2.995   0.436
15092W        W83497  28.863  34.612  10.610
15093W        W83498  23.652  43.867   1.943
15094W        W83499  41.751  38.492  14.766
15095W        W83500  13.692   5.319   0.300
15096W        W83501  39.035  32.067   0.343
15097W        W83502  20.310   4.472   0.332
15098W        W83503  18.927   2.978   2.756
15099W        W83504  36.513  43.753   3.405
15100W        W83505  21.168  38.621  10.680
15101W        W83506  10.695  22.010  14.721
15102W        W83507   9.849  28.064   3.178
15103W        W83508  42.522  20.682  11.133
15104W        W83509  25.260   2.247   3.696
15105W        W83510   0.534  20.738   1.388
15106W        W83511  40.448  25.465  13.034
15107W        W83512  16.056   1.390  12.430
15108W        W83513  40.175   7.208   4.901
15109W        W83514  22.798  41.472   2.100
15110W        W83515  10.547  17.899  10.656
15111W        W83516  24.801   6.287  12.109
15112W        W83517  23.444  22.579   1.214
15113W        W83518   9.926  11.852  14.546
15114W        W83519  26.896  25.526   1.048
15115W        W83520   9.434  17.510  12.274
15116W        W83521  37.714   0.695   4.188
15117W        W83522  26.653  34.686  14.653
15118W        W83523   8.561  31.281   2.836
15119W        W83524  31.319  40.486   2.281
15120W        W83525  31.449  39.757  14.937
15121W        W83526  11.878   6.241   3.728
15122W        W83527  25.719  33.556   4.149
15123W        W83528   3.886  22.083  14.350
15124W        W83529  11.957   8.680  11.186
15125W        W83530  20.670  40.530  13.387
15126W        W83531  14.078  39.591   0.970
15127W        W83532  38.637   8.598  11.172
15128W        W83533   6.847   3.398   3.243
15129W        W83534   8.630  23.584   3.331
15130W        W83535  44.739   4.498   4.659
15131W        W83536  33.402  29.554  14.570
15132W        W83537  22.997  22.769  13.577
15133W        W83538  18.608  33.545  14.889
15134W        W83539  37.356  33.126  12.167
15135W        W83540  40.941  26.733  13.992
15136W        W83541  32.408  31.884  11.186
15137W        W83542  16.200  44.512   3.743
15138W        W83543  29.841  27.489   0.663
15139W        W83544  29.450  32.066  14.586
15140W        W83545  38.650  14.328   1.330
15141W        W83546   8.445  11.759  11.635
15142W        W83547  37.787   1.507   0.507
15143W        W83548  20.586  31.033  11.915
15144W        W83549   1.705  19.562   3.907
15145W        W83550  10.773   2.029  14.389
15146W        W83551  10.356   4.358  13.347
15147W        W83552  42.795  35.947  11.471
15148W        W83553   0.242   5.265   0.690
15149W        W83554  12.343  28.673  12.526
15150W        W83555   2.994  33.160   0.397
15151W        W83556  23.658  31.419   4.235
15152W        W83557  32.144  33.436  11.669
15153W        W83558  17.873  42.390  10.810
15154W        W83559  34.890  16.184   4.529
15155W        W83560  25.483   6.398  13.719
15156W        W83561   6.860  37.366   4.261
15157W        W83562  27.204  27.541  13.615
15158W        W83563  29.994   9.292   4.072
15159W        W83564  42.456  28.650  12.440
15160W        W83565  33.071  23.516  10.529
15161W        W83566   2.841  18.307  11.860
15162W        W83567   1.042  35.043  13.201
15163W        W83568  17.052  21.849   1.372
15164W        W83569   9.829  19.846  10.869
15165W        W83570  26.511  27.126   1.324
15166W        W83571   1.298  43.513  12.387
15167W        W83572  12.213  20.792  13.037
15168W        W83573   8.013   8.968   4.136
15169W        W83574   1.982   9.831  11.593
15170W        W83575  20.265  35.451   3.873
15171W        W83576  17.717   4.477   3.312
15172W        W83577  34.558  26.252   0.829
15173W        W83578   5.287  43.771  11.870
15174W        W83579  22.057  12.684  11.119
15175W        W83580   8.847  19.764   1.186
15176W        W83581  35.561  14.113  14.273
15177W        W83582  37.893  13.370  14.334
15178W        W83583  39.498  12.128   3.741
15179W        W83584  23.009  12.162   3.853
15180W        W83585   4.886   7.882   4.259
15181W        W83586   0.738   2.767  13.860
15182W        W83587  34.933  44.365  11.975
15183W        W83588  17.717  18.587   2.414
15184W        W83589  13.104  42.550   4.223
15185W        W83590  39.483  11.765   1.806
15186W        W83591   2.966  38.743  14.489
15187W        W83592  25.627  38.800  14.859
15188W        W83593  12.628  33.244  13.402
15189W        W83594  21.686  41.389  10.727
15190W        W83595   0.209  29.068  12.007
15191W        W83596  22.928  19.859  11.654
15192W        W83597   0.429  11.093  14.453
15193W        W83598  43.918  30.542   0.245
15194W        W83599  33.032  43.024   3.074
15195W        W83600  39.826  23.411   0.515
15196W        W83601  18.571   9.361  11.553
15197W        W83602  17.820  18.273   4.587
15198W        W83603  22.526  16.632  14.926
15199W        W83604   4.372  28.887   4.695
15200W        W83605  20.229  44.602   1.863
15201W        W83606   9.158  33.709  12.978
15202W        W83607   4.188  38.621   1.350
15203W        W83608  36.983  29.054  10.628
15204W        W83609  43.334  20.571  14.507
15205W        W83610  29.340  37.412  14.088
15206W        W83611   7.368   8.127   0.237
15207W        W83612  42.207  20.331  14.949
15208W        W83613  15.791   7.660   4.715
15209W        W83614  15.176  30.894   2.271
15210W        W83615  25.441   4.967  11.636
15211W        W83616  19.387   6.291   4.283
15212W        W83617   4.828   2.110  14.011
15213W        W83618  13.386  12.953  12.879
15214W        W83619  16.137  27.685   2.789
15215W        W83620  26.170  28.186   1.309
15216W        W83621   8.795  22.174   0.409
15217W        W83622  20.024  40.449   5.141
15218W        W83623  43.999  11.171   3.251
15219W        W83624  34.500  27.568  14.935
15220W        W83625  30.110   0.654  10.865
15221W        W83626  20.232   4.943   1.932
15222W        W83627  13.035   9.176  13.171
15223W        W83628   5.724  10.358  10.790
15224W        W83629  26.173  29.125   4.760
15225W        W83630  31.034  35.587   0.243
15226W        W83631  25.018  31.122   3.075
15227W        W83632  26.963  40.202   2.845
15228W        W83633  36.203  29.375   3.640
15229W        W83634  33.976  30.240  12.504
15230W        W83635  33.936   0.524  13.487
15231W        W83636  36.535   0.382   2.715
15232W        W83637  17.854  39.550  12.069
15233W        W83638  17.370  35.563   2.306
15234W        W83639  31.337   7.809  14.990
15235W        W83640  12.748   9.300   3.917
15236W        W83641  21.997  12.699   1.896
15237W        W83642  43.596  16.754  14.338
15238W        W83643   0.715  23.123  12.861
15239W        W83644  37.660  29.566  11.855
15240W        W83645  31.509   0.555   4.564
15241W        W83646  30.782  20.121   0.210
15242W        W83647  17.858  18.707   4.245
15243W        W83648  38.460   0.000   0.806
15244W        W83649  28.336  33.445  11.403
15245W        W83650  23.663  18.178  10.638
15246W        W83651   4.814   9.317  13.779
15247W        W83652  40.969  30.063   1.123
15248W        W83653   8.142  43.263   4.645
15249W        W83654  39.425  25.077  14.144
15250W        W83655  13.816  42.036  12.659
15251W        W83656  27.651   3.319   2.205
15252W        W83657   7.399   2.510   2.209
15253W        W83658   9.241  31.986  13.376
15254W        W83659  37.901  27.926  10.669
15255W        W83660  16.593  18.269  14.061
15256W        W83661  36.874  27.536   4.797
15257W        W83662  20.205  20.606   2.418
15258W        W83663   7.953   5.322   2.240
15259W        W83664  11.892   8.805   3.052
15260W        W83665  11.197  22.595  14.326
15261W        W83666   8.315   7.841   4.164
15262W        W83667  31.473   3.053   3.812
15263W        W83668   1.184  14.096   3.731
15264W        W83669  31.713   3.302  11.632
15265W        W83670  17.076  11.222   3.662
15266W        W83671  27.226  28.491   1.866
15267W        W83672  38.596  27.556   0.710
15268W        W83673  27.534  12.805   1.793
15269W        W83674  27.439  41.385   2.379
15270W        W83675   8.633  35.620  11.310
15271W        W83676  38.559  20.753  12.084
15272W        W83677  13.027  35.034  12.743
15273W        W83678  33.873  26.469  14.483
15274W        W83679   4.200  26.760  11.600
15275W        W83680  13.850  24.434  10.908
15276W        W83681  10.643  33.153  14.453
15277W        W83682  33.528  10.926  12.889
15278W        W83683  44.355   5.801   4.612
15279W        W83684  42.962   6.179   2.257
15280W        W83685   7.378  30.019   0.491
15281W        W83686  41.106   8.664  14.621
15282W        W83687  29.895   8.739   0.251
15283W        W83688   3.770  22.979   2.346
15284W        W83689  41.796  23.613  12.536
15285W        W83690   5.524   2.294  13.486
15286W        W83691   6.396  28.963   1.677
15287W        W83692  35.070  28.149  12.497
15288W        W83693   2.825  35.429  11.034
15289W        W83694   9.697  33.483   2.882
15290W        W83695  36.926  19.072   3.830
15291W        W83696   5.759  29.655  14.896
15292W        W83697  16.646  31.165   3.047
15293W        W83698  35.479   7.609   1.755
15294W        W83699  13.889  36.817  14.862
15295W        W83700  36.640  39.006   2.792
15296W        W83701  44.012  40.482   4.585
15297W        W83702  30.073  16.546  11.069
15298W        W83703   1.892  31.511  14.010
15299W        W83704  22.939   8.874  11.422
15300W        W83705  39.949  39.224  13.999
15301W        W83706  18.456  32.431   2.880
15302W        W83707  13.428   4.397  14.418
15303W        W83708  25.046  24.977  14.885
15304W        W83709  23.469   7.291  13.301
15305W        W83710  17.184  20.873   1.256
15306W        W83711   3.745  18.626  11.481
15307W        W83712  25.266  44.937  13.074
15308W        W83713  44.342  30.973  10.755
15309W        W83714  21.007  19.606  11.253
15310W        W83715  23.196  29.224  13.851
15311W        W83716  41.047  20.348  14.512
15312W        W83717  18.258   4.372   0.443
15313W        W83718   4.811  37.409   3.694
15314W        W83719  33.488  44.381  10.497
15315W        W83720  39.298  43.416   2.831
15316W        W83721  34.340  21.189   2.869
15317W        W83722  20.552  34.327  14.552
15318W        W83723   4.385  12.331  14.828
15319W        W83724  27.599   3.114   4.549
15320W        W83725   7.259  32.351   1.613
15321W        W83726  18.110   9.822   1.042
15322W        W83727  42.519  27.923  14.999
15323W        W83728  42.804  44.453  12.673
15324W        W83729   8.695   7.201  11.077
15325W        W83730  21.742  44.329  12.962
15326W        W83731  33.471  14.406   4.604
15327W        W83732   3.698  27.271   0.377
15328W        W83733  28.810  15.545  11.144
15329W        W83734   2.808   0.460   1.433
15330W        W83735  42.290   3.725   0.443
15331W        W83736  21.764  28.435  14.968
15332W        W83737   0.786  32.943  12.409
15333W        W83738  36.177  19.026   4.529
15334W        W83739  29.629   3.904   1.470
15335W        W83740  31.628  35.291  13.000
15336W        W83741   8.173  33.125  12.023
15337W        W83742  17.751  39.548   4.601
15338W        W83743  17.055  18.157  13.450
15339W        W83744  38.919   5.824   0.920
15340W        W83745  38.460  10.861   4.162
15341W        W83746   6.304  33.448   0.257
15342W        W83747  34.475  41.702  10.647
15343W        W83748  29.665  25.007  12.958
15344W        W83749  37.844   2.519   3.757
15345W        W83750  23.889  40.867   0.936
15346W        W83751   1.391  29.491   2.722
15347W        W83752  17.036   2.507   0.333
15348W        W83753  21.999   3.900  13.542
15349W        W83754  14.119  33.052   3.704
15350W        W83755  39.323  29.354   3.122
15351W        W83756   5.624  35.442  10.755
15352W        W83757  20.551  15.583  14.903
15353W        W83758  31.448  30.053  13.390
15354W        W83759  32.467  21.131   3.821
15355W        W83760  26.092  24.914  11.678
15356W        W83761  20.015  34.929  14.495
15357W        W83762  24.230  35.747   1.727
15358W        W83763  44.828  23.826   4.302
15359W        W83764  25.760  14.627   4.645
15360W        W83765  43.086  20.340  10.555
15361W        W83766  20.365  35.255   0.861
15362W        W83767  35.845  42.304   0.434
15363W        W83768  33.084  36.517   4.216
15364W        W83769  13.785  12.841   0.318
15365W        W83770   5.171  31.416   3.866
15366W        W83771  16.093  39.919   0.906
15367W        W83772  42.004  31.426  12.988
15368W        W83773   4.723  18.172  14.160
15369W        W83774  10.899  39.743  13.571
15370W        W83775   2.828  30.885  12.256
15371W        W83776  36.666  25.814   3.146
15372W        W83777  28.968   3.975  13.527
15373W        W83778  13.312  37.569   0.608
15374W        W83779  30.534  38.435  13.742
15375W        W83780  23.216   8.096  12.175
15376W        W83781   7.114   1.559  10.393
15377W        W83782  44.843  36.370   4.755
15378W        W83783  35.491  33.337   1.333
15379W        W83784  31.022  11.586   4.360
15380W        W83785  10.841  11.732   1.904
15381W        W83786  28.647   5.053  10.259
15382W        W83787  27.225   8.693  14.480
15383W        W83788  12.116  10.205   1.720
15384W        W83789  30.882  26.503   0.492
15385W        W83790   0.998   9.189  14.799
15386W        W83791   7.285  29.535  12.285
15387W        W83792   8.913  42.897  13.971
15388W        W83793   9.795   4.846   2.292
15389W        W83794   3.165  30.895  11.412
15390W        W83795   6.438  42.221   1.481
15391W        W83796  41.444  13.014  14.869
15392W        W83797  39.728   9.699  14.743
15393W        W83798   6.731  41.370  12.464
15394W        W83799  10.265   3.265  12.605
15395W        W83800  18.574  33.951   1.716
15396W        W83801  13.806   8.935   0.452
15397W        W83802  22.608  19.296  14.241
15398W        W83803  12.939  26.624   4.033
15399W        W83804  33.872  41.072  11.221
15400W        W83805  38.291   9.377  14.864
15401W        W83806  31.718  43.584   2.762
15402W        W83807  26.530  34.519   4.913
15403W        W83808  42.673  18.712  14.106
15404W        W83809  25.615  20.080  14.950
15405W        W83810  35.642  28.246   2.776
15406W        W83811  10.750  12.174   2.646
15407W        W83812  22.081  10.333  13.299
15408W        W83813  14.594  11.152  11.558
15409W        W83814  19.895  10.986   4.250
15410W        W83815   0.298  10.806  10.692
15411W        W83816  38.672  22.521  14.053
15412W        W83817   0.929  12.974  12.391
15413W        W83818  22.140  42.548   4.397
15414W        W83819  31.003  19.513   3.254
15415W        W83820   7.903  36.043   2.393
15416W        W83821  42.785   0.852  14.279
15417W        W83822  17.842  20.457  14.531
15418W        W83823  18.091  33.165   0.670
15419W        W83824  42.808   3.250   1.648
15420W        W83825  34.100  41.627  12.000
15421W        W83826  23.654   1.960  14.867
15422W        W83827   6.009  33.456   3.723
15423W        W83828  13.390  40.835  10.699
15424W        W83829  29.210  16.133  13.478
15425W        W83830  43.740  27.569   0.937
15426W        W83831  40.329  19.517  10.107
15427W        W83832  16.853   7.199   3.597
15428W        W83833   8.442  32.891   2.341
15429W        W83834  32.832  43.989  12.128
15430W        W83835  10.074   2.801  14.916
15431W        W83836  33.010   5.910  12.768
15432W        W83837  11.293  20.862  11.109
15433W        W83838  24.052  17.094   1.087
15434W        W83839  21.707   4.792  11.477
15435W        W83840   5.915  26.236   4.065
15436W        W83841  34.907  25.558   3.862
15437W        W83842  13.191  10.742  14.424
15438W        W83843  26.912  39.464   2.244
15439W        W83844   1.441   4.084  13.975
15440W        W83845  24.594  12.029  12.050
15441W        W83846  24.279  23.978  13.074
15442W        W83847   5.381  32.896  14.062
15443W        W83848  15.767  31.086  11.152
15444W        W83849  38.124  30.424  13.950
15445W        W83850  15.779  10.420  13.389
15446W        W83851   4.322  19.931  11.489
15447W        W83852  43.872  22.996   1.283
15448W        W83853  38.576  31.542   2.409
15449W        W83854  41.409  33.866  10.594
15450W        W83855  16.619  13.843  14.475
15451W        W83856  43.564  13.050   0.250
15452W        W83857  43.427  29.402  14.498
15453W        W83858  32.884  16.850  11.096
15454W        W83859  14.688   8.173   4.659
15455W        W83860   6.260  23.683  12.621
15456W        W83861  30.674  12.177  11.655
15457W        W83862  26.452   8.949   4.135
15458W        W83863   8.706   6.483   1.674
15459W        W83864  19.041  30.422   1.458
15460W        W83865  33.393  41.937   2.235
15461W        W83866  26.151  34.960   2.376
15462W        W83867  21.188   1.242  13.327
15463W        W83868  24.621   1.485  11.080
15464W        W83869  29.569  35.837  12.950
15465W        W83870  33.632  11.320   0.832
15466W        W83871  36.838   3.797   1.411
15467W        W83872   8.834  17.851  10.267
15468W        W83873  28.161   0.988  12.326
15469W        W83874  28.899  42.924   3.734
15470W        W83875   5.233  18.604  14.470
15471W        W83876  18.076  18.205  12.521
15472W        W83877  25.850  23.691  11.149
15473W        W83878   1.907  30.930   3.624
15474W        W83879   6.671  30.967   4.470
15475W        W83880  22.184   3.712   0.399
15476W        W83881  14.545  36.613  11.799
15477W        W83882   5.868   4.343  14.792
15478W        W83883  14.157   6.088   3.813
15479W        W83884  20.165  14.917   3.902
15480W        W83885  43.925   5.173  10.757
15481W        W83886  36.178  16.967   2.608
15482W        W83887   5.386   8.379   2.633
15483W        W83888  11.188  40.830   0.702
15484W        W83889  23.742  37.403  11.731
15485W        W83890  34.089  43.750  10.920
15486W        W83891   6.147  25.037   2.258
15487W        W83892  30.492   1.131  14.010
15488W        W83893  22.018  12.864  13.938
15489W        W83894  44.568  28.909  13.993
15490W        W83895   4.952  26.724  14.906
15491W        W83896  21.517  36.722   0.636
15492W        W83897  19.527   5.032  12.102
15493W        W83898  22.033  10.840   3.696
15494W        W83899   9.078  16.039   2.736
15495W        W83900  37.815   6.292   1.395
15496W        W83901   2.098  39.344  13.001
15497W        W83902   8.570  40.486  12.029
15498W        W83903   2.026  18.046  14.784
15499W        W83904  25.103   8.948  14.088
15500W        W83905  18.668  31.101  14.170
15501W        W83906  10.900  18.605  14.682
15502W        W83907   8.480   1.212   0.318
15503W        W83908  21.279  22.353   4.144
15504W        W83909   0.792  26.615  13.003
15505W        W83910  35.848   9.472  14.494
15506W        W83911  43.994  44.463   4.302
15507W        W83912   0.070  32.601  13.573
15508W        W83913  24.051   1.914   4.626
15509W        W83914  29.204   6.235   2.796
15510W        W83915  37.865  10.886   2.332
15511W        W83916  15.302   2.257   4.628
15512W        W83917  34.351   4.986   2.638
15513W        W83918  26.963  16.322  11.474
15514W        W83919  31.593  10.342   0.514
15515W        W83920  31.377  27.558   1.640
15516W        W83921   3.661  24.156  13.783
15517W        W83922  36.583  44.419   2.385
15518W        W83923  25.013  43.983  12.454
15519W        W83924   2.978  11.150   2.314
15520W        W83925  39.485  35.930   2.833
15521W        W83926  31.991   3.449   2.790
15522W        W83927  38.763  16.674   1.759
15523W        W83928  43.747  44.958   0.428
15524W        W83929  31.458  17.108   1.105
15525W        W83930   9.320  32.820  14.834
15526W        W83931  43.518  17.698  14.425
15527W        W83932  10.202   2.115  13.881
15528W        W83933  32.209  41.406  11.609
15529W        W83934   2.823  38.951   1.012
15530W        W83935  10.163  32.576   1.833
15531W        W83936  15.240  12.086   0.618
15532W        W83937  38.094   2.334  12.144
15533W        W83938  22.906   9.360   4.616
15534W        W83939  43.769  31.020   0.484
15535W        W83940  23.104  25.986   1.986
15536W        W83941  37.939  28.004   1.829
15537W        W83942  25.254  18.795   3.224
15538W        W83943   0.427   2.542   3.384
15539W        W83944  39.611  42.693   2.690
15540W        W83945  30.888  22.775  11.624
15541W        W83946  11.631  12.068  12.965
15542W        W83947   5.710  36.992  13.044
15543W        W83948  21.307  33.695  11.210
15544W        W83949  39.433  31.622  10.633
15545W        W83950   2.734  18.993  14.025
15546W        W83951  29.955  33.149   0.561
15547W        W83952  40.203  21.455   3.280
15548W        W83953   1.589   4.157   1.648
15549W        W83954   8.403   2.830  13.968
15550W        W83955  28.517  24.004  13.048
15551W        W83956  16.034  40.586  11.932
15552W        W83957  27.134  32.997  10.752
15553W        W83958  29.017  43.555   2.895
15554W        W83959  25.726   2.310   2.133
15555W        W83960  20.982  23.764   2.765
15556W        W83961  44.087   2.560  13.299
15557W        W83962  11.605  42.517   3.092
15558W        W83963  28.912  26.583   2.339
15559W        W83964  13.256  15.308  10.388
15560W        W83965  10.792  42.072   2.974
15561W        W83966  34.616   0.233   3.742
15562W        W83967  41.463   5.295  12.511
15563W        W83968  15.420  31.831  11.502
15564W        W83969   5.205  30.500   2.933
15565W        W83970  39.133  35.880  11.259
15566W        W83971  39.807   6.283  10.759
15567W        W83972  25.486   0.927  12.454
15568W        W83973  10.301  43.479  12.998
15569W        W83974   0.897   4.919   4.102
15570W        W83975   9.107  36.813  14.724
15571W        W83976   2.813  10.079   4.632
15572W        W83977   9.212   9.444   1.126
15573W        W83978   7.070  42.439   3.941
15574W        W83979  39.874   3.394   2.312
15575W        W83980  16.842  19.331  11.632
15576W        W83981   8.159  38.061  13.829
15577W        W83982  44.585  30.571   2.269
15578W        W83983  10.953  41.067  11.136
15579W        W83984  14.132  23.956  14.229
15580W        W83985  19.741  17.677   2.285
15581W        W83986  29.666  30.700  11.603
15582W        W83987   4.386  21.074   1.895
15583W        W83988   3.209  19.827   0.385
15584W        W83989  30.947  39.530   4.460
15585W        W83990   0.828  37.138   2.770
15586W        W83991  13.013  42.222   0.703
15587W        W83992  38.127  13.331   4.193
15588W        W83993  14.399  41.086  12.507
15589W        W83994  44.988   2.291   4.069
15590W        W83995  10.140  35.940  12.541
15591W        W83996  41.820  30.679   1.828
15592W        W83997  36.409   6.922   1.012
15593W        W83998   7.589  40.580   0.690
15594W        W83999  16.101  23.582   4.358
15595W        W84000   9.401  20.131   3.325
15596W        W84001  21.513  43.339  11.909
15597W        W84002  43.211  35.038   2.305
15598W        W84003  15.309   4.042  10.315
15599W        W84004  11.109  11.538   4.200
15600W        W84005  14.429  10.379   4.287
15601W        W84006  43.185  29.535   0.951
15602W        W84007  16.850  32.034   0.300
15603W        W84008  44.639  41.593  11.284
15604W        W84009   9.750  11.711   1.062
15605W        W84010   0.272   3.766   2.158
15606W        W84011  21.217  14.396   0.493
15607W        W84012  15.807  15.812   4.517
15608W        W84013  34.384  25.794  14.384
15609W        W84014  35.725  22.291   1.775
15610W        W84015  36.388   6.183   1.622
15611W        W84016  22.878   5.332  12.460
15612W        W84017  18.622  26.520   0.396
15613W        W84018  44.547  24.126  13.969
15614W        W84019  31.878  44.919  13.496
15615W        W84020  14.794   5.451  11.673
15616W        W84021   6.335   3.202  10.759
15617W        W84022  42.231  36.948   2.185
15618W        W84023  31.612   5.824  14.382
15619W        W84024   4.851   9.483   0.025
15620W        W84025  39.353   4.205   0.593
15621W        W84026  35.817   3.827   4.827
15622W        W84027  18.987  11.168  10.295
15623W        W84028  44.011   3.970  13.806
15624W        W84029  19.704  41.870   4.310
15625W        W84030  21.590  35.435   1.976
15626W        W84031   9.888  20.706  12.329
15627W        W84032  16.634  25.122   1.301
15628W        W84033  25.635  44.834  10.831
15629W        W84034   3.932  44.861   2.421
15630W        W84035   1.154  44.023   3.642
15631W        W84036   8.763   3.454   1.496
15632W        W84037   1.326  25.133  10.535
15633W        W84038  33.551  21.110   4.645
15634W        W84039  19.808  18.118   3.633
15635W        W84040  31.068  33.544  12.410
15636W        W84041  28.579  36.859   4.371
15637W        W84042   5.923  41.885   2.887
15638W        W84043  22.930  25.090  13.159
15639W        W84044  40.450  10.657   0.787
15640W        W84045  43.428  20.616   4.434
15641W        W84046  37.794   7.942  12.569
15642W        W84047  44.559  29.821  13.544
15643W        W84048   7.779   1.683  11.485
15644W        W84049  38.465   0.917   3.374
15645W        W84050  14.604  19.183  14.419
15646W        W84051  19.082  23.281   2.709
15647W        W84052  24.057  19.661   4.571
15648W        W84053  38.079  44.516   0.379
15649W        W84054   7.405  22.939  11.601
15650W        W84055   0.432   6.401  10.725
15651W        W84056  26.486  41.379   5.052
15652W        W84057  29.420  41.849   2.828
15653W        W84058  21.541  21.774   0.560
15654W        W84059  44.088  27.646  13.855
15655W        W84060  18.069  20.653  13.050
15656W        W84061  17.150  26.556  14.346
15657W        W84062  16.046   6.628   0.456
15658W        W84063  14.878  23.256   3.925
15659W        W84064  24.741   0.233   2.429
15660W        W84065  11.911  28.435   2.217
15661W        W84066  15.096  32.478   3.680
15662W        W84067  39.080   6.836  10.876
15663W        W84068  34.881  34.998  12.014
15664W        W84069  21.467  14.494   4.149
15665W        W84070  35.374  38.432   4.485
15666W        W84071  25.236  18.981  12.838
15667W        W84072  16.297  16.079   4.030
15668W        W84073  17.773  22.607  11.051
15669W        W84074  10.199  30.843  11.197
15670W        W84075   6.684  24.202   1.786
15671W        W84076   5.931  36.802   2.290
15672W        W84077  30.008  23.081  12.764
15673W        W84078  43.674  33.999  10.833
15674W        W84079  15.510   7.616  13.442
15675W        W84080  37.001  30.882  13.840
15676W        W84081  28.880  16.575   1.504
15677W        W84082   9.337  17.277  11.711
15678W        W84083  17.764   9.476  12.104
15679W        W84084  21.577  35.834  13.470
15680W        W84085  44.753  11.097  14.003
15681W        W84086  11.862  18.094   0.756
15682W        W84087   7.646  26.449  12.074
15683W        W84088  40.071  29.588   4.574
15684W        W84089  34.136  17.837   1.687
15685W        W84090  44.303  11.648   4.617
15686W        W84091  42.849   8.232  11.943
15687W        W84092  38.604  23.514   3.714
15688W        W84093   7.900  12.682   0.858
15689W        W84094  22.095   7.579  14.908
15690W        W84095  15.571  16.808  14.582
15691W        W84096  32.446   9.792   2.424
15692W        W84097  14.595  28.946  12.407
15693W        W84098   8.349   8.553  14.215
15694W        W84099  41.367  32.463  13.326
15695W        W84100  16.284  39.872   2.591
15696W        W84101  15.225  31.570  11.926
15697W        W84102  19.115  26.203  14.139
15698W        W84103  25.235  39.859   4.132
15699W        W84104   1.245  19.804  14.016
15700W        W84105  26.481  32.602  12.521
15701W        W84106  26.821  11.166  14.267
15702W        W84107  19.277  24.125   0.179
15703W        W84108  20.048  22.008   4.279
15704W        W84109   3.433   9.320  10.845
15705W        W84110  32.112  24.835  12.626
15706W        W84111   2.306   7.297   4.449
15707W        W84112  25.621  23.500  10.718
15708W        W84113  24.260  42.507   3.662
15709W        W84114  44.785  22.610  13.565
15710W        W84115   8.265  15.878  14.537
15711W        W84116   7.767   3.810  13.956
15712W        W84117   8.494  26.145   1.832
15713W        W84118  43.243  15.760  13.537
15714W        W84119  23.221  26.432   2.235
15715W        W84120  21.097  22.012  14.269
15716W        W84121   5.960  37.961   4.115
15717W        W84122  37.081   3.331   0.169
15718W        W84123   3.790  41.733  10.682
15719W        W84124  19.087   5.360   1.193
15720W        W84125   6.244  43.373  14.251
15721W        W84126  35.542  31.628   3.955
15722W        W84127  17.678  42.563   2.469
15723W        W84128   2.354  31.954  10.489
15724W        W84129  38.918  12.389  13.363
15725W        W84130  37.037  26.178  12.998
15726W        W84131  13.828   2.880  11.535
15727W        W84132  18.581  40.219   1.332
15728W        W84133  32.826   3.202   3.637
15729W        W84134   8.241   3.690  14.802
15730W        W84135   4.366  16.851  11.602
15731W        W84136   9.409  26.288   3.077
15732W        W84137  18.766  25.089  14.735
15733W        W84138  18.207  12.193  12.472
15734W        W84139  37.189  31.146  11.066
15735W        W84140  11.204  16.811  13.034
15736W        W84141   3.268  15.827  11.608
15737W        W84142   9.266  34.729   4.644
15738W        W84143  31.177  34.016   1.239
15739W        W84144   7.244  17.559  12.857
15740W        W84145  20.942  24.631   2.246
15741W        W84146  12.406   7.477  11.282
15742W        W84147  23.089  10.103  12.470
15743W        W84148  21.631  32.911  10.674
15744W        W84149   6.179  14.307  12.605
15745W        W84150  43.788  34.558  14.187
15746W        W84151  15.918  24.560   0.493
15747W        W84152  31.928  11.013  14.888
15748W        W84153  34.330  12.547  12.582
15749W        W84154  44.000  30.262   2.739
15750W        W84155   3.517  37.489  10.641
15751W        W84156  34.662  43.079  10.395
15752W        W84157  34.124   4.385  12.928
15753W        W84158  36.393  28.559  11.498
15754W        W84159  35.825  12.352   4.071
15755W        W84160  34.614  13.871  10.583
15756W        W84161  21.217  31.675   0.410
15757W        W84162  17.674  35.474   4.678
15758W        W84163  26.737  16.294  11.993
15759W        W84164  39.406  29.473   1.418
15760W        W84165  21.636   7.352   2.353
15761W        W84166   1.877  26.677  11.561
15762W        W84167   3.886   0.501  13.934
15763W        W84168  26.260   4.731  12.496
15764W        W84169  15.644  39.654  12.016
15765W        W84170  31.316  25.933  11.066
15766W        W84171  15.043  44.731   0.599
15767W        W84172  22.735  23.264   3.239
15768W        W84173   4.887  36.286   4.441
15769W        W84174  13.160   7.661   3.197
15770W        W84175   2.912  38.672   3.077
15771W        W84176   6.330   3.508  12.058
15772W        W84177  34.416  17.591  11.043
15773W        W84178  40.461  21.018   3.353
15774W        W84179  15.539  39.479  11.244
15775W        W84180   2.971  11.097  12.915
15776W        W84181  38.105  39.965   4.030
15777W        W84182   3.234  31.401   1.705
15778W        W84183  15.176  39.712  11.785
15779W        W84184  29.184  12.249  13.970
15780W        W84185  19.710   8.725  11.664
15781W        W84186  25.697  23.075   4.598
15782W        W84187  39.889   0.358  13.588
15783W        W84188  44.459   2.391  11.110
15784W        W84189  40.093   7.103  12.688
15785W        W84190  40.245  30.372   0.821
15786W        W84191  15.914   3.219  10.204
15787W        W84192   3.181  15.355   4.248
15788W        W84193  14.964  32.000  11.722
15789W        W84194  24.118  19.746  12.139
15790W        W84195  22.151   4.859   4.064
15791W        W84196  24.313  27.907   3.654
15792W        W84197  25.380   6.949   2.728
15793W        W84198   1.916  35.842  11.069
15794W        W84199  33.916  15.233   4.674
15795W        W84200   3.429  27.518   0.769
15796W        W84201  24.216  23.268  10.782
15797W        W84202  42.446  21.572   3.654
15798W        W84203  18.856  23.116  11.317
15799W        W84204  33.831   2.480  11.550
15800W        W84205   4.509  18.396   4.079
15801W        W84206  32.361  18.856   3.293
15802W        W84207  31.424   2.662   2.237
15803W        W84208  11.364  16.833   3.140
15804W        W84209  33.631  25.668  14.919
15805W        W84210  19.021   6.627   5.160
15806W        W84211   2.458   6.963  14.029
15807W        W84212   4.424  12.699  12.367
15808W        W84213   0.700  36.888  12.752
15809W        W84214  21.858  40.489   2.417
15810W        W84215   2.941   9.325   1.929
15811W        W84216  39.980  38.433   3.548
15812W        W84217  17.351  13.137   1.791
15813W        W84218  13.164  38.987   4.823
15814W        W84219  33.312   2.271  12.557
15815W        W84220   8.747  31.532  13.895
15816W        W84221  15.537  26.049   1.499
15817W        W84222  44.723   2.716  12.022
15818W        W84223  20.295  14.833  13.281
15819W        W84224  33.371  17.567  12.574
15820W        W84225  38.493  29.107   3.552
15821W        W84226  32.530  32.007  11.710
15822W        W84227  38.117  25.270   2.343
15823W        W84228  39.081  20.704  12.073
15824W        W84229  39.870   3.716   2.778
15825W        W84230  34.598  28.004  13.200
15826W        W84231   6.230  33.883  11.931
15827W        W84232   9.911  14.114   0.400
15828W        W84233  39.482  10.863  11.592
15829W        W84234  24.925  26.197  13.216
15830W        W84235  18.684  40.158  14.000
15831W        W84236   3.375  21.347   5.012
15832W        W84237  23.452  25.864  12.800
15833W        W84238  27.905  41.880   5.004
15834W        W84239  28.606   2.180   3.119
15835W        W84240   7.168   3.086  12.343
15836W        W84241  43.308  29.115  12.498
15837W        W84242  14.176   8.786  10.182
15838W        W84243  40.995  29.451   2.032
15839W        W84244  24.324   9.086   1.445
15840W        W84245   0.702  31.953   0.395
15841W        W84246  23.643  30.989  14.459
15842W        W84247  40.510  21.045  12.669
15843W        W84248  40.496  39.983   2.855
15844W        W84249  24.355  11.571  11.107
15845W        W84250  41.291  36.139   0.195
15846W        W84251  23.650  41.441   0.806
15847W        W84252  17.323  43.546  14.766
15848W        W84253   3.869  24.736   0.682
15849W        W84254  22.931  36.457  13.515
15850W        W84255  20.914   6.552  13.742
15851W        W84256  26.420  20.255  13.019
15852W        W84257  12.684  35.243  11.570
15853W        W84258  39.952  13.829  10.960
15854W        W84259  10.839   3.724  10.793
15855W        W84260  16.291  13.124  13.098
15856W        W84261   5.457   8.649  14.962
15857W        W84262  44.020  14.699   0.783
15858W        W84263  17.768  26.192   0.356
15859W        W84264  16.574  32.534  13.535
15860W        W84265  18.259  36.520   4.747
15861W        W84266  41.041  26.812  11.221
15862W        W84267  12.340   9.331  13.788
15863W        W84268  17.402  34.208  10.796
15864W        W84269   0.251   4.743  13.923
15865W        W84270  20.462  12.491   3.638
15866W        W84271  42.416  24.756  12.570
15867W        W84272  13.477  30.098   1.851
15868W        W84273  39.070  36.334   3.133
15869W        W84274  38.431  31.577  13.853
15870W        W84275  40.585  31.610  12.761
15871W        W84276   8.184   2.783   1.931
15872W        W84277  24.764  14.615  12.018
15873W        W84278  26.579  43.302  13.873
15874W        W84279   1.496   7.796  13.045
15875W        W84280  29.864   7.301   0.000
15876W        W84281  42.088  27.841  11.117
15877W        W84282  25.585  24.602  13.582
15878W        W84283  19.146  24.472   1.463
15879W        W84284  10.349   6.710   0.254
15880W        W84285  13.325  24.303  10.893
15881W        W84286  43.805  35.135   3.238
15882W        W84287  16.045  25.656  14.810
15883W        W84288   5.860   8.244   0.633
15884W        W84289  22.812  43.824   0.259
15885W        W84290   8.775  11.954   2.437
15886W        W84291  27.646  22.780  14.537
15887W        W84292   9.106  34.168   3.744
15888W        W84293   3.319  35.178   1.373
15889W        W84294  34.429  37.360  12.200
15890W        W84295   1.695  14.609   2.779
15891W        W84296  23.581   9.213   0.788
15892W        W84297  16.093  26.490  12.809
15893W        W84298  42.036  15.862  12.998
15894W        W84299  37.905  34.288   0.504
15895W        W84300   3.845  39.773  13.119
15896W        W84301  41.016  17.015   4.280
15897W        W84302  33.552  28.076   0.684
15898W        W84303   1.980   8.524  12.142
15899W        W84304  26.962   8.776   3.200
15900W        W84305   6.096  13.811   2.813
15901W        W84306  37.529   0.125  13.802
15902W        W84307  22.099  22.421  11.886
15903W        W84308  40.668   2.877   4.938
15904W        W84309   6.858  32.128  11.763
15905W        W84310  10.476  40.577   4.417
15906W        W84311  17.252   4.046  11.504
15907W        W84312  26.279  30.958   2.763
15908W        W84313  30.601   8.053   4.697
15909W        W84314   3.431  44.347   4.508
15910W        W84315  38.544  24.594   3.070
15911W        W84316   4.537  32.547   3.159
15912W        W84317  33.936  32.858   2.807
15913W        W84318  33.606  39.343   3.045
15914W        W84319  23.905   7.631   2.371
15915W        W84320  23.278  18.242   2.639
15916W        W84321  25.155  10.725  12.923
15917W        W84322  27.295  22.078  12.883
15918W        W84323  18.480   7.915   3.282
15919W        W84324  17.605  12.904   3.238
15920W        W84325  14.241  35.819  14.342
15921W        W84326   7.960  32.083  13.272
15922W        W84327  28.237  27.418  13.567
15923W        W84328  38.480  38.451   0.361
15924W        W84329   0.323   6.382  13.077
15925W        W84330  16.304  18.087   3.288
15926W        W84331  21.590  22.274   3.703
15927W        W84332  29.230  28.057  11.907
15928W        W84333  14.197  36.151  12.472
15929W        W84334   6.807  21.149  11.600
15930W        W84335  20.283  28.221   3.149
15931W        W84336  28.518  33.597  14.933
15932W        W84337   8.146  44.104  11.697
15933W        W84338  16.078  41.931  12.027
15934W        W84339  33.980  29.173   1.904
15935W        W84340  32.012  40.124  12.450
15936W        W84341  42.522  16.887   1.778
15937W        W84342  14.288  28.871   4.706
15938W        W84343   9.677  21.977   3.694
15939W        W84344   7.920  40.428   4.461
15940W        W84345  30.087  29.332   3.275
15941W        W84346  10.382   2.270  12.895
15942W        W84347  44.313   6.702  11.837
15943W        W84348  44.255  37.244   4.286
15944W        W84349  19.757  29.655  13.737
15945W        W84350  33.923   4.792   3.317
15946W        W84351  41.056  21.654  13.961
15947W        W84352   3.792  10.358   0.358
15948W        W84353  29.191   4.879   2.428
15949W        W84354  27.777   5.888   0.539
15950W        W84355  20.972  35.988  12.496
15951W        W84356  32.345  19.500   2.787
15952W        W84357  30.702  29.385  14.625
15953W        W84358  16.279  20.699  13.851
15954W        W84359  23.032  33.776  10.692
15955W        W84360   1.795  27.083  12.501
15956W        W84361  30.101  16.866   0.829
15957W        W84362  21.645  33.974   1.747
15958W        W84363  21.650   4.991   0.445
15959W        W84364   8.982  27.986   9.856
15960W        W84365  11.644  30.553  14.297
15961W        W84366   9.309   1.709  14.851
15962W        W84367   4.520  36.847  13.942
15963W        W84368  16.803  24.896   0.864
15964W        W84369  23.612  36.425  14.841
15965W        W84370  35.128  14.423   4.280
15966W        W84371  10.700  12.488  13.374
15967W        W84372  34.051  37.502  12.580
15968W        W84373  40.943  32.198   0.763
15969W        W84374   6.795  29.454   3.093
15970W        W84375  11.007   1.823  11.633
15971W        W84376  31.548   3.210  12.957
15972W        W84377  29.446  15.306   2.465
15973W        W84378  18.994  20.578  14.024
15974W        W84379  13.855  27.530   0.702
15975W        W84380   4.816  33.939   3.329
15976W        W84381  26.645  19.886   3.292
15977W        W84382  16.023   4.989  13.889
15978W        W84383   2.306   4.310  13.975
15979W        W84384   4.831  36.434  14.393
15980W        W84385   5.180  13.619   1.861
15981W        W84386  36.575   5.376   3.610
15982W        W84387  18.562  37.909  14.328
15983W        W84388  20.094  28.300   4.091
15984W        W84389  32.377   5.857   3.761
15985W        W84390  13.003   7.507   0.735
15986W        W84391  39.466  31.102  14.410
15987W        W84392  22.109  20.716  12.778
15988W        W84393  33.275  34.432  14.865
15989W        W84394   8.120  30.956  11.235
15990W        W84395   2.994  27.010   9.856
15991W        W84396  16.709  30.079   2.095
15992W        W84397  41.606  13.535   4.508
15993W        W84398  15.523  13.704  11.607
15994W        W84399  13.662  42.051  14.037
15995W        W84400  25.438   8.380   2.619
15996W        W84401  36.599  41.086   4.100
15997W        W84402   1.205  22.292  14.927
15998W        W84403   6.699  29.140   2.106
15999W        W84404  24.245   2.804  13.798
16000W        W84405  40.979  11.354   4.575
16001W        W84406  18.191  34.054  10.210
16002W        W84407  27.461  11.082   2.415
16003W        W84408  11.100  23.178   4.057
16004W        W84409  43.386  29.612   1.850
16005W        W84410  19.363  40.125   2.377
16006W        W84411  35.842   5.668  11.157
16007W        W84412  31.697  28.148   0.088
16008W        W84413   8.679  22.947  12.452
16009W        W84414  17.673  19.270   3.224
16010W        W84415   7.833   9.346   3.801
16011W        W84416   2.271  35.614   4.496
16012W        W84417   5.273  13.093  13.557
16013W        W84418  40.333   2.812   3.654
16014W        W84419  14.273  18.607   3.814
16015W        W84420  25.141   3.602  13.065
16016W        W84421  15.089  14.676   3.347
16017W        W84422  25.698  37.474  10.287
16018W        W84423   8.760   7.223   2.887
16019W        W84424  29.095  42.446  14.361
16020W        W84425  15.386   0.734  11.587
16021W        W84426   8.435  13.064  13.956
16022W        W84427  17.717  37.150   2.847
16023W        W84428   7.390  21.725  14.993
16024W        W84429   8.673  32.869  10.959
16025W        W84430  25.010  14.675  12.932
16026W        W84431  28.640  13.218  11.644
16027W        W84432  40.983   3.896  11.060
16028W        W84433  11.161  19.904   3.682
16029W        W84434  33.660   3.799  13.742
16030W        W84435  34.359  36.195  13.086
16031W        W84436   4.803  44.015   0.850
16032W        W84437  25.954  39.744   1.739
16033W        W84438   1.646  32.142   4.127
16034W        W84439  30.124   2.752  11.386
16035W        W84440  40.591  24.853  11.472
16036W        W84441  36.614  35.346  11.212
16037W        W84442   8.680  25.948  11.538
16038W        W84443  31.472  26.263  12.762
16039W        W84444  11.415  15.541  12.436
16040W        W84445  14.765  18.958   4.081
16041W        W84446   1.274  31.150  14.336
16042W        W84447  15.596  36.635   4.526
16043W        W84448  18.849  15.482   0.615
16044W        W84449  18.324  44.964  12.354
16045W        W84450  35.655  33.514   4.702
16046W        W84451  25.417  30.908   3.866
16047W        W84452  37.108  10.742   3.620
16048W        W84453  32.465   7.534   2.494
16049W        W84454   4.651  31.006   1.797
16050W        W84455  19.702  25.464  14.035
16051W        W84456  26.948  11.091  12.960
16052W        W84457  31.441   6.686  12.611
16053W        W84458  38.920   9.157   3.104
16054W        W84459  10.869  21.967  11.163
16055W        W84460  32.515  14.766  14.942
16056W        W84461   4.787  40.533  13.332
16057W        W84462   7.992  30.614  10.149
16058W        W84463  15.887   0.425  11.433
16059W        W84464  16.867   6.706  11.783
16060W        W84465   3.876  27.469   2.413
16061W        W84466  27.469  16.224   4.101
16062W        W84467   5.341  13.666   3.358
16063W        W84468   0.515  36.648  14.714
16064W        W84469  15.183  31.893   1.498
16065W        W84470  19.171  27.882  11.931
16066W        W84471  44.522  26.182  11.612
16067W        W84472  27.633  16.750  11.671
16068W        W84473  27.968  10.697  12.680
16069W        W84474   5.960  43.977   2.757
16070W        W84475   8.735  36.574  11.581
16071W        W84476  30.243  23.044   2.873
16072W        W84477  31.539  23.075  12.540
16073W        W84478  21.660   9.861  14.288
16074W        W84479  16.781  25.970  11.865
16075W        W84480  20.781  24.299  14.311
16076W        W84481  38.615  42.408  12.383
16077W        W84482  24.362  29.641   1.342
16078W        W84483  32.662  42.094  10.763
16079W        W84484  26.903  14.710  10.621
16080W        W84485  27.961  39.855  11.507
16081W        W84486  23.273  38.073   1.831
16082W        W84487  29.865  40.248  14.728
16083W        W84488  29.721  31.104   3.677
16084W        W84489  13.323  27.082   2.818
16085W        W84490   8.123  31.552  14.996
16086W        W84491   2.639   0.127   1.889
16087W        W84492  29.510   9.705   3.687
16088W        W84493  26.806  41.378  13.236
16089W        W84494   4.005  27.353  14.552
16090W        W84495  34.826  42.617  11.934
16091W        W84496   3.744  11.854   2.876
16092W        W84497  17.779  24.176   4.503
16093W        W84498  18.494  32.434  11.149
16094W        W84499  34.407   8.499   1.239
16095W        W84500  16.249   2.365   3.050
16096W        W84501  29.680  24.216  11.940
16097W        W84502  19.788  17.231   0.618
16098W        W84503  16.278   2.184  12.590
16099W        W84504   7.889  42.025   1.954
16100W        W84505  40.783  30.261  14.540
16101W        W84506  23.911  40.521  11.890
16102W        W84507  43.486  38.339  12.115
16103W        W84508  40.604   7.311  14.517
16104W        W84509  16.362  35.054  13.551
16105W        W84510  16.094  38.294   0.710
16106W        W84511  15.797   1.963  12.415
16107W        W84512  30.062  28.771  14.426
16108W        W84513  40.718   7.691  11.010
16109W        W84514  29.722  29.389  11.162
16110W        W84515  37.603  12.539  13.825
16111W        W84516  40.356  19.259   2.833
16112W        W84517  24.908  20.008  11.151
16113W        W84518  31.678  28.135   0.851
16114W        W84519   8.225  27.495  10.981
16115W        W84520  42.254   6.203   0.733
16116W        W84521   5.899  42.925   2.517
16117W        W84522  29.360  15.828   2.515
16118W        W84523  15.671   2.439   3.857
16119W        W84524   0.550  30.141  14.055
16120W        W84525  12.344  35.893  11.189
16121W        W84526  28.922  12.878  12.792
16122W        W84527  10.034   1.016   2.779
16123W        W84528   4.391  12.125   4.524
16124W        W84529  42.264  32.302  13.855
16125W        W84530  12.771  30.564  12.469
16126W        W84531  38.309  37.852  13.428
16127W        W84532   9.834  13.077   2.563
16128W        W84533  34.978  13.428   4.449
16129W        W84534   7.311  23.548  13.228
16130W        W84535  30.095  27.119  14.970
16131W        W84536  32.452  41.013   2.738
16132W        W84537  34.551  18.689   2.287
16133W        W84538  16.399  31.899  14.038
16134W        W84539   9.866  31.077  11.499
16135W        W84540  21.711  13.142   4.966
16136W        W84541  23.627  36.012  11.697
16137W        W84542  31.280   4.947  11.480
16138W        W84543  43.869  12.708  14.970
16139W        W84544  39.970  25.116   2.169
16140W        W84545  35.491  26.176  12.091
16141W        W84546  29.398  42.017  12.722
16142W        W84547  35.191  29.131  11.636
16143W        W84548  26.286  15.263  12.783
16144W        W84549  13.557  20.597  11.524
16145W        W84550  38.308   6.696  13.030
16146W        W84551   1.159  18.180  11.144
16147W        W84552  32.604  36.275  12.529
16148W        W84553  40.072  20.156  14.463
16149W        W84554   5.409  25.004   0.784
16150W        W84555  29.471   9.725  11.589
16151W        W84556  20.111   1.517   2.306
16152W        W84557  27.766   1.420  14.544
16153W        W84558  36.062  42.549  14.611
16154W        W84559  41.547   5.422   1.806
16155W        W84560  16.084  31.613   0.519
16156W        W84561  26.215  43.964  11.572
16157W        W84562  13.035  32.058  10.670
16158W        W84563  32.535   5.899   4.831
16159W        W84564  27.357   6.995   3.815
16160W        W84565   3.369   8.931   3.773
16161W        W84566  20.356  23.225   3.068
16162W        W84567  20.771   6.770   2.759
16163W        W84568  24.232  43.763   4.115
16164W        W84569  26.922  15.268   4.332
16165W        W84570  43.740   1.228  11.184
16166W        W84571  33.791   0.700  11.138
16167W        W84572  30.856  35.995  14.935
16168W        W84573  20.301  34.489   4.592
16169W        W84574  22.731  39.632  13.370
16170W        W84575  36.857  22.683   0.731
16171W        W84576   3.480  19.456  10.958
16172W        W84577  17.728   4.220  11.561
16173W        W84578   5.398  40.948  13.581
16174W        W84579   9.368  17.359   1.241
16175W        W84580  20.721  18.246   0.379
16176W        W84581  33.438  32.472  13.019
16177W        W84582  34.766  28.187  11.513
16178W        W84583   1.253  35.042   3.058
16179W        W84584  27.470  40.805  14.262
16180W        W84585  17.568  26.428   2.175
16181W        W84586  15.170  20.985   1.708
16182W        W84587  21.456  12.312   3.782
16183W        W84588   1.362  31.518  12.298
16184W        W84589  38.989  34.122  14.925
16185W        W84590  21.628  34.457   0.503
16186W        W84591  20.028  44.328   0.798
16187W        W84592  31.456   9.425  11.519
16188W        W84593  22.273  39.430  11.970
16189W        W84594  40.020  11.408   1.217
16190W        W84595  14.825  27.718   4.052
16191W        W84596  36.360  43.817  11.550
16192W        W84597  15.612  28.117  13.421
16193W        W84598   1.744   8.225  12.918
16194W        W84599  38.356  36.347   2.781
16195W        W84600  26.123   2.812  13.411
16196W        W84601  14.838  13.323  14.400
16197W        W84602  31.888   2.993   0.906
16198W        W84603  12.783  33.370   0.851
16199W        W84604  30.767  24.767   0.430
16200W        W84605  20.505   8.066   3.351
16201W        W84606   1.354  32.780   2.229
16202W        W84607  15.461  24.888  11.999
16203W        W84608  10.118   0.052  10.409
16204W        W84609  42.965  20.937   4.590
16205W        W84610  14.867  17.253  10.855
16206W        W84611  18.541   8.884  13.107
16207W        W84612  18.142  40.856  13.423
16208W        W84613   2.738   4.237   0.932
16209W        W84614  31.916  17.516  13.427
16210W        W84615  33.986  44.586   2.815
16211W        W84616  36.867  41.043   4.858
16212W        W84617  44.959   0.207  12.827
16213W        W84618   7.774  13.767   0.827
16214W        W84619  27.592  32.988  10.464
16215W        W84620  23.598   0.578   3.707
16216W        W84621   0.982  12.849  13.096
16217W        W84622  27.187  14.334  12.429
16218W        W84623  32.574   5.862  11.472
16219W        W84624  10.578  32.383  11.804
16220W        W84625  41.323   3.816   0.730
16221W        W84626   2.350   2.255   0.352
16222W        W84627  18.646  10.647  11.052
16223W        W84628   1.042  15.734  14.150
16224W        W84629  28.661  38.533  13.578
16225W        W84630   9.370   2.228   0.717
16226W        W84631  28.690  20.701  12.585
16227W        W84632   7.198  24.033   1.484
16228W        W84633  42.069  29.061  14.280
16229W        W84634  39.156   1.315  10.597
16230W        W84635  38.766  43.017   2.235
16231W        W84636  14.786  22.270  11.973
16232W        W84637  10.110  19.024   4.143
16233W        W84638   5.306  34.070   2.635
16234W        W84639  22.160  34.428   2.630
16235W        W84640  11.826  12.178   2.808
16236W        W84641  11.151  44.195  14.940
16237W        W84642  16.027  28.955   2.917
16238W        W84643  44.344  35.474  12.810
16239W        W84644  42.437  17.601  12.881
16240W        W84645   1.230  27.756  11.189
16241W        W84646   0.255   0.001   3.157
16242W        W84647  25.744  18.568  13.909
16243W        W84648  23.889  34.077   3.868
16244W        W84649  11.714  13.328   1.077
16245W        W84650  32.723  16.251  12.851
16246W        W84651   5.428  10.396   2.647
16247W        W84652  22.578  32.462  11.019
16248W        W84653  23.190   8.631   2.893
16249W        W84654  28.384   2.326  14.940
16250W        W84655   7.067  36.911  11.988
16251W        W84656  14.264  24.025  13.004
16252W        W84657  10.273   5.747  12.507
16253W        W84658  37.506  12.226  11.971
16254W        W84659   7.337  26.484   4.740
16255W        W84660  16.350  13.673  13.982
16256W        W84661  27.539  16.348  12.624
16257W        W84662  39.887  40.955   4.606
16258W        W84663  42.140  30.227   4.978
16259W        W84664  20.311  15.098  14.927
16260W        W84665  27.098  36.999  14.234
16261W        W84666  14.351  26.694   1.757
16262W        W84667  42.422  40.528  13.899
16263W        W84668  34.516  30.444   2.766
16264W        W84669  16.801  20.606   1.559
16265W        W84670   4.185   2.901   2.839
16266W        W84671  14.189  43.115   0.783
16267W        W84672  21.588  22.796   0.787
16268W        W84673  23.040  16.650  10.676
16269W        W84674   7.154  34.279   2.755
16270W        W84675  19.013  41.281   0.310
16271W        W84676  39.757  43.456  12.971
16272W        W84677  26.590  33.483   3.629
16273W        W84678  20.005  39.955   0.768
16274W        W84679   5.871  11.093   3.599
16275W        W84680  34.909  30.368  10.722
16276W        W84681  32.341  26.108  10.973
16277W        W84682  44.224  36.317   4.047
16278W        W84683  41.021   2.182  11.870
16279W        W84684  24.650  44.977  13.024
16280W        W84685  43.377  12.702   1.930
16281W        W84686  44.825  42.569  14.240
16282W        W84687  13.175   1.451   0.671
16283W        W84688  37.967   8.297   2.639
16284W        W84689  25.542  31.069   0.668
16285W        W84690  11.264  20.193  14.940
16286W        W84691   0.695  39.125   3.865
16287W        W84692   7.003   2.263   0.912
16288W        W84693  12.819  44.288  12.056
16289W        W84694  31.408   6.921  13.543
16290W        W84695  35.379  17.150  10.953
16291W        W84696   8.431  35.878  13.076
16292W        W84697   0.801  13.756   4.529
16293W        W84698  18.267  18.807  12.970
16294W        W84699  34.057  38.591   3.143
16295W        W84700  25.156  13.674   4.258
16296W        W84701   0.265   0.997  14.549
16297W        W84702  15.328  29.366  11.472
16298W        W84703   4.957   9.760   1.235
16299W        W84704  22.896  21.094   1.818
16300W        W84705  35.446  28.971  14.029
16301W        W84706  40.072   9.270  14.284
16302W        W84707  30.665  42.269  10.708
16303W        W84708  22.200   7.877   4.551
16304W        W84709  37.826  13.000   0.182
16305W        W84710   9.883   8.179   2.199
16306W        W84711  11.998  42.485   4.438
16307W        W84712  20.411  34.919   2.147
16308W        W84713  24.049  21.546   4.308
16309W        W84714  16.460  19.775   3.679
16310W        W84715  10.144  33.465   1.630
16311W        W84716  25.051  42.835  14.811
16312W        W84717   6.655  19.325   1.754
16313W        W84718   6.184   6.163   0.423
16314W        W84719  11.634  23.557  12.195
16315W        W84720  13.226  38.086   4.831
16316W        W84721  43.778  18.833   1.812
16317W        W84722  43.132   5.701   0.404
16318W        W84723   9.912  35.234  12.828
16319W        W84724  13.336  30.643   4.333
16320W        W84725  42.966  16.100   3.641
16321W        W84726  44.825  10.701  11.503
16322W        W84727   6.533   4.663   3.020
16323W        W84728  24.150  37.835  13.514
16324W        W84729  33.855  15.170   2.747
16325W        W84730  43.452  18.535  13.025
16326W        W84731   7.420  11.739   2.788
16327W        W84732  43.402  16.727  12.297
16328W        W84733  14.052  31.000   4.095
16329W        W84734  14.268  15.997  11.600
16330W        W84735   7.289   9.291   0.321
16331W        W84736  17.538  22.453  14.338
16332W        W84737  41.790  15.443  13.342
16333W        W84738   3.486  43.528  14.428
16334W        W84739  32.119  19.751  11.533
16335W        W84740   3.032  30.902  14.740
16336W        W84741  16.196   4.856  10.203
16337W        W84742   9.889  10.104  11.951
16338W        W84743  44.028  37.624   5.034
16339W        W84744  15.675  43.167   4.591
16340W        W84745   4.455   1.784   4.114
16341W        W84746  39.245   8.781   0.273
16342W        W84747  36.001  20.178  13.848
16343W        W84748   1.140   3.475  12.602
16344W        W84749  42.713  42.709  11.181
16345W        W84750  41.035  30.600  12.188
16346W        W84751  43.928   8.648  11.629
16347W        W84752  44.371  10.242   1.426
16348W        W84753  40.043  43.496  12.533
16349W        W84754   0.656  31.414   0.341
16350W        W84755  12.148  33.539   1.939
16351W        W84756  30.929  34.885  12.543
16352W        W84757  14.641  33.060  14.792
16353W        W84758  22.285   8.303   2.087
16354W        W84759  12.772  23.283   3.296
16355W        W84760  13.073  15.279   2.792
16356W        W84761  33.971  34.229   0.433
16357W        W84762  26.640  19.584   2.845
16358W        W84763  24.230  33.489   1.302
16359W        W84764  37.236  16.666   1.758
16360W        W84765  16.693  26.193   0.334
16361W        W84766  34.269   9.099  13.868
16362W        W84767  32.329  22.944  11.074
16363W        W84768  17.490  36.646  11.204
16364W        W84769  13.787  36.519  13.466
16365W        W84770   2.024   4.755  12.458
16366W        W84771  32.493  20.337   0.300
16367W        W84772  35.295  13.606  11.665
16368W        W84773  31.081  24.477   1.919
16369W        W84774  20.761  32.780   1.412
16370W        W84775  24.340  27.314   5.056
16371W        W84776  11.196  43.984  11.494
16372W        W84777  37.368  17.674  11.678
16373W        W84778   1.179  28.163  11.856
16374W        W84779  27.418  27.877   2.700
16375W        W84780  42.428  17.285  14.826
16376W        W84781  10.595  38.444   2.191
16377W        W84782  36.263  40.798   1.957
16378W        W84783   7.901  34.816   1.415
16379W        W84784  36.395  39.876   4.756
16380W        W84785   4.301   5.393   0.869
16381W        W84786  10.159  18.808   3.644
16382W        W84787  15.717  15.450  13.506
16383W        W84788  19.083   7.139   0.173
16384W        W84789   2.343  24.193   2.277
16385W        W84790  34.401  29.590  11.562
16386W        W84791  18.506   9.265  13.964
16387W        W84792   2.922  39.043   1.921
16388W        W84793  34.349  34.926  13.489
16389W        W84794  26.147   1.511  13.824
16390W        W84795  42.524  36.644  14.467
16391W        W84796  43.537   7.790  11.221
16392W        W84797   0.535  14.872  13.006
16393W        W84798  43.558  27.965   3.260
16394W        W84799  36.565  41.364  13.278
16395W        W84800   3.832   5.412  12.591
16396W        W84801   4.607  10.394   2.302
16397W        W84802   1.648  13.171   1.926
16398W        W84803  15.617  42.039   0.219
16399W        W84804  22.878   1.863  13.951
16400W        W84805  21.057  33.892  13.522
16401W        W84806  12.901  33.142   1.742
16402W        W84807   0.482   0.799   2.034
16403W        W84808  10.082  15.696  14.699
16404W        W84809   5.840   4.090   2.472
16405W        W84810   0.734  20.741   0.816
16406W        W84811  29.916  32.939   4.541
16407W        W84812  19.225  44.422   3.830
16408W        W84813   3.784  28.104   0.830
16409W        W84814  37.452   1.076   1.554
16410W        W84815  30.111  43.871  12.897
16411W        W84816   7.362   6.615  11.571
16412W        W84817   6.610  34.852   5.011
16413W        W84818  39.634  37.820  12.077
16414W        W84819   2.650  43.902  14.516
16415W        W84820   8.140  32.999   1.316
16416W        W84821   8.717  12.652  12.903
16417W        W84822  39.085  38.828  12.948
16418W        W84823  10.975  11.012   2.637
16419W        W84824   7.254  17.764   2.101
16420W        W84825  12.714  17.056   0.668
16421W        W84826  32.098  36.160   1.188
16422W        W84827   7.444  18.048  10.185
16423W        W84828  16.684   8.196  13.373
16424W        W84829   9.259  17.830   0.322
16425W        W84830  17.520  22.106  10.326
16426W        W84831  26.516  42.665   9.409
16427W        W84832  26.813  22.016  13.707
16428W        W84833  26.604  13.128   1.465
16429W        W84834  38.170  30.684   0.858
16430W        W84835  20.570  38.985  14.296
16431W        W84836  10.660   8.190  11.527
16432W        W84837  16.433  39.748  13.015
16433W        W84838  20.069   0.686   0.522
16434W        W84839  25.490  12.812  10.442
16435W        W84840  33.415   7.162  14.277
16436W        W84841  43.780  14.800   0.333
16437W        W84842  41.591  12.541   2.671
16438W        W84843  25.561  17.161   1.682
16439W        W84844  28.250  18.271  12.547
16440W        W84845  13.154  36.763  12.049
16441W        W84846  24.485  39.736   4.932
16442W        W84847  32.666   8.884  11.936
16443W        W84848  41.327   5.344   4.232
16444W        W84849  11.297  36.454  11.447
16445W        W84850  32.831  17.649   4.868
16446W        W84851  14.420   1.812  11.454
16447W        W84852  22.562  42.002  12.446
16448W        W84853  27.060  42.416   2.066
16449W        W84854  19.508  28.419  13.570
16450W        W84855  32.891   5.703   4.509
16451W        W84856  38.456   8.125  13.028
16452W        W84857  38.855  27.991  11.465
16453W        W84858  43.230  23.035   3.686
16454W        W84859  14.412  21.180   2.416
16455W        W84860  34.918  19.287  13.061
16456W        W84861   0.154  41.020   3.429
16457W        W84862  39.994   6.637  12.890
16458W        W84863  21.958  14.708   4.146
16459W        W84864  30.097  27.636  11.443
16460W        W84865  44.049  26.924  13.692
16461W        W84866  30.786  22.562   4.140
16462W        W84867  13.088   1.333  14.399
16463W        W84868   7.976  28.497   1.283
16464W        W84869  28.621  18.549   1.787
16465W        W84870   8.991  27.465  10.272
16466W        W84871  14.749  39.459   1.854
16467W        W84872  27.943  11.102   3.156
16468W        W84873   4.751  32.555   0.403
16469W        W84874  29.603  42.367   3.742
16470W        W84875  34.431  25.168  13.003
16471W        W84876   5.968  10.262   1.801
16472W        W84877  15.571  27.215  11.936
16473W        W84878  17.406  37.648  10.494
16474W        W84879  23.567  42.695   4.090
16475W        W84880  43.385   7.687   1.277
16476W        W84881  27.487  30.635   0.799
16477W        W84882  16.194  31.854   2.393
16478W        W84883  11.154  16.348   3.150
16479W        W84884  38.766  28.420  11.136
16480W        W84885  25.541  24.123   1.903
16481W        W84886   9.801  26.301   2.143
16482W        W84887  28.370  30.140   2.696
16483W        W84888  14.066  37.908  13.924
16484W        W84889  29.914  41.487   0.345
16485W        W84890  38.808  18.735  14.358
16486W        W84891  29.368  21.789  13.409
16487W        W84892  12.230   7.762   1.395
16488W        W84893  38.754   6.701   2.342
16489W        W84894  12.291  17.723   3.896
16490W        W84895  10.257  18.486   1.684
16491W        W84896  32.671  33.894  12.612
16492W        W84897  36.457  35.146  11.660
16493W        W84898  32.101  24.901  13.644
16494W        W84899  35.104  11.637   4.104
16495W        W84900  29.235   5.760   2.565
16496W        W84901  20.702  28.134   2.748
16497W        W84902  13.190  44.564  11.736
16498W        W84903  25.824  16.607   0.860
16499W        W84904  34.324  26.253  12.432
16500W        W84905  23.070  27.382   3.889
16501W        W84906   9.650   5.856  14.856
16502W        W84907   1.077  14.783  14.377
16503W        W84908  28.735  16.559  11.248
16504W        W84909   1.726   1.228  10.968
16505W        W84910   9.935  35.816  14.891
16506W        W84911  30.108  13.590   3.024
16507W        W84912  10.910  31.399   2.810
16508W        W84913   9.301  37.875   4.654
16509W        W84914   3.460  42.486  12.741
16510W        W84915  36.308  33.435   2.696
16511W        W84916   5.630   8.395   3.395
16512W        W84917  38.306  12.653  10.535
16513W        W84918  27.159  41.926  13.325
16514W        W84919  40.188  21.532  12.965
16515W        W84920  24.564  35.284   1.821
16516W        W84921  24.060  34.069   2.915
16517W        W84922  19.806   5.406   0.942
16518W        W84923   9.459  20.307  11.965
16519W        W84924  33.955  20.026  13.982
16520W        W84925   4.924  39.256  12.996
16521W        W84926  21.618   9.382  11.948
16522W        W84927  24.018  40.815   2.050
16523W        W84928   7.215   5.885   1.806
16524W        W84929  32.181   1.834   1.349
16525W        W84930  23.016   1.257  12.527
16526W        W84931  18.845  38.476  12.519
16527W        W84932   1.140   0.043  13.621
16528W        W84933  34.575  28.538   1.455
16529W        W84934  15.181   9.007  10.179
16530W        W84935  32.860  30.136   0.044
16531W        W84936   3.288  26.228   4.699
16532W        W84937  16.080  18.485  11.542
16533W        W84938  31.860   5.465  11.075
16534W        W84939  26.931  40.172   1.659
16535W        W84940  24.678   8.321  10.394
16536W        W84941   4.863  32.145  12.488
16537W        W84942   4.287  41.441  13.369
16538W        W84943  33.119  23.132  11.604
16539W        W84944  11.660  26.458   2.101
16540W        W84945  18.001  28.114   0.281
16541W        W84946  27.956  13.749  10.761
16542W        W84947  41.985  14.737  10.702
16543W        W84948  41.949  13.099   4.514
16544W        W84949  20.133  23.269   2.204
16545W        W84950  41.866  17.078   1.448
16546W        W84951  14.793  44.525   3.736
16547W        W84952  34.609  34.367   2.136
16548W        W84953  28.177  34.505   1.850
16549W        W84954  42.010  10.714   2.358
16550W        W84955  29.615  21.193   9.795
16551W        W84956  28.932  17.653  13.321
16552W        W84957  10.630  21.726   4.210
16553W        W84958   2.659  23.086   1.462
16554W        W84959  22.699  19.021  13.389
16555W        W84960  22.154   8.882  13.348
16556W        W84961  41.757  22.966   1.226
16557W        W84962  44.850  27.986   3.287
16558W        W84963  40.626  14.400  13.089
16559W        W84964  27.930  30.655  10.857
16560W        W84965  25.620  41.091  11.342
16561W        W84966  16.487   0.554  11.471
16562W        W84967  29.079   5.310   2.905
16563W        W84968  16.607  34.041   3.605
16564W        W84969  16.404   2.403  10.161
16565W        W84970   6.782  33.145   0.731
16566W        W84971  28.989  30.363   2.248
16567W        W84972  16.371  29.220  12.395
16568W        W84973  31.893  31.319   0.879
16569W        W84974  24.971  38.336  13.824
16570W        W84975  14.248  33.543   4.286
16571W        W84976  10.374  24.604   2.952
16572W        W84977  22.353  35.623   3.174
16573W        W84978  18.092  40.536  11.478
16574W        W84979  33.076  30.934   2.855
16575W        W84980  40.888  17.178  11.029
16576W        W84981  42.436  42.822  10.198
16577W        W84982   6.092  35.457   2.141
16578W        W84983  20.230  30.120   1.873
16579W        W84984   1.442  22.595   3.843
16580W        W84985  37.424   5.376   0.419
16581W        W84986  14.384  37.630   2.590
16582W        W84987  29.933  14.852   4.969
16583W        W84988  34.783  31.955  13.550
16584W        W84989   2.296  38.322   4.863
16585W        W84990  18.819  15.326  13.962
16586W        W84991  38.121  16.714   3.177
16587W        W84992  22.243  13.697   3.118
16588W        W84993  23.665  26.996  13.474
16589W        W84994  33.548  31.558   4.573
16590W        W84995  12.720  29.392  14.073
16591W        W84996  28.396  42.612   0.358
16592W        W84997   3.188  34.781  11.125
16593W        W84998   7.876  18.095   0.484
16594W        W84999  25.197  33.921  12.519
16595W        W85000  22.992  19.982   3.891
16596W        W85001  27.659  39.765  12.835
16597W        W85002  35.053  38.395  14.110
16598W        W85003  10.988  42.218   3.444
16599W        W85004   3.469  40.779   3.552
16600W        W85005   5.114  13.227   1.254
16601W        W85006  35.646  13.098  12.414
16602W        W85007  31.597  25.254   2.859
16603W        W85008  16.154  16.577   4.059
16604W        W85009  42.087  36.808   3.354
16605W        W85010  20.754  18.112  11.458
16606W        W85011  42.209   2.013   2.844
16607W        W85012  15.662   9.083   1.400
16608W        W85013  42.532   0.762   2.278
16609W        W85014  17.492   1.309  14.366
16610W        W85015  36.089  37.386   5.038
16611W        W85016  23.991  15.660  12.155
16612W        W85017  39.301  26.973  11.692
16613W        W85018   3.455  25.673   2.374
16614W        W85019  26.942  14.411   2.347
16615W        W85020  24.294  24.494   1.755
16616W        W85021   8.405  30.778  10.428
16617W        W85022  21.319  28.857   4.269
16618W        W85023  42.934  12.076   3.123
16619W        W85024  39.518   7.182  13.886
16620W        W85025  26.876   1.271   0.015
16621W        W85026   0.534  10.281  11.905
16622W        W85027  32.942  17.109   4.687
16623W        W85028  39.940  11.091  12.904
16624W        W85029  18.242   4.848   1.183
16625W        W85030  33.262  29.957  13.340
16626W        W85031  18.132   4.119   3.221
16627W        W85032  21.098  34.639  10.231
16628W        W85033  34.016  34.924   0.828
16629W        W85034  32.598  40.855  13.933
16630W        W85035  16.678  37.430   4.115
16631W        W85036  27.129  42.272   2.611
16632W        W85037  18.615  12.401   0.941
16633W        W85038   8.221  44.035  12.838
16634W        W85039   2.014  19.288  11.082
16635W        W85040  14.767   2.575   4.916
16636W        W85041  25.181  29.696  14.730
16637W        W85042  39.950  19.137   1.704
16638W        W85043  27.375  35.409  12.762
16639W        W85044  38.419  14.207   4.742
16640W        W85045  10.748  43.029   3.825
16641W        W85046  41.380  38.835   0.578
16642W        W85047   7.667  26.909   1.860
16643W        W85048   0.759  18.568  13.868
16644W        W85049  22.392  11.532   0.350
16645W        W85050  43.539  12.103   0.299
16646W        W85051  39.898  36.287  11.136
16647W        W85052  44.010  19.263  12.021
16648W        W85053  28.857  38.976  14.807
16649W        W85054  36.085  27.486  13.474
16650W        W85055  35.631  33.671  13.966
16651W        W85056   8.595  30.278   2.663
16652W        W85057  20.537  14.648  12.815
16653W        W85058  44.470   2.269   1.333
16654W        W85059  42.912  11.869   5.094
16655W        W85060  32.482  28.723  13.047
16656W        W85061   9.399  27.614   3.078
16657W        W85062   0.840   7.251  12.091
16658W        W85063   1.731   2.897  12.489
16659W        W85064   2.007  39.938  13.373
16660W        W85065  37.410  16.073  13.606
16661W        W85066  41.284   9.151  14.706
16662W        W85067  11.305  28.768   1.290
16663W        W85068  17.252  40.464  13.404
16664W        W85069  41.366  28.132  11.971
16665W        W85070   7.881  34.280  12.450
16666W        W85071  29.377  31.677  14.209
16667W        W85072  15.919  31.964  11.716
16668W        W85073   9.718  16.638   3.870
16669W        W85074  11.943  44.000  11.991
16670W        W85075  39.017  24.021   0.391
16671W        W85076  25.767  10.134  12.574
16672W        W85077   8.010  10.852  10.600
16673W        W85078  29.951   7.744  13.702
16674W        W85079  34.382  38.122   0.911
16675W        W85080  28.548  40.619   4.000
16676W        W85081  24.790  35.673  10.707
16677W        W85082  22.591  26.017  11.053
16678W        W85083  39.119   4.275  13.872
16679W        W85084  17.045  28.060  11.247
16680W        W85085  18.092  31.196  11.241
16681W        W85086  10.177  30.832  14.453
16682W        W85087  32.480  10.700  10.498
16683W        W85088  43.275  30.380   4.166
16684W        W85089  17.765  12.572   4.593
16685W        W85090  31.003   8.823  13.093
16686W        W85091  23.222  36.032  11.364
16687W        W85092  22.193  19.747  13.249
16688W        W85093  10.675  37.525  10.747
16689W        W85094  35.410  22.310   3.806
16690W        W85095  10.272  44.409   4.551
16691W        W85096   2.388  44.857   3.596
16692W        W85097  37.388   3.122   2.300
16693W        W85098  42.445  20.017  11.604
16694W        W85099  13.329  41.524  14.311
16695W        W85100  13.587  11.896  11.709
16696W        W85101   1.296  25.522  14.578
16697W        W85102   4.819  22.570   0.752
16698W        W85103   9.387  26.079  13.462
16699W        W85104  25.706  19.318  11.974
16700W        W85105   6.080  11.055  14.349
16701W        W85106  14.677  21.993  11.543
16702W        W85107  23.047  35.164   3.683
16703W        W85108  15.298   2.649  12.530
16704W        W85109  18.261  33.552   4.696
16705W        W85110  21.090   3.990   2.812
16706W        W85111   9.357  22.533  12.102
16707W        W85112   9.257  20.322  13.861
16708W        W85113  23.898  15.706  13.660
16709W        W85114  33.294  13.220   1.059
16710W        W85115  21.518  23.430  13.366
16711W        W85116   1.655  32.963  11.947
16712W        W85117   1.234  31.996  12.466
16713W        W85118  36.785   3.306  13.855
16714W        W85119   3.237  34.714  14.739
16715W        W85120  33.786  22.008  14.933
16716W        W85121  13.521  35.959   1.657
16717W        W85122  21.839  18.452  13.533
16718W        W85123   9.367   7.195   1.336
16719W        W85124  21.269  25.976   3.370
16720W        W85125   4.840   6.426   0.492
16721W        W85126   9.183  28.494   2.116
16722W        W85127   2.222  21.557   4.683
16723W        W85128   2.801  26.305  10.004
16724W        W85129  26.511  27.738  12.011
16725W        W85130  25.846  35.097   1.997
16726W        W85131  32.620   4.677   3.693
16727W        W85132   2.393  38.453  11.644
16728W        W85133   0.490  34.814  12.455
16729W        W85134  22.059  29.514  11.104
16730W        W85135  33.771  19.835   1.004
16731W        W85136  19.708  35.641  10.672
16732W        W85137   2.763  35.132  14.095
16733W        W85138  28.501   0.674  13.473
16734W        W85139   0.511  18.961  10.530
16735W        W85140  44.042  19.292  13.661
16736W        W85141  14.552  44.244   1.944
16737W        W85142  41.195  36.777   3.241
16738W        W85143  22.013  30.444   3.812
16739W        W85144  39.975  42.431   1.224
16740W        W85145  27.923  26.734  14.432
16741W        W85146  42.124  11.907   1.835
16742W        W85147   5.399  19.446   2.065
16743W        W85148  30.874  33.576  14.076
16744W        W85149  37.898  23.514   4.460
16745W        W85150   1.335  36.333   3.428
16746W        W85151  31.157   6.745   3.859
16747W        W85152   6.671  44.924   4.016
16748W        W85153  43.051  36.943  10.797
16749W        W85154   4.570  18.202   2.249
16750W        W85155  37.601  30.831  10.968
16751W        W85156  31.657   6.644  13.107
16752W        W85157  16.664  44.244   3.701
16753W        W85158  23.273  44.200   3.176
16754W        W85159  28.255  33.018   4.005
16755W        W85160  11.443  36.068  13.524
16756W        W85161  44.934  23.381   3.364
16757W        W85162  42.084  31.695   2.764
16758W        W85163  17.173  10.672   2.210
16759W        W85164  33.290  43.183  12.495
16760W        W85165  10.734  22.980  12.145
16761W        W85166   5.367   0.461   3.146
16762W        W85167  17.216  29.929   1.492
16763W        W85168  44.124  15.886   3.631
16764W        W85169   3.726  31.467  14.537
16765W        W85170  21.667  10.496   4.567
16766W        W85171  21.435   5.281  10.686
16767W        W85172  30.551   9.604  13.105
16768W        W85173  20.700  25.449   1.871
16769W        W85174  32.093   7.743   3.105
16770W        W85175  36.632  18.739  10.226
16771W        W85176   7.017  30.816   1.501
16772W        W85177   3.346   5.725   2.232
16773W        W85178   3.252  43.163  10.659
16774W        W85179  13.185  13.711  11.831
16775W        W85180   6.947  44.546   0.516
16776W        W85181  27.568  33.967  13.476
16777W        W85182  31.397  35.143   1.940
16778W        W85183   3.924  26.162   1.461
16779W        W85184  32.058  10.888   0.911
16780W        W85185   8.609  34.007   3.301
16781W        W85186  29.405   9.228   2.266
16782W        W85187  42.554   1.363  12.320
16783W        W85188  29.135  30.596   4.644
16784W        W85189  22.445  22.496   2.939
16785W        W85190   7.823  24.302  11.663
16786W        W85191  10.309  13.206  10.502
16787W        W85192   8.725  27.086  13.905
16788W        W85193  15.097  19.479   3.744
16789W        W85194  34.992  14.120   2.535
16790W        W85195  38.798  13.821   1.369
16791W        W85196   2.351   0.193  11.659
16792W        W85197  27.673  35.522   4.203
16793W        W85198  43.968  37.838   0.135
16794W        W85199  39.178  39.020   1.896
16795W        W85200   0.402  41.944  12.214
16796W        W85201  17.293  11.873   4.315
16797W        W85202   0.956  19.180   1.760
16798W        W85203   9.751  18.075   3.251
16799W        W85204  20.419  24.180   5.158
16800W        W85205   5.517  38.746  13.902
16801W        W85206  17.217   4.799   3.108
16802W        W85207  18.381  18.212   3.809
16803W        W85208  36.807  15.545  14.867
16804W        W85209  39.890  41.726   1.807
16805W        W85210  10.817  43.920   3.036
16806W        W85211  43.821  35.354   4.924
16807W        W85212  38.446  18.845  10.889
16808W        W85213   7.253  31.056  10.692
16809W        W85214  38.020   9.788   2.382
16810W        W85215  36.557  40.817  11.668
16811W        W85216  31.619  27.147  10.409
16812W        W85217  13.681  34.538  11.736
16813W        W85218  26.325  27.758   2.582
16814W        W85219  35.184   8.070  13.660
16815W        W85220  25.218  32.187  13.161
16816W        W85221  32.620  21.163  12.772
16817W        W85222  44.847  21.285  11.479
16818W        W85223  44.199  34.062  10.811
16819W        W85224  25.287  34.358   0.532
16820W        W85225  28.606  27.977   0.424
16821W        W85226  26.539  44.254  11.203
16822W        W85227   6.682  11.963  13.370
16823W        W85228   3.201  11.573  12.111
16824W        W85229  10.224  37.079  12.744
16825W        W85230  13.183  11.800  10.512
16826W        W85231   7.396  16.612   2.624
16827W        W85232  32.627  24.737   1.193
16828W        W85233  29.016  35.595  10.513
16829W        W85234   5.170  28.193   1.872
16830W        W85235  10.227  13.903  11.124
16831W        W85236  25.454   0.332   1.339
16832W        W85237  19.740   4.199   2.154
16833W        W85238   4.896  10.168  13.191
16834W        W85239  34.953  44.590   3.158
16835W        W85240   3.959  24.179   0.197
16836W        W85241   9.635  16.612   1.642
16837W        W85242  27.147  10.319  10.587
16838W        W85243  38.894  20.493  14.739
16839W        W85244  24.007  17.993   2.004
16840W        W85245  14.228  35.792  11.961
16841W        W85246   4.305  38.897   0.930
16842W        W85247  16.772  24.386  11.253
16843W        W85248   6.724  39.834   2.724
16844W        W85249  38.989  27.058   4.399
16845W        W85250  42.333   6.701  12.447
16846W        W85251  32.345  39.287   1.386
16847W        W85252  27.488  15.723   3.888
16848W        W85253   2.266  16.161  12.554
16849W        W85254  22.023  25.399   1.861
16850W        W85255  42.346  22.992  11.413
16851W        W85256  32.521   2.964   1.270
16852W        W85257  21.600  30.499   1.981
16853W        W85258   7.314  23.095  13.461
16854W        W85259  11.135  10.927   0.506
16855W        W85260   3.694  35.124   4.582
16856W        W85261   0.977  41.692   4.206
16857W        W85262   7.625  16.384  13.832
16858W        W85263  12.885  10.233  12.031
16859W        W85264  38.972  33.452  10.733
16860W        W85265  11.945  32.636  13.318
16861W        W85266  33.051  28.227   4.622
16862W        W85267  21.248  12.760  12.587
16863W        W85268  31.169  29.234   2.613
16864W        W85269  20.616   6.981   4.314
16865W        W85270  28.265  25.244   1.188
16866W        W85271  12.153  24.719   1.450
16867W        W85272  39.327   3.690  13.488
16868W        W85273  13.706   8.208  13.289
16869W        W85274  15.306  33.902  13.353
16870W        W85275  32.603  28.189  14.872
16871W        W85276  36.753   2.941   2.937
16872W        W85277  12.630  20.652   0.542
16873W        W85278  28.784  32.472  13.001
16874W        W85279  22.015  34.923  14.301
16875W        W85280   8.166   1.316  14.010
16876W        W85281   1.922   9.104  11.629
16877W        W85282  42.160  10.572   2.866
16878W        W85283  32.666  12.194  14.308
16879W        W85284  34.470  34.550   4.114
16880W        W85285  39.745  21.812  12.956
16881W        W85286  28.118  44.494   0.429
16882W        W85287  16.564   4.467   1.142
16883W        W85288  11.709   9.396   1.189
16884W        W85289   6.561  33.401  14.794
16885W        W85290  19.813   3.756  12.370
16886W        W85291  44.280   4.266   4.656
16887W        W85292  17.230  13.839  11.161
16888W        W85293  43.744  23.199  14.808
16889W        W85294  35.927   4.194  11.013
16890W        W85295  28.178  35.553   4.384
16891W        W85296  40.957  37.571   3.657
16892W        W85297  14.787  14.331  13.001
16893W        W85298   7.756  30.113   4.083
16894W        W85299  34.997  21.202   0.271
16895W        W85300  34.822  21.199  14.785
16896W        W85301  21.225  15.591  11.608
16897W        W85302  35.347  24.329  12.528
16898W        W85303  44.830  23.782   2.826
16899W        W85304  42.335  18.234   2.343
16900W        W85305  28.504  22.498   3.321
16901W        W85306  38.466  28.125  14.550
16902W        W85307  23.649  37.974   2.183
16903W        W85308  27.579  18.067  11.431
16904W        W85309   9.224  18.160   0.906
16905W        W85310  40.023   0.951  12.968
16906W        W85311  25.575   1.072  13.749
16907W        W85312  24.954   8.329   2.804
16908W        W85313  42.337  44.422  13.906
16909W        W85314  27.806  22.955   0.932
16910W        W85315  19.881   3.771   2.408
16911W        W85316   5.366  42.569   0.436
16912W        W85317  37.933  23.696   2.457
16913W        W85318  38.556  37.681  13.836
16914W        W85319  40.303  12.352   3.169
16915W        W85320   8.567  30.532  14.434
16916W        W85321  36.108   5.695   0.887
16917W        W85322  20.757  24.197   0.784
16918W        W85323  32.624  34.671  11.885
16919W        W85324   5.494   3.027   4.702
16920W        W85325   6.293  44.972   3.241
16921W        W85326  16.709  22.195  11.631
16922W        W85327  27.932  29.876  11.503
16923W        W85328   1.870  29.562   0.033
16924W        W85329  24.680   0.763   1.713
16925W        W85330   1.966  33.572  10.735
16926W        W85331   4.985  27.417   0.946
16927W        W85332  38.836  13.893   2.243
16928W        W85333  16.719   4.715   2.356
16929W        W85334  23.690  20.610   2.883
16930W        W85335   6.737   7.232  14.388
16931W        W85336  30.094   1.249   0.442
16932W        W85337  28.591  26.464   1.189
16933W        W85338  20.617  31.100   2.135
16934W        W85339   1.308  11.442   1.375
16935W        W85340  21.501  37.406   4.346
16936W        W85341  44.465  44.595  12.389
16937W        W85342  36.816  10.798  12.650
16938W        W85343  26.957   1.736  14.795
16939W        W85344  44.112  19.824   1.904
16940W        W85345  32.737  22.003   0.062
16941W        W85346  12.872  18.341   2.219
16942W        W85347   6.022   8.513  10.768
16943W        W85348  44.739  33.271  11.420
16944W        W85349  41.838  39.841  12.565
16945W        W85350  30.436   7.216  10.729
16946W        W85351  34.410  40.299  11.990
16947W        W85352  27.079  27.638   4.542
16948W        W85353  28.994  41.867   4.170
16949W        W85354  29.457  36.972   1.915
16950W        W85355   6.157   3.816   4.871
16951W        W85356  16.374  21.120  14.806
16952W        W85357   1.264  33.519   0.026
16953W        W85358  35.162  24.734  14.560
16954W        W85359   6.241   9.157   3.204
16955W        W85360  30.936  15.208  14.948
16956W        W85361  22.090  18.562  13.977
16957W        W85362  21.502  25.059  13.476
16958W        W85363   8.675  42.803  11.972
16959W        W85364  15.230  27.212   2.754
16960W        W85365  31.551  11.047  11.028
16961W        W85366  42.617  21.688  14.841
16962W        W85367  18.638   2.879   4.261
16963W        W85368  15.719   8.285  12.013
16964W        W85369  43.781   6.803  12.967
16965W        W85370  37.308  15.969   4.589
16966W        W85371  19.686   0.456   2.827
16967W        W85372  10.591  40.301  10.711
16968W        W85373  15.032  19.708  13.869
16969W        W85374  24.722  25.729  13.101
16970W        W85375  39.795  42.973   2.292
16971W        W85376  36.493  14.547  13.152
16972W        W85377  12.804   1.853   2.680
16973W        W85378  27.695  35.503  14.697
16974W        W85379  22.810   6.932  11.574
16975W        W85380  41.233  22.105  11.569
16976W        W85381  36.351   6.524  10.901
16977W        W85382  11.616  44.384   1.930
16978W        W85383  40.411   8.912  14.486
16979W        W85384  17.070  39.202  14.051
16980W        W85385  19.248  25.361  11.599
16981W        W85386  33.880   5.766  12.868
16982W        W85387  18.529  14.715   1.021
16983W        W85388  14.390   8.687  13.057
16984W        W85389  28.667  33.986   3.753
16985W        W85390  41.878   3.265   0.781
16986W        W85391  10.753  11.445   4.602
16987W        W85392   4.011  13.604   4.099
16988W        W85393  38.157  20.415  11.180
16989W        W85394  14.090  10.231   0.264
16990W        W85395  34.544  30.684   1.305
16991W        W85396   3.308  41.156  12.925
16992W        W85397   2.899  19.025   2.156
16993W        W85398   1.870  34.336  11.277
16994W        W85399  28.957  25.896  14.553
16995W        W85400  23.075   1.938   3.655
16996W        W85401  37.245   8.929  13.530
16997W        W85402  32.763  29.675   3.260
16998W        W85403   9.805  11.106   3.591
16999W        W85404  11.727  20.159   3.544
17000W        W85405  43.768   9.549   4.110
17001W        W85406  11.021  20.627  14.416
17002W        W85407  18.919  44.037   2.048
17003W        W85408   5.402  42.968  11.877
17004W        W85409   7.276  17.447   1.697
17005W        W85410  13.156  12.274  14.815
17006W        W85411   8.736  43.964   2.401
17007W        W85412  24.968  22.243  13.285
17008W        W85413  25.772  29.995   2.101
17009W        W85414  37.440  27.719  13.468
17010W        W85415  35.530   1.807   3.446
17011W        W85416  13.975  36.426  12.967
17012W        W85417  31.591  16.278  14.339
17013W        W85418   1.287   9.997   0.074
17014W        W85419  23.612  17.007   3.314
17015W        W85420   6.330  41.185  12.730
17016W        W85421  17.551  32.330  13.554
17017W        W85422  33.388  37.392   3.931
17018W        W85423  22.106  27.911  13.486
17019W        W85424  10.399  33.290   0.709
17020W        W85425  19.218  37.670  12.583
17021W        W85426   0.341  27.942  10.683
17022W        W85427  16.996   6.456  11.366
17023W        W85428  44.898  17.206   0.937
17024W        W85429  33.997  20.095   3.389
17025W        W85430  33.425  20.505  13.419
17026W        W85431   2.280  19.314   1.385
17027W        W85432   1.668  31.385   1.358
17028W        W85433  11.605   1.011  10.788
17029W        W85434  29.452  43.429  14.450
17030W        W85435   5.828   5.425  13.474
17031W        W85436   5.969  15.176   2.858
17032W        W85437  44.874  40.427   0.660
17033W        W85438  21.633   1.480   4.921
17034W        W85439  24.630   2.716  14.801
17035W        W85440   0.376  39.969  11.349
17036W        W85441  25.457  26.561  14.517
17037W        W85442  12.691  16.952  14.302
17038W        W85443   2.358  32.494  10.356
17039W        W85444   9.758   0.389  11.211
17040W        W85445  38.796  37.494   3.857
17041W        W85446  17.577  19.114   0.589
17042W        W85447  38.848  37.999   4.456
17043W        W85448  36.822  14.509   1.783
17044W        W85449  16.305  13.758   0.910
17045W        W85450  34.408   3.480   2.414
17046W        W85451  17.758  35.852  11.855
17047W        W85452  43.437  41.638   0.761
17048W        W85453  12.394  34.856   0.715
17049W        W85454   0.633  29.427  10.631
17050W        W85455  42.372  37.298   1.763
17051W        W85456  25.960  19.952  13.797
17052W        W85457  12.901   6.626  13.786
17053W        W85458  44.368  23.279  11.003
17054W        W85459  21.999  28.638  11.919
17055W        W85460  26.233  37.594   0.480
17056W        W85461  30.019  23.266   1.309
17057W        W85462   6.437  31.618   3.283
17058W        W85463  25.941  40.298   3.820
17059W        W85464   9.912  39.301  14.743
17060W        W85465   5.747  33.069   3.463
17061W        W85466  12.786  36.119  13.389
17062W        W85467   0.067  31.068   1.379
17063W        W85468   3.186  41.423   2.772
17064W        W85469  38.145  38.019  13.909
17065W        W85470  42.350  11.541   2.128
17066W        W85471   2.916   4.510  13.527
17067W        W85472  41.249   0.828   4.969
17068W        W85473  23.777  39.765   1.302
17069W        W85474  30.575  19.096  13.727
17070W        W85475  30.255  37.893   1.916
17071W        W85476  27.886  36.544  14.770
17072W        W85477  44.783   9.714   2.009
17073W        W85478   4.650  33.928   0.315
17074W        W85479  43.556  35.043   4.574
17075W        W85480  13.318  35.837  12.857
17076W        W85481  13.597  18.793   0.330
17077W        W85482  25.356  29.631   1.369
17078W        W85483  42.449  33.173  14.208
17079W        W85484  39.246   8.565  13.820
17080W        W85485   7.840  23.177   4.691
17081W        W85486  30.620  10.614   1.663
17082W        W85487  30.163  30.497  14.708
17083W        W85488  25.996  44.953  11.590
17084W        W85489  28.763  27.630  10.717
17085W        W85490  16.320  27.969   1.667
17086W        W85491  35.442   7.964   4.162
17087W        W85492  37.758  30.164   3.271
17088W        W85493  36.843   7.866  14.640
17089W        W85494  16.367  24.560   0.784
17090W        W85495  31.904  13.630  14.910
17091W        W85496   8.724   4.438   0.845
17092W        W85497  18.290  33.682   2.324
17093W        W85498  31.572  15.313  13.813
17094W        W85499   2.048   1.403   1.768
17095W        W85500  13.549  37.628   3.206
17096W        W85501   0.016  35.595   2.323
17097W        W85502  18.282  10.520  14.714
17098W        W85503   9.599  30.378  14.381
17099W        W85504  16.775  22.968  14.295
17100W        W85505   5.239   3.673   3.673
17101W        W85506  19.128  27.687  10.730
17102W        W85507  25.083  29.423   1.758
17103W        W85508   4.565  42.339   2.359
17104W        W85509  42.315  11.671  12.008
17105W        W85510  27.563  36.171  10.717
17106W        W85511  35.628  30.065  10.759
17107W        W85512  20.331  18.257  14.685
17108W        W85513  28.429  37.803  13.373
17109W        W85514  17.298  30.196  13.629
17110W        W85515  43.958   2.254   1.290
17111W        W85516  29.381   5.234   0.439
17112W        W85517   0.964   7.296   4.142
17113W        W85518   4.272  18.046  11.078
17114W        W85519  14.865  33.423  12.979
17115W        W85520  18.129  19.593   4.505
17116W        W85521  19.654  33.035  10.177
17117W        W85522  30.209  11.848   0.686
17118W        W85523  22.515  33.657   4.250
17119W        W85524  13.260   5.100   2.883
17120W        W85525   2.802  26.159  10.562
17121W        W85526  21.253  16.932  14.085
17122W        W85527  26.967  30.169  14.420
17123W        W85528  24.570  32.195   4.680
17124W        W85529  10.066   0.987   1.390
17125W        W85530   2.483  36.475  10.660
17126W        W85531  16.972  43.097   4.981
17127W        W85532  12.144  25.189   1.260
17128W        W85533  21.351  38.626   0.913
17129W        W85534  30.190  28.029   1.186
17130W        W85535   0.402  12.359  14.001
17131W        W85536   7.829  44.773  13.500
17132W        W85537  16.479  20.673   3.835
17133W        W85538   2.962  33.844  14.770
17134W        W85539  12.020   4.348  10.596
17135W        W85540  15.867   6.648   1.334
17136W        W85541  18.143   2.944  14.006
17137W        W85542   4.490  43.585   2.175
17138W        W85543  14.160  14.668   0.326
17139W        W85544  35.951  15.341   0.689
17140W        W85545  38.614  12.639  14.024
17141W        W85546  44.706  35.152   0.433
17142W        W85547  40.805  26.712   4.467
17143W        W85548   2.367  44.724   0.425
17144W        W85549  30.598  30.244   1.886
17145W        W85550   8.532  31.087   3.685
17146W        W85551  21.194  33.921  14.888
17147W        W85552  34.376  28.124  11.841
17148W        W85553   1.252  28.403   1.858
17149W        W85554  33.805  41.507  13.366
17150W        W85555  32.145   3.372   4.338
17151W        W85556  21.597  44.037  10.735
17152W        W85557   8.478  42.515  13.503
17153W        W85558  20.522   8.852   0.247
17154W        W85559  39.322  13.822   0.439
17155W        W85560   8.184  11.732   4.026
17156W        W85561   5.464   0.006   0.374
17157W        W85562  22.488   0.016  14.349
17158W        W85563  13.831  20.597  14.041
17159W        W85564  23.019  20.773   0.819
17160W        W85565  17.872   2.458  11.207
17161W        W85566  31.358   4.878   4.095
17162W        W85567  12.719   0.482  13.345
17163W        W85568  35.077  23.647  12.833
17164W        W85569  41.105  31.745  14.280
17165W        W85570  27.504  42.784  13.350
17166W        W85571  24.684  11.411  12.650
17167W        W85572  21.212  29.973  13.377
17168W        W85573   9.496  11.559   3.424
17169W        W85574  22.772   8.247  11.810
17170W        W85575  21.566  37.889   4.498
17171W        W85576  39.458  17.545  12.143
17172W        W85577  30.540  35.152   4.612
17173W        W85578  20.250   8.348  10.722
17174W        W85579  20.169  41.546   2.804
17175W        W85580  31.119   8.441   1.389
17176W        W85581  43.915   0.209   3.746
17177W        W85582  30.792  33.854   4.338
17178W        W85583  26.869   3.949  13.507
17179W        W85584   8.178  44.983  11.639
17180W        W85585  28.383  22.326   0.848
17181W        W85586  35.159  42.255  13.906
17182W        W85587  36.685   7.900   1.394
17183W        W85588  40.608  31.917   1.741
17184W        W85589   6.902   3.954  12.402
17185W        W85590  40.395  15.156   2.912
17186W        W85591   3.514  34.609  11.784
17187W        W85592  44.697  16.167  13.237
17188W        W85593  35.071  41.058   1.447
17189W        W85594  14.800   7.707   1.604
17190W        W85595   1.482  20.262  13.981
17191W        W85596  17.607   4.729   2.708
17192W        W85597  41.723  13.030   3.643
17193W        W85598  20.869  15.635  13.522
17194W        W85599  44.548  38.117  13.821
17195W        W85600  26.154  12.793   2.832
17196W        W85601  21.134  23.217  14.953
17197W        W85602  19.292  37.926   1.393
17198W        W85603  20.052  10.125  12.967
17199W        W85604  18.675  33.202  12.045
17200W        W85605  10.787  13.562   2.645
17201W        W85606  42.867   1.835   3.379
17202W        W85607  43.320  10.298  11.644
17203W        W85608   1.725   6.177  11.157
17204W        W85609  39.908  44.396   2.394
17205W        W85610  34.162  36.302  11.459
17206W        W85611   3.543  15.728   1.951
17207W        W85612  38.525   5.737  11.070
17208W        W85613  27.539   8.011   3.692
17209W        W85614  34.753  12.273  14.449
17210W        W85615  23.607  23.510  12.511
17211W        W85616  16.538  33.345  13.132
17212W        W85617  10.470  26.729   9.904
17213W        W85618  22.220  18.799   1.371
17214W        W85619   3.945  13.522   2.283
17215W        W85620  23.599  29.527   0.863
17216W        W85621  35.043  11.626  12.947
17217W        W85622  10.746  35.696   0.952
17218W        W85623  21.588  31.094  11.281
17219W        W85624  32.150  25.126   4.275
17220W        W85625  38.122  39.058  14.919
17221W        W85626  19.665  17.855   2.776
17222W        W85627  19.480  18.770  11.606
17223W        W85628  35.861   5.981  11.689
17224W        W85629   9.351  40.910  14.060
17225W        W85630  31.982  24.911  14.934
17226W        W85631  19.801   7.222  11.670
17227W        W85632  29.462  33.929   2.669
17228W        W85633   9.637   2.689   2.433
17229W        W85634  37.493  31.140   2.855
17230W        W85635  26.505  41.520  11.822
17231W        W85636  41.508  36.841   2.818
17232W        W85637   6.454   2.279  14.917
17233W        W85638  15.084  25.561  14.462
17234W        W85639  32.693  41.318  11.730
17235W        W85640   6.345  42.716   2.669
17236W        W85641  33.509  28.091  10.640
17237W        W85642  31.883  24.634  11.921
17238W        W85643  37.100   7.276   1.870
17239W        W85644  30.458  35.919   2.759
17240W        W85645  19.713   8.803  12.652
17241W        W85646  37.413   4.257  13.461
17242W        W85647  34.374  35.704   2.200
17243W        W85648  26.597  14.973   3.077
17244W        W85649  31.937  35.371  10.835
17245W        W85650   8.743  39.959  12.477
17246W        W85651  31.116  30.506   4.109
17247W        W85652  27.016  40.019   0.896
17248W        W85653  34.989  16.775   4.570
17249W        W85654   1.894   5.129  13.382
17250W        W85655  21.720   5.662  12.449
17251W        W85656  26.286   9.901  13.910
17252W        W85657  18.864  39.033  14.774
17253W        W85658  23.163  37.434   9.910
17254W        W85659  12.052   5.200  10.691
17255W        W85660  26.168  18.434   3.355
17256W        W85661  28.597  28.942   0.377
17257W        W85662  28.167   1.867   5.098
17258W        W85663  37.758  35.374   2.941
17259W        W85664  12.608   2.339   4.607
17260W        W85665  27.520   2.531   2.944
17261W        W85666  42.478  25.658  14.717
17262W        W85667  29.367   5.851  11.314
17263W        W85668  43.637  21.277  13.990
17264W        W85669  20.665  38.784   2.130
17265W        W85670  44.829  38.477  14.477
17266W        W85671  19.737  14.291   2.300
17267W        W85672   4.011  24.589  12.593
17268W        W85673  21.032  30.617  14.385
17269W        W85674   2.550   3.354  14.023
17270W        W85675  17.087   9.463  14.288
17271W        W85676  37.849  17.762   0.861
17272W        W85677   2.721  13.183   1.287
17273W        W85678   3.215   4.219   4.099
17274W        W85679  25.997  23.267   0.535
17275W        W85680  12.626  12.728   2.513
17276W        W85681  17.515  20.634  12.245
17277W        W85682  16.357   8.216  14.270
17278W        W85683  20.592   6.744   3.531
17279W        W85684   5.480  33.423   3.705
17280W        W85685  31.295  33.333  14.694
17281W        W85686   2.630  35.969  14.435
17282W        W85687  13.812  11.255  14.587
17283W        W85688  12.311  34.850  14.663
17284W        W85689  41.581  20.833  12.053
17285W        W85690  39.330  18.307   0.926
17286W        W85691  32.997  19.978  14.042
17287W        W85692  10.937   4.258  14.216
17288W        W85693  22.689  19.001  10.704
17289W        W85694  26.695  10.484   0.221
17290W        W85695  26.611  18.786  13.545
17291W        W85696  26.294  38.631  14.503
17292W        W85697  35.450  18.504   0.242
17293W        W85698  34.523  29.033   1.740
17294W        W85699  25.718   0.099   3.722
17295W        W85700  34.183  20.190   1.948
17296W        W85701   8.469  17.977   1.355
17297W        W85702  35.829  23.945   0.330
17298W        W85703  25.267  15.636  14.930
17299W        W85704  31.560  42.306   0.416
17300W        W85705  43.896  44.997   2.169
17301W        W85706  12.614  29.939  12.184
17302W        W85707  31.925  17.500  12.504
17303W        W85708   6.452  37.376  10.630
17304W        W85709   5.424  32.949   0.483
17305W        W85710  27.287  38.038   4.558
17306W        W85711   3.727  18.646  14.499
17307W        W85712   1.867   8.102  12.427
17308W        W85713  29.209  16.225   0.214
17309W        W85714  27.251  32.113  12.190
17310W        W85715  21.949  34.374  14.250
17311W        W85716   2.503  29.410   1.399
17312W        W85717   1.191   2.953   4.660
17313W        W85718   6.213  32.909  10.486
17314W        W85719   5.748  22.752  11.916
17315W        W85720  10.338  10.365   2.089
17316W        W85721  32.324  22.578  13.955
17317W        W85722  44.962   9.132  12.368
17318W        W85723   4.791  11.223   4.304
17319W        W85724   5.742  16.849  11.281
17320W        W85725  41.510   5.772  12.726
17321W        W85726  44.910  15.197   0.033
17322W        W85727  32.426  39.374  13.478
17323W        W85728  31.324  17.202  11.518
17324W        W85729   4.767   8.212   2.829
17325W        W85730  18.174  21.964   1.214
17326W        W85731  26.656  22.174  10.257
17327W        W85732  18.407  33.736  11.575
17328W        W85733  11.931  23.955  11.886
17329W        W85734  22.294  22.426  12.896
17330W        W85735   7.587  13.706   4.026
17331W        W85736  31.017  25.387   1.722
17332W        W85737  36.336  33.292  14.412
17333W        W85738  32.204  11.408   0.918
17334W        W85739  25.437  43.815  14.879
17335W        W85740  23.984   6.809   2.964
17336W        W85741  22.291  42.796   2.192
17337W        W85742  19.791  43.227  13.051
17338W        W85743  12.205  32.832   2.679
17339W        W85744  19.770  23.435   1.466
17340W        W85745  14.833  15.128   1.617
17341W        W85746  31.257   4.806   0.384
17342W        W85747  38.993   2.923  14.551
17343W        W85748  30.788  44.843   1.310
17344W        W85749   9.249  35.198   4.848
17345W        W85750  43.482  38.051  12.555
17346W        W85751  12.661  44.943   3.724
17347W        W85752  38.983  34.900   4.680
17348W        W85753  12.134   1.236   1.848
17349W        W85754  40.002  28.707   4.064
17350W        W85755   4.189  15.709  13.846
17351W        W85756  20.790  32.635   0.917
17352W        W85757  15.622  23.517  13.858
17353W        W85758  30.111  44.245   3.690
17354W        W85759  36.100  25.899  14.275
17355W        W85760  31.569  19.254  12.946
17356W        W85761  30.749  40.813  11.155
17357W        W85762  36.142  26.479   3.895
17358W        W85763   2.997  28.020   4.487
17359W        W85764  24.741  20.674  12.559
17360W        W85765  39.326  20.697   0.024
17361W        W85766  13.651   9.839  12.573
17362W        W85767   1.359   4.717  11.715
17363W        W85768   9.484  43.857  10.416
17364W        W85769   8.456   0.728  12.638
17365W        W85770  12.107  32.375  12.903
17366W        W85771  44.505  44.591   4.218
17367W        W85772   2.922   3.161   0.712
17368W        W85773  22.691   6.791  12.461
17369W        W85774  33.580  11.224   2.883
17370W        W85775   6.301  30.855   4.844
17371W        W85776   1.072  42.881   3.420
17372W        W85777   1.766  16.130   2.721
17373W        W85778  33.331  26.727   1.197
17374W        W85779  29.786  31.854  12.053
17375W        W85780   4.957  34.831   2.350
17376W        W85781  39.144  14.333   2.278
17377W        W85782  11.928  27.967   0.193
17378W        W85783  14.075  36.507  11.472
17379W        W85784  16.615  29.111  11.276
17380W        W85785  26.081  44.379   3.229
17381W        W85786  38.752  38.582   5.106
17382W        W85787  43.142  42.436  11.182
17383W        W85788  16.316  11.209  11.097
17384W        W85789  11.702  36.082  12.852
17385W        W85790  34.590   1.800   0.564
17386W        W85791  34.342  37.375   1.324
17387W        W85792  16.658   7.432   3.146
17388W        W85793  23.626  34.000   2.426
17389W        W85794   0.289  16.627  14.802
17390W        W85795  22.724   2.939  11.233
17391W        W85796  34.918  12.633   2.688
17392W        W85797   9.859  10.735  14.946
17393W        W85798  40.800  25.038   4.335
17394W        W85799   6.322  14.767  11.513
17395W        W85800  26.392  42.226  11.134
17396W        W85801   8.591  14.234  14.279
17397W        W85802  24.751  23.408   0.057
17398W        W85803  17.032  29.903   3.406
17399W        W85804   0.485  26.933   0.755
17400W        W85805  19.306  30.423  12.004
17401W        W85806  43.238  22.552   3.260
17402W        W85807  43.562  32.839  12.037
17403W        W85808   8.710  42.951   3.241
17404W        W85809  13.153   0.209   1.134
17405W        W85810  29.619  11.377  10.722
17406W        W85811  19.561   7.970  12.907
17407W        W85812  17.154  29.081  13.806
17408W        W85813  27.104  40.900   1.452
17409W        W85814  32.008   3.473  12.948
17410W        W85815  37.612   3.982   4.230
17411W        W85816   6.895  27.741   1.989
17412W        W85817  19.711   4.459   1.679
17413W        W85818  27.578   3.053   0.773
17414W        W85819   3.166  39.113  11.935
17415W        W85820   1.275  17.821  13.858
17416W        W85821  13.625  21.085  13.029
17417W        W85822  32.054  32.882   0.927
17418W        W85823  26.514   9.908  13.455
17419W        W85824   9.117   4.509   4.661
17420W        W85825   3.578  27.763   3.185
17421W        W85826   9.444  32.769  11.478
17422W        W85827  40.286  36.474   3.663
17423W        W85828  23.769  26.824  13.004
17424W        W85829  18.681  21.658   4.438
17425W        W85830  41.883  15.708   2.194
17426W        W85831   8.796  24.617   2.408
17427W        W85832   0.478   7.279   0.678
17428W        W85833  19.742  27.623  14.986
17429W        W85834  16.137  18.312   3.713
17430W        W85835   6.694  10.242  11.916
17431W        W85836  20.018  18.831  11.602
17432W        W85837  20.019  43.328   3.321
17433W        W85838  33.451  41.027   0.471
17434W        W85839  23.688   5.395  12.948
17435W        W85840  41.608  25.488  11.688
17436W        W85841  11.134  11.697  13.421
17437W        W85842  43.646  29.964  12.981
17438W        W85843  26.977   0.575  11.095
17439W        W85844  37.945  17.295   2.412
17440W        W85845  16.769  37.050  11.479
17441W        W85846  30.003  18.475   4.748
17442W        W85847   3.436   4.910   4.212
17443W        W85848  35.436  37.586   3.258
17444W        W85849   4.950  15.132   3.219
17445W        W85850  44.035  30.605  13.271
17446W        W85851   4.401  11.613   0.427
17447W        W85852  14.895  10.142  11.463
17448W        W85853  44.933  35.283   5.048
17449W        W85854  28.824  38.041  11.448
17450W        W85855  23.024  32.415   0.426
17451W        W85856  10.260  31.452  12.670
17452W        W85857  26.566   0.302  14.907
17453W        W85858   9.395  10.207  11.892
17454W        W85859  16.377  11.463   4.201
17455W        W85860  41.275  28.504   1.792
17456W        W85861  23.200  12.638   0.425
17457W        W85862  19.264   0.013   4.471
17458W        W85863  43.179  16.227  13.935
17459W        W85864  16.467  12.099  14.379
17460W        W85865  28.620  10.248   3.811
17461W        W85866  25.173  44.286  12.076
17462W        W85867  19.138  20.011   4.636
17463W        W85868   8.415  26.265  12.828
17464W        W85869  41.367  33.391   0.788
17465W        W85870  21.693   5.286  13.879
17466W        W85871  28.846  17.219  13.922
17467W        W85872  14.245  40.991  14.279
17468W        W85873   6.844  44.783   4.479
17469W        W85874  31.788  18.531   4.988
17470W        W85875  23.102   9.092  14.827
17471W        W85876  12.354   9.446   0.424
17472W        W85877  30.592  15.642   3.160
17473W        W85878  32.713  33.500   1.979
17474W        W85879  41.788  17.528   1.216
17475W        W85880   7.511  17.781   4.480
17476W        W85881  31.537   1.298  13.515
17477W        W85882  24.335  33.879  10.676
17478W        W85883   6.710   2.978  11.533
17479W        W85884   4.230  16.183   0.163
17480W        W85885  38.762  36.199  13.853
17481W        W85886  22.086  15.714  10.891
17482W        W85887   7.344  37.959   0.948
17483W        W85888  20.823  44.403  12.040
17484W        W85889  15.137  25.252   2.531
17485W        W85890  35.165   1.944  13.119
17486W        W85891  43.331  37.145   2.178
17487W        W85892  28.633   8.369   4.181
17488W        W85893  24.985   6.878  14.232
17489W        W85894  16.503  29.928  11.943
17490W        W85895  21.035  37.133   3.337
17491W        W85896  29.532  13.459   1.988
17492W        W85897  20.172  41.245  12.587
17493W        W85898  20.106  17.136  13.403
17494W        W85899  28.069  29.082  14.604
17495W        W85900  24.455  32.626   2.877
17496W        W85901  39.953  36.855   4.307
17497W        W85902  28.636  23.805   3.735
17498W        W85903  37.771  17.612  12.996
17499W        W85904  28.300  43.441  10.551
17500W        W85905   3.255  44.325  14.090
17501W        W85906   5.372  38.636   0.746
17502W        W85907   8.261  44.537  11.426
17503W        W85908  42.312  28.995  13.828
17504W        W85909  38.666   1.584   9.750
17505W        W85910  12.505  26.504   3.792
17506W        W85911  11.157  41.858  11.019
17507W        W85912  31.252  33.936   2.064
17508W        W85913  32.804  40.431  11.959
17509W        W85914   6.788  28.337   5.381
17510W        W85915  20.308  33.618   4.656
17511W        W85916   2.186  13.036   2.598
17512W        W85917  30.647  34.196  11.982
17513W        W85918  21.091  27.476   2.450
17514W        W85919   8.162  33.911   1.309
17515W        W85920  35.947  26.637  10.949
17516W        W85921  23.640  25.539   3.192
17517W        W85922  26.842   9.510   4.256
17518W        W85923  34.095   4.078  13.845
17519W        W85924  23.269  31.468  14.733
17520W        W85925   6.106  12.410   2.852
17521W        W85926  20.766   9.743   2.227
17522W        W85927   6.384  12.769   4.098
17523W        W85928  42.893   2.421  11.116
17524W        W85929  10.307  37.763   5.183
17525W        W85930  26.304  38.873  10.504
17526W        W85931  37.228  25.645  14.883
17527W        W85932  36.365  38.811  14.309
17528W        W85933  44.012  10.138  14.335
17529W        W85934   8.204  23.810   3.551
17530W        W85935  28.177  24.034   3.662
17531W        W85936  19.502   0.766  11.563
17532W        W85937  23.812   0.291   4.081
17533W        W85938  27.486  18.933   1.914
17534W        W85939  15.852  17.126   2.174
17535W        W85940  23.659  17.636   1.701
17536W        W85941  29.205  42.802   1.193
17537W        W85942  30.543  41.609   4.179
17538W        W85943  23.501  43.842   1.436
17539W        W85944  18.739  25.943   3.075
17540W        W85945  10.611  34.968   4.121
17541W        W85946  39.140  22.178   2.903
17542W        W85947  33.549  37.564  14.297
17543W        W85948  39.431  28.567  11.396
17544W        W85949  36.324  31.177  14.477
17545W        W85950  33.102  16.540   0.036
17546W        W85951  38.637  42.723   0.896
17547W        W85952  40.624  38.567   0.461
17548W        W85953  20.602   4.900   0.284
17549W        W85954  31.832   5.672   0.743
17550W        W85955   2.667  31.635   0.464
17551W        W85956  36.108  28.785  12.628
17552W        W85957  27.606  38.687  10.590
17553W        W85958  10.337  19.723  10.795
17554W        W85959   8.901  25.220  11.185
17555W        W85960  28.580  23.326  13.601
17556W        W85961  35.645  12.498  14.357
17557W        W85962  36.950  16.825  14.715
17558W        W85963  26.631   1.963   1.227
17559W        W85964  21.794  30.110   0.774
17560W        W85965  31.067   4.203  13.620
17561W        W85966   8.367  40.328  11.573
17562W        W85967  12.818  41.145   3.106
17563W        W85968  29.213  17.260  11.140
17564W        W85969  18.218  11.193  12.543
17565W        W85970  29.888  26.504   4.041
17566W        W85971  25.174  27.201   0.270
17567W        W85972  20.618  19.621  11.609
17568W        W85973  32.407   6.887   0.796
17569W        W85974  24.216  23.193   3.209
17570W        W85975  12.064  43.394   2.798
17571W        W85976  30.794  30.131   0.159
17572W        W85977  11.691  30.675  12.845
17573W        W85978   7.834  35.874  12.372
17574W        W85979  29.359   9.801  12.488
17575W        W85980  21.713   2.804   3.738
17576W        W85981  34.934   4.909  13.552
17577W        W85982  13.350  25.156  11.645
17578W        W85983  32.810   0.309   1.675
17579W        W85984  18.576  38.903  12.368
17580W        W85985  28.445  25.832  14.752
17581W        W85986  31.650  44.028   3.380
17582W        W85987   1.463   2.340   3.573
17583W        W85988  16.737  38.640  14.411
17584W        W85989   5.634  31.628  14.239
17585W        W85990  36.083  39.061  12.532
17586W        W85991  38.887  20.759   1.877
17587W        W85992  40.839  22.949  11.392
17588W        W85993  27.657   8.663   2.002
17589W        W85994   9.302  41.916   2.919
17590W        W85995  10.705  43.752  11.528
17591W        W85996  28.668   7.855   4.148
17592W        W85997  39.769   5.795  11.498
17593W        W85998   5.129   5.430  11.872
17594W        W85999  29.908  39.806  11.056
17595W        W86000  19.493   2.463   1.301
17596W        W86001  43.515   2.419   3.152
17597W        W86002  35.507   4.187   3.614
17598W        W86003   7.937  14.250  13.770
17599W        W86004  24.171  43.614   2.725
17600W        W86005  39.324   0.130  11.795
17601W        W86006  38.749  19.141  14.687
17602W        W86007   9.382  32.453  13.192
17603W        W86008   9.607  21.594   3.264
17604W        W86009  32.473  33.380  10.901
17605W        W86010  44.209   2.228   1.794
17606W        W86011   9.720  34.310   0.174
17607W        W86012  12.776  35.746   3.410
17608W        W86013   6.151  16.255   3.508
17609W        W86014  26.103  40.789  10.542
17610W        W86015  41.500  20.117  11.474
17611W        W86016  37.049  42.881   1.745
17612W        W86017  33.854  21.501  11.850
17613W        W86018  16.178   7.164  10.597
17614W        W86019   3.380   5.900   2.722
17615W        W86020  28.344  15.861  12.538
17616W        W86021  11.602  42.092   1.448
17617W        W86022  12.245  17.255  13.512
17618W        W86023  27.395   4.383  14.207
17619W        W86024   7.708  33.368   0.047
17620W        W86025  43.301  12.654   4.681
17621W        W86026   5.269   4.974   4.880
17622W        W86027  30.899   8.772  10.640
17623W        W86028  23.221  27.775   0.010
17624W        W86029  31.317   5.757   0.844
17625W        W86030   3.894   5.207   3.570
17626W        W86031  10.998   9.394   4.765
17627W        W86032  41.980  34.671   0.261
17628W        W86033  15.899  27.565   0.825
17629W        W86034  28.472  14.567   3.217
17630W        W86035  40.340  36.131  10.648
17631W        W86036  29.912   5.254   0.322
17632W        W86037  30.012  23.591   3.701
17633W        W86038  22.012  44.498   3.710
17634W        W86039  13.999  44.722   4.946
17635W        W86040  32.326  36.252  14.890
17636W        W86041  15.205   9.832   4.921
17637W        W86042  39.540   2.052   4.570
17638W        W86043  34.490  13.701   4.627
17639W        W86044  27.517  14.104   0.317
17640W        W86045  18.326  30.500   3.208
17641W        W86046  39.492   9.911  12.344
17642W        W86047  36.161  15.140   2.649
17643W        W86048  40.344  41.815  10.599
17644W        W86049  38.835  21.515   3.242
17645W        W86050  29.757  27.087   0.358
17646W        W86051  30.167  14.762   2.778
17647W        W86052  29.996  39.510   3.615
17648W        W86053  29.629  20.690  10.668
17649W        W86054  22.584  15.366  11.495
17650W        W86055  18.531  31.517   2.601
17651W        W86056  36.407  30.473   0.473
17652W        W86057   9.317  37.134   0.634
17653W        W86058   6.930  22.206   3.074
17654W        W86059  33.834  42.256  13.869
17655W        W86060  34.068  19.274   4.154
17656W        W86061  10.290  13.195   0.915
17657W        W86062  10.159  23.130   4.871
17658W        W86063  32.329  27.528   0.298
17659W        W86064   1.397  38.270   4.597
17660W        W86065   8.235   9.767  12.551
17661W        W86066  23.386  23.692  12.085
17662W        W86067  42.750  32.340  11.173
17663W        W86068   2.773   1.796   2.371
17664W        W86069  15.258   6.332  14.055
17665W        W86070  20.381  33.378  11.472
17666W        W86071   0.976  25.935  10.758
17667W        W86072  42.823  13.645   2.543
17668W        W86073   8.598  35.613   3.107
17669W        W86074  26.484   6.953   4.112
17670W        W86075  14.687  25.607  10.262
17671W        W86076  10.687  42.047   3.881
17672W        W86077   9.208  18.275  12.092
17673W        W86078  23.870  20.382  10.983
17674W        W86079  43.496  17.012   4.528
17675W        W86080  37.533  36.931   4.151
17676W        W86081  19.106  43.935   0.579
17677W        W86082  27.120  10.735  14.385
17678W        W86083  21.188   5.357   3.308
17679W        W86084   9.907   0.949  13.982
17680W        W86085  24.173  41.011   3.534
17681W        W86086  28.525  38.412   2.682
17682W        W86087  30.715  18.003  10.472
17683W        W86088  18.660  21.071   0.209
17684W        W86089  34.336  24.017   1.624
17685W        W86090  30.947  37.052  12.911
17686W        W86091  25.219  36.334  13.009
17687W        W86092  44.842   9.872   0.184
17688W        W86093   7.657  42.646   2.340
17689W        W86094  15.090  21.031   3.580
17690W        W86095  40.802  33.967  11.720
17691W        W86096  34.381  42.196   2.206
17692W        W86097   4.004  42.166   4.545
17693W        W86098  30.149  39.550   5.057
17694W        W86099  25.087   7.714   4.281
17695W        W86100  27.058  27.936   4.106
17696W        W86101  17.851  39.099  12.981
17697W        W86102  12.670  31.904  13.836
17698W        W86103  17.331  10.720  10.752
17699W        W86104  27.741  11.443  11.917
17700W        W86105  11.551  32.091   4.160
17701W        W86106  43.046  12.747  12.817
17702W        W86107  18.521  19.710  11.002
17703W        W86108  27.488  25.735   2.160
17704W        W86109  16.110  20.333  12.584
17705W        W86110  32.992  41.273   1.097
17706W        W86111   8.911   8.871   1.815
17707W        W86112  10.778  42.712   1.687
17708W        W86113  31.788  42.560   1.904
17709W        W86114  38.305   0.584  12.982
17710W        W86115  30.529  19.602   9.854
17711W        W86116   0.749   4.489  13.729
17712W        W86117   1.781  27.590   4.529
17713W        W86118  28.838  30.928  11.492
17714W        W86119  15.746  12.721  14.085
17715W        W86120  26.164   3.591  13.849
17716W        W86121  15.236   6.029   1.304
17717W        W86122  10.831  15.294  12.140
17718W        W86123  33.475  33.363  13.723
17719W        W86124   5.861  17.750  10.763
17720W        W86125  18.443  21.631  11.936
17721W        W86126  15.107   4.496   3.246
17722W        W86127  39.942  35.589  11.488
17723W        W86128   0.414  14.355   2.468
17724W        W86129  29.098  18.867   4.521
17725W        W86130  11.940   2.217   2.184
17726W        W86131   9.804  10.678   2.746
17727W        W86132   4.202  38.943   3.097
17728W        W86133  40.349   2.754  14.299
17729W        W86134  10.438  13.831  12.108
17730W        W86135  41.393  38.972  12.867
17731W        W86136  22.283  43.017  11.406
17732W        W86137  18.475  25.609  13.350
17733W        W86138  38.142  38.977  14.048
17734W        W86139  30.410   4.380  14.254
17735W        W86140  19.780  41.520  12.364
17736W        W86141  28.962   3.711   3.873
17737W        W86142  30.558   9.769  14.034
17738W        W86143  31.920   2.864  13.552
17739W        W86144  28.013  14.745   5.564
17740W        W86145  11.506  30.915  10.637
17741W        W86146  19.721   2.735   1.707
17742W        W86147  21.984  33.402  12.410
17743W        W86148  10.937  34.839   2.898
17744W        W86149   8.201  21.721   2.711
17745W        W86150  10.219  28.086   4.902
17746W        W86151  24.441  39.015  11.061
17747W        W86152  22.075   0.678   4.582
17748W        W86153  23.480  25.472   1.168
17749W        W86154   6.729  35.373  13.879
17750W        W86155  30.610  16.329  12.921
17751W        W86156   8.685  13.364  10.729
17752W        W86157  35.953  15.330  14.654
17753W        W86158  32.394  33.864  11.931
17754W        W86159  11.187  33.014   2.371
17755W        W86160  28.992  10.171  12.439
17756W        W86161   6.656  13.478  13.281
17757W        W86162  16.787  35.595   0.280
17758W        W86163  20.750   3.145  14.176
17759W        W86164  16.865  34.728   3.324
17760W        W86165  15.805  21.598   2.758
17761W        W86166  15.234   3.337  14.948
17762W        W86167   0.245   9.592  13.230
17763W        W86168  18.917  20.131   3.762
17764W        W86169  17.637  27.015   4.530
17765W        W86170  38.385  29.086   4.507
17766W        W86171  25.919  27.141   4.263
17767W        W86172   7.427  28.968   2.702
17768W        W86173  41.015   9.374   1.851
17769W        W86174  17.648  21.130  13.923
17770W        W86175  31.534   9.013   2.915
17771W        W86176  35.801  26.748   0.307
17772W        W86177  39.258  22.120  10.579
17773W        W86178  16.285  31.895  11.117
17774W        W86179   4.192  11.616   2.155
17775W        W86180  41.601  36.344  14.445
17776W        W86181  27.433   6.099  14.822
17777W        W86182  13.185  43.566   0.422
17778W        W86183  38.098  18.779   1.929
17779W        W86184  17.125  31.097  14.850
17780W        W86185  37.362  10.918   1.692
17781W        W86186   9.173  40.348   2.870
17782W        W86187  33.880  36.900  13.963
17783W        W86188  13.578   7.183  13.360
17784W        W86189  44.741  32.097  12.272
17785W        W86190  21.556  38.995  14.293
17786W        W86191   1.879  33.398  12.814
17787W        W86192  20.170  24.283   1.900
17788W        W86193   7.040  43.891   3.575
17789W        W86194  17.486  24.486   2.143
17790W        W86195  41.546   0.389   2.222
17791W        W86196  10.443  15.131   0.777
17792W        W86197  21.740   1.087   3.027
17793W        W86198  42.027  10.721   4.662
17794W        W86199  10.432   0.303   1.851
17795W        W86200  23.647   4.733   3.213
17796W        W86201  33.225  35.194   3.631
17797W        W86202   3.694   7.302  14.317
17798W        W86203  18.669  33.951   9.971
17799W        W86204  14.705  40.706   1.467
17800W        W86205  14.835  21.373   3.207
17801W        W86206  12.371  36.679  10.543
17802W        W86207  42.689  15.663   4.813
17803W        W86208   4.380  16.737  14.923
17804W        W86209  27.938  42.204   1.935
17805W        W86210  14.652   8.261  14.317
17806W        W86211  27.468  24.706   2.084
17807W        W86212  23.081   5.334   4.350
17808W        W86213  10.865  13.753  13.400
17809W        W86214  33.649  35.106   2.410
17810W        W86215  44.598  24.933  11.087
17811W        W86216   7.416  40.511  11.074
17812W        W86217   2.933  41.248  12.592
17813W        W86218  31.715  12.322   3.204
17814W        W86219  23.560  37.915  12.435
17815W        W86220   5.344  23.278  11.900
17816W        W86221  43.828  12.604  14.021
17817W        W86222  27.080  20.651  14.854
17818W        W86223  10.836  17.769   1.222
17819W        W86224   0.193   9.525   4.238
17820W        W86225  44.811  15.043  10.483
17821W        W86226   5.754  41.629  13.432
17822W        W86227  16.114  27.455  12.577
17823W        W86228   9.772  33.978   4.581
17824W        W86229  28.203  40.912  14.989
17825W        W86230  42.115  36.154  14.339
17826W        W86231  29.872  15.730  12.448
17827W        W86232   0.598  42.386   2.757
17828W        W86233  10.549  25.982   4.148
17829W        W86234  13.395  13.776   1.198
17830W        W86235   6.483  18.142  11.131
17831W        W86236  34.690  42.486   4.079
17832W        W86237  15.178  10.215  10.360
17833W        W86238  34.768  12.776   3.171
17834W        W86239  39.367  12.374   3.320
17835W        W86240   4.353  36.320   1.797
17836W        W86241  33.964  35.797   3.339
17837W        W86242  29.891   0.486  13.398
17838W        W86243  22.677  13.755   0.422
17839W        W86244   1.315   7.707   0.792
17840W        W86245  44.492  15.277  14.731
17841W        W86246  21.028  11.928  13.925
17842W        W86247  32.563  23.047  13.315
17843W        W86248  22.831   6.422   4.626
17844W        W86249  25.291  24.517  14.953
17845W        W86250   4.107  30.872   3.240
17846W        W86251   7.320  24.502   2.436
17847W        W86252  32.101  11.853  12.982
17848W        W86253  23.240   3.988   3.302
17849W        W86254   7.718  24.771   1.121
17850W        W86255  11.095  35.113   4.205
17851W        W86256  16.086  34.053   1.867
17852W        W86257  37.498  25.857  11.237
17853W        W86258  22.718  11.584  14.901
17854W        W86259  41.378  25.984  14.773
17855W        W86260  19.474  17.100  10.834
17856W        W86261  22.242  36.292   3.914
17857W        W86262   5.767  42.881  11.495
17858W        W86263  12.623   8.333  13.617
17859W        W86264  43.437   3.404  14.425
17860W        W86265  33.460  12.462  13.156
17861W        W86266  27.021  13.035   1.761
17862W        W86267   0.709  11.215  12.314
17863W        W86268  19.047  10.581  11.628
17864W        W86269   3.936   8.979  11.344
17865W        W86270  33.981   5.673   3.128
17866W        W86271  23.145   7.518  14.033
17867W        W86272  37.785  14.575  12.073
17868W        W86273  16.178   5.947  14.019
17869W        W86274  43.295  40.375  10.241
17870W        W86275   4.897  31.519  13.772
17871W        W86276   4.389  30.985   2.776
17872W        W86277  12.079   2.055   0.434
17873W        W86278   6.934  29.732   0.740
17874W        W86279  44.057  20.145   4.574
17875W        W86280  20.971  39.575  11.550
17876W        W86281  10.688   3.136  12.871
17877W        W86282  44.310  16.597   1.455
17878W        W86283   5.813   5.673   1.050
17879W        W86284  30.191  42.399   2.699
17880W        W86285   4.854  16.415   3.157
17881W        W86286  17.877  42.068  14.953
17882W        W86287  11.342   4.805  10.586
17883W        W86288   5.506  33.413  11.362
17884W        W86289  15.808  32.047  11.238
17885W        W86290  33.580   9.987   2.114
17886W        W86291  29.412  32.007  11.702
17887W        W86292  37.109  40.595  11.638
17888W        W86293  22.807  43.619   3.012
17889W        W86294  29.986  26.268  14.703
17890W        W86295  23.045  44.436  13.490
17891W        W86296  20.975  11.242   4.137
17892W        W86297  10.569  14.210  10.756
17893W        W86298   4.783  21.608   0.924
17894W        W86299  27.793  38.972  14.973
17895W        W86300  21.511  27.577   1.807
17896W        W86301  19.698  13.877   4.556
17897W        W86302  31.399  12.511  13.395
17898W        W86303  12.741  44.684   1.429
17899W        W86304   2.378  20.939   9.959
17900W        W86305  21.020  42.233   4.537
17901W        W86306  43.703  25.588   1.491
17902W        W86307  14.187   5.955  13.397
17903W        W86308  39.375  18.064  11.170
17904W        W86309  26.136  32.966  11.741
17905W        W86310   2.123  37.876  14.989
17906W        W86311  12.405   3.919  13.266
17907W        W86312  32.908  27.965   2.575
17908W        W86313  18.172  11.315   4.892
17909W        W86314  17.054  34.059   0.793
17910W        W86315  39.937  20.166   4.745
17911W        W86316   9.307  14.012   1.095
17912W        W86317  44.913   0.035   0.576
17913W        W86318  10.698  32.128  14.430
17914W        W86319  31.200  27.664   2.210
17915W        W86320   7.044   7.320   4.506
17916W        W86321  11.665   4.705  12.136
17917W        W86322  34.450   8.470  13.399
17918W        W86323  24.256  20.749  11.127
17919W        W86324  32.879  33.137  11.095
17920W        W86325  23.321  25.913  14.399
17921W        W86326  35.615  37.593   4.096
17922W        W86327   4.712  44.259  13.841
17923W        W86328   5.761  32.331  12.435
17924W        W86329  22.258  41.629  11.290
17925W        W86330  33.666  28.131   3.710
17926W        W86331  34.792  32.458   3.259
17927W        W86332   6.330  11.560   3.177
17928W        W86333  30.052  29.217   3.786
17929W        W86334  23.625  20.015  14.382
17930W        W86335  42.555  15.965  14.826
17931W        W86336  27.481  43.493   3.669
17932W        W86337  14.251  44.412   4.616
17933W        W86338   6.827  43.736  14.979
17934W        W86339  39.872  28.538  14.305
17935W        W86340   8.534  38.175  13.436
17936W        W86341  43.544   6.294  12.998
17937W        W86342  22.349   2.724   3.879
17938W        W86343  33.157  44.292  13.959
17939W        W86344  26.573  10.958   3.679
17940W        W86345  11.186  14.199  12.141
17941W        W86346  13.873  27.432  10.577
17942W        W86347   3.681   0.944   0.673
17943W        W86348  13.564   6.350   0.391
17944W        W86349  28.249  26.022   0.668
17945W        W86350   1.740  33.409   3.702
17946W        W86351  24.040  42.475  13.659
17947W        W86352  21.626   3.344   1.297
17948W        W86353  38.817  44.678  12.458
17949W        W86354  37.435   3.417   1.871
17950W        W86355  42.865  31.350   1.803
17951W        W86356   2.929  27.190   1.660
17952W        W86357  38.171   4.437  12.644
17953W        W86358  16.778  13.344  10.753
17954W        W86359  33.388   1.352   4.255
17955W        W86360  40.433  31.929  14.901
17956W        W86361   2.652  32.827   1.941
17957W        W86362  32.486  34.412   1.969
17958W        W86363  23.487   4.960  14.858
17959W        W86364  10.044  16.305  11.237
17960W        W86365  44.810  23.780  14.307
17961W        W86366  28.157  15.281  13.584
17962W        W86367  34.542  24.723  12.756
17963W        W86368  21.269  35.384  12.379
17964W        W86369  15.095  13.608  11.907
17965W        W86370  31.255  32.881  12.989
17966W        W86371  24.535  18.220   2.920
17967W        W86372   6.889  36.620  12.921
17968W        W86373  39.619   8.283  13.991
17969W        W86374  28.658  37.138   0.806
17970W        W86375  28.602  30.617   2.812
17971W        W86376  11.784  13.269   0.557
17972W        W86377   1.255  34.097  11.724
17973W        W86378  24.433  41.018   1.214
17974W        W86379  39.637  19.241  10.629
17975W        W86380  26.878   0.783   2.169
17976W        W86381  42.373   5.167  12.376
17977W        W86382  20.249  18.861   3.874
17978W        W86383  41.434   7.777  14.479
17979W        W86384  25.967  29.917   2.903
17980W        W86385  37.521  10.646   2.686
17981W        W86386  43.086   7.875  12.537
17982W        W86387   1.943  12.632  13.818
17983W        W86388  31.881  12.565  12.510
17984W        W86389  36.216   9.071  12.104
17985W        W86390  10.299  12.429  11.231
17986W        W86391  15.511   8.305   2.299
17987W        W86392  36.598  37.284  11.744
17988W        W86393  44.392  26.032   4.895
17989W        W86394   7.128  19.744  14.755
17990W        W86395   6.674  22.416   0.451
17991W        W86396  32.524   5.893   0.070
17992W        W86397  44.485  16.606  10.265
17993W        W86398   2.456  44.693   4.497
17994W        W86399   9.406  37.999   0.754
17995W        W86400  13.308  11.572   1.336
17996W        W86401  27.081  43.544  13.959
17997W        W86402  32.504  27.098   0.546
17998W        W86403  27.157   0.165   1.408
17999W        W86404  14.396  41.531  13.610
18000W        W86405   5.855  30.650   4.604
18001W        W86406  34.372   5.187   1.178
18002W        W86407  33.984  34.380   4.085
18003W        W86408  16.770  20.108   4.369
18004W        W86409  37.023  37.311  10.567
18005W        W86410  38.264  19.224   2.233
18006W        W86411  35.467  29.836  11.202
18007W        W86412  41.762  28.689   4.188
18008W        W86413   0.734   8.277  13.088
18009W        W86414   7.366  26.492  12.515
18010W        W86415   3.781  34.755   4.928
18011W        W86416  44.462  27.557   4.105
18012W        W86417  15.247  16.378   2.722
18013W        W86418  23.752  25.393   4.087
18014W        W86419  35.046  22.311  12.823
18015W        W86420  16.211  22.155  12.811
18016W        W86421  33.372  25.831  13.851
18017W        W86422  23.050  36.928   3.693
18018W        W86423   0.949  38.726  12.026
18019W        W86424  10.707   1.863   0.373
18020W        W86425  19.157  10.645  14.758
18021W        W86426   0.161  16.137  13.455
18022W        W86427  38.902  44.382   4.565
18023W        W86428  23.088  12.377   0.014
18024W        W86429  25.934   3.733   1.853
18025W        W86430  27.351   5.060   2.690
18026W        W86431  17.671  42.155   3.427
18027W        W86432  31.005  24.090  12.947
18028W        W86433  25.525  22.519  10.752
18029W        W86434  10.475  22.624  10.718
18030W        W86435  39.022   4.319   2.670
18031W        W86436  16.139  40.486  13.450
18032W        W86437  42.500  13.204   1.408
18033W        W86438  25.504   2.482  13.226
18034W        W86439   8.920  11.570  13.461
18035W        W86440  29.854  42.808   2.736
18036W        W86441   4.332  11.791   3.171
18037W        W86442   2.757   9.814   1.646
18038W        W86443  41.705  20.587  11.575
18039W        W86444   3.062  33.220   4.232
18040W        W86445  44.475  44.319   1.747
18041W        W86446  41.787  34.041  10.902
18042W        W86447  38.941   0.467  11.602
18043W        W86448   7.587  24.708  14.520
18044W        W86449  36.927  42.941  12.863
18045W        W86450  26.301  13.607  12.546
18046W        W86451  19.715  13.105   1.940
18047W        W86452   4.982  32.026   2.161
18048W        W86453  18.787   1.691   3.178
18049W        W86454   0.760   2.363   0.893
18050W        W86455   9.556  10.765   2.302
18051W        W86456   5.985  27.207  11.551
18052W        W86457   1.179   0.848  13.493
18053W        W86458  22.144  35.016  10.923
18054W        W86459  10.400  42.023  14.475
18055W        W86460   4.405  29.181  11.477
18056W        W86461  11.179  17.610   1.875
18057W        W86462  24.524  36.421  11.555
18058W        W86463  42.608   9.424  14.771
18059W        W86464  22.525  23.774   4.083
18060W        W86465  43.851  11.355   2.790
18061W        W86466  29.416  43.082  10.195
18062W        W86467  33.615  31.549  12.923
18063W        W86468  24.139  30.407  14.779
18064W        W86469  37.116  26.613   4.181
18065W        W86470  29.411  38.635  14.327
18066W        W86471  39.068  39.629  12.463
18067W        W86472  24.128   4.934   1.153
18068W        W86473   9.087  38.824   4.564
18069W        W86474  23.191  12.682   1.348
18070W        W86475  22.674  38.247  10.660
18071W        W86476  38.308  18.252  13.778
18072W        W86477   8.933   7.620  11.546
18073W        W86478  11.408  30.669   4.056
18074W        W86479   0.796   7.677   0.891
18075W        W86480   7.762  28.014   0.240
18076W        W86481  32.158  37.593  10.719
18077W        W86482  30.781   4.864  11.525
18078W        W86483  25.397  17.042  14.754
18079W        W86484  25.595  24.005  10.768
18080W        W86485  17.064   1.883   2.424
18081W        W86486  43.523  25.068   2.665
18082W        W86487  18.554  34.581   3.459
18083W        W86488  15.114   3.447  12.547
18084W        W86489   7.371  30.671   2.254
18085W        W86490  40.638  33.591  10.966
18086W        W86491  27.916  11.753   2.399
18087W        W86492  16.748  25.874   3.104
18088W        W86493   3.967  24.214   1.942
18089W        W86494   6.747  39.867  12.529
18090W        W86495   1.985   4.761   5.115
18091W        W86496  16.543  28.078  12.064
18092W        W86497   1.854  22.733   3.550
18093W        W86498  21.031  12.677   3.969
18094W        W86499  39.043  43.512   0.451
18095W        W86500  24.234  25.157   0.012
18096W        W86501  39.422   3.091  12.813
18097W        W86502  18.186  26.665   4.046
18098W        W86503  40.274   0.821  12.121
18099W        W86504  30.066  34.633  12.982
18100W        W86505  28.307   0.666   0.555
18101W        W86506  36.163  25.680  13.317
18102W        W86507  11.410  20.553  13.561
18103W        W86508  34.583   9.877  10.381
18104W        W86509  28.187  19.229   4.548
18105W        W86510  18.334  29.088   2.295
18106W        W86511  44.913   1.303  12.188
18107W        W86512  44.787  17.035  10.141
18108W        W86513  25.124   5.662  13.014
18109W        W86514  42.712  35.055   2.170
18110W        W86515  31.919   3.994  14.292
18111W        W86516  21.215  28.024   1.819
18112W        W86517  17.213  36.007   1.176
18113W        W86518  39.172  31.026  12.912
18114W        W86519  42.131  33.632  11.052
18115W        W86520   0.975  29.049  13.816
18116W        W86521  34.828  26.483   0.442
18117W        W86522   4.781  41.718   3.371
18118W        W86523  41.274  21.096  10.827
18119W        W86524   4.770  32.935  12.887
18120W        W86525  11.722  36.608  11.176
18121W        W86526   3.310  26.947   4.134
18122W        W86527  14.758  38.226  12.674
18123W        W86528  21.048   4.531   2.859
18124W        W86529  11.427   4.675   4.440
18125W        W86530  20.172   8.715   3.831
18126W        W86531  39.831  36.074  10.670
18127W        W86532  18.179  14.733   4.687
18128W        W86533   5.644  35.571   0.730
18129W        W86534  32.341  11.677   1.672
18130W        W86535  14.767  37.898  11.100
18131W        W86536  10.176  32.692   2.723
18132W        W86537  17.071  41.523   3.137
18133W        W86538  28.235  42.020   3.680
18134W        W86539  26.955  31.137   1.452
18135W        W86540  19.491   6.968  13.924
18136W        W86541  36.630  13.154  11.611
18137W        W86542  29.111   5.638   1.217
18138W        W86543  17.568  24.519  10.743
18139W        W86544  43.468  32.070   0.333
18140W        W86545  35.259   5.562   3.213
18141W        W86546   2.320  40.301  12.906
18142W        W86547  38.366   7.985   2.795
18143W        W86548   7.334  39.245  11.273
18144W        W86549  25.104  37.968  14.627
18145W        W86550  35.739  20.154   1.696
18146W        W86551  22.748  42.866  10.655
18147W        W86552  12.230   9.792   2.827
18148W        W86553   4.763   5.377  13.082
18149W        W86554   5.344   4.833   1.402
18150W        W86555  40.189  43.782  12.967
18151W        W86556  32.637   3.878  10.648
18152W        W86557  31.649  21.316   3.658
18153W        W86558   6.676  41.520   0.877
18154W        W86559   1.783   7.637   2.785
18155W        W86560  10.069  24.260   4.271
18156W        W86561  22.304  42.551   1.700
18157W        W86562  16.998  41.433  14.391
18158W        W86563  43.388  21.058  13.590
18159W        W86564  17.572   6.742  12.931
18160W        W86565   1.889  17.579  14.958
18161W        W86566  41.031  41.230   2.186
18162W        W86567  15.500  20.281   2.793
18163W        W86568  18.771  12.101  12.914
18164W        W86569  37.261   8.642  13.078
18165W        W86570  20.867  31.546  14.416
18166W        W86571  25.931  19.530   3.637
18167W        W86572  24.716  43.019   1.388
18168W        W86573  10.914  30.492   4.151
18169W        W86574   7.561  19.199   3.242
18170W        W86575  12.842  15.945  11.614
18171W        W86576  32.471   9.143  10.565
18172W        W86577  37.516  28.266   1.994
18173W        W86578  23.806   3.724  11.567
18174W        W86579  19.712  14.016  10.480
18175W        W86580  34.791  15.614  13.908
18176W        W86581  42.318  18.988  14.519
18177W        W86582  32.617  11.609  10.204
18178W        W86583  17.376  30.930   2.566
18179W        W86584  30.023  27.216  13.031
18180W        W86585  30.484  44.833  13.375
18181W        W86586   7.213   4.032  10.844
18182W        W86587  15.048  14.710  14.349
18183W        W86588  25.169   3.280   4.643
18184W        W86589  16.762  20.246  11.147
18185W        W86590  41.107  29.563   4.728
18186W        W86591   0.482  37.767  14.080
18187W        W86592  36.189  18.251   1.367
18188W        W86593   4.886   4.841   5.283
18189W        W86594   3.902  25.993  13.461
18190W        W86595   5.644  28.463   0.429
18191W        W86596   0.742  13.513   3.512
18192W        W86597   7.468  39.117  12.525
18193W        W86598  14.649  35.362   3.590
18194W        W86599  42.759  17.055  14.480
18195W        W86600  18.356  13.141   2.808
18196W        W86601  30.580  40.270  14.822
18197W        W86602  10.285  10.891   3.651
18198W        W86603  18.993  32.675   3.950
18199W        W86604   2.674   4.526   9.735
18200W        W86605  42.796  28.887  14.717
18201W        W86606  13.869  29.919  13.967
18202W        W86607  31.069  34.062   0.391
18203W        W86608  11.683  17.533  12.828
18204W        W86609  27.970  24.257   3.222
18205W        W86610  42.919  31.631  10.729
18206W        W86611  26.589  22.190   4.718
18207W        W86612  26.897   3.677  10.836
18208W        W86613  23.068  34.491   1.678
18209W        W86614   2.407  13.536   2.236
18210W        W86615  13.197  25.926  14.584
18211W        W86616  12.758  26.491   0.219
18212W        W86617  21.675  43.402   0.778
18213W        W86618   9.219  23.510   0.447
18214W        W86619   7.912  22.532   1.669
18215W        W86620  28.161   2.176  11.723
18216W        W86621  16.996  36.453  11.218
18217W        W86622  20.762  22.037  12.451
18218W        W86623  39.774  25.178   0.159
18219W        W86624  29.437  25.935  11.507
18220W        W86625  25.753   9.200   0.786
18221W        W86626  37.455  14.107  11.532
18222W        W86627  35.977   5.009  11.486
18223W        W86628  17.108   5.763   3.666
18224W        W86629  41.373  18.265   1.523
18225W        W86630  35.108  10.888  10.949
18226W        W86631   9.310  11.425   1.849
18227W        W86632  10.734  32.625   0.356
18228W        W86633  39.228  18.819  12.485
18229W        W86634  12.608  27.973  11.035
18230W        W86635  16.804   1.247  14.834
18231W        W86636  15.238  22.307   3.225
18232W        W86637  12.827   7.174  10.420
18233W        W86638  17.687   8.416   1.671
18234W        W86639  17.222  12.591  11.670
18235W        W86640  13.137  43.074  13.960
18236W        W86641  16.762  31.586  10.920
18237W        W86642  28.215  35.300  12.933
18238W        W86643  10.505  10.259  14.776
18239W        W86644   1.285   9.799   1.443
18240W        W86645   5.932   5.302   2.136
18241W        W86646  41.453  33.931  12.506
18242W        W86647  10.181  22.634  13.414
18243W        W86648  11.586  31.760  10.672
18244W        W86649  12.143  40.319  11.114
18245W        W86650   5.145  12.476  13.251
18246W        W86651  26.993  14.124  14.282
18247W        W86652   8.339  33.869   0.398
18248W        W86653  20.933  32.960   3.699
18249W        W86654   9.639  30.192  11.557
18250W        W86655   5.352  43.645   2.080
18251W        W86656  11.323   2.886   1.801
18252W        W86657  28.465  41.093  12.615
18253W        W86658  30.719  30.746   1.768
18254W        W86659   1.058  39.312  11.211
18255W        W86660  15.159  11.863   3.892
18256W        W86661  37.350  21.020  11.053
18257W        W86662  14.149  25.454  14.403
18258W        W86663  39.025  19.796  12.475
18259W        W86664  10.736  36.871   4.389
18260W        W86665   6.725  23.109  11.026
18261W        W86666  27.453  17.054  13.965
18262W        W86667  10.930  41.242   0.872
18263W        W86668  25.454  41.889  10.765
18264W        W86669  34.512  40.042   0.754
18265W        W86670   8.386  42.436   2.614
18266W        W86671  33.285  14.217  13.951
18267W        W86672  14.140  34.256   5.040
18268W        W86673   4.916  10.939  11.190
18269W        W86674  13.735  21.252   4.635
18270W        W86675  30.589  28.836   3.796
18271W        W86676  10.794  38.381   1.703
18272W        W86677  22.531   3.448   2.852
18273W        W86678  41.937  24.277  12.967
18274W        W86679  31.127  29.532  14.373
18275W        W86680   0.887  44.530  11.592
18276W        W86681  41.017  32.050  13.320
18277W        W86682  34.612  34.485   1.190
18278W        W86683  36.919   7.704  14.162
18279W        W86684  18.883  23.592   2.291
18280W        W86685  22.660  11.795   0.775
18281W        W86686   8.409  32.509   1.275
18282W        W86687  43.861  11.798   1.234
18283W        W86688  11.743  39.365   1.298
18284W        W86689   4.385  21.322  12.963
18285W        W86690   2.230   5.220  11.458
18286W        W86691   8.774  42.260   0.697
18287W        W86692   3.706  30.525  11.005
18288W        W86693   3.741  34.315   1.891
18289W        W86694  44.834  39.281  11.566
18290W        W86695  11.552  19.868   2.602
18291W        W86696  23.655   5.233   1.455
18292W        W86697   5.334   9.190  13.100
18293W        W86698  28.093  26.748  13.053
18294W        W86699  37.083   6.847  12.039
18295W        W86700  40.149  42.034   2.960
18296W        W86701  29.429  35.788  14.738
18297W        W86702  23.017  42.846   0.705
18298W        W86703  15.977   3.293   0.498
18299W        W86704  40.569  32.551   3.643
18300W        W86705   6.876  37.032  10.739
18301W        W86706  11.743  10.743  13.004
18302W        W86707  40.742  29.225  11.376
18303W        W86708  40.032  34.583   3.380
18304W        W86709  25.006  30.373  14.439
18305W        W86710  20.314  22.054  11.640
18306W        W86711  17.632  41.374   4.804
18307W        W86712  11.207   6.610   3.274
18308W        W86713  28.108  42.964  11.536
18309W        W86714  22.380  29.471   2.351
18310W        W86715   9.350  24.629   0.431
18311W        W86716  32.791   5.614   4.012
18312W        W86717   1.248  38.992   3.569
18313W        W86718   5.808  20.137   0.791
18314W        W86719  31.977  19.079   4.916
18315W        W86720  10.275  19.067   2.664
18316W        W86721  15.578  29.139   3.150
18317W        W86722   3.275  11.761  11.106
18318W        W86723  30.062   8.794   2.846
18319W        W86724  37.622  43.835   2.360
18320W        W86725  13.864  17.154   1.843
18321W        W86726  14.140  23.049  11.929
18322W        W86727   5.948  40.588   3.365
18323W        W86728  18.344  31.066   3.719
18324W        W86729  19.977  35.059   4.014
18325W        W86730  10.241   6.868  13.462
18326W        W86731   6.022  43.143   5.145
18327W        W86732  43.515  22.835  11.619
18328W        W86733   8.231  39.273  11.462
18329W        W86734   1.748  30.559   0.075
18330W        W86735  43.943   0.051  11.759
18331W        W86736  25.483  44.498   0.264
18332W        W86737  21.499  36.182  11.818
18333W        W86738  29.410  42.708  14.701
18334W        W86739  19.165  27.404  12.141
18335W        W86740  32.999  32.026   2.392
18336W        W86741  19.727  14.273  11.301
18337W        W86742  20.973  13.190  12.429
18338W        W86743  12.139  20.686   0.791
18339W        W86744  11.104  35.976  13.897
18340W        W86745  36.987   8.757   0.890
18341W        W86746   3.703   8.882  12.405
18342W        W86747  41.280  16.618  11.600
18343W        W86748   3.258  19.611   3.317
18344W        W86749   4.496   0.731  11.989
18345W        W86750  19.539  38.731  11.932
18346W        W86751  23.485  41.030  13.021
18347W        W86752   6.431  21.048   3.768
18348W        W86753  27.201  24.645  13.024
18349W        W86754   4.256   0.465   4.928
18350W        W86755  19.189  15.512  11.629
18351W        W86756   2.801  13.744  13.109
18352W        W86757  15.212  30.638   5.325
18353W        W86758  10.065  23.957  14.493
18354W        W86759   4.919  30.554   3.387
18355W        W86760  38.339  16.930   0.856
18356W        W86761  25.596  22.099  10.462
18357W        W86762  31.187  11.958  12.918
18358W        W86763  35.046  12.227   3.623
18359W        W86764  27.742  40.130   0.544
18360W        W86765  12.411  19.624  13.690
18361W        W86766   2.833  26.217   3.940
18362W        W86767   3.475   3.462   2.233
18363W        W86768  13.841  27.537  12.607
18364W        W86769   5.305  13.592  14.506
18365W        W86770  33.560  12.986  11.221
18366W        W86771  42.486  23.249   3.202
18367W        W86772  16.283  44.938  13.004
18368W        W86773   2.667  13.139   2.764
18369W        W86774  40.846  13.999   4.110
18370W        W86775  33.930  42.773   4.038
18371W        W86776  29.554  22.360  13.880
18372W        W86777  43.561  10.678  11.985
18373W        W86778   6.302  21.308  11.484
18374W        W86779   6.773  12.832  14.901
18375W        W86780  10.743  20.170   2.171
18376W        W86781  31.417   0.108  14.342
18377W        W86782  29.589  26.361   4.482
18378W        W86783   3.789  39.350   1.816
18379W        W86784  10.635  20.385   2.635
18380W        W86785  33.461  35.435   0.234
18381W        W86786  15.166  30.444  10.744
18382W        W86787  44.424  32.910   2.358
18383W        W86788  21.769  26.353   0.297
18384W        W86789  18.009  33.694   0.577
18385W        W86790  27.530   7.750  10.900
18386W        W86791  23.193   9.335  10.672
18387W        W86792  18.519  32.426   0.491
18388W        W86793  39.483  35.529   3.245
18389W        W86794  24.099  42.871  12.660
18390W        W86795  21.764  31.510  14.170
18391W        W86796   8.583  10.654  14.094
18392W        W86797   3.197   4.016   3.611
18393W        W86798   7.885  34.050  14.375
18394W        W86799   1.920  42.026  14.829
18395W        W86800  13.312   0.997  12.049
18396W        W86801  35.629  36.386   2.419
18397W        W86802  39.952  42.998  13.981
18398W        W86803   4.249  41.417  10.715
18399W        W86804  30.287  33.123   0.957
18400W        W86805  24.615  21.172  12.353
18401W        W86806  28.598  37.376  11.988
18402W        W86807  38.941   8.459  13.409
18403W        W86808  32.363   6.652   1.276
18404W        W86809   6.756   2.884   3.605
18405W        W86810  10.407  26.115  13.130
18406W        W86811  34.790   5.914  13.070
18407W        W86812  27.619  36.575   2.267
18408W        W86813   1.734  38.296  10.690
18409W        W86814  27.021  31.812  12.521
18410W        W86815   9.253  27.359  12.391
18411W        W86816   3.190   7.299  13.327
18412W        W86817   3.486  14.164   3.760
18413W        W86818  38.783  22.726   1.018
18414W        W86819  10.790  21.186   2.342
18415W        W86820  12.556   9.392   2.886
18416W        W86821  41.375  17.116   3.312
18417W        W86822  18.618  40.202   0.399
18418W        W86823  41.564  38.476   1.430
18419W        W86824  37.382  21.573  13.331
18420W        W86825   8.908   2.698  11.080
18421W        W86826  14.806  28.849  11.083
18422W        W86827  44.635  38.687  11.134
18423W        W86828   2.243   0.476   1.827
18424W        W86829   5.686  25.454  11.715
18425W        W86830  28.727   7.136   2.181
18426W        W86831  13.454  38.051  11.637
18427W        W86832  37.678   8.190  12.124
18428W        W86833   3.002  28.185   1.209
18429W        W86834  30.176  16.053   4.439
18430W        W86835  35.883   0.008  13.636
18431W        W86836   1.527   9.450  10.655
18432W        W86837  34.808   3.873   0.414
18433W        W86838  26.861  41.662  11.487
18434W        W86839  43.594   5.985  11.208
18435W        W86840  11.123   3.931   0.953
18436W        W86841  42.493  17.631  12.356
18437W        W86842  38.655  35.915  11.467
18438W        W86843  28.001  29.862   3.630
18439W        W86844  36.977  42.272   0.089
18440W        W86845  25.654  18.560  12.575
18441W        W86846  38.498   2.965   0.338
18442W        W86847  28.520  12.438  13.349
18443W        W86848  26.121  28.456  10.745
18444W        W86849  17.740  32.936   2.818
18445W        W86850  38.931   2.954  11.562
18446W        W86851  37.005  42.955  10.635
18447W        W86852  43.264  19.651  12.067
18448W        W86853   9.681  16.077   1.292
18449W        W86854  12.071  24.242   1.743
18450W        W86855  28.734   7.742  10.752
18451W        W86856  41.244  37.063   1.285
18452W        W86857  19.652  44.482   2.705
18453W        W86858  11.453   8.940  12.541
18454W        W86859  43.771  20.095   1.228
18455W        W86860  17.557  31.614   1.393
18456W        W86861  26.590  43.000  14.313
18457W        W86862  41.002  30.301  11.660
18458W        W86863  31.069  32.024   3.891
18459W        W86864  36.831  33.448   4.137
18460W        W86865  11.378  41.994  14.003
18461W        W86866  27.515  17.623  12.218
18462W        W86867   0.448   0.495   1.442
18463W        W86868  18.503  40.004  14.461
18464W        W86869  37.128  31.709   2.169
18465W        W86870   3.451  43.685  14.937
18466W        W86871   5.717  21.093   4.145
18467W        W86872   5.412  25.087  14.899
18468W        W86873  23.487  17.112  14.413
18469W        W86874  27.895  17.781  13.490
18470W        W86875  22.569  14.219  13.975
18471W        W86876   3.711  41.441   0.529
18472W        W86877  13.546   2.991   9.838
18473W        W86878  43.495  31.583   4.014
18474W        W86879   5.600   5.169  10.575
18475W        W86880  36.439   1.789  10.952
18476W        W86881   1.257   3.756   4.687
18477W        W86882   0.891  41.888   2.190
18478W        W86883  17.124   3.058  10.361
18479W        W86884  41.814  28.398   3.348
18480W        W86885   6.290   4.250   3.199
18481W        W86886  41.751  31.399  11.589
18482W        W86887   4.808  27.774   1.282
18483W        W86888  42.832  37.894   3.372
18484W        W86889  12.389  29.695   4.190
18485W        W86890  22.691  28.274  14.272
18486W        W86891  43.377  38.308   3.997
18487W        W86892   7.911  27.595   3.198
18488W        W86893  43.160  25.041   1.710
18489W        W86894   4.475  27.924   0.394
18490W        W86895  41.583  32.452  10.844
18491W        W86896   3.628  21.938  12.962
18492W        W86897  36.649  12.311  12.468
18493W        W86898  38.846  18.098   1.195
18494W        W86899  29.475  15.394   3.795
18495W        W86900  39.080  41.779   3.694
18496W        W86901   4.867  30.171  13.479
18497W        W86902  21.011  17.131   2.283
18498W        W86903  33.960  13.644  11.576
18499W        W86904   9.928   4.154  13.515
18500W        W86905   2.768  30.861   0.927
18501W        W86906  13.624   0.738   2.549
18502W        W86907  15.332  33.703   4.096
18503W        W86908  16.209  33.172  12.469
18504W        W86909  25.941  39.826   4.586
18505W        W86910  15.397  32.980   0.474
18506W        W86911  36.140   2.195  11.168
18507W        W86912   3.536  30.391   4.618
18508W        W86913  25.819  24.628   0.549
18509W        W86914   7.992  37.519   4.739
18510W        W86915  19.555  25.694  14.903
18511W        W86916  19.151  30.906  12.098
18512W        W86917  10.345  42.948  13.837
18513W        W86918  12.265  23.221   1.831
18514W        W86919  17.281  17.189  14.062
18515W        W86920  41.177  22.158   0.608
18516W        W86921  38.383  30.140  14.656
18517W        W86922  10.736   7.574  11.100
18518W        W86923  44.238  11.304  11.129
18519W        W86924  40.353   6.356   4.178
18520W        W86925   7.283  14.407  12.744
18521W        W86926  15.346  37.937  13.405
18522W        W86927  36.091   0.471  13.472
18523W        W86928  28.004  20.529   2.219
18524W        W86929  19.239  24.351   1.939
18525W        W86930  29.104  37.008   0.016
18526W        W86931  23.790   6.385  12.132
18527W        W86932  17.711  14.515  12.922
18528W        W86933   2.781   8.675  12.813
18529W        W86934  33.400  39.116   4.646
18530W        W86935  21.449  32.985   3.816
18531W        W86936  23.928   8.817   4.178
18532W        W86937   5.155  39.587   1.104
18533W        W86938  31.654  33.551  11.676
18534W        W86939   8.451  18.539  11.545
18535W        W86940  17.106   4.830   3.598
18536W        W86941  35.606  36.396  12.105
18537W        W86942  13.725  14.127   4.593
18538W        W86943  36.494  29.844   4.399
18539W        W86944  32.257  16.261  13.043
18540W        W86945  11.052  26.124   4.110
18541W        W86946  18.201   3.696  13.483
18542W        W86947   0.796  20.995   0.373
18543W        W86948  20.697  28.376   1.874
18544W        W86949  30.972  34.500  12.909
18545W        W86950  24.637  28.668  13.862
18546W        W86951  10.598  32.235  11.311
18547W        W86952  36.586   9.110  14.909
18548W        W86953  37.594  19.769   3.148
18549W        W86954  32.509   6.583  13.070
18550W        W86955  31.362  32.009  12.432
18551W        W86956  13.711   5.993   2.728
18552W        W86957  37.868  22.109  10.297
18553W        W86958   2.391   8.269   0.290
18554W        W86959  16.350  16.026  10.627
18555W        W86960  20.081   8.181   0.690
18556W        W86961  40.518  28.925   2.316
18557W        W86962  26.240  25.194  13.460
18558W        W86963  20.201  20.571  13.511
18559W        W86964  32.473  16.732  12.900
18560W        W86965   8.897  19.581  12.453
18561W        W86966  27.367  18.933  10.738
18562W        W86967  14.138   4.949   1.130
18563W        W86968  34.872  11.565   2.769
18564W        W86969   7.727   5.783   2.410
18565W        W86970   7.499  24.485   3.359
18566W        W86971  24.294  42.948  13.770
18567W        W86972   7.415  16.691   0.253
18568W        W86973   9.168  31.956   1.190
18569W        W86974   3.893  18.201  11.739
18570W        W86975   0.833  42.474  11.621
18571W        W86976  38.944  30.667   5.029
18572W        W86977  34.978  23.083  13.512
18573W        W86978  24.671  12.899   2.352
18574W        W86979  34.009  33.486  12.498
18575W        W86980  23.894  28.743   2.151
18576W        W86981  19.256  15.716   4.370
18577W        W86982  30.217  21.118   1.835
18578W        W86983   4.944  15.849  14.899
18579W        W86984  16.809  13.473  13.873
18580W        W86985  31.499  28.685  12.584
18581W        W86986   5.387  12.625   1.818
18582W        W86987  25.434  39.531   1.418
18583W        W86988   7.886  23.106  13.509
18584W        W86989  19.995  32.605  11.601
18585W        W86990  12.270  42.535   2.311
18586W        W86991  21.198  44.312   3.752
18587W        W86992  34.666  25.091   1.414
18588W        W86993  27.951   9.670  11.946
18589W        W86994  36.597  10.815   0.427
18590W        W86995  14.659  37.681   4.698
18591W        W86996  38.626  27.883   4.905
18592W        W86997   4.948  39.576   0.043
18593W        W86998  18.275  13.314  13.465
18594W        W86999  40.952  34.726  11.557
18595W        W87000  40.745  29.070  10.741
18596W        W87001  25.801  25.583   2.833
18597W        W87002  26.198  16.743  11.497
18598W        W87003  17.655  41.625  12.895
18599W        W87004   9.319   5.488   1.904
18600W        W87005  39.376  24.575  12.915
18601W        W87006  32.594   4.763  13.432
18602W        W87007  42.249  37.856   4.801
18603W        W87008  31.002  10.273   5.116
18604W        W87009  16.819   8.643   3.658
18605W        W87010  20.220   7.674  14.490
18606W        W87011  27.516  15.165   0.368
18607W        W87012  42.366   4.212   4.540
18608W        W87013   4.965  16.663   1.337
18609W        W87014  20.126  17.202  14.692
18610W        W87015  22.174  43.539   1.890
18611W        W87016  42.007  35.899   2.849
18612W        W87017  10.291   0.872  10.715
18613W        W87018   1.236  30.257  13.026
18614W        W87019  12.753  30.330  13.905
18615W        W87020  24.925  33.631  11.659
18616W        W87021  33.682  44.926  13.987
18617W        W87022  11.185  15.637   1.941
18618W        W87023  39.894  14.411  11.453
18619W        W87024  27.365  26.512  10.131
18620W        W87025  34.824   1.141  11.586
18621W        W87026  44.111  19.621  12.386
18622W        W87027  28.598  23.033   0.428
18623W        W87028  18.180  35.934   4.157
18624W        W87029  18.754   7.844   2.851
18625W        W87030   9.177   9.652  12.453
18626W        W87031  24.183   8.077   3.574
18627W        W87032  28.516  33.324   4.307
18628W        W87033  11.770  38.936  10.340
18629W        W87034  41.531  18.286  13.987
18630W        W87035   7.761  14.777   3.350
18631W        W87036  17.970  32.428  10.922
18632W        W87037   2.362  40.066   2.349
18633W        W87038   4.225  35.401  11.656
18634W        W87039  24.688  42.313  10.608
18635W        W87040  31.614  32.421  14.917
18636W        W87041   4.845   2.002  12.472
18637W        W87042  31.071  19.704  10.602
18638W        W87043  30.422  31.391   4.285
18639W        W87044  33.336  26.750   1.717
18640W        W87045  19.620  20.239   4.478
18641W        W87046  33.364   8.913  11.440
18642W        W87047  26.020  31.573   4.662
18643W        W87048   7.415  34.938  11.611
18644W        W87049  15.026  31.083   4.612
18645W        W87050  26.689   6.134   2.146
18646W        W87051   1.844  38.861  12.570
18647W        W87052   1.901   0.029   2.867
18648W        W87053  13.330  30.898  10.750
18649W        W87054   3.238  14.591  14.721
18650W        W87055  30.050  33.440  13.804
18651W        W87056  30.675  33.544  14.859
18652W        W87057   3.761  11.876   3.385
18653W        W87058   6.918   8.113   1.268
18654W        W87059   3.823  25.726   2.751
18655W        W87060  42.313  14.989   0.384
18656W        W87061  27.602  15.695  11.193
18657W        W87062  24.396  11.247   3.454
18658W        W87063  38.830  32.893  13.886
18659W        W87064  30.439  18.074  14.611
18660W        W87065  41.765   9.560  12.938
18661W        W87066   3.925  14.077  11.528
18662W        W87067   6.666   7.687   4.596
18663W        W87068  41.671  11.016   0.232
18664W        W87069  31.668  23.184  13.700
18665W        W87070   7.771  31.909  10.063
18666W        W87071   3.864  16.357   3.794
18667W        W87072  27.887  32.258   3.269
18668W        W87073  20.191   9.704   4.020
18669W        W87074  18.046   6.901  12.859
18670W        W87075  21.075   4.820   2.255
18671W        W87076  24.116  31.014  13.706
18672W        W87077  25.116  11.519  10.789
18673W        W87078  17.718   7.134  13.377
18674W        W87079  38.283  41.529  13.485
18675W        W87080   5.107  35.454  12.350
18676W        W87081  44.046  35.547   3.510
18677W        W87082  34.678  23.092  14.059
18678W        W87083   5.206  36.819   3.172
18679W        W87084  43.033  25.978   4.220
18680W        W87085   0.199  43.341   0.008
18681W        W87086   8.875  37.174   0.329
18682W        W87087  35.702  35.915   4.215
18683W        W87088  29.554  10.191  10.011
18684W        W87089   3.214  42.644   3.484
18685W        W87090  11.103  14.359   0.955
18686W        W87091  39.520  40.354   0.874
18687W        W87092  13.388  35.125   1.008
18688W        W87093   6.514   8.559   0.283
18689W        W87094   6.909  33.563  14.419
18690W        W87095  10.264  44.766  14.968
18691W        W87096  33.907  39.248   1.126
18692W        W87097  14.567   8.138  10.595
18693W        W87098   4.704  12.217  10.734
18694W        W87099  23.613  29.638   3.696
18695W        W87100  28.804   8.417   0.999
18696W        W87101  15.121  17.202   3.160
18697W        W87102  33.578   2.472   4.991
18698W        W87103  10.591  14.552   2.970
18699W        W87104  29.055   1.160   5.065
18700W        W87105   4.768  10.524  14.526
18701W        W87106  25.933  32.921   4.601
18702W        W87107  22.463   8.459  14.256
18703W        W87108  16.283   4.772   2.703
18704W        W87109   8.326  17.823   2.637
18705W        W87110  16.854  17.378  13.848
18706W        W87111  25.001  34.943   2.657
18707W        W87112   6.039   9.603  11.624
18708W        W87113  12.183  31.785   0.904
18709W        W87114  34.942  27.355  12.131
18710W        W87115  22.734   4.700  13.989
18711W        W87116  24.228  38.143  13.099
18712W        W87117  32.505   3.508   4.664
18713W        W87118   7.387  12.721   0.758
18714W        W87119  18.595  17.759  11.387
18715W        W87120  19.803  25.128  14.933
18716W        W87121   9.368  27.622   9.932
18717W        W87122  22.604  30.566   0.462
18718W        W87123  21.208  18.797  14.877
18719W        W87124  33.345  40.388  13.916
18720W        W87125   5.404  19.174   4.683
18721W        W87126  17.307   5.279   3.418
18722W        W87127   0.448  12.579   1.514
18723W        W87128   6.830  32.338  13.935
18724W        W87129   4.399  18.597   3.613
18725W        W87130  24.254   7.351   4.202
18726W        W87131   8.145  11.714   2.050
18727W        W87132  22.155  29.435  12.034
18728W        W87133   3.009  29.850  14.372
18729W        W87134  40.399  27.422  11.195
18730W        W87135  26.968  39.417   1.347
18731W        W87136  41.214  11.924   3.247
18732W        W87137  40.125  33.591  11.002
18733W        W87138   3.314  28.737   0.039
18734W        W87139  40.857  21.835   2.704
18735W        W87140  19.041  36.934   4.172
18736W        W87141  43.906  24.004   2.256
18737W        W87142  29.680  11.219   2.301
18738W        W87143  12.016  30.978  10.783
18739W        W87144  37.811  15.823   4.484
18740W        W87145  24.757   0.962  11.964
18741W        W87146  32.114   3.374   0.410
18742W        W87147  26.462  17.647   3.827
18743W        W87148   7.836  28.865  12.204
18744W        W87149  11.832   6.484   4.194
18745W        W87150  35.190   3.215   5.091
18746W        W87151  42.964  20.726   2.702
18747W        W87152  31.059  29.154  13.813
18748W        W87153   6.686  41.608  13.420
18749W        W87154  12.276   1.430  14.004
18750W        W87155  29.694   6.716   3.586
18751W        W87156  39.474  26.325  12.555
18752W        W87157  17.126  11.998   0.770
18753W        W87158  19.678   8.895   4.027
18754W        W87159  10.580   4.728  14.417
18755W        W87160  23.675  27.747  14.376
18756W        W87161   5.436  21.422   3.247
18757W        W87162  32.017   1.819   2.755
18758W        W87163   0.453  44.073   0.337
18759W        W87164  11.663  36.529  13.095
18760W        W87165  23.313  10.240  11.195
18761W        W87166   5.857  24.988  11.904
18762W        W87167  30.159  39.748  12.902
18763W        W87168  22.483   3.926   1.269
18764W        W87169  25.644  13.708   4.083
18765W        W87170  22.661  10.841  12.643
18766W        W87171  23.345  20.091   0.207
18767W        W87172   7.282  41.250  11.586
18768W        W87173  36.587  31.113   1.364
18769W        W87174  42.295   7.455  12.509
18770W        W87175  43.451  20.518   1.918
18771W        W87176  13.145  22.744  11.251
18772W        W87177  39.930   1.509   2.822
18773W        W87178  33.451   0.933  12.475
18774W        W87179  16.215  20.814  12.411
18775W        W87180  40.988  31.750  10.943
18776W        W87181  37.262  28.590   4.711
18777W        W87182  38.338  18.523  11.254
18778W        W87183  23.609  16.198   0.018
18779W        W87184  19.761  34.925   1.467
18780W        W87185  30.881   1.114  10.506
18781W        W87186  25.513  14.202   3.945
18782W        W87187  42.444  39.519   2.627
18783W        W87188  29.225  16.699   3.357
18784W        W87189  34.969  25.573   2.292
18785W        W87190   8.684   3.583   3.865
18786W        W87191  38.831  25.557  10.497
18787W        W87192   2.690  23.754  12.980
18788W        W87193  39.043  33.206  12.172
18789W        W87194   1.238   0.309   4.094
18790W        W87195   7.356  37.039   3.116
18791W        W87196  20.050  23.896   1.569
18792W        W87197  33.542  37.911   1.239
18793W        W87198  11.761  40.335   0.257
18794W        W87199  11.703  16.406  12.350
18795W        W87200   9.775  34.395  11.703
18796W        W87201  21.473   9.888   2.784
18797W        W87202  16.476  43.394  10.344
18798W        W87203  33.108  14.682  13.663
18799W        W87204   3.447  10.219   2.047
18800W        W87205   9.381  20.504   3.780
18801W        W87206  37.339  14.267  13.397
18802W        W87207  30.573  10.787  11.410
18803W        W87208  39.946  17.540   0.774
18804W        W87209   8.481  31.813   4.140
18805W        W87210  38.402   8.512   2.844
18806W        W87211  44.412  35.562   1.251
18807W        W87212  42.140  37.582   4.065
18808W        W87213  17.039  38.764   0.720
18809W        W87214  43.554  23.683  14.985
18810W        W87215  35.637  31.968   2.978
18811W        W87216  21.258  43.883  14.793
18812W        W87217  10.224  17.730   2.763
18813W        W87218  31.256   1.846  10.176
18814W        W87219   7.358   0.867  13.791
18815W        W87220  29.944  35.695   0.826
18816W        W87221  11.077  22.755   1.950
18817W        W87222  40.902  35.079   0.325
18818W        W87223  11.146  35.034  14.146
18819W        W87224  18.621  31.614  10.689
18820W        W87225  16.262  22.933   3.809
18821W        W87226  18.091  10.159  11.628
18822W        W87227  21.573   0.536  11.969
18823W        W87228  16.790   0.081  11.498
18824W        W87229  15.238  38.830   1.792
18825W        W87230  30.771   4.829  12.788
18826W        W87231  35.108  30.354  12.978
18827W        W87232  39.419  41.619  12.944
18828W        W87233  34.781  32.894  10.790
18829W        W87234  22.671   1.797   1.393
18830W        W87235   8.977  32.443  10.645
18831W        W87236  15.259  29.991   2.149
18832W        W87237  10.249  24.029  11.646
18833W        W87238   7.271  10.425   1.300
18834W        W87239  43.366  25.547   2.426
18835W        W87240  28.829  33.656  10.931
18836W        W87241   5.020   8.810   0.331
18837W        W87242  17.089   4.626  13.027
18838W        W87243  35.046  29.946  14.411
18839W        W87244  26.492  23.452  10.606
18840W        W87245   8.485  44.971   3.803
18841W        W87246  36.404  27.236   4.149
18842W        W87247  31.669  28.045   4.866
18843W        W87248  31.646  21.604   4.098
18844W        W87249  34.933  38.404   3.148
18845W        W87250  33.027  32.769  13.014
18846W        W87251   8.347   0.941   1.301
18847W        W87252  14.507   5.616  13.116
18848W        W87253  14.019   1.312   3.227
18849W        W87254  14.285   0.965   1.833
18850W        W87255  39.264   3.291  13.842
18851W        W87256  24.052  13.304   2.748
18852W        W87257  29.863  25.567   1.895
18853W        W87258  24.627  24.007  10.730
18854W        W87259  26.753  18.055  11.837
18855W        W87260  42.232  16.232  13.348
18856W        W87261  29.651  15.342  11.649
18857W        W87262   4.216  21.131   1.387
18858W        W87263  36.685  32.562  12.851
18859W        W87264  28.137  28.207   0.317
18860W        W87265  39.546   5.559   0.397
18861W        W87266  20.006  26.456   2.829
18862W        W87267  33.453   0.463   3.338
18863W        W87268  28.586  34.320   0.294
18864W        W87269  33.652  19.809   3.126
18865W        W87270  31.130  22.546   3.143
18866W        W87271  13.647  14.610   0.257
18867W        W87272  25.262  29.142   0.300
18868W        W87273  17.246   6.934   5.033
18869W        W87274  15.541  42.224  13.778
18870W        W87275  44.930   1.388   4.742
18871W        W87276   8.324   7.065   1.355
18872W        W87277  33.166  42.283   2.683
18873W        W87278  10.850  29.139   2.622
18874W        W87279  43.006  35.085  12.546
18875W        W87280  37.408  41.243  13.340
18876W        W87281   3.838   5.914   2.355
18877W        W87282  13.655   5.835  11.097
18878W        W87283  29.532  33.102  14.280
18879W        W87284   8.121  35.860   2.850
18880W        W87285  21.457   5.747  13.949
18881W        W87286  22.757   5.738   4.290
18882W        W87287  24.010  33.995   4.368
18883W        W87288   2.668  11.700   1.425
18884W        W87289   2.961  21.346   4.224
18885W        W87290  20.678  27.993  14.990
18886W        W87291  37.491  37.049  13.365
18887W        W87292  20.307   9.775  13.925
18888W        W87293  26.269  44.231  13.825
18889W        W87294  28.605  16.010  10.793
18890W        W87295  30.405  44.196   3.146
18891W        W87296  39.577   8.664   1.734
18892W        W87297  41.404   2.744   0.873
18893W        W87298   6.860  20.174   4.370
18894W        W87299  33.595  23.922   4.630
18895W        W87300  18.881  19.199  14.037
18896W        W87301  30.386  41.156  11.309
18897W        W87302   8.566   9.294   3.189
18898W        W87303  35.784  26.970   0.786
18899W        W87304  30.952   6.229  13.950
18900W        W87305   8.466  32.490   4.650
18901W        W87306  33.333  24.706  13.444
18902W        W87307  35.079  42.387  11.545
18903W        W87308  20.008  40.081   2.390
18904W        W87309  23.218   2.882  14.881
18905W        W87310  33.959  18.990  13.944
18906W        W87311  31.925   6.008  11.121
18907W        W87312  10.280  34.127   2.876
18908W        W87313  25.449  19.636  11.593
18909W        W87314  44.386  16.602  13.200
18910W        W87315  21.798  38.406  14.508
18911W        W87316  17.488  39.576  14.909
18912W        W87317  20.926  41.843  13.500
18913W        W87318  38.014  34.051  13.040
18914W        W87319  23.130   4.416   1.658
18915W        W87320  38.021  43.683   4.827
18916W        W87321  43.775  27.962   2.709
18917W        W87322  33.615  17.472  10.719
18918W        W87323   7.562  14.635   4.186
18919W        W87324  23.696  42.933  13.050
18920W        W87325   3.453  20.157  14.929
18921W        W87326  11.598   0.261  12.455
18922W        W87327  17.223   7.259   4.114
18923W        W87328   1.585  14.690  12.352
18924W        W87329   1.051  26.841  10.851
18925W        W87330  36.131   4.651  14.431
18926W        W87331  17.835   5.622   2.177
18927W        W87332  22.077  25.756   2.241
18928W        W87333  40.204  21.198   2.398
18929W        W87334   7.736  16.286  11.224
18930W        W87335   3.775  19.120  14.093
18931W        W87336  17.289  29.456   0.294
18932W        W87337  18.499  20.127   0.789
18933W        W87338  10.927  33.445   4.117
18934W        W87339  34.595  44.942   4.161
18935W        W87340  43.305   0.011  14.559
18936W        W87341  38.511  39.371   4.554
18937W        W87342  33.139  21.291  13.457
18938W        W87343  35.420   2.161   1.303
18939W        W87344  20.712  18.637   3.789
18940W        W87345   5.975  38.924  12.282
18941W        W87346  23.695  10.789  14.590
18942W        W87347  19.191   0.305  10.781
18943W        W87348  35.857   1.336  11.573
18944W        W87349  39.722   3.056  11.700
18945W        W87350  22.623  26.019   4.505
18946W        W87351  10.334  14.311   2.135
18947W        W87352  17.564  31.521  11.576
18948W        W87353  16.768  13.903   1.670
18949W        W87354  24.772  25.499   2.816
18950W        W87355  33.115   0.996  12.879
18951W        W87356  31.154  30.017  11.226
18952W        W87357   3.805   9.408  11.606
18953W        W87358  35.933  21.489   0.756
18954W        W87359   2.526  29.903   0.654
18955W        W87360   7.656  41.543   1.266
18956W        W87361  43.762  44.834   4.603
18957W        W87362  11.173  15.147   2.307
18958W        W87363  30.997  43.662   3.583
18959W        W87364  24.976   0.463  13.504
18960W        W87365  32.030  40.495  10.947
18961W        W87366  26.734  22.585  14.042
18962W        W87367   3.874   4.775   4.954
18963W        W87368   8.884  19.100  11.512
18964W        W87369  19.681  32.460   1.032
18965W        W87370  21.577   7.966   2.703
18966W        W87371  20.494  28.710  14.447
18967W        W87372  24.168  43.847   0.365
18968W        W87373   1.665  16.722   4.122
18969W        W87374  38.559   1.326  11.492
18970W        W87375   8.330   0.705  13.989
18971W        W87376  28.391  22.298  14.811
18972W        W87377  44.489  29.885  11.736
18973W        W87378   0.038  24.532  11.210
18974W        W87379  37.841  28.119  11.581
18975W        W87380   9.410  42.230  14.432
18976W        W87381  37.866   5.766   3.401
18977W        W87382   2.773  26.237   0.784
18978W        W87383   6.969  40.606  13.712
18979W        W87384  19.306  11.184   0.693
18980W        W87385  13.664   0.841  12.376
18981W        W87386  44.682  37.868  12.104
18982W        W87387   1.414  11.128  14.179
18983W        W87388  21.150   7.369  10.402
18984W        W87389   1.253  31.510  13.904
18985W        W87390  42.572  37.453  13.709
18986W        W87391  37.912  31.421  13.911
18987W        W87392   1.841  12.714  12.556
18988W        W87393  40.452  44.203   3.645
18989W        W87394  30.134  34.030   2.827
18990W        W87395   3.274  11.789   3.146
18991W        W87396  12.041  27.601  12.075
18992W        W87397  31.432  28.881  14.055
18993W        W87398  41.421  34.341   2.328
18994W        W87399  21.134   5.809  12.263
18995W        W87400  42.783  27.211   3.331
18996W        W87401  17.114  43.356   1.217
18997W        W87402  17.946  40.541  14.100
18998W        W87403  36.466  31.712  12.116
18999W        W87404  16.758   0.869  11.938
19000W        W87405   7.721  35.535   0.701
19001W        W87406  40.437  25.684   3.903
19002W        W87407  23.448  32.925   1.001
19003W        W87408   9.703   6.763   4.748
19004W        W87409  21.609  28.858   1.503
19005W        W87410  38.975  36.442  14.854
19006W        W87411  20.687   3.687   4.790
19007W        W87412   7.391  13.662  11.008
19008W        W87413  24.126   7.262  13.931
19009W        W87414  26.977  23.064  10.882
19010W        W87415  33.301   9.080  12.395
19011W        W87416  37.001   9.102   4.149
19012W        W87417  23.112  35.624   3.892
19013W        W87418  27.038   4.281   1.416
19014W        W87419  14.671  38.081  10.629
19015W        W87420  41.376  23.127   3.364
19016W        W87421  26.571  35.841   0.308
19017W        W87422  27.426   1.324  10.700
19018W        W87423  33.108  18.861  13.558
19019W        W87424  10.599  17.279   1.136
19020W        W87425   1.708  35.979   3.603
19021W        W87426  34.384  29.110  14.761
19022W        W87427  37.793  42.742   4.482
19023W        W87428  44.020   4.250   4.193
19024W        W87429  30.495   6.649  12.430
19025W        W87430  22.132  41.034   1.943
19026W        W87431  27.496  39.592   3.252
19027W        W87432   2.349  43.899   0.556
19028W        W87433  22.640  24.714   1.841
19029W        W87434  30.576  44.428   3.586
19030W        W87435  39.443  36.478  11.849
19031W        W87436  17.127  37.329  12.445
19032W        W87437  32.361   5.344   1.207
19033W        W87438   9.034  39.437   2.793
19034W        W87439  40.053  40.351   3.725
19035W        W87440  16.056   7.914   3.392
19036W        W87441  28.650  18.098   4.094
19037W        W87442  30.256  23.757   4.184
19038W        W87443  11.704   4.242  11.007
19039W        W87444   3.656  22.098  13.467
19040W        W87445  37.349  16.711  12.869
19041W        W87446  32.745  35.550   0.711
19042W        W87447  38.166  16.315   4.796
19043W        W87448  17.155   1.857  11.102
19044W        W87449  20.920   1.782  14.603
19045W        W87450   4.764  14.942   2.129
19046W        W87451  24.997  32.498  13.506
19047W        W87452  17.614  31.759   3.092
19048W        W87453   2.789  19.467  14.211
19049W        W87454   6.158   5.490  13.075
19050W        W87455   9.088  42.008  11.189
19051W        W87456  40.388  25.472   3.177
19052W        W87457  15.839  13.764  12.550
19053W        W87458  25.138  15.516   2.257
19054W        W87459  27.457   7.514   3.773
19055W        W87460  35.058  36.292  13.536
19056W        W87461   8.123  23.250  13.960
19057W        W87462   2.163   3.821   0.726
19058W        W87463  31.530  37.930  13.574
19059W        W87464  18.750  37.978   4.129
19060W        W87465   8.183   8.899   0.022
19061W        W87466  30.368  31.591  10.664
19062W        W87467  12.774   4.838  12.393
19063W        W87468  20.139  20.889  11.642
19064W        W87469   4.677  34.056  10.665
19065W        W87470  31.662  34.465   0.882
19066W        W87471   4.036  44.509  12.948
19067W        W87472  10.817  44.771   1.178
19068W        W87473   5.360  17.328   3.248
19069W        W87474  35.032  20.983  12.556
19070W        W87475   9.284  33.704  12.047
19071W        W87476  27.000  34.484   0.996
19072W        W87477   7.352  35.999   0.814
19073W        W87478  27.636  25.034  13.056
19074W        W87479   2.944   9.223   3.867
19075W        W87480  13.072   0.756   3.804
19076W        W87481  19.211  29.320   2.207
19077W        W87482  29.228  16.720  11.160
19078W        W87483  23.686  43.957  13.482
19079W        W87484   1.378  10.328   3.678
19080W        W87485  17.080  41.953  14.493
19081W        W87486  10.213  11.992   0.401
19082W        W87487  13.871  38.328   1.856
19083W        W87488   9.755  33.084   4.745
19084W        W87489  26.215   5.941   2.247
19085W        W87490  39.611  26.039   1.509
19086W        W87491  31.786   0.842  12.011
19087W        W87492   2.411  15.789   3.677
19088W        W87493  43.329   7.365  12.616
19089W        W87494  42.316  29.454   0.905
19090W        W87495  29.871  26.713  13.741
19091W        W87496  36.916   6.065   0.832
19092W        W87497  36.058  24.503   1.998
19093W        W87498  23.738  22.939  10.715
19094W        W87499  42.802  12.192  12.461
19095W        W87500  41.917   9.145  13.668
19096W        W87501  31.458  18.294  11.490
19097W        W87502  25.237  30.672   0.528
19098W        W87503  32.878  22.701  10.143
19099W        W87504  22.713  44.936   1.749
19100W        W87505  40.298  16.455   4.218
19101W        W87506  20.305  43.417   0.528
19102W        W87507   7.571   1.762   9.882
19103W        W87508  32.718  29.138  11.524
19104W        W87509   1.335  42.560   2.798
19105W        W87510  36.154  32.499   2.208
19106W        W87511  25.563  12.159   0.538
19107W        W87512  11.300  20.472   0.474
19108W        W87513  38.820   0.912  13.703
19109W        W87514   4.643   1.226   1.356
19110W        W87515  10.433   6.244  13.290
19111W        W87516  18.814  12.604   0.480
19112W        W87517   6.836  10.314  14.623
19113W        W87518  31.518  39.331  13.666
19114W        W87519  23.057  18.660   3.466
19115W        W87520  35.080  41.865  14.941
19116W        W87521  31.347   1.427   1.313
19117W        W87522   9.924  19.956  11.572
19118W        W87523  44.218   8.603   4.561
19119W        W87524  15.121   4.398  10.896
19120W        W87525  23.616  14.660   4.359
19121W        W87526  29.162   3.910   0.538
19122W        W87527  44.494  10.065   2.738
19123W        W87528  23.433   1.832  14.073
19124W        W87529  26.524  12.768  11.843
19125W        W87530  16.461  35.554   2.066
19126W        W87531  42.736  28.077   0.460
19127W        W87532   8.429   5.889   3.598
19128W        W87533  10.614  21.654  13.428
19129W        W87534  26.392  17.173   3.650
19130W        W87535  15.283  25.024  13.482
19131W        W87536   2.425   4.171   2.655
19132W        W87537   5.289  40.764  11.164
19133W        W87538  15.913  35.756   2.285
19134W        W87539  18.497  17.070   2.535
19135W        W87540  34.621  31.195   4.128
19136W        W87541  15.636   5.439  14.512
19137W        W87542  20.264  42.446   0.292
19138W        W87543  19.299   1.635  12.805
19139W        W87544  40.952  26.500   2.378
19140W        W87545  11.279  42.349  11.146
19141W        W87546   2.887  30.186   3.820
19142W        W87547  36.341   9.381  13.411
19143W        W87548  10.735  38.596  12.292
19144W        W87549  41.321   8.076  11.455
19145W        W87550   7.330  37.505   1.881
19146W        W87551  22.792  16.027  11.020
19147W        W87552  41.392   1.189   0.931
19148W        W87553  25.258  28.908   4.817
19149W        W87554   8.794   8.723  11.444
19150W        W87555   5.495  36.870   3.828
19151W        W87556   7.345  19.587   1.175
19152W        W87557  38.992  32.851   1.760
19153W        W87558  37.892  21.540   0.490
19154W        W87559   1.677  12.296   1.933
19155W        W87560  36.913  30.557  14.545
19156W        W87561  33.371  29.971   0.944
19157W        W87562  12.196  28.663   0.397
19158W        W87563  44.763   7.327  13.900
19159W        W87564   6.365  18.662   3.795
19160W        W87565   7.391  24.468  13.100
19161W        W87566  24.902  19.738  12.529
19162W        W87567  30.576   6.466  11.058
19163W        W87568   4.349  24.050  14.910
19164W        W87569  30.990  26.136   1.222
19165W        W87570  10.002  38.519  14.715
19166W        W87571   4.852  44.928  11.450
19167W        W87572  24.078  40.378   0.862
19168W        W87573  10.949  41.837  11.491
19169W        W87574  21.262   9.833   2.313
19170W        W87575  32.252  13.529   2.801
19171W        W87576  24.352  17.125  14.825
19172W        W87577  12.087  32.629  14.382
19173W        W87578   7.349  40.938  12.029
19174W        W87579  20.064  36.161   2.508
19175W        W87580   7.190  32.501  14.921
19176W        W87581  26.999  18.068   0.669
19177W        W87582   2.204  41.393   4.288
19178W        W87583   9.629  42.657  14.255
19179W        W87584  25.603  32.460   2.192
19180W        W87585   6.411   9.706  11.277
19181W        W87586  42.442  11.250  14.479
19182W        W87587  22.574  24.960   4.549
19183W        W87588  36.331  25.944   1.753
19184W        W87589  19.895  16.468   0.815
19185W        W87590  26.522  12.296  12.146
19186W        W87591  35.342  23.437   1.480
19187W        W87592  29.421   9.661   3.158
19188W        W87593  13.051  17.695  12.978
19189W        W87594  22.756   5.645   1.798
19190W        W87595  26.049   5.775  10.423
19191W        W87596  34.346  29.156   2.258
19192W        W87597   8.425  17.793   0.016
19193W        W87598  17.112   4.235  12.383
19194W        W87599  17.786   2.338  12.564
19195W        W87600   9.300   6.341  14.197
19196W        W87601  14.560  21.633   2.186
19197W        W87602  26.216  28.578   2.808
19198W        W87603  11.330  29.156  10.953
19199W        W87604  15.070  14.170   3.615
19200W        W87605  25.729  41.540  11.611
19201W        W87606  30.551  43.902  11.136
19202W        W87607  32.545  25.618  13.965
19203W        W87608  33.496  13.334  10.711
19204W        W87609  22.319  43.805   3.178
19205W        W87610  13.869  36.345   1.447
19206W        W87611   9.661  12.655  12.864
19207W        W87612  30.254  13.101   0.313
19208W        W87613  35.276  39.657   0.618
19209W        W87614  34.392  29.174   0.306
19210W        W87615  20.074   6.198  13.951
19211W        W87616   2.378  21.575   3.268
19212W        W87617  31.022  40.986   0.347
19213W        W87618  15.010  40.269   1.492
19214W        W87619  15.331  40.875  12.328
19215W        W87620  23.044  29.875  14.843
19216W        W87621  25.713   6.474  14.849
19217W        W87622  24.713  25.359   0.021
19218W        W87623  18.220  22.988   1.089
19219W        W87624  10.302  25.936   2.644
19220W        W87625  30.809  24.926   1.658
19221W        W87626  26.496  31.440   1.356
19222W        W87627   6.962  42.735  14.369
19223W        W87628   2.258  23.132  14.769
19224W        W87629   4.184  22.037  13.383
19225W        W87630   0.124   5.334   4.984
19226W        W87631  32.088  12.190  12.152
19227W        W87632  44.524   9.124   2.819
19228W        W87633  24.990  14.885   1.375
19229W        W87634  18.654   4.424  12.290
19230W        W87635  24.217  37.095  11.077
19231W        W87636   1.969   9.847  13.711
19232W        W87637  31.631  13.656  13.361
19233W        W87638   4.010  20.088   3.295
19234W        W87639   2.231  33.030   0.863
19235W        W87640  20.566   5.843  13.278
19236W        W87641  21.224  19.842   0.889
19237W        W87642  44.069   2.687   1.550
19238W        W87643  43.782  11.172  14.974
19239W        W87644   3.901   4.098   2.063
19240W        W87645  26.092  29.923  11.969
19241W        W87646  28.429  34.042  10.629
19242W        W87647  18.092   8.164  13.196
19243W        W87648  33.495   5.145  14.429
19244W        W87649  20.971   8.659   1.739
19245W        W87650  11.259   8.305   1.760
19246W        W87651  31.850  30.990   3.251
19247W        W87652  37.185   8.825   2.415
19248W        W87653  17.272  13.342  10.968
19249W        W87654  28.140  11.687   1.946
19250W        W87655   3.829  44.013   3.873
19251W        W87656   5.219  12.052   0.913
19252W        W87657  34.543   4.461   3.539
19253W        W87658  22.417  38.964  12.614
19254W        W87659  43.986  37.826  13.591
19255W        W87660   0.010  23.542   0.013
19256W        W87661  20.028  21.685   3.729
19257W        W87662  13.650  27.680  13.060
19258W        W87663  32.044  18.165   3.749
19259W        W87664  16.695  20.858   0.158
19260W        W87665   4.491   6.201  10.071
19261W        W87666  24.634  28.356  13.019
19262W        W87667  21.946  33.129  11.076
19263W        W87668  22.706  18.644   2.123
19264W        W87669  39.595  10.410  12.374
19265W        W87670  36.055  13.665  13.472
19266W        W87671  18.160  19.052   3.183
19267W        W87672  25.039  28.278   1.368
19268W        W87673  41.939  30.980   4.126
19269W        W87674  36.570  28.768  13.575
19270W        W87675  36.314   0.008   1.324
19271W        W87676  14.875  30.334  12.521
19272W        W87677  31.470  38.873  13.327
19273W        W87678  19.320   3.846  11.058
19274W        W87679   0.940  41.793  11.533
19275W        W87680  35.993  20.648  12.571
19276W        W87681  11.669   9.600   0.288
19277W        W87682  21.400   3.852  14.972
19278W        W87683  28.930  39.555   1.346
19279W        W87684  37.646  25.081   2.572
19280W        W87685   1.040  28.161   1.396
19281W        W87686  15.397  40.218   2.953
19282W        W87687   4.905  19.825  12.621
19283W        W87688   2.551  14.160  10.710
19284W        W87689  24.887  32.834  13.877
19285W        W87690  21.112  16.592   1.806
19286W        W87691  12.157   7.315   1.666
19287W        W87692  29.022  19.328   0.878
19288W        W87693  14.256  39.095   4.606
19289W        W87694  42.281  40.024  13.857
19290W        W87695  42.286  14.671  11.138
19291W        W87696  22.505  23.126  12.117
19292W        W87697  17.136  22.518   1.833
19293W        W87698  42.795  17.212   1.421
19294W        W87699  25.096   0.967   4.250
19295W        W87700  16.617  22.966  12.950
19296W        W87701  13.296  10.834   2.661
19297W        W87702   7.531  24.723   4.298
19298W        W87703   5.232  16.342  10.580
19299W        W87704  29.472  25.275  13.357
19300W        W87705  22.309   2.720   4.407
19301W        W87706  20.453  37.513  13.286
19302W        W87707  20.831  15.716   3.288
19303W        W87708   8.892  39.898   2.988
19304W        W87709   4.837  32.597  10.635
19305W        W87710  30.319  41.474  12.471
19306W        W87711  25.164   7.211   1.903
19307W        W87712   0.818  10.147  12.366
19308W        W87713   0.021   3.012  13.340
19309W        W87714  20.631  34.402  13.114
19310W        W87715  26.563  32.072  12.548
19311W        W87716  10.017  28.665  14.222
19312W        W87717   4.168  41.907  12.467
19313W        W87718  10.699  26.097  12.372
19314W        W87719  25.605  31.935   3.038
19315W        W87720  27.016   6.675   4.824
19316W        W87721  15.278  43.731  12.562
19317W        W87722   8.231  33.223  11.191
19318W        W87723  31.605  38.507   4.653
19319W        W87724  20.585  39.417  12.562
19320W        W87725  30.102   1.466  11.101
19321W        W87726  39.057   7.840   4.565
19322W        W87727  33.017  24.691  13.005
19323W        W87728  20.640  36.529   3.819
19324W        W87729   1.256  44.539   3.510
19325W        W87730  16.231   4.054  12.725
19326W        W87731  22.728   7.437  14.395
19327W        W87732  14.738  29.545   3.800
19328W        W87733  24.962   8.858   0.938
19329W        W87734  34.515   1.892  13.496
19330W        W87735  12.247   0.649  12.903
19331W        W87736  27.016   3.448  14.360
19332W        W87737  40.256   5.508  14.198
19333W        W87738   9.725  22.530   3.713
19334W        W87739   2.751  33.586   3.652
19335W        W87740  42.529  39.127   4.975
19336W        W87741  16.889  34.432  11.793
19337W        W87742  40.837  34.424  14.282
19338W        W87743  33.045  21.680  10.325
19339W        W87744   2.247  14.368   1.773
19340W        W87745   9.455  35.003  14.682
19341W        W87746  22.085   7.366  13.088
19342W        W87747  21.636  44.408   2.191
19343W        W87748   7.420  24.532  12.578
19344W        W87749  22.276  26.489  13.813
19345W        W87750  25.620  35.617   1.204
19346W        W87751  43.716  35.113   2.295
19347W        W87752  25.419   3.632   4.944
19348W        W87753  43.851   1.669   3.104
19349W        W87754   4.797   5.462   3.663
19350W        W87755  11.692   8.086  10.647
19351W        W87756  18.500  20.150   1.718
19352W        W87757  20.580  40.331   4.587
19353W        W87758  13.926  23.293   0.413
19354W        W87759  41.071  38.611  12.025
19355W        W87760  20.015  25.621   2.429
19356W        W87761  39.969   2.245   1.417
19357W        W87762   3.304  23.458   0.305
19358W        W87763  38.968  37.021   3.697
19359W        W87764  43.986  25.428   3.329
19360W        W87765  19.879  23.606   2.489
19361W        W87766  43.925  34.481   4.541
19362W        W87767  10.189   3.924  13.922
19363W        W87768  43.787  43.076  10.461
19364W        W87769   3.350  44.932   0.311
19365W        W87770  32.136  39.841   2.275
19366W        W87771  13.162   6.351   4.634
19367W        W87772  26.149  12.699   3.345
19368W        W87773  26.583  34.842   3.999
19369W        W87774  23.948  18.371  13.962
19370W        W87775  40.221  18.246  11.003
19371W        W87776  37.530  17.547  14.431
19372W        W87777  12.323  22.332  14.954
19373W        W87778  16.561  11.888   2.263
19374W        W87779  10.635  17.734  11.538
19375W        W87780  39.535   9.352   4.896
19376W        W87781  19.198   6.458  12.896
19377W        W87782  23.088  10.645   2.318
19378W        W87783   2.870  44.308   3.252
19379W        W87784   9.829  13.178   3.546
19380W        W87785   0.326  14.097  14.281
19381W        W87786  35.055   1.312   2.199
19382W        W87787  15.539  43.386  14.428
19383W        W87788   3.718  38.519   0.345
19384W        W87789   9.435  28.197  11.609
19385W        W87790   6.821  25.686   2.787
19386W        W87791  33.964  10.757  10.264
19387W        W87792  29.198  17.131   3.615
19388W        W87793  14.341  43.991   4.318
19389W        W87794  39.985  44.986  12.534
19390W        W87795   0.962  11.049   3.867
19391W        W87796  11.767  28.156   4.129
19392W        W87797  29.378  25.408  11.487
19393W        W87798   3.157   1.891  13.401
19394W        W87799  40.658  39.931   0.918
19395W        W87800  30.637   3.308  11.070
19396W        W87801   3.519  11.385   2.904
19397W        W87802  39.604  26.573  14.850
19398W        W87803  43.885  14.703  12.156
19399W        W87804  42.521  31.542   1.460
19400W        W87805  36.814  22.075   1.689
19401W        W87806  24.953  32.619   0.658
19402W        W87807  15.342  20.452  11.948
19403W        W87808   6.488  25.125   4.183
19404W        W87809   0.300  15.390  10.709
19405W        W87810   0.998   2.805  14.301
19406W        W87811  26.790  31.934  10.869
19407W        W87812  43.928  12.118   1.639
19408W        W87813  27.169  16.106   1.728
19409W        W87814  21.610  21.299  13.989
19410W        W87815  42.925  44.176  11.475
19411W        W87816  31.233  14.483  10.568
19412W        W87817  17.778  30.109   0.026
19413W        W87818   9.179  39.492   1.962
19414W        W87819  17.052  44.284   2.755
19415W        W87820  16.237  39.564   3.386
19416W        W87821  10.392  22.078  14.300
19417W        W87822  23.973  11.354   1.839
19418W        W87823  11.095  17.303  12.877
19419W        W87824  31.107  14.795  11.885
19420W        W87825   4.612  22.162   3.718
19421W        W87826   8.706  27.715  11.096
19422W        W87827   0.822   0.474  13.385
19423W        W87828  35.007  41.618  12.094
19424W        W87829   7.370  28.638  14.367
19425W        W87830  32.911  40.848   4.638
19426W        W87831  25.671  28.061   4.764
19427W        W87832  12.322  12.596  14.195
19428W        W87833   8.875  41.756  13.075
19429W        W87834  22.164   5.810   4.959
19430W        W87835   3.909   3.433   0.722
19431W        W87836   8.642  44.228   1.965
19432W        W87837  22.604  28.926  10.758
19433W        W87838  19.296  39.747  11.109
19434W        W87839  41.778  44.744  11.817
19435W        W87840  28.899  26.132  12.899
19436W        W87841  44.289  44.752   4.689
19437W        W87842  27.528   8.245  13.524
19438W        W87843  26.442  24.966  10.732
19439W        W87844  29.198  32.472  11.662
19440W        W87845   9.694  17.327  13.266
19441W        W87846   5.839  42.956  12.953
19442W        W87847  33.981  36.996  12.638
19443W        W87848  22.972  16.632   4.577
19444W        W87849  10.666   5.005   4.591
19445W        W87850  13.143  11.774   2.806
19446W        W87851  40.527  14.092   3.707
19447W        W87852   9.269   0.394   4.663
19448W        W87853  24.438  30.048   2.118
19449W        W87854  27.229  41.084  12.962
19450W        W87855  18.860  30.151   3.649
19451W        W87856  42.407  32.630  14.761
19452W        W87857  37.886  34.428  11.562
19453W        W87858  14.122  21.838  11.061
19454W        W87859   5.852  32.174   1.014
19455W        W87860  37.090  12.093   3.744
19456W        W87861  17.293  33.017   0.923
19457W        W87862  41.651  23.514  14.928
19458W        W87863  30.647  17.762   2.352
19459W        W87864  12.403  44.378  13.960
19460W        W87865   5.747  29.703   0.851
19461W        W87866  39.899   5.159   0.488
19462W        W87867  29.687   0.042  13.610
19463W        W87868  13.837   6.402   2.168
19464W        W87869  12.729  38.793   1.263
19465W        W87870  32.674  16.588  14.356
19466W        W87871   3.942  26.041  11.653
19467W        W87872  37.641  34.761  14.303
19468W        W87873   8.669  12.231   0.768
19469W        W87874  23.223  12.902   0.882
19470W        W87875   0.536  41.415  13.069
19471W        W87876  34.143   9.587  11.049
19472W        W87877  10.254  23.826  11.149
19473W        W87878  40.556  44.047  13.281
19474W        W87879  25.150  26.534  12.891
19475W        W87880  18.878  27.161   3.727
19476W        W87881  31.644  38.298  11.894
19477W        W87882  29.563  23.509   3.326
19478W        W87883  33.887   1.350   4.097
19479W        W87884  16.818   9.199   3.707
19480W        W87885   5.933  12.644  11.982
19481W        W87886  33.797  25.674   2.213
19482W        W87887  32.702   9.006  11.010
19483W        W87888  40.357  41.186   4.701
19484W        W87889  30.855  19.985  13.382
19485W        W87890   6.244  23.209  12.369
19486W        W87891  36.852  13.016   2.198
19487W        W87892  24.609  36.964  11.425
19488W        W87893  10.850  29.634   4.302
19489W        W87894  31.027   7.280  13.359
19490W        W87895  10.286  34.832  13.567
19491W        W87896  39.555  12.229  13.003
19492W        W87897  40.266   0.973  13.587
19493W        W87898  30.620  26.704  13.650
19494W        W87899  15.730  22.995   0.141
19495W        W87900  42.585  16.218  13.784
19496W        W87901  10.931  31.624   0.342
19497W        W87902  27.527  17.768   3.268
19498W        W87903  39.435  15.377  12.502
19499W        W87904   9.105  35.096  12.135
19500W        W87905  13.360  34.932  11.738
19501W        W87906  12.640  38.371   0.947
19502W        W87907  40.280  37.569  14.051
19503W        W87908  27.934  18.292   0.769
19504W        W87909  17.073  11.898   1.277
19505W        W87910  33.399  16.382   4.609
19506W        W87911  13.478  43.757  11.971
19507W        W87912  13.636  38.209  12.154
19508W        W87913   3.486   4.009  14.558
19509W        W87914  29.205  43.944   1.766
19510W        W87915  40.011  23.676  13.035
19511W        W87916   9.902  40.802  14.298
19512W        W87917   6.867  13.590  14.215
19513W        W87918  37.058   6.178   3.312
19514W        W87919  35.899  33.409   0.421
19515W        W87920   8.452   6.099  11.960
19516W        W87921   5.287  25.357   3.456
19517W        W87922   7.419  22.139  14.339
19518W        W87923  18.077   1.439   2.596
19519W        W87924  24.926  25.390   4.352
19520W        W87925  13.171  16.094  14.772
19521W        W87926  27.263  10.048  13.621
19522W        W87927  17.824  43.369  12.099
19523W        W87928  39.417  15.552   0.513
19524W        W87929  18.262  42.314   0.715
19525W        W87930  19.218  16.186   4.637
19526W        W87931  13.120  11.134  10.663
19527W        W87932  37.487   6.236  13.049
19528W        W87933  36.270  19.820  10.401
19529W        W87934  23.214   5.439  12.039
19530W        W87935  20.756  43.443  11.194
19531W        W87936  12.525   0.859   0.938
19532W        W87937  29.532  20.661  13.182
19533W        W87938  18.119  26.866  11.841
19534W        W87939  32.030  19.307  13.962
19535W        W87940  32.465  18.762  12.392
19536W        W87941  26.487  43.814  12.042
19537W        W87942   6.939  30.508  13.643
19538W        W87943  13.106  38.486   2.341
19539W        W87944  17.493  19.905  12.983
19540W        W87945  41.338  42.181  12.443
19541W        W87946  34.391   6.184   2.560
19542W        W87947  39.667  19.074  14.245
19543W        W87948  34.812   5.765  11.230
19544W        W87949  39.642  25.640   0.347
19545W        W87950  17.277   3.727  12.434
19546W        W87951   0.522  36.373  13.899
19547W        W87952  26.472   3.744   3.745
19548W        W87953   3.303  24.184  11.978
19549W        W87954  42.967   1.692  11.583
19550W        W87955  14.517  37.445  11.149
19551W        W87956   2.330   2.081  11.493
19552W        W87957  21.293  31.890  11.703
19553W        W87958  44.407  35.118   3.174
19554W        W87959  23.183  10.664   1.813
19555W        W87960  38.856  21.181  11.974
19556W        W87961  30.383  14.257   2.793
19557W        W87962  10.454  43.860  13.548
19558W        W87963   1.340  31.063  10.658
19559W        W87964  29.962  19.851  14.412
19560W        W87965   0.200  14.316  12.008
19561W        W87966  24.141  21.061  12.205
19562W        W87967  21.302  38.420   3.372
19563W        W87968   7.976   6.015  12.130
19564W        W87969  15.311  39.237  11.946
19565W        W87970   1.356   6.632   2.619
19566W        W87971  13.306   3.788   4.334
19567W        W87972  19.697  13.238  13.089
19568W        W87973   5.454  25.576  13.033
19569W        W87974  38.228  28.890  14.030
19570W        W87975  26.988  26.475  12.119
19571W        W87976   4.965   6.321   0.982
19572W        W87977   5.181  26.248   0.698
19573W        W87978  31.444  41.775   0.535
19574W        W87979   1.231  23.159   4.699
19575W        W87980   5.192  29.024  11.089
19576W        W87981  26.211  15.825  11.115
19577W        W87982   6.040  20.600   3.311
19578W        W87983  30.423   0.198   3.314
19579W        W87984  32.790  21.347   0.670
19580W        W87985  35.442  44.478  14.296
19581W        W87986  33.681  10.813   0.981
19582W        W87987  31.208   6.890  13.052
19583W        W87988   9.379  11.572  12.471
19584W        W87989  24.102  27.043   3.918
19585W        W87990  39.145   8.505   4.238
19586W        W87991  12.376   0.931  13.305
19587W        W87992   5.931  10.275   4.443
19588W        W87993  13.285   5.447  12.030
19589W        W87994  41.154  12.259   2.807
19590W        W87995  25.542   4.122   4.160
19591W        W87996  13.721  22.572  14.967
19592W        W87997  41.142   4.891   3.202
19593W        W87998  35.713   0.083   3.185
19594W        W87999  44.234  42.081   3.129
19595W        W88000  40.470   4.268   1.973
19596W        W88001  15.002   5.883  11.919
19597W        W88002  16.815  39.319   1.713
19598W        W88003  20.362  26.042   0.243
19599W        W88004   8.170  20.084  14.350
19600W        W88005  19.493  19.072   0.369
19601W        W88006  31.966  40.341  11.952
19602W        W88007  30.043  27.096  11.427
19603W        W88008  29.132  33.479  12.975
19604W        W88009   1.294  42.973   4.427
19605W        W88010  24.476  37.318  13.388
19606W        W88011  38.565  26.494  11.561
19607W        W88012  28.711  23.275  14.116
19608W        W88013   5.699  11.597   1.766
19609W        W88014  40.591  17.670  12.564
19610W        W88015  10.954  29.554  14.132
19611W        W88016  15.063  29.079   3.184
19612W        W88017  30.009  39.556  12.391
19613W        W88018  26.172  19.944  11.462
19614W        W88019  23.285  27.095   2.228
19615W        W88020  17.199  12.743  13.535
19616W        W88021  28.563   1.485  11.218
19617W        W88022  19.302  40.791  11.143
19618W        W88023  13.948  21.741  13.983
19619W        W88024  37.953   4.373  12.150
19620W        W88025  30.828  31.993   1.939
19621W        W88026   0.958  31.920   2.700
19622W        W88027  43.567  12.846   2.830
19623W        W88028  30.446  19.023   2.739
19624W        W88029  31.215  40.013   0.314
19625W        W88030  11.114  42.601   2.429
19626W        W88031  36.584  18.110  11.773
19627W        W88032  36.556  33.392   1.809
19628W        W88033   7.204  27.676   4.243
19629W        W88034   1.868  30.449   2.356
19630W        W88035  22.635  33.383  12.910
19631W        W88036  11.816  20.202  12.545
19632W        W88037  39.814  12.098  14.340
19633W        W88038  32.421  42.731  12.433
19634W        W88039  39.567  26.935   2.195
19635W        W88040  23.632  35.053  13.434
19636W        W88041  21.664   3.358  12.992
19637W        W88042  35.027   1.510   3.234
19638W        W88043  18.463   8.765   2.463
19639W        W88044   4.734  17.582   3.715
19640W        W88045  21.185  28.514  13.413
19641W        W88046  44.434   9.903   3.219
19642W        W88047  43.963  21.894  13.464
19643W        W88048  12.794   2.355  13.966
19644W        W88049  34.540   5.408  10.646
19645W        W88050  15.576   0.043  12.277
19646W        W88051  40.539  12.337  14.761
19647W        W88052   3.486  15.174   4.672
19648W        W88053  31.692  22.208   1.808
19649W        W88054  31.690  42.058   4.571
19650W        W88055  15.636  44.369  12.672
19651W        W88056  29.918   7.622  14.207
19652W        W88057  28.662  41.239  13.998
19653W        W88058  33.906  29.900  10.724
19654W        W88059  11.454  22.157  14.418
19655W        W88060  25.330   8.135  13.170
19656W        W88061   8.622   7.727   2.814
19657W        W88062  17.558  42.035  11.918
19658W        W88063  43.178  41.931  12.094
19659W        W88064  12.337   4.219   1.295
19660W        W88065  38.410  24.111   4.925
19661W        W88066   4.977  37.900  11.136
19662W        W88067  42.814  14.164  13.059
19663W        W88068  39.738   6.775  13.340
19664W        W88069  13.637  25.575   1.505
19665W        W88070  33.985  42.856  14.345
19666W        W88071   8.605  26.674   1.787
19667W        W88072   1.818  25.316   4.182
19668W        W88073   1.370  28.256  13.727
19669W        W88074  33.945  11.334   3.709
19670W        W88075  37.845  29.720  13.886
19671W        W88076  19.303  26.460  13.339
19672W        W88077  12.316  14.148   0.381
19673W        W88078  42.653  41.560  12.483
19674W        W88079  38.559  42.802  10.917
19675W        W88080  33.572  12.720  14.809
19676W        W88081   0.405  22.051  11.070
19677W        W88082  11.939  17.510   2.615
19678W        W88083   2.073  21.003   4.699
19679W        W88084  30.715  36.704  12.611
19680W        W88085  36.841  13.693   1.471
19681W        W88086  12.349  21.053  13.933
19682W        W88087  10.335  14.781  11.649
19683W        W88088  17.105  32.945   0.443
19684W        W88089  32.770  30.194   3.915
19685W        W88090  24.224  39.039  12.919
19686W        W88091  14.660  38.749   0.709
19687W        W88092  27.862  42.823  13.994
19688W        W88093  37.386   2.949   4.684
19689W        W88094  35.072  22.749  13.107
19690W        W88095   5.482  25.561   2.594
19691W        W88096  36.868  43.511   2.222
19692W        W88097  12.124  41.054   2.221
19693W        W88098   7.103  40.962   4.809
19694W        W88099  41.841  38.618  13.430
19695W        W88100  30.495  41.994   3.348
19696W        W88101  42.105  17.823   0.915
19697W        W88102   4.279  22.910  12.506
19698W        W88103  27.597   9.740  12.868
19699W        W88104  43.021  23.689  11.422
19700W        W88105  14.141  31.142   4.569
19701W        W88106  38.464   6.494   2.762
19702W        W88107  14.629  12.156  13.959
19703W        W88108   8.218  25.452  14.310
19704W        W88109   7.664  10.255  12.979
19705W        W88110  43.930  25.533  12.960
19706W        W88111  34.776  43.514  11.045
19707W        W88112  28.086  24.136   2.704
19708W        W88113   1.347  27.264   3.705
19709W        W88114   3.143   6.146  12.634
19710W        W88115  39.859  42.960  12.920
19711W        W88116  39.131  15.696   0.921
19712W        W88117   0.255  41.529   3.609
19713W        W88118   5.806  28.192  12.215
19714W        W88119  32.867  18.284  11.658
19715W        W88120  29.124   5.783  13.862
19716W        W88121   2.963  12.702   2.806
19717W        W88122   6.827  10.977   3.264
19718W        W88123  14.147  33.047  13.494
19719W        W88124  35.447   3.492  12.856
19720W        W88125  25.551   7.345   0.262
19721W        W88126  22.456  23.668  11.943
19722W        W88127  34.768   5.268  12.524
19723W        W88128  33.540  26.121  13.451
19724W        W88129  36.708   7.694   4.846
19725W        W88130  21.084  23.286  12.371
19726W        W88131   2.193  11.697   2.256
19727W        W88132  36.718  38.872   0.962
19728W        W88133  40.062   7.071  11.456
19729W        W88134  19.700   2.717   3.221
19730W        W88135  17.759  10.725  11.043
19731W        W88136  26.004  15.306   0.099
19732W        W88137  42.093  34.855  11.656
19733W        W88138   4.810  11.550   1.400
19734W        W88139  37.925  39.998  13.983
19735W        W88140  23.800  42.931  13.573
19736W        W88141   2.311  18.910  13.589
19737W        W88142   0.938   1.843  10.774
19738W        W88143  35.878  30.270  14.939
19739W        W88144  30.606   0.045  11.586
19740W        W88145  35.578  41.982   0.756
19741W        W88146   8.127  26.794  14.841
19742W        W88147  17.297  44.003  12.826
19743W        W88148  24.745  15.561  13.814
19744W        W88149  18.810  25.125  11.565
19745W        W88150  13.982   4.912   0.609
19746W        W88151  15.256   0.841  12.976
19747W        W88152  36.846  11.546   4.391
19748W        W88153   4.792   1.703  14.958
19749W        W88154  35.061  30.635  12.131
19750W        W88155  19.259   1.397   1.301
19751W        W88156  28.805  40.374   1.716
19752W        W88157   3.822  27.678  11.977
19753W        W88158  13.610  18.102   3.544
19754W        W88159  32.510  17.306  12.604
19755W        W88160  25.592  38.555   5.125
19756W        W88161  41.867  16.997  10.653
19757W        W88162  12.195   4.471   0.785
19758W        W88163  34.719   8.283  13.807
19759W        W88164  15.776  42.365  13.343
19760W        W88165  16.341   9.740   0.480
19761W        W88166  28.645   0.783   4.361
19762W        W88167   5.699  34.994   3.711
19763W        W88168  38.018  13.246   2.384
19764W        W88169  40.606   5.017   5.473
19765W        W88170  26.674  28.542   3.102
19766W        W88171  19.815  31.265   2.713
19767W        W88172  10.890   6.478   4.804
19768W        W88173  34.851  37.370  11.857
19769W        W88174  37.985  34.958   4.686
19770W        W88175  20.116  28.769  14.801
19771W        W88176  43.975   9.371  14.805
19772W        W88177  22.523   2.508  10.975
19773W        W88178  34.074  29.908   1.423
19774W        W88179  27.090  16.088   1.191
19775W        W88180  27.950  20.646   1.262
19776W        W88181  13.038   3.530   0.526
19777W        W88182  35.358  38.100   0.853
19778W        W88183   9.081  30.637   4.726
19779W        W88184   7.801  20.828   0.800
19780W        W88185  39.495  34.779   2.759
19781W        W88186  22.271  39.813   2.739
19782W        W88187  14.583   1.717  12.444
19783W        W88188  13.829  29.837   4.090
19784W        W88189  37.610  29.925   0.593
19785W        W88190  33.212  15.798  11.905
19786W        W88191  34.008  26.849   2.784
19787W        W88192  20.411  42.256   0.770
19788W        W88193  38.314  16.245  12.094
19789W        W88194   5.246   5.698  12.536
19790W        W88195  18.084  29.057  13.887
19791W        W88196  24.247   4.973  13.430
19792W        W88197  15.633  43.254  10.463
19793W        W88198  29.538   8.834   3.701
19794W        W88199   3.317  19.800  14.482
19795W        W88200   5.884  28.920   1.813
19796W        W88201  32.355  28.446  13.899
19797W        W88202   0.398  34.386  12.084
19798W        W88203  25.110  42.940   3.662
19799W        W88204  34.340   0.857   2.059
19800W        W88205  18.055  25.002  12.045
19801W        W88206  43.754  32.469  13.753
19802W        W88207  35.283   5.275  12.473
19803W        W88208  30.674  36.836  14.644
19804W        W88209  13.004  30.395   0.489
19805W        W88210  29.911  23.931   2.082
19806W        W88211   7.751   3.803  12.595
19807W        W88212  18.274   1.975   0.625
19808W        W88213   9.002  32.560  14.512
19809W        W88214  25.957   8.338  11.514
19810W        W88215  15.212  32.446  14.226
19811W        W88216  43.003   0.235  10.767
19812W        W88217  28.574  13.648  12.925
19813W        W88218  24.724  42.090   4.909
19814W        W88219  21.621  26.283   4.544
19815W        W88220  23.687  44.363   0.201
19816W        W88221  21.677  22.670   1.805
19817W        W88222  31.906  39.780  12.823
19818W        W88223  18.830  28.979   2.360
19819W        W88224  29.064  35.009  12.023
19820W        W88225  27.030  43.549  14.902
19821W        W88226  14.788  30.944   3.373
19822W        W88227  25.651   3.672   2.878
19823W        W88228  29.493  18.364  13.774
19824W        W88229   4.932  38.362   0.682
19825W        W88230  13.137  15.160   0.009
19826W        W88231  36.851   8.917  13.867
19827W        W88232  15.863   9.931  10.706
19828W        W88233  35.841  17.894   0.728
19829W        W88234  16.296  19.928  13.570
19830W        W88235  25.167  43.059   1.651
19831W        W88236  15.679   8.624  10.447
19832W        W88237  43.326  25.518  13.389
19833W        W88238   0.909  15.207   2.159
19834W        W88239  35.999  14.652  11.667
19835W        W88240   1.461  37.457  11.587
19836W        W88241  27.146   1.749  13.390
19837W        W88242  32.210   0.428  12.190
19838W        W88243  41.482  11.945  12.571
19839W        W88244   5.565  13.796   2.883
19840W        W88245  26.193  33.621   2.142
19841W        W88246  42.058  24.001   1.857
19842W        W88247  17.384  32.756  12.078
19843W        W88248   7.934  17.254   9.460
19844W        W88249  37.466  36.098   3.628
19845W        W88250  37.594  24.027   1.364
19846W        W88251  14.234  11.350  12.828
19847W        W88252  42.875  23.529  14.800
19848W        W88253   0.826  29.503  14.969
19849W        W88254   2.400  24.573   2.643
19850W        W88255   3.945  41.803   1.001
19851W        W88256  36.408  15.534  12.562
19852W        W88257  29.519  21.258  13.345
19853W        W88258  43.768   4.524  11.394
19854W        W88259  21.632  43.389   2.308
19855W        W88260  12.113   4.920  13.640
19856W        W88261   4.315  42.963  13.607
19857W        W88262  32.079  17.188   0.884
19858W        W88263  27.944  43.709  14.274
19859W        W88264  43.796  32.677   3.600
19860W        W88265  42.792  21.825   2.691
19861W        W88266   2.546  15.245   4.850
19862W        W88267  25.134  17.285  10.096
19863W        W88268  33.424   6.111  12.981
19864W        W88269  26.787  22.795  14.984
19865W        W88270  22.948   4.448  13.591
19866W        W88271  34.491  16.516   2.756
19867W        W88272  10.818  26.536   0.425
19868W        W88273  17.670  13.799  11.439
19869W        W88274  37.325  39.787  11.838
19870W        W88275  35.985   1.530   1.973
19871W        W88276  40.508  34.396  11.676
19872W        W88277   9.181  38.781  11.961
19873W        W88278  35.949   3.715  10.108
19874W        W88279  11.218  27.451   1.723
19875W        W88280  34.660  12.886  14.447
19876W        W88281   4.620  42.170  14.943
19877W        W88282  22.580  26.876  11.103
19878W        W88283  36.546  27.191   0.330
19879W        W88284  39.531  10.189   1.687
19880W        W88285   8.963  35.822  10.640
19881W        W88286  17.317  38.122   4.096
19882W        W88287   2.711   1.358   2.691
19883W        W88288  27.878  23.784  12.404
19884W        W88289  32.609   4.589   0.198
19885W        W88290  24.110  30.942   0.834
19886W        W88291   6.499  16.337   4.503
19887W        W88292  43.381   1.422  13.527
19888W        W88293   5.677   3.887  13.895
19889W        W88294  34.283  37.096  14.332
19890W        W88295  30.524  13.604   3.337
19891W        W88296  14.788  34.325  12.503
19892W        W88297  36.629  32.652   3.745
19893W        W88298   1.389  43.504  10.621
19894W        W88299  29.955  18.302  11.867
19895W        W88300  13.861   5.974  12.564
19896W        W88301  44.709  28.089   0.677
19897W        W88302  11.074  44.415   1.805
19898W        W88303  20.044  27.181   1.708
19899W        W88304   2.912  15.177   3.093
19900W        W88305  37.720   9.681  13.411
19901W        W88306  40.532  25.996  13.687
19902W        W88307  23.294   4.843  11.507
19903W        W88308  10.784  12.684   2.695
19904W        W88309  25.598  18.001   0.730
19905W        W88310  35.072  34.834  13.019
19906W        W88311  15.130  30.697  12.239
19907W        W88312  18.744  29.726   4.870
19908W        W88313  42.901  42.005  11.045
19909W        W88314   7.132  23.074   4.135
19910W        W88315   8.411  20.556  10.864
19911W        W88316  17.157   0.561  13.994
19912W        W88317  36.037  11.160   0.858
19913W        W88318   2.482  21.982  11.572
19914W        W88319  43.891  14.698  14.144
19915W        W88320  16.572  25.005   3.363
19916W        W88321  43.465  22.174  12.393
19917W        W88322   6.170  26.680   2.702
19918W        W88323  38.441  31.910   2.070
19919W        W88324  19.766   9.495  14.703
19920W        W88325  37.067  14.627  11.577
19921W        W88326  44.620  10.969   1.865
19922W        W88327   3.351  10.726  10.548
19923W        W88328  18.413  28.046  11.618
19924W        W88329   0.435  30.559   2.807
19925W        W88330  42.347  38.044  14.350
19926W        W88331  44.588  24.942  12.035
19927W        W88332  28.599  20.646   4.384
19928W        W88333  18.091  30.521   3.688
19929W        W88334  13.906  16.077   1.417
19930W        W88335   8.885  21.714  14.835
19931W        W88336  34.938  33.823   4.201
19932W        W88337   4.738  26.862  11.087
19933W        W88338  21.251   3.758  14.463
19934W        W88339  15.997   6.900   3.269
19935W        W88340  27.213  22.737  13.298
19936W        W88341  19.833   2.730  10.774
19937W        W88342   8.417  39.870  14.493
19938W        W88343  21.983  44.892  14.552
19939W        W88344  38.574  21.352   1.281
19940W        W88345  21.516  36.372  13.489
19941W        W88346  31.990   0.835   0.273
19942W        W88347  34.388  22.876  11.180
19943W        W88348  13.308  10.653   1.333
19944W        W88349  26.578  38.440  12.809
19945W        W88350  40.995  41.137   4.133
19946W        W88351   3.497   6.431  11.112
19947W        W88352  35.839  33.974  10.319
19948W        W88353  43.890  19.072  10.566
19949W        W88354  22.014  27.519  14.441
19950W        W88355  34.306  25.564   2.082
19951W        W88356  12.952  42.408  12.235
19952W        W88357  29.148  19.293  12.019
19953W        W88358  15.707  24.131   2.676
19954W        W88359  28.152  29.614   4.445
19955W        W88360  32.437  21.510   1.857
19956W        W88361  15.665  36.932   1.425
19957W        W88362  22.268  42.374   0.675
19958W        W88363  15.060  28.944   4.176
19959W        W88364   6.208  41.990  14.850
19960W        W88365  17.852  38.622  12.369
19961W        W88366  44.449   0.400  14.328
19962W        W88367   5.340  28.462   1.109
19963W        W88368  18.327  40.963   1.896
19964W        W88369  44.012  32.933  11.112
19965W        W88370   1.929   7.896   0.254
19966W        W88371  20.203   0.341  11.597
19967W        W88372  17.887  21.349  10.607
19968W        W88373  38.662  33.604   4.012
19969W        W88374  30.056  27.586  14.693
19970W        W88375  39.960  37.272  13.739
19971W        W88376   7.350  35.451   1.681
19972W        W88377  39.459  36.897   4.062
19973W        W88378  28.436  38.362  12.830
19974W        W88379  40.329  38.433   3.919
19975W        W88380  37.865  17.450  14.000
19976W        W88381  35.800  19.173  14.802
19977W        W88382  29.885  29.989  12.995
19978W        W88383   1.720  39.930   2.397
19979W        W88384  37.614  42.304   3.106
19980W        W88385  42.166  22.029  12.529
19981W        W88386   1.994  28.640   4.016
19982W        W88387  16.135   1.174  14.246
19983W        W88388  23.652  26.574   1.096
19984W        W88389  36.077  35.726  14.563
19985W        W88390  34.408  33.200  13.517
19986W        W88391  38.443  24.601  10.523
19987W        W88392  11.745   8.864  13.077
19988W        W88393  25.242   3.774   2.450
19989W        W88394   9.634   3.364   4.104
19990W        W88395   0.788   5.521   2.477
19991W        W88396  24.136  34.064   2.381
19992W        W88397   5.448  35.610   4.642
19993W        W88398   1.319  19.724  11.177
19994W        W88399   0.887  28.196  13.401
19995W        W88400  40.699  19.128   4.555
19996W        W88401  34.073  34.848   1.745
19997W        W88402  29.607  20.362  12.180
19998W        W88403  40.089  27.070  10.769
19999W        W88404  16.669  13.565  12.695
20000W        W88405  27.662  17.825  14.881
20001W        W88406  17.257   9.863   0.744
20002W        W88407  14.235  36.560   3.524
20003W        W88408   6.939  23.555   4.843
20004W        W88409  42.356  41.683  14.867
20005W        W88410  42.346   9.564  14.137
20006W        W88411  37.424  26.615  12.358
20007W        W88412  24.981  44.943   3.297
20008W        W88413   3.289  14.688  11.456
20009W        W88414   6.334  33.463   1.413
20010W        W88415  17.531  26.698   0.313
20011W        W88416  24.594   7.758  13.000
20012W        W88417  15.392  16.586  12.010
20013W        W88418  10.662  35.653  13.692
20014W        W88419  31.766   6.171  12.905
20015W        W88420  40.884  11.272  14.220
20016W        W88421  10.336  20.255  14.868
20017W        W88422  32.483  13.560   3.333
20018W        W88423  43.527  22.062   2.143
20019W        W88424  38.367  21.541   1.702
20020W        W88425  29.253  30.320  13.932
20021W        W88426  44.902   6.438   5.415
20022W        W88427  31.079   6.731   2.305
20023W        W88428  20.299   9.753  10.996
20024W        W88429  23.757  38.821   3.313
20025W        W88430   0.662   7.383  13.009
20026W        W88431  21.470   7.334  14.306
20027W        W88432  15.812  39.084  10.985
20028W        W88433  42.181  13.161   2.794
20029W        W88434  14.110  23.192   4.156
20030W        W88435  16.040  13.800   0.379
20031W        W88436  37.443  19.749  13.268
20032W        W88437  40.329  32.204   4.520
20033W        W88438   8.259  17.687  11.678
20034W        W88439  33.235   6.337   3.716
20035W        W88440  11.217   2.146   3.227
20036W        W88441   0.494  18.801   0.481
20037W        W88442  12.578   1.498   1.730
20038W        W88443  12.213   3.874  12.308
20039W        W88444  35.489  31.984   1.879
20040W        W88445   3.260   4.312  12.329
20041W        W88446  19.171  13.113   4.675
20042W        W88447  38.130  38.290  14.363
20043W        W88448   2.346  28.775   3.170
20044W        W88449  15.785   4.966  14.359
20045W        W88450   6.919  18.210  13.541
20046W        W88451  42.789  31.277  14.801
20047W        W88452  32.188   4.741  14.921
20048W        W88453  30.092  27.711   4.689
20049W        W88454  43.649   9.939  10.740
20050W        W88455   4.431  44.170  12.910
20051W        W88456  16.369  39.338  12.542
20052W        W88457  28.295  29.744   1.309
20053W        W88458  21.337   0.373  13.849
20054W        W88459  23.808   4.021   0.108
20055W        W88460   3.947  30.071  11.030
20056W        W88461  41.887  29.551  12.284
20057W        W88462  13.211  30.055  13.865
20058W        W88463   3.851   4.646  10.265
20059W        W88464  22.317  17.125  10.746
20060W        W88465  42.994  31.953  10.328
20061W        W88466  17.356  21.979  14.395
20062W        W88467  28.173   7.394   0.473
20063W        W88468  19.028  19.411  10.987
20064W        W88469  35.054  44.597  12.444
20065W        W88470  27.860  32.921   1.242
20066W        W88471  38.388  20.544   0.900
20067W        W88472  33.053   4.202  12.950
20068W        W88473  26.715  14.561  12.453
20069W        W88474  28.163  21.213  13.832
20070W        W88475  39.316  17.723  11.551
20071W        W88476  33.996  40.118   3.197
20072W        W88477  16.701  35.049  14.359
20073W        W88478  42.045  16.569  12.742
20074W        W88479  16.209  25.478   0.522
20075W        W88480  31.141  24.662   3.048
20076W        W88481   5.211  33.349  14.478
20077W        W88482   0.056  24.264   0.907
20078W        W88483  16.781   7.708  14.849
20079W        W88484   9.889  17.661   4.172
20080W        W88485  12.198  12.318  12.450
20081W        W88486  17.687   2.646   1.882
20082W        W88487   4.927  14.114  11.466
20083W        W88488   7.847   6.284  13.659
20084W        W88489  11.193  11.178  13.340
20085W        W88490  10.295  10.717   4.606
20086W        W88491  39.241  44.644   9.855
20087W        W88492   2.440   5.704   1.190
20088W        W88493  10.667  39.793  14.920
20089W        W88494   8.209  18.207   3.837
20090W        W88495  28.191  13.019  14.615
20091W        W88496  23.069   1.940   3.139
20092W        W88497  23.842  36.545  12.378
20093W        W88498  11.919  43.319  14.996
20094W        W88499  33.234  15.284   5.331
20095W        W88500  43.078  12.364  13.285
20096W        W88501  34.027  30.929   2.531
20097W        W88502  12.281  20.285  13.021
20098W        W88503   5.804  23.071  14.015
20099W        W88504  36.015  13.735   3.784
20100W        W88505  42.873  36.958   1.348
20101W        W88506  43.036  24.943   4.158
20102W        W88507  28.784  18.221  12.502
20103W        W88508   4.827   1.764   3.238
20104W        W88509   3.639  16.954  11.128
20105W        W88510  13.737  31.478   2.250
20106W        W88511  13.094  30.961  14.270
20107W        W88512  16.181  43.930   3.441
20108W        W88513  38.067  31.945  11.691
20109W        W88514   8.716  38.811   3.312
20110W        W88515  12.172  25.964  13.268
20111W        W88516  28.580  28.618   2.365
20112W        W88517   5.321  41.995   4.175
20113W        W88518  21.948  24.199   2.696
20114W        W88519  28.305  31.312   4.182
20115W        W88520  23.579  41.302   0.236
20116W        W88521  44.787  18.885   4.223
20117W        W88522   7.619  32.987   1.332
20118W        W88523  24.764   0.996   3.807
20119W        W88524   5.217  42.985  13.523
20120W        W88525  31.984  43.061   4.109
20121W        W88526  37.426  14.123  14.099
20122W        W88527  23.499  19.754   1.830
20123W        W88528  37.016   7.989  11.587
20124W        W88529  30.159  38.365   0.713
20125W        W88530  29.500  27.175  13.149
20126W        W88531   6.710   5.239   0.267
20127W        W88532  20.935  34.409   0.778
20128W        W88533   4.847  13.309  13.324
20129W        W88534  33.425  21.199  13.939
20130W        W88535   2.541  14.382  10.251
20131W        W88536  33.004   0.993   2.905
20132W        W88537  19.539  37.529  14.474
20133W        W88538   9.323  32.450   3.992
20134W        W88539  37.561  28.192  14.302
20135W        W88540  26.090  14.601  12.026
20136W        W88541  16.836   5.404  13.738
20137W        W88542  27.164  14.100   0.694
20138W        W88543   6.335  37.599   4.202
20139W        W88544  31.571   7.201  11.362
20140W        W88545  30.041  13.682   0.470
20141W        W88546   4.500  19.483   2.825
20142W        W88547  24.735   0.360   0.307
20143W        W88548  27.398  11.657   4.658
20144W        W88549  22.805   6.242   0.939
20145W        W88550  16.075   8.754   0.444
20146W        W88551   1.310  44.979  14.512
20147W        W88552  10.442  37.639  11.182
20148W        W88553   3.459  27.424   4.011
20149W        W88554   0.929  23.520  11.164
20150W        W88555  38.854  14.302  14.435
20151W        W88556  28.139   0.568   1.376
20152W        W88557  33.931  35.404   3.691
20153W        W88558  17.831  34.778   2.304
20154W        W88559  41.538  17.737  12.700
20155W        W88560   5.302   9.706  14.920
20156W        W88561  11.346  38.876   2.333
20157W        W88562  17.806  18.097  14.886
20158W        W88563  40.512   4.812   0.410
20159W        W88564  25.052  40.848   3.434
20160W        W88565   4.885  14.382   4.636
20161W        W88566  22.392   9.238  10.175
20162W        W88567  12.133  44.921   3.698
20163W        W88568  23.500  41.350  12.424
20164W        W88569  34.881   5.223   3.327
20165W        W88570  13.806  15.645  10.305
20166W        W88571  12.740   3.907   2.939
20167W        W88572  26.379  32.094  11.457
20168W        W88573   4.091  31.341  13.281
20169W        W88574   8.259  12.419  14.581
20170W        W88575  26.439  35.890  11.237
20171W        W88576  39.912  34.650  14.553
20172W        W88577  33.420  16.111   3.643
20173W        W88578  24.608   8.268  11.379
20174W        W88579  31.609  15.117   4.555
20175W        W88580  11.623   2.763  12.171
20176W        W88581  18.844  33.035   1.794
20177W        W88582  21.157  12.217   4.187
20178W        W88583  11.320  32.512  11.365
20179W        W88584  10.688   6.879  14.368
20180W        W88585  35.911   9.635   0.007
20181W        W88586  18.254  26.945  14.633
20182W        W88587  41.622  22.509   2.699
20183W        W88588  26.478  15.139  14.978
20184W        W88589  19.093   3.712   1.946
20185W        W88590  27.172   9.892  14.225
20186W        W88591  19.052   3.412   1.220
20187W        W88592  41.097  27.038  10.754
20188W        W88593  36.904  26.677   2.580
20189W        W88594  31.721  26.475   0.750
20190W        W88595  35.575  20.593  12.862
20191W        W88596  37.948   7.757  12.099
20192W        W88597   6.292  28.607  10.692
20193W        W88598  29.955  36.480  11.587
20194W        W88599  20.919  37.803  12.591
20195W        W88600  40.424   0.960   1.731
20196W        W88601   4.194  34.060   1.756
20197W        W88602   9.655  12.216  13.806
20198W        W88603   9.248  12.933  12.857
20199W        W88604  13.991  39.824   0.509
20200W        W88605  18.689  22.459  14.954
20201W        W88606  21.197  36.421  10.614
20202W        W88607  22.686  13.135   4.562
20203W        W88608  27.545  24.113  14.759
20204W        W88609   1.801  13.383  11.506
20205W        W88610  13.933  34.951   4.588
20206W        W88611  39.247  36.741   2.104
20207W        W88612  17.376  15.732   4.618
20208W        W88613   2.013  26.154   4.106
20209W        W88614  43.716  34.071  11.546
20210W        W88615   3.632  31.456  12.129
20211W        W88616  27.554  44.409   1.141
20212W        W88617  34.552  16.716   4.914
20213W        W88618   1.403  21.285  14.889
20214W        W88619  31.506  21.685   4.638
20215W        W88620  16.076  11.819  13.393
20216W        W88621   5.282  13.190   2.154
20217W        W88622  30.437  10.771  14.997
20218W        W88623  40.994   6.980   0.730
20219W        W88624  23.530   1.082  10.641
20220W        W88625  27.936   0.955  11.868
20221W        W88626  28.686  42.003   2.202
20222W        W88627  31.081  31.403  11.869
20223W        W88628  22.691  20.790   9.958
20224W        W88629  17.114  41.855   2.749
20225W        W88630  16.043  20.935   1.914
20226W        W88631  43.500  11.726   2.786
20227W        W88632   0.074  15.911   2.508
20228W        W88633  26.977  31.565  13.833
20229W        W88634  40.261  18.287  13.806
20230W        W88635   2.184  32.541   1.115
20231W        W88636   1.890  11.171  13.572
20232W        W88637  38.450   1.861   3.757
20233W        W88638  11.629  34.184   0.507
20234W        W88639  14.270  17.672   3.442
20235W        W88640  26.880  12.797   4.829
20236W        W88641   3.967   8.684   0.377
20237W        W88642   5.355  43.422   3.062
20238W        W88643  35.093  31.662   3.677
20239W        W88644  25.422  23.140  13.714
20240W        W88645  39.416   1.656   9.861
20241W        W88646  14.124  22.153  10.664
20242W        W88647   0.651  15.703  10.405
20243W        W88648  14.515  26.536  13.508
20244W        W88649  39.260   5.811  11.564
20245W        W88650  41.589  21.610   2.343
20246W        W88651  11.877  18.467  11.401
20247W        W88652  35.659  37.468   0.510
20248W        W88653   3.287  28.066   0.692
20249W        W88654  28.398  37.050  10.671
20250W        W88655  11.771  31.169   0.376
20251W        W88656  25.564  38.091   4.896
20252W        W88657   6.608  34.471  12.563
20253W        W88658  40.189  37.058   2.331
20254W        W88659   7.864  41.972  13.853
20255W        W88660  28.529  38.912   3.605
20256W        W88661  18.607  32.105   3.278
20257W        W88662  17.152  39.034   4.593
20258W        W88663  15.259  29.474   3.891
20259W        W88664   1.433  14.881   4.063
20260W        W88665  13.747  22.537  11.668
20261W        W88666  24.622  40.206   4.795
20262W        W88667   0.268  20.269  10.639
20263W        W88668  24.115  37.879  12.183
20264W        W88669  31.573  17.127  12.019
20265W        W88670  30.383  19.223   1.141
20266W        W88671  34.128   1.495  11.055
20267W        W88672  38.260  34.191   3.570
20268W        W88673  36.850   0.541  12.522
20269W        W88674  19.080  42.409  14.615
20270W        W88675  30.958  43.990  10.409
20271W        W88676  39.905  37.808   1.736
20272W        W88677  33.061  34.810  14.088
20273W        W88678  22.090   1.176  12.922
20274W        W88679   6.622   0.435   4.133
20275W        W88680  15.007  44.747  11.100
20276W        W88681  43.379  23.800   4.646
20277W        W88682  13.663  27.492  14.730
20278W        W88683   7.843  14.868   2.004
20279W        W88684  21.526  24.587  11.167
20280W        W88685  27.732   1.158   3.110
20281W        W88686  33.794  41.878  14.313
20282W        W88687  17.111   0.783   1.868
20283W        W88688  13.928  15.261  12.125
20284W        W88689   4.715  18.067  10.818
20285W        W88690  29.201   7.982  11.621
20286W        W88691   5.806  10.723   2.004
20287W        W88692  19.607  42.753  13.357
20288W        W88693   2.642   3.317  10.032
20289W        W88694   6.324   9.144   4.114
20290W        W88695   7.777  33.122  10.460
20291W        W88696  44.818  23.606   3.824
20292W        W88697  27.809  29.685   4.059
20293W        W88698  40.330  26.467  11.045
20294W        W88699  39.048  18.670   2.467
20295W        W88700  15.586   6.842   0.432
20296W        W88701  10.862  26.952   4.630
20297W        W88702  28.437  44.912   0.851
20298W        W88703  21.091  28.512  11.868
20299W        W88704  27.672  11.841   1.812
20300W        W88705   7.640   4.582   2.030
20301W        W88706  16.079  23.952   3.966
20302W        W88707  12.707  13.882  13.594
20303W        W88708  42.530  31.038   4.092
20304W        W88709  42.432  17.832   4.394
20305W        W88710   6.121  26.370   3.624
20306W        W88711  31.967  28.681  12.969
20307W        W88712  25.162   5.700  10.724
20308W        W88713  36.801   3.411   3.209
20309W        W88714  35.378  21.458  13.985
20310W        W88715  25.777  21.521  14.234
20311W        W88716  19.188   7.146  11.126
20312W        W88717  34.742  29.932   3.864
20313W        W88718  25.370  28.001  13.896
20314W        W88719  28.625  17.245  13.417
20315W        W88720  27.223  25.974   3.840
20316W        W88721  16.303   9.279   0.221
20317W        W88722   9.079  38.872  13.990
20318W        W88723  44.277  43.720  11.559
20319W        W88724  20.157  39.613   4.604
20320W        W88725  20.791   8.368   2.428
20321W        W88726   6.145  11.845  11.675
20322W        W88727  40.086  31.938   1.701
20323W        W88728  27.464  22.271  11.570
20324W        W88729  25.480  26.885  13.556
20325W        W88730  20.582   8.781   4.614
20326W        W88731  23.469  38.922  11.143
20327W        W88732  28.082   9.572   4.442
20328W        W88733   1.692  18.359  11.022
20329W        W88734  39.433   2.293  14.746
20330W        W88735  28.102  28.721   0.433
20331W        W88736   9.778  41.748   4.414
20332W        W88737   2.329  19.057   3.432
20333W        W88738   2.653  13.665   2.898
20334W        W88739  10.817  44.037   3.548
20335W        W88740  37.289  31.508   1.700
20336W        W88741  29.552   1.463   3.267
20337W        W88742  20.855  42.497  14.864
20338W        W88743   0.392  36.420   3.282
20339W        W88744  15.421  23.768   2.335
20340W        W88745  35.530   6.581  14.124
20341W        W88746  15.879  43.034  11.416
20342W        W88747   6.388  13.197   1.726
20343W        W88748   5.049  26.012  10.737
20344W        W88749  43.151  30.352   0.039
20345W        W88750  13.088  28.585   0.815
20346W        W88751  41.628  43.408   2.161
20347W        W88752  42.974  29.410  14.795
20348W        W88753  41.234  44.075   1.565
20349W        W88754  23.564  40.538   2.711
20350W        W88755  44.597   9.210   0.070
20351W        W88756  34.334   8.911   0.877
20352W        W88757  43.361   5.357   1.445
20353W        W88758  15.858  24.672   2.651
20354W        W88759  36.782  19.575   1.699
20355W        W88760  18.211  10.928  12.090
20356W        W88761   2.962  12.292  13.749
20357W        W88762  12.140  22.242  13.798
20358W        W88763  38.987  15.907   2.313
20359W        W88764  22.684  42.092   0.875
20360W        W88765  11.229   0.991   2.020
20361W        W88766   4.896   7.118   4.343
20362W        W88767  33.987  35.902  10.705
20363W        W88768  32.372   5.193   2.842
20364W        W88769  35.087  35.339   0.720
20365W        W88770  20.526  37.449  12.684
20366W        W88771   0.570  42.224  12.654
20367W        W88772  34.882  29.013   2.718
20368W        W88773  18.580  22.794   1.402
20369W        W88774  28.514  39.796  10.631
20370W        W88775  39.958  25.663   4.068
20371W        W88776   9.353   9.368  11.531
20372W        W88777   6.391  44.244  11.556
20373W        W88778  19.436  31.061  12.510
20374W        W88779  26.682  27.416  13.020
20375W        W88780  11.316   3.832   2.295
20376W        W88781  28.108  20.959  14.277
20377W        W88782  21.256   7.856   0.499
20378W        W88783  36.977  35.388  12.694
20379W        W88784  31.439   8.342   0.655
20380W        W88785  20.332  29.411   0.239
20381W        W88786  44.847   7.309  12.043
20382W        W88787  39.961   3.782  12.446
20383W        W88788  22.930  24.548  12.781
20384W        W88789  26.182  34.009  12.656
20385W        W88790  39.013  32.871  10.631
20386W        W88791   8.657   0.901   1.771
20387W        W88792  18.570  41.984  11.485
20388W        W88793  43.265  31.689  14.923
20389W        W88794  11.745  43.881  12.580
20390W        W88795  16.262  20.610   2.830
20391W        W88796  29.617  37.195  12.408
20392W        W88797  41.281  14.153  14.895
20393W        W88798  23.713  37.438   3.150
20394W        W88799  34.506  34.529  13.854
20395W        W88800  16.834   4.164   2.592
20396W        W88801  41.875   2.216  13.908
20397W        W88802  20.364  24.251  14.598
20398W        W88803  17.143  41.219   4.443
20399W        W88804  38.793   9.266  10.553
20400W        W88805  27.582  28.855  14.520
20401W        W88806  24.128   2.833  14.699
20402W        W88807   9.095   6.176  10.588
20403W        W88808  29.437  30.218  13.068
20404W        W88809   5.217  19.128   2.455
20405W        W88810   5.255   6.852  13.303
20406W        W88811  30.062  16.540  13.471
20407W        W88812  41.442  13.460  10.784
20408W        W88813   5.385  12.319  14.078
20409W        W88814   0.479  18.438  10.669
20410W        W88815  40.972  26.138   0.881
20411W        W88816  36.663  11.758   2.326
20412W        W88817  34.723  35.623  14.371
20413W        W88818   0.438  16.552  13.317
20414W        W88819  10.075  19.071   1.285
20415W        W88820  31.980   1.118  10.556
20416W        W88821  10.274  35.700   1.175
20417W        W88822   1.714  26.171  14.210
20418W        W88823  30.009  20.467  11.853
20419W        W88824   9.666  22.482  13.389
20420W        W88825  25.040  28.358   2.811
20421W        W88826   1.495  30.130  10.730
20422W        W88827  37.110  22.717  12.978
20423W        W88828  21.404  13.332  10.703
20424W        W88829  44.274  27.641  11.502
20425W        W88830  12.423   6.298  13.718
20426W        W88831  41.989  24.778  12.856
20427W        W88832  12.158   8.638   0.851
20428W        W88833  33.212  30.093   0.435
20429W        W88834  42.973   2.473   2.326
20430W        W88835  14.421  24.989   1.518
20431W        W88836   2.923  25.355   1.903
20432W        W88837  44.500  13.541   4.622
20433W        W88838  41.246  11.818   4.451
20434W        W88839  25.726  28.726   4.129
20435W        W88840  10.621   2.516   3.133
20436W        W88841   3.015   6.161   0.733
20437W        W88842  15.294  44.937  13.059
20438W        W88843   0.332  12.058   1.464
20439W        W88844  12.811  40.863   2.662
20440W        W88845   5.035  41.244  12.873
20441W        W88846  27.283  12.711   3.499
20442W        W88847  26.744  26.675   0.243
20443W        W88848   5.916  34.583   1.301
20444W        W88849  13.783   2.429   0.543
20445W        W88850   2.292  30.428  10.485
20446W        W88851  28.377  37.870  10.334
20447W        W88852  37.170  13.162  11.643
20448W        W88853  40.816  32.704   1.931
20449W        W88854  17.171  15.016  11.535
20450W        W88855   1.155   1.410   3.828
20451W        W88856  17.638  32.913   4.677
20452W        W88857  39.322   9.209  14.983
20453W        W88858  40.305  15.947   3.352
20454W        W88859  27.033  27.076   1.277
20455W        W88860  40.005  35.571  12.917
20456W        W88861  40.168  40.774  14.834
20457W        W88862  18.152  22.148   2.172
20458W        W88863  42.851  12.727  11.597
20459W        W88864  41.084  20.168  12.653
20460W        W88865  32.576  40.047   4.668
20461W        W88866   8.481  22.897  13.492
20462W        W88867  18.605   9.223  11.054
20463W        W88868   5.412   4.443   3.204
20464W        W88869  19.874  39.749  14.926
20465W        W88870  38.374  19.638   1.831
20466W        W88871  32.221  26.622  11.779
20467W        W88872  31.028   6.099   2.722
20468W        W88873   0.213  44.422  13.879
20469W        W88874  42.468  19.791  10.735
20470W        W88875  24.661  41.068   3.738
20471W        W88876  30.505   8.466   4.206
20472W        W88877  32.523  41.268  11.200
20473W        W88878  34.625  38.863  11.112
20474W        W88879  13.316   9.096   0.365
20475W        W88880  34.088   8.179   0.889
20476W        W88881  30.693  42.902  14.391
20477W        W88882   8.435  34.926  14.916
20478W        W88883  28.423  34.817  11.304
20479W        W88884  22.594  29.397  13.035
20480W        W88885  23.614  24.027  12.419
20481W        W88886  20.724  38.831  10.875
20482W        W88887  40.582  25.301   0.004
20483W        W88888  31.162   2.847   1.435
20484W        W88889  39.241  40.095  12.513
20485W        W88890   1.477  39.967  13.371
20486W        W88891  34.527  31.595   3.836
20487W        W88892  12.523  19.544   1.857
20488W        W88893  30.140   8.213  10.802
20489W        W88894  44.197  44.619   0.340
20490W        W88895   0.024  26.474   3.262
20491W        W88896  41.114  42.336  14.354
20492W        W88897  22.291  37.814   4.258
20493W        W88898   7.735  40.116   3.592
20494W        W88899  31.041  30.185  13.958
20495W        W88900  10.228  34.581   0.358
20496W        W88901  39.644  10.937   2.229
20497W        W88902  15.331  29.991   3.230
20498W        W88903  20.325  28.859  13.971
20499W        W88904  34.830  31.973   1.396
20500W        W88905  43.966  40.325  14.767
20501W        W88906  37.953  31.842  13.356
20502W        W88907   4.059   5.132   1.274
20503W        W88908  28.733  34.770   3.339
20504W        W88909   3.289  18.055   2.265
20505W        W88910   9.920  29.743   2.116
20506W        W88911  35.456  18.611  11.769
20507W        W88912  35.209  22.308   4.668
20508W        W88913  21.142  35.559   1.705
20509W        W88914  17.132  19.685   0.443
20510W        W88915  23.086  16.165  13.536
20511W        W88916  26.684   3.756  12.564
20512W        W88917  24.222   9.507  14.319
20513W        W88918   3.371  24.963   2.765
20514W        W88919  12.143  17.424   5.078
20515W        W88920  34.834  28.187  10.766
20516W        W88921   3.249  14.249  11.958
20517W        W88922  35.418  43.033  11.907
20518W        W88923  12.795  10.803  13.864
20519W        W88924  31.024  22.247  13.551
20520W        W88925  17.571   3.269  13.453
20521W        W88926  27.469  21.635  14.837
20522W        W88927  18.218  44.144   3.348
20523W        W88928   2.969   2.862   4.085
20524W        W88929   8.966  29.220   0.046
20525W        W88930  29.931  15.895  14.220
20526W        W88931   0.777   4.607  14.244
20527W        W88932  34.918  18.014   1.886
20528W        W88933   6.975   3.440   1.497
20529W        W88934  14.949  34.977   3.403
20530W        W88935  18.411  10.381   1.399
20531W        W88936  31.026  14.399  14.270
20532W        W88937   4.340  13.846   3.108
20533W        W88938  29.993  37.742   1.435
20534W        W88939  13.900  42.477  12.404
20535W        W88940  35.078   5.510   1.455
20536W        W88941   3.514  35.650   1.206
20537W        W88942  20.295  19.624  13.003
20538W        W88943  43.511  31.968   1.811
20539W        W88944  10.294  22.922  12.464
20540W        W88945  43.244   1.854  12.105
20541W        W88946  35.817  18.064   1.729
20542W        W88947  15.176  35.466  13.587
20543W        W88948  26.074   0.960  10.640
20544W        W88949   6.608  16.094   3.702
20545W        W88950  42.593   2.018  11.034
20546W        W88951  35.669  31.385  12.664
20547W        W88952  39.719  38.006   4.776
20548W        W88953  43.083   7.929  13.460
20549W        W88954   1.395  23.130   2.881
20550W        W88955  28.561  17.372  10.792
20551W        W88956  34.517  39.798  11.906
20552W        W88957   8.377   0.463  11.827
20553W        W88958  34.600   1.895   3.360
20554W        W88959   2.264  39.451   1.777
20555W        W88960  13.358  34.540  13.966
20556W        W88961  26.628  44.790  10.519
20557W        W88962  24.484   5.537   2.245
20558W        W88963   4.281  39.881  12.038
20559W        W88964  26.393  13.139   0.992
20560W        W88965  17.727  25.005  10.747
20561W        W88966  31.969  14.737   1.392
20562W        W88967  38.260   8.949  14.431
20563W        W88968  31.010  37.433   4.833
20564W        W88969  15.938   1.837  13.250
20565W        W88970  14.330  23.640   2.713
20566W        W88971  36.988  32.915   3.432
20567W        W88972  17.059  29.555   0.747
20568W        W88973  21.263  24.168  10.746
20569W        W88974  26.087  17.688   0.753
20570W        W88975   4.451  23.493   2.787
20571W        W88976  44.807   8.817   2.148
20572W        W88977  33.496  27.569  11.996
20573W        W88978  36.972  44.490  11.688
20574W        W88979  12.445  44.838   3.286
20575W        W88980  30.312  30.031   4.103
20576W        W88981   8.219  27.573   3.616
20577W        W88982  19.124   3.860  13.341
20578W        W88983  36.672  41.084  12.163
20579W        W88984   2.389  13.652   1.333
20580W        W88985  23.168  24.279  12.394
20581W        W88986   3.209  24.848  10.525
20582W        W88987  37.107  35.404   4.126
20583W        W88988  25.639  22.647   1.847
20584W        W88989  44.448  12.885   0.685
20585W        W88990  42.552  44.317   1.066
20586W        W88991  26.926   8.067  11.256
20587W        W88992  41.527  31.630  12.984
20588W        W88993  36.588   4.886  14.876
20589W        W88994  20.624  34.409  10.436
20590W        W88995   4.230  34.183  14.325
20591W        W88996  28.710  16.287   0.336
20592W        W88997  30.632  16.795  10.352
20593W        W88998   7.844  37.084  10.668
20594W        W88999  38.995  17.806  12.098
20595W        W89000  35.042  31.040   2.398
20596W        W89001   1.735  33.047   3.250
20597W        W89002   1.238  10.170   1.856
20598W        W89003  30.613  24.051  11.114
20599W        W89004  23.168  17.811   2.948
20600W        W89005  37.002  15.601   4.779
20601W        W89006  29.400  41.513  12.853
20602W        W89007  10.582  41.173   3.289
20603W        W89008   6.427   2.555  13.478
20604W        W89009   3.424  39.972  10.582
20605W        W89010  29.146   2.790  13.111
20606W        W89011  25.934  11.290  13.087
20607W        W89012  26.153   5.397   3.327
20608W        W89013  44.004   9.354  11.206
20609W        W89014  33.412  23.170  12.038
20610W        W89015   9.026  19.727  14.883
20611W        W89016  32.302  14.625   3.295
20612W        W89017  38.863  13.292   2.702
20613W        W89018  16.723  34.374  14.675
20614W        W89019  35.364  27.472   4.082
20615W        W89020  44.486  37.991   2.241
20616W        W89021   9.144  43.516   4.593
20617W        W89022  42.985  39.547  14.980
20618W        W89023  25.240  28.726   1.249
20619W        W89024   9.763  19.170  13.139
20620W        W89025  41.846  32.209  14.859
20621W        W89026   3.864   0.485  12.080
20622W        W89027  33.997  41.351   4.893
20623W        W89028  25.999  37.497  14.441
20624W        W89029  31.444   0.769  12.653
20625W        W89030   6.205  44.244  10.765
20626W        W89031  30.734   9.354  13.755
20627W        W89032   5.877   8.970  14.891
20628W        W89033  16.648  23.298   2.714
20629W        W89034  31.613  17.263   3.610
20630W        W89035  32.684  19.124   2.950
20631W        W89036  31.703  41.067   0.784
20632W        W89037  20.221  32.905  14.523
20633W        W89038  18.907  29.116   0.967
20634W        W89039   0.531  25.459   1.906
20635W        W89040  19.255   5.047   3.854
20636W        W89041   0.444   0.691   3.701
20637W        W89042  44.951  38.570  13.956
20638W        W89043  13.932  42.789  14.508
20639W        W89044  32.390  23.186   4.231
20640W        W89045  35.644  21.418  12.574
20641W        W89046  23.061  38.302  14.864
20642W        W89047   4.407   5.356   3.362
20643W        W89048  31.130  10.328   3.250
20644W        W89049  27.202  30.663   1.845
20645W        W89050  22.200  18.598   0.867
20646W        W89051  34.108  20.865   0.260
20647W        W89052  35.436   4.327  11.128
20648W        W89053  14.158  23.415  12.789
20649W        W89054   7.656  30.806   2.689
20650W        W89055  24.688   6.477  14.971
20651W        W89056  33.161  27.189   3.064
20652W        W89057  40.645  32.091  14.421
20653W        W89058   1.274   6.545  13.115
20654W        W89059  39.435  40.735  11.183
20655W        W89060  37.044   3.761  13.954
20656W        W89061  11.426  20.753   3.438
20657W        W89062  34.589  38.744  12.819
20658W        W89063  29.377  13.281   2.860
20659W        W89064   8.703  27.916  10.286
20660W        W89065   4.372  44.478   1.871
20661W        W89066   1.958  22.226   4.985
20662W        W89067   3.269  26.127  14.376
20663W        W89068  40.460  41.706   4.646
20664W        W89069  44.920  16.568  14.408
20665W        W89070  33.604   7.838   3.036
20666W        W89071  42.973  26.527  12.626
20667W        W89072  23.676  14.942  11.026
20668W        W89073  44.575  21.771   2.680
20669W        W89074  17.104  27.656  13.706
20670W        W89075   6.895  40.760   0.481
20671W        W89076   6.817  44.036   2.608
20672W        W89077  35.942  21.820  12.664
20673W        W89078   8.810  32.933  13.350
20674W        W89079  41.741  22.612  14.926
20675W        W89080  10.574   0.826   3.732
20676W        W89081  38.553  11.678   4.618
20677W        W89082  44.824  39.066   0.051
20678W        W89083  16.271  35.491  10.513
20679W        W89084  21.097  26.938   0.309
20680W        W89085  17.528  35.712   0.874
20681W        W89086   9.660  37.478   3.602
20682W        W89087  13.555  16.145   1.792
20683W        W89088  24.275   4.810  12.541
20684W        W89089  33.796  33.011   3.724
20685W        W89090   2.510  34.011  14.973
20686W        W89091   6.666  11.045  12.406
20687W        W89092  34.082   1.391  13.602
20688W        W89093  41.454  15.766   4.174
20689W        W89094  29.669   5.727   0.107
20690W        W89095  10.026  13.648   0.778
20691W        W89096  20.692  11.225  12.902
20692W        W89097  36.508  21.425   4.973
20693W        W89098  14.118  37.752  11.070
20694W        W89099  34.402  24.559   4.242
20695W        W89100  20.864  18.899   4.246
20696W        W89101  33.922  39.466   0.662
20697W        W89102  34.144  31.887   3.640
20698W        W89103  38.742   8.624  13.860
20699W        W89104  40.849  37.710  11.109
20700W        W89105  27.716   0.625   3.198
20701W        W89106  41.834  33.147   0.813
20702W        W89107  42.144  23.905   1.262
20703W        W89108   0.724  27.478  11.448
20704W        W89109   5.991  43.876  14.496
20705W        W89110  42.608  17.221  10.666
20706W        W89111  28.424  35.158   3.215
20707W        W89112  42.459  24.623  11.531
20708W        W89113  31.889  39.278  14.088
20709W        W89114  21.250  18.275  11.445
20710W        W89115   4.969  34.960   4.358
20711W        W89116  39.425  18.798  14.672
20712W        W89117   9.787   1.759  10.882
20713W        W89118   0.022  25.451  14.918
20714W        W89119  20.508  14.576  11.918
20715W        W89120  39.900  36.225   2.134
20716W        W89121   9.427  43.292   0.878
20717W        W89122   3.386   7.601  11.709
20718W        W89123  10.126  11.525   2.817
20719W        W89124  17.446  27.954   3.212
20720W        W89125  32.046   7.738  13.352
20721W        W89126  43.892  16.819  12.948
20722W        W89127  19.013   2.240  13.316
20723W        W89128  14.630  34.136   1.360
20724W        W89129  39.153   7.343   3.775
20725W        W89130  30.649  11.082   0.745
20726W        W89131  44.844   1.855   3.854
20727W        W89132  40.537  21.698  13.923
20728W        W89133  44.264  15.040  10.069
20729W        W89134  31.085   9.226  11.161
20730W        W89135  36.133  33.569  13.985
20731W        W89136  29.122   5.762  12.792
20732W        W89137   4.284  29.552  13.071
20733W        W89138   3.132  25.958  13.897
20734W        W89139  13.691  20.836  12.546
20735W        W89140  39.298  36.242   4.807
20736W        W89141  43.694  37.918   3.737
20737W        W89142  34.375  42.789   3.759
20738W        W89143   6.489  31.966   2.120
20739W        W89144   5.376  14.738   3.267
20740W        W89145  36.969  37.893   4.367
20741W        W89146  11.436  39.082  14.071
20742W        W89147  26.492   4.290   2.720
20743W        W89148  29.651   2.019  10.648
20744W        W89149  24.618   7.621   3.110
20745W        W89150   6.363  37.943   3.806
20746W        W89151   6.297  34.497  12.136
20747W        W89152  34.221  28.533  12.198
20748W        W89153  35.402  25.724   3.085
20749W        W89154  39.524  27.700   0.201
20750W        W89155  21.829  21.014   4.227
20751W        W89156  23.899  27.618   4.884
20752W        W89157  10.695  34.088   0.843
20753W        W89158   3.397  32.676  11.324
20754W        W89159  38.323   3.366   1.406
20755W        W89160  41.451  42.796   2.729
20756W        W89161  25.424  13.366  10.364
20757W        W89162  21.174  27.919   2.721
20758W        W89163  16.135  19.159  12.303
20759W        W89164  32.934  21.700   4.361
20760W        W89165   8.838  10.169   4.608
20761W        W89166   6.225  11.638   1.772
20762W        W89167   3.834  42.853   4.128
20763W        W89168  26.692  43.923  12.548
20764W        W89169   9.741  31.021  12.755
20765W        W89170  25.144  19.279   3.819
20766W        W89171  34.314  41.922   3.476
20767W        W89172  16.092  25.509  12.512
20768W        W89173   0.403  31.232   2.309
20769W        W89174  15.168  25.001  10.707
20770W        W89175  38.733  39.804  11.672
20771W        W89176   6.223  26.267  11.183
20772W        W89177  26.258  33.001  12.257
20773W        W89178  16.135   9.129  14.308
20774W        W89179  16.907  35.272   0.662
20775W        W89180  26.469   3.759   0.996
20776W        W89181  29.642  41.019   2.657
20777W        W89182  11.185  12.044   1.386
20778W        W89183  18.482   1.616  14.418
20779W        W89184  40.248  38.368  12.759
20780W        W89185   3.249  17.570  14.793
20781W        W89186  42.446  43.928  10.614
20782W        W89187   4.737  36.995   1.379
20783W        W89188  24.009   6.755   0.427
20784W        W89189  21.998   5.882   1.666
20785W        W89190  43.418   4.910  14.116
20786W        W89191   3.410  41.724  14.895
20787W        W89192  21.513  26.947   4.925
20788W        W89193  32.038  18.513  14.996
20789W        W89194  19.095   9.910   2.693
20790W        W89195   5.806  23.268  12.105
20791W        W89196  22.705  12.251  10.459
20792W        W89197  25.593   2.896  13.535
20793W        W89198   1.927  22.241  10.744
20794W        W89199  43.364  19.495   0.513
20795W        W89200  26.104  30.732  13.887
20796W        W89201  14.895   0.347   4.995
20797W        W89202   8.225  21.754   4.140
20798W        W89203   0.431  12.109  14.456
20799W        W89204   0.866   5.043   2.304
20800W        W89205  14.887  40.354  12.954
20801W        W89206  10.271  14.108   0.774
20802W        W89207  44.932   7.272   1.989
20803W        W89208  11.860  25.686   4.554
20804W        W89209  35.907  31.711   2.590
20805W        W89210  43.222  42.395  12.410
20806W        W89211  26.708   6.737  11.793
20807W        W89212  42.243  18.770  13.833
20808W        W89213  27.705  43.959   4.535
20809W        W89214  21.617  32.031   0.312
20810W        W89215  21.718  23.906   0.020
20811W        W89216  35.069  37.559   1.534
20812W        W89217  13.766  26.488   3.303
20813W        W89218   0.857  16.199  14.256
20814W        W89219  21.946  22.206   1.862
20815W        W89220  13.307  34.125   3.612
20816W        W89221  32.891  22.256  13.319
20817W        W89222  26.745  28.051   3.288
20818W        W89223  21.673  25.782   1.765
20819W        W89224  10.012   8.283  11.123
20820W        W89225  31.376   8.088  13.107
20821W        W89226   1.332  41.790   4.719
20822W        W89227  20.697   4.520   4.180
20823W        W89228  39.808  13.602   1.500
20824W        W89229  22.557  32.340  11.813
20825W        W89230  11.181  35.978  11.633
20826W        W89231   1.696  36.127  13.431
20827W        W89232  34.010  42.672  12.020
20828W        W89233  36.020  39.130   1.736
20829W        W89234  10.192  13.420   2.870
20830W        W89235  10.841   9.236   2.466
20831W        W89236  35.848  39.259   1.198
20832W        W89237  26.275  10.111   1.004
20833W        W89238  43.166  35.557  11.409
20834W        W89239  37.993  30.466   4.604
20835W        W89240   0.228  17.275   2.717
20836W        W89241  14.222  16.223  13.076
20837W        W89242   6.192   3.251  11.617
20838W        W89243  10.257  35.174   1.219
20839W        W89244  14.264   6.401  11.751
20840W        W89245  19.039   9.171  12.211
20841W        W89246  11.563  15.734   0.388
20842W        W89247  34.516  33.040   1.973
20843W        W89248  18.726   8.369   3.248
20844W        W89249   2.401  40.058  10.696
20845W        W89250  18.038  16.892   3.991
20846W        W89251   5.100  42.994  12.317
20847W        W89252  28.319  23.749   0.883
20848W        W89253  29.445   6.762  14.039
20849W        W89254  15.560   5.728  12.177
20850W        W89255   3.297  40.548   3.128
20851W        W89256  14.374   9.873   2.301
20852W        W89257  14.295  44.905   1.765
20853W        W89258  21.717  33.475  13.317
20854W        W89259   9.646  31.025   1.388
20855W        W89260  16.904  14.308  14.358
20856W        W89261  19.400  17.016   2.832
20857W        W89262  36.353  17.604   3.831
20858W        W89263  41.371  30.989   0.346
20859W        W89264  24.093  10.702   0.430
20860W        W89265  11.567  25.610  14.354
20861W        W89266  23.737   2.934  12.975
20862W        W89267   4.727  15.800  11.881
20863W        W89268  41.338  31.798  12.491
20864W        W89269  32.659   1.976  13.458
20865W        W89270  33.453   9.251  11.915
20866W        W89271  14.423  16.522  13.772
20867W        W89272  30.992   0.794  11.920
20868W        W89273   2.298  13.656  11.422
20869W        W89274   5.915  40.899   1.255
20870W        W89275  11.035  39.273   2.454
20871W        W89276  33.289  15.122   0.328
20872W        W89277   2.742   3.352  10.532
20873W        W89278  10.448   3.170  10.615
20874W        W89279  20.497   6.145  12.805
20875W        W89280  41.122   6.164  10.448
20876W        W89281   0.098   0.069   1.442
20877W        W89282  38.382  18.301   0.531
20878W        W89283  34.517   3.173  12.984
20879W        W89284  37.623  40.333  13.741
20880W        W89285   3.171  44.378   0.407
20881W        W89286  42.851  42.475  14.900
20882W        W89287   8.104   0.124  13.814
20883W        W89288  11.805  38.022  10.843
20884W        W89289   4.165  39.413   0.836
20885W        W89290  12.308  15.317   1.619
20886W        W89291  12.729   8.624  10.676
20887W        W89292   7.340  43.470  14.926
20888W        W89293  22.495  17.041  13.041
20889W        W89294  33.565   6.619  10.612
20890W        W89295  15.550  16.927  12.405
20891W        W89296  30.047  40.812   9.812
20892W        W89297  44.277  10.338   5.012
20893W        W89298  22.719  14.555   3.673
20894W        W89299   5.294  31.848  11.552
20895W        W89300  26.536  41.951  12.658
20896W        W89301  44.018   3.138   0.815
20897W        W89302  17.345  33.969  14.793
20898W        W89303  10.036  10.781   3.226
20899W        W89304  33.170  11.100   3.176
20900W        W89305  16.804  10.506  12.524
20901W        W89306  39.446   5.651   1.335
20902W        W89307   4.971  23.556   2.823
20903W        W89308  13.882  36.446   4.288
20904W        W89309  34.232  33.080  10.809
20905W        W89310  26.066  31.244  13.830
20906W        W89311  21.703   0.937   1.771
20907W        W89312   7.061   5.943  13.070
20908W        W89313  39.785  20.999   3.874
20909W        W89314  38.501   4.384  14.951
20910W        W89315  33.652  20.676   2.907
20911W        W89316  14.739  23.078  12.632
20912W        W89317  23.562  31.955   2.774
20913W        W89318  36.396   1.973   4.014
20914W        W89319  13.190  31.598  13.632
20915W        W89320  29.281   2.020  11.960
20916W        W89321   2.255   4.496  10.042
20917W        W89322  34.329  30.968  14.772
20918W        W89323  26.465  35.518   2.172
20919W        W89324  29.850   3.208   2.165
20920W        W89325  34.363   9.292   2.706
20921W        W89326   3.903  29.019  11.580
20922W        W89327  42.079   1.046   2.253
20923W        W89328   6.647   7.248  10.567
20924W        W89329  21.267  26.668   4.575
20925W        W89330  11.583   4.890  14.439
20926W        W89331  43.048   9.261   1.210
20927W        W89332  42.247  29.092   5.014
20928W        W89333  34.356  13.390  10.595
20929W        W89334  15.786  40.766  10.463
20930W        W89335  38.504  44.486   0.898
20931W        W89336  19.837  14.779  13.611
20932W        W89337  18.781   0.773   3.342
20933W        W89338  37.034  43.442   3.490
20934W        W89339  30.575  35.351   0.200
20935W        W89340  29.744  16.263  11.749
20936W        W89341  18.588  34.639  10.574
20937W        W89342  34.528  37.869  10.933
20938W        W89343   2.361  41.465   0.297
20939W        W89344  22.927   7.244   3.803
20940W        W89345   4.593  33.696   1.693
20941W        W89346  23.208  26.709  14.052
20942W        W89347  17.128  23.502   2.788
20943W        W89348   8.226  10.396  10.123
20944W        W89349  33.495  32.114  11.570
20945W        W89350  21.046  26.254   0.880
20946W        W89351   7.867   4.681  13.006
20947W        W89352   7.410  29.573   0.786
20948W        W89353  43.627  15.131  14.091
20949W        W89354  24.029  30.448  10.682
20950W        W89355  15.418   0.350   1.281
20951W        W89356  23.581  12.397  11.988
20952W        W89357  40.581   1.779   1.718
20953W        W89358  17.196  20.686   0.210
20954W        W89359  13.593  27.513   4.617
20955W        W89360  20.069  31.433  11.167
20956W        W89361  30.458  33.685   1.795
20957W        W89362  20.668   3.316   1.522
20958W        W89363  32.013  36.275  11.183
20959W        W89364   4.367   9.334  14.946
20960W        W89365  37.504  27.326  13.791
20961W        W89366  18.049   5.678   0.766
20962W        W89367   6.687  41.894  12.412
20963W        W89368  41.887  33.929  14.094
20964W        W89369   0.470  42.539  13.079
20965W        W89370  19.817   6.398   3.508
20966W        W89371  19.693  39.386  13.314
20967W        W89372  30.013  25.539   1.384
20968W        W89373  27.899  24.788   1.309
20969W        W89374   5.483   0.280   0.918
20970W        W89375  41.973   3.255   2.770
20971W        W89376  10.709  30.044  14.274
20972W        W89377  32.040   1.368  12.024
20973W        W89378  32.513  27.043  14.529
20974W        W89379  11.254  10.853  12.137
20975W        W89380   8.189  17.767  12.163
20976W        W89381  33.431  41.510  14.447
20977W        W89382   4.952  21.109   0.835
20978W        W89383  27.032  35.389  10.733
20979W        W89384  22.049   8.147  14.927
20980W        W89385  25.573   4.152   2.605
20981W        W89386  41.617  33.595  11.061
20982W        W89387  37.272  24.169  12.570
20983W        W89388  40.965  42.462   1.858
20984W        W89389  24.659  41.000  14.283
20985W        W89390   4.022  12.187   1.792
20986W        W89391  30.104  43.071   2.374
20987W        W89392   5.479  18.030   5.563
20988W        W89393  13.075  13.500   0.327
20989W        W89394  23.830   7.608   1.836
20990W        W89395  34.446   5.592  11.602
20991W        W89396  15.266  27.275  12.876
20992W        W89397  12.866  16.699  12.602
20993W        W89398  32.934  26.118   2.370
20994W        W89399  39.979  39.651  12.968
20995W        W89400  28.505  39.386  14.785
20996W        W89401  24.947  38.382   2.357
20997W        W89402  24.679  44.419  14.330
20998W        W89403  39.764   8.730   0.261
20999W        W89404   4.304  18.053   3.735
21000W        W89405   1.101  10.652  11.108
21001W        W89406  38.557   6.923  10.192
21002W        W89407  13.305  32.686  12.491
21003W        W89408  12.951   1.792  11.099
21004W        W89409  43.859  18.194   0.511
21005W        W89410  30.521   3.889   3.482
21006W        W89411  40.520   3.730   0.689
21007W        W89412  42.303  31.735  10.708
21008W        W89413  19.691   1.010   2.381
21009W        W89414  42.883  29.900  14.305
21010W        W89415  23.890   9.196  12.968
21011W        W89416  11.698  20.208   0.229
21012W        W89417   2.731  32.178   0.433
21013W        W89418  33.089  21.654   0.338
21014W        W89419  10.775  13.717   1.380
21015W        W89420  15.185  15.843   0.393
21016W        W89421   9.887   3.181   2.560
21017W        W89422  16.688  13.000  12.094
21018W        W89423  34.141   4.386  12.004
21019W        W89424  43.084  10.840   0.191
21020W        W89425  31.174  26.788  11.003
21021W        W89426  22.676  36.323   4.197
21022W        W89427  36.511  37.526   1.914
21023W        W89428  37.108  38.301  14.369
21024W        W89429   8.360   9.772   0.442
21025W        W89430  35.445   0.901  13.970
21026W        W89431  13.781  23.546  14.283
21027W        W89432  29.606  16.730   2.502
21028W        W89433  17.773   0.245  14.993
21029W        W89434  36.017  44.799   4.069
21030W        W89435  28.971  32.957  13.577
21031W        W89436  19.134  22.223   5.190
21032W        W89437  11.732  30.253   0.505
21033W        W89438  38.431  28.517   0.418
21034W        W89439   2.421  17.710   4.233
21035W        W89440   9.864  18.386   4.984
21036W        W89441  12.089  24.017  14.275
21037W        W89442  30.652  12.384   4.399
21038W        W89443  34.057   5.873   2.106
21039W        W89444  39.369  25.072   3.818
21040W        W89445  29.053  35.329  13.935
21041W        W89446  25.612  28.466  14.963
21042W        W89447   0.899  32.127  10.982
21043W        W89448  42.702  37.140  13.315
21044W        W89449   2.502   9.877  11.559
21045W        W89450  32.882  39.196   2.578
21046W        W89451   0.346  32.002   9.975
21047W        W89452   4.155  35.670  14.824
21048W        W89453   6.424  22.013  14.486
21049W        W89454  12.733  21.618  12.728
21050W        W89455  32.729  16.822   4.277
21051W        W89456  14.059  31.261   0.769
21052W        W89457  28.162  27.222   3.715
21053W        W89458  21.691  37.577   1.133
21054W        W89459  44.040  10.758   0.174
21055W        W89460   3.906  30.929  10.718
21056W        W89461   1.554  28.159   1.502
21057W        W89462  10.270   0.078  12.954
21058W        W89463  15.489  14.337   5.017
21059W        W89464  43.554  36.118   1.251
21060W        W89465   4.251  22.352   0.316
21061W        W89466  30.520   8.663  13.018
21062W        W89467  25.148  41.214  14.132
21063W        W89468  28.673  42.309  11.946
21064W        W89469   5.422  14.061  10.743
21065W        W89470  28.665  15.698   3.329
21066W        W89471  32.877  11.279  10.961
21067W        W89472  11.573   9.358   1.874
21068W        W89473  25.483  35.289   0.796
21069W        W89474   6.733  31.946  12.741
21070W        W89475  38.372  39.083   2.357
21071W        W89476   0.176   8.341   0.946
21072W        W89477  41.867  25.176  14.959
21073W        W89478  16.070  20.230  13.969
21074W        W89479  44.888  32.544  12.524
21075W        W89480  13.554   2.806  11.985
21076W        W89481  18.606   8.203  12.092
21077W        W89482  21.935  28.920  13.399
21078W        W89483   6.649  14.104   0.995
21079W        W89484  35.964  41.804   3.837
21080W        W89485   4.221  22.471   3.813
21081W        W89486  34.042  19.441  11.114
21082W        W89487  19.824  32.055   2.277
21083W        W89488  39.054  24.244   2.558
21084W        W89489   0.270  36.372   1.812
21085W        W89490  41.085   6.906   3.627
21086W        W89491   8.709   6.924  13.308
21087W        W89492   3.472  42.527   1.271
21088W        W89493  25.485  19.556  13.698
21089W        W89494   1.089  20.106  10.925
21090W        W89495  13.800   8.284   4.913
21091W        W89496  18.371  35.552  10.731
21092W        W89497  25.521  11.611  13.005
21093W        W89498   0.767   4.844   3.223
21094W        W89499   7.954  41.340   4.117
21095W        W89500  12.704   6.626   3.761
21096W        W89501  39.344  21.084  14.234
21097W        W89502  35.306  18.798   4.631
21098W        W89503  33.885  11.899   3.770
21099W        W89504  33.144  11.571   1.308
21100W        W89505  42.066  18.049  14.763
21101W        W89506  30.542  25.967   2.846
21102W        W89507  14.289   3.982  13.480
21103W        W89508  38.971  26.442   2.219
21104W        W89509  14.277  39.381   0.509
21105W        W89510  30.060  22.218   1.362
21106W        W89511   2.397   3.211   2.374
21107W        W89512  17.310   9.394   3.760
21108W        W89513  17.072  17.623   0.458
21109W        W89514  39.665  13.172   0.806
21110W        W89515  36.889  29.927   3.232
21111W        W89516   7.372  23.664  13.734
21112W        W89517  18.650  24.867   4.972
21113W        W89518  36.426  39.125   4.279
21114W        W89519  22.646  17.966  10.683
21115W        W89520  25.427  29.657   3.647
21116W        W89521   0.354  22.259   3.793
21117W        W89522  11.216  29.701   2.239
21118W        W89523  34.950  13.787   4.838
21119W        W89524  44.266   2.529   0.932
21120W        W89525  15.159  43.673  14.631
21121W        W89526  44.796  33.369   0.893
21122W        W89527  17.521   7.351  12.383
21123W        W89528   6.826  26.688  13.824
21124W        W89529  40.177  13.601   0.114
21125W        W89530  37.606  25.763  13.998
21126W        W89531  30.913  10.866   2.459
21127W        W89532  15.838   2.178  11.034
21128W        W89533  20.205  18.154  10.768
21129W        W89534  40.823  40.797   4.533
21130W        W89535  29.059  13.609  12.011
21131W        W89536  19.396  15.990  13.315
21132W        W89537  22.618  15.560  11.972
21133W        W89538   3.285  35.428   1.824
21134W        W89539  40.563  18.086  14.210
21135W        W89540   9.690  24.874   1.300
21136W        W89541   7.301  28.705  12.367
21137W        W89542   5.401  25.272   1.748
21138W        W89543  23.411  11.905   4.638
21139W        W89544  18.187   7.367   0.112
21140W        W89545  21.486  28.195  10.657
21141W        W89546  17.046  27.880   4.157
21142W        W89547  30.470  39.192   2.454
21143W        W89548  38.593  31.090  13.130
21144W        W89549  24.146  11.273   0.310
21145W        W89550   8.377  10.749  10.943
21146W        W89551  22.996   5.927  12.045
21147W        W89552  14.358  19.528   2.168
21148W        W89553  14.171  18.088   2.131
21149W        W89554  23.216   4.395  11.221
21150W        W89555  24.516   5.164  11.048
21151W        W89556  30.238   7.415  11.224
21152W        W89557   0.291  20.043   1.182
21153W        W89558  39.574   1.530  14.320
21154W        W89559  43.827  41.333  11.556
21155W        W89560  27.188  28.512  11.460
21156W        W89561  33.345  41.000   1.354
21157W        W89562  23.794  40.447   3.156
21158W        W89563  15.640  42.483   3.253
21159W        W89564   8.469  13.469   3.197
21160W        W89565   2.713  18.658  14.882
21161W        W89566   4.249  17.182  12.838
21162W        W89567   7.734  11.258  14.721
21163W        W89568   2.658  41.582  10.768
21164W        W89569  40.403  19.909  14.823
21165W        W89570  20.337  29.982  12.336
21166W        W89571  30.444  31.224   1.720
21167W        W89572  15.927  25.880   9.765
21168W        W89573  19.241  13.532   3.698
21169W        W89574   8.860   1.991  14.029
21170W        W89575  28.854  23.133  10.382
21171W        W89576  40.399   0.275   2.518
21172W        W89577  38.581   7.297   1.359
21173W        W89578   6.806  43.303  13.553
21174W        W89579  42.582   0.910   3.664
21175W        W89580  23.084   7.846  14.420
21176W        W89581  10.379   7.744   4.681
21177W        W89582   1.421  36.049  12.453
21178W        W89583  37.796  30.920   4.871
21179W        W89584  41.808  38.715   2.614
21180W        W89585  30.997   5.441   0.501
21181W        W89586   3.174  31.092  13.260
21182W        W89587  25.573  19.713   1.251
21183W        W89588  30.494  36.380  14.801
21184W        W89589   6.923   3.431   2.353
21185W        W89590  25.916  21.756   4.121
21186W        W89591  11.220   8.419  13.410
21187W        W89592  33.910  38.183   3.428
21188W        W89593   4.326  15.588   4.747
21189W        W89594  21.592  23.922  10.417
21190W        W89595  18.837  42.962  11.414
21191W        W89596   9.478   8.133   0.688
21192W        W89597  22.680  33.360  12.108
21193W        W89598  32.045  22.978  11.980
21194W        W89599  32.529  42.994  11.027
21195W        W89600   8.230  44.500   3.921
21196W        W89601  33.397  13.394   4.656
21197W        W89602   8.460  13.872   2.416
21198W        W89603  33.212  39.172  12.450
21199W        W89604  26.248   9.132   0.704
21200W        W89605  43.303   0.136  12.429
21201W        W89606  44.713  35.915  12.986
21202W        W89607  15.786   6.883  10.261
21203W        W89608  36.802   5.927  14.769
21204W        W89609  14.970  10.457   4.245
21205W        W89610  30.713  37.213   1.466
21206W        W89611   4.921  44.854  10.934
21207W        W89612  28.203  30.821   3.369
21208W        W89613  27.429  17.618  11.191
21209W        W89614   3.699  20.094   0.403
21210W        W89615  37.090  10.186  12.423
21211W        W89616  21.557  20.024   1.982
21212W        W89617  17.795  36.383   2.241
21213W        W89618  25.337  43.938  10.702
21214W        W89619   3.402  22.029   4.846
21215W        W89620  28.057  24.965  14.302
21216W        W89621  22.570  14.594  12.090
21217W        W89622  33.478   5.144  13.887
21218W        W89623  13.169  18.775   2.902
21219W        W89624  17.322   2.789  13.361
21220W        W89625   0.840  41.268   0.768
21221W        W89626  17.190  14.711  14.244
21222W        W89627   8.815  36.946  12.094
21223W        W89628  37.443  23.251  12.671
21224W        W89629  16.650  11.627  14.244
21225W        W89630  17.120  30.126  10.733
21226W        W89631  37.605  31.597   3.675
21227W        W89632  11.311   5.705   3.258
21228W        W89633  11.731  30.457   3.675
21229W        W89634  28.162  10.811  13.135
21230W        W89635  14.093  32.320   2.057
21231W        W89636   7.356  20.061   4.221
21232W        W89637  26.060  43.070   1.326
21233W        W89638  28.513  27.647  11.175
21234W        W89639  17.973   4.394   2.419
21235W        W89640  27.224  38.941   4.477
21236W        W89641   8.191   0.932  11.947
21237W        W89642  11.375  12.880  14.515
21238W        W89643  36.270  36.753   0.005
21239W        W89644  29.691  30.347   2.771
21240W        W89645  12.343  14.680   0.951
21241W        W89646   9.352  29.848  14.113
21242W        W89647   4.266  31.355   4.082
21243W        W89648   9.113  27.218   3.286
21244W        W89649  13.615   8.633   4.086
21245W        W89650  36.518  16.281  13.081
21246W        W89651  32.168  21.975  11.208
21247W        W89652   9.156  12.254   3.806
21248W        W89653  39.690  23.648   1.935
21249W        W89654   4.279  35.793   1.629
21250W        W89655  10.093  28.008  14.712
21251W        W89656  32.323   3.275   0.897
21252W        W89657  29.340  20.575   1.695
21253W        W89658   3.382   8.250  14.379
21254W        W89659  11.242  12.439   2.795
21255W        W89660  13.948  44.410  13.937
21256W        W89661  33.877  39.485   4.443
21257W        W89662  34.441  15.598   2.411
21258W        W89663  32.159  12.647  11.305
21259W        W89664   2.342  29.277   3.048
21260W        W89665  21.544   7.818   1.684
21261W        W89666  11.580  10.707   2.377
21262W        W89667  19.050   4.154   0.023
21263W        W89668   8.395  23.938  11.718
21264W        W89669  31.867  14.322  13.925
21265W        W89670  36.556   5.200   1.862
21266W        W89671  13.723  15.290  10.654
21267W        W89672  28.943  42.924  10.431
21268W        W89673  36.529  13.271   2.725
21269W        W89674  22.662  41.558  14.750
21270W        W89675   4.836  36.900  13.283
21271W        W89676  32.911  38.047  12.913
21272W        W89677  23.249  25.532   4.030
21273W        W89678   9.739  29.464  12.402
21274W        W89679   6.177  14.068  14.431
21275W        W89680  19.883  11.909  13.588
21276W        W89681  19.663  10.237  13.476
21277W        W89682  26.043   2.016   2.914
21278W        W89683   5.721  17.066   4.148
21279W        W89684  22.789   0.369   2.657
21280W        W89685  16.869  40.534  12.282
21281W        W89686  35.964  11.421  11.242
21282W        W89687  10.350   8.398   0.330
21283W        W89688  24.602  24.483  11.575
21284W        W89689  38.952  12.330  11.615
21285W        W89690  10.642   4.787  13.473
21286W        W89691  28.598  17.785   1.534
21287W        W89692  39.811  20.203  10.752
21288W        W89693  37.605  11.331   0.763
21289W        W89694  32.984  15.220  11.040
21290W        W89695  25.273   4.333   3.282
21291W        W89696   7.288  12.651   3.634
21292W        W89697  26.983  42.764  13.421
21293W        W89698   8.225  27.172  13.681
21294W        W89699  41.775   9.188  11.385
21295W        W89700  18.596  25.942  10.436
21296W        W89701  35.955  32.179  11.123
21297W        W89702   1.402  16.051  14.413
21298W        W89703  41.953   9.272   4.516
21299W        W89704  26.169  34.859  11.209
21300W        W89705   2.424  41.459  11.953
21301W        W89706  20.729  41.955  13.983
21302W        W89707  13.852   2.926   5.131
21303W        W89708   9.367   5.234  11.141
21304W        W89709  32.820  19.195  14.647
21305W        W89710  25.874  33.825  13.066
21306W        W89711  28.168  11.459  13.779
21307W        W89712  20.304  20.119  11.872
21308W        W89713  13.340  30.332  12.027
21309W        W89714   9.615  40.798  12.799
21310W        W89715  17.528  39.204   2.565
21311W        W89716  15.307  40.461   2.403
21312W        W89717  13.636  41.225  11.638
21313W        W89718   2.107  28.870   1.367
21314W        W89719   1.682  44.304   3.333
21315W        W89720  38.317  37.340  12.846
21316W        W89721  33.514   3.175  13.493
21317W        W89722   5.519  19.090   3.796
21318W        W89723  17.392   4.013  13.777
21319W        W89724  13.570  25.874   4.102
21320W        W89725  22.442  18.771  14.322
21321W        W89726  34.166  15.637  12.174
21322W        W89727   2.751  42.275   2.605
21323W        W89728  27.454  19.814   2.292
21324W        W89729  20.369  19.445   0.612
21325W        W89730  11.669  10.140   0.404
21326W        W89731   2.403  35.968  10.843
21327W        W89732  21.092  40.081  14.975
21328W        W89733  42.355  19.508  12.476
21329W        W89734   5.427   9.134  12.582
21330W        W89735  11.772  33.565   0.931
21331W        W89736  35.906  14.760   1.927
21332W        W89737  43.864  27.583  11.835
21333W        W89738  31.528  19.544   3.246
21334W        W89739   1.688  44.263   1.033
21335W        W89740  13.710  35.992   4.432
21336W        W89741  18.029  13.407   3.150
21337W        W89742   4.929  32.624  13.927
21338W        W89743  29.273  32.132   4.528
21339W        W89744   8.550  21.501  14.471
21340W        W89745  42.830  33.619   2.899
21341W        W89746  19.057  10.116  10.712
21342W        W89747  25.091  23.763  10.684
21343W        W89748  16.387   4.665   0.681
21344W        W89749  33.656   8.426  13.697
21345W        W89750  23.745  20.128  13.860
21346W        W89751   8.030  14.239   0.761
21347W        W89752  19.343  40.999   4.938
21348W        W89753  31.179  24.479   0.416
21349W        W89754  22.296  31.179  12.971
21350W        W89755  28.997  12.689  13.262
21351W        W89756   1.896  25.947   3.586
21352W        W89757   6.714  11.857  12.842
21353W        W89758   7.500  44.751   2.803
21354W        W89759  16.142  43.282   0.212
21355W        W89760  29.812  22.156  12.808
21356W        W89761  31.378   5.443   1.252
21357W        W89762   3.165  35.388   0.904
21358W        W89763  14.524   5.900  11.747
21359W        W89764  40.129  15.973   0.838
21360W        W89765  30.082  25.042   4.045
21361W        W89766  35.117  24.587   3.814
21362W        W89767  14.375  27.687   0.759
21363W        W89768  34.622   5.905  10.710
21364W        W89769   8.323  36.388  12.986
21365W        W89770   7.823  18.920   2.397
21366W        W89771   5.312   0.969   3.167
21367W        W89772  10.190  38.166   4.896
21368W        W89773  39.559   2.661   3.194
21369W        W89774  21.582  43.999   1.639
21370W        W89775  44.829  38.062  14.833
21371W        W89776  38.053  22.691  12.090
21372W        W89777  18.429  24.938   1.707
21373W        W89778  18.810  27.188   1.369
21374W        W89779  13.631  21.801   0.386
21375W        W89780  22.595  11.762  13.522
21376W        W89781  23.562   7.908  14.882
21377W        W89782  15.533  21.606  12.465
21378W        W89783  18.286  31.951   0.505
21379W        W89784  26.594  10.930  13.330
21380W        W89785   6.979  16.913   3.815
21381W        W89786  26.267   2.989   0.505
21382W        W89787   9.226   3.908  12.503
21383W        W89788  19.671   1.320  13.085
21384W        W89789  19.978   3.988   0.537
21385W        W89790  11.177  22.234  12.906
21386W        W89791  33.304  24.686   2.857
21387W        W89792  22.915  35.856   1.648
21388W        W89793   5.383   8.375  12.855
21389W        W89794  11.518  38.477  12.867
21390W        W89795   6.418  23.813  13.604
21391W        W89796   4.012   5.239   5.116
21392W        W89797  38.890  23.227  10.630
21393W        W89798  18.198  25.971   1.744
21394W        W89799  38.457  34.627   0.801
21395W        W89800  44.525   2.221  11.933
21396W        W89801  38.945  23.079   1.682
21397W        W89802   5.220   2.102  13.063
21398W        W89803  26.274  12.248  13.509
21399W        W89804  17.152   2.934   0.697
21400W        W89805  19.655  19.217  13.144
21401W        W89806  10.785  23.582   0.816
21402W        W89807  31.567  25.545   3.375
21403W        W89808  24.475  30.912   0.456
21404W        W89809  38.862  43.978   1.312
21405W        W89810   4.501   6.478   3.066
21406W        W89811  34.400  13.799  14.520
21407W        W89812  33.642   3.652  13.262
21408W        W89813   7.688  27.010  11.455
21409W        W89814  11.206  37.497   4.559
21410W        W89815   6.272  31.371   0.476
21411W        W89816   9.709   5.803   2.357
21412W        W89817  25.096   1.878  14.975
21413W        W89818   6.135  28.530   4.094
21414W        W89819  15.755   3.238   1.880
21415W        W89820  29.070  34.103  12.175
21416W        W89821  17.075  16.087   0.509
21417W        W89822  43.559  18.764   2.293
21418W        W89823   0.743   1.677  11.229
21419W        W89824  28.025   9.384   2.090
21420W        W89825   7.775  37.948   0.655
21421W        W89826  12.811   1.645   2.189
21422W        W89827  38.263  21.260  14.135
21423W        W89828   4.467  20.803   2.482
21424W        W89829   0.735  40.516   2.900
21425W        W89830   8.415   0.422   1.154
21426W        W89831   4.961  10.774  13.534
21427W        W89832  29.435  10.129   4.340
21428W        W89833  22.778  40.060  13.080
21429W        W89834  17.387  16.523  12.854
21430W        W89835  25.094   4.359   1.086
21431W        W89836   3.596  16.109  13.010
21432W        W89837  26.767  38.843  10.274
21433W        W89838  37.417   2.516  12.712
21434W        W89839  25.406  20.375  13.058
21435W        W89840  31.620  26.998   2.872
21436W        W89841  21.202   1.204   4.865
21437W        W89842  32.202   0.544  13.204
21438W        W89843  31.156   8.716  11.089
21439W        W89844  14.653  15.381   1.158
21440W        W89845  10.430  23.973  13.016
21441W        W89846  19.815  19.227  14.983
21442W        W89847  34.478  40.571   0.685
21443W        W89848  15.180   4.929  10.775
21444W        W89849  10.526  18.241   2.108
21445W        W89850   7.459  20.642  10.678
21446W        W89851  28.968  25.333   1.853
21447W        W89852  22.403  43.990  14.890
21448W        W89853  31.997  22.257  11.650
21449W        W89854  42.374  33.161   4.489
21450W        W89855  23.189   3.888   1.698
21451W        W89856  32.182   6.736  12.109
21452W        W89857  27.614  22.751  11.560
21453W        W89858  16.610  26.057   2.647
21454W        W89859  29.589   8.077  13.865
21455W        W89860  23.431   8.926  11.523
21456W        W89861  16.355  37.831   1.897
21457W        W89862  35.999  21.088  10.067
21458W        W89863  39.513  12.675   1.891
21459W        W89864  24.137   7.221   2.620
21460W        W89865  36.527  18.224  10.891
21461W        W89866  19.683  36.573  13.890
21462W        W89867  11.423  42.313   4.993
21463W        W89868  42.024  42.811   3.773
21464W        W89869  29.658  19.154  12.866
21465W        W89870  40.198  18.052   2.433
21466W        W89871  22.561  42.389  10.750
21467W        W89872  43.766   8.330   0.347
21468W        W89873  29.474  28.534   2.374
21469W        W89874  33.177  15.334   1.414
21470W        W89875  16.117  32.916   2.221
21471W        W89876  12.291  27.897  13.624
21472W        W89877  34.047  20.696   4.153
21473W        W89878  19.146  14.683   4.601
21474W        W89879   5.984   1.858  10.473
21475W        W89880   0.315  39.624   1.398
21476W        W89881  42.569  43.280  12.596
21477W        W89882   7.520  17.222  12.135
21478W        W89883  39.791   4.959   1.646
21479W        W89884  19.172  17.986   2.845
21480W        W89885  31.851  25.362  13.508
21481W        W89886  25.222  27.003   0.770
21482W        W89887  24.176   0.932  14.410
21483W        W89888  12.323  35.935  13.031
21484W        W89889  11.323  30.225  13.545
21485W        W89890  21.209   3.436   0.919
21486W        W89891  12.184  18.388  14.346
21487W        W89892  35.497  12.967  13.363
21488W        W89893  28.619  10.273   1.387
21489W        W89894  15.800   1.739  11.961
21490W        W89895   2.805  19.250   3.287
21491W        W89896  43.855  42.694  11.957
21492W        W89897  37.700   1.481   1.749
21493W        W89898  37.655  25.216  12.498
21494W        W89899  28.662  26.129  13.345
21495W        W89900  22.468  19.086   1.964
21496W        W89901  29.114  33.371   4.582
21497W        W89902  15.119   5.937   2.208
21498W        W89903  23.040   3.635  11.103
21499W        W89904   9.319  17.765   1.724
21500W        W89905  15.908  11.154   1.402
21501W        W89906   6.616  12.016  11.555
21502W        W89907   0.816   7.527  11.247
21503W        W89908  44.235  28.880   1.429
21504W        W89909  20.202   4.368  12.610
21505W        W89910  29.426  32.692   1.255
21506W        W89911   4.271  25.228  14.465
21507W        W89912   3.216   2.352  14.544
21508W        W89913   2.214  31.874  14.999
21509W        W89914  23.176   1.750  11.055
21510W        W89915  14.987  16.019  13.628
21511W        W89916  35.382  34.980  11.125
21512W        W89917  23.317   8.586  12.119
21513W        W89918   2.788  44.697  12.921
21514W        W89919  30.919  33.615  11.938
21515W        W89920  34.687  40.460  11.388
21516W        W89921  28.306   9.033  12.798
21517W        W89922  11.702  14.386   2.331
21518W        W89923   3.443  42.908  11.061
21519W        W89924   7.746   0.425   4.550
21520W        W89925  23.791  17.539   3.189
21521W        W89926  44.021  20.073  10.423
21522W        W89927  41.931  24.900   1.289
21523W        W89928  33.445  11.311  13.448
21524W        W89929  27.604   6.247   4.847
21525W        W89930  23.680  40.157  10.746
21526W        W89931  30.515   2.256   3.101
21527W        W89932  40.122  10.659   3.612
21528W        W89933  22.736  35.987   0.779
21529W        W89934  44.753   6.339   0.854
21530W        W89935  34.164   6.327   0.332
21531W        W89936  24.907  30.482  13.063
21532W        W89937  27.513  40.807   1.718
21533W        W89938  35.363  20.245   0.395
21534W        W89939  33.974  20.498  11.592
21535W        W89940  21.959   7.166  10.607
21536W        W89941  20.113  34.752   2.632
21537W        W89942  16.161   7.453   1.917
21538W        W89943  44.492  10.697  13.121
21539W        W89944  14.954  29.041   1.596
21540W        W89945   9.133  15.387  14.202
21541W        W89946  29.687  34.581   3.375
21542W        W89947  43.498  12.442  13.613
21543W        W89948  27.636  15.716   2.444
21544W        W89949  24.684  22.443  11.649
21545W        W89950   4.231  21.131  11.957
21546W        W89951  39.857  24.752  14.871
21547W        W89952  41.583  26.368  12.445
21548W        W89953  43.880   6.859   4.563
21549W        W89954  33.900   0.492  14.041
21550W        W89955  30.441  42.742  10.661
21551W        W89956  43.306  34.101  13.568
21552W        W89957   0.376   8.225  10.967
21553W        W89958   1.222  38.826  14.492
21554W        W89959  20.612  34.086  11.673
21555W        W89960  38.443  13.112   1.341
21556W        W89961  19.333   8.334   2.371
21557W        W89962  32.101  24.087  13.169
21558W        W89963  16.090  32.536  13.326
21559W        W89964  21.067   2.253  10.594
21560W        W89965  28.044  28.825   4.496
21561W        W89966  43.548  39.355   3.847
21562W        W89967  14.681  11.886  13.498
21563W        W89968  36.155  25.189  12.417
21564W        W89969  11.533   3.277  12.190
21565W        W89970  40.511  43.943  14.229
21566W        W89971  27.895  20.001  14.786
21567W        W89972  29.990   4.605  12.989
21568W        W89973  30.646   0.471   4.608
21569W        W89974  24.114  39.999   0.480
21570W        W89975  33.561  31.659  13.780
21571W        W89976  13.406  18.635  13.269
21572W        W89977  31.105  39.619  11.485
21573W        W89978   6.248  21.090   3.269
21574W        W89979   0.048  19.181  10.687
21575W        W89980   3.714  42.559   3.705
21576W        W89981  19.331   7.484  10.757
21577W        W89982  19.469   0.930  12.348
21578W        W89983  14.889  28.655   2.916
21579W        W89984  25.091  19.067   4.676
21580W        W89985  36.408   9.695  14.867
21581W        W89986  11.861  39.264  13.850
21582W        W89987  22.622  34.366   4.784
21583W        W89988  31.151   7.579   4.211
21584W        W89989  16.159  38.733  14.759
21585W        W89990  16.579  37.836   2.386
21586W        W89991  16.808  35.001  12.427
21587W        W89992  30.974  33.558  10.596
21588W        W89993  39.711  13.044   2.677
21589W        W89994  10.662   4.297   4.304
21590W        W89995  40.435   9.141   0.747
21591W        W89996   6.140  18.178  12.438
21592W        W89997  43.296   2.267   4.557
21593W        W89998   3.215   1.443  12.314
21594W        W89999   1.206  17.054   3.177
21595W        W90000  22.528  15.650   0.882
21596W        W90001  33.162   1.795   4.467
21597W        W90002  29.035  37.944   4.186
21598W        W90003   8.809  13.743   2.801
21599W        W90004  11.492  42.380   3.586
21600W        W90005   2.913   5.385   0.095
21601W        W90006   3.931  12.030  13.229
21602W        W90007  25.623  13.689   4.680
21603W        W90008  17.817   9.784  13.380
21604W        W90009  22.118  25.163   4.417
21605W        W90010  43.915  36.932   3.372
21606W        W90011  44.351  25.333  11.276
21607W        W90012  16.595  36.153  11.179
21608W        W90013   4.189  40.382  10.880
21609W        W90014  30.657  24.063   0.911
21610W        W90015  43.249  25.092   2.217
21611W        W90016   0.892  40.778   0.648
21612W        W90017  35.821  41.730  11.183
21613W        W90018   1.277  17.244   0.176
21614W        W90019   8.182  38.795  11.206
21615W        W90020  22.919  10.160   0.524
21616W        W90021  19.493   8.009   1.963
21617W        W90022  44.704   5.517   1.983
21618W        W90023   2.877   4.810   1.795
21619W        W90024  15.099  44.886   4.883
21620W        W90025  38.364  33.315  10.771
21621W        W90026  31.798  33.696  12.656
21622W        W90027  36.484  29.707  13.661
21623W        W90028   4.754  43.420   1.281
21624W        W90029  43.019  11.328   4.978
21625W        W90030   1.004  40.773   1.163
21626W        W90031  16.138  44.972   0.045
21627W        W90032  42.407  38.818  11.653
21628W        W90033  30.687   7.622   4.411
21629W        W90034  22.049  23.709   4.779
21630W        W90035  35.464  36.485   1.295
21631W        W90036  15.230   2.697   1.338
21632W        W90037  26.047   9.225   4.581
21633W        W90038   5.796  16.695  11.770
21634W        W90039  39.415  14.303   0.239
21635W        W90040  31.940   8.290   1.960
21636W        W90041   9.718  26.269  12.790
21637W        W90042  37.160  38.911   4.533
21638W        W90043  28.579  26.772  13.923
21639W        W90044  12.178  42.973   4.331
21640W        W90045  30.772  14.453  11.641
21641W        W90046  25.983  44.848   4.364
21642W        W90047   2.473  13.620  14.473
21643W        W90048  40.582  20.150  14.387
21644W        W90049   3.877  15.662  12.988
21645W        W90050  24.027   0.068   1.856
21646W        W90051  19.607  24.124  12.098
21647W        W90052  39.093   9.147   2.352
21648W        W90053   1.618  42.813   2.269
21649W        W90054  39.494  18.583  12.065
21650W        W90055  21.119  26.962  10.811
21651W        W90056  13.334   8.909  12.219
21652W        W90057  13.550  19.081   4.501
21653W        W90058   0.609  16.216  11.960
21654W        W90059  14.253   1.181   3.760
21655W        W90060   7.302  37.614   4.330
21656W        W90061  20.357  37.057  14.786
21657W        W90062   1.182  25.504   4.871
21658W        W90063   8.067  41.280  10.926
21659W        W90064  24.386  36.493  14.458
21660W        W90065   3.251  17.040   1.738
21661W        W90066  41.753  39.890   2.207
21662W        W90067   9.871   1.481   0.478
21663W        W90068   9.384  19.672   2.665
21664W        W90069  44.562  36.102  13.997
21665W        W90070   0.971   0.416   1.406
21666W        W90071  28.401  12.850   3.831
21667W        W90072   0.852  38.473  13.418
21668W        W90073  28.226  10.849  14.435
21669W        W90074  14.265  25.102  10.609
21670W        W90075  21.601  43.076   2.734
21671W        W90076   3.389  36.069   2.620
21672W        W90077  29.042  36.938  10.913
21673W        W90078  13.853  28.604  14.072
21674W        W90079  13.833   7.860   2.090
21675W        W90080  36.307   4.265   1.961
21676W        W90081  16.655  41.783  14.263
21677W        W90082  41.468  18.259   0.447
21678W        W90083   7.618  20.534   4.297
21679W        W90084  24.751  10.256   1.905
21680W        W90085  43.354  22.623  12.069
21681W        W90086  12.271  44.747   2.823
21682W        W90087  16.545  38.892   0.463
21683W        W90088   7.358  43.636  10.958
21684W        W90089  12.350  39.425   1.760
21685W        W90090  23.505  30.473  13.610
21686W        W90091  40.443  28.548   1.126
21687W        W90092  22.710  33.553  13.388
21688W        W90093  31.146   1.226   2.713
21689W        W90094  27.684  39.205  10.565
21690W        W90095  17.023  26.111   4.015
21691W        W90096  11.529   2.415   5.062
21692W        W90097  10.154  32.007   5.122
21693W        W90098  23.046   6.046  14.992
21694W        W90099   9.649  18.505   2.225
21695W        W90100  10.080  27.383   1.215
21696W        W90101  18.272  12.134   1.780
21697W        W90102  28.115  23.030   0.213
21698W        W90103  30.826  37.869  14.811
21699W        W90104  39.506  25.538   4.676
21700W        W90105  29.864  26.008   3.107
21701W        W90106  24.649   3.711   1.318
21702W        W90107  23.992  16.541   2.703
21703W        W90108  11.241  36.879   1.746
21704W        W90109   0.334  18.216  13.177
21705W        W90110   0.682   6.415   4.275
21706W        W90111  10.703  37.420   3.681
21707W        W90112  31.276  26.079   4.045
21708W        W90113  31.369  35.353   2.658
21709W        W90114  16.801  40.972  11.983
21710W        W90115  41.601  23.576   3.307
21711W        W90116   9.656  18.798  12.781
21712W        W90117  26.958   2.725   4.607
21713W        W90118  11.673  40.213   4.108
21714W        W90119  37.369   8.684  10.656
21715W        W90120   9.482  32.057   0.200
21716W        W90121  20.718  15.535  10.161
21717W        W90122  22.141  35.453  10.655
21718W        W90123   3.550  28.494  10.666
21719W        W90124  21.111   6.622   3.600
21720W        W90125  17.738  44.030   2.329
21721W        W90126  21.171   9.894  13.499
21722W        W90127  41.454  39.588  12.038
21723W        W90128  23.167   5.274   1.669
21724W        W90129  10.681  32.415   2.759
21725W        W90130  10.832  16.792  12.390
21726W        W90131   8.793  24.668  12.049
21727W        W90132   8.914   9.553   2.895
21728W        W90133  33.829  20.782   0.688
21729W        W90134   9.327   6.252   3.282
21730W        W90135  23.525  18.687  13.028
21731W        W90136  33.647   1.367   2.726
21732W        W90137  25.639   2.194  10.926
21733W        W90138   9.140  30.479   0.783
21734W        W90139  32.372  10.914   4.261
21735W        W90140  33.199  33.664   1.894
21736W        W90141  18.871  38.948  12.894
21737W        W90142  28.237   5.388  10.145
21738W        W90143  34.387  22.120  13.218
21739W        W90144  43.459   0.199  11.132
21740W        W90145  21.240   1.022   3.130
21741W        W90146   3.571  18.560   3.194
21742W        W90147   5.746  37.983  14.713
21743W        W90148  11.274  13.584   1.299
21744W        W90149  40.471  33.183  11.897
21745W        W90150   1.394   8.847   1.491
21746W        W90151  18.034  12.613  13.638
21747W        W90152  36.486  39.467   3.532
21748W        W90153  19.653  34.379   0.045
21749W        W90154  19.321   1.154  11.909
21750W        W90155  14.723  27.472  12.987
21751W        W90156   3.670  34.795   0.006
21752W        W90157  44.997   9.119  13.338
21753W        W90158  35.027  25.026   4.627
21754W        W90159  16.831   6.903   4.072
21755W        W90160   2.378  18.218  13.057
21756W        W90161  23.049  33.342   1.747
21757W        W90162  30.671  44.695  10.628
21758W        W90163   1.762   6.163   1.760
21759W        W90164  22.867  39.949   4.649
21760W        W90165  25.042  28.912   1.707
21761W        W90166  39.442   3.753  11.096
21762W        W90167   8.308  42.670   3.368
21763W        W90168  16.702  40.163  14.734
21764W        W90169  24.365  32.884   3.312
21765W        W90170  20.069  31.153  10.727
21766W        W90171  11.410   0.937  13.794
21767W        W90172  40.094  25.883   1.188
21768W        W90173  10.701  21.793   0.474
21769W        W90174   0.314  32.801   0.295
21770W        W90175   8.899  23.097   3.676
21771W        W90176  18.231  26.439   1.973
21772W        W90177   8.767   5.441   2.885
21773W        W90178   4.987  10.397   3.542
21774W        W90179  13.807  44.711  11.569
21775W        W90180  40.521  41.048   3.389
21776W        W90181  41.896  40.835  11.168
21777W        W90182  18.804  34.003  14.254
21778W        W90183  18.298  36.948  14.499
21779W        W90184  31.270   8.249  14.358
21780W        W90185  23.014   2.642  10.938
21781W        W90186  26.007  13.330  13.530
21782W        W90187   2.811  18.913  12.461
21783W        W90188  40.558   2.953  10.927
21784W        W90189  35.053   0.323   2.351
21785W        W90190  34.501  34.111  13.069
21786W        W90191  20.283  16.540   4.253
21787W        W90192   4.235  16.775  14.383
21788W        W90193   1.413  23.630  14.780
21789W        W90194  34.851  31.332  11.578
21790W        W90195  10.395  24.964  14.414
21791W        W90196   9.292  28.099  12.818
21792W        W90197  28.682  42.551   5.050
21793W        W90198  15.650  25.103  11.550
21794W        W90199   4.214  24.428  12.154
21795W        W90200  20.750  28.213  10.959
21796W        W90201  30.864  35.933   4.242
21797W        W90202  41.454  42.579  13.056
21798W        W90203  30.675  17.603   4.198
21799W        W90204  17.728  41.950   1.298
21800W        W90205   2.427  12.740  14.262
21801W        W90206  37.064  23.203  14.127
21802W        W90207   9.161  18.670   3.621
21803W        W90208  17.017  17.660   1.956
21804W        W90209   2.856  35.403  12.334
21805W        W90210  19.579  33.500  10.387
21806W        W90211  39.806   0.508   0.817
21807W        W90212   6.370  30.132  10.221
21808W        W90213  10.618  24.624   0.930
21809W        W90214  24.948  22.192  14.845
21810W        W90215  42.888   4.485  11.170
21811W        W90216  18.805   8.720  11.168
21812W        W90217   9.678  34.527  11.146
21813W        W90218   7.477  33.388   2.843
21814W        W90219   5.031   5.625   4.110
21815W        W90220  11.930   3.837  14.303
21816W        W90221  38.281   7.568   5.370
21817W        W90222   2.308  28.345  13.784
21818W        W90223  36.336  27.912   0.981
21819W        W90224   9.939  32.887   2.227
21820W        W90225   2.325  17.145   0.786
21821W        W90226   7.736  34.541  12.000
21822W        W90227  12.275   2.824   3.832
21823W        W90228  31.219  15.597  14.054
21824W        W90229  17.256  42.047   5.127
21825W        W90230  24.546  36.861   2.263
21826W        W90231  16.508   0.765   0.424
21827W        W90232  13.915   9.170   3.772
21828W        W90233  32.937   2.689   3.737
21829W        W90234  29.346  18.723   4.984
21830W        W90235   3.405   2.295  10.691
21831W        W90236   5.882  19.102   4.846
21832W        W90237  18.809  28.227   0.724
21833W        W90238  17.967  37.228  11.874
21834W        W90239  38.618   8.219  12.529
21835W        W90240  39.376   5.234  14.827
21836W        W90241   0.794  20.413  13.833
21837W        W90242  33.180   1.130  14.931
21838W        W90243  35.847  17.166  13.338
21839W        W90244  14.629  26.793   2.376
21840W        W90245  44.345  38.982   4.570
21841W        W90246  20.048  17.897  12.428
21842W        W90247  26.434  24.079  12.017
21843W        W90248   2.020  20.775  11.603
21844W        W90249   9.321   7.466   5.142
21845W        W90250  11.209  42.433   1.501
21846W        W90251  44.835  21.489   0.399
21847W        W90252  19.810  35.481   2.175
21848W        W90253   3.206  28.445  11.182
21849W        W90254  11.830  34.828   4.607
21850W        W90255  11.850  22.217  13.352
21851W        W90256  14.373   8.917   4.503
21852W        W90257  20.038  15.288  14.475
21853W        W90258  25.116  31.684   3.754
21854W        W90259  35.709   6.920  13.604
21855W        W90260  41.461   1.808   4.594
21856W        W90261  18.677  41.965  11.996
21857W        W90262  43.246  15.254   4.235
21858W        W90263  20.744  24.075  12.849
21859W        W90264  31.198  15.000  10.722
21860W        W90265  18.048  18.006   0.794
21861W        W90266  40.029  24.292   4.643
21862W        W90267  19.276   6.219   0.699
21863W        W90268   4.212   1.508   0.031
21864W        W90269  13.850  35.961   2.066
21865W        W90270  39.646   2.550  11.957
21866W        W90271  17.137  15.280  10.980
21867W        W90272   7.400   2.349  14.808
21868W        W90273  41.515   4.522   1.410
21869W        W90274  19.150  33.179  12.388
21870W        W90275   6.090  20.149   0.368
21871W        W90276   8.712  23.398  14.527
21872W        W90277   9.224  30.314   2.743
21873W        W90278  27.124   6.000  11.581
21874W        W90279  27.479  20.726  11.612
21875W        W90280   8.894  33.915  12.346
21876W        W90281  21.754  32.050  10.500
21877W        W90282  38.748   0.302   3.015
21878W        W90283   6.186  44.757  10.742
21879W        W90284  13.066  15.874  13.454
21880W        W90285  36.307  37.501  13.928
21881W        W90286  13.829   8.949   1.311
21882W        W90287  16.056   8.583  10.994
21883W        W90288  25.488  31.112  13.544
21884W        W90289   9.744  27.895   5.053
21885W        W90290  24.328  42.661  11.220
21886W        W90291  44.101  12.825   2.932
21887W        W90292  17.150  38.614  13.966
21888W        W90293  44.319  40.019   1.279
21889W        W90294  34.194  12.057  12.538
21890W        W90295  37.838  41.252  14.471
21891W        W90296  35.932  34.357   1.137
21892W        W90297  33.577  42.020   4.049
21893W        W90298   9.885  27.053   0.385
21894W        W90299   7.089  16.355  13.836
21895W        W90300  11.631   0.919  11.849
21896W        W90301  36.455  18.863  11.543
21897W        W90302  35.466  17.690  14.483
21898W        W90303   4.646   8.611  10.703
21899W        W90304  26.126  29.162  12.380
21900W        W90305  40.296  22.574   2.421
21901W        W90306  21.546  20.566   2.671
21902W        W90307  43.440   0.204  14.099
21903W        W90308  44.578  29.339   1.411
21904W        W90309   7.719   8.161  14.836
21905W        W90310  19.794   5.294  14.340
21906W        W90311  44.588   8.996   4.580
21907W        W90312  38.424   6.535  14.755
21908W        W90313  17.530   3.423   1.342
21909W        W90314  12.711  41.668  13.828
21910W        W90315  24.007  42.304   2.417
21911W        W90316  41.969  39.816   0.884
21912W        W90317  31.436  13.047   0.433
21913W        W90318  12.222  43.886  13.422
21914W        W90319   1.220  31.932  14.604
21915W        W90320  13.078  22.669  13.554
21916W        W90321  29.042  25.715  10.752
21917W        W90322   8.640  33.103   3.208
21918W        W90323  21.170   8.802  12.473
21919W        W90324  14.947   0.252  11.044
21920W        W90325  39.637  11.795   5.079
21921W        W90326  38.306  24.147   3.286
21922W        W90327  28.918   1.465  12.560
21923W        W90328  28.674   4.978  12.960
21924W        W90329  43.727  31.035  14.525
21925W        W90330   5.344  26.752   3.490
21926W        W90331  43.480  31.478  13.507
21927W        W90332  25.935   7.891   1.897
21928W        W90333   9.667  36.185   0.347
21929W        W90334  40.317   8.838  13.494
21930W        W90335  34.227  28.998  10.523
21931W        W90336  41.382  36.529   3.698
21932W        W90337  18.043  37.957  12.432
21933W        W90338  21.047   3.978  10.501
21934W        W90339  23.388   5.015   4.077
21935W        W90340  11.880  18.303  10.700
21936W        W90341  22.179  17.002  12.611
21937W        W90342  18.087  20.504  11.018
21938W        W90343  30.139   7.313  11.718
21939W        W90344   4.811   8.424   1.367
21940W        W90345  12.385   6.230   3.712
21941W        W90346  29.831  19.921  10.237
21942W        W90347  21.529  11.465  10.612
21943W        W90348  39.882  21.546   3.775
21944W        W90349   8.409   0.777   4.376
21945W        W90350  38.380   1.231   2.041
21946W        W90351  16.916  41.446  13.867
21947W        W90352  22.968  22.579   3.659
21948W        W90353  25.710   4.110  11.515
21949W        W90354  24.381  32.637  11.115
21950W        W90355  13.079   2.607   5.319
21951W        W90356  13.594  22.610  13.505
21952W        W90357  35.344  22.673  14.402
21953W        W90358  40.374  20.732   0.694
21954W        W90359  14.617   9.851   3.584
21955W        W90360  44.772  21.495  11.003
21956W        W90361  25.767  41.506  10.599
21957W        W90362  32.967  28.027   2.069
21958W        W90363  22.771  34.415  14.888
21959W        W90364  42.997   7.301  11.921
21960W        W90365  11.368   4.781   2.407
21961W        W90366  30.598  43.565   1.174
21962W        W90367  15.325  42.734   1.870
21963W        W90368   9.415  17.333   5.349
21964W        W90369  10.621   3.143   4.439
21965W        W90370  28.473   9.403   3.282
21966W        W90371  10.090   7.406  14.539
21967W        W90372  34.406   0.402  13.256
21968W        W90373   1.542  20.655   3.279
21969W        W90374  37.412  28.043  12.508
21970W        W90375  21.065  36.031  13.560
21971W        W90376  17.157   5.743   0.990
21972W        W90377   2.777  39.705  13.420
21973W        W90378  30.616   6.044  12.295
21974W        W90379  40.018  10.205   3.266
21975W        W90380  22.733  12.389  11.591
21976W        W90381  12.651  28.605  12.949
21977W        W90382  18.644  26.495  13.438
21978W        W90383  11.720  33.338   3.660
21979W        W90384  39.828   4.134   0.401
21980W        W90385  25.563   4.400  14.829
21981W        W90386  16.850   8.128   1.362
21982W        W90387  15.170  20.065  10.642
21983W        W90388   6.951   1.385   2.704
21984W        W90389   0.715  21.745   0.723
21985W        W90390  26.487  37.806  11.185
21986W        W90391  10.827  11.826  10.890
21987W        W90392  20.726  32.875   2.844
21988W        W90393  10.704  39.427   4.969
21989W        W90394   4.497  35.997  12.172
21990W        W90395  32.973  35.229   0.355
21991W        W90396  36.252   5.571  13.750
21992W        W90397   7.808  25.968   3.774
21993W        W90398  13.758  33.285  14.767
21994W        W90399  21.947  27.012   1.027
21995W        W90400  27.674  22.831   3.625
21996W        W90401  16.637   4.316   1.615
21997W        W90402  11.857  32.500   4.305
21998W        W90403  35.310  22.135   0.438
21999W        W90404  16.592  22.681   9.619
22000W        W90405   6.237  29.555   1.014
22001W        W90406  42.037   0.350   3.160
22002W        W90407  17.468  30.669  14.901
22003W        W90408  12.142  12.132   0.082
22004W        W90409   1.526  29.502  12.079
22005W        W90410  19.402  40.278  11.072
22006W        W90411  19.049   8.079  13.041
22007W        W90412  31.329  17.653   0.884
22008W        W90413  15.244  30.982  14.278
22009W        W90414   8.272   6.930  12.435
22010W        W90415   0.957   4.693   1.283
22011W        W90416  27.381  15.746  13.514
22012W        W90417   9.142  14.945  14.935
22013W        W90418  32.329  21.966  12.489
22014W        W90419   7.276  40.419   3.570
22015W        W90420   4.917   5.154  14.866
22016W        W90421  41.699  21.724   3.182
22017W        W90422  18.297   6.054   0.237
22018W        W90423   7.467  43.979  12.585
22019W        W90424   7.034  17.130  11.962
22020W        W90425   1.078  15.549   0.411
22021W        W90426  24.040   5.914   0.449
22022W        W90427  26.286  18.607  10.734
22023W        W90428  16.767   8.187  12.359
22024W        W90429  40.888  25.734  14.888
22025W        W90430  20.735  32.017   1.728
22026W        W90431   7.200   4.997   2.690
22027W        W90432  42.883  17.746  10.749
22028W        W90433  22.554  18.354  13.961
22029W        W90434  26.773  36.306  11.117
22030W        W90435   6.161  43.780   3.846
22031W        W90436   6.706   0.831   0.861
22032W        W90437  36.473  10.667   4.196
22033W        W90438  43.790   4.583   3.651
22034W        W90439  16.624  28.688   0.510
22035W        W90440  30.916  44.012   1.140
22036W        W90441  12.278   6.932  14.914
22037W        W90442  31.420  33.053   3.395
22038W        W90443  15.883  13.522   2.692
22039W        W90444  41.986  19.376  14.701
22040W        W90445   4.749  28.049  12.064
22041W        W90446  42.817  23.555   0.712
22042W        W90447  18.313  16.303  12.044
22043W        W90448  30.966  35.762   3.250
22044W        W90449  35.804  26.259  12.519
22045W        W90450  35.187  21.248  14.414
22046W        W90451  40.415  29.046   5.117
22047W        W90452  26.912  31.043   4.588
22048W        W90453  14.200  23.549   4.931
22049W        W90454  27.776  19.999  12.400
22050W        W90455   2.167   1.888   4.184
22051W        W90456   2.301  35.235  13.888
22052W        W90457  25.061  21.606  11.541
22053W        W90458  23.489  42.828   1.344
22054W        W90459  41.903  32.702   4.826
22055W        W90460  24.991  23.607  14.077
22056W        W90461  32.032  35.771  11.214
22057W        W90462  26.031  18.597  14.808
22058W        W90463  36.135  10.447   3.824
22059W        W90464  38.809  18.891  12.196
22060W        W90465  24.564  25.019   2.882
22061W        W90466   7.167  26.276  12.059
22062W        W90467  23.188  37.301  11.025
22063W        W90468   0.526  40.895   0.965
22064W        W90469  34.008  21.821   3.326
22065W        W90470   9.691  15.197  13.378
22066W        W90471  36.081  40.987  14.885
22067W        W90472  36.858  24.811   2.982
22068W        W90473  18.791   2.894  14.504
22069W        W90474  25.360  11.736  12.138
22070W        W90475  41.112  28.184  13.301
22071W        W90476  35.324  10.315   1.806
22072W        W90477  18.327  41.881  13.526
22073W        W90478   8.244  44.074   1.134
22074W        W90479   3.652  16.453  11.188
22075W        W90480   9.664  18.302  12.864
22076W        W90481  23.500   9.785   2.735
22077W        W90482  12.237  14.250   3.530
22078W        W90483  14.707  31.551  11.993
22079W        W90484  41.005   8.406   1.405
22080W        W90485  41.375  38.480   2.380
22081W        W90486  19.775  30.399   1.887
22082W        W90487  19.309  27.235   1.180
22083W        W90488  19.971  27.795   4.115
22084W        W90489   5.252  24.134  13.384
22085W        W90490   9.996  10.953   4.085
22086W        W90491  22.550   5.231   4.323
22087W        W90492  43.215  27.561   2.195
22088W        W90493   5.721  28.578  13.535
22089W        W90494  27.779  41.205  13.545
22090W        W90495  25.218   8.790   3.652
22091W        W90496   5.336  21.650  14.221
22092W        W90497  33.464  34.058   4.829
22093W        W90498  34.019  26.960  14.990
22094W        W90499  35.127   8.621  13.730
22095W        W90500   1.878  42.904  12.752
22096W        W90501   9.371  31.682   2.714
22097W        W90502  39.096  28.506  13.072
22098W        W90503   7.614   5.872   1.452
22099W        W90504  42.074   7.761  13.421
22100W        W90505  21.474   2.790   2.656
22101W        W90506   2.964  25.201   3.714
22102W        W90507  44.610  40.633   4.218
22103W        W90508  36.158  16.502   4.628
22104W        W90509  30.577  35.032  14.775
22105W        W90510  35.665  31.015  11.601
22106W        W90511   2.677  33.756  11.681
22107W        W90512  30.368   2.315   2.588
22108W        W90513  36.265  36.618  13.972
22109W        W90514  13.628  12.893  14.006
22110W        W90515  11.220  33.454   3.649
22111W        W90516  20.969   0.718   2.828
22112W        W90517   5.363  29.066  13.939
22113W        W90518  31.532   1.942   2.920
22114W        W90519  33.916  30.161   0.933
22115W        W90520  41.501  10.808   0.677
22116W        W90521  25.876   0.340   3.272
22117W        W90522  34.409  39.695  14.078
22118W        W90523   2.462  24.819  14.435
22119W        W90524   5.253  30.653  14.365
22120W        W90525  23.924   1.183   4.234
22121W        W90526  14.504  26.316   0.243
22122W        W90527  27.379  32.295   3.317
22123W        W90528  31.471  27.706  10.520
22124W        W90529   0.402  36.795   2.089
22125W        W90530  29.445   2.919   1.353
22126W        W90531  25.600   6.900   1.898
22127W        W90532  36.141  14.772   0.919
22128W        W90533  28.549  33.852   1.317
22129W        W90534  21.542   0.142   0.279
22130W        W90535  33.549  15.267  13.107
22131W        W90536  35.396  30.390  14.127
22132W        W90537   9.176   0.980   1.674
22133W        W90538  12.741  42.555  11.395
22134W        W90539  38.312  17.598  14.982
22135W        W90540  42.456   9.565   4.622
22136W        W90541  15.385  23.198  13.373
22137W        W90542  44.959   8.747   2.702
22138W        W90543  38.600  40.365   4.616
22139W        W90544  35.788  34.019  14.731
22140W        W90545   1.953  13.608   0.782
22141W        W90546  20.731  34.554   1.887
22142W        W90547  36.274  42.201   3.698
22143W        W90548   8.580  41.477   0.415
22144W        W90549  38.573  40.842  14.888
22145W        W90550  16.050  11.884   0.273
22146W        W90551  20.452   1.823   4.975
22147W        W90552  19.160  31.694   1.799
22148W        W90553  30.162  28.426  11.108
22149W        W90554  44.874  30.082  12.514
22150W        W90555  35.497  42.755  14.570
22151W        W90556  18.949   4.918   0.987
22152W        W90557  35.272  38.685   5.019
22153W        W90558  36.553  15.775  13.457
22154W        W90559  41.992  42.324   4.059
22155W        W90560  38.753  40.437  11.161
22156W        W90561  42.972  32.204   3.114
22157W        W90562  39.270   8.979   1.419
22158W        W90563  43.891   8.999   4.011
22159W        W90564  36.128  34.605   0.728
22160W        W90565  31.468   8.775   0.341
22161W        W90566  27.794  37.146  12.161
22162W        W90567  39.791  30.673  14.306
22163W        W90568  20.183  17.769   2.807
22164W        W90569  22.468  16.566   3.881
22165W        W90570  33.527  25.493   1.793
22166W        W90571  10.961  12.814   0.897
22167W        W90572  14.247  35.421   1.770
22168W        W90573  23.130  38.959   0.890
22169W        W90574  15.768  43.427   1.387
22170W        W90575  43.599   0.829  14.916
22171W        W90576  17.153   4.430  13.984
22172W        W90577   6.100  40.597   2.323
22173W        W90578  36.621   1.209   1.766
22174W        W90579  26.513   3.608   4.592
22175W        W90580   9.768  17.039   1.368
22176W        W90581   1.472  23.867   0.867
22177W        W90582   2.272  36.146  11.318
22178W        W90583  12.280  38.414   0.568
22179W        W90584  14.284   9.029   1.582
22180W        W90585  28.189  16.526  13.849
22181W        W90586  22.157  22.498   1.442
22182W        W90587  39.374  20.629  14.515
22183W        W90588  37.779  10.864   0.911
22184W        W90589  40.577  44.411  12.117
22185W        W90590  24.788  20.490  11.191
22186W        W90591   9.325  37.947   0.215
22187W        W90592  34.025  44.497   1.871
22188W        W90593  32.310  40.683  13.079
22189W        W90594   4.411  11.268   2.944
22190W        W90595   8.116  40.307   3.943
22191W        W90596  41.759  39.032   3.576
22192W        W90597   4.860  29.272   1.318
22193W        W90598  22.277  25.173  11.197
22194W        W90599  25.131  34.551  14.094
22195W        W90600   7.420  37.521   2.916
22196W        W90601  22.999  15.314   5.019
22197W        W90602  39.826  14.683  12.977
22198W        W90603  13.595  27.807   4.160
22199W        W90604  15.871   7.246   0.227
22200W        W90605  24.190   5.254   0.721
22201W        W90606   8.209  17.008  12.842
22202W        W90607  19.079  42.800  14.300
22203W        W90608  31.285  43.777   1.410
22204W        W90609  38.894   1.505   4.657
22205W        W90610  37.858  36.054  12.691
22206W        W90611   7.634  32.654   1.730
22207W        W90612  25.990  32.528  13.129
22208W        W90613  42.992  11.866  13.427
22209W        W90614   6.873  29.423  14.474
22210W        W90615  40.490  16.540  11.987
22211W        W90616  13.415  38.973  12.930
22212W        W90617  17.510  29.991   0.481
22213W        W90618  34.197  13.899   0.359
22214W        W90619  18.362   9.804   3.415
22215W        W90620  32.659  43.368  14.866
22216W        W90621  35.247  43.416   0.900
22217W        W90622  35.644  13.788  13.864
22218W        W90623  43.516   1.935  13.043
22219W        W90624  36.490  38.217   3.248
22220W        W90625  24.219  13.132   2.285
22221W        W90626  14.764  37.495   1.329
22222W        W90627  37.830  44.276   3.601
22223W        W90628   7.721  22.332  13.895
22224W        W90629  31.493  41.949   2.431
22225W        W90630  31.492   1.990   3.629
22226W        W90631  18.854  29.207   4.688
22227W        W90632   8.926  18.287  13.346
22228W        W90633  10.859  33.511  11.196
22229W        W90634  11.913  15.579  10.622
22230W        W90635  18.668  27.158   4.731
22231W        W90636  15.885   9.563   0.289
22232W        W90637  37.143  26.650   3.625
22233W        W90638   4.457  10.066  10.155
22234W        W90639  20.583  40.908   2.323
22235W        W90640  21.627  31.613  10.726
22236W        W90641  35.624  20.292   3.708
22237W        W90642  38.649  14.844  11.169
22238W        W90643   1.009  12.045   4.102
22239W        W90644  31.556  43.523   4.634
22240W        W90645  31.533  44.777   1.786
22241W        W90646   4.252  39.559   1.682
22242W        W90647  37.849  19.279   4.038
22243W        W90648  43.371  36.898  12.847
22244W        W90649  14.280   7.451  13.826
22245W        W90650  23.347  22.620  14.427
22246W        W90651   0.441  30.710   2.310
22247W        W90652  12.302  10.754   2.899
22248W        W90653  33.415   0.925   3.646
22249W        W90654   7.537  14.115   4.549
22250W        W90655  36.054   8.352   2.926
22251W        W90656  28.238  12.619   1.616
22252W        W90657   5.282  33.789   4.028
22253W        W90658  17.205  35.792  13.471
22254W        W90659  33.937  13.942  11.154
22255W        W90660  29.087   3.480  13.445
22256W        W90661  40.004  44.823  11.557
22257W        W90662   9.711  23.520  14.471
22258W        W90663  17.327  28.455   3.371
22259W        W90664  14.782  14.932   4.306
22260W        W90665   7.550   6.138  10.912
22261W        W90666   6.674  34.548  14.070
22262W        W90667  14.287   5.490   1.680
22263W        W90668  23.331  43.768   4.562
22264W        W90669  14.896  41.066  12.471
22265W        W90670  40.773  13.428  12.102
22266W        W90671   7.485  22.745   2.580
22267W        W90672  24.560  24.907  11.866
22268W        W90673  41.826  14.418   2.446
22269W        W90674   1.521  27.788  11.622
22270W        W90675  14.036   8.318  12.886
22271W        W90676  40.337   6.671   1.410
22272W        W90677  27.079  20.148  11.897
22273W        W90678  34.672  10.416  14.205
22274W        W90679  34.491  42.863   1.035
22275W        W90680   7.713   5.444   0.217
22276W        W90681  14.023  29.982   2.805
22277W        W90682   5.679  36.599  14.772
22278W        W90683  30.433  15.612   1.324
22279W        W90684  16.226  19.684   2.264
22280W        W90685   7.087  33.577   1.900
22281W        W90686  40.710  36.230  14.001
22282W        W90687   0.320   4.263  13.364
22283W        W90688  15.673  36.570  14.420
22284W        W90689  42.074  41.163  12.152
22285W        W90690  37.034  29.783   3.753
22286W        W90691   8.476   2.266   4.617
22287W        W90692   8.405  34.865   0.463
22288W        W90693   9.252  11.205   2.339
22289W        W90694  12.048   6.021   4.173
22290W        W90695  29.156  10.789  14.552
22291W        W90696   7.781   3.279   4.513
22292W        W90697   2.539  17.193   2.306
22293W        W90698  42.993  39.818  11.367
22294W        W90699   1.206   9.126  14.207
22295W        W90700  19.728  44.921  14.238
22296W        W90701  16.855  19.291  11.137
22297W        W90702  29.872  33.147  11.531
22298W        W90703  12.230  44.631   4.938
22299W        W90704  14.920  11.484   1.273
22300W        W90705  40.072  35.430   3.255
22301W        W90706  22.631  25.531  14.013
22302W        W90707   8.437  40.378  13.876
22303W        W90708  20.206  23.943   1.073
22304W        W90709  29.473  25.583   4.084
22305W        W90710  38.936  13.305   1.366
22306W        W90711  44.034  25.529  14.014
22307W        W90712  44.944   1.666  14.364
22308W        W90713  22.112   9.340  10.641
22309W        W90714  44.198  39.597  12.912
22310W        W90715  19.724  27.677  14.017
22311W        W90716  38.153  23.673   3.438
22312W        W90717  41.732   1.386   3.780
22313W        W90718  18.365  21.059   4.053
22314W        W90719  19.136  44.335  13.454
22315W        W90720  20.248  37.326   1.325
22316W        W90721   3.289  20.104   0.823
22317W        W90722  44.189  25.761  14.478
22318W        W90723  14.009  22.569  12.121
22319W        W90724  26.677  26.328   1.893
22320W        W90725  31.532  22.668   1.620
22321W        W90726  43.047  17.746  13.128
22322W        W90727  32.271  17.573  11.675
22323W        W90728  23.130  43.586   4.111
22324W        W90729  41.994  20.164  11.305
22325W        W90730  41.819   1.751   0.311
22326W        W90731   6.833   9.363  13.029
22327W        W90732  15.249   2.161   3.613
22328W        W90733  21.977  32.473  12.548
22329W        W90734   7.440  43.079   3.369
22330W        W90735   1.429   7.925   3.066
22331W        W90736  19.189  17.413  14.982
22332W        W90737   4.281  35.356  10.572
22333W        W90738   7.720  35.035   4.247
22334W        W90739   0.906  28.496   3.283
22335W        W90740  41.542  19.620   2.835
22336W        W90741  27.054  21.264   3.191
22337W        W90742   7.540  26.656  13.026
22338W        W90743  14.401   9.813  12.192
22339W        W90744  13.744  29.975  10.956
22340W        W90745  16.273  27.764   4.622
22341W        W90746  26.963  12.328  10.579
22342W        W90747  18.005   5.748  11.562
22343W        W90748   8.300   1.532  13.543
22344W        W90749  38.277  23.150  12.065
22345W        W90750  13.583   5.183   1.354
22346W        W90751   1.441  10.012  14.580
22347W        W90752  16.704  19.280   1.479
22348W        W90753  19.275  11.635  12.465
22349W        W90754   1.514  43.482   4.499
22350W        W90755   3.220  31.993  10.574
22351W        W90756  31.649  35.671   4.095
22352W        W90757  30.932  43.446   0.460
22353W        W90758   2.187  38.565  10.618
22354W        W90759   4.372  20.143  13.422
22355W        W90760  21.648  30.569  12.460
22356W        W90761   0.522  32.257   3.335
22357W        W90762  30.183  38.820   2.863
22358W        W90763  28.544  15.518  10.714
22359W        W90764  16.191  42.253   1.405
22360W        W90765  19.998  41.835   2.186
22361W        W90766  16.942  15.307   5.371
22362W        W90767  27.132  29.045   3.071
22363W        W90768  23.538   8.716  13.403
22364W        W90769   9.246  31.672  12.948
22365W        W90770  38.452   0.949   0.443
22366W        W90771  36.021  15.566   4.398
22367W        W90772  43.360  42.037   2.107
22368W        W90773  33.922  31.926  13.528
22369W        W90774  26.618  12.323  13.939
22370W        W90775  37.634  19.398   0.280
22371W        W90776  38.951  24.728  14.059
22372W        W90777   3.432  36.428   4.692
22373W        W90778  27.442  26.926  14.740
22374W        W90779  22.182  15.953   1.506
22375W        W90780  42.740   0.980  11.964
22376W        W90781  33.496  27.228  14.388
22377W        W90782  31.489   0.743   0.357
22378W        W90783  26.219  44.960  10.805
22379W        W90784  38.224  30.992   1.783
22380W        W90785  17.234   3.901   3.686
22381W        W90786  27.190  15.043   1.318
22382W        W90787  32.293   1.509   3.142
22383W        W90788  31.470  27.692  11.524
22384W        W90789  20.860  24.762   4.541
22385W        W90790  28.582  29.835   1.792
22386W        W90791  11.669  38.061  14.616
22387W        W90792  44.973  27.816   1.359
22388W        W90793  14.684  37.462  11.620
22389W        W90794  33.437  35.915  14.413
22390W        W90795  37.393   6.814  14.361
22391W        W90796   1.606  23.565   4.775
22392W        W90797  26.475  16.162   2.306
22393W        W90798  16.274  38.445  14.324
22394W        W90799  12.944   2.391   3.839
22395W        W90800  42.959  40.792  11.647
22396W        W90801  15.566   6.643   3.415
22397W        W90802   0.553   0.913  11.423
22398W        W90803  29.067   8.173   1.936
22399W        W90804  38.857  26.179   4.456
22400W        W90805  11.427  12.138  13.449
22401W        W90806   5.870  27.192  12.526
22402W        W90807   3.742  27.830  10.228
22403W        W90808  41.468   2.342  13.171
22404W        W90809  33.180  32.007  13.905
22405W        W90810  29.684  41.119  12.981
22406W        W90811  29.524  21.070  12.866
22407W        W90812  38.976  16.297  11.065
22408W        W90813   1.740  39.459   2.094
22409W        W90814   9.351  40.337   1.904
22410W        W90815  10.805  37.142   1.857
22411W        W90816  30.939  23.572   0.310
22412W        W90817  24.097   0.728   4.108
22413W        W90818  42.578  12.804  10.675
22414W        W90819  18.336  13.035  14.367
22415W        W90820   8.831  12.895   3.877
22416W        W90821   2.482  42.969  13.445
22417W        W90822  16.125  30.375  10.643
22418W        W90823  21.521   1.218   3.502
22419W        W90824  19.503   7.413   4.147
22420W        W90825  15.201  20.564  10.465
22421W        W90826  27.891   2.165   2.865
22422W        W90827   2.455  20.802   2.860
22423W        W90828  18.664  21.649  13.091
22424W        W90829  23.325  12.648  12.503
22425W        W90830   0.081  11.176  11.562
22426W        W90831   9.349   3.517  11.160
22427W        W90832  36.690  11.631  12.966
22428W        W90833  36.313  26.862   3.228
22429W        W90834   4.438  29.892  13.423
22430W        W90835   6.396  21.055   0.705
22431W        W90836  43.664  35.486  12.325
22432W        W90837  18.967   0.299   3.274
22433W        W90838  11.930  15.848   5.077
22434W        W90839  19.632  37.538  11.983
22435W        W90840  30.930  32.191  13.723
22436W        W90841  19.666  36.975  11.725
22437W        W90842  41.056  26.202  12.074
22438W        W90843  21.566   1.179   2.226
22439W        W90844  13.928  40.969  10.486
22440W        W90845  37.693  40.870  13.095
22441W        W90846  32.908   1.074   0.371
22442W        W90847   0.903  27.104   3.476
22443W        W90848   4.175   2.933  10.820
22444W        W90849   6.150   4.729  10.732
22445W        W90850  42.789   7.726   4.017
22446W        W90851  25.941  39.027  14.534
22447W        W90852  22.753   8.418   2.285
22448W        W90853  36.467  35.546   0.881
22449W        W90854  15.166  41.322  11.570
22450W        W90855  11.117  36.757  14.435
22451W        W90856  20.017  41.373  10.724
22452W        W90857  19.762  10.666   4.629
22453W        W90858  13.738  40.400  13.399
22454W        W90859  32.108  43.922   2.402
22455W        W90860   5.951  29.335  14.501
22456W        W90861   3.701  44.361  10.743
22457W        W90862  38.383   9.834  14.663
22458W        W90863  10.716  34.648  12.635
22459W        W90864   3.193  31.556  11.551
22460W        W90865  14.864  42.664  14.506
22461W        W90866   2.904   5.863   0.298
22462W        W90867  33.621  34.074  14.229
22463W        W90868  35.001  23.493   1.898
22464W        W90869   4.873  30.099   2.210
22465W        W90870  29.059  12.329  14.481
22466W        W90871  17.839  29.398  11.111
22467W        W90872  25.726  28.987   4.561
22468W        W90873  10.299  38.795   3.789
22469W        W90874  15.354  38.901  12.917
22470W        W90875   9.772  34.393   2.435
22471W        W90876  14.607  14.236  11.695
22472W        W90877  19.099  35.360   4.721
22473W        W90878  10.073  38.994   0.912
22474W        W90879  11.610  16.331   1.965
22475W        W90880  17.292  32.234  12.024
22476W        W90881  15.172   8.223  12.080
22477W        W90882   9.815   9.643   4.492
22478W        W90883  14.986   8.395  14.709
22479W        W90884  37.879  34.301   1.889
22480W        W90885  24.728  33.239  14.990
22481W        W90886  41.842  38.797   3.123
22482W        W90887  16.560  18.788   3.908
22483W        W90888  22.509  28.190   4.095
22484W        W90889  35.537  25.248   3.837
22485W        W90890  27.572  31.699   0.819
22486W        W90891  44.044  14.113  13.801
22487W        W90892  16.324  30.993  13.944
22488W        W90893  28.448  12.282  12.530
22489W        W90894  14.189  35.177   3.791
22490W        W90895   2.226  40.995  12.092
22491W        W90896  37.533  37.147   4.674
22492W        W90897  42.907  15.262   1.476
22493W        W90898   5.699  26.435  11.243
22494W        W90899   9.770  37.338   4.626
22495W        W90900   4.507  13.733  13.319
22496W        W90901  40.565   3.035  11.443
22497W        W90902   6.271  27.908  10.271
22498W        W90903  29.081  36.560   4.815
22499W        W90904  37.221  23.736  12.003
22500W        W90905  20.559   6.710  12.883
22501W        W90906  26.909  35.997   2.726
22502W        W90907  44.877  41.745  10.822
22503W        W90908   8.212  11.190  14.519
22504W        W90909  42.504  22.420  10.607
22505W        W90910  38.527  39.569  12.456
22506W        W90911  22.189  28.586   4.142
22507W        W90912   2.061  33.723  14.913
22508W        W90913  30.727  28.568   1.882
22509W        W90914  31.319  42.941  13.216
22510W        W90915  21.288   7.214   0.726
22511W        W90916  19.575  18.750  14.958
22512W        W90917  33.896  28.597  14.325
22513W        W90918  28.089  18.490  11.423
22514W        W90919  22.824  22.751   3.174
22515W        W90920  12.887   6.276  12.902
22516W        W90921   9.104  29.889  14.997
22517W        W90922  34.613  21.663  14.914
22518W        W90923  37.589  24.324  11.187
22519W        W90924  34.378  21.836   3.669
22520W        W90925  26.175  33.344   4.309
22521W        W90926  42.299  17.333   1.645
22522W        W90927  10.356  21.988   4.574
22523W        W90928  35.862  18.032   4.591
22524W        W90929  17.728  29.638   3.325
22525W        W90930   8.709  36.408   3.804
22526W        W90931  33.069  28.004   0.510
22527W        W90932  23.552   1.175   0.420
22528W        W90933   2.443  11.801  10.962
22529W        W90934  30.537  30.643  13.146
22530W        W90935  32.409   0.894  11.068
22531W        W90936  43.939  41.255   4.107
22532W        W90937  36.348   6.857   0.491
22533W        W90938   2.992  24.736  12.604
22534W        W90939  11.728  31.789  11.902
22535W        W90940  15.517  34.154   3.929
22536W        W90941   9.893  10.177  12.900
22537W        W90942  32.929  32.382   2.761
22538W        W90943   0.853  21.668   2.271
22539W        W90944  22.248  19.550  11.173
22540W        W90945   1.358   9.156  12.953
22541W        W90946  18.869   4.891  12.443
22542W        W90947  24.043   3.990  10.643
22543W        W90948  31.855  18.145   0.375
22544W        W90949   1.310  28.176  10.448
22545W        W90950  44.498  42.328   0.224
22546W        W90951  44.933  19.795   2.256
22547W        W90952   5.057   1.120   3.584
22548W        W90953  38.540  29.671  12.311
22549W        W90954  38.855   5.040  13.511
22550W        W90955   4.249  40.765   2.301
22551W        W90956  44.005  21.480   0.224
22552W        W90957   4.793  34.154   1.801
22553W        W90958  31.624   7.808   4.832
22554W        W90959  32.492  23.576  10.685
22555W        W90960  23.966  29.943  11.551
22556W        W90961  20.997  31.012  13.982
22557W        W90962   8.309  28.071  13.675
22558W        W90963  23.601  21.757   4.302
22559W        W90964  33.544  15.912   1.747
22560W        W90965   0.862  29.566   1.466
22561W        W90966   3.414   5.377   4.450
22562W        W90967  18.543   2.018  12.283
22563W        W90968  21.391  41.497  10.320
22564W        W90969  42.056   7.434   2.754
22565W        W90970  39.067  33.204  10.192
22566W        W90971   1.776  23.004   1.214
22567W        W90972  24.536   5.722   1.707
22568W        W90973   7.680  37.861  13.989
22569W        W90974  43.153  34.129   0.426
22570W        W90975  32.677   3.374  13.652
22571W        W90976  18.107  17.809  13.083
22572W        W90977  40.327  13.342  12.940
22573W        W90978   8.639  17.260  13.810
22574W        W90979  44.347  39.471  13.843
22575W        W90980  31.210  43.801   0.746
22576W        W90981  37.557   3.712  14.091
22577W        W90982  40.225   7.594  12.901
22578W        W90983  23.411  21.027  13.360
22579W        W90984  18.093  40.296   0.215
22580W        W90985  27.682  44.653   0.162
22581W        W90986  33.835  27.589  14.286
22582W        W90987   0.494  23.774  11.259
22583W        W90988  32.364   2.227   0.853
22584W        W90989  20.591  18.033   2.444
22585W        W90990  42.531  27.168  11.499
22586W        W90991   8.772  12.578   4.275
22587W        W90992   2.260  23.005   4.564
22588W        W90993   8.855  13.553   4.545
22589W        W90994  21.206   5.253   1.894
22590W        W90995  14.354  38.895   4.154
22591W        W90996  30.979  38.164   0.257
22592W        W90997  37.670  16.317   0.890
22593W        W90998  13.339  37.290  10.637
22594W        W90999  36.723  20.042   4.185
22595W        W91000  27.672  33.213  11.334
22596W        W91001  23.837   7.097  11.763
22597W        W91002  18.393  38.504  11.589
22598W        W91003  10.684  16.826   3.850
22599W        W91004  42.880  32.560  13.932
22600W        W91005  23.137  15.322  11.969
22601W        W91006  31.089  34.077   4.690
22602W        W91007  36.914   2.972  14.487
22603W        W91008  16.273   3.905  13.744
22604W        W91009  27.019  40.952  13.430
22605W        W91010  14.354   9.210  10.428
22606W        W91011  36.096   2.457  10.709
22607W        W91012  13.308  19.513  13.525
22608W        W91013  43.580  10.265  10.291
22609W        W91014  43.930   8.834   0.417
22610W        W91015  41.019  30.470   1.901
22611W        W91016   2.348  19.536   3.204
22612W        W91017   6.766  31.131   0.487
22613W        W91018  26.007   1.973   3.802
22614W        W91019  10.232  40.494  13.884
22615W        W91020  44.272   1.406   0.767
22616W        W91021  26.433  27.654   3.096
22617W        W91022  31.508   6.282   2.607
22618W        W91023  12.153   8.527   3.843
22619W        W91024   2.544  37.930  13.514
22620W        W91025  26.690  28.547   2.593
22621W        W91026   4.388   8.377  12.103
22622W        W91027  18.830  37.522  10.571
22623W        W91028  14.094  44.966   0.787
22624W        W91029  16.627  26.493  14.433
22625W        W91030  27.826  10.363   1.755
22626W        W91031  41.031   1.349   1.308
22627W        W91032  10.676  37.057  14.865
22628W        W91033  21.606  32.684   2.973
22629W        W91034  22.485   6.490   5.009
22630W        W91035   7.328  39.308  13.019
22631W        W91036  12.430  26.555   1.246
22632W        W91037  17.412  14.628  11.294
22633W        W91038  39.571  37.531  13.504
22634W        W91039  15.743  42.105  12.897
22635W        W91040  32.207  34.556  10.755
22636W        W91041   8.802   5.908  12.670
22637W        W91042  25.321  32.880  12.052
22638W        W91043  25.626  31.373   4.920
22639W        W91044  41.533  31.826   1.055
22640W        W91045   7.509  43.646  14.448
22641W        W91046  24.836  44.093  10.644
22642W        W91047  32.173  41.606   1.926
22643W        W91048  36.514   4.392  11.536
22644W        W91049  16.155  29.259   4.842
22645W        W91050  33.433  20.584   2.442
22646W        W91051  14.988  42.058   4.234
22647W        W91052  37.650  40.607   2.810
22648W        W91053   7.848  35.232  11.601
22649W        W91054  22.929   3.299  11.538
22650W        W91055  31.079  35.069  10.583
22651W        W91056  36.180  21.991   4.464
22652W        W91057  19.753  33.935   1.380
22653W        W91058  25.261   7.754  14.698
22654W        W91059  12.326  12.068   2.704
22655W        W91060   7.258  34.896   0.363
22656W        W91061  33.998  30.019  13.558
22657W        W91062  35.514  29.712   2.852
22658W        W91063  42.372  23.557   4.563
22659W        W91064   2.661   0.538  11.920
22660W        W91065  29.447  40.511   2.653
22661W        W91066   8.410  28.663  14.943
22662W        W91067   3.972  14.148   0.016
22663W        W91068  37.843  33.163  11.980
22664W        W91069  43.728   5.218   0.886
22665W        W91070  36.392  34.835  13.190
22666W        W91071  40.537   1.181   0.894
22667W        W91072  27.661  20.731   4.583
22668W        W91073   1.754   3.109  13.777
22669W        W91074  26.643  17.466   2.851
22670W        W91075   7.436   3.187  14.773
22671W        W91076   0.443  35.589   4.751
22672W        W91077  34.613   8.749  12.021
22673W        W91078   0.728  15.007   0.267
22674W        W91079  20.938  34.392  14.903
22675W        W91080  10.663  37.947  14.856
22676W        W91081  34.997  39.608  13.024
22677W        W91082   5.417  10.880   2.836
22678W        W91083  14.808  40.653  10.687
22679W        W91084  40.452  43.722  13.778
22680W        W91085  38.813  23.894  13.971
22681W        W91086  38.088  24.089   2.816
22682W        W91087   1.533  22.578  10.711
22683W        W91088  36.781   8.659   0.421
22684W        W91089  23.526  24.036  13.313
22685W        W91090  18.706   6.673  11.068
22686W        W91091  31.916  22.271  12.547
22687W        W91092  21.331   0.423  14.856
22688W        W91093  37.952  24.672  10.869
22689W        W91094  19.253  34.539  10.962
22690W        W91095  44.339  19.969   3.207
22691W        W91096  43.169  32.103  10.787
22692W        W91097   3.852  17.388   4.566
22693W        W91098  18.755  27.444   0.450
22694W        W91099  40.185  21.522  12.074
22695W        W91100   5.328  31.396   1.647
22696W        W91101  15.676   8.687   4.303
22697W        W91102  27.284  26.801   5.115
22698W        W91103  19.322   9.959  11.118
22699W        W91104  26.358   0.016   1.644
22700W        W91105  44.170  10.102   0.643
22701W        W91106   4.788   0.514   4.627
22702W        W91107  18.277  26.211  11.656
22703W        W91108  31.578   0.295   1.879
22704W        W91109  27.585   1.953   0.332
22705W        W91110  32.394  24.797  10.648
22706W        W91111  27.615  31.112   2.185
22707W        W91112   2.063  12.328   0.005
22708W        W91113   4.749  41.292  11.559
22709W        W91114  15.526  35.481  12.603
22710W        W91115  39.862  15.702  10.609
22711W        W91116  35.036  13.167  11.578
22712W        W91117   0.868  32.046   3.658
22713W        W91118   6.596  31.416   0.880
22714W        W91119  34.403  30.033   1.814
22715W        W91120  32.451  20.009   2.728
22716W        W91121  24.094  24.659   0.038
22717W        W91122  39.348  25.624   1.722
22718W        W91123  21.548   6.288  10.679
22719W        W91124   0.409  11.597  14.566
22720W        W91125  38.588   0.366   1.525
22721W        W91126  40.462  33.407   1.613
22722W        W91127  20.049  30.995   1.223
22723W        W91128  25.066  25.414   0.443
22724W        W91129  30.128  21.169  12.567
22725W        W91130  33.516  37.390  13.334
22726W        W91131   6.282  34.987   3.664
22727W        W91132  38.898   9.310  12.491
22728W        W91133  20.978  30.859  14.848
22729W        W91134  17.542  10.208  14.813
22730W        W91135  12.946  25.492   0.339
22731W        W91136  18.276  34.032   4.115
22732W        W91137  42.741  14.452  12.053
22733W        W91138   0.839  16.082   2.672
22734W        W91139  40.505  12.177   4.421
22735W        W91140  33.061  14.133   5.029
22736W        W91141  17.582  17.090  10.340
22737W        W91142  25.122  24.526  13.916
22738W        W91143   8.329   7.348   0.912
22739W        W91144  19.731  34.226   4.175
22740W        W91145  28.939  11.901   3.285
22741W        W91146  35.162  29.209   1.877
22742W        W91147  38.909   2.413   9.775
22743W        W91148  33.084  18.540   0.014
22744W        W91149   4.734  24.021  12.378
22745W        W91150  27.214  14.172   1.193
22746W        W91151  38.427  27.043  12.081
22747W        W91152  35.817  26.114   2.719
22748W        W91153  23.929  42.317   3.278
22749W        W91154  13.905  11.550  11.492
22750W        W91155   8.320  39.690  12.446
22751W        W91156   1.388  28.194   3.619
22752W        W91157   7.457  22.560  12.456
22753W        W91158  10.224  41.005   2.703
22754W        W91159  20.029   9.520   3.518
22755W        W91160  16.366  23.967   2.040
22756W        W91161  15.088  37.261   9.920
22757W        W91162  41.496  39.617   0.881
22758W        W91163  29.269  42.008  10.596
22759W        W91164  12.104   2.749  13.354
22760W        W91165  32.144  30.491   2.225
22761W        W91166   2.758  22.681   4.067
22762W        W91167   6.965  34.043   0.731
22763W        W91168   5.397  44.826  10.765
22764W        W91169  20.191  12.807  10.555
22765W        W91170  36.071  33.629  13.040
22766W        W91171   9.473  35.930   4.167
22767W        W91172  41.270   1.197   1.776
22768W        W91173   8.417  12.261  12.682
22769W        W91174  44.898  12.265  14.779
22770W        W91175  43.121   1.856  14.286
22771W        W91176  15.098  14.832   0.282
22772W        W91177   8.654   3.032  10.776
22773W        W91178  33.032  31.426   2.656
22774W        W91179  22.495  11.256  13.485
22775W        W91180  43.807  26.274  12.797
22776W        W91181  28.587  19.836   3.722
22777W        W91182   5.666  27.949   1.817
22778W        W91183  43.593  34.204  12.458
22779W        W91184   6.432  31.080  11.146
22780W        W91185  15.687  41.543   1.493
22781W        W91186  40.832   0.004   2.615
22782W        W91187  23.587  39.838  14.312
22783W        W91188  20.330   7.336   1.284
22784W        W91189  12.013  16.801  12.244
22785W        W91190  25.630  21.346   3.207
22786W        W91191  14.287  19.797   0.388
22787W        W91192  38.379  39.436  10.961
22788W        W91193  24.898   9.845  11.560
22789W        W91194   1.933   8.855   3.778
22790W        W91195   3.449   8.346   2.397
22791W        W91196  14.500   3.474   3.339
22792W        W91197  22.100  20.791   3.851
22793W        W91198  13.061   6.309   2.956
22794W        W91199   4.342  18.165  14.548
22795W        W91200   5.524  37.056  11.455
22796W        W91201  41.114  38.408   0.426
22797W        W91202  26.625   6.097   3.265
22798W        W91203  20.598   4.981  12.035
22799W        W91204  29.063  31.936  13.880
22800W        W91205  20.409   4.932   4.269
22801W        W91206  11.113  44.833   2.185
22802W        W91207  41.363  22.677   2.261
22803W        W91208  21.219  31.369   1.991
22804W        W91209  38.088  43.116   1.759
22805W        W91210  40.842   6.690   2.662
22806W        W91211  36.873  35.229   0.710
22807W        W91212  27.133  18.990   3.631
22808W        W91213  27.176  20.509   3.714
22809W        W91214  44.355   7.948   2.982
22810W        W91215   4.720  31.141  12.480
22811W        W91216  23.686   9.685   1.021
22812W        W91217   2.556  15.075   0.577
22813W        W91218  10.278   7.410   1.886
22814W        W91219  15.570  28.700   1.404
22815W        W91220  26.616  29.470   0.775
22816W        W91221  27.205  36.892   1.409
22817W        W91222  41.759  23.647  13.954
22818W        W91223  32.009  14.134  11.151
22819W        W91224  30.590  36.015  11.070
22820W        W91225  13.628  30.447  10.741
22821W        W91226  39.166   1.445   0.691
22822W        W91227  13.546  31.795   5.038
22823W        W91228  20.152  32.469   2.331
22824W        W91229  24.603   5.649  11.160
22825W        W91230  13.529  25.696   2.755
22826W        W91231   8.779  15.775  14.318
22827W        W91232  22.226  36.922  13.978
22828W        W91233  23.645  38.221   4.643
22829W        W91234   0.254  39.004  12.446
22830W        W91235  18.566  25.587  11.488
22831W        W91236   1.832  40.800  10.704
22832W        W91237  10.972  32.432   1.400
22833W        W91238  24.936  44.266   5.152
22834W        W91239  11.683  26.724  10.168
22835W        W91240  17.637   1.339   0.940
22836W        W91241  40.678  40.402   4.984
22837W        W91242  32.251   6.351   3.566
22838W        W91243  40.336  27.194  11.656
22839W        W91244   1.600   5.124   4.970
22840W        W91245  22.448  18.454  13.097
22841W        W91246  31.636  27.444   3.147
22842W        W91247   2.527  10.256  12.431
22843W        W91248   0.369  41.232   0.528
22844W        W91249  23.573  28.458  12.986
22845W        W91250   7.663  28.465   1.712
22846W        W91251   9.843  29.893  14.297
22847W        W91252  30.104  16.250  14.772
22848W        W91253  29.612  32.381  11.365
22849W        W91254   3.902   1.911   2.956
22850W        W91255   0.739  31.711  14.033
22851W        W91256  44.979  10.149  13.854
22852W        W91257  12.194  44.903   0.783
22853W        W91258  14.817  29.929  12.143
22854W        W91259  30.981   7.455   0.499
22855W        W91260  30.078   8.298   1.568
22856W        W91261  26.177  24.535   3.755
22857W        W91262  38.605  23.995  12.035
22858W        W91263  37.041   6.147  12.649
22859W        W91264   2.077   4.058   2.293
22860W        W91265   2.311   2.681   2.337
22861W        W91266  20.745   9.632  11.447
22862W        W91267  20.296  14.361   0.455
22863W        W91268   9.558  15.031   0.377
22864W        W91269  19.304  33.966  14.416
22865W        W91270  27.969  22.593   1.914
22866W        W91271  33.719   1.884  14.809
22867W        W91272  16.262  22.768  13.945
22868W        W91273  16.789  18.876   1.166
22869W        W91274   6.787   3.184  12.011
22870W        W91275  36.139  40.616   0.267
22871W        W91276  27.480   2.821  11.121
22872W        W91277  21.772  38.561   1.199
22873W        W91278   4.786   9.003  11.039
22874W        W91279   0.786  15.238   4.049
22875W        W91280  41.247  17.712  13.493
22876W        W91281  36.170   4.746   2.108
22877W        W91282  40.877  14.272   2.802
22878W        W91283  11.780  29.183  11.619
22879W        W91284  29.688  13.918   1.792
22880W        W91285  10.238  11.805   4.099
22881W        W91286  13.346   8.386  12.358
22882W        W91287  36.086  42.473   1.792
22883W        W91288   2.940   8.848  14.103
22884W        W91289  42.405  34.512  10.475
22885W        W91290  16.544  35.144   0.327
22886W        W91291  44.554  32.503  13.495
22887W        W91292   1.739  31.361  11.969
22888W        W91293   5.244   9.415  12.204
22889W        W91294  36.738  33.926  11.986
22890W        W91295  24.036   1.933   3.593
22891W        W91296  22.078  22.029   1.279
22892W        W91297  18.201  11.115  10.749
22893W        W91298  24.403  40.840   1.708
22894W        W91299  20.010  23.601   0.730
22895W        W91300  18.587  25.679  12.460
22896W        W91301  27.078  17.198   2.727
22897W        W91302  14.940  42.819  11.051
22898W        W91303  37.129   1.971  10.427
22899W        W91304  44.371  26.336  11.122
22900W        W91305  15.364  17.695   4.239
22901W        W91306  11.132  14.078   1.390
22902W        W91307  30.913  42.864   2.750
22903W        W91308  14.669  21.146   0.562
22904W        W91309   5.714  31.054   3.191
22905W        W91310   9.118   5.278   1.463
22906W        W91311   0.249   0.769   4.542
22907W        W91312   1.863  28.571  14.844
22908W        W91313   2.449  30.218   3.406
22909W        W91314  36.409  22.997   1.493
22910W        W91315  28.273   0.194  11.433
22911W        W91316   3.397  23.595   3.136
22912W        W91317  37.009  10.071   4.308
22913W        W91318  23.090  20.777  10.301
22914W        W91319   5.959  42.669   3.008
22915W        W91320  36.639   6.870   0.066
22916W        W91321  15.223   2.239   0.519
22917W        W91322   9.451  14.679  12.202
22918W        W91323   2.172  14.792   2.683
22919W        W91324  14.855  24.601  12.782
22920W        W91325  43.289   8.780   5.133
22921W        W91326  24.022   3.222   0.321
22922W        W91327  17.948  15.439  11.025
22923W        W91328  38.930   2.699   1.081
22924W        W91329   6.508  41.300  10.377
22925W        W91330  39.020  12.944   2.223
22926W        W91331  39.066  21.957   4.409
22927W        W91332  24.232  13.730   0.810
22928W        W91333  26.179  15.197  13.282
22929W        W91334  14.728  33.753   0.440
22930W        W91335  32.944   4.599   4.093
22931W        W91336  16.819  39.305  11.778
22932W        W91337   5.190  38.705  11.056
22933W        W91338  13.220  22.216   4.027
22934W        W91339  21.796  40.779  11.533
22935W        W91340  43.361   6.512   2.226
22936W        W91341  32.074  12.265   0.201
22937W        W91342  35.474   8.116   1.764
22938W        W91343   8.502  38.096  14.311
22939W        W91344  23.727   8.304   2.226
22940W        W91345  37.132   4.624  12.351
22941W        W91346  37.115  15.159   3.151
22942W        W91347  38.358   6.994  12.574
22943W        W91348  30.900  29.631   2.374
22944W        W91349   0.928  23.663  10.676
22945W        W91350   3.200  20.637  10.409
22946W        W91351  36.435  19.622   3.883
22947W        W91352  30.944  24.376   2.627
22948W        W91353  29.226  16.172  12.570
22949W        W91354  40.373  24.976   0.381
22950W        W91355   4.726   8.025  11.359
22951W        W91356  22.597  34.087  14.517
22952W        W91357  35.280  23.220  13.062
22953W        W91358  18.149  37.021   3.606
22954W        W91359  19.185  29.743  11.480
22955W        W91360  42.366   9.586  11.173
22956W        W91361  24.128  21.655  11.558
22957W        W91362  35.955  40.034   4.522
22958W        W91363   9.251   3.686  13.846
22959W        W91364  11.265  12.363  14.519
22960W        W91365  32.723  22.470   1.726
22961W        W91366  38.898  24.288  13.634
22962W        W91367   6.630  19.326   4.173
22963W        W91368  23.035  29.968   0.374
22964W        W91369  16.016   5.395   4.871
22965W        W91370  29.963   1.386  12.510
22966W        W91371  18.911   3.933  13.857
22967W        W91372   6.494  11.046   0.129
22968W        W91373   0.418   1.397  11.490
22969W        W91374  35.137  19.018  11.678
22970W        W91375  37.909  23.991   4.225
22971W        W91376  36.331  38.010   1.830
22972W        W91377  32.629  15.163   0.245
22973W        W91378  27.975  16.855  12.176
22974W        W91379  42.392  24.637  14.424
22975W        W91380  32.934  23.684   0.243
22976W        W91381  10.427   7.386   2.876
22977W        W91382  18.844  31.998  13.863
22978W        W91383  14.140  15.445   2.761
22979W        W91384   5.286   2.463   3.381
22980W        W91385  24.130   1.453   0.825
22981W        W91386  31.663  28.623  14.445
22982W        W91387  17.113  15.312   4.178
22983W        W91388  18.990  11.633   2.158
22984W        W91389  11.671  20.300  11.498
22985W        W91390  25.183  23.261  10.777
22986W        W91391  35.573  40.933   1.383
22987W        W91392   4.475  37.473  11.535
22988W        W91393  36.983  19.546  12.483
22989W        W91394  11.216  16.814  14.963
22990W        W91395  38.998  38.877  14.452
22991W        W91396   4.507  42.065  13.815
22992W        W91397   7.867  27.382   1.770
22993W        W91398   4.415   9.774   2.127
22994W        W91399  29.123  25.052   1.074
22995W        W91400   1.731  32.940   0.966
22996W        W91401   2.357  38.945  12.398
22997W        W91402  42.493  40.285  14.382
22998W        W91403  23.657   0.548  11.689
22999W        W91404  25.568  19.361   4.612
23000W        W91405   3.260  19.132   4.639
23001W        W91406   5.338  22.306   4.134
23002W        W91407  26.159  36.934   1.149
23003W        W91408  26.127  40.473  13.471
23004W        W91409  39.495   8.809   5.016
23005W        W91410  44.423  14.692  10.429
23006W        W91411   7.096  18.784   1.821
23007W        W91412   3.949  42.076   3.658
23008W        W91413  43.029  37.580   4.558
23009W        W91414  11.748  29.220  12.141
23010W        W91415  41.584  16.461  11.187
23011W        W91416  11.910  26.680  10.683
23012W        W91417  43.857  24.652  13.625
23013W        W91418   4.686  10.676   1.887
23014W        W91419   3.902   1.525   2.597
23015W        W91420  25.000  38.916  11.200
23016W        W91421   3.816  19.255  13.522
23017W        W91422  42.923  23.609   3.849
23018W        W91423   4.679   0.340   2.310
23019W        W91424  21.567  13.808  10.790
23020W        W91425   3.917  30.054   1.791
23021W        W91426  22.049  38.765  14.786
23022W        W91427  28.941  19.606   3.120
23023W        W91428  28.469   0.130   1.338
23024W        W91429  10.281  42.971  12.892
23025W        W91430  14.580  36.015  13.978
23026W        W91431  14.727  43.271   0.715
23027W        W91432   5.202  42.844   3.719
23028W        W91433  32.940  33.055  13.438
23029W        W91434   2.841  29.597  14.977
23030W        W91435  27.706  39.712   1.879
23031W        W91436  17.071  38.232  12.463
23032W        W91437  17.063  34.055   1.315
23033W        W91438  12.565  15.582  11.851
23034W        W91439  34.536  41.468  14.339
23035W        W91440  42.735  16.611   2.682
23036W        W91441  43.540   1.430  10.750
23037W        W91442  19.220  20.065   0.128
23038W        W91443   8.592  39.988   0.907
23039W        W91444   7.332  42.542  12.655
23040W        W91445  31.425  29.130   3.909
23041W        W91446  11.355   6.032  11.659
23042W        W91447  18.750  34.907  14.242
23043W        W91448  15.377  15.602  10.997
23044W        W91449  18.719   1.438   3.704
23045W        W91450  14.356   0.796  11.648
23046W        W91451  23.219  12.292   4.297
23047W        W91452  31.430   2.509  14.332
23048W        W91453   5.227   8.768   0.807
23049W        W91454   8.558   0.308   4.185
23050W        W91455  29.263  30.574  12.330
23051W        W91456   1.352  25.014   1.888
23052W        W91457  21.274   2.952  12.077
23053W        W91458  32.318  22.180  10.731
23054W        W91459  36.788  16.432   1.644
23055W        W91460  16.224  21.474  14.281
23056W        W91461  19.653  23.342   4.073
23057W        W91462   4.255  21.929  12.451
23058W        W91463  36.408   4.792   4.580
23059W        W91464  39.827  11.726   3.327
23060W        W91465   8.265  15.177   4.467
23061W        W91466  25.013  39.884   1.627
23062W        W91467   5.787  26.508  14.493
23063W        W91468   0.967  24.005  14.286
23064W        W91469  10.110  44.911  11.758
23065W        W91470   4.559  27.884  12.961
23066W        W91471  31.158  20.552  14.612
23067W        W91472  35.792  36.776   4.194
23068W        W91473   8.221  12.050  14.183
23069W        W91474   8.266  33.682  12.071
23070W        W91475  30.933  10.164  11.603
23071W        W91476   9.814  43.255   4.633
23072W        W91477   9.717  17.533  12.720
23073W        W91478  42.808  18.061  14.381
23074W        W91479  44.316  27.058  14.862
23075W        W91480   4.446   4.161  11.484
23076W        W91481  36.135  40.524  11.510
23077W        W91482   3.918  30.021  13.355
23078W        W91483  40.552   5.294  11.553
23079W        W91484  40.240  38.826   4.796
23080W        W91485  32.966  18.806   0.981
23081W        W91486  34.592   4.654   1.340
23082W        W91487  28.933  40.508   2.804
23083W        W91488   8.261  43.868   0.158
23084W        W91489  27.392  10.730   1.308
23085W        W91490  35.456   4.855   1.864
23086W        W91491  19.230   2.495   3.191
23087W        W91492  12.780   3.212   3.213
23088W        W91493  44.296  16.134  11.515
23089W        W91494  29.036  27.432   2.400
23090W        W91495  37.605  12.426   1.613
23091W        W91496  43.751  43.306   4.220
23092W        W91497  37.107   4.474   1.743
23093W        W91498  42.985   5.490  11.020
23094W        W91499  36.084  15.216   2.118
23095W        W91500  14.706  20.209   1.067
23096W        W91501  11.034  23.046   2.367
23097W        W91502  22.051  42.454   3.885
23098W        W91503  19.906   0.852   4.439
23099W        W91504  24.004   5.841   2.987
23100W        W91505  30.120  12.778  10.740
23101W        W91506  32.877  31.692  11.532
23102W        W91507  41.256  23.538  13.932
23103W        W91508   6.260  29.652  11.084
23104W        W91509  27.714  24.522  13.040
23105W        W91510  22.428  39.483   9.993
23106W        W91511   9.853  29.161   3.359
23107W        W91512  18.050  19.510  13.564
23108W        W91513  44.439  23.573   3.114
23109W        W91514  15.154   1.746   3.970
23110W        W91515   3.263  32.382   0.287
23111W        W91516  13.367  44.216  12.703
23112W        W91517  24.670  18.256   4.540
23113W        W91518  36.384   8.878  13.562
23114W        W91519   0.349  39.420  11.733
23115W        W91520  39.865  34.508  14.053
23116W        W91521  37.151  25.029  13.724
23117W        W91522  39.497   1.234  13.916
23118W        W91523  28.162  41.047   2.824
23119W        W91524  38.346  41.763   1.706
23120W        W91525   7.191  21.246  12.047
23121W        W91526  33.607  37.550   4.654
23122W        W91527  13.344  29.558   0.717
23123W        W91528  16.957  29.415  13.455
23124W        W91529   7.679  12.191   2.790
23125W        W91530  29.051  28.667   4.731
23126W        W91531  27.299   0.821   1.849
23127W        W91532  15.868  44.514   3.214
23128W        W91533  28.322   8.714  11.445
23129W        W91534  38.528  17.551  11.037
23130W        W91535  13.257  34.621   2.765
23131W        W91536  43.980  12.873   0.877
23132W        W91537  11.317   3.900  11.032
23133W        W91538  19.897   9.252  13.290
23134W        W91539  17.201  27.070   1.761
23135W        W91540  23.761  18.130   2.483
23136W        W91541  33.568  10.051  11.094
23137W        W91542   1.636   3.445   2.267
23138W        W91543  16.241  41.034   0.317
23139W        W91544   2.852  17.694   1.855
23140W        W91545   8.690  12.535   1.258
23141W        W91546   0.680  38.622  11.554
23142W        W91547  41.102   5.264  10.658
23143W        W91548  37.592  13.751  14.548
23144W        W91549  44.144  28.527  12.444
23145W        W91550  11.802  18.454  11.906
23146W        W91551  32.447   8.234   4.588
23147W        W91552  16.638  26.547   2.764
23148W        W91553  12.261  30.658   2.302
23149W        W91554  17.623   4.417   2.042
23150W        W91555  25.698  24.267  10.115
23151W        W91556  40.505   9.726   3.557
23152W        W91557  27.194  24.159  11.621
23153W        W91558   6.854  24.245  12.620
23154W        W91559  25.035  32.359  12.404
23155W        W91560   1.340  16.884   1.811
23156W        W91561  41.278  22.462   1.805
23157W        W91562  14.037   6.136   0.310
23158W        W91563  40.548  24.048  11.953
23159W        W91564  30.757  25.503   2.692
23160W        W91565  11.751  19.885  14.252
23161W        W91566  14.321  41.851  12.857
23162W        W91567   1.403  24.894  10.993
23163W        W91568   9.077  16.997  14.448
23164W        W91569  27.653  29.981   0.493
23165W        W91570  32.159  32.449  13.399
23166W        W91571  10.685  40.402  13.108
23167W        W91572   2.935   7.736  14.112
23168W        W91573  22.996  13.192   3.109
23169W        W91574  44.314  21.575   2.227
23170W        W91575   2.559   9.793  10.197
23171W        W91576  19.340   4.379   2.429
23172W        W91577   4.900   1.474   1.848
23173W        W91578  23.256  24.577   2.671
23174W        W91579  11.624  36.649   0.758
23175W        W91580  37.968  15.248   3.829
23176W        W91581   4.991  24.632   1.019
23177W        W91582  24.548   3.685  11.284
23178W        W91583  39.543   8.371  14.499
23179W        W91584  11.828  41.264  14.223
23180W        W91585  43.258  32.311  13.674
23181W        W91586   7.131  34.036  11.610
23182W        W91587  21.665  42.113   3.781
23183W        W91588  25.339  11.729   0.733
23184W        W91589   4.006  37.299  12.456
23185W        W91590   0.344  13.582  14.211
23186W        W91591  12.239  12.553   0.411
23187W        W91592  37.318   0.501  11.298
23188W        W91593   4.472  44.833   1.495
23189W        W91594  25.951  29.673  12.395
23190W        W91595  31.098  23.044   4.241
23191W        W91596  44.099  23.222  13.943
23192W        W91597  40.213  16.695  14.792
23193W        W91598   8.182  42.554  13.075
23194W        W91599  15.192  26.559  12.843
23195W        W91600  17.270  26.686  14.843
23196W        W91601  25.144  25.432   1.422
23197W        W91602   1.689   1.449   2.148
23198W        W91603   2.750   0.332   3.331
23199W        W91604  34.006  36.979  10.773
23200W        W91605  27.138  29.102   0.611
23201W        W91606  33.910  25.498  12.469
23202W        W91607  27.748  39.848  10.942
23203W        W91608  29.804  33.492  11.161
23204W        W91609  10.553  26.664  13.964
23205W        W91610  13.095  19.741  11.164
23206W        W91611  17.746   1.033  12.320
23207W        W91612  28.972  24.975   2.771
23208W        W91613  12.423  15.747   4.949
23209W        W91614  22.074  14.868   1.469
23210W        W91615  37.714  32.309  13.390
23211W        W91616  25.617   1.160   4.587
23212W        W91617  13.825   3.247   1.641
23213W        W91618  29.734  25.577  14.461
23214W        W91619   9.570  24.174   4.112
23215W        W91620   6.817  22.726   1.443
23216W        W91621  22.535   5.712   3.105
23217W        W91622  12.914   9.855   0.917
23218W        W91623  10.927   7.230   0.665
23219W        W91624   4.260  14.386   2.991
23220W        W91625  26.948   7.022  14.894
23221W        W91626  30.944  33.030   4.753
23222W        W91627  14.161  28.562   3.354
23223W        W91628   6.291  41.183   0.988
23224W        W91629  16.179  36.673   4.167
23225W        W91630  42.385  23.090  12.895
23226W        W91631  36.391   1.320   2.215
23227W        W91632   4.969   5.467   2.216
23228W        W91633  18.258  17.667   1.372
23229W        W91634  24.650  35.926   1.028
23230W        W91635  18.744  19.607   3.667
23231W        W91636  17.624  41.317   4.285
23232W        W91637  30.533  27.197  11.496
23233W        W91638  25.754  13.719   0.701
23234W        W91639  36.948  34.619  13.042
23235W        W91640  31.918  25.712  10.692
23236W        W91641  18.293  32.258  10.161
23237W        W91642  33.814   1.858   0.863
23238W        W91643  31.841  26.669   4.483
23239W        W91644  20.781  24.059  14.861
23240W        W91645  29.044  37.450  10.648
23241W        W91646  12.640  28.553   2.898
23242W        W91647  27.039   4.985  11.387
23243W        W91648   3.926  35.674   0.371
23244W        W91649  42.794  43.664  11.421
23245W        W91650  29.464  11.886  11.870
23246W        W91651  34.685  16.779  13.286
23247W        W91652  35.529  18.588   1.510
23248W        W91653  31.022  43.022   2.260
23249W        W91654  35.610  32.522   0.044
23250W        W91655  27.612  13.067  10.877
23251W        W91656   8.907  25.574   0.337
23252W        W91657  25.769  25.131  11.242
23253W        W91658  12.213  15.368  14.817
23254W        W91659   9.518  12.873  10.736
23255W        W91660  40.917   3.708  12.501
23256W        W91661   4.503  40.438   0.077
23257W        W91662   1.485  14.133  10.548
23258W        W91663  28.403  42.941  14.015
23259W        W91664  14.846  10.146   0.883
23260W        W91665   5.738   3.229  13.483
23261W        W91666  23.570   2.366   4.289
23262W        W91667  16.962  31.055  12.501
23263W        W91668  28.744  25.049  14.912
23264W        W91669  41.378  12.443  10.477
23265W        W91670  17.817  11.738  13.132
23266W        W91671  41.722  29.756   1.844
23267W        W91672  10.473  33.561  10.721
23268W        W91673   3.888  39.009   0.193
23269W        W91674  34.908  29.852  10.703
23270W        W91675   9.159  44.553  12.449
23271W        W91676  23.997  33.499   1.764
23272W        W91677  30.351   4.319  14.763
23273W        W91678   0.375  33.537  10.291
23274W        W91679   1.526   8.929   4.186
23275W        W91680  17.007  31.015  13.429
23276W        W91681  41.863  27.405   3.828
23277W        W91682  34.028  37.345   2.862
23278W        W91683  38.342   3.404  13.073
23279W        W91684  27.915   2.240   3.731
23280W        W91685  39.457  33.015  14.481
23281W        W91686  21.712  41.459  11.985
23282W        W91687  15.523   2.935   3.258
23283W        W91688  40.409  25.182  13.584
23284W        W91689  36.919  34.849   1.119
23285W        W91690   9.954  24.704   1.739
23286W        W91691  40.716  20.680   1.113
23287W        W91692   5.806  26.639   0.510
23288W        W91693  16.577  34.364   5.339
23289W        W91694  13.750  21.295   0.440
23290W        W91695  26.074  10.147  13.501
23291W        W91696   4.195  20.778   4.609
23292W        W91697   0.436  10.297  12.885
23293W        W91698  21.288  26.084  12.405
23294W        W91699   8.298  27.591   0.817
23295W        W91700   5.940  25.732   4.164
23296W        W91701   0.274   6.851   0.298
23297W        W91702  23.533   7.925   1.210
23298W        W91703  31.380  19.181  11.944
23299W        W91704   1.718  18.262  11.885
23300W        W91705  19.406   3.842  13.774
23301W        W91706  34.223  36.687  11.886
23302W        W91707   0.214  31.981  12.441
23303W        W91708  42.716  10.845   1.603
23304W        W91709  28.107  30.054  14.700
23305W        W91710   8.689  25.261  13.372
23306W        W91711  15.308  32.494   4.142
23307W        W91712  37.953  26.363  14.439
23308W        W91713   9.841   2.213   4.573
23309W        W91714  30.954  36.512  13.068
23310W        W91715  28.572  19.152  10.263
23311W        W91716  34.473  14.824  10.880
23312W        W91717   8.891  24.845  14.965
23313W        W91718   5.346   0.315  10.568
23314W        W91719  42.343  44.774  13.495
23315W        W91720  37.763  15.800  12.807
23316W        W91721   9.621   3.952   1.260
23317W        W91722   0.729  14.693  13.997
23318W        W91723  27.713  35.709   1.958
23319W        W91724  10.730  40.015   5.092
23320W        W91725  31.902  16.616   2.185
23321W        W91726  26.086  41.775  11.896
23322W        W91727  37.227   9.173  10.677
23323W        W91728  38.298   7.372  11.700
23324W        W91729  44.712  33.400   4.206
23325W        W91730  41.063  12.238   3.628
23326W        W91731  42.029   4.553  10.791
23327W        W91732  32.629  33.201   2.861
23328W        W91733   7.472  23.205   1.757
23329W        W91734  39.144  29.820  10.625
23330W        W91735  10.785  12.941  11.786
23331W        W91736  35.830  20.582   4.606
23332W        W91737   1.848  27.019   2.453
23333W        W91738  42.189  19.741  13.463
23334W        W91739  15.593  29.544  10.424
23335W        W91740  36.023  44.296   4.108
23336W        W91741  39.453  35.569  12.457
23337W        W91742  41.977  39.629  12.105
23338W        W91743   6.957  18.508   2.232
23339W        W91744  27.131  41.254  11.669
23340W        W91745   0.851  43.420  12.669
23341W        W91746   6.885  20.863  14.616
23342W        W91747  39.337  35.281   2.820
23343W        W91748   2.273  43.031   2.895
23344W        W91749  40.876  21.942   3.609
23345W        W91750   3.003  14.614   1.441
23346W        W91751  21.130  36.630   0.973
23347W        W91752  30.102  16.175  13.064
23348W        W91753  43.910   4.158  11.058
23349W        W91754   9.216  18.784   2.213
23350W        W91755  19.677  28.691   0.982
23351W        W91756  19.046  34.870   4.448
23352W        W91757  19.756  23.525   1.973
23353W        W91758  12.141   2.646  12.086
23354W        W91759   1.182  25.055   1.381
23355W        W91760  41.839   2.128  12.524
23356W        W91761  22.447  37.013  11.973
23357W        W91762  19.296  18.494  12.015
23358W        W91763  43.213   3.872  14.397
23359W        W91764  12.088  29.535  10.508
23360W        W91765  35.047  12.440  13.151
23361W        W91766   7.344  16.443   1.864
23362W        W91767  33.783   4.012   1.862
23363W        W91768  19.978  19.656  11.085
23364W        W91769   7.229   4.381  14.375
23365W        W91770  22.885  28.109   5.024
23366W        W91771  33.926  17.702  11.062
23367W        W91772   4.237  19.605   3.286
23368W        W91773  26.962   4.405   2.278
23369W        W91774  40.867  35.596   0.402
23370W        W91775   6.762  15.625  12.023
23371W        W91776  39.321  20.966  12.926
23372W        W91777  20.673  37.093   1.576
23373W        W91778   5.192   4.273   4.159
23374W        W91779   4.198  37.474   4.842
23375W        W91780  42.381  21.036  11.486
23376W        W91781  27.210  35.378  14.531
23377W        W91782  26.319  37.965  13.931
23378W        W91783  13.077  38.984   2.218
23379W        W91784   8.834   1.413   4.764
23380W        W91785  15.013  33.588   2.750
23381W        W91786  23.714  23.521   3.929
23382W        W91787  18.625   7.614   4.099
23383W        W91788  27.544  24.534  11.555
23384W        W91789   2.088  35.905   1.410
23385W        W91790   1.176  44.334  12.858
23386W        W91791  42.113  35.476   1.652
23387W        W91792  22.533  33.986  13.617
23388W        W91793  13.776  36.626  14.367
23389W        W91794  39.743  34.041   0.400
23390W        W91795   1.042  30.372   3.675
23391W        W91796   3.989  28.223   3.761
23392W        W91797  42.476  33.663  11.441
23393W        W91798  41.792  36.114   0.253
23394W        W91799  12.509  11.462   9.927
23395W        W91800  43.742  32.496  11.188
23396W        W91801  21.056  24.120  11.968
23397W        W91802  27.952   6.899   2.131
23398W        W91803  41.791  16.266   3.555
23399W        W91804   9.969  19.568  10.462
23400W        W91805  10.615  43.536  14.519
23401W        W91806   3.456   2.245  14.095
23402W        W91807  40.049   1.584  14.124
23403W        W91808  32.569  26.041   0.020
23404W        W91809  44.280  18.367  11.538
23405W        W91810  10.380  15.353   2.742
23406W        W91811  24.203  37.325   1.538
23407W        W91812  28.541   5.422   2.089
23408W        W91813  40.932  39.962  14.370
23409W        W91814   5.134  24.675   4.144
23410W        W91815  18.630  30.062   1.446
23411W        W91816  33.046   9.094   3.583
23412W        W91817  20.113  14.380  13.036
23413W        W91818  18.691  23.279   0.361
23414W        W91819   7.301  18.520  12.417
23415W        W91820  20.549   2.652  14.983
23416W        W91821  21.772   7.159  14.898
23417W        W91822   5.970  27.681   0.875
23418W        W91823  34.080   1.998   3.446
23419W        W91824  22.649  23.804   0.466
23420W        W91825   6.815  32.857  13.401
23421W        W91826   3.788   2.829   1.747
23422W        W91827  13.706  33.861   2.758
23423W        W91828  43.198  28.226   1.833
23424W        W91829  21.233  27.177   1.610
23425W        W91830  13.607  22.292  13.007
23426W        W91831  23.151  29.655  13.540
23427W        W91832  29.088  15.007   4.607
23428W        W91833  20.274  17.630   2.319
23429W        W91834  16.565  27.469  11.596
23430W        W91835  36.592   3.820   1.900
23431W        W91836  30.032  16.965   2.202
23432W        W91837   4.905  38.338  14.873
23433W        W91838  36.391   9.133   3.504
23434W        W91839  22.842  24.706   0.392
23435W        W91840  11.889  40.732  14.288
23436W        W91841  10.362  27.549  10.546
23437W        W91842   4.438  39.493   0.175
23438W        W91843   2.937  23.168   4.001
23439W        W91844  23.605  36.630  10.592
23440W        W91845  20.677  32.639   2.376
23441W        W91846   0.795  29.348  14.473
23442W        W91847  37.999  33.425   5.009
23443W        W91848  33.844  12.618  12.418
23444W        W91849  26.977  36.108   3.597
23445W        W91850  34.026  20.002  14.954
23446W        W91851   1.860  32.791   1.454
23447W        W91852  29.546  19.763   1.948
23448W        W91853   7.792  28.578   3.838
23449W        W91854  23.581   7.286   2.183
23450W        W91855  13.077   2.743  11.101
23451W        W91856  11.265  20.705  14.961
23452W        W91857  15.155  40.787  12.818
23453W        W91858   2.439  36.361   4.228
23454W        W91859  35.488  44.212  14.773
23455W        W91860  26.991  37.894  11.323
23456W        W91861  43.246  44.614  12.410
23457W        W91862  41.973  44.351  12.563
23458W        W91863  29.455  12.009  14.515
23459W        W91864  26.537  17.873  14.411
23460W        W91865   7.929  30.366   1.427
23461W        W91866  10.204  40.413   1.994
23462W        W91867  26.123  43.848  14.492
23463W        W91868  36.481   5.018  13.012
23464W        W91869  41.418   4.289  12.366
23465W        W91870  17.048  24.114  10.466
23466W        W91871   3.064   0.997   2.793
23467W        W91872  14.623   4.470   2.478
23468W        W91873  36.403  20.257   3.252
23469W        W91874  14.053  43.248   1.392
23470W        W91875  38.117  34.191   2.335
23471W        W91876  37.826  10.595  11.980
23472W        W91877   7.842  20.958  11.491
23473W        W91878  11.709   6.817  14.305
23474W        W91879  13.469  43.240   0.674
23475W        W91880  19.007  16.008  11.588
23476W        W91881   7.881  10.772  12.865
23477W        W91882  40.333   8.808  12.425
23478W        W91883  35.608  36.682   4.689
23479W        W91884  36.679  23.914  10.592
23480W        W91885  16.259   2.478  14.877
23481W        W91886  27.188  15.313  11.318
23482W        W91887  13.277  35.683   4.482
23483W        W91888  13.831  34.013  10.655
23484W        W91889   0.759  29.929   3.758
23485W        W91890  21.817  17.260   3.368
23486W        W91891  38.901  18.955  11.162
23487W        W91892   9.565  17.399   2.203
23488W        W91893  14.368  39.111  14.215
23489W        W91894   6.758  21.387  12.901
23490W        W91895  30.009  21.219   2.667
23491W        W91896   6.282  44.562   0.877
23492W        W91897  31.646  28.544  12.091
23493W        W91898  22.674   6.273  13.771
23494W        W91899   9.242  19.283   2.360
23495W        W91900  30.345  18.853   0.760
23496W        W91901  39.472  43.460   3.353
23497W        W91902  29.516  28.995  13.034
23498W        W91903  19.790  14.329   1.411
23499W        W91904   8.225  19.212  11.078
23500W        W91905   0.785  23.856   4.177
23501W        W91906   3.389  19.783  12.622
23502W        W91907   0.024  38.524   4.266
23503W        W91908  40.281  43.917   1.173
23504W        W91909  10.086  34.052  13.087
23505W        W91910  19.287   0.015  11.739
23506W        W91911  20.712   3.519   0.376
23507W        W91912   7.472   5.220  14.744
23508W        W91913  11.043  29.793   1.339
23509W        W91914  28.651  31.887   0.264
23510W        W91915  39.457  22.914   0.836
23511W        W91916   6.212   6.724   0.488
23512W        W91917  20.681  27.465  14.883
23513W        W91918   8.764  33.424  14.211
23514W        W91919   4.907   7.250  10.278
23515W        W91920  13.049  12.947  13.308
23516W        W91921  29.984  26.526   3.181
23517W        W91922  13.113  32.818   0.002
23518W        W91923  13.184  34.986  12.242
23519W        W91924   3.864  24.783   5.078
23520W        W91925  30.894  29.123  11.972
23521W        W91926  44.509   3.246   2.732
23522W        W91927  27.455  31.595   2.120
23523W        W91928  20.453  43.702  12.616
23524W        W91929  26.220  18.092  11.006
23525W        W91930  30.104  11.954   1.728
23526W        W91931  42.566   4.340  14.681
23527W        W91932  11.793  34.622   1.903
23528W        W91933   8.682   5.824   2.533
23529W        W91934  13.271  34.415   4.591
23530W        W91935  24.961  15.561   0.767
23531W        W91936  27.890  18.281   1.716
23532W        W91937   1.512  26.700   2.203
23533W        W91938  37.427   3.973  12.705
23534W        W91939  42.798  44.999   1.309
23535W        W91940  35.949  22.214  13.879
23536W        W91941  31.081   8.678   2.827
23537W        W91942  29.560  25.401   1.158
23538W        W91943   1.332  13.979   3.225
23539W        W91944  43.318  11.088  14.782
23540W        W91945   2.921  24.171   3.895
23541W        W91946  18.474  44.427   0.844
23542W        W91947  19.662  43.688   1.407
23543W        W91948  36.690  21.154   0.900
23544W        W91949  19.747   2.360  11.530
23545W        W91950   8.665  39.554   0.308
23546W        W91951   7.230  18.086   5.211
23547W        W91952  27.105  37.992  10.500
23548W        W91953  12.799  36.886  10.769
23549W        W91954  27.177   6.297  10.692
23550W        W91955  18.986  15.113  13.524
23551W        W91956  33.393  24.850   2.193
23552W        W91957  16.586  31.567   0.373
23553W        W91958  14.409  20.246   5.068
23554W        W91959  31.116  23.472  13.001
23555W        W91960  31.801   0.947   0.755
23556W        W91961  15.366  31.054  11.936
23557W        W91962   6.971   1.809  13.444
23558W        W91963  17.140  38.204  11.945
23559W        W91964   8.343  40.778   1.287
23560W        W91965  37.307  43.438   4.615
23561W        W91966  32.384  40.819   2.182
23562W        W91967  44.005  35.040   1.867
23563W        W91968   7.501   5.304  10.642
23564W        W91969   7.501  10.540   3.379
23565W        W91970  24.676   1.963   0.278
23566W        W91971  10.131  23.047  10.694
23567W        W91972  22.975  41.297   0.960
23568W        W91973   6.374  16.068  14.537
23569W        W91974  30.742  14.642  13.292
23570W        W91975  29.028  15.539   4.669
23571W        W91976  17.831  40.587   2.800
23572W        W91977   6.375  11.611  12.061
23573W        W91978   4.917  31.800   3.658
23574W        W91979   4.368  13.343  13.001
23575W        W91980  20.220  39.537   3.277
23576W        W91981  16.889  25.576   2.648
23577W        W91982  37.032  22.293  11.195
23578W        W91983  35.114  22.179   3.392
23579W        W91984  38.043   9.147   1.730
23580W        W91985  38.069  29.047   3.283
23581W        W91986  16.289  44.968   5.481
23582W        W91987   1.562   3.155   0.992
23583W        W91988   8.306   8.711  12.202
23584W        W91989  28.730  43.216   1.328
23585W        W91990  16.688  15.649  12.499
23586W        W91991  41.840  32.459  11.658
23587W        W91992  19.464  13.826  11.985
23588W        W91993  25.720  10.807   2.433
23589W        W91994  33.419  26.765  12.503
23590W        W91995   7.010   8.469   0.403
23591W        W91996  34.482  12.059  13.624
23592W        W91997   6.732   6.717  13.246
23593W        W91998  29.992   0.152  12.379
23594W        W91999   3.733   1.788   2.175
23595W        W92000  29.703  20.502   0.787
23596W        W92001  37.026  17.775  11.047
23597W        W92002   7.771  41.692   2.356
23598W        W92003  16.117  35.909   1.837
23599W        W92004   3.736  19.490  11.384
23600W        W92005  27.452   3.279  11.343
23601W        W92006  36.895  30.714   4.084
23602W        W92007   4.767   1.746   9.914
23603W        W92008  36.528   2.435  11.459
23604W        W92009  23.150  14.632   0.416
23605W        W92010  25.009  24.124   1.802
23606W        W92011   6.418   7.325   0.688
23607W        W92012  33.876  18.794   4.183
23608W        W92013  35.045  11.854   3.171
23609W        W92014  25.906  10.378   2.686
23610W        W92015  41.870  23.655  11.583
23611W        W92016  13.844  10.985   1.783
23612W        W92017  24.540   2.938   3.814
23613W        W92018  16.351  42.422   0.321
23614W        W92019   3.859  17.403   2.323
23615W        W92020  23.280  43.690   3.200
23616W        W92021  18.632  40.734  12.188
23617W        W92022  25.345  28.117  10.812
23618W        W92023  26.080  27.940  11.091
23619W        W92024   0.795  16.869  13.092
23620W        W92025  37.912  18.254   0.257
23621W        W92026  37.377  31.412  11.481
23622W        W92027  38.939  26.630   4.659
23623W        W92028  28.661   7.316   4.215
23624W        W92029  28.511  29.626   4.859
23625W        W92030   6.129  29.169  11.030
23626W        W92031   0.905  41.498   4.677
23627W        W92032  39.142  39.156   3.100
23628W        W92033  26.673  14.872   3.610
23629W        W92034  33.994  22.185   2.948
23630W        W92035  36.598   7.375   3.638
23631W        W92036  40.137  42.503   4.242
23632W        W92037  30.435  12.316   1.378
23633W        W92038   5.933  20.070  10.495
23634W        W92039  38.391  18.668  11.729
23635W        W92040  12.642  17.706  13.312
23636W        W92041  41.319  11.357   1.854
23637W        W92042  34.984  22.004   3.845
23638W        W92043  39.237   9.010  10.653
23639W        W92044   1.346  16.219  11.507
23640W        W92045  22.366  18.305   4.143
23641W        W92046  29.155   4.926   4.119
23642W        W92047  14.563  35.054  13.919
23643W        W92048  21.504   7.748  10.429
23644W        W92049  43.445  22.409   0.333
23645W        W92050  44.338  30.279   4.830
23646W        W92051  10.764  30.304   0.251
23647W        W92052  27.011   1.894   3.840
23648W        W92053  28.092  10.359   0.360
23649W        W92054  36.504  14.374   5.074
23650W        W92055   8.824  21.062   2.304
23651W        W92056  31.257   8.720   0.970
23652W        W92057   0.255  10.054   4.287
23653W        W92058  32.124   7.879   0.234
23654W        W92059  18.664  42.986  14.618
23655W        W92060  28.962   9.327  14.471
23656W        W92061  11.286  25.442  12.505
23657W        W92062   8.234  29.547  12.611
23658W        W92063  16.951  19.784   3.053
23659W        W92064  42.936   7.818   5.170
23660W        W92065  14.203  40.704  11.279
23661W        W92066   7.275  17.704  11.410
23662W        W92067  27.562  19.976  11.931
23663W        W92068  20.494  44.321   2.356
23664W        W92069  17.948  30.043   4.722
23665W        W92070  36.116  14.208   1.379
23666W        W92071  41.806   0.312   1.791
23667W        W92072  22.902  27.944   2.214
23668W        W92073   8.021  35.965  14.692
23669W        W92074   2.437  16.644   0.689
23670W        W92075  17.853  42.769   4.306
23671W        W92076  15.900  19.547  14.469
23672W        W92077   6.932  25.459   2.341
23673W        W92078  18.124  33.566  12.915
23674W        W92079   8.559  21.458   1.635
23675W        W92080  38.919  11.064   3.444
23676W        W92081  10.324   5.392   4.591
23677W        W92082  20.478   3.433   1.986
23678W        W92083  24.544  18.673   0.671
23679W        W92084  16.030  42.544  12.886
23680W        W92085  21.861   0.252  11.646
23681W        W92086  29.140  15.244  14.114
23682W        W92087   6.205  34.402  13.987
23683W        W92088  35.102  19.710   5.035
23684W        W92089  16.151   4.940  11.623
23685W        W92090  32.848  10.091   4.417
23686W        W92091   7.287  24.451  13.603
23687W        W92092  42.913  26.566  11.573
23688W        W92093  39.576   8.829  12.892
23689W        W92094  29.232   0.662   1.699
23690W        W92095  30.160   0.500   1.631
23691W        W92096  31.271  14.340   1.379
23692W        W92097  25.051  32.075  11.027
23693W        W92098  18.376   1.789   3.564
23694W        W92099  26.587  20.997   3.300
23695W        W92100   7.901  37.450   3.101
23696W        W92101   5.748   8.385  12.405
23697W        W92102   4.219  21.816   4.647
23698W        W92103  32.405  42.080   1.928
23699W        W92104  14.833   1.927  10.684
23700W        W92105  25.635  26.391  13.027
23701W        W92106   0.243   6.304   1.780
23702W        W92107  36.627  19.044  10.661
23703W        W92108  39.918  23.624   4.308
23704W        W92109  35.459  14.071  11.565
23705W        W92110  38.415  24.131   4.263
23706W        W92111  19.229  21.586   4.088
23707W        W92112   6.325  22.303  10.711
23708W        W92113  35.200  43.473   2.818
23709W        W92114  11.674  15.517  14.906
23710W        W92115  38.400  26.638  14.440
23711W        W92116  43.237  33.356  10.213
23712W        W92117  32.989  21.639   1.869
23713W        W92118  29.736  29.748   1.774
23714W        W92119  21.241   1.034   4.145
23715W        W92120   9.479  31.388  11.156
23716W        W92121  23.287  19.262  11.121
23717W        W92122   8.912   5.656   4.776
23718W        W92123  28.440  15.854  14.388
23719W        W92124   2.841  44.912  14.250
23720W        W92125   6.935  25.322   1.415
23721W        W92126  22.536  17.784   1.677
23722W        W92127  15.328  12.784  13.777
23723W        W92128  14.691   1.738  14.424
23724W        W92129  31.819   0.328   0.242
23725W        W92130  27.991   2.442  12.676
23726W        W92131   5.903  13.466  11.264
23727W        W92132  41.972  14.866   0.785
23728W        W92133  13.404  29.168   2.868
23729W        W92134  39.060  36.900  10.594
23730W        W92135  37.585  30.232  13.258
23731W        W92136  19.058  25.524  14.730
23732W        W92137  15.316  40.235   0.466
23733W        W92138  40.034  24.235   2.659
23734W        W92139  18.019  12.123   3.702
23735W        W92140  26.157  43.838   3.191
23736W        W92141  25.191  20.430   2.856
23737W        W92142  37.740  14.017  14.980
23738W        W92143  40.707   0.561  11.408
23739W        W92144   8.411   3.243  11.236
23740W        W92145  42.976  11.339  13.479
23741W        W92146  29.526   7.403  10.502
23742W        W92147  29.314  43.751  12.397
23743W        W92148   3.797  39.084  12.565
23744W        W92149  26.727  30.495   4.544
23745W        W92150  13.251   2.350  12.784
23746W        W92151  15.284  30.723   3.379
23747W        W92152  24.210  29.347  13.842
23748W        W92153  26.040  24.284  10.559
23749W        W92154  30.825  39.402   3.291
23750W        W92155  22.815  37.519   2.147
23751W        W92156  22.103  19.609  13.754
23752W        W92157   2.750  30.258  14.145
23753W        W92158  36.961  33.635  11.161
23754W        W92159   8.860   7.621  10.792
23755W        W92160  36.881  29.873   0.806
23756W        W92161  40.209  28.436  11.088
23757W        W92162  29.131  40.077   0.927
23758W        W92163  16.761  11.730  11.572
23759W        W92164  30.413  11.188  12.713
23760W        W92165  36.796  14.406  11.193
23761W        W92166  11.250   0.734  10.074
23762W        W92167  30.454   6.230  12.734
23763W        W92168  24.141  28.821  13.766
23764W        W92169  27.056  40.525  14.359
23765W        W92170  37.618  34.635  13.510
23766W        W92171  39.646  15.191  14.742
23767W        W92172  14.624  37.620   3.174
23768W        W92173  35.966  26.066   0.727
23769W        W92174  37.674  23.100   3.748
23770W        W92175  28.816  11.138   2.876
23771W        W92176  18.543  44.702  11.102
23772W        W92177  41.367  11.388  13.485
23773W        W92178  33.738  31.957  12.543
23774W        W92179  35.305  21.586  11.630
23775W        W92180   2.231  26.385  14.970
23776W        W92181  16.054  14.305  12.598
23777W        W92182   5.954  11.413  13.968
23778W        W92183   6.628  13.280  10.783
23779W        W92184  43.476  25.102  11.133
23780W        W92185  21.293   6.431   2.157
23781W        W92186   8.662  25.864  10.793
23782W        W92187  41.603   7.465  13.455
23783W        W92188  42.560  27.208   1.349
23784W        W92189  22.837   3.889   3.596
23785W        W92190  28.991  15.785  14.947
23786W        W92191  28.454  10.422  11.062
23787W        W92192  22.470   8.767   1.500
23788W        W92193   3.838  30.400   3.214
23789W        W92194   4.365  38.861  13.944
23790W        W92195   4.248  33.749  12.443
23791W        W92196  36.269  19.530  12.068
23792W        W92197  37.182  11.632  13.156
23793W        W92198  35.860  21.530   0.229
23794W        W92199   1.377  44.450   0.275
23795W        W92200   7.019  28.076  10.506
23796W        W92201  41.910  26.869  11.314
23797W        W92202  27.824  33.784   3.105
23798W        W92203  15.569  14.104  13.954
23799W        W92204  17.333  23.019   2.747
23800W        W92205  37.400  19.010  14.978
23801W        W92206   5.253  11.788  12.954
23802W        W92207  20.131   7.295   2.287
23803W        W92208  20.124   6.764   0.458
23804W        W92209   0.912  13.144   2.622
23805W        W92210  39.858  44.839   4.949
23806W        W92211  16.731  28.935  13.542
23807W        W92212  19.522  21.696   3.675
23808W        W92213   8.673   5.549   3.901
23809W        W92214  13.326  41.086   1.775
23810W        W92215  22.667  12.543   1.342
23811W        W92216  27.877  44.455  10.347
23812W        W92217   2.754   9.810  12.397
23813W        W92218   8.926   2.445  11.523
23814W        W92219  24.195  21.516   1.754
23815W        W92220  10.224  10.975   2.808
23816W        W92221   9.575  14.380  12.645
23817W        W92222  44.896  14.551   2.514
23818W        W92223  37.604  20.542   2.712
23819W        W92224  41.192  36.015   2.199
23820W        W92225  26.692  18.778  14.054
23821W        W92226  15.633  15.579   5.006
23822W        W92227  44.845  40.381   1.677
23823W        W92228  33.357  20.726   0.516
23824W        W92229  15.657   2.517   0.290
23825W        W92230   3.985  30.007   0.792
23826W        W92231   5.461  13.205   0.284
23827W        W92232  14.263  37.037  13.610
23828W        W92233  12.712  10.794  10.656
23829W        W92234  36.115  27.957  11.218
23830W        W92235  17.754  24.481   5.234
23831W        W92236  37.099  16.384   4.362
23832W        W92237   8.348  13.575   4.629
23833W        W92238  30.506  20.689  11.239
23834W        W92239   6.912  22.061  14.248
23835W        W92240  37.699  10.148  11.618
23836W        W92241   8.907  10.990  12.786
23837W        W92242  32.054  31.973   3.064
23838W        W92243  32.038  16.163   3.414
23839W        W92244   6.695  43.415  10.485
23840W        W92245  13.853  22.079  11.449
23841W        W92246  11.181  12.892   3.076
23842W        W92247   1.555   4.323  14.426
23843W        W92248  31.387  18.346   0.337
23844W        W92249  25.144  27.680  12.448
23845W        W92250   8.192  14.980  11.864
23846W        W92251  19.097   9.595  10.816
23847W        W92252  44.805  22.482   0.464
23848W        W92253  22.008  35.364   0.919
23849W        W92254  42.506  17.619   0.606
23850W        W92255   0.213  27.289  14.781
23851W        W92256  17.444  16.209  11.185
23852W        W92257  26.859  27.384  14.015
23853W        W92258  14.924   2.012   3.215
23854W        W92259  36.790  43.332   0.875
23855W        W92260   6.834  37.877   0.811
23856W        W92261  10.662  18.104   3.844
23857W        W92262  15.397  42.845  14.320
23858W        W92263  34.956  14.850   1.324
23859W        W92264  33.001  21.701  12.485
23860W        W92265  44.397   5.428  14.953
23861W        W92266   0.758  20.763  14.226
23862W        W92267  37.836  30.024   1.719
23863W        W92268  25.603  13.626   1.179
23864W        W92269  30.160   3.898  10.693
23865W        W92270  19.585  11.622  13.892
23866W        W92271  20.376  34.772   3.131
23867W        W92272  12.015  23.303  12.994
23868W        W92273  29.746  11.846  14.925
23869W        W92274   5.675  18.230  14.525
23870W        W92275   4.238  22.049   1.335
23871W        W92276  36.877  14.800  12.029
23872W        W92277  42.089  14.232   9.863
23873W        W92278  39.276  21.579   2.732
23874W        W92279  22.231   4.912   1.950
23875W        W92280  42.248  20.606   4.413
23876W        W92281  24.158  35.714  12.403
23877W        W92282  37.953  37.008  13.120
23878W        W92283  32.518   4.025   2.025
23879W        W92284  44.596  41.626   0.761
23880W        W92285   6.414   6.460   0.924
23881W        W92286  19.828   4.785  14.761
23882W        W92287  32.288  29.496  13.268
23883W        W92288  21.330  36.138   4.196
23884W        W92289  31.650  37.060  12.446
23885W        W92290  32.763  28.849  10.229
23886W        W92291  13.036  19.654   1.851
23887W        W92292  13.890   0.803  11.896
23888W        W92293  33.957  16.778   4.697
23889W        W92294  18.575   3.587  13.145
23890W        W92295   0.988  17.788   0.924
23891W        W92296  38.483  26.754  11.124
23892W        W92297   1.792  12.848  14.299
23893W        W92298  37.110  42.916   2.673
23894W        W92299  23.418   3.403  11.465
23895W        W92300   6.730   8.335  11.175
23896W        W92301  14.356  20.248  12.052
23897W        W92302  24.032  38.021  14.748
23898W        W92303  11.723  28.003  11.001
23899W        W92304  11.356   0.293   2.207
23900W        W92305  18.867  10.258  14.499
23901W        W92306  11.407  36.321  11.959
23902W        W92307  16.103   7.817  12.657
23903W        W92308  39.467   9.226  11.078
23904W        W92309  43.769  43.351  14.280
23905W        W92310  43.251   1.222   3.604
23906W        W92311   0.238   4.346   4.597
23907W        W92312   8.764  18.224   5.206
23908W        W92313  29.097  29.717  13.840
23909W        W92314  37.844   9.987  12.080
23910W        W92315  29.061  33.054  12.025
23911W        W92316  11.224  34.805   3.357
23912W        W92317  41.231  28.130  14.223
23913W        W92318  32.841   7.306   4.628
23914W        W92319  21.681  26.919   3.246
23915W        W92320  42.456  30.309   3.079
23916W        W92321   2.876  23.554   4.643
23917W        W92322  23.646   9.345   2.293
23918W        W92323  27.040   1.517  12.451
23919W        W92324  17.136   9.757   4.086
23920W        W92325  28.873  20.198   1.426
23921W        W92326  20.365   6.161  12.083
23922W        W92327  15.820  29.186   1.466
23923W        W92328  28.137   3.356   1.959
23924W        W92329  41.898  10.367  12.104
23925W        W92330  43.334   4.973   3.191
23926W        W92331  11.672   6.928   2.251
23927W        W92332  25.133  44.403  13.559
23928W        W92333  22.069  16.939   1.839
23929W        W92334   6.309  12.555  13.465
23930W        W92335  43.480  23.752  11.141
23931W        W92336  10.197  17.985   1.812
23932W        W92337   7.663  21.531  11.192
23933W        W92338  14.623  22.726   4.691
23934W        W92339  24.046  28.107  14.478
23935W        W92340  33.504   2.699  14.800
23936W        W92341  27.654  44.786  13.873
23937W        W92342  16.797  12.794   3.664
23938W        W92343   1.010  34.027  13.341
23939W        W92344  24.562  40.034  14.299
23940W        W92345  41.280   5.206   2.190
23941W        W92346  15.758   8.344   2.753
23942W        W92347  18.018  17.697   1.838
23943W        W92348  23.024  25.883   2.482
23944W        W92349  34.679  27.519  12.972
23945W        W92350  32.521   5.306   4.476
23946W        W92351  27.483  18.507  11.181
23947W        W92352   8.236  19.631  13.534
23948W        W92353  24.305  13.836  12.508
23949W        W92354  26.808   5.188   2.564
23950W        W92355  37.024  26.995   0.052
23951W        W92356  15.260  21.584   2.790
23952W        W92357  42.298  42.452  10.610
23953W        W92358  37.849   5.721  12.981
23954W        W92359  38.470  25.898   4.660
23955W        W92360   8.598  30.125   1.383
23956W        W92361  32.079  13.198   1.341
23957W        W92362  35.007  25.450   3.306
23958W        W92363  32.876  34.911  12.647
23959W        W92364   5.144  17.759  12.519
23960W        W92365  33.676  41.376  14.953
23961W        W92366  18.769  33.663   3.453
23962W        W92367   0.025   4.940   3.774
23963W        W92368  37.897  28.860  13.622
23964W        W92369  19.401  18.099   2.381
23965W        W92370  28.588  24.930  13.087
23966W        W92371   2.971  11.819  14.345
23967W        W92372  17.454  21.631  14.022
23968W        W92373  32.041  20.249  13.853
23969W        W92374  38.453  32.415   1.948
23970W        W92375  39.752  35.395  14.078
23971W        W92376   1.836  27.619   1.293
23972W        W92377  14.758  30.434   1.568
23973W        W92378  38.878  18.194   0.133
23974W        W92379  38.231   4.719   2.658
23975W        W92380  19.594  26.578  14.564
23976W        W92381   0.725  40.445  12.467
23977W        W92382  28.567  29.157  13.969
23978W        W92383  28.989   7.508   3.613
23979W        W92384   3.794  40.502   4.256
23980W        W92385  28.570  28.124   2.261
23981W        W92386  18.340  26.741   5.085
23982W        W92387  17.817  12.263  10.629
23983W        W92388  35.317  27.705   0.322
23984W        W92389   8.708   7.040   1.737
23985W        W92390  27.663   6.278   4.295
23986W        W92391  24.723  43.258   0.417
23987W        W92392  23.090  43.854  10.411
23988W        W92393  22.242   4.841  14.084
23989W        W92394  35.500  13.201   3.931
23990W        W92395   5.972  39.864   0.853
23991W        W92396  13.773  21.167  11.209
23992W        W92397  24.819  19.606  13.944
23993W        W92398   7.911  34.534   4.160
23994W        W92399   7.614   4.379  11.153
23995W        W92400   3.253  34.525   0.731
23996W        W92401  39.316   8.635   3.764
23997W        W92402  32.063  23.689  12.831
23998W        W92403   4.449   7.484   1.334
23999W        W92404  23.426   4.579  10.462
24000W        W92405  23.734   1.972  11.110
24001W        W92406  14.819  41.220  13.490
24002W        W92407  27.047  35.928   0.730
24003W        W92408  16.618  22.947   3.129
24004W        W92409  13.713  17.592   0.459
24005W        W92410  20.777  14.107  11.956
24006W        W92411  26.485  31.815  12.997
24007W        W92412  10.955  33.002   1.853
24008W        W92413  42.778  15.061   4.143
24009W        W92414   6.234  10.191  13.092
24010W        W92415  42.041  25.975   0.458
24011W        W92416   5.944  28.970  10.578
24012W        W92417  23.495  36.097   3.123
24013W        W92418  16.394  22.891   5.239
24014W        W92419  40.996  27.222  12.052
24015W        W92420  28.607   3.329   1.727
24016W        W92421  15.342  14.095  11.932
24017W        W92422  39.843   5.312  12.975
24018W        W92423  29.688  21.198  11.962
24019W        W92424  21.991  18.752  13.100
24020W        W92425  10.764  15.084  13.591
24021W        W92426   8.669  37.006   2.630
24022W        W92427  19.071   3.698  14.783
24023W        W92428  25.983   3.811   4.296
24024W        W92429  41.335  13.865   2.713
24025W        W92430  39.898  18.531   3.676
24026W        W92431   0.252  42.439   1.145
24027W        W92432  23.513  11.279  12.429
24028W        W92433  28.365   5.231  10.680
24029W        W92434  10.153  19.321  13.808
24030W        W92435  29.148  23.231   3.208
24031W        W92436   5.367  40.463  11.574
24032W        W92437  25.619  29.533   1.820
24033W        W92438   7.281   3.516   4.540
24034W        W92439  42.347  39.031   0.908
24035W        W92440  23.349  43.369  12.935
24036W        W92441  26.926  14.868  13.278
24037W        W92442  32.913  27.794   3.715
24038W        W92443  43.927  22.743   0.001
24039W        W92444   2.285  30.897  14.407
24040W        W92445   5.286  25.708   3.064
24041W        W92446   3.924   2.627  13.671
24042W        W92447  12.850  36.695   2.317
24043W        W92448  27.948   8.825  13.805
24044W        W92449   1.455  27.904   0.488
24045W        W92450  30.259  12.848   1.675
24046W        W92451  19.245  17.480  13.844
24047W        W92452  30.413  15.267  11.172
24048W        W92453  26.215  40.076   0.376
24049W        W92454   9.079   1.886  11.477
24050W        W92455  15.776  15.675   3.218
24051W        W92456  16.226  41.722   1.411
24052W        W92457   4.326   6.576  11.585
24053W        W92458  36.024  24.587  10.658
24054W        W92459  17.286  17.895  13.085
24055W        W92460   0.971  29.207  12.440
24056W        W92461   9.521  17.845   1.228
24057W        W92462  39.940  10.616   0.622
24058W        W92463  24.141  33.957   4.880
24059W        W92464  29.428  34.822   4.254
24060W        W92465   5.736  35.627  14.886
24061W        W92466  18.182  32.414   3.332
24062W        W92467  13.127   2.955   4.514
24063W        W92468  40.768  20.729  11.407
24064W        W92469   7.681   8.251  10.802
24065W        W92470   5.882  37.021   1.802
24066W        W92471  38.000  32.463   1.671
24067W        W92472   1.398  14.602   3.535
24068W        W92473  38.498  32.533   1.451
24069W        W92474  28.042  33.074  11.637
24070W        W92475  16.701  34.787  12.906
24071W        W92476   0.440  11.514   4.280
24072W        W92477   3.564  40.975  13.493
24073W        W92478   8.400  28.947   3.123
24074W        W92479  40.228  31.696  14.479
24075W        W92480   3.281   4.846  13.183
24076W        W92481  38.450  11.616  13.760
24077W        W92482   6.752  12.690   1.926
24078W        W92483   7.406  15.049   1.727
24079W        W92484   9.990  18.027   1.345
24080W        W92485   3.421  44.984   3.326
24081W        W92486   2.951   8.661  11.125
24082W        W92487  19.251   1.373  10.775
24083W        W92488  41.858  43.306   3.559
24084W        W92489  12.673  37.792   1.267
24085W        W92490   5.845  10.921  13.880
24086W        W92491  42.002  22.455  14.518
24087W        W92492  25.663  13.696   1.726
24088W        W92493  42.456  42.936  13.891
24089W        W92494  24.179  35.474   2.660
24090W        W92495  26.294  13.180  13.114
24091W        W92496   7.011  21.086  12.520
24092W        W92497  43.244   0.375  14.940
24093W        W92498  18.316  13.726  13.080
24094W        W92499  21.741  16.297   0.331
24095W        W92500  17.646   8.611   2.481
24096W        W92501  15.255  19.917  11.772
24097W        W92502  31.098  18.183  10.767
24098W        W92503   1.017   8.801   4.084
24099W        W92504  27.981  34.068  10.898
24100W        W92505  22.683  44.477  13.038
24101W        W92506  22.831  16.050  12.781
24102W        W92507  37.402  15.193  13.082
24103W        W92508  27.171  26.139   1.462
24104W        W92509  39.334   2.727  13.336
24105W        W92510  13.244   2.231  11.041
24106W        W92511  10.605  15.562  13.456
24107W        W92512  44.800   3.215   3.299
24108W        W92513  14.181   1.291  12.778
24109W        W92514  41.296   3.473  11.062
24110W        W92515   7.615  36.064  14.304
24111W        W92516  28.241  37.428  12.844
24112W        W92517  39.253  18.045  14.089
24113W        W92518  25.133  13.882   4.734
24114W        W92519  19.282  11.173   3.866
24115W        W92520  35.761  14.046  13.303
24116W        W92521  28.181  27.507  12.519
24117W        W92522  42.708  17.216  12.602
24118W        W92523   5.421  12.093  14.548
24119W        W92524  37.711  26.966  13.494
24120W        W92525  15.105  26.702   2.706
24121W        W92526  14.174  25.912  11.125
24122W        W92527  39.343  19.663  14.426
24123W        W92528  12.326  35.041   4.688
24124W        W92529   1.721  14.232   4.459
24125W        W92530  18.669  22.956   2.619
24126W        W92531  42.072  34.631  11.198
24127W        W92532  42.045  38.080   3.894
24128W        W92533   8.755  25.354  14.889
24129W        W92534  21.813  24.448   1.737
24130W        W92535  31.580   0.828   1.694
24131W        W92536   0.221  39.573  10.752
24132W        W92537  14.290  15.739   1.284
24133W        W92538  29.606  30.738   0.299
24134W        W92539  42.406   0.525  12.429
24135W        W92540  38.291  29.942  14.087
24136W        W92541   1.471  43.804   3.263
24137W        W92542  18.972  13.627  12.094
24138W        W92543  44.527   4.264   4.195
24139W        W92544  38.550   2.754   4.120
24140W        W92545  36.969   1.981  13.488
24141W        W92546  32.995  23.967  12.641
24142W        W92547  32.190  29.578  11.091
24143W        W92548  35.893  37.320  12.342
24144W        W92549  24.698  16.874  10.738
24145W        W92550  25.699   1.179  11.181
24146W        W92551  26.099  14.279  13.199
24147W        W92552  44.050  22.593   1.550
24148W        W92553  33.579   6.741   2.924
24149W        W92554  27.076   7.330  11.957
24150W        W92555  32.607  16.584   2.404
24151W        W92556   2.285  31.140   3.337
24152W        W92557  29.349   0.127  12.546
24153W        W92558  12.413   9.115  13.315
24154W        W92559  15.114  43.910  13.016
24155W        W92560   4.852   7.701   5.093
24156W        W92561  20.475   6.352   2.732
24157W        W92562   8.302  27.337  14.855
24158W        W92563   5.302  37.051   4.751
24159W        W92564  29.130  43.855   3.726
24160W        W92565  23.227  17.448  12.754
24161W        W92566  19.788   1.284   0.735
24162W        W92567  19.607  10.335   2.111
24163W        W92568   1.387  14.994   3.111
24164W        W92569  43.453   7.108  12.061
24165W        W92570  40.612  42.703   3.696
24166W        W92571  18.230  10.381  11.186
24167W        W92572  23.707  44.526  12.896
24168W        W92573  33.697   6.840  12.699
24169W        W92574   9.128  15.197  10.453
24170W        W92575   1.337   7.260  11.862
24171W        W92576  21.602  29.100   4.641
24172W        W92577  34.037  38.717  12.230
24173W        W92578  21.773  11.701  13.202
24174W        W92579  25.155  18.254  14.035
24175W        W92580  11.432  20.674   2.877
24176W        W92581  36.881  20.998  14.886
24177W        W92582  18.271   9.737  14.060
24178W        W92583  17.975  17.771  14.519
24179W        W92584   0.353  14.286   1.945
24180W        W92585  28.910  36.333  11.596
24181W        W92586  12.563   9.483  14.935
24182W        W92587  35.922  11.680   2.402
24183W        W92588   1.114  19.009   2.321
24184W        W92589  37.280  20.091   1.371
24185W        W92590  10.685   0.349  12.367
24186W        W92591  29.158   4.821   1.876
24187W        W92592   8.837   2.179  11.095
24188W        W92593  11.654  41.334   2.672
24189W        W92594   3.907  33.056  12.655
24190W        W92595  14.863  28.580  13.918
24191W        W92596  42.825  26.362  12.169
24192W        W92597   3.992  33.992   2.242
24193W        W92598   4.766   2.287   2.286
24194W        W92599  35.226  15.490   5.013
24195W        W92600  20.186  43.637   2.946
24196W        W92601  38.396   6.377   4.977
24197W        W92602  29.490  34.140  11.882
24198W        W92603  42.357  14.722   4.177
24199W        W92604  12.281   7.739  13.587
24200W        W92605  21.359   2.161  12.408
24201W        W92606  21.156  35.582   2.255
24202W        W92607  25.544  35.510   2.148
24203W        W92608  23.653  17.618  10.553
24204W        W92609   1.202   4.325  12.403
24205W        W92610  10.955  26.879  10.487
24206W        W92611  32.003   5.414  13.826
24207W        W92612  39.996  27.037  11.272
24208W        W92613  12.912  23.468   3.756
24209W        W92614  42.436  12.762   0.695
24210W        W92615  31.062  29.161   3.099
24211W        W92616  16.386  28.842   3.717
24212W        W92617  20.216   8.914  11.508
24213W        W92618  12.639  37.007  14.431
24214W        W92619  21.479  13.165  14.805
24215W        W92620   8.709  19.426   4.593
24216W        W92621   2.787   0.396   2.354
24217W        W92622   7.179  39.066   1.866
24218W        W92623  21.273  21.559   0.109
24219W        W92624  17.705  24.966   2.167
24220W        W92625  10.042   0.508   2.761
24221W        W92626  33.289  17.353   4.973
24222W        W92627  29.993  21.031   1.355
24223W        W92628  16.730  36.462  12.550
24224W        W92629  18.708   5.313  13.790
24225W        W92630   3.139  37.804  11.127
24226W        W92631  14.696   9.149  13.060
24227W        W92632  32.303  42.598  14.852
24228W        W92633  44.508  16.563   2.973
24229W        W92634   9.744  16.506  12.967
24230W        W92635  21.484  12.687  13.029
24231W        W92636   2.725  18.705  13.335
24232W        W92637  37.329  28.482  13.796
24233W        W92638  22.160  14.369  10.646
24234W        W92639   3.227  20.278  11.387
24235W        W92640  27.044  15.112   3.873
24236W        W92641   3.774  31.180  12.555
24237W        W92642  29.617  37.944  12.927
24238W        W92643  28.083  29.709   1.831
24239W        W92644   8.845  18.866  10.300
24240W        W92645   5.250  44.323  12.515
24241W        W92646  39.414  29.257   3.604
24242W        W92647  16.768  18.006  13.050
24243W        W92648  32.521  24.743   2.154
24244W        W92649  35.363   3.011   2.194
24245W        W92650  13.071  40.387  11.545
24246W        W92651   8.955  40.099  11.225
24247W        W92652  10.912  42.271  13.595
24248W        W92653  22.436  24.203  12.038
24249W        W92654  34.029  34.772   2.490
24250W        W92655  11.840  10.798  10.645
24251W        W92656  19.540   6.719   4.518
24252W        W92657  19.323  22.477   4.253
24253W        W92658   2.169  40.456   2.699
24254W        W92659   0.500  37.751  11.604
24255W        W92660   5.330  38.235  10.920
24256W        W92661  12.546   9.762  12.600
24257W        W92662  21.948  19.547   3.305
24258W        W92663   3.889  24.868   4.549
24259W        W92664  35.936  25.241  13.487
24260W        W92665  34.052  41.800   2.612
24261W        W92666  11.216  31.440   0.760
24262W        W92667  17.505  23.471   3.276
24263W        W92668  32.494  42.403   0.291
24264W        W92669   6.965  38.772  11.043
24265W        W92670  39.747   8.699   2.737
24266W        W92671  31.172  13.373  13.297
24267W        W92672  18.567  16.410   1.861
24268W        W92673  39.015  44.734  11.973
24269W        W92674   0.030  22.396   3.047
24270W        W92675   9.614   6.256  10.563
24271W        W92676  44.737  16.713   3.820
24272W        W92677  23.765  13.426   2.331
24273W        W92678  23.166  34.155  11.978
24274W        W92679  25.665  16.608  14.822
24275W        W92680  38.574  29.567   4.657
24276W        W92681   8.858  17.371  13.369
24277W        W92682  19.481  16.676   4.607
24278W        W92683  36.270  44.463   4.523
24279W        W92684  28.632  34.513  14.788
24280W        W92685  41.215  44.250   2.907
24281W        W92686   1.542  18.714   4.820
24282W        W92687  33.348  32.436   1.701
24283W        W92688  11.275   4.252  14.652
24284W        W92689  41.574  10.100   4.563
24285W        W92690   8.903  44.981  14.015
24286W        W92691  41.451  11.130   3.599
24287W        W92692  19.281  44.094   2.804
24288W        W92693  15.456   2.878   4.077
24289W        W92694   9.274  36.498  12.488
24290W        W92695  43.971  17.838  10.899
24291W        W92696  35.649  16.562   3.592
24292W        W92697  34.468  27.700  11.569
24293W        W92698  30.377   7.834  13.983
24294W        W92699   4.747  22.938  11.053
24295W        W92700  30.136   5.755   4.478
24296W        W92701   5.629   7.618   4.571
24297W        W92702  24.077  31.846  14.366
24298W        W92703  39.984  15.878   4.832
24299W        W92704  40.047   4.554   3.181
24300W        W92705  44.838  11.845   0.748
24301W        W92706   0.823  31.192  10.728
24302W        W92707  19.171  19.504   4.725
24303W        W92708  26.684  10.178   3.239
24304W        W92709  14.246  26.421  11.228
24305W        W92710   8.161  17.099   1.253
24306W        W92711   6.475  10.251   1.881
24307W        W92712  12.536  27.961  14.726
24308W        W92713  17.303  33.587   1.412
24309W        W92714  18.768   9.763  13.264
24310W        W92715  24.697  33.770   0.051
24311W        W92716  35.780  31.847  12.517
24312W        W92717   8.288  37.444   2.301
24313W        W92718  36.553  31.975   4.135
24314W        W92719  39.574  22.743  13.369
24315W        W92720  41.529  40.805  14.515
24316W        W92721  23.885  19.670  14.094
24317W        W92722  39.478  36.863   2.600
24318W        W92723  29.981  33.492   1.149
24319W        W92724  36.035   9.940  14.597
24320W        W92725   4.398  17.370  11.530
24321W        W92726  28.447  18.624   3.151
24322W        W92727  36.553   6.445   0.871
24323W        W92728  38.825  17.694  14.923
24324W        W92729  33.143  13.690  10.096
24325W        W92730  29.054  11.077   4.555
24326W        W92731  25.478  26.537   0.832
24327W        W92732   4.380  33.646   4.680
24328W        W92733  18.628  15.802  12.267
24329W        W92734  20.175   1.958  12.636
24330W        W92735  19.560  44.201   1.321
24331W        W92736  42.251  29.867  12.100
24332W        W92737  36.630  24.732  11.119
24333W        W92738  30.627  23.474  12.878
24334W        W92739   7.087   5.273   1.863
24335W        W92740  10.423   4.241  14.301
24336W        W92741  38.254  29.987   3.348
24337W        W92742  21.126   0.490   3.246
24338W        W92743  28.008  31.403  11.128
24339W        W92744  29.670  19.749   1.435
24340W        W92745  16.603  24.300  14.938
24341W        W92746  33.339  42.693  10.451
24342W        W92747  25.491   5.473   0.558
24343W        W92748  22.103  21.102  10.472
24344W        W92749  43.595  25.984  11.230
24345W        W92750   5.785  23.941   3.125
24346W        W92751  36.982  20.250   0.969
24347W        W92752  35.080  16.829   1.156
24348W        W92753   3.511  43.815  12.174
24349W        W92754  36.267  12.681   4.090
24350W        W92755  13.769  14.833  14.826
24351W        W92756  44.048  28.959  14.024
24352W        W92757   1.208  10.426  13.627
24353W        W92758  31.065  27.527  12.898
24354W        W92759  11.239  16.775   0.522
24355W        W92760   0.855  36.000  13.755
24356W        W92761  14.732  38.513   3.741
24357W        W92762  17.297  26.967  11.569
24358W        W92763   6.649  44.761  11.525
24359W        W92764   1.158  12.156  12.565
24360W        W92765  26.568  20.131  10.695
24361W        W92766   5.535   6.612  14.381
24362W        W92767  23.569   8.564   1.775
24363W        W92768  19.804  17.569  14.537
24364W        W92769  34.624  23.591   1.453
24365W        W92770  24.071  23.166  13.391
24366W        W92771  32.403  22.068   1.445
24367W        W92772  30.503  22.724  11.119
24368W        W92773  36.346  22.777  14.372
24369W        W92774  38.565  12.848   2.764
24370W        W92775  36.616  29.459  12.883
24371W        W92776  21.710  15.353  13.050
24372W        W92777  17.804  37.790   0.393
24373W        W92778  12.413  23.685  14.025
24374W        W92779  40.855  26.002   3.250
24375W        W92780  24.275  24.220   3.143
24376W        W92781   5.150   8.803  11.957
24377W        W92782   1.930  43.637  11.200
24378W        W92783  35.901  42.006   4.854
24379W        W92784  42.865   0.127   4.085
24380W        W92785  20.376  36.656   2.928
24381W        W92786   2.534  30.955  14.892
24382W        W92787  27.240  20.321  13.473
24383W        W92788  13.525  23.444   2.208
24384W        W92789  37.951  28.701  12.236
24385W        W92790  17.034  28.164  14.877
24386W        W92791  43.441  38.556  11.106
24387W        W92792   9.154  18.836  12.002
24388W        W92793  11.296   7.996   1.334
24389W        W92794  17.306  24.480  12.053
24390W        W92795  36.930   7.696  13.127
24391W        W92796  38.520  16.091  14.820
24392W        W92797  38.811  35.285  14.079
24393W        W92798   5.893  27.674   3.648
24394W        W92799  10.148  36.648  10.925
24395W        W92800  25.982  28.932   2.202
24396W        W92801  42.720   4.478  13.415
24397W        W92802  16.202  23.259   3.386
24398W        W92803  18.326  20.356  10.564
24399W        W92804  16.693  20.641   4.329
24400W        W92805  42.730  21.373  13.962
24401W        W92806  33.995  26.977  10.618
24402W        W92807  35.965  12.925  12.066
24403W        W92808  19.401  25.444   4.056
24404W        W92809  35.402  26.222   4.897
24405W        W92810  31.650   6.191  11.567
24406W        W92811  10.332  10.388   3.749
24407W        W92812   3.791  33.831   0.971
24408W        W92813  41.568  14.738  14.082
24409W        W92814   5.161   3.991   3.254
24410W        W92815   6.983  32.586  11.587
24411W        W92816   2.019  22.564   5.363
24412W        W92817  39.453   1.536  12.983
24413W        W92818  13.116  19.217   4.269
24414W        W92819  44.534  29.949  11.226
24415W        W92820  33.869  33.701   1.423
24416W        W92821   0.372  44.795   1.798
24417W        W92822   8.369   3.714  12.029
24418W        W92823  16.617  11.176  10.107
24419W        W92824  20.015  12.339  10.709
24420W        W92825  43.941  36.035   2.718
24421W        W92826  31.952  27.757  14.324
24422W        W92827   0.206   7.437  11.614
24423W        W92828  34.311  25.150  12.502
24424W        W92829  20.008  22.753  12.965
24425W        W92830  27.592  33.265  14.744
24426W        W92831  35.601  43.810  14.463
24427W        W92832  32.212  30.994  14.463
24428W        W92833   7.937  20.391  12.800
24429W        W92834   8.855  20.886   4.580
24430W        W92835   0.294  32.271   0.369
24431W        W92836  22.324  29.817  10.775
24432W        W92837  37.291  24.634   2.679
24433W        W92838  32.097  33.504   4.628
24434W        W92839   2.975   9.320  10.609
24435W        W92840  13.671  44.253  13.513
24436W        W92841  43.358   7.600  12.153
24437W        W92842  31.406  16.149  13.411
24438W        W92843  31.240  28.763   2.268
24439W        W92844   7.709  15.496   3.624
24440W        W92845   2.054  41.613   1.284
24441W        W92846  19.006   4.873   0.483
24442W        W92847  11.729  43.745  10.692
24443W        W92848  32.774  27.131   2.127
24444W        W92849   6.442  43.347   3.880
24445W        W92850  20.977  28.196   1.381
24446W        W92851  43.299   4.792  10.973
24447W        W92852  24.267  33.694  14.006
24448W        W92853  13.016   0.732  10.741
24449W        W92854  11.418   4.290  13.310
24450W        W92855  31.899  27.600  10.262
24451W        W92856  12.981   0.306  11.876
24452W        W92857  34.327  19.010   4.583
24453W        W92858   2.782   9.184   0.507
24454W        W92859  29.186  22.009   1.665
24455W        W92860  34.981  16.415   1.498
24456W        W92861  16.619   4.184   0.741
24457W        W92862  42.057   5.692  13.999
24458W        W92863   1.990   0.415  13.012
24459W        W92864  19.248  39.368  14.657
24460W        W92865  34.944  25.378   5.030
24461W        W92866  20.486  34.191   4.156
24462W        W92867  10.690  15.582   0.956
24463W        W92868  29.744   8.699   1.386
24464W        W92869  28.717  17.644   3.066
24465W        W92870  28.803  29.606   1.367
24466W        W92871  35.577   1.049  11.907
24467W        W92872  24.002  44.524   4.574
24468W        W92873  32.113   3.822   2.318
24469W        W92874  41.076  27.531   1.265
24470W        W92875  35.427  42.275   2.379
24471W        W92876  34.472   9.724   1.951
24472W        W92877  14.760  34.958  10.648
24473W        W92878  42.445  11.904  11.569
24474W        W92879   8.182  32.029   3.787
24475W        W92880  34.047  26.491  10.459
24476W        W92881  16.834  39.500   4.694
24477W        W92882  14.372  19.289  11.179
24478W        W92883   7.734  33.967  10.612
24479W        W92884  21.687   5.943   3.770
24480W        W92885   9.330  17.980  10.233
24481W        W92886  22.781  29.093  12.434
24482W        W92887  28.465  11.396   3.217
24483W        W92888  38.147  36.100   1.333
24484W        W92889  25.175  32.190   3.621
24485W        W92890   1.894  21.493   1.207
24486W        W92891   3.736  32.166  12.807
24487W        W92892  17.868   8.098   1.298
24488W        W92893  32.948  14.157   4.525
24489W        W92894  21.235  32.357  14.750
24490W        W92895  28.732  13.176   2.198
24491W        W92896   4.942  42.846   0.182
24492W        W92897  11.962  13.047  13.974
24493W        W92898  25.549   8.302  14.895
24494W        W92899   0.407   5.629  14.335
24495W        W92900  26.282  38.333   2.954
24496W        W92901  43.353   9.845   3.346
24497W        W92902  37.268  38.957   1.036
24498W        W92903  12.412  31.286  13.448
24499W        W92904  44.766  38.994   4.911
24500W        W92905  25.061  43.859   2.125
24501W        W92906  35.921  30.608  11.895
24502W        W92907  22.801  27.300   2.101
24503W        W92908   3.157  19.478   2.053
24504W        W92909   7.940  15.766  11.792
24505W        W92910  17.259  33.406  12.795
24506W        W92911  20.866  43.008  12.772
24507W        W92912  24.512   4.289   2.913
24508W        W92913  40.774   5.642  13.060
24509W        W92914  44.829  17.506  13.947
24510W        W92915   1.315  37.353   3.628
24511W        W92916  33.633  38.068  13.453
24512W        W92917  29.224   0.855   3.601
24513W        W92918  14.280  27.649   2.182
24514W        W92919   1.538  44.305   2.527
24515W        W92920  44.502  32.468   1.157
24516W        W92921   1.269  24.955   3.157
24517W        W92922  37.568  17.484   3.548
24518W        W92923  41.848   9.368   1.412
24519W        W92924  24.189   6.903   3.432
24520W        W92925  37.615  38.597  11.233
24521W        W92926  30.113   3.183  14.019
24522W        W92927  10.658  41.478   5.085
24523W        W92928  20.026  15.780  12.916
24524W        W92929  20.006  10.672  12.909
24525W        W92930  12.646   7.646   2.943
24526W        W92931  20.206  34.427  13.401
24527W        W92932   0.718  14.151  10.299
24528W        W92933  22.571   4.201   0.831
24529W        W92934  21.219  36.267  11.106
24530W        W92935  18.266  25.815   2.245
24531W        W92936   9.074   2.412  13.483
24532W        W92937  24.762  30.145   3.746
24533W        W92938  36.302  39.641  13.077
24534W        W92939  42.731   8.380   2.929
24535W        W92940  13.040   0.812   1.809
24536W        W92941  22.678   0.859   4.574
24537W        W92942   9.715  25.056   4.626
24538W        W92943   7.292   7.689   0.504
24539W        W92944  16.178  17.161   1.173
24540W        W92945  18.611  11.825  13.970
24541W        W92946   6.483  37.724  14.925
24542W        W92947   2.050  43.929  12.929
24543W        W92948  12.555  38.987  13.481
24544W        W92949  19.507  12.909  14.844
24545W        W92950  35.808  10.781  14.024
24546W        W92951  43.993  27.592  12.354
24547W        W92952  13.834  30.916  10.590
24548W        W92953   6.760  42.571   4.337
24549W        W92954  38.556  13.463  11.156
24550W        W92955  24.847  11.589  12.186
24551W        W92956  28.439  34.127  13.976
24552W        W92957  11.146  12.450  12.208
24553W        W92958  43.198  22.608  12.563
24554W        W92959  19.251  17.162   1.885
24555W        W92960   7.153  37.741  13.986
24556W        W92961  39.408  11.952   0.397
24557W        W92962  15.136   5.681  10.991
24558W        W92963  31.559  36.532   3.829
24559W        W92964  14.348  15.313   0.694
24560W        W92965  35.856   8.957   4.324
24561W        W92966   5.233  39.156   0.799
24562W        W92967  27.529   6.982   0.592
24563W        W92968  14.181  35.611  12.447
24564W        W92969  43.927  31.489   2.930
24565W        W92970  38.930  13.097  14.891
24566W        W92971  25.099  35.442   2.842
24567W        W92972  32.079  34.471   2.794
24568W        W92973  29.633  15.016   2.833
24569W        W92974   9.388  14.759  13.465
24570W        W92975  43.961   7.331   4.373
24571W        W92976  12.627  12.757  10.763
24572W        W92977   5.655  32.060  10.732
24573W        W92978  16.004  22.421  11.329
24574W        W92979   8.820   4.299   1.830
24575W        W92980   7.938  25.346   3.233
24576W        W92981  13.144  18.793   3.981
24577W        W92982   5.195  32.900   1.444
24578W        W92983  18.630   1.381  14.938
24579W        W92984  14.060   7.859  10.678
24580W        W92985  38.465  32.838  12.075
24581W        W92986  13.394  30.424   2.254
24582W        W92987  30.720  16.630  11.740
24583W        W92988  41.806   5.816   4.763
24584W        W92989  39.487  33.735   4.942
24585W        W92990   5.327  24.180   4.079
24586W        W92991  22.155  24.417  13.376
24587W        W92992  14.733  20.321  10.536
24588W        W92993  25.608  30.714   4.307
24589W        W92994  19.527  10.811   1.345
24590W        W92995  42.969  20.291   3.263
24591W        W92996  19.132  42.490   4.718
24592W        W92997  32.943   9.302  12.096
24593W        W92998  21.686   7.842   0.154
24594W        W92999  19.687  17.566  12.610
24595W        W93000  37.544  36.545  11.049
24596W        W93001   7.818   6.107   3.269
24597W        W93002  44.984  11.151   0.629
24598W        W93003  42.775  19.969   2.875
24599W        W93004   6.891   0.564   0.466
24600W        W93005  27.184   3.105  14.893
24601W        W93006  30.379   4.018  11.718
24602W        W93007   9.741   3.384   3.576
24603W        W93008   7.904  26.543   1.121
24604W        W93009   2.624  10.901  14.731
24605W        W93010  21.794  19.972  13.520
24606W        W93011   5.486  37.770  10.776
24607W        W93012  17.603  29.507   0.727
24608W        W93013  39.440  21.797  13.380
24609W        W93014  37.998   9.044   4.165
24610W        W93015  33.030  17.333   0.556
24611W        W93016  33.487  32.871   1.971
24612W        W93017   2.925  33.467  14.392
24613W        W93018  17.164  21.703  11.975
24614W        W93019  20.100   2.850  14.848
24615W        W93020  24.055  13.342  14.800
24616W        W93021   0.808  23.114   1.394
24617W        W93022  29.339  19.285   3.911
24618W        W93023  18.230  40.939  12.520
24619W        W93024  19.567  20.731  11.882
24620W        W93025  22.974   5.059  11.194
24621W        W93026  28.341  38.871  11.982
24622W        W93027   2.852   2.488  14.906
24623W        W93028  41.759  39.095   0.322
24624W        W93029  26.248  18.503  14.095
24625W        W93030   8.436  39.961  12.908
24626W        W93031   0.716  12.102  12.286
24627W        W93032  18.508   8.775   1.467
24628W        W93033  32.256  44.922   2.374
24629W        W93034  27.499  14.618   1.238
24630W        W93035   3.884   4.740   4.444
24631W        W93036  44.116  30.291  11.290
24632W        W93037  33.401   9.408   0.895
24633W        W93038  18.101   3.337   2.402
24634W        W93039  31.503   6.760   0.869
24635W        W93040  20.643  32.423   0.361
24636W        W93041  35.483  36.981  10.693
24637W        W93042  16.152  37.464  14.530
24638W        W93043  24.993  11.099  13.487
24639W        W93044  30.550  43.361  13.474
24640W        W93045   8.046  33.028  14.013
24641W        W93046  30.399  23.776   2.885
24642W        W93047  11.385  25.163  14.525
24643W        W93048  35.357  24.010  11.165
24644W        W93049  40.923   1.979   0.787
24645W        W93050  37.144  18.807  13.312
24646W        W93051  25.338  15.919   1.361
24647W        W93052   9.309   7.744  14.001
24648W        W93053  16.974  37.079  14.699
24649W        W93054  41.492  31.108   2.993
24650W        W93055   9.341   3.950   2.673
24651W        W93056   3.545  45.000   1.716
24652W        W93057   0.365   3.314   4.579
24653W        W93058  17.532  31.357   3.771
24654W        W93059  39.530  38.165  14.649
24655W        W93060  20.367  33.931  13.005
24656W        W93061  14.157   4.007   4.572
24657W        W93062  32.498  19.644  11.941
24658W        W93063  33.428  36.328  13.481
24659W        W93064   8.509  21.866   2.236
24660W        W93065  26.774   5.684  14.011
24661W        W93066  38.847   7.796   2.799
24662W        W93067  30.435  13.859  13.833
24663W        W93068  40.080  27.150   4.132
24664W        W93069  13.267  32.653  14.056
24665W        W93070  39.820   1.369   3.873
24666W        W93071  26.507  26.208  12.182
24667W        W93072  33.160   3.153   3.256
24668W        W93073  44.755  42.038  13.016
24669W        W93074   4.743  22.061   3.201
24670W        W93075  14.329  21.651  10.606
24671W        W93076  17.600  10.346   2.151
24672W        W93077   2.761  38.013   0.910
24673W        W93078  19.552   3.112   0.358
24674W        W93079  21.121  28.470   2.702
24675W        W93080  23.872  22.592   4.379
24676W        W93081   1.376  14.217   1.746
24677W        W93082  19.607  29.000  14.745
24678W        W93083  18.499  26.677  10.865
24679W        W93084  39.815  26.365  14.416
24680W        W93085   0.558  21.597  10.459
24681W        W93086  26.036  15.271   1.880
24682W        W93087  43.685   8.345  14.840
24683W        W93088  42.312  25.641  10.723
24684W        W93089  25.498  39.875   2.774
24685W        W93090   8.727  43.846   4.378
24686W        W93091  17.757  13.558   2.692
24687W        W93092  31.687  44.397  11.390
24688W        W93093   7.204  10.945   4.248
24689W        W93094  19.175  10.156  14.949
24690W        W93095  11.474   4.828  13.062
24691W        W93096  44.497  30.512  13.048
24692W        W93097   9.143   4.289   4.180
24693W        W93098  29.174   5.647  10.483
24694W        W93099  17.721  37.161  11.187
24695W        W93100  36.389  16.065  12.605
24696W        W93101  40.915  26.992  12.518
24697W        W93102  20.666  35.880  10.898
24698W        W93103  30.420   4.030   2.628
24699W        W93104  38.394   7.986   3.696
24700W        W93105  44.269  28.922  11.134
24701W        W93106  24.270  40.804  10.957
24702W        W93107  35.199  22.261  14.736
24703W        W93108   4.327  39.077   0.460
24704W        W93109  34.861  30.393   3.193
24705W        W93110  39.437   3.075  14.295
24706W        W93111  13.841  23.113  12.425
24707W        W93112  29.848   5.328   4.564
24708W        W93113  24.852  28.194  12.545
24709W        W93114  22.678  11.572  12.763
24710W        W93115  40.551   3.204  13.393
24711W        W93116  18.146   9.337  11.285
24712W        W93117  16.612  21.097   2.730
24713W        W93118  34.344  13.202   4.542
24714W        W93119   1.382  40.141  12.894
24715W        W93120  28.201  23.568   2.853
24716W        W93121   5.385   8.650  13.311
24717W        W93122  27.967  29.202   4.179
24718W        W93123  36.402  23.285   4.538
24719W        W93124  41.656  30.467   5.014
24720W        W93125  18.318   5.284   4.413
24721W        W93126  22.113  37.888   3.770
24722W        W93127  27.219  18.426  14.354
24723W        W93128  37.856  16.624   4.085
24724W        W93129  18.838  12.317  13.893
24725W        W93130  36.626  29.374   2.109
24726W        W93131  34.390   9.795   3.301
24727W        W93132  14.234  26.962   2.856
24728W        W93133  23.608  38.753   4.677
24729W        W93134  34.630  22.678  12.866
24730W        W93135  22.699  38.026  12.850
24731W        W93136  20.867  20.640   0.947
24732W        W93137  25.514  11.168   1.923
24733W        W93138  22.043   1.800  13.748
24734W        W93139   4.207  19.944   3.744
24735W        W93140  22.018   4.870  12.864
24736W        W93141   8.298  26.167   3.707
24737W        W93142   9.165   1.331   2.837
24738W        W93143  43.398  32.141   2.745
24739W        W93144  10.760  30.595  10.130
24740W        W93145  35.955  34.079  14.247
24741W        W93146  44.753   6.937   0.292
24742W        W93147  22.763  38.280  11.515
24743W        W93148  22.654  30.556  12.359
24744W        W93149  10.887  27.444   4.797
24745W        W93150   3.916  17.160  11.507
24746W        W93151  22.938  22.055   1.838
24747W        W93152  42.523  15.036  12.938
24748W        W93153   0.523  23.167   4.088
24749W        W93154  21.213   7.617   2.832
24750W        W93155   9.154   4.225  12.919
24751W        W93156  34.943  18.536  11.681
24752W        W93157  21.064  13.045   3.150
24753W        W93158   8.251  39.922  10.690
24754W        W93159   5.248  27.337  13.100
24755W        W93160   6.214  19.605  13.038
24756W        W93161  16.104   0.943  12.150
24757W        W93162  15.523  42.761   0.766
24758W        W93163  37.115  17.698   0.330
24759W        W93164  44.351  18.886  14.341
24760W        W93165  28.689  26.542  12.483
24761W        W93166   6.501  22.236   1.671
24762W        W93167   2.266  30.349  14.324
24763W        W93168  37.427  34.989  14.758
24764W        W93169  10.648  20.229  14.412
24765W        W93170  19.821  17.353   2.737
24766W        W93171  32.866  30.371   2.865
24767W        W93172  18.695  35.493   3.276
24768W        W93173   9.902   7.809   0.727
24769W        W93174  17.038  30.382   3.574
24770W        W93175  42.724  11.948  11.146
24771W        W93176  21.050  25.510   2.280
24772W        W93177  26.604  38.695   1.170
24773W        W93178  21.598  16.085  13.816
24774W        W93179  38.542   7.867  10.461
24775W        W93180  41.914  27.679   4.273
24776W        W93181  40.086  10.225   1.511
24777W        W93182  35.925  15.344   0.173
24778W        W93183   0.927  16.951   0.472
24779W        W93184  30.496  30.886   1.325
24780W        W93185  18.384  20.549   2.795
24781W        W93186  10.581  17.593   3.140
24782W        W93187  40.437  37.848  12.639
24783W        W93188  15.873  31.941   0.869
24784W        W93189  26.564   2.050   0.421
24785W        W93190   0.953  16.819  11.395
24786W        W93191   6.778  26.683   1.222
24787W        W93192  15.578   0.816   3.662
24788W        W93193  30.325  10.185   3.794
24789W        W93194  43.817  41.123  13.435
24790W        W93195  41.046  44.415   1.204
24791W        W93196  13.598  17.467   1.038
24792W        W93197  22.476  19.608   1.856
24793W        W93198  25.888  35.007   5.253
24794W        W93199   3.810   4.926   0.280
24795W        W93200  15.000  22.765   4.097
24796W        W93201  29.920   4.370  10.747
24797W        W93202  17.257  11.762  12.133
24798W        W93203  28.564  42.728  10.137
24799W        W93204  37.026  38.611   1.337
24800W        W93205  26.034   3.983   1.367
24801W        W93206  23.842  40.930  14.982
24802W        W93207  10.381   5.743   1.317
24803W        W93208  20.480   3.553  13.432
24804W        W93209  34.866  16.784   0.300
24805W        W93210  11.775  11.562   1.827
24806W        W93211  16.194  41.792  14.533
24807W        W93212   3.705  25.197   2.338
24808W        W93213  22.949  10.439   4.604
24809W        W93214   1.667  29.154   4.581
24810W        W93215  16.718  38.397  12.796
24811W        W93216  28.059  21.796   4.140
24812W        W93217   0.456  10.639   2.608
24813W        W93218  14.958  13.352   4.193
24814W        W93219  23.171  43.998  13.731
24815W        W93220  36.415  41.801   1.971
24816W        W93221  15.102   5.972   4.278
24817W        W93222  26.256  36.750   1.611
24818W        W93223  42.608   1.778  12.620
24819W        W93224  31.168  36.809  11.119
24820W        W93225  37.260   4.595   2.843
24821W        W93226  41.220  31.949   2.817
24822W        W93227  27.064  31.297   4.157
24823W        W93228  20.078  18.127   9.854
24824W        W93229   6.652  28.377   2.783
24825W        W93230  43.938   5.337   1.328
24826W        W93231  18.062  31.923   4.625
24827W        W93232  18.297  39.418  14.493
24828W        W93233   4.149  28.212   1.780
24829W        W93234  35.015  38.338  13.590
24830W        W93235  17.198   4.358  11.897
24831W        W93236  17.090  24.123  14.932
24832W        W93237  29.360  10.858   0.455
24833W        W93238  38.046  30.954  14.792
24834W        W93239  13.410  36.400   3.406
24835W        W93240  20.199  15.662  10.187
24836W        W93241  20.897  13.285  10.670
24837W        W93242  23.752   6.754  14.480
24838W        W93243  43.474   8.656  10.046
24839W        W93244  11.192  15.100   3.547
24840W        W93245  44.918  41.289  10.563
24841W        W93246   2.302  16.884   1.890
24842W        W93247  26.441  44.755  14.949
24843W        W93248  25.908   6.645  14.378
24844W        W93249  44.938  35.095   3.643
24845W        W93250  36.599   4.812  14.316
24846W        W93251   9.542  33.818   1.278
24847W        W93252  20.793  40.426   2.103
24848W        W93253   3.889  22.032   0.904
24849W        W93254  15.322  11.516  11.195
24850W        W93255  14.336  22.092   3.658
24851W        W93256  43.952  30.072   3.532
24852W        W93257  38.588  43.879  14.457
24853W        W93258  35.555   5.787  10.720
24854W        W93259  25.619  34.112   2.150
24855W        W93260   4.504  19.269  10.732
24856W        W93261  23.730  44.098   1.019
24857W        W93262  40.788   1.537  12.585
24858W        W93263  38.958  41.839  13.832
24859W        W93264  34.616  12.234  11.802
24860W        W93265  25.657   8.248   2.171
24861W        W93266   7.433   6.373   0.788
24862W        W93267  34.357  33.178   2.452
24863W        W93268  42.505  29.679   1.362
24864W        W93269   6.096  39.991  14.530
24865W        W93270  30.841  43.784  13.421
24866W        W93271  41.160  10.561   3.704
24867W        W93272  42.984   2.330   0.242
24868W        W93273  28.674  21.048   2.420
24869W        W93274  14.658  32.412  11.620
24870W        W93275  41.706  16.226   4.392
24871W        W93276   5.758  44.003  10.829
24872W        W93277  33.968  10.827  14.156
24873W        W93278   0.457   9.392  12.457
24874W        W93279   4.344  18.706  12.445
24875W        W93280   1.168  35.034  14.429
24876W        W93281  17.683  14.619   0.777
24877W        W93282  17.796   8.619  13.355
24878W        W93283  18.372  21.244  10.682
24879W        W93284  20.056  20.529   4.422
24880W        W93285  22.375   6.349  14.586
24881W        W93286  21.574  27.046  13.777
24882W        W93287  44.842  15.554   0.416
24883W        W93288  37.726   5.734  11.513
24884W        W93289  38.478  26.426   4.740
24885W        W93290  27.642   8.879  14.226
24886W        W93291   1.371  42.439  11.450
24887W        W93292  20.834  21.411  11.321
24888W        W93293  32.629  39.110  12.061
24889W        W93294  17.948  25.718   0.244
24890W        W93295  26.979  43.046   2.724
24891W        W93296   7.635  40.848   4.617
24892W        W93297  42.573  21.180  10.964
24893W        W93298  24.451  39.358   4.586
24894W        W93299  41.829   5.374   4.207
24895W        W93300  27.643  34.956   0.367
24896W        W93301  31.850  19.006  11.973
24897W        W93302  24.173  11.729   0.027
24898W        W93303  26.075  34.842  13.041
24899W        W93304  14.503  15.331   3.102
24900W        W93305  37.541  16.127  14.975
24901W        W93306   1.367  28.222  11.392
24902W        W93307  18.250  16.609   0.393
24903W        W93308  19.763  18.798   5.027
24904W        W93309   8.791  40.519  12.490
24905W        W93310  28.890   2.094  12.561
24906W        W93311  41.265  34.388  13.952
24907W        W93312   7.054  19.067   4.265
24908W        W93313  19.105  42.869  14.876
24909W        W93314   0.214  26.243  11.081
24910W        W93315  29.427  36.173  13.415
24911W        W93316  34.029  43.021  13.442
24912W        W93317  35.449  33.652   0.930
24913W        W93318  36.892  13.539   2.102
24914W        W93319  33.891  24.142  14.344
24915W        W93320  17.840  24.875  14.726
24916W        W93321  40.870  14.639  11.223
24917W        W93322  34.352  13.955  11.497
24918W        W93323  10.379  13.409   2.297
24919W        W93324   4.297  41.957   3.277
24920W        W93325  31.709  13.498   2.732
24921W        W93326  19.095   5.717   2.830
24922W        W93327   8.662  19.727   0.676
24923W        W93328  21.429   6.798  12.086
24924W        W93329  14.548  13.676  10.716
24925W        W93330  13.311  43.838  13.374
24926W        W93331  25.963  27.093   4.768
24927W        W93332  20.254  30.847   3.864
24928W        W93333  30.031  14.099   2.147
24929W        W93334   3.217  10.370   2.820
24930W        W93335   5.126  40.096  12.028
24931W        W93336  42.724   0.933   0.135
24932W        W93337  37.432  10.617  10.762
24933W        W93338  13.354  35.874  11.130
24934W        W93339  28.424  34.114   4.619
24935W        W93340   9.333  33.410  12.540
24936W        W93341   9.515  35.127   3.668
24937W        W93342  41.206  36.111  14.127
24938W        W93343  12.642  35.308  10.642
24939W        W93344   7.239  14.575  11.493
24940W        W93345  36.996   2.724  12.998
24941W        W93346  41.366  42.290  13.491
24942W        W93347  41.143  37.987   0.777
24943W        W93348  12.349  24.121   0.225
24944W        W93349  23.969  22.052   3.023
24945W        W93350  44.744  15.162  11.490
24946W        W93351   0.401  44.678  13.363
24947W        W93352  41.332  27.971   0.900
24948W        W93353   4.192   0.500  11.194
24949W        W93354   4.367   7.887   5.005
24950W        W93355  39.355  31.108   0.829
24951W        W93356  30.646  15.642  12.574
24952W        W93357  28.502   4.490   2.422
24953W        W93358  11.814  18.243  12.399
24954W        W93359  20.356  43.266   4.592
24955W        W93360   7.777  10.828  11.540
24956W        W93361  34.873  38.649  10.701
24957W        W93362  24.160  34.735  14.965
24958W        W93363  28.951  10.287  14.523
24959W        W93364  41.022  26.120  10.704
24960W        W93365   9.510  43.781   3.580
24961W        W93366  24.975  15.171   3.399
24962W        W93367  25.108  25.537  12.828
24963W        W93368  28.474  11.773  12.778
24964W        W93369   0.859  18.483  14.361
24965W        W93370  31.893   1.351   4.609
24966W        W93371  11.733   1.920  13.419
24967W        W93372  38.747  16.699   3.846
24968W        W93373  15.381   9.641  12.063
24969W        W93374  28.903  28.078  11.510
24970W        W93375  26.016  12.783   1.883
24971W        W93376  25.393  34.886  11.567
24972W        W93377  41.475  20.070  14.522
24973W        W93378  29.450  42.922   3.711
24974W        W93379  41.370  20.697  11.184
24975W        W93380  25.886  24.987  12.139
24976W        W93381  18.103  30.511  14.952
24977W        W93382  14.262   5.012   4.490
24978W        W93383  19.052  31.862   3.161
24979W        W93384   6.816  15.838  10.699
24980W        W93385   5.134  39.989   4.669
24981W        W93386  17.251  17.313  12.103
24982W        W93387  13.769  26.473   1.032
24983W        W93388  15.278  33.623  14.292
24984W        W93389  16.392  10.296  13.811
24985W        W93390  37.006  43.788   4.294
24986W        W93391  25.106  27.899   4.694
24987W        W93392  34.919  25.144  10.851
24988W        W93393  18.120  33.159  14.347
24989W        W93394  42.950  22.216  13.576
24990W        W93395  34.457  33.342   3.122
24991W        W93396  17.317  18.073   1.390
24992W        W93397   0.022  29.802  11.986
24993W        W93398  25.135  41.730  14.263
24994W        W93399   1.744  11.726   1.103
24995W        W93400  30.517  22.572   3.606
24996W        W93401  28.589  38.359   3.591
24997W        W93402  24.343  34.243   0.093
24998W        W93403  40.216  13.327   1.760
24999W        W93404  20.441  21.051   3.120
25000W        W93405  26.101  35.960  12.962
25001W        W93406  40.396  39.661   3.240
25002W        W93407   8.255  40.759  12.334
25003W        W93408   0.571  31.594   3.597
25004W        W93409  31.675  10.698  12.949
25005W        W93410  32.496  23.158  11.774
25006W        W93411  12.033  33.441  12.872
25007W        W93412  19.516  15.721  12.882
25008W        W93413  23.663  24.418   4.046
25009W        W93414  39.250   4.832  14.496
25010W        W93415  41.975  19.289  11.238
25011W        W93416  44.882  32.082  14.385
25012W        W93417  32.815  18.650  12.766
25013W        W93418  43.802  40.296   4.143
25014W        W93419  31.883  44.891   3.813
25015W        W93420   1.778  40.354  13.596
25016W        W93421  42.314   7.027  11.368
25017W        W93422  22.102  24.867   1.894
25018W        W93423   4.394  41.866  11.982
25019W        W93424  21.188  14.038  11.101
25020W        W93425  44.217  25.641   1.429
25021W        W93426  19.731  20.122  13.116
25022W        W93427  43.351  17.237  13.754
25023W        W93428  13.300  28.759  13.368
25024W        W93429   8.657  21.174   2.792
25025W        W93430  11.394  33.235   1.939
25026W        W93431  34.631   8.997  10.369
25027W        W93432   8.666   3.199   0.410
25028W        W93433  21.139  14.941   0.428
25029W        W93434  35.097  12.254  11.630
25030W        W93435   1.354  29.553   0.054
25031W        W93436  42.776  35.247   3.348
25032W        W93437  28.003   3.830   2.854
25033W        W93438  30.379   3.411  10.619
25034W        W93439   1.720   3.631  11.894
25035W        W93440  21.405  27.149   3.630
25036W        W93441  22.913  34.953   4.168
25037W        W93442  11.267  13.398   0.820
25038W        W93443  36.513  10.684   1.356
25039W        W93444  40.824   1.367  13.077
25040W        W93445  16.156  16.094  13.054
25041W        W93446  31.589  37.030   0.911
25042W        W93447  12.103  33.539  12.033
25043W        W93448  19.871  14.706   5.029
25044W        W93449  11.316  20.199  11.868
25045W        W93450   3.682   6.439   1.296
25046W        W93451   1.954  16.352   2.297
25047W        W93452  28.483   9.577  11.334
25048W        W93453  12.713  37.102  11.226
25049W        W93454  24.659  15.147  11.169
25050W        W93455  33.458  24.544   1.771
25051W        W93456  10.288  22.694  12.013
25052W        W93457   4.200   3.640   2.219
25053W        W93458  33.492   7.127  10.620
25054W        W93459  42.504  20.066   4.963
25055W        W93460  10.467   9.246  13.859
25056W        W93461   2.709  36.312  11.108
25057W        W93462   6.639   5.696   2.641
25058W        W93463   6.754  18.569  13.977
25059W        W93464  13.482   5.744  12.920
25060W        W93465  24.218  41.243  13.005
25061W        W93466  42.739  27.594   3.670
25062W        W93467  40.411  14.256   0.500
25063W        W93468  31.756  14.113   0.382
25064W        W93469  36.367   6.063  13.872
25065W        W93470  41.048  33.010  11.577
25066W        W93471  10.767  31.653  12.599
25067W        W93472  11.628  39.541  11.482
25068W        W93473  16.553   6.576   0.538
25069W        W93474   1.554  13.790   4.659
25070W        W93475   1.617   7.873   4.761
25071W        W93476  40.100  42.283  11.038
25072W        W93477  20.475  16.232   2.179
25073W        W93478  26.080  44.886   3.387
25074W        W93479  37.946  11.595   1.595
25075W        W93480  18.816  31.580  13.455
25076W        W93481  39.849  16.176  11.267
25077W        W93482  29.254   7.350  14.337
25078W        W93483  13.296  21.901   2.474
25079W        W93484  12.276   3.530   4.402
25080W        W93485  40.303  32.046  12.580
25081W        W93486   0.203  14.685   1.633
25082W        W93487  29.613  30.723  13.020
25083W        W93488  33.593  24.252  10.660
25084W        W93489  35.751  43.502   3.014
25085W        W93490  15.701   7.475   1.186
25086W        W93491  29.635   0.322  11.701
25087W        W93492  24.258   3.376   3.738
25088W        W93493  40.037  11.172  14.689
25089W        W93494   9.258  25.785   1.322
25090W        W93495  40.956   4.516  14.142
25091W        W93496  38.506  14.297  12.787
25092W        W93497   1.402  14.621   4.513
25093W        W93498  17.636  12.818   1.461
25094W        W93499  26.887   0.782   0.777
25095W        W93500   9.447  16.323  14.978
25096W        W93501  43.350  29.938   1.308
25097W        W93502  20.770  28.960   0.985
25098W        W93503  35.756  11.112  13.608
25099W        W93504  20.678  12.140  14.294
25100W        W93505   3.455  24.178   0.232
25101W        W93506  31.855  27.901  13.314
25102W        W93507   2.454   4.323   1.375
25103W        W93508  39.487  30.289  14.726
25104W        W93509   2.880   7.670   3.854
25105W        W93510   8.204  35.613  13.446
25106W        W93511   8.684  29.451  12.373
25107W        W93512  30.488  18.239  11.922
25108W        W93513  30.539  25.153  10.849
25109W        W93514  38.439  36.852   0.424
25110W        W93515  20.537  19.875  11.143
25111W        W93516  15.723  18.483   2.424
25112W        W93517  15.304   7.067   4.182
25113W        W93518  21.977   9.712  12.938
25114W        W93519  27.039  43.271  14.467
25115W        W93520  43.788  39.122  12.600
25116W        W93521   0.928  35.099  13.730
25117W        W93522  27.223   6.075   4.056
25118W        W93523  11.760  33.574   2.746
25119W        W93524  11.963   2.259  12.403
25120W        W93525  24.213  38.363  12.551
25121W        W93526  28.943   2.418   0.425
25122W        W93527   9.857  34.085  11.291
25123W        W93528  33.712  22.716   0.593
25124W        W93529  13.854  17.203  12.795
25125W        W93530   0.746   4.348  12.161
25126W        W93531  24.984  36.397  13.485
25127W        W93532  40.588   1.831   5.061
25128W        W93533  30.073  35.114  11.563
25129W        W93534  36.141   2.418  12.121
25130W        W93535   3.265  13.280   0.223
25131W        W93536  19.642  35.339   1.170
25132W        W93537  20.568  19.344   2.850
25133W        W93538  40.957  13.994   1.158
25134W        W93539  35.053  35.706   4.979
25135W        W93540   2.318  14.514   5.039
25136W        W93541  20.057  23.541  14.307
25137W        W93542  43.161  17.312  10.729
25138W        W93543   8.432  35.609  14.404
25139W        W93544  33.286  16.568  10.940
25140W        W93545  18.785  13.325   4.389
25141W        W93546  14.301  26.631  14.896
25142W        W93547   6.970  37.426  11.607
25143W        W93548  22.221  44.309   4.180
25144W        W93549  27.178   8.286  12.589
25145W        W93550   9.861  43.888   3.222
25146W        W93551   2.008  40.570  14.529
25147W        W93552  19.158  34.109   2.444
25148W        W93553   7.468   2.255   3.554
25149W        W93554  15.725  31.492  11.835
25150W        W93555  24.693  35.634  13.058
25151W        W93556  37.629  33.574  13.805
25152W        W93557  44.810  41.123  12.180
25153W        W93558  39.280  14.149  13.488
25154W        W93559   1.020   2.522   1.313
25155W        W93560  33.333  22.062  14.007
25156W        W93561  19.146  20.348  12.446
25157W        W93562   7.232  22.972   3.265
25158W        W93563  41.650   2.956  10.268
25159W        W93564   3.533  31.433  14.054
25160W        W93565  37.517  42.426   0.004
25161W        W93566   3.251   0.668  14.993
25162W        W93567   8.857  37.765   0.052
25163W        W93568  24.826  26.202   0.327
25164W        W93569   3.398  38.912   0.350
25165W        W93570  20.525  35.414  11.076
25166W        W93571   4.272   6.267  14.134
25167W        W93572   6.696  36.697  11.147
25168W        W93573  22.146  29.095  14.735
25169W        W93574  10.893  31.564   1.164
25170W        W93575   4.963  17.624  14.908
25171W        W93576   8.916  28.883  14.004
25172W        W93577   5.276  22.342   0.507
25173W        W93578  13.812  33.421  12.411
25174W        W93579   7.409  13.127   1.367
25175W        W93580  28.984  27.434  11.146
25176W        W93581  10.672  12.554  13.884
25177W        W93582  19.363  38.101  13.889
25178W        W93583  35.411  33.520  10.937
25179W        W93584  31.692  27.554   2.091
25180W        W93585   4.530  31.303  11.042
25181W        W93586  11.104   5.910   4.519
25182W        W93587  17.115  19.870  11.756
25183W        W93588   8.658  17.738   3.166
25184W        W93589  17.816  29.062   0.922
25185W        W93590   5.224  28.667   2.676
25186W        W93591  16.142   5.705   2.298
25187W        W93592  19.823  37.694  11.038
25188W        W93593  20.080  33.974  10.976
25189W        W93594   4.672  16.515  14.481
25190W        W93595  26.942   0.011  11.762
25191W        W93596  44.279  35.036  14.817
25192W        W93597  10.539   8.712   2.625
25193W        W93598  39.902  10.464  14.033
25194W        W93599   7.288  25.175   1.771
25195W        W93600  17.926  17.311   0.457
25196W        W93601   4.309  17.286   3.224
25197W        W93602  38.590  29.782  11.808
25198W        W93603  26.965  28.204  10.280
25199W        W93604   7.881  17.694  13.879
25200W        W93605  28.904  12.535  12.434
25201W        W93606  17.426   5.965   1.927
25202W        W93607  41.217  11.885  14.381
25203W        W93608  21.737  31.093   1.351
25204W        W93609  32.571  10.376  12.506
25205W        W93610   8.204   8.720   2.747
25206W        W93611   7.746   8.197  13.384
25207W        W93612  38.505  40.950   2.931
25208W        W93613  40.547  29.888  13.519
25209W        W93614  34.538  26.541  13.913
25210W        W93615  27.525  15.749   1.914
25211W        W93616  19.015  16.658   3.743
25212W        W93617  41.043  18.567   0.471
25213W        W93618  16.771  21.983  12.092
25214W        W93619  34.470  14.996  13.245
25215W        W93620  35.399  33.384  14.521
25216W        W93621   2.361  19.290   0.469
25217W        W93622  12.363   6.333  13.181
25218W        W93623  36.926  34.440   0.260
25219W        W93624  11.888  28.115   9.916
25220W        W93625  25.604  37.833  14.471
25221W        W93626  43.679  27.497   3.568
25222W        W93627  29.881  20.474   2.291
25223W        W93628   1.174  32.149   3.189
25224W        W93629   3.386  12.591  13.825
25225W        W93630  24.519  10.919   0.201
25226W        W93631  18.597  43.531  13.374
25227W        W93632   4.435  17.844   1.463
25228W        W93633  17.842  43.504   0.500
25229W        W93634  16.628  32.711   1.400
25230W        W93635  33.378  28.731   1.387
25231W        W93636  32.011   0.562   1.691
25232W        W93637  34.175  30.053   2.703
25233W        W93638   2.172   5.835  12.496
25234W        W93639  21.616  27.082   4.411
25235W        W93640   6.207   7.195  12.579
25236W        W93641   1.455   1.920   2.202
25237W        W93642   6.611  33.015   3.038
25238W        W93643  32.404  38.814  11.692
25239W        W93644  28.601  31.270   3.755
25240W        W93645  34.408  33.901   4.910
25241W        W93646  15.989  14.155  11.699
25242W        W93647   4.920   5.136   4.240
25243W        W93648  17.110  40.261   4.789
25244W        W93649   2.306  15.836  10.659
25245W        W93650  23.078  10.129   4.192
25246W        W93651  28.957   7.626   1.849
25247W        W93652  31.478  43.419   0.501
25248W        W93653  22.146  43.310  14.748
25249W        W93654  34.448  18.072   3.602
25250W        W93655  38.172  20.963   5.135
25251W        W93656  13.494  35.201   4.518
25252W        W93657  44.768  19.573  13.466
25253W        W93658  25.645  44.484  12.040
25254W        W93659  34.947  17.842  10.082
25255W        W93660  26.488  18.651   4.765
25256W        W93661  22.734  26.256   2.261
25257W        W93662  44.035   7.102   1.492
25258W        W93663  20.248  24.934   0.816
25259W        W93664  35.422  14.098   2.215
25260W        W93665  24.444  32.698   4.673
25261W        W93666   1.038  41.386  12.901
25262W        W93667  31.556  21.484  13.811
25263W        W93668  21.205  38.865  11.133
25264W        W93669  40.894  39.598  12.087
25265W        W93670  18.758  34.111  11.469
25266W        W93671   5.303  18.810  10.985
25267W        W93672  35.060  27.214   3.695
25268W        W93673  25.312  23.729   1.625
25269W        W93674  15.387  30.598  11.237
25270W        W93675  33.898   3.310  11.382
25271W        W93676   3.491  42.438   0.352
25272W        W93677  16.112  23.184  10.242
25273W        W93678  19.979  30.962  13.812
25274W        W93679   2.382  44.294  10.537
25275W        W93680  14.448  29.071  12.898
25276W        W93681  29.165  24.162   4.627
25277W        W93682  19.809  15.813  14.455
25278W        W93683  26.167  38.106  11.509
25279W        W93684  34.773  33.092  14.040
25280W        W93685  11.595  18.094  14.271
25281W        W93686  15.576  17.970  13.566
25282W        W93687  15.690  18.108  10.017
25283W        W93688  13.185  16.964   0.467
25284W        W93689   8.881  17.510   1.088
25285W        W93690  14.377  15.860   4.832
25286W        W93691  44.760  23.157   2.381
25287W        W93692  34.114  21.348   0.500
25288W        W93693  13.595  10.225   0.449
25289W        W93694   9.107  30.612  14.344
25290W        W93695  29.827   9.274   3.586
25291W        W93696  27.173  24.345   4.548
25292W        W93697  39.454  32.296  14.820
25293W        W93698  28.964   5.444   0.229
25294W        W93699  21.167   8.187   2.921
25295W        W93700   3.428  18.610   1.806
25296W        W93701  12.766  17.749   0.322
25297W        W93702  38.350  18.792  12.729
25298W        W93703  26.734  22.764  13.551
25299W        W93704  32.739   0.504  14.265
25300W        W93705  28.725  32.735  10.993
25301W        W93706  36.551   2.944  12.874
25302W        W93707   7.372  10.693  13.019
25303W        W93708  12.733  24.765   1.981
25304W        W93709   4.225  29.950  12.456
25305W        W93710   7.958  13.683   0.029
25306W        W93711   3.801  18.905   0.943
25307W        W93712  21.116  36.975  10.664
25308W        W93713  11.303   1.603  12.508
25309W        W93714   3.483  32.039   4.476
25310W        W93715  41.657   7.732   1.828
25311W        W93716  25.688  14.558  13.901
25312W        W93717  37.624  20.152   1.755
25313W        W93718  26.180   2.554  12.976
25314W        W93719   0.044  12.761  10.744
25315W        W93720  16.263  40.994  13.469
25316W        W93721  23.328  35.515  11.240
25317W        W93722   8.883  33.866  11.034
25318W        W93723  18.574  29.685  13.923
25319W        W93724   2.493   0.672  13.098
25320W        W93725  28.918  42.879  11.453
25321W        W93726  23.271  30.095   2.622
25322W        W93727  26.075  39.829   3.668
25323W        W93728  34.114  16.692  12.513
25324W        W93729  35.154  15.259  14.450
25325W        W93730  44.895  18.708   3.216
25326W        W93731   3.330  10.693  12.919
25327W        W93732  12.639  44.370  12.985
25328W        W93733  35.374  20.087  14.532
25329W        W93734  37.633  22.618   0.149
25330W        W93735  25.753  25.201   1.634
25331W        W93736   4.418  14.195  11.482
25332W        W93737  39.045  10.384   1.812
25333W        W93738   2.770  18.978   0.424
25334W        W93739  20.706  34.950   4.714
25335W        W93740  14.138  21.216   4.293
25336W        W93741  34.651   7.100  12.477
25337W        W93742  31.925  18.639  11.092
25338W        W93743  22.611   3.204   1.871
25339W        W93744   9.255  12.918   3.152
25340W        W93745  42.194  37.083  10.988
25341W        W93746   2.702  42.209  13.494
25342W        W93747  37.276  35.380  10.624
25343W        W93748   7.292  23.916  10.861
25344W        W93749  25.116  30.508   4.026
25345W        W93750  37.735  28.609   4.510
25346W        W93751  31.585  30.667   3.907
25347W        W93752  23.451  24.592  12.716
25348W        W93753  30.554  25.991   4.183
25349W        W93754  27.219  22.733  12.319
25350W        W93755  31.494   5.925   1.369
25351W        W93756  35.367   0.495   3.193
25352W        W93757  18.130  39.977  10.567
25353W        W93758  35.477   1.767  14.423
25354W        W93759  15.748  15.065   1.928
25355W        W93760  34.573  17.379  10.602
25356W        W93761  40.367  22.808  10.065
25357W        W93762  19.763  40.239   2.796
25358W        W93763  11.430  29.396  12.606
25359W        W93764  23.478  32.519  12.917
25360W        W93765  29.327   6.858   1.669
25361W        W93766  21.678  27.915   4.598
25362W        W93767  42.247  15.307   0.798
25363W        W93768  38.228   2.241  11.640
25364W        W93769  36.071  36.843   0.855
25365W        W93770   8.226  36.599   0.314
25366W        W93771   8.151  42.824   2.359
25367W        W93772  16.716   9.162  10.953
25368W        W93773  23.250  39.745  13.780
25369W        W93774  21.420  17.285  13.339
25370W        W93775  44.286  13.253   3.340
25371W        W93776  37.449  29.376   2.164
25372W        W93777   4.214  11.340  13.971
25373W        W93778  10.061  36.824  13.710
25374W        W93779  44.253  18.743   4.115
25375W        W93780   2.530  43.045  11.209
25376W        W93781  44.570  11.999  10.699
25377W        W93782   7.921  17.659  14.968
25378W        W93783  35.672  18.323  11.398
25379W        W93784  28.924   6.033   5.012
25380W        W93785  29.221  30.085  12.564
25381W        W93786  13.099  34.539  10.202
25382W        W93787  32.835   8.441   1.720
25383W        W93788  34.227  38.809   2.555
25384W        W93789  44.138  32.845  13.491
25385W        W93790   7.300   2.814  13.269
25386W        W93791  17.650   5.202   2.456
25387W        W93792  14.234  18.739  13.460
25388W        W93793  16.365  20.115   2.971
25389W        W93794   4.892   7.261  14.048
25390W        W93795  43.873  26.032   1.691
25391W        W93796  36.136   0.744   4.160
25392W        W93797  23.057  34.557   4.524
25393W        W93798   8.305  33.714  11.139
25394W        W93799   3.239  43.780   2.697
25395W        W93800  16.472   6.819  13.764
25396W        W93801   2.037  39.864   2.002
25397W        W93802  24.647  32.904   0.369
25398W        W93803   6.411  25.422   1.360
25399W        W93804  43.380   8.331  12.583
25400W        W93805   3.936   0.793  10.791
25401W        W93806  41.439   4.225   0.405
25402W        W93807  35.763   7.122  11.314
25403W        W93808  42.595  29.440   4.319
25404W        W93809  37.049  15.812  12.059
25405W        W93810  44.682  35.089  10.735
25406W        W93811   2.672  43.919  10.784
25407W        W93812  38.362   9.821   3.329
25408W        W93813  39.746  15.990  14.069
25409W        W93814   5.116  42.576  12.039
25410W        W93815  32.576  11.935  13.438
25411W        W93816  42.838  31.618  14.039
25412W        W93817  20.750  13.838  11.514
25413W        W93818   4.932  30.995   3.660
25414W        W93819  34.958   4.838  14.073
25415W        W93820  42.586  15.699  12.474
25416W        W93821  40.206  12.699  12.139
25417W        W93822  25.446   2.678  14.475
25418W        W93823  15.964   8.069   1.300
25419W        W93824  18.688  20.256   4.767
25420W        W93825  29.274  10.800   4.170
25421W        W93826  35.583   8.028   0.824
25422W        W93827   3.907  12.734   2.906
25423W        W93828  30.533   4.436  13.768
25424W        W93829  39.274  43.835   2.547
25425W        W93830  36.932  36.092  13.270
25426W        W93831  29.237  25.000  14.791
25427W        W93832  11.231  37.577   3.642
25428W        W93833  14.291  17.839   2.934
25429W        W93834  36.501  13.311   4.213
25430W        W93835  15.468  17.569   3.005
25431W        W93836  14.234  42.256  14.788
25432W        W93837  28.074  10.117   5.373
25433W        W93838  12.220  44.162  14.423
25434W        W93839  12.282  37.893  13.491
25435W        W93840  33.945   8.876  10.345
25436W        W93841  39.891  44.490   0.862
25437W        W93842  12.577  12.914  12.455
25438W        W93843   3.618  18.542  12.030
25439W        W93844  38.945  36.362  14.305
25440W        W93845  21.052   9.891   4.837
25441W        W93846  15.180  38.882  10.600
25442W        W93847  44.073   6.122  10.735
25443W        W93848  40.521  12.902   0.878
25444W        W93849  26.612   9.795  12.961
25445W        W93850  33.427  10.071  14.433
25446W        W93851  36.897  23.230   2.411
25447W        W93852  19.941   6.701  13.987
25448W        W93853  26.072   3.313  13.407
25449W        W93854  33.798  22.642   2.682
25450W        W93855  39.597  14.650   2.919
25451W        W93856  19.943   5.861  14.392
25452W        W93857  22.598   2.558  12.213
25453W        W93858  30.513  19.659  14.446
25454W        W93859  32.977  26.021   1.048
25455W        W93860  39.564  13.041  12.542
25456W        W93861   6.887  13.893   1.425
25457W        W93862  29.029  32.876   0.090
25458W        W93863  21.647  29.202   3.779
25459W        W93864  13.194  18.300   3.805
25460W        W93865   4.942  30.080   3.213
25461W        W93866  22.500  35.588  11.598
25462W        W93867   2.070  14.617  11.067
25463W        W93868  30.812   1.374   1.376
25464W        W93869   4.212  22.481   1.621
25465W        W93870  35.384  31.503  11.675
25466W        W93871  40.843  15.839  14.786
25467W        W93872   7.235  26.817  12.144
25468W        W93873  16.432  41.370  12.085
25469W        W93874  43.923  41.828   1.458
25470W        W93875  15.992  12.325  13.481
25471W        W93876  39.911   6.889   3.101
25472W        W93877  26.735   3.256   1.866
25473W        W93878  44.026  24.494  11.212
25474W        W93879  10.234  22.082  12.887
25475W        W93880  28.524  41.345  14.913
25476W        W93881  10.154   3.650  14.952
25477W        W93882  26.081  12.692   0.957
25478W        W93883   2.020  29.584   0.561
25479W        W93884  42.469   7.081   2.826
25480W        W93885  36.332  27.011   0.777
25481W        W93886  13.317  44.243   0.850
25482W        W93887  23.492  15.691  12.896
25483W        W93888   0.736  17.850  11.185
25484W        W93889  35.808  31.170   1.865
25485W        W93890  10.706   8.787  12.957
25486W        W93891  44.055  16.239  10.274
25487W        W93892  32.932   2.627  12.396
25488W        W93893   1.531  20.839   4.677
25489W        W93894  26.926  42.287  13.614
25490W        W93895  36.801  16.503  11.610
25491W        W93896   1.151  23.419   2.335
25492W        W93897   2.458  33.011   4.410
25493W        W93898  31.367  39.937   3.815
25494W        W93899  44.479   6.213  12.075
25495W        W93900  38.228  23.671  13.144
25496W        W93901  38.776  26.526   1.733
25497W        W93902  23.177  21.166   0.034
25498W        W93903  35.629  24.756   1.318
25499W        W93904  21.685  27.433   3.233
25500W        W93905   7.382  32.198  13.935
25501W        W93906  40.335  11.872  14.503
25502W        W93907  20.665  42.852   4.342
25503W        W93908  14.168   0.795  13.286
25504W        W93909  41.899   6.461  10.724
25505W        W93910  17.620   8.217   3.191
25506W        W93911  30.980   6.192  14.854
25507W        W93912   1.529  24.416  14.374
25508W        W93913  42.703   4.993  13.311
25509W        W93914   2.836  43.137  13.946
25510W        W93915   5.174   4.719   0.520
25511W        W93916  30.015  24.113   3.580
25512W        W93917  24.116  11.304  12.406
25513W        W93918  16.828  43.957  13.014
25514W        W93919  32.589  44.911   0.219
25515W        W93920  22.170  17.107   0.581
25516W        W93921  34.035  43.259   0.992
25517W        W93922  18.930  20.566   2.594
25518W        W93923  31.941  30.626   2.695
25519W        W93924  14.983   1.479   3.132
25520W        W93925  15.648  24.602  13.827
25521W        W93926  27.615  25.149   4.666
25522W        W93927  43.049  34.681   1.948
25523W        W93928  20.092   9.455   5.168
25524W        W93929  23.690  28.548  14.941
25525W        W93930  19.027  12.787   0.054
25526W        W93931  37.312  34.922  11.855
25527W        W93932   6.718  17.534  12.003
25528W        W93933   8.751   6.695   2.162
25529W        W93934  12.444  21.668  14.105
25530W        W93935  35.001   1.838  14.600
25531W        W93936  41.787   2.012  14.791
25532W        W93937  37.595   9.858   3.782
25533W        W93938  37.000   1.211   1.358
25534W        W93939  16.830   2.473   2.338
25535W        W93940  19.050   0.307  14.414
25536W        W93941  39.027   9.747   0.866
25537W        W93942  15.605  26.103   0.972
25538W        W93943  20.488  31.417  13.100
25539W        W93944  22.728  30.537  10.055
25540W        W93945  22.264  36.097   2.618
25541W        W93946  21.620  40.348   2.871
25542W        W93947  26.480  40.536   0.500
25543W        W93948  24.851  31.136  12.456
25544W        W93949   6.626  16.110  14.017
25545W        W93950  19.722   2.863  11.265
25546W        W93951   0.504   1.484  14.350
25547W        W93952  12.869  21.495  14.995
25548W        W93953  28.232  12.199  12.984
25549W        W93954  26.445  20.044   0.946
25550W        W93955  12.808  22.770   3.229
25551W        W93956  37.072  17.766   1.239
25552W        W93957   9.340  31.004   0.968
25553W        W93958   2.778  34.315   1.830
25554W        W93959  13.459   9.854   0.798
25555W        W93960  12.071  31.048  12.182
25556W        W93961   4.683  38.608  12.398
25557W        W93962  44.425  23.099  12.081
25558W        W93963   8.129   6.425  12.415
25559W        W93964  42.908  23.648   9.825
25560W        W93965  24.658  29.661  14.828
25561W        W93966  28.813  28.265  14.079
25562W        W93967  35.766  14.906   2.408
25563W        W93968  23.172   4.798  12.448
25564W        W93969  35.901  18.802   0.186
25565W        W93970  14.641  36.202   4.824
25566W        W93971  30.379  42.869   2.789
25567W        W93972  41.809  27.274   0.765
25568W        W93973   6.919  39.044  12.282
25569W        W93974  21.328  41.769  10.784
25570W        W93975  12.741  28.002   1.240
25571W        W93976   0.043  27.433   2.619
25572W        W93977  42.681  34.834  10.780
25573W        W93978   1.882   1.277  13.455
25574W        W93979  31.700  31.603   1.287
25575W        W93980  16.282  33.972  11.492
25576W        W93981  23.169  27.819  12.479
25577W        W93982  10.769   0.835  12.489
25578W        W93983   3.096  31.306  11.108
25579W        W93984   0.988  33.575   4.165
25580W        W93985  35.027   7.887  11.163
25581W        W93986  30.367  15.659   0.438
25582W        W93987  44.013  37.559  10.820
25583W        W93988   3.789  24.585   3.525
25584W        W93989   6.793  25.237   1.900
25585W        W93990  19.587  10.366  12.951
25586W        W93991  40.301   2.770   2.750
25587W        W93992  27.697   5.049   2.295
25588W        W93993   9.834  35.744   1.761
25589W        W93994   3.973   7.709  13.850
25590W        W93995  20.724  18.268   3.390
25591W        W93996  29.127  21.499  12.587
25592W        W93997   8.417  11.856   3.091
25593W        W93998  30.850  22.698   1.835
25594W        W93999  28.839   5.736   1.697
25595W        W94000   2.092   3.453  11.527
25596W        W94001  25.619  10.350  13.539
25597W        W94002  37.461  39.222   0.235
25598W        W94003   4.329  15.573   3.709
25599W        W94004  21.536  34.880   3.782
25600W        W94005  12.289  24.660   2.906
25601W        W94006  20.115  14.815   2.864
25602W        W94007  17.502   2.067  12.982
25603W        W94008  23.093  44.006   2.717
25604W        W94009  32.439  22.603  14.982
25605W        W94010  40.063  33.320   0.915
25606W        W94011  41.358  43.052   3.159
25607W        W94012   3.952  23.229  12.852
25608W        W94013  11.907   7.777  11.421
25609W        W94014   1.318   1.550  12.816
25610W        W94015   5.764   6.541   2.717
25611W        W94016  25.167   6.222   2.335
25612W        W94017  20.141  16.109  13.558
25613W        W94018  42.488  25.582  11.973
25614W        W94019   8.825   0.698   1.316
25615W        W94020  17.170   8.638   3.140
25616W        W94021  33.414  34.224   2.687
25617W        W94022  10.288   3.955  10.111
25618W        W94023  10.505  37.489   0.660
25619W        W94024  18.845  26.257  10.759
25620W        W94025  22.742   9.428   0.957
25621W        W94026  14.303  38.060   4.555
25622W        W94027  41.193  32.230  14.358
25623W        W94028   1.431   5.724  10.895
25624W        W94029  13.247  42.805   2.298
25625W        W94030  35.466   9.779   4.764
25626W        W94031  27.930  34.106  13.819
25627W        W94032  25.148   0.193   2.787
25628W        W94033  22.195   0.948  10.965
25629W        W94034   9.737  14.668   0.778
25630W        W94035   7.240   4.713   1.711
25631W        W94036  41.560  31.574   2.724
25632W        W94037   5.352   4.287   2.688
25633W        W94038  44.860   6.045   4.489
25634W        W94039  23.953  20.099   3.752
25635W        W94040  21.989   1.362   1.965
25636W        W94041  33.341  25.542   4.229
25637W        W94042  18.710  26.390   3.378
25638W        W94043  32.447  16.855  13.922
25639W        W94044  26.660  30.409   0.363
25640W        W94045  43.776   0.390  13.752
25641W        W94046   1.901  34.600   3.843
25642W        W94047  25.664  42.000   1.456
25643W        W94048   9.218  40.406  14.547
25644W        W94049  20.087  25.974  11.676
25645W        W94050  16.611  26.738   0.283
25646W        W94051  12.556  17.668  12.786
25647W        W94052   5.958  15.296  10.865
25648W        W94053  36.809  39.482  14.745
25649W        W94054  24.232  24.991   4.584
25650W        W94055  11.337  19.613  11.908
25651W        W94056  30.336  17.340   2.380
25652W        W94057  18.306  28.921   4.034
25653W        W94058  14.039  35.120  13.907
25654W        W94059  27.898  31.045  14.462
25655W        W94060   6.856  20.857  12.970
25656W        W94061  31.203   7.593  12.947
25657W        W94062   3.493  36.479  10.644
25658W        W94063  12.376  21.965   3.323
25659W        W94064  11.336  42.630  12.206
25660W        W94065  39.935  14.290   0.279
25661W        W94066  10.376  21.770   2.780
25662W        W94067  28.225  33.542  12.514
25663W        W94068  18.880  21.466   2.605
25664W        W94069  24.983  34.392  11.158
25665W        W94070  43.737  28.974  12.967
25666W        W94071  18.967  36.449   3.311
25667W        W94072  41.347  34.344   4.168
25668W        W94073  25.431  24.182   4.356
25669W        W94074  35.875  23.470   2.802
25670W        W94075   2.717  17.652   3.749
25671W        W94076  24.184   9.585   1.428
25672W        W94077  40.464  23.967   4.587
25673W        W94078   7.200  33.986   3.738
25674W        W94079  14.384  37.735  11.938
25675W        W94080  35.526   2.682  14.536
25676W        W94081  27.840   5.851  12.388
25677W        W94082  40.566  38.686   2.936
25678W        W94083  42.118  17.999   4.999
25679W        W94084  42.481  39.532   4.635
25680W        W94085  13.330   0.908   1.361
25681W        W94086  38.514  10.405   1.755
25682W        W94087  37.767  20.713  10.555
25683W        W94088  26.117   3.874  14.315
25684W        W94089   0.863   4.312   3.114
25685W        W94090  13.360  15.671  11.177
25686W        W94091   2.598  20.634  13.443
25687W        W94092   5.996  15.938   3.079
25688W        W94093   0.798  36.465  13.470
25689W        W94094  42.972  26.908   1.284
25690W        W94095  13.922   1.826  11.353
25691W        W94096  18.585  37.884   4.622
25692W        W94097  12.152  11.823  14.340
25693W        W94098   0.593  39.947   0.754
25694W        W94099  33.132  22.536  10.557
25695W        W94100  34.245  41.269   1.314
25696W        W94101  30.670  10.407   2.267
25697W        W94102  43.409  19.266   4.313
25698W        W94103  25.992  26.495   0.889
25699W        W94104   2.037  17.329   2.277
25700W        W94105   9.174  33.618  14.460
25701W        W94106  34.725   0.335  11.230
25702W        W94107  16.767  42.939   3.271
25703W        W94108  22.526  25.642   0.054
25704W        W94109  37.034   0.942   1.832
25705W        W94110  33.027  28.636  10.622
25706W        W94111  39.526  43.398   2.370
25707W        W94112  25.675  37.003  12.079
25708W        W94113  16.546  10.220  12.876
25709W        W94114  25.585  30.529  11.654
25710W        W94115   3.462   7.890   0.507
25711W        W94116  15.639  10.418  12.071
25712W        W94117  26.575  28.429   3.614
25713W        W94118   5.336  37.126   0.630
25714W        W94119  24.195  22.307  14.047
25715W        W94120  28.982  33.374  14.808
25716W        W94121   1.077  20.135   1.512
25717W        W94122  13.913   8.661   4.562
25718W        W94123  20.089  37.320  11.735
25719W        W94124  37.514  43.783   0.041
25720W        W94125  13.341   1.666   3.605
25721W        W94126  10.953  32.496   3.358
25722W        W94127   9.801  34.720  12.686
25723W        W94128  36.630   8.069  13.892
25724W        W94129   2.482  40.186  14.690
25725W        W94130  34.941   6.234   5.059
25726W        W94131   9.387  22.840  11.684
25727W        W94132  26.620  27.082   2.247
25728W        W94133  21.581   2.172   4.260
25729W        W94134  37.559  40.508   4.603
25730W        W94135  21.629  30.140  12.969
25731W        W94136  37.368  13.207  14.396
25732W        W94137   0.510  41.007  14.752
25733W        W94138  27.894   4.282   2.605
25734W        W94139  23.480  13.933  11.948
25735W        W94140  18.555  20.645   1.556
25736W        W94141  28.429  42.264  11.007
25737W        W94142   2.965  35.324   4.715
25738W        W94143   1.388   8.884   2.007
25739W        W94144  11.673  22.998  13.968
25740W        W94145   1.717  14.144  12.949
25741W        W94146   6.903   5.340   2.339
25742W        W94147   3.460  15.038  11.839
25743W        W94148  10.699  13.162   2.946
25744W        W94149   1.892  12.891   4.561
25745W        W94150   1.122   9.904   4.284
25746W        W94151  40.550  41.841   1.132
25747W        W94152   5.492  24.621  11.128
25748W        W94153  23.228   8.703   4.686
25749W        W94154   8.268  13.774  10.221
25750W        W94155  18.572   6.659   3.803
25751W        W94156  18.057  37.586   1.374
25752W        W94157  19.040  42.434  13.584
25753W        W94158  25.790   9.359  10.752
25754W        W94159   5.676  22.248  13.004
25755W        W94160   9.106  22.621   0.386
25756W        W94161   3.559  19.435   4.329
25757W        W94162   2.972  10.818  13.809
25758W        W94163   2.960  21.136  13.962
25759W        W94164  10.313   7.279  12.133
25760W        W94165   9.670  41.318  13.098
25761W        W94166  32.519  34.929  11.221
25762W        W94167   9.859  32.626   4.533
25763W        W94168  43.197  44.009   3.700
25764W        W94169  20.840  17.111   4.594
25765W        W94170  30.927  44.042  13.860
25766W        W94171  28.086  38.769   0.436
25767W        W94172   1.213  41.144  11.921
25768W        W94173  22.181  11.099  10.598
25769W        W94174  29.226  24.954  11.294
25770W        W94175  13.188  32.574   3.638
25771W        W94176   2.575  30.050  14.601
25772W        W94177   1.467  19.725   0.327
25773W        W94178   1.402   6.590   2.089
25774W        W94179  41.221  41.364  14.452
25775W        W94180  16.083  37.332   0.989
25776W        W94181   2.554  13.316  13.384
25777W        W94182  41.846  22.688   0.791
25778W        W94183  30.617  11.808  13.929
25779W        W94184  41.540   1.030   2.263
25780W        W94185  19.004  12.574   2.201
25781W        W94186  35.982  35.017   2.599
25782W        W94187  43.498  44.143   4.827
25783W        W94188  22.498  11.313  12.355
25784W        W94189  11.957  16.337  11.497
25785W        W94190  35.345  33.092   4.763
25786W        W94191  40.400  14.561   4.611
25787W        W94192  13.346  32.869   4.954
25788W        W94193  16.076   7.705  13.469
25789W        W94194  38.095  33.382  13.846
25790W        W94195  14.629  34.510   4.151
25791W        W94196  18.787  39.278   0.393
25792W        W94197  36.803  21.531  14.882
25793W        W94198  23.030  20.803  14.250
25794W        W94199  36.817   8.280  10.958
25795W        W94200  38.222  24.003   0.860
25796W        W94201  32.110   6.213   4.057
25797W        W94202   8.190  13.065  10.726
25798W        W94203  21.993  39.864  12.678
25799W        W94204   4.888  44.381   2.356
25800W        W94205  15.241   8.189   2.749
25801W        W94206  26.209  26.399   0.067
25802W        W94207  20.380  21.149  11.254
25803W        W94208  36.590  34.443   2.792
25804W        W94209  24.792  35.079  14.301
25805W        W94210  16.812  21.643  10.498
25806W        W94211   0.340  20.133  13.895
25807W        W94212  24.835  11.040  10.848
25808W        W94213   2.305  21.678  14.553
25809W        W94214   5.039  43.910   0.355
25810W        W94215  11.598   0.952  14.490
25811W        W94216   2.934  36.095   3.194
25812W        W94217  40.409   0.771   2.629
25813W        W94218   4.816  39.516  10.390
25814W        W94219  40.825   1.994  14.833
25815W        W94220  21.569   4.274   4.535
25816W        W94221  12.625  19.746   0.366
25817W        W94222  13.396   8.663   5.002
25818W        W94223  43.557   6.249  10.699
25819W        W94224  25.585  32.021  12.511
25820W        W94225  13.091  15.856  14.172
25821W        W94226  16.596  27.462   1.488
25822W        W94227  36.153  30.993  11.480
25823W        W94228  11.552  14.310   2.822
25824W        W94229  33.575  24.291   1.320
25825W        W94230  11.696  34.595   0.788
25826W        W94231  32.591  21.578  13.799
25827W        W94232  20.015   3.724   4.195
25828W        W94233  29.640  33.533  13.544
25829W        W94234  13.838  15.697  10.991
25830W        W94235  26.740   5.757   0.316
25831W        W94236  12.884  22.033  11.917
25832W        W94237  38.868   5.320  10.750
25833W        W94238   5.515  40.310   3.224
25834W        W94239  36.111  28.244   4.064
25835W        W94240   5.171   3.444   1.828
25836W        W94241  10.007  19.769  14.021
25837W        W94242  19.044  29.922   3.165
25838W        W94243  41.205   8.699  13.985
25839W        W94244  44.784  16.591   0.392
25840W        W94245   5.420   5.478   9.674
25841W        W94246  30.461  21.946   1.541
25842W        W94247  26.865  28.676  12.018
25843W        W94248  33.265  22.024   0.017
25844W        W94249  33.974  39.104  13.435
25845W        W94250   2.527   1.202  10.652
25846W        W94251  31.480  24.334  12.058
25847W        W94252   0.004  34.511   2.332
25848W        W94253  27.311  17.180  14.661
25849W        W94254  11.629  36.857   3.815
25850W        W94255  22.105  19.276   3.708
25851W        W94256  31.584  28.335  12.964
25852W        W94257  34.328  44.548  12.987
25853W        W94258  35.396  22.808   4.683
25854W        W94259  24.252   2.122  12.948
25855W        W94260  26.209  10.349  11.997
25856W        W94261  34.403   4.958   3.505
25857W        W94262  37.441   1.450   3.127
25858W        W94263  12.128  41.323  10.878
25859W        W94264  30.479  20.028   1.607
25860W        W94265  27.226   5.638   3.793
25861W        W94266  25.724  15.564   1.383
25862W        W94267  30.004   8.127  14.226
25863W        W94268  33.984   5.900  14.350
25864W        W94269  34.399  33.784  14.463
25865W        W94270   3.495  38.417  14.869
25866W        W94271  39.566   0.964  14.341
25867W        W94272  20.949   5.678   0.234
25868W        W94273  37.794   5.234  12.821
25869W        W94274  31.964  30.041  10.935
25870W        W94275  42.091  10.917  13.014
25871W        W94276  24.424  19.722   4.951
25872W        W94277   1.343   1.504  10.718
25873W        W94278   7.177   8.156   0.779
25874W        W94279  20.779  32.341   2.821
25875W        W94280   1.181  23.500  14.315
25876W        W94281   7.870  13.543  12.960
25877W        W94282  39.865  43.798   3.277
25878W        W94283  24.742  35.646  14.408
25879W        W94284   8.585  42.862  11.489
25880W        W94285  43.978  16.548  11.490
25881W        W94286  13.059  31.938   4.140
25882W        W94287  27.217   5.545   2.588
25883W        W94288  30.723  38.664  14.371
25884W        W94289  20.561   5.861  14.236
25885W        W94290   1.500  34.954   2.123
25886W        W94291  15.237  23.982   1.905
25887W        W94292  22.493   7.391  10.565
25888W        W94293  26.013  44.342   3.753
25889W        W94294   6.133  39.729  11.228
25890W        W94295  41.891  28.120   2.202
25891W        W94296  39.968   6.383   2.953
25892W        W94297  26.333  22.534  14.910
25893W        W94298  26.596  42.572   3.801
25894W        W94299  12.512  38.292  11.519
25895W        W94300  37.568  37.887   0.395
25896W        W94301   2.123   7.796   4.508
25897W        W94302  10.479  12.699  14.671
25898W        W94303  17.573  37.454  11.604
25899W        W94304  25.427  41.304  12.473
25900W        W94305  33.604   1.473  10.991
25901W        W94306  25.267  12.465  13.095
25902W        W94307  16.225  16.556   3.175
25903W        W94308   1.033  39.457   3.697
25904W        W94309  41.908  19.837  12.647
25905W        W94310   1.290   6.436  13.620
25906W        W94311  42.071   4.220  14.760
25907W        W94312  31.427   0.941   1.139
25908W        W94313  12.011  44.115   0.195
25909W        W94314  15.997  30.281   5.097
25910W        W94315  44.566  14.560   4.883
25911W        W94316  34.168   3.975  10.691
25912W        W94317  44.401  11.533  13.138
25913W        W94318   4.004   7.748   0.486
25914W        W94319  21.205  15.377  12.876
25915W        W94320  32.098   3.907   0.497
25916W        W94321  30.596   7.112  14.794
25917W        W94322  35.035  39.968  10.665
25918W        W94323  13.760   4.710  11.115
25919W        W94324  18.764  35.368  11.051
25920W        W94325   7.914   8.839  11.470
25921W        W94326  16.933   5.631   1.840
25922W        W94327  36.069  13.451   3.130
25923W        W94328  30.426  37.033  11.211
25924W        W94329  27.983   9.832   2.454
25925W        W94330  26.193   0.470  10.751
25926W        W94331  20.530  18.206   1.304
25927W        W94332  12.362  24.970  14.223
25928W        W94333  36.807  17.646   0.783
25929W        W94334  35.527   1.514  11.211
25930W        W94335  39.789   0.524  11.155
25931W        W94336  37.575  31.564   1.253
25932W        W94337   2.645   7.774   4.485
25933W        W94338  20.610  22.619   3.599
25934W        W94339   2.416  25.553   1.964
25935W        W94340  39.441  18.270  11.625
25936W        W94341  16.136  14.394   2.633
25937W        W94342  22.077  15.836  13.750
25938W        W94343   8.962  15.122   2.575
25939W        W94344  39.742  26.058   4.317
25940W        W94345   1.006  24.780   0.897
25941W        W94346  24.519  30.850  13.061
25942W        W94347   0.027   4.823  13.205
25943W        W94348  39.761  20.527  11.628
25944W        W94349   1.822  38.290  11.196
25945W        W94350  42.827  40.074  10.350
25946W        W94351  30.111  42.363  11.553
25947W        W94352  31.945  36.583   3.138
25948W        W94353  42.694  38.995  13.407
25949W        W94354  23.582  37.553   2.664
25950W        W94355  40.505  31.150  13.026
25951W        W94356  28.061   9.252  11.688
25952W        W94357   2.052  44.906  10.856
25953W        W94358   7.163  37.174  13.546
25954W        W94359   2.938  40.968   2.809
25955W        W94360  32.832  22.715   2.657
25956W        W94361  17.081  32.183  14.445
25957W        W94362  26.789   9.676   3.273
25958W        W94363  17.281  18.322   1.847
25959W        W94364  40.836  35.535   4.216
25960W        W94365   8.766  39.277   0.736
25961W        W94366  33.420  18.439  10.740
25962W        W94367  25.438   3.687  14.471
25963W        W94368  33.926   7.295  14.360
25964W        W94369  14.874   0.439   1.302
25965W        W94370   1.606   3.600  13.841
25966W        W94371  35.157  23.823   2.282
25967W        W94372  29.953   4.084  12.980
25968W        W94373   3.567  42.558   2.224
25969W        W94374   5.503  43.006   2.800
25970W        W94375  25.570   2.815   3.852
25971W        W94376  12.467  15.332  11.047
25972W        W94377  14.518  28.720   0.704
25973W        W94378  42.853  11.311   0.308
25974W        W94379  17.694  13.534   1.765
25975W        W94380   9.866   5.184  11.293
25976W        W94381  25.686   2.408  14.032
25977W        W94382   0.568  36.918   0.160
25978W        W94383   5.367  37.733   2.437
25979W        W94384  31.662  11.288   2.424
25980W        W94385  36.096   5.768  14.257
25981W        W94386  25.568  30.204   4.215
25982W        W94387  11.754  17.813  13.287
25983W        W94388  22.989  41.218  12.444
25984W        W94389  19.810   0.923  11.937
25985W        W94390  30.070  35.440   3.430
25986W        W94391   2.211  31.545   1.413
25987W        W94392  23.059  23.479  11.131
25988W        W94393  24.205  25.272   0.868
25989W        W94394  22.281   7.430   2.827
25990W        W94395  36.505  32.482  14.916
25991W        W94396  34.387  42.811   3.250
25992W        W94397  34.385  34.523   0.251
25993W        W94398   9.849  35.576   3.223
25994W        W94399  20.566   7.788   1.734
25995W        W94400  31.389  10.301   2.802
25996W        W94401  14.640  41.020   0.293
25997W        W94402  21.822   6.805   4.144
25998W        W94403  35.807  19.572  14.270
25999W        W94404  29.515  23.853   2.392
26000W        W94405  27.459  42.294  13.541
26001W        W94406  32.665   3.540  11.772
26002W        W94407  11.747  30.112  11.178
26003W        W94408  37.971  10.575   1.920
26004W        W94409   0.886   6.494   2.828
26005W        W94410   3.901   7.775   4.094
26006W        W94411  23.560   8.375   3.301
26007W        W94412  35.529   8.298   3.759
26008W        W94413  36.396  10.667   1.891
26009W        W94414  23.710  21.067  11.863
26010W        W94415  12.234  32.296   4.568
26011W        W94416  32.945   3.361   0.002
26012W        W94417   7.758  40.618   3.628
26013W        W94418  30.787  24.770   5.070
26014W        W94419   0.765   6.635  12.410
26015W        W94420  34.537  31.521  13.155
26016W        W94421  29.009  22.579  14.011
26017W        W94422  29.941  39.770   0.371
26018W        W94423   5.445   2.041  14.403
26019W        W94424  11.754  38.097   3.322
26020W        W94425  13.880   4.321  13.506
26021W        W94426  13.198  26.413  14.423
26022W        W94427  39.346  23.028  10.790
26023W        W94428  24.649  42.505  12.118
26024W        W94429  14.198  28.600  12.917
26025W        W94430  39.531  35.247  13.429
26026W        W94431  22.029  21.244   4.651
26027W        W94432  15.780   3.270   4.190
26028W        W94433   9.053   0.058  12.401
26029W        W94434  34.381  33.055   4.395
26030W        W94435   5.748   5.346   4.791
26031W        W94436   4.985  17.153  13.255
26032W        W94437   7.836  44.520  11.723
26033W        W94438  33.344  41.126   4.557
26034W        W94439  24.025   7.676  14.888
26035W        W94440  13.048  11.110   1.306
26036W        W94441  39.993   1.440  11.072
26037W        W94442  13.110   8.480   1.865
26038W        W94443  22.147  15.070  13.119
26039W        W94444  23.183  43.035  11.978
26040W        W94445  35.656  14.362  12.809
26041W        W94446  25.498  36.526  13.421
26042W        W94447  12.182  11.827  13.582
26043W        W94448  18.145  39.028   1.966
26044W        W94449   7.869   3.059   3.274
26045W        W94450  31.854  43.271  11.491
26046W        W94451  32.118  19.673   4.100
26047W        W94452  13.324  13.256   3.349
26048W        W94453  38.047  33.579   3.625
26049W        W94454  18.842  29.644   0.311
26050W        W94455  27.606  43.971   0.873
26051W        W94456  35.387  18.158   0.735
26052W        W94457   6.687   5.030  11.479
26053W        W94458   3.741  17.274  12.626
26054W        W94459   3.850  11.814   0.545
26055W        W94460   7.281   9.867   1.964
26056W        W94461  41.901  13.856   4.771
26057W        W94462  40.897  14.126   2.226
26058W        W94463   3.926  41.000  12.481
26059W        W94464   6.350  27.717   0.527
26060W        W94465  13.673  30.467   2.947
26061W        W94466   2.794  41.337   0.038
26062W        W94467  23.122  33.203  14.302
26063W        W94468  12.754   7.794   2.438
26064W        W94469  16.965  19.489  12.081
26065W        W94470  38.496  27.485  14.001
26066W        W94471  14.727  28.643  13.034
26067W        W94472  39.744  15.899   2.586
26068W        W94473   0.772  23.174  14.677
26069W        W94474  26.992  32.813   4.182
26070W        W94475  26.189  38.919   4.492
26071W        W94476  22.644  26.275   4.056
26072W        W94477  41.556  28.757  11.217
26073W        W94478  38.566   6.947   4.112
26074W        W94479  40.844  22.606  12.695
26075W        W94480  22.293  43.808   2.333
26076W        W94481  37.683  39.724  14.477
26077W        W94482  41.584  17.333   0.785
26078W        W94483  15.102   0.315  11.557
26079W        W94484  10.589  27.146  10.231
26080W        W94485   4.948  20.636  14.305
26081W        W94486  17.621  35.735  10.269
26082W        W94487  12.307  16.685   1.411
26083W        W94488  16.131   7.722   2.393
26084W        W94489  43.301  44.845   3.156
26085W        W94490   7.159  33.009   3.093
26086W        W94491   6.172   0.071   4.105
26087W        W94492   9.817  23.595  11.278
26088W        W94493  38.918   4.296  10.539
26089W        W94494  31.178  33.462   3.154
26090W        W94495  35.382  10.500  13.985
26091W        W94496   3.438  25.321  10.651
26092W        W94497  24.124  31.685  13.015
26093W        W94498  28.005  13.892  11.255
26094W        W94499  28.286  42.957   1.364
26095W        W94500  14.360  22.276  13.571
26096W        W94501   2.800   8.864  12.359
26097W        W94502   1.935  20.258   4.029
26098W        W94503  36.424  36.042   1.026
26099W        W94504  14.533  30.152   2.733
26100W        W94505  39.503  31.146   3.780
26101W        W94506  17.538  21.226  13.405
26102W        W94507  35.032  43.059  14.489
26103W        W94508  44.418  16.724  14.522
26104W        W94509  33.890   5.442  14.037
26105W        W94510  42.909   7.584  10.384
26106W        W94511  29.561  42.561   2.376
26107W        W94512   1.342  26.877  14.369
26108W        W94513   6.806  43.936   4.446
26109W        W94514   4.793  33.048   3.067
26110W        W94515  21.151  44.892  13.520
26111W        W94516   5.257  27.552   1.385
26112W        W94517  20.479   0.223  13.544
26113W        W94518   1.260  28.673   2.316
26114W        W94519  24.897  11.226   4.407
26115W        W94520   8.193   8.737   3.721
26116W        W94521  37.696  26.464  11.936
26117W        W94522  28.714  36.428   4.034
26118W        W94523   1.745  23.090   4.590
26119W        W94524  43.786   3.050  13.884
26120W        W94525  24.517   9.559   0.684
26121W        W94526  15.139   2.042  14.581
26122W        W94527   7.241  39.949  12.418
26123W        W94528  17.625  34.913   4.576
26124W        W94529  11.125  20.125  13.573
26125W        W94530  40.285  18.751  14.056
26126W        W94531  10.412  30.022  13.414
26127W        W94532  17.761  27.870  12.973
26128W        W94533  33.940   2.294   0.055
26129W        W94534  43.211  38.489   4.452
26130W        W94535  40.080   5.321   1.869
26131W        W94536   6.361  44.532   4.148
26132W        W94537   9.281  41.489   2.561
26133W        W94538  10.676  13.707  10.970
26134W        W94539  40.488   6.285   3.684
26135W        W94540  42.702  44.613   5.190
26136W        W94541  26.542  19.614  11.590
26137W        W94542  39.832   7.797  10.586
26138W        W94543   3.451  31.829  13.080
26139W        W94544   8.177  42.370  13.962
26140W        W94545   9.977  42.472   2.046
26141W        W94546  39.423  12.123   2.191
26142W        W94547  28.040  28.924  12.294
26143W        W94548   0.232  17.999   4.145
26144W        W94549  10.570  30.491   3.768
26145W        W94550  43.517   3.344   4.247
26146W        W94551  18.448   8.522  12.469
26147W        W94552   3.277   2.740   1.469
26148W        W94553  12.718   5.072  14.812
26149W        W94554  41.342  23.663   4.296
26150W        W94555   6.785  39.559   4.657
26151W        W94556   0.073  25.679   2.761
26152W        W94557  15.167  25.429  10.412
26153W        W94558  41.114  39.942   1.249
26154W        W94559  39.308  25.241   1.348
26155W        W94560  37.005  18.991   3.303
26156W        W94561  18.625  10.377  10.598
26157W        W94562  16.603  41.316   0.559
26158W        W94563  14.122  13.830  12.074
26159W        W94564  38.440  20.332  10.715
26160W        W94565  11.128   2.997  12.012
26161W        W94566   4.267  44.830   3.715
26162W        W94567  25.525  26.793   0.387
26163W        W94568   4.661  12.571   2.445
26164W        W94569  33.365  23.566  11.436
26165W        W94570   7.929  39.497  10.624
26166W        W94571  11.645  38.813  11.766
26167W        W94572  37.065  13.944  12.921
26168W        W94573  13.397  27.530   3.302
26169W        W94574  14.812  41.324  14.892
26170W        W94575  29.157  38.098   4.665
26171W        W94576   4.461   5.643  13.450
26172W        W94577  23.054  20.331  14.035
26173W        W94578  29.883  12.534  11.123
26174W        W94579  17.281  14.204   0.745
26175W        W94580  25.250  16.391  11.141
26176W        W94581  32.008  12.192   4.893
26177W        W94582  32.114  21.511   3.846
26178W        W94583  27.552  43.732  12.996
26179W        W94584  13.794  35.105  13.259
26180W        W94585  35.823  41.828   1.203
26181W        W94586   0.364  15.156  12.602
26182W        W94587  37.853  36.429   3.667
26183W        W94588  43.726   1.763  12.001
26184W        W94589  17.210  10.200  10.044
26185W        W94590  23.655   0.945  12.004
26186W        W94591   0.800   7.777   4.312
26187W        W94592  43.405   4.477  13.781
26188W        W94593  21.035  35.898   3.663
26189W        W94594  20.527  24.396   4.686
26190W        W94595  37.994  17.721  11.091
26191W        W94596  36.602  23.615  12.898
26192W        W94597  17.300  17.685  13.900
26193W        W94598  41.809   8.882   0.723
26194W        W94599  26.301  42.402  12.863
26195W        W94600  26.772  43.032   4.222
26196W        W94601  40.361  28.851   3.589
26197W        W94602   4.935  25.078   4.419
26198W        W94603   1.559  13.313   3.949
26199W        W94604   8.196  18.692  13.511
26200W        W94605  33.163  11.916  11.198
26201W        W94606   1.706  43.108  14.891
26202W        W94607  19.190   6.987  12.804
26203W        W94608  43.013  22.009   2.146
26204W        W94609  29.158   8.974   0.368
26205W        W94610  35.173   8.290  14.118
26206W        W94611   2.491  17.610  13.806
26207W        W94612  26.063  41.930   2.852
26208W        W94613  24.180  37.139   0.477
26209W        W94614  16.289   7.764  13.994
26210W        W94615  32.751  11.190  14.116
26211W        W94616  43.955  32.223   0.266
26212W        W94617  25.028  24.086   3.600
26213W        W94618  11.875   6.228  12.945
26214W        W94619  14.686  41.050  12.953
26215W        W94620  33.395   4.218   1.003
26216W        W94621  21.021  23.530  13.592
26217W        W94622  37.052  37.459  11.582
26218W        W94623  41.702  42.632   1.330
26219W        W94624  40.251  29.348   2.205
26220W        W94625   2.883  41.337   1.008
26221W        W94626  16.618  41.830  10.756
26222W        W94627  15.119   0.041   2.565
26223W        W94628  23.507  15.696  10.670
26224W        W94629  12.370   5.403  13.608
26225W        W94630  15.420   0.809  13.714
26226W        W94631  36.009  26.076  12.059
26227W        W94632  23.441  17.808  10.979
26228W        W94633   9.117  20.170  14.348
26229W        W94634  34.025  32.390  14.910
26230W        W94635  41.773   2.050   0.742
26231W        W94636  16.743   5.355  11.412
26232W        W94637  23.745  37.595   1.785
26233W        W94638   7.464  35.689   1.212
26234W        W94639   7.932  32.942  14.891
26235W        W94640  42.174  35.002   3.315
26236W        W94641  40.015  29.536   3.780
26237W        W94642  39.329  44.344  12.142
26238W        W94643  12.537  30.660   0.544
26239W        W94644   0.511  28.704   0.946
26240W        W94645  38.670  38.401  11.502
26241W        W94646  43.725  12.216  14.825
26242W        W94647   3.975  40.991  11.136
26243W        W94648  26.593  42.467   0.675
26244W        W94649  13.110  35.273   4.179
26245W        W94650  13.508  11.574   2.490
26246W        W94651  12.192  31.272   4.666
26247W        W94652  25.233   8.914  12.884
26248W        W94653  27.029   3.353  11.839
26249W        W94654  10.883  28.871  13.706
26250W        W94655  42.120  10.461   5.297
26251W        W94656  21.816  37.604  10.723
26252W        W94657  16.815  21.205  10.764
26253W        W94658  13.165  17.758   1.030
26254W        W94659  20.828   3.767   1.776
26255W        W94660  20.775  23.255   2.782
26256W        W94661  37.905  25.851  12.940
26257W        W94662  43.831  29.144  13.555
26258W        W94663   9.090  39.024  11.530
26259W        W94664  33.396  22.626   3.068
26260W        W94665  30.192  14.422  14.315
26261W        W94666   5.689   9.752   3.137
26262W        W94667  23.957  38.530   4.300
26263W        W94668  12.602   6.058   2.858
26264W        W94669  37.436   0.908   4.567
26265W        W94670   2.175  32.976   2.914
26266W        W94671  38.007  18.389   3.245
26267W        W94672   6.289  16.063  13.070
26268W        W94673  20.239  16.298  12.460
26269W        W94674  37.794  43.251  12.907
26270W        W94675  17.594  38.942  11.590
26271W        W94676  12.853  15.001   4.760
26272W        W94677  34.529  20.787  13.605
26273W        W94678   2.814  20.732  12.139
26274W        W94679  17.043  21.483   3.343
26275W        W94680  28.245  11.036  12.397
26276W        W94681  12.702  44.016  11.564
26277W        W94682  34.366  39.281   1.393
26278W        W94683   7.372  16.730   3.514
26279W        W94684  37.450   3.257  13.338
26280W        W94685  27.978  12.656  13.871
26281W        W94686  43.784  23.634  12.072
26282W        W94687  41.742  23.103  10.852
26283W        W94688  21.315  24.030  12.812
26284W        W94689  35.997  37.852  13.056
26285W        W94690   5.900   0.257  13.425
26286W        W94691  30.592  12.549   0.801
26287W        W94692  22.664   4.926  14.452
26288W        W94693  16.116  38.869   0.753
26289W        W94694   3.849  27.687   1.465
26290W        W94695  15.129  37.437  13.577
26291W        W94696  29.739  38.892  13.026
26292W        W94697  35.922  11.289   3.169
26293W        W94698   1.193  16.623   4.596
26294W        W94699   6.293  20.423  11.213
26295W        W94700  25.993  29.018   3.717
26296W        W94701  44.816  24.979   1.427
26297W        W94702  29.055  29.605   0.884
26298W        W94703  23.177  24.796  14.976
26299W        W94704  34.292  17.730  12.565
26300W        W94705  30.916  44.409   2.304
26301W        W94706  22.637  17.551  13.452
26302W        W94707   1.375   6.730  14.814
26303W        W94708  30.195  24.670   3.322
26304W        W94709  11.943  32.473   2.427
26305W        W94710   2.417  20.266  10.916
26306W        W94711  31.585  42.778   1.336
26307W        W94712  17.833  21.115  12.965
26308W        W94713  25.466   6.379   1.908
26309W        W94714   7.758   9.249  12.552
26310W        W94715  12.095  29.120   1.595
26311W        W94716  16.618  13.802  10.504
26312W        W94717  14.707   0.295  11.888
26313W        W94718  33.728   7.372   3.561
26314W        W94719   8.153  23.015   0.791
26315W        W94720  16.718  42.058   0.216
26316W        W94721  24.324   6.496  11.280
26317W        W94722  34.147  15.272   3.162
26318W        W94723  31.445  40.454   4.764
26319W        W94724  10.715  32.145  13.583
26320W        W94725  34.115  14.785   3.533
26321W        W94726  21.248  39.125  12.142
26322W        W94727  21.525  35.048  10.220
26323W        W94728  39.342  27.938   4.054
26324W        W94729  28.403  15.773  13.431
26325W        W94730  32.197   7.451  14.026
26326W        W94731   0.013  28.180  14.896
26327W        W94732  28.893  22.728   1.924
26328W        W94733  20.407  24.437  13.935
26329W        W94734  19.518   1.995   0.429
26330W        W94735  41.771  41.587  12.132
26331W        W94736  11.055  43.984   4.822
26332W        W94737  21.770   8.265   1.926
26333W        W94738  16.251   9.243   2.769
26334W        W94739   5.223  23.283   0.314
26335W        W94740  30.325   1.757  12.409
26336W        W94741  31.038   5.215  10.671
26337W        W94742  28.402  25.992   3.091
26338W        W94743  21.215  22.077   1.462
26339W        W94744  29.972  17.846   3.102
26340W        W94745  30.455  27.097  10.491
26341W        W94746  31.098  18.604   2.288
26342W        W94747  23.461  38.576  13.008
26343W        W94748  39.813  41.133   3.707
26344W        W94749  28.696   5.658  12.477
26345W        W94750   0.290  12.610  14.477
26346W        W94751  35.019  19.090   2.153
26347W        W94752  35.160  40.654  11.218
26348W        W94753  11.830  29.252   2.742
26349W        W94754  14.769   6.337  11.894
26350W        W94755  37.564  15.977  10.204
26351W        W94756  17.085  29.544  14.057
26352W        W94757  33.860  24.901   0.951
26353W        W94758  39.525  29.048   4.055
26354W        W94759  23.950  26.090  14.871
26355W        W94760  43.259  17.762   2.405
26356W        W94761  18.451  38.967  13.393
26357W        W94762  33.417  31.921   4.218
26358W        W94763  25.065  37.560  11.979
26359W        W94764   3.364  23.015   0.902
26360W        W94765  25.493  36.375  10.672
26361W        W94766  22.125  31.754   1.543
26362W        W94767  34.875  31.841   4.112
26363W        W94768  36.447  36.325   2.757
26364W        W94769  33.648  33.581  14.989
26365W        W94770  17.134  11.206   2.251
26366W        W94771  31.574  35.970  14.199
26367W        W94772  42.470   1.766  11.447
26368W        W94773  26.523  24.263   3.450
26369W        W94774  31.324  16.766  12.336
26370W        W94775   8.816  25.215  12.055
26371W        W94776   8.544  10.413  11.755
26372W        W94777  43.633  30.252  11.501
26373W        W94778  37.090  27.060   1.423
26374W        W94779   9.225  36.003   4.622
26375W        W94780   6.626  18.621  11.057
26376W        W94781   2.361  18.833   4.567
26377W        W94782  30.555  11.035  13.584
26378W        W94783  34.461  38.375   1.353
26379W        W94784   1.402  34.337   3.347
26380W        W94785  39.874   2.299  13.309
26381W        W94786   5.880  37.964   0.238
26382W        W94787  36.348  10.260  12.821
26383W        W94788   8.835  10.644   4.830
26384W        W94789  27.145  25.139   4.912
26385W        W94790  26.437  34.222  14.744
26386W        W94791   5.976  39.414   0.351
26387W        W94792  19.781  42.053   3.348
26388W        W94793  12.677  31.597  10.213
26389W        W94794   1.534  16.189  13.028
26390W        W94795  35.440  19.789   1.895
26391W        W94796   7.621  34.005  11.895
26392W        W94797  35.390  28.437   1.786
26393W        W94798  29.021  16.646  13.478
26394W        W94799   2.949  17.692   4.216
26395W        W94800  15.622  27.262   3.618
26396W        W94801  25.626  37.072   0.269
26397W        W94802  28.059   2.981   0.976
26398W        W94803   1.303  12.393   0.960
26399W        W94804  15.058   7.222   4.636
26400W        W94805  33.933  11.552   2.709
26401W        W94806   4.243  41.186   3.732
26402W        W94807  13.784  18.332  12.374
26403W        W94808  18.646  33.492   1.967
26404W        W94809  27.140  30.065   3.118
26405W        W94810  12.212  11.481  13.972
26406W        W94811   6.295  15.575   2.861
26407W        W94812  18.992  38.035  10.530
26408W        W94813   6.949  12.735   2.820
26409W        W94814  26.980  15.092  14.800
26410W        W94815  35.941  31.657   1.768
26411W        W94816  40.278  41.361  13.358
26412W        W94817  29.060  27.578   1.887
26413W        W94818  11.080  23.012   3.257
26414W        W94819  30.907  13.668   0.934
26415W        W94820   7.654  20.629   3.424
26416W        W94821  23.155  11.898   0.878
26417W        W94822  43.037  19.638  14.322
26418W        W94823  33.918  19.036  14.787
26419W        W94824  38.854  25.073   0.412
26420W        W94825  43.983  28.026   1.367
26421W        W94826   0.050   7.871   2.250
26422W        W94827  13.623  26.899  12.630
26423W        W94828  10.246  41.068   2.197
26424W        W94829   8.341  33.488   4.679
26425W        W94830  26.466  30.466   0.850
26426W        W94831  17.909  41.878  13.857
26427W        W94832  15.024  29.102  13.891
26428W        W94833  10.571  36.594   0.734
26429W        W94834   3.881   0.709   1.305
26430W        W94835  31.540  40.076  13.024
26431W        W94836  26.521  30.964   0.682
26432W        W94837  44.804  19.742   3.175
26433W        W94838  30.131  12.742   0.674
26434W        W94839  24.274  26.222   3.246
26435W        W94840   9.760  14.102   1.410
26436W        W94841   8.183  22.522   1.223
26437W        W94842  33.118   7.004   2.783
26438W        W94843  16.105  30.289   2.911
26439W        W94844  24.089  30.825   4.483
26440W        W94845  15.107   0.297  14.382
26441W        W94846  11.606  18.014  13.751
26442W        W94847  20.131  20.507   1.340
26443W        W94848   0.770  42.134   4.043
26444W        W94849  28.138   1.388  10.946
26445W        W94850   4.943  42.456   4.479
26446W        W94851   5.412  29.863   4.680
26447W        W94852  44.426  10.112  10.338
26448W        W94853  33.443  30.565   1.157
26449W        W94854  16.310  25.888   0.182
26450W        W94855  17.354  27.706  14.162
26451W        W94856   7.258  24.093  12.328
26452W        W94857  24.544   5.460  13.866
26453W        W94858  36.631  13.737  13.493
26454W        W94859   6.749   8.886   4.365
26455W        W94860  12.151   3.956   0.891
26456W        W94861  25.953   6.133  12.864
26457W        W94862  16.661  13.873   3.057
26458W        W94863  25.639  40.536   3.476
26459W        W94864  39.003  11.324   1.634
26460W        W94865  28.210  28.375  11.920
26461W        W94866  30.069  16.244  12.182
26462W        W94867  14.453  43.055  13.652
26463W        W94868  10.667  33.965   2.580
26464W        W94869  27.156   8.756  13.354
26465W        W94870  41.492  31.386  14.388
26466W        W94871  17.676   3.292  11.073
26467W        W94872  44.325  23.088   2.778
26468W        W94873  13.878   7.706   1.607
26469W        W94874  17.789  24.588  12.966
26470W        W94875  41.893   1.302   2.846
26471W        W94876  16.235  43.378   2.740
26472W        W94877  30.448   6.856   4.234
26473W        W94878  14.110   2.687   3.171
26474W        W94879  34.959  17.625  14.286
26475W        W94880  15.255  24.276  12.843
26476W        W94881  11.877   4.704  14.055
26477W        W94882  44.996  20.930   1.548
26478W        W94883  18.550   3.398   2.693
26479W        W94884   4.714  14.814   3.968
26480W        W94885  32.948  30.156  14.533
26481W        W94886  33.782  36.770  13.059
26482W        W94887  37.176   6.983   4.948
26483W        W94888   8.045  31.979  12.769
26484W        W94889  29.553  44.566  13.437
26485W        W94890  10.405  19.559  12.426
26486W        W94891  19.072  28.767   3.618
26487W        W94892   3.152   0.075   2.134
26488W        W94893   3.259  41.414   0.283
26489W        W94894  20.742  44.937   5.033
26490W        W94895  23.490  10.384  13.085
26491W        W94896  26.698  42.430   1.173
26492W        W94897  33.536  21.739   3.169
26493W        W94898  23.722  35.902  11.206
26494W        W94899  15.831   9.404   4.552
26495W        W94900  32.039  31.025  13.469
26496W        W94901  35.975  29.917   2.711
26497W        W94902  12.384  37.290   0.402
26498W        W94903   0.049  30.413   2.140
26499W        W94904  26.456  42.242  13.882
26500W        W94905  40.340   3.190   3.225
26501W        W94906  44.320   7.177  11.601
26502W        W94907  39.592  40.113   3.708
26503W        W94908   5.885   5.529   1.559
26504W        W94909  10.721   2.430   4.933
26505W        W94910  40.156  24.379   2.185
26506W        W94911  13.607  15.126   0.250
26507W        W94912  15.711  17.802  11.135
26508W        W94913  37.580  33.734   5.007
26509W        W94914   6.315  26.557  14.341
26510W        W94915   4.727   7.877   0.725
26511W        W94916  25.824   0.451   4.138
26512W        W94917   2.049  37.627  13.342
26513W        W94918  15.952  42.298  11.148
26514W        W94919   4.988  29.433  14.092
26515W        W94920  20.578  27.902  12.051
26516W        W94921  26.947  20.204  10.357
26517W        W94922  34.934  23.197   1.281
26518W        W94923  16.081  23.239   0.429
26519W        W94924   5.363  17.222  14.416
26520W        W94925  10.351   9.593  12.598
26521W        W94926  38.950   9.721  11.639
26522W        W94927  38.067  44.054  12.718
26523W        W94928  33.133  25.707  11.273
26524W        W94929  18.251  20.260   0.345
26525W        W94930   3.376  14.740  12.729
26526W        W94931  42.177  32.300   2.750
26527W        W94932  18.157   7.010   3.653
26528W        W94933  20.776   0.253   2.848
26529W        W94934   7.995  22.219   4.354
26530W        W94935  39.949  42.679  12.131
26531W        W94936  21.096  26.096  11.113
26532W        W94937  13.373  22.103  11.710
26533W        W94938  24.504  33.397   1.724
26534W        W94939  44.759  28.408   4.700
26535W        W94940  10.583  17.333  11.199
26536W        W94941  19.397   9.404  11.933
26537W        W94942  36.929  23.565   0.892
26538W        W94943  40.585  30.371   3.590
26539W        W94944  22.649  11.070   0.312
26540W        W94945   9.840   9.854  13.797
26541W        W94946  20.738  33.617  12.811
26542W        W94947  42.924   5.202  10.604
26543W        W94948  19.833  35.352   0.690
26544W        W94949   3.088  26.586  10.694
26545W        W94950  20.607  40.397  10.476
26546W        W94951  15.583  40.541   0.798
26547W        W94952  40.999  10.309  11.156
26548W        W94953  12.814  11.262  11.887
26549W        W94954  14.664  32.424  12.493
26550W        W94955  43.927  27.634   3.136
26551W        W94956  12.543   2.861   0.800
26552W        W94957  18.615   6.553   1.452
26553W        W94958  29.353  20.223   4.094
26554W        W94959  42.836  44.925   4.655
26555W        W94960  36.398  11.193  13.060
26556W        W94961  25.715  43.710   4.987
26557W        W94962  34.569  38.237  12.850
26558W        W94963  42.888  20.539   1.183
26559W        W94964  18.183  33.122  12.375
26560W        W94965  18.356  39.136   5.130
26561W        W94966  19.267  13.545  13.402
26562W        W94967   9.284  30.992   3.856
26563W        W94968  27.924  34.915   3.138
26564W        W94969  30.978  27.460  14.850
26565W        W94970  39.752  44.383  11.536
26566W        W94971   8.468   9.377  13.844
26567W        W94972  32.275   3.667  12.441
26568W        W94973  10.722   7.244   2.186
26569W        W94974   3.231  38.085   4.207
26570W        W94975  19.610  13.723   4.070
26571W        W94976  25.671   9.658  14.557
26572W        W94977  23.805  40.670  10.733
26573W        W94978  43.393  15.029   2.233
26574W        W94979  33.650  37.335  12.852
26575W        W94980  10.587   2.344   0.498
26576W        W94981  20.632  26.483   1.609
26577W        W94982   2.998  10.739  13.305
26578W        W94983  16.187  43.830  12.390
26579W        W94984  26.905   7.679  11.602
26580W        W94985  28.698  41.879  12.210
26581W        W94986  43.313   6.319  13.624
26582W        W94987  12.749  12.436  12.477
26583W        W94988   5.754  38.421   0.057
26584W        W94989  10.078  43.956  13.909
26585W        W94990  17.505  35.145  14.665
26586W        W94991  29.679  12.794   4.652
26587W        W94992  40.827  25.289   4.815
26588W        W94993  43.234  31.613  11.465
26589W        W94994  28.673  24.026   4.505
26590W        W94995  42.557   5.825   2.147
26591W        W94996  14.746  35.333   1.676
26592W        W94997   3.659  15.465  11.560
26593W        W94998  17.586  15.082  11.156
26594W        W94999  19.181   3.828  14.285
26595W        W95000   2.431   6.817  12.824
26596W        W95001   9.239  22.853   4.649
26597W        W95002  39.248  19.092   2.208
26598W        W95003  22.363  33.897  14.105
26599W        W95004  14.591  29.649  10.752
26600W        W95005  30.176  24.105  11.876
26601W        W95006   8.568  36.289  13.404
26602W        W95007  38.537  37.774   1.846
26603W        W95008  11.716  41.767  14.331
26604W        W95009  37.604   9.746   1.622
26605W        W95010  44.672  36.676  13.999
26606W        W95011  39.519  21.084   1.247
26607W        W95012  42.819  33.648   0.749
26608W        W95013  37.692  17.076  11.590
26609W        W95014  21.176  27.015   4.140
26610W        W95015   4.635  26.114   2.096
26611W        W95016  40.587  23.148  14.589
26612W        W95017  41.558  40.961  13.083
26613W        W95018  15.346  26.233   3.361
26614W        W95019  36.830   6.447   3.701
26615W        W95020  20.212  19.610   1.670
26616W        W95021  28.236  17.823   2.844
26617W        W95022  11.499  34.076   1.500
26618W        W95023   0.002  34.434   4.339
26619W        W95024  29.646  23.227   4.552
26620W        W95025  14.024   5.220   3.534
26621W        W95026   5.630  28.121   4.551
26622W        W95027  17.565   1.452   2.403
26623W        W95028  26.202  40.437   5.235
26624W        W95029  22.250   3.847   3.120
26625W        W95030  22.950  15.154   4.539
26626W        W95031  18.290   3.160   0.768
26627W        W95032  37.882  10.036   3.362
26628W        W95033  25.119  35.325  14.589
26629W        W95034  35.124  28.752  14.882
26630W        W95035  39.472  12.151   4.706
26631W        W95036   5.218   2.991  14.631
26632W        W95037  41.911  39.339   3.184
26633W        W95038  17.671  12.846   2.373
26634W        W95039  20.728  30.539  13.957
26635W        W95040  24.329  16.919   2.771
26636W        W95041   7.701  31.402   3.743
26637W        W95042   2.424   7.031   3.999
26638W        W95043   4.307  39.232   2.653
26639W        W95044  40.942  40.654   0.549
26640W        W95045  19.551   2.171   3.422
26641W        W95046  20.310   5.341   0.341
26642W        W95047  29.228  23.162   1.881
26643W        W95048  42.796   5.383   3.938
26644W        W95049  25.799  37.081   2.885
26645W        W95050  27.680   6.399  14.430
26646W        W95051   3.225   2.458  13.126
26647W        W95052  11.373  14.264  14.472
26648W        W95053   7.799   1.026   1.375
26649W        W95054  30.108  32.093  14.014
26650W        W95055  12.221  16.879  14.478
26651W        W95056  10.937  35.679   4.763
26652W        W95057  28.870  29.398   0.452
26653W        W95058  15.382   8.864  13.842
26654W        W95059  32.518  20.420   4.589
26655W        W95060  10.522  13.130   1.822
26656W        W95061  43.360  27.147   1.026
26657W        W95062  11.520  30.284   9.933
26658W        W95063  17.308  13.846   3.338
26659W        W95064  36.016  37.084   2.776
26660W        W95065   6.352  13.120  13.935
26661W        W95066   7.980  37.478  13.844
26662W        W95067   5.389  17.956  10.688
26663W        W95068  27.694  38.303   3.661
26664W        W95069  38.316  37.402   2.161
26665W        W95070  31.179  15.220  11.600
26666W        W95071   7.844   7.353  10.674
26667W        W95072  40.862  38.056  14.459
26668W        W95073   7.428  39.798  13.307
26669W        W95074  25.515  41.399  13.518
26670W        W95075  34.566  25.307   4.679
26671W        W95076  27.020  44.574  12.033
26672W        W95077  36.648  15.206   4.792
26673W        W95078  13.759  30.400   1.460
26674W        W95079  35.108  10.550   1.339
26675W        W95080  41.888   5.916  12.401
26676W        W95081  38.105  20.535  13.372
26677W        W95082  35.820  34.073  13.226
26678W        W95083   2.412  23.495  11.508
26679W        W95084   0.282   7.841  14.993
26680W        W95085   8.423  36.934  11.752
26681W        W95086   6.927  33.040  11.029
26682W        W95087  16.613  42.589  14.914
26683W        W95088  39.170  18.128  10.708
26684W        W95089  38.530   2.641  11.586
26685W        W95090  13.254  33.606   3.549
26686W        W95091  13.697  18.611  10.760
26687W        W95092   8.939   1.406   3.348
26688W        W95093  35.314  32.080  12.626
26689W        W95094  11.352   7.480   0.521
26690W        W95095  42.437   2.088  13.969
26691W        W95096  25.575  44.961  11.853
26692W        W95097  44.793  23.267   2.883
26693W        W95098  25.550  25.536  13.073
26694W        W95099  26.454  24.808  12.558
26695W        W95100  11.201  10.780  12.650
26696W        W95101  34.161  27.981   2.749
26697W        W95102  25.586  34.559  14.366
26698W        W95103  16.794  31.558   4.422
26699W        W95104   9.725  13.158   3.045
26700W        W95105  30.479  31.951   1.354
26701W        W95106  25.648  30.473   2.857
26702W        W95107  16.215  10.651   2.196
26703W        W95108  42.548  39.388   3.647
26704W        W95109  11.978   8.159  13.758
26705W        W95110  24.973  30.104  14.975
26706W        W95111  27.933  35.977   4.140
26707W        W95112  30.577   9.740   3.681
26708W        W95113  42.855  11.759  10.709
26709W        W95114  43.090  24.102  11.088
26710W        W95115  29.938  18.731  11.102
26711W        W95116  17.099  29.921  14.484
26712W        W95117  25.638  25.774  12.619
26713W        W95118  22.637  21.162   3.334
26714W        W95119  24.057   6.682  10.884
26715W        W95120  35.467  14.602   1.637
26716W        W95121  42.325   3.737   4.333
26717W        W95122  27.545   5.320  14.091
26718W        W95123  15.587  25.574   1.221
26719W        W95124   0.825  13.518  14.954
26720W        W95125   7.375  22.763  13.893
26721W        W95126  14.973  14.993  13.896
26722W        W95127  16.356  34.729   1.259
26723W        W95128  18.256  27.228   3.281
26724W        W95129   9.576  27.651  10.923
26725W        W95130  16.337  24.067  11.738
26726W        W95131  30.390  13.685   4.740
26727W        W95132  34.591  12.540  13.457
26728W        W95133  43.628  26.533   4.195
26729W        W95134  21.620  27.721   0.548
26730W        W95135  34.369  23.151   4.550
26731W        W95136  38.896  11.908  12.595
26732W        W95137  40.557  24.296   0.883
26733W        W95138  20.081  25.018  12.026
26734W        W95139   8.631  42.025  13.609
26735W        W95140  43.975  28.532  14.304
26736W        W95141  14.291   7.741   3.335
26737W        W95142  35.945  14.299   0.850
26738W        W95143  40.363  19.352   1.438
26739W        W95144  16.039  16.022   0.567
26740W        W95145  18.628  42.706  11.033
26741W        W95146  18.551  35.789  14.989
26742W        W95147  10.889  23.682   4.001
26743W        W95148  42.504  37.181  11.772
26744W        W95149  43.522  16.615   3.183
26745W        W95150  29.890  17.472   2.160
26746W        W95151  29.268  36.896  14.108
26747W        W95152  38.925  42.953   5.107
26748W        W95153  18.307  22.301   0.271
26749W        W95154   2.758  32.533   3.746
26750W        W95155   1.953   4.401   1.346
26751W        W95156  23.925  25.238   1.301
26752W        W95157  32.093  26.474   3.149
26753W        W95158  44.007  36.592  11.061
26754W        W95159  39.958  37.934   2.755
26755W        W95160  12.000  36.552   4.507
26756W        W95161  20.167   8.255   3.662
26757W        W95162  25.464  24.709  11.527
26758W        W95163  32.921  43.768   4.759
26759W        W95164   1.857  11.223   2.868
26760W        W95165  22.750  37.410   2.982
26761W        W95166  12.208  31.485  10.019
26762W        W95167  43.555  43.820   1.372
26763W        W95168  14.332  23.960   0.947
26764W        W95169  19.759   2.268   4.530
26765W        W95170  33.529  23.695  12.092
26766W        W95171  18.638  44.204  12.440
26767W        W95172  40.025  40.793  13.471
26768W        W95173  20.285  33.409  13.162
26769W        W95174  24.156  17.028  12.055
26770W        W95175  16.995   0.773  10.748
26771W        W95176   5.913  33.553  10.773
26772W        W95177   0.936  13.668   1.006
26773W        W95178  29.932  40.043  12.553
26774W        W95179  30.287  37.860  12.207
26775W        W95180  30.734   4.510  13.322
26776W        W95181  35.571  36.719   0.850
26777W        W95182   5.265  14.461   2.702
26778W        W95183  16.450  21.621   4.098
26779W        W95184   2.695  32.489  13.347
26780W        W95185  27.691  25.049   0.158
26781W        W95186  34.290  34.121  13.589
26782W        W95187   9.783  38.644   1.177
26783W        W95188   9.129  16.740   1.719
26784W        W95189  14.349  22.611  13.979
26785W        W95190  11.096  23.245  12.974
26786W        W95191  31.173  35.528   4.260
26787W        W95192  21.661   8.875   4.517
26788W        W95193  42.462  44.862  11.377
26789W        W95194  12.667   6.337   3.302
26790W        W95195  16.615  42.929  10.544
26791W        W95196  43.432  13.741   4.558
26792W        W95197   0.793   6.633  11.459
26793W        W95198  21.129  23.509   4.809
26794W        W95199   2.105  19.597  14.777
26795W        W95200  42.326   3.629   1.875
26796W        W95201  37.328  20.167   3.378
26797W        W95202   2.058  40.934  11.138
26798W        W95203  29.574  31.356   4.235
26799W        W95204  21.917  37.977  13.336
26800W        W95205  23.400   8.387  13.014
26801W        W95206  17.733  44.004  12.576
26802W        W95207   8.509  39.478  10.745
26803W        W95208  39.809   9.220   3.482
26804W        W95209  24.155  36.781  11.547
26805W        W95210  17.695  19.752  11.233
26806W        W95211  21.986  28.787   1.873
26807W        W95212  12.781  11.397  10.379
26808W        W95213  14.082  28.133  11.884
26809W        W95214  39.476  35.538  14.836
26810W        W95215  20.253   3.033  14.393
26811W        W95216  26.943  35.543   2.372
26812W        W95217  42.957  11.730   2.734
26813W        W95218  39.627  20.581   1.828
26814W        W95219  16.206   0.775  12.626
26815W        W95220  44.328  12.354   3.758
26816W        W95221  12.768   7.323   1.200
26817W        W95222   5.654  43.667   4.155
26818W        W95223  17.552  37.289  13.318
26819W        W95224  28.655  20.180   4.969
26820W        W95225  30.715   6.958  11.077
26821W        W95226  14.667  41.179  10.774
26822W        W95227  42.722  27.914  12.121
26823W        W95228  19.086  36.342  12.838
26824W        W95229  20.482   9.280  13.991
26825W        W95230  32.964  23.684  13.841
26826W        W95231   6.953  38.711   0.728
26827W        W95232  32.957  24.164  13.113
26828W        W95233  20.105  12.852  13.095
26829W        W95234  23.054  21.324  14.076
26830W        W95235  31.650  33.547  11.148
26831W        W95236  29.796  14.818  12.118
26832W        W95237   1.035  44.131  13.667
26833W        W95238  34.477  24.495  11.497
26834W        W95239   8.639   0.692  13.403
26835W        W95240  20.828  20.738   1.856
26836W        W95241  22.078  17.053   2.352
26837W        W95242   5.334  29.513  13.691
26838W        W95243  35.752   0.312   0.373
26839W        W95244  16.829  10.120  10.701
26840W        W95245  13.336  29.571   1.829
26841W        W95246  35.652  42.305   1.408
26842W        W95247  23.114  14.306  11.005
26843W        W95248  38.616  11.109  13.935
26844W        W95249   0.995  14.218  10.736
26845W        W95250  39.103   4.528  12.600
26846W        W95251   5.759  19.198   0.465
26847W        W95252   2.712  10.698   4.092
26848W        W95253  39.286  20.024   2.598
26849W        W95254  22.831   4.819   3.220
26850W        W95255  44.302  20.232  13.884
26851W        W95256  39.179  42.169  11.199
26852W        W95257  15.464   3.703  12.040
26853W        W95258  36.093  42.018   0.792
26854W        W95259  21.669  16.086   3.682
26855W        W95260   9.706   3.611   1.657
26856W        W95261   1.883   6.969   3.943
26857W        W95262  29.332   8.824   3.223
26858W        W95263   9.683  21.062   0.725
26859W        W95264  14.031   5.315   4.834
26860W        W95265   2.252  21.540  13.566
26861W        W95266  10.374  21.990  11.409
26862W        W95267  10.594  24.791  11.452
26863W        W95268   6.412  35.860  10.607
26864W        W95269  19.761  13.555   3.605
26865W        W95270  32.269   6.254  10.800
26866W        W95271  20.778   0.773   4.392
26867W        W95272   3.338  35.866  14.944
26868W        W95273  42.883  15.360  12.729
26869W        W95274  11.134   8.585  11.110
26870W        W95275  30.453  22.486  11.581
26871W        W95276  43.980  10.337  13.868
26872W        W95277  14.320  38.441  11.495
26873W        W95278   8.873  11.990   3.383
26874W        W95279  24.586   6.209   2.595
26875W        W95280   1.828   6.479   3.738
26876W        W95281  14.404  21.025  12.368
26877W        W95282  15.737  44.442   5.205
26878W        W95283  29.893  41.738  12.948
26879W        W95284  32.856  13.531   1.024
26880W        W95285  13.122  44.770  14.948
26881W        W95286   5.080  17.805  11.105
26882W        W95287  28.504   8.217   3.350
26883W        W95288  38.300   5.707   3.709
26884W        W95289  21.003  31.734  12.114
26885W        W95290  24.009   8.280   1.750
26886W        W95291  21.414  22.852   4.244
26887W        W95292  24.867   1.487   0.243
26888W        W95293   8.321  30.619  10.920
26889W        W95294  17.221   1.509   5.062
26890W        W95295  39.152  36.583  13.359
26891W        W95296  12.563  41.941   1.357
26892W        W95297  34.910  37.305  12.371
26893W        W95298  14.682   5.139   0.417
26894W        W95299   5.913  29.516  14.011
26895W        W95300  29.433  44.961   0.976
26896W        W95301  13.304  21.221  14.888
26897W        W95302  24.733  37.577  10.726
26898W        W95303  25.663  41.090  11.844
26899W        W95304  23.609  28.046  14.795
26900W        W95305  18.778  18.862  13.064
26901W        W95306  43.793  35.369  12.944
26902W        W95307  26.083  22.511  11.607
26903W        W95308  36.428  33.812   1.389
26904W        W95309   7.915  38.229  14.260
26905W        W95310  26.672  38.373   5.057
26906W        W95311  12.174  13.136  12.858
26907W        W95312  14.162   5.234   3.034
26908W        W95313   5.771  30.545   1.677
26909W        W95314  41.919  22.159   4.321
26910W        W95315   5.819  21.717   3.796
26911W        W95316  22.430   8.391   0.196
26912W        W95317   4.899  31.541  10.758
26913W        W95318   9.789  23.790  11.741
26914W        W95319  44.726   5.696   1.283
26915W        W95320  26.436  25.291   0.848
26916W        W95321   9.390  37.260  14.648
26917W        W95322  18.572  37.025   2.886
26918W        W95323  16.798  34.886   1.813
26919W        W95324  19.803  36.444  14.837
26920W        W95325   1.757  21.601   0.237
26921W        W95326  18.110  24.273  12.448
26922W        W95327  39.527  44.427   3.724
26923W        W95328  29.331  36.052   1.679
26924W        W95329  22.749   9.381   0.036
26925W        W95330  21.110  22.671  10.094
26926W        W95331   7.277  15.075  11.533
26927W        W95332  38.476   2.433   2.521
26928W        W95333  39.345  26.088   2.920
26929W        W95334  12.746   8.644  11.580
26930W        W95335  28.161  11.873  13.426
26931W        W95336  22.464  42.050  11.490
26932W        W95337   2.781  26.716   1.788
26933W        W95338  23.582  38.109   1.195
26934W        W95339  35.807  43.571   4.561
26935W        W95340  25.006  29.954   3.307
26936W        W95341  27.485  28.740   3.681
26937W        W95342  44.215  43.782   4.744
26938W        W95343  18.711  17.895   1.393
26939W        W95344  43.802   6.195   3.763
26940W        W95345  20.039  22.671  14.645
26941W        W95346  15.677  10.715  13.837
26942W        W95347  21.240  32.661   1.221
26943W        W95348  31.267   8.808   4.738
26944W        W95349  43.559  14.297  14.106
26945W        W95350  21.079  42.909   0.338
26946W        W95351  38.315  38.428  12.822
26947W        W95352   2.328  39.419  14.360
26948W        W95353  23.679   0.156  12.628
26949W        W95354  13.971  15.407   2.237
26950W        W95355  28.633   4.457  11.125
26951W        W95356  13.539   6.480   2.869
26952W        W95357  38.394  31.644   0.836
26953W        W95358   5.927  32.180   4.617
26954W        W95359  11.101  42.967  12.524
26955W        W95360  38.521  28.453  10.552
26956W        W95361  21.166  16.621  13.365
26957W        W95362  18.522  28.091   2.456
26958W        W95363  29.187   2.747  13.975
26959W        W95364  14.155  42.077  14.286
26960W        W95365  15.480   9.800   3.726
26961W        W95366   8.041  38.832   0.987
26962W        W95367  17.401  19.311   1.875
26963W        W95368   6.553  29.025  10.807
26964W        W95369  25.554  37.056  12.582
26965W        W95370  16.635  28.602  13.116
26966W        W95371  38.824  32.595  13.463
26967W        W95372  17.232   0.176   1.508
26968W        W95373  43.714  28.074  14.469
26969W        W95374  39.929  16.135   3.023
26970W        W95375  36.084  10.373   4.353
26971W        W95376   0.534  21.292   3.783
26972W        W95377   7.694  33.001   0.386
26973W        W95378  12.554   9.113   1.790
26974W        W95379  30.755   5.844   1.859
26975W        W95380  38.563  12.964   0.824
26976W        W95381   5.023  29.227   3.725
26977W        W95382  13.410   9.424  10.773
26978W        W95383  17.902  39.897  13.423
26979W        W95384  20.062  34.038   2.341
26980W        W95385   5.860  43.433   4.749
26981W        W95386  24.929  22.133   1.761
26982W        W95387   0.850  14.237   3.276
26983W        W95388  44.840  19.607  12.060
26984W        W95389  14.062  37.039   4.942
26985W        W95390  36.492  41.999  14.481
26986W        W95391  28.487   2.986  12.739
26987W        W95392  16.064   1.185   0.296
26988W        W95393  14.588  22.780  13.518
26989W        W95394   8.930   8.194   3.665
26990W        W95395  20.449  19.765   3.167
26991W        W95396  19.880  39.779  13.669
26992W        W95397  24.921  19.615  11.503
26993W        W95398  13.733  43.876  12.894
26994W        W95399   4.256  32.905   2.767
26995W        W95400  21.607  34.839   1.193
26996W        W95401  38.561   1.812   3.228
26997W        W95402  15.194  24.805   4.134
26998W        W95403  14.721  15.565   2.669
26999W        W95404  17.561  41.226   0.261
27000W        W95405   9.554  44.083  13.477
27001W        W95406  43.449  22.529   4.603
27002W        W95407  13.602  44.884  14.737
27003W        W95408  16.292  44.929  14.020
27004W        W95409  41.448  22.644  14.387
27005W        W95410   9.551  14.656  13.971
27006W        W95411  16.720  44.889   0.727
27007W        W95412  19.022   6.684   0.780
27008W        W95413  38.997   5.234  12.985
27009W        W95414  43.408  15.329   0.738
27010W        W95415  31.416  41.872  13.011
27011W        W95416  18.258  21.558   4.081
27012W        W95417  34.428  24.615  14.926
27013W        W95418  19.383   2.690   2.710
27014W        W95419  37.228  32.360  10.872
27015W        W95420  31.134   1.061   1.663
27016W        W95421  39.015  26.126   3.435
27017W        W95422   0.067  19.225  11.189
27018W        W95423   9.948  21.145  12.042
27019W        W95424  29.439  30.886   4.038
27020W        W95425   9.132  26.906  11.137
27021W        W95426  18.832  37.543   1.946
27022W        W95427   7.570  32.594   4.363
27023W        W95428  13.211   2.943   2.262
27024W        W95429  32.080  10.185   0.410
27025W        W95430  42.428  11.894   2.749
27026W        W95431  36.553  22.095  14.840
27027W        W95432  20.519  29.108   2.364
27028W        W95433  25.990  42.257   2.035
27029W        W95434  24.524  10.062   0.515
27030W        W95435  23.133  40.557  13.821
27031W        W95436   1.225   9.215  10.999
27032W        W95437  21.614  19.205  12.159
27033W        W95438  23.481  27.673   3.952
27034W        W95439  12.145  43.406  13.996
27035W        W95440  15.072  13.204  13.941
27036W        W95441  11.182  23.256  12.033
27037W        W95442  31.481  26.754  14.912
27038W        W95443   3.650   0.984   0.146
27039W        W95444   3.950  44.228   0.889
27040W        W95445   6.285  40.653  11.180
27041W        W95446  40.773  25.538  13.505
27042W        W95447  31.168  35.577   2.199
27043W        W95448   0.894   6.945   3.755
27044W        W95449  32.356  29.011   4.097
27045W        W95450  27.276  29.541  10.879
27046W        W95451   9.628  13.089  14.478
27047W        W95452  28.032  39.189  10.154
27048W        W95453  42.540  22.732   1.217
27049W        W95454  20.072  30.872   4.345
27050W        W95455   6.334  23.374   3.911
27051W        W95456  19.218  28.242  12.826
27052W        W95457  36.521   0.168   1.819
27053W        W95458  29.016  27.504   0.037
27054W        W95459   6.431   8.071  12.084
27055W        W95460  18.303  10.201  12.619
27056W        W95461   9.914   4.172  14.364
27057W        W95462  30.860   6.006  12.989
27058W        W95463  32.484  13.414   4.698
27059W        W95464  12.660   1.936   3.219
27060W        W95465  21.198  25.456   3.246
27061W        W95466  12.121  16.636  13.131
27062W        W95467  11.484  17.839   0.496
27063W        W95468  20.143   4.292  10.698
27064W        W95469  27.898  13.839   0.034
27065W        W95470  30.326  28.554   2.631
27066W        W95471  18.813  16.036   1.491
27067W        W95472  10.346  44.816  13.994
27068W        W95473  15.049  14.496  11.685
27069W        W95474  44.397   7.356   1.841
27070W        W95475  36.471  12.208   2.162
27071W        W95476  12.320  30.415   3.164
27072W        W95477  31.973  21.024  11.071
27073W        W95478  22.668  31.078   1.799
27074W        W95479   3.398  28.328   1.518
27075W        W95480  40.443  40.790  10.300
27076W        W95481  26.704  23.546  13.029
27077W        W95482  17.695  11.406   0.446
27078W        W95483  14.032  14.014   4.997
27079W        W95484   7.800  17.549   0.478
27080W        W95485  20.522  29.435  11.093
27081W        W95486   1.561  32.433  11.982
27082W        W95487  32.980   6.199   1.019
27083W        W95488  18.203  34.401   4.746
27084W        W95489  17.254  42.347   3.711
27085W        W95490  44.734   0.410  13.881
27086W        W95491   0.350  38.826   3.591
27087W        W95492  27.292  24.254  13.662
27088W        W95493  34.021  12.209   4.567
27089W        W95494  33.099  20.942   2.126
27090W        W95495  40.490  16.685  12.815
27091W        W95496  30.499  34.353  13.020
27092W        W95497  22.507   5.988  11.891
27093W        W95498   2.905  39.876  12.927
27094W        W95499   9.767  31.196   5.447
27095W        W95500  40.987  29.073  12.754
27096W        W95501  35.315  44.547   3.571
27097W        W95502  39.798  38.948  10.796
27098W        W95503  20.013  42.728  12.997
27099W        W95504  18.489  19.613  11.952
27100W        W95505  15.531  43.413   4.128
27101W        W95506   2.332  44.755  14.362
27102W        W95507  38.429  12.389  12.097
27103W        W95508  21.608   1.451  13.586
27104W        W95509   2.731  43.838  12.544
27105W        W95510  14.407  11.659  11.608
27106W        W95511  21.158  24.623  12.040
27107W        W95512  31.528  16.861  10.468
27108W        W95513  23.343   5.251  14.475
27109W        W95514  33.624  26.967  11.012
27110W        W95515  13.842  37.819   4.503
27111W        W95516  19.062   6.837  10.726
27112W        W95517  43.209  42.144  11.603
27113W        W95518  25.176  25.624  14.341
27114W        W95519   7.821  31.502   2.413
27115W        W95520  29.041  11.636   3.736
27116W        W95521  22.698  27.257  14.374
27117W        W95522  38.002  11.891   3.747
27118W        W95523  36.908  36.552   2.749
27119W        W95524  31.361  15.950   0.306
27120W        W95525   2.460  43.036   3.559
27121W        W95526  21.608   5.988   2.869
27122W        W95527  44.733  14.891  14.434
27123W        W95528  31.613   7.469   3.913
27124W        W95529  20.229  41.714  12.961
27125W        W95530  20.369  26.072   4.585
27126W        W95531  22.576   1.215   4.218
27127W        W95532  36.144  39.017   2.629
27128W        W95533  40.896  41.130   0.748
27129W        W95534  42.022  13.147  14.435
27130W        W95535  19.560  34.689   1.904
27131W        W95536  17.208  22.031  13.100
27132W        W95537  37.430  23.907   0.438
27133W        W95538   3.188  12.522   2.240
27134W        W95539  12.316  35.779   0.233
27135W        W95540  41.393  26.728  14.277
27136W        W95541  42.775  13.811  13.439
27137W        W95542   3.797   3.806  11.859
27138W        W95543  23.146  41.388   2.925
27139W        W95544  13.183  41.319   3.459
27140W        W95545  13.535  20.938   5.069
27141W        W95546  32.476  36.009  11.100
27142W        W95547  29.739   8.231   0.258
27143W        W95548  18.388  38.107  14.827
27144W        W95549  31.569  30.850   4.795
27145W        W95550  31.847  32.820   4.542
27146W        W95551  25.058   7.880  12.822
27147W        W95552   2.263  24.022   3.289
27148W        W95553  30.092  32.096   0.617
27149W        W95554   6.465  20.669  13.271
27150W        W95555  31.075  43.349   0.978
27151W        W95556   7.212   4.469  12.260
27152W        W95557   3.925   4.385   0.813
27153W        W95558  19.545  39.096   4.171
27154W        W95559  13.321  10.653   0.434
27155W        W95560  36.685  21.082   3.671
27156W        W95561  18.639  38.405   4.764
27157W        W95562  29.370  19.319  13.293
27158W        W95563  42.683  33.362  11.094
27159W        W95564  43.547  34.793   2.920
27160W        W95565  40.643  32.795   1.425
27161W        W95566  39.302  22.287  11.525
27162W        W95567  42.990  41.186  14.332
27163W        W95568  27.183   2.922  12.150
27164W        W95569   4.437  21.973  13.826
27165W        W95570  34.712   2.651   3.912
27166W        W95571  36.772  32.418  10.613
27167W        W95572  19.566  13.240  11.372
27168W        W95573  14.688  22.502  11.518
27169W        W95574  21.442  35.987   1.748
27170W        W95575  22.852  44.733   0.302
27171W        W95576  31.556  24.454  14.261
27172W        W95577  14.690  11.406   9.692
27173W        W95578  21.970  39.619   2.309
27174W        W95579  38.970  29.973  10.130
27175W        W95580   7.361  18.544  14.354
27176W        W95581  31.140  16.878  14.352
27177W        W95582  41.456  29.666  12.045
27178W        W95583  15.915   8.746  12.956
27179W        W95584   6.312  27.879  14.932
27180W        W95585  40.063  10.634  14.656
27181W        W95586  24.839   2.835   1.162
27182W        W95587  32.020  20.321  12.405
27183W        W95588  16.686   1.993  11.938
27184W        W95589   4.425  32.409  12.542
27185W        W95590   2.447  12.878   0.954
27186W        W95591  12.616   0.544  11.600
27187W        W95592  42.979  18.123  11.099
27188W        W95593  39.651  34.534  11.948
27189W        W95594  12.560  35.830  10.721
27190W        W95595  44.254  44.905   2.834
27191W        W95596  25.631  25.678  14.630
27192W        W95597  13.396  17.362  10.342
27193W        W95598   3.316  18.818   0.403
27194W        W95599  15.199  27.031   4.944
27195W        W95600  10.778  41.721  14.265
27196W        W95601  39.379  11.088   3.707
27197W        W95602  33.251  34.184  12.035
27198W        W95603  23.911  17.119  13.702
27199W        W95604   2.923  35.448   3.862
27200W        W95605  20.552  21.954  13.569
27201W        W95606  26.046  30.682   3.181
27202W        W95607  27.526   1.262   1.595
27203W        W95608  32.991  23.243  13.553
27204W        W95609  37.997  11.613   2.098
27205W        W95610  39.253  42.367   2.469
27206W        W95611  17.989  26.875  11.022
27207W        W95612  37.317  42.793  13.703
27208W        W95613  20.752  37.339  10.493
27209W        W95614  24.584   5.488   4.710
27210W        W95615  43.733   4.690   0.399
27211W        W95616  19.867  10.476   4.158
27212W        W95617  41.296   5.996   1.759
27213W        W95618  21.190  21.439  11.691
27214W        W95619   6.367  21.028  12.889
27215W        W95620  36.727  36.817   0.721
27216W        W95621  12.819   6.700   1.881
27217W        W95622  15.767   7.741  14.862
27218W        W95623  10.878   9.931  14.872
27219W        W95624  17.619  37.804  13.388
27220W        W95625   3.008  34.687  11.605
27221W        W95626  15.805  38.457  12.964
27222W        W95627  35.183   3.150  11.479
27223W        W95628  10.906  43.652   0.835
27224W        W95629   5.474  17.044   3.670
27225W        W95630  40.481  36.055   1.302
27226W        W95631  18.703  33.539   2.928
27227W        W95632  19.343  12.801  11.516
27228W        W95633  10.669   3.872  12.291
27229W        W95634  17.371  43.793   1.382
27230W        W95635  31.481  11.698  11.064
27231W        W95636  34.341  42.656  14.694
27232W        W95637  33.609   4.290  12.871
27233W        W95638  21.254  14.341  10.702
27234W        W95639  39.473  17.346  13.611
27235W        W95640  37.590  43.225  11.601
27236W        W95641  28.869  42.965   2.844
27237W        W95642  14.257  25.616  10.615
27238W        W95643  15.968   3.439   4.654
27239W        W95644  18.581   1.407   0.449
27240W        W95645  23.692  20.158   2.171
27241W        W95646  22.176  40.824   0.866
27242W        W95647  35.658  39.093  14.783
27243W        W95648  27.079  37.421  10.420
27244W        W95649  18.707  22.964  14.890
27245W        W95650  12.228  10.467  14.194
27246W        W95651  39.520   6.238  11.712
27247W        W95652  39.822  43.106   1.059
27248W        W95653  36.474  21.011  14.076
27249W        W95654  36.728  25.545   1.799
27250W        W95655  43.675  22.053  12.877
27251W        W95656   9.642  41.488   0.427
27252W        W95657  42.940  25.543  12.224
27253W        W95658  23.991  28.460  10.399
27254W        W95659  29.010   1.253  11.391
27255W        W95660  19.552  36.946   3.155
27256W        W95661  40.840  42.229   2.309
27257W        W95662  13.998  24.858  12.915
27258W        W95663   2.211  27.633   9.960
27259W        W95664  30.599  10.925   4.123
27260W        W95665  28.960  23.685   4.768
27261W        W95666  13.973  30.986   3.599
27262W        W95667  17.501  18.950   1.506
27263W        W95668  11.586  10.149   2.687
27264W        W95669  41.813  25.618  10.577
27265W        W95670  34.631  32.530   3.752
27266W        W95671   6.178   9.435  14.963
27267W        W95672  32.054  27.634  13.809
27268W        W95673  40.884  41.909   1.831
27269W        W95674  37.930  35.870  10.980
27270W        W95675  37.515  37.371   5.215
27271W        W95676  20.503   5.212   2.797
27272W        W95677   0.740  35.121  11.902
27273W        W95678  26.611  36.418   5.108
27274W        W95679  41.500  16.636  14.346
27275W        W95680  36.355  22.781   0.819
27276W        W95681  14.639  17.984  13.388
27277W        W95682  29.688  23.654  11.111
27278W        W95683  27.138  30.048  10.978
27279W        W95684  18.528   3.323   0.335
27280W        W95685  29.712  17.128   3.658
27281W        W95686  44.545  15.185   1.275
27282W        W95687  42.442  25.208   4.110
27283W        W95688  35.109  15.309  12.561
27284W        W95689  40.574  21.512  11.415
27285W        W95690  13.596  19.033   3.975
27286W        W95691  43.619  41.535  11.125
27287W        W95692  29.064  42.451   3.582
27288W        W95693  12.846  12.924   1.306
27289W        W95694  37.536  31.389   2.212
27290W        W95695  25.081  29.035   2.231
27291W        W95696  24.170   7.836   4.060
27292W        W95697  30.498  20.823  11.744
27293W        W95698  22.871  35.759  13.873
27294W        W95699  22.741   0.718  13.425
27295W        W95700  14.672   5.535  12.175
27296W        W95701   6.371  41.704  12.936
27297W        W95702  16.887  12.242   4.479
27298W        W95703  12.692  29.915  11.688
27299W        W95704  25.951  37.950   0.783
27300W        W95705   3.638  14.183  10.994
27301W        W95706  23.590  16.109  13.414
27302W        W95707  21.070  25.009   1.312
27303W        W95708   2.322  15.469  11.029
27304W        W95709  37.279  41.924   3.253
27305W        W95710  12.530  23.072  12.925
27306W        W95711  37.208  29.115  12.507
27307W        W95712  27.412  39.411  14.218
27308W        W95713  33.672   6.855   4.336
27309W        W95714  34.203  38.192   0.057
27310W        W95715   1.420  31.539  10.844
27311W        W95716   7.475  26.437   2.054
27312W        W95717   2.302  18.440  10.284
27313W        W95718   7.060  15.145   0.466
27314W        W95719  34.021  18.343   0.784
27315W        W95720  14.168   9.167  13.056
27316W        W95721  20.565  19.331  14.243
27317W        W95722   4.301  19.486   4.938
27318W        W95723  23.950  36.129   1.967
27319W        W95724  10.402  21.912  12.392
27320W        W95725  19.506   4.492  12.936
27321W        W95726  28.977   3.202   2.423
27322W        W95727  43.839  42.099  14.959
27323W        W95728   6.322  17.845   3.367
27324W        W95729  24.165  40.675  11.456
27325W        W95730  13.051   0.988   0.907
27326W        W95731  44.253   5.684  10.470
27327W        W95732   5.467   4.911   2.977
27328W        W95733  43.433  31.824  11.895
27329W        W95734  14.719  31.243  13.507
27330W        W95735  38.999  35.969  14.635
27331W        W95736  37.087  13.237   1.199
27332W        W95737  18.635  40.708  12.722
27333W        W95738  29.090  20.644  12.917
27334W        W95739   2.598  33.891   4.364
27335W        W95740   7.876  21.521   0.143
27336W        W95741   0.288  19.557   3.176
27337W        W95742   7.468  30.988   1.283
27338W        W95743  32.078  39.839   2.966
27339W        W95744  24.940   6.941   3.655
27340W        W95745   7.777  19.806   0.964
27341W        W95746  21.040  36.902   3.797
27342W        W95747   0.712   3.812   2.887
27343W        W95748  42.980   8.868  12.560
27344W        W95749   6.445  32.874   1.962
27345W        W95750  37.918  27.127  11.870
27346W        W95751  17.866   6.097  13.443
27347W        W95752  36.256   3.850   2.857
27348W        W95753  39.870  39.555   1.455
27349W        W95754  18.556  22.419  11.562
27350W        W95755  40.817  10.114   3.751
27351W        W95756  36.796  11.296  13.378
27352W        W95757  25.633  44.326   0.741
27353W        W95758   0.214  32.927  13.080
27354W        W95759   0.190  40.537  13.383
27355W        W95760  19.754  15.731   3.312
27356W        W95761  19.613  21.328  12.956
27357W        W95762  33.915  25.963  14.541
27358W        W95763  10.350   0.298  14.197
27359W        W95764  43.793  37.383   2.123
27360W        W95765  17.422  36.851   4.706
27361W        W95766  16.812  20.160   1.290
27362W        W95767  26.545   6.322   0.003
27363W        W95768  23.519  21.244   3.562
27364W        W95769  42.535   5.558  11.393
27365W        W95770  23.954   9.606  13.875
27366W        W95771  28.472  16.804   1.295
27367W        W95772  42.051   1.553  13.336
27368W        W95773   2.416  39.028   2.055
27369W        W95774  31.690  22.676  12.893
27370W        W95775  30.088  23.854   1.432
27371W        W95776  13.105  37.639   1.601
27372W        W95777   2.914  42.928   0.502
27373W        W95778  22.786   4.897   1.296
27374W        W95779  37.364  30.697   3.201
27375W        W95780   5.572  20.251   0.317
27376W        W95781   8.490  20.328   0.199
27377W        W95782   0.775  40.062  14.434
27378W        W95783  44.768  31.969   1.159
27379W        W95784  38.716  11.661  13.019
27380W        W95785  28.396   7.234  11.728
27381W        W95786  23.424  38.396  11.205
27382W        W95787  12.572  41.554   2.902
27383W        W95788  25.153  20.468  10.810
27384W        W95789  30.409  15.784   1.808
27385W        W95790  27.138  30.677   0.315
27386W        W95791   7.679  42.968   1.426
27387W        W95792  33.433  13.194  13.907
27388W        W95793  29.443  25.025  14.301
27389W        W95794  22.964  21.210   0.490
27390W        W95795  39.278  17.763  14.557
27391W        W95796  23.710  19.220  13.880
27392W        W95797  30.447  32.258   0.939
27393W        W95798  44.314  21.476   0.977
27394W        W95799  26.734  20.770  13.485
27395W        W95800  18.017  19.732  12.127
27396W        W95801  19.268  20.768  14.440
27397W        W95802   1.425  25.977  13.277
27398W        W95803  19.039  30.472  10.734
27399W        W95804   7.285  35.900  12.183
27400W        W95805  34.890  44.548  14.270
27401W        W95806   7.655  17.339   9.917
27402W        W95807   9.440  21.102  14.409
27403W        W95808  21.031  41.337  10.667
27404W        W95809  39.881  25.204  11.639
27405W        W95810  35.438   7.694   3.123
27406W        W95811   5.873  25.326  14.027
27407W        W95812   6.331  16.339   3.043
27408W        W95813  28.079   3.971   4.223
27409W        W95814  28.523  42.801  14.903
27410W        W95815  29.326  23.643  14.370
27411W        W95816  35.468  31.497   2.711
27412W        W95817  40.761  40.828   3.798
27413W        W95818  32.659  30.304   1.373
27414W        W95819  29.163   7.315   2.432
27415W        W95820  28.175  44.723  13.597
27416W        W95821  14.397  33.436  14.326
27417W        W95822  42.528  16.596   3.192
27418W        W95823  16.849  19.457   4.569
27419W        W95824   9.277  24.752   2.703
27420W        W95825  30.399  37.752   4.227
27421W        W95826  10.102  11.449   0.366
27422W        W95827  10.559  10.194   4.186
27423W        W95828  39.959  12.295   2.182
27424W        W95829  41.067  15.894  12.594
27425W        W95830  35.377   2.975   4.633
27426W        W95831  34.946  12.239   0.924
27427W        W95832  34.752  26.887   3.431
27428W        W95833   3.785  34.389  14.547
27429W        W95834   8.412   7.779  11.202
27430W        W95835  15.300  23.024   9.899
27431W        W95836  38.473  42.815  12.658
27432W        W95837   5.458   5.061  14.908
27433W        W95838  26.852  17.937   3.613
27434W        W95839  18.606  13.964   1.689
27435W        W95840  36.120  10.386   1.560
27436W        W95841   2.248  40.446   1.776
27437W        W95842  38.774  25.023  10.355
27438W        W95843  35.140  36.517   2.157
27439W        W95844  10.254  18.287  10.826
27440W        W95845  28.657  26.969   3.881
27441W        W95846  33.013  21.865  11.403
27442W        W95847  37.413   3.758   0.574
27443W        W95848   0.414  12.174   3.182
27444W        W95849   6.205  28.636   2.620
27445W        W95850  34.775  16.101  13.640
27446W        W95851  13.545  25.189   2.380
27447W        W95852  21.087  41.842  11.222
27448W        W95853  23.431  15.069   4.668
27449W        W95854  17.569  32.462  11.245
27450W        W95855  32.484  44.340   1.560
27451W        W95856   2.751  31.219  11.473
27452W        W95857  35.487  19.932   0.005
27453W        W95858  22.249  39.517  13.515
27454W        W95859  21.769  14.226  12.047
27455W        W95860  23.030  20.684  13.370
27456W        W95861  24.135   8.916   0.769
27457W        W95862   1.548  14.259  14.935
27458W        W95863  35.647   8.536   1.031
27459W        W95864  24.652  18.671   2.729
27460W        W95865  25.024  27.404   2.611
27461W        W95866  14.787   0.458  10.069
27462W        W95867  43.958  17.390  11.340
27463W        W95868  34.849  43.443   2.361
27464W        W95869  27.138  12.333  13.971
27465W        W95870  36.607  41.808   3.792
27466W        W95871  36.401  30.770  13.023
27467W        W95872  21.118   7.980   2.454
27468W        W95873   9.245  29.471  13.656
27469W        W95874  12.546   3.314   0.544
27470W        W95875  33.158  18.067  11.998
27471W        W95876   7.660  33.055   3.209
27472W        W95877  28.020  19.756  12.010
27473W        W95878  40.626   0.926   3.221
27474W        W95879  24.293  25.435  10.143
27475W        W95880  26.846  41.916  13.985
27476W        W95881  14.848  32.935  10.924
27477W        W95882  37.060  22.043  12.525
27478W        W95883  37.373   5.900   0.477
27479W        W95884  38.490  28.619  14.378
27480W        W95885  31.051  19.492  12.585
27481W        W95886  17.291   2.978  13.838
27482W        W95887  26.441   3.393   0.217
27483W        W95888  12.669   5.478   4.233
27484W        W95889  16.396  29.543  11.122
27485W        W95890  11.830  33.986  12.067
27486W        W95891   1.361  24.516  11.966
27487W        W95892  17.150  33.436   0.288
27488W        W95893  33.823  11.072  11.077
27489W        W95894  29.619  41.935   4.586
27490W        W95895  13.662   2.360  14.101
27491W        W95896  14.321  15.731  12.917
27492W        W95897   7.426   6.417  14.360
27493W        W95898   6.430   5.856  11.608
27494W        W95899  18.451  17.473  12.837
27495W        W95900   7.415  27.925  13.160
27496W        W95901  43.760  37.177   4.392
27497W        W95902  43.288  11.151  11.199
27498W        W95903   1.562  16.267   3.887
27499W        W95904  39.068  27.539   0.936
27500W        W95905  24.120  43.594   3.624
27501W        W95906  26.480  36.555   0.905
27502W        W95907  17.361  18.236  10.392
27503W        W95908   3.427  43.077  11.601
27504W        W95909  35.183  11.166   2.872
27505W        W95910   5.733  19.328   3.327
27506W        W95911  44.517  33.470   0.304
27507W        W95912  42.962  25.956   0.259
27508W        W95913  27.082   3.732  12.207
27509W        W95914   9.645  27.670  13.221
27510W        W95915   0.196  26.501   0.718
27511W        W95916  38.544  14.730  12.518
27512W        W95917   3.344  41.954   4.216
27513W        W95918   3.836  42.414   2.669
27514W        W95919  27.399  36.166  13.296
27515W        W95920   9.897  12.662  14.924
27516W        W95921  29.047  33.202  11.107
27517W        W95922   8.475  39.983  12.039
27518W        W95923  17.232  35.019   4.232
27519W        W95924  21.619  27.519  11.664
27520W        W95925  23.178  33.041   0.014
27521W        W95926  20.176   8.213  13.985
27522W        W95927  26.904  21.293  12.887
27523W        W95928  42.634  38.376  13.147
27524W        W95929   2.064   7.817  13.866
27525W        W95930  26.006   6.150   3.826
27526W        W95931  17.970  10.458  12.970
27527W        W95932  28.770  18.247  14.356
27528W        W95933  20.360   5.380   1.436
27529W        W95934  10.156  36.094   1.506
27530W        W95935   2.945  21.238   4.743
27531W        W95936  27.444  36.123   0.998
27532W        W95937  22.562  34.859   1.425
27533W        W95938  44.508  42.485   3.644
27534W        W95939  11.421   9.063   3.811
27535W        W95940  20.279  23.470  10.986
27536W        W95941   7.711  12.843  11.592
27537W        W95942  36.895  38.953  10.820
27538W        W95943  18.964  15.270   3.452
27539W        W95944   7.779   5.507  11.897
27540W        W95945  41.334  38.332  14.360
27541W        W95946  40.086  42.519   2.787
27542W        W95947  26.877  29.114   0.186
27543W        W95948  15.786  18.148   0.445
27544W        W95949  21.099   6.626  12.449
27545W        W95950  18.742  16.269  12.539
27546W        W95951  43.953   9.764   0.311
27547W        W95952  34.225  22.823   1.775
27548W        W95953  35.797   2.998   3.280
27549W        W95954  34.705  22.642   1.830
27550W        W95955  33.196   9.262  13.998
27551W        W95956  23.548  34.871   3.661
27552W        W95957   3.732  17.708  10.784
27553W        W95958  32.654  26.916   2.758
27554W        W95959  28.653   1.582   1.003
27555W        W95960  44.378  21.503  13.349
27556W        W95961  14.080  23.047  14.030
27557W        W95962  24.168  13.913  11.261
27558W        W95963  12.721  36.989   0.012
27559W        W95964  32.899  19.318   1.009
27560W        W95965  39.052   8.923  11.134
27561W        W95966  29.583  20.733  11.615
27562W        W95967  37.874  23.057  13.380
27563W        W95968   6.361  13.633   4.365
27564W        W95969   1.756   0.223   4.125
27565W        W95970  12.661  36.884   1.031
27566W        W95971  37.464  25.345  11.548
27567W        W95972   4.209  17.036  13.890
27568W        W95973   4.216  12.095   3.578
27569W        W95974   1.751  23.203  14.879
27570W        W95975  25.186  42.739  14.298
27571W        W95976  36.538  33.460  12.120
27572W        W95977  44.533  29.495  13.132
27573W        W95978   0.336  26.269  13.899
27574W        W95979  17.854  25.313   3.987
27575W        W95980  36.463  36.407   3.685
27576W        W95981  13.273  26.633   3.093
27577W        W95982  33.827  28.861  10.839
27578W        W95983  27.594  38.900   1.310
27579W        W95984  43.863   8.205  13.532
27580W        W95985  42.164   2.967  11.169
27581W        W95986  40.265  43.998  12.042
27582W        W95987  11.893  13.541  13.759
27583W        W95988  16.256  12.139   3.627
27584W        W95989   9.663  34.533  14.144
27585W        W95990  42.907  32.236   3.698
27586W        W95991  21.250  13.603  12.607
27587W        W95992  30.469  18.111   0.458
27588W        W95993  21.590   2.377   4.732
27589W        W95994  38.781  37.581  12.455
27590W        W95995  17.535  24.775   1.729
27591W        W95996  11.717   9.726   4.856
27592W        W95997   8.383  19.569  12.482
27593W        W95998  36.233   1.904   2.252
27594W        W95999   8.488   7.338  13.609
27595W        W96000   3.561   2.899  13.417
27596W        W96001   5.179  19.137  11.635
27597W        W96002   8.166  31.027  12.233
27598W        W96003  33.403  23.832   2.252
27599W        W96004  24.621  23.969  11.576
27600W        W96005  28.545  28.246   2.810
27601W        W96006  20.788  32.957  11.596
27602W        W96007  36.916  15.668  10.800
27603W        W96008  43.505  31.980   4.377
27604W        W96009   5.370  28.453  12.268
27605W        W96010  35.292  15.983   4.848
27606W        W96011  20.076  18.672  14.879
27607W        W96012   1.208  22.435  11.095
27608W        W96013   7.048  31.685  11.503
27609W        W96014  11.808   1.227   2.254
27610W        W96015  36.449  36.010  13.083
27611W        W96016  22.437  21.298   1.919
27612W        W96017   1.243  20.591   3.693
27613W        W96018  10.902  10.862   1.831
27614W        W96019   7.032  25.216  12.986
27615W        W96020  10.489   1.514   0.049
27616W        W96021  38.008   9.462  12.116
27617W        W96022   6.706   4.235   0.297
27618W        W96023   7.897  16.170   0.813
27619W        W96024  41.388  20.058  10.583
27620W        W96025  18.734  21.249   1.156
27621W        W96026  22.728   0.313   2.144
27622W        W96027  15.839  29.618   2.984
27623W        W96028  35.731  15.039  11.501
27624W        W96029  41.577  13.594  12.026
27625W        W96030   1.769  23.581  11.513
27626W        W96031  18.401  15.583   5.045
27627W        W96032  38.519  31.315   0.463
27628W        W96033   0.689  27.384  14.950
27629W        W96034  26.419  24.582   4.788
27630W        W96035  10.784  23.616  13.594
27631W        W96036  30.409  26.490   4.127
27632W        W96037  21.065  23.596  11.931
27633W        W96038  40.328   7.625   0.745
27634W        W96039  28.858  20.524   1.876
27635W        W96040   3.850  27.580  13.569
27636W        W96041   9.578  39.102   1.912
27637W        W96042  17.115   3.051  11.679
27638W        W96043  42.536  28.002  13.140
27639W        W96044   0.350  24.772   0.310
27640W        W96045  30.422  44.177  10.669
27641W        W96046  35.991  14.139  13.753
27642W        W96047  27.155  19.657  11.134
27643W        W96048  29.450   1.950   2.236
27644W        W96049  14.313  30.997   2.792
27645W        W96050  26.394  17.248   0.775
27646W        W96051   1.701  41.839   0.263
27647W        W96052  34.280  33.535  11.557
27648W        W96053  32.775  18.069   5.244
27649W        W96054  23.004  24.204   0.465
27650W        W96055  18.345  31.449  14.621
27651W        W96056  30.034   2.777   4.197
27652W        W96057  13.478  25.012   5.097
27653W        W96058   3.444  39.653   4.319
27654W        W96059  12.150   6.830   2.933
27655W        W96060  43.945  25.278   0.479
27656W        W96061  34.576   6.643   2.673
27657W        W96062  11.352  23.131  11.574
27658W        W96063  13.042   5.354   3.911
27659W        W96064  43.407  26.979  14.431
27660W        W96065  15.675  23.785   1.679
27661W        W96066  21.009  21.263  10.468
27662W        W96067   7.303  12.573   0.241
27663W        W96068   3.000  21.645  14.016
27664W        W96069  18.145  24.043  14.409
27665W        W96070   1.505  41.806  14.548
27666W        W96071  20.968  17.526  12.140
27667W        W96072  19.194  31.702   4.593
27668W        W96073  38.039  18.901  10.108
27669W        W96074  12.521  19.061  12.851
27670W        W96075  12.214  18.672   4.523
27671W        W96076  33.194  37.839  14.513
27672W        W96077  13.206  21.502  12.932
27673W        W96078   4.540  39.338  11.702
27674W        W96079   2.447  16.797  11.633
27675W        W96080   7.197  26.603   2.804
27676W        W96081  17.484  32.667   9.637
27677W        W96082   1.339  22.764  13.980
27678W        W96083  36.178  15.247   3.221
27679W        W96084   3.501  37.229   4.181
27680W        W96085  16.709  43.315   2.903
27681W        W96086  37.655  30.550   0.925
27682W        W96087  26.382  30.066  12.353
27683W        W96088  26.927  10.129  14.934
27684W        W96089  26.614  30.015   4.357
27685W        W96090  27.234  31.988  14.081
27686W        W96091  23.069  40.735   2.612
27687W        W96092  43.512  34.505  10.747
27688W        W96093  28.756  11.805   4.147
27689W        W96094   5.167  21.416  12.286
27690W        W96095  29.707  15.347  13.782
27691W        W96096  26.559  23.976  10.684
27692W        W96097   1.061   6.151  11.557
27693W        W96098  37.461  29.256  10.656
27694W        W96099   5.202  38.914   0.348
27695W        W96100  29.026  19.594   3.624
27696W        W96101   0.033   4.915   0.359
27697W        W96102  39.329  14.441  12.892
27698W        W96103  41.826  12.527   3.675
27699W        W96104  10.095  43.797   2.377
27700W        W96105   0.329  29.042   4.047
27701W        W96106  32.106   1.516   3.650
27702W        W96107  38.680  23.710  12.458
27703W        W96108  39.349  41.308   0.954
27704W        W96109   4.878   6.956   3.855
27705W        W96110   4.874  33.833  12.097
27706W        W96111   1.797  17.160   0.272
27707W        W96112  24.518  10.871   4.246
27708W        W96113   8.822  36.986   3.113
27709W        W96114  29.642  33.430  13.044
27710W        W96115   4.753  24.215  13.216
27711W        W96116   8.415  12.209   4.186
27712W        W96117   0.291  29.652   3.698
27713W        W96118  31.522  25.276  14.281
27714W        W96119  20.941  42.858  12.085
27715W        W96120  37.657  40.930   3.233
27716W        W96121  21.460  17.719   4.207
27717W        W96122   2.250  15.257  12.494
27718W        W96123   2.175   2.547  11.621
27719W        W96124  38.045  11.103  11.951
27720W        W96125  17.659  23.182   2.349
27721W        W96126  21.236  27.383  13.562
27722W        W96127  10.688  42.611  12.909
27723W        W96128  22.831  31.121  12.912
27724W        W96129  43.715  13.301  11.675
27725W        W96130   4.455  38.911   2.248
27726W        W96131  39.803   2.058   2.184
27727W        W96132  36.381  44.053   1.253
27728W        W96133  25.619  22.018  12.557
27729W        W96134  39.970   0.944  10.906
27730W        W96135  28.657  33.351   1.341
27731W        W96136  42.718  19.126  11.599
27732W        W96137   8.205  24.273  12.496
27733W        W96138   7.050  16.382   3.770
27734W        W96139  23.579  39.836  11.216
27735W        W96140  27.058  11.480   0.950
27736W        W96141  18.555  28.514  13.546
27737W        W96142   1.278   5.322  11.196
27738W        W96143  35.048  11.332  14.246
27739W        W96144  16.562  35.996  10.690
27740W        W96145   2.611  38.098  12.568
27741W        W96146  24.109  25.551  11.379
27742W        W96147  32.896   7.840  12.322
27743W        W96148  27.740  13.293  12.912
27744W        W96149  23.270  16.647  14.371
27745W        W96150  41.687  21.199   0.737
27746W        W96151  20.206  19.107   1.495
27747W        W96152  27.184  30.449  12.622
27748W        W96153  36.348   0.993   0.443
27749W        W96154  42.011  18.364  13.034
27750W        W96155  19.311   4.187   1.864
27751W        W96156   5.267   8.139  12.429
27752W        W96157   4.918   0.528   3.600
27753W        W96158  19.996  38.082   3.209
27754W        W96159   3.551  21.632   2.785
27755W        W96160  17.755   0.549  12.450
27756W        W96161  35.453  21.341   1.433
27757W        W96162  28.741  30.467   4.290
27758W        W96163  18.807   9.537   2.442
27759W        W96164  37.807  25.571  11.896
27760W        W96165  28.975  40.662   3.591
27761W        W96166   9.699  24.787  10.944
27762W        W96167  44.902  13.103  11.118
27763W        W96168   2.021  28.651  12.987
27764W        W96169  18.830  14.655   2.998
27765W        W96170   5.806   1.896  14.745
27766W        W96171  37.030   0.290   0.034
27767W        W96172  29.636   5.871  14.091
27768W        W96173  34.333   1.412  12.767
27769W        W96174   7.851  32.430   3.699
27770W        W96175  17.532   2.665   0.323
27771W        W96176  34.954   2.185   3.844
27772W        W96177  14.112   1.969   2.045
27773W        W96178  35.168  34.589  13.494
27774W        W96179  36.378  12.931  11.176
27775W        W96180  13.152  39.808  14.929
27776W        W96181  30.289  27.579   0.901
27777W        W96182  17.112  10.268  11.566
27778W        W96183   4.632  26.787   4.639
27779W        W96184  25.240  34.451   1.974
27780W        W96185  35.045  19.293   0.373
27781W        W96186  25.144  24.437   1.397
27782W        W96187  32.809  33.478   3.948
27783W        W96188  17.726  17.273   2.426
27784W        W96189  11.349  37.557  13.315
27785W        W96190   0.848  16.323  11.526
27786W        W96191  23.153  32.221  11.120
27787W        W96192   6.627  19.068  12.550
27788W        W96193   9.620  37.833  13.836
27789W        W96194   2.954  28.147   1.727
27790W        W96195  27.477   6.684   4.611
27791W        W96196   1.395   9.274  13.762
27792W        W96197  18.327   5.657   1.729
27793W        W96198  42.350  26.502  11.972
27794W        W96199  22.626  29.042  14.961
27795W        W96200   8.569  32.959  11.458
27796W        W96201  39.079  18.299  14.517
27797W        W96202  24.936   4.037   1.840
27798W        W96203  29.163  31.590  11.529
27799W        W96204  22.595   4.202  13.917
27800W        W96205  20.252  21.214  14.243
27801W        W96206  44.345  20.363   2.834
27802W        W96207  19.163  25.016  14.421
27803W        W96208  20.646  14.159   4.914
27804W        W96209  16.630  37.457   3.226
27805W        W96210  44.983  43.930   1.932
27806W        W96211  39.767  32.288  10.823
27807W        W96212   2.189  13.395  12.521
27808W        W96213   3.476  12.767   2.596
27809W        W96214   5.796  16.311  14.909
27810W        W96215  34.816  37.412   1.097
27811W        W96216  43.517  19.879   2.666
27812W        W96217  19.527  34.024   4.614
27813W        W96218  20.172  10.932  13.392
27814W        W96219  28.665   5.946  14.960
27815W        W96220  43.548  29.165   3.261
27816W        W96221  14.706  19.340  12.903
27817W        W96222  40.460  37.459  14.525
27818W        W96223  43.515   0.295   3.384
27819W        W96224  36.560   7.912  12.756
27820W        W96225  18.626   6.906   5.359
27821W        W96226   7.978   5.410  14.745
27822W        W96227  10.334   4.866  13.974
27823W        W96228  37.441  11.771   5.298
27824W        W96229  19.767  15.780  11.936
27825W        W96230  17.391  29.966  14.076
27826W        W96231   7.689  28.211  14.753
27827W        W96232  29.555  24.223   2.773
27828W        W96233  13.818  23.657  12.445
27829W        W96234  13.274  36.269  11.991
27830W        W96235   4.093  30.931   5.018
27831W        W96236  20.346   3.014  13.463
27832W        W96237  16.794  16.546  12.022
27833W        W96238  36.298  13.710  14.768
27834W        W96239  37.137  22.832  11.234
27835W        W96240  21.091  43.032   2.734
27836W        W96241  36.698   2.592   3.334
27837W        W96242  11.808   0.334   4.684
27838W        W96243  31.007   9.872  13.097
27839W        W96244  20.575  32.163   0.828
27840W        W96245   2.888   8.197   0.394
27841W        W96246  21.023  21.472   3.828
27842W        W96247   2.765  39.677   4.554
27843W        W96248  36.937  30.716   2.257
27844W        W96249  27.965  40.571  14.077
27845W        W96250  20.572  28.718  12.529
27846W        W96251  28.216  37.205   0.549
27847W        W96252   5.675  17.129   0.134
27848W        W96253  24.422  20.580  11.595
27849W        W96254  24.992  11.638   4.095
27850W        W96255  40.115  38.374  13.457
27851W        W96256  29.493  26.446  11.707
27852W        W96257  24.850  15.920   2.146
27853W        W96258  39.946  42.032  12.858
27854W        W96259  26.972  17.072  13.747
27855W        W96260  34.668  36.905  12.045
27856W        W96261  15.295   1.797   0.008
27857W        W96262   9.380  22.570  11.208
27858W        W96263  20.133  37.593   2.379
27859W        W96264  25.890  28.179  11.501
27860W        W96265  44.916  10.358   2.629
27861W        W96266  36.869  40.591  13.431
27862W        W96267   9.172   8.677   3.698
27863W        W96268  11.576  29.514  10.467
27864W        W96269  17.271  32.065  10.947
27865W        W96270  39.400  10.742   1.781
27866W        W96271  40.880  23.210  12.893
27867W        W96272  27.977  41.857  13.062
27868W        W96273   4.256  44.620  13.416
27869W        W96274  33.105  26.288  12.144
27870W        W96275  32.939  30.612  13.392
27871W        W96276  42.003  21.969   1.379
27872W        W96277  10.306   7.865   1.615
27873W        W96278  37.493  18.767  12.487
27874W        W96279  30.962   4.642   1.424
27875W        W96280  42.550   8.194  13.868
27876W        W96281  32.539  24.013  12.361
27877W        W96282  10.876  37.511   2.253
27878W        W96283  35.443  10.889   1.073
27879W        W96284   2.602  10.171   0.256
27880W        W96285  17.228  10.730   3.550
27881W        W96286  22.083  44.763  10.768
27882W        W96287  43.869   9.710  13.401
27883W        W96288  25.481   6.251   3.690
27884W        W96289   9.796  43.371  12.183
27885W        W96290  39.899  33.516   3.378
27886W        W96291   8.825  23.648   4.359
27887W        W96292  23.799  20.621   1.956
27888W        W96293  28.509  41.105   0.377
27889W        W96294  42.984   0.744  10.660
27890W        W96295   9.892   8.269   3.838
27891W        W96296   5.424   3.833  14.481
27892W        W96297  43.571  13.981   0.456
27893W        W96298  38.701  33.565   4.511
27894W        W96299  17.663  44.807  14.724
27895W        W96300   2.412  29.718  12.025
27896W        W96301   3.024  32.717   4.160
27897W        W96302  29.714   0.285   1.805
27898W        W96303  21.699  42.836  13.521
27899W        W96304  12.671   0.194   1.363
27900W        W96305  10.252  19.294  13.309
27901W        W96306   6.877   1.725  12.081
27902W        W96307  30.390   1.290   1.072
27903W        W96308  22.035  29.439   2.747
27904W        W96309  40.887  42.552  10.811
27905W        W96310  42.962   6.381  11.531
27906W        W96311  35.963   5.997   1.298
27907W        W96312  36.483  34.642  11.652
27908W        W96313  30.405   8.776  12.490
27909W        W96314   9.330  38.559  12.404
27910W        W96315   2.279   4.296  10.888
27911W        W96316  44.096   7.022  12.581
27912W        W96317  17.855  11.195   4.004
27913W        W96318  35.534   3.785  11.839
27914W        W96319   4.218  39.044   1.806
27915W        W96320   1.132  32.179   4.119
27916W        W96321   6.717  29.993  11.178
27917W        W96322  18.844  21.607   0.256
27918W        W96323  10.665  40.260   1.834
27919W        W96324  35.570  29.674   4.184
27920W        W96325  11.166  34.321   0.765
27921W        W96326  10.107  27.785  10.950
27922W        W96327  16.722  42.985   2.351
27923W        W96328   6.396  17.369  14.540
27924W        W96329  33.391  25.096   0.871
27925W        W96330  44.447  13.871  13.253
27926W        W96331   6.328  24.109  10.878
27927W        W96332   2.949  23.478  11.635
27928W        W96333  11.684  12.870   2.522
27929W        W96334  28.680   5.719   3.298
27930W        W96335   3.268  12.417  13.342
27931W        W96336  44.840  31.565  13.605
27932W        W96337   4.445  41.460  14.422
27933W        W96338  40.956   9.262   0.300
27934W        W96339  26.029  22.850   0.914
27935W        W96340  18.807  10.694  10.205
27936W        W96341  36.149  15.905  13.156
27937W        W96342   3.715   7.262  13.130
27938W        W96343   4.837  31.979  14.017
27939W        W96344  20.055  31.650  14.933
27940W        W96345  29.121  33.626   1.217
27941W        W96346  23.081  11.679   3.272
27942W        W96347  26.682  37.056  13.902
27943W        W96348  24.941   1.756  13.993
27944W        W96349  29.784  41.443   4.499
27945W        W96350  37.615  17.704   2.586
27946W        W96351  43.697  19.695  11.168
27947W        W96352   7.132  33.769   2.962
27948W        W96353  34.247  35.936  14.920
27949W        W96354   4.994  10.773  14.933
27950W        W96355  15.455   1.338  14.775
27951W        W96356  23.457  18.224  13.980
27952W        W96357  27.037   7.906   2.389
27953W        W96358  41.091  36.683  12.116
27954W        W96359  23.592  22.002  12.914
27955W        W96360  28.564  27.019  10.401
27956W        W96361  15.281   1.423  11.132
27957W        W96362  13.094   0.171  13.100
27958W        W96363   8.469  38.744  12.537
27959W        W96364   1.818  42.439   3.666
27960W        W96365  39.301  33.437  12.559
27961W        W96366  34.254   7.633  14.680
27962W        W96367  39.848   1.515  14.988
27963W        W96368  12.716  22.493  11.755
27964W        W96369  24.247  36.404   2.311
27965W        W96370  28.680  23.722   2.831
27966W        W96371  21.383  31.618  14.516
27967W        W96372   7.386   1.990   1.347
27968W        W96373   9.042  29.597  14.551
27969W        W96374  11.746  10.277  11.653
27970W        W96375  44.125   6.904   0.016
27971W        W96376  13.188   9.177  12.685
27972W        W96377  24.590  22.186   2.819
27973W        W96378   5.280  29.886   2.010
27974W        W96379   5.686  38.949   1.000
27975W        W96380  18.311  41.772  14.885
27976W        W96381  11.592  37.844   0.115
27977W        W96382  21.128   1.456   2.179
27978W        W96383   5.408  33.439  14.015
27979W        W96384   3.376   7.260  14.770
27980W        W96385  14.872  14.283  12.128
27981W        W96386  18.086   4.698  13.396
27982W        W96387   5.186  23.942   1.837
27983W        W96388   2.409  43.381  10.823
27984W        W96389  44.386  40.301  12.096
27985W        W96390  33.583  30.444   4.089
27986W        W96391   8.335  40.494   2.968
27987W        W96392  32.895   0.240   3.701
27988W        W96393   8.325  20.163   1.715
27989W        W96394  39.060   6.654   4.116
27990W        W96395  17.752  34.600  10.771
27991W        W96396   4.253  40.560  10.384
27992W        W96397   1.089  39.765  12.098
27993W        W96398  41.493  30.712   3.325
27994W        W96399  15.597  13.412   1.249
27995W        W96400   6.750  34.567   2.462
27996W        W96401  38.102  16.680  13.409
27997W        W96402  17.748  32.718   3.311
27998W        W96403  34.472  31.645   4.360
27999W        W96404  19.511  44.790  11.294
28000W        W96405   2.248  11.192  14.454
28001W        W96406  21.194  11.922   2.290
28002W        W96407   8.384  26.819  11.677
28003W        W96408   0.789  17.067  14.944
28004W        W96409  36.309   7.777  11.390
28005W        W96410   4.972  23.578  12.115
28006W        W96411   7.359  40.597  14.457
28007W        W96412   6.184  38.593  13.092
28008W        W96413  37.290  37.301   2.143
28009W        W96414  29.941  12.220  13.480
28010W        W96415  14.181  23.659  14.656
28011W        W96416  30.614   1.263   0.596
28012W        W96417  12.632  24.010  11.643
28013W        W96418  38.585  22.976   3.662
28014W        W96419  11.903  26.220   4.550
28015W        W96420  10.249  18.605   2.860
28016W        W96421  13.810  38.071  13.500
28017W        W96422  15.246   5.449   4.224
28018W        W96423  37.108  31.067   1.480
28019W        W96424  29.415   2.184   0.618
28020W        W96425   3.028  15.723   1.923
28021W        W96426  10.166  41.480   0.361
28022W        W96427  40.289  18.208   0.243
28023W        W96428   5.025   5.031  12.253
28024W        W96429  21.189   9.738   4.378
28025W        W96430   6.617  10.439  10.037
28026W        W96431   7.292  14.076  10.713
28027W        W96432  14.572  31.389  14.812
28028W        W96433  19.588  39.392  14.252
28029W        W96434  32.988   7.768  14.994
28030W        W96435  14.090   2.993  11.109
28031W        W96436   2.638   4.832  10.154
28032W        W96437  14.588  28.883   3.330
28033W        W96438  34.615  30.108   0.271
28034W        W96439  39.776  11.457  12.542
28035W        W96440  30.116  21.599   1.696
28036W        W96441  26.063  13.801   4.416
28037W        W96442  14.607  35.823  14.907
28038W        W96443  15.204   6.374  12.670
28039W        W96444   8.584  32.014  11.943
28040W        W96445  11.679  14.372   5.001
28041W        W96446  21.656  20.704  13.021
28042W        W96447  21.818  42.763   2.394
28043W        W96448   7.035  42.511  13.881
28044W        W96449  36.477   2.488  14.713
28045W        W96450   1.392  32.643   0.693
28046W        W96451  42.043   4.799  13.955
28047W        W96452  30.961  19.892  14.256
28048W        W96453  42.904  16.059  11.130
28049W        W96454  40.974  24.630   4.056
28050W        W96455  19.935  13.156  12.582
28051W        W96456  15.311  21.627   4.717
28052W        W96457   0.167   6.167   2.664
28053W        W96458  44.573  20.037  13.357
28054W        W96459  34.666  41.555  13.503
28055W        W96460  15.482   1.990   3.171
28056W        W96461  18.221  23.114   0.590
28057W        W96462  41.560  28.159  14.653
28058W        W96463  29.383  16.672   1.514
28059W        W96464   2.773  34.069  10.315
28060W        W96465   0.616  27.499   2.763
28061W        W96466  29.600  38.879   1.171
28062W        W96467  31.880  14.598   0.543
28063W        W96468   5.231  33.055  11.600
28064W        W96469  19.301  17.391   3.768
28065W        W96470   5.902  12.468   2.375
28066W        W96471  23.626   2.221  14.377
28067W        W96472   7.011  22.685   2.842
28068W        W96473  23.310  11.378   2.734
28069W        W96474  38.940  12.710   3.193
28070W        W96475   7.471   5.924   0.400
28071W        W96476   5.192   4.739   4.417
28072W        W96477  18.231  14.753   2.962
28073W        W96478  40.556   6.137  10.514
28074W        W96479  19.185  34.065  11.166
28075W        W96480  43.890  13.566  11.258
28076W        W96481  17.520  30.377   4.684
28077W        W96482  19.601  27.527  14.499
28078W        W96483  31.365  15.095   3.185
28079W        W96484  11.894   6.162   1.410
28080W        W96485  20.963  23.490   3.209
28081W        W96486   8.829   2.521  13.947
28082W        W96487   6.717   8.881   3.856
28083W        W96488  30.539  44.978   0.836
28084W        W96489  31.621  42.864  13.638
28085W        W96490  18.587  37.290   3.387
28086W        W96491  41.602  38.507  12.992
28087W        W96492  15.219  10.934  13.786
28088W        W96493   8.700  15.774  12.383
28089W        W96494   1.291  43.856   1.200
28090W        W96495  19.415  14.711   0.731
28091W        W96496  30.520  36.353  12.301
28092W        W96497  15.757   9.346   3.662
28093W        W96498  39.675   1.943   2.772
28094W        W96499   4.635  38.952  12.028
28095W        W96500  20.810  10.621   1.873
28096W        W96501   5.459   3.921  12.448
28097W        W96502  19.630  43.104   3.677
28098W        W96503  14.840   2.372   4.454
28099W        W96504  28.419   6.764   2.386
28100W        W96505  22.037  14.125  11.620
28101W        W96506  19.497   6.615   2.149
28102W        W96507  23.617  10.419   1.335
28103W        W96508  38.900  14.779   2.176
28104W        W96509  31.942   2.861   0.417
28105W        W96510   3.532  36.015   0.408
28106W        W96511  30.922  22.605  12.510
28107W        W96512   3.491  37.513  11.535
28108W        W96513  39.079  30.283   0.973
28109W        W96514  25.494  33.651  13.781
28110W        W96515  30.632  24.559  11.174
28111W        W96516   5.497  10.617  14.903
28112W        W96517  10.822  19.694   0.372
28113W        W96518  17.641  28.685   2.807
28114W        W96519  18.292   3.322  10.439
28115W        W96520  18.664  21.013   2.741
28116W        W96521   3.269  35.380  12.038
28117W        W96522   8.217  36.248   1.275
28118W        W96523  20.139  11.853  10.570
28119W        W96524   5.776   4.691  10.369
28120W        W96525  25.563   8.018   3.565
28121W        W96526  32.787  44.415   2.001
28122W        W96527  20.335  20.084   2.312
28123W        W96528   9.860  31.616   3.765
28124W        W96529  42.054  40.379   2.319
28125W        W96530  33.041  34.733   0.206
28126W        W96531  44.547   8.185   0.343
28127W        W96532  37.409  32.096   3.731
28128W        W96533   0.579  35.226   0.832
28129W        W96534   7.345  42.746   5.367
28130W        W96535  38.906  28.112   1.766
28131W        W96536   0.749   4.981  13.898
28132W        W96537  31.896  34.976   1.828
28133W        W96538  31.412  24.613  10.693
28134W        W96539  33.078  33.548  13.387
28135W        W96540  25.265   1.846  12.206
28136W        W96541  20.263   2.217  11.609
28137W        W96542  40.844  22.499  11.659
28138W        W96543  23.822   2.512  13.927
28139W        W96544  13.679  43.909   3.286
28140W        W96545  25.477   9.883  13.834
28141W        W96546  29.557   1.461  13.741
28142W        W96547   7.948   4.597   4.962
28143W        W96548  30.515  21.669  11.987
28144W        W96549  17.372  10.750  14.745
28145W        W96550  44.294  29.312   3.618
28146W        W96551  38.867  37.798   1.387
28147W        W96552   3.130  18.399  12.632
28148W        W96553  38.633   9.820  13.064
28149W        W96554   1.016  36.781   4.206
28150W        W96555   3.629  18.769   4.854
28151W        W96556  29.034  41.006  11.433
28152W        W96557  37.689  26.599   3.673
28153W        W96558  31.182   1.229  12.676
28154W        W96559  24.600  27.195   2.410
28155W        W96560  34.432  20.682   1.711
28156W        W96561  19.023  12.133   0.709
28157W        W96562   7.717  40.252  14.296
28158W        W96563  34.792   2.283  14.463
28159W        W96564  27.707   5.950   1.425
28160W        W96565  34.992  35.651   3.220
28161W        W96566  34.963  35.618   2.125
28162W        W96567   4.862  10.344  12.689
28163W        W96568   4.814   4.540  12.392
28164W        W96569  35.973  41.771  14.382
28165W        W96570  25.699   8.844   1.334
28166W        W96571  14.759   4.849  10.462
28167W        W96572  18.884  21.592  11.646
28168W        W96573  24.137  37.256   4.081
28169W        W96574  11.759  29.828   2.228
28170W        W96575  30.924  10.789  12.113
28171W        W96576  40.846   2.708   0.420
28172W        W96577  25.577  20.160   1.507
28173W        W96578  25.520  41.748  13.917
28174W        W96579  18.784  40.162  11.917
28175W        W96580  41.241  15.387   1.408
28176W        W96581   0.969  30.689  10.631
28177W        W96582  26.010   4.440   2.490
28178W        W96583  21.338   8.584   1.204
28179W        W96584  31.922  32.949  11.649
28180W        W96585  22.424  39.015   5.319
28181W        W96586  33.563  44.313   4.272
28182W        W96587   5.327   6.220   1.827
28183W        W96588  13.033  14.167  14.929
28184W        W96589  34.700  18.676   1.277
28185W        W96590  33.003  44.491   3.308
28186W        W96591  36.562  17.628   1.310
28187W        W96592  38.635  27.523   3.692
28188W        W96593  20.425  11.080   4.384
28189W        W96594  42.482   4.713   3.477
28190W        W96595  33.855  42.176   2.265
28191W        W96596  13.330  28.459  14.760
28192W        W96597  11.560  14.781   3.723
28193W        W96598  33.493  28.029  13.902
28194W        W96599  32.141   5.378   1.663
28195W        W96600  21.617   2.154  14.350
28196W        W96601  24.547  43.497  14.511
28197W        W96602  44.691  27.875  11.972
28198W        W96603   3.979  22.021  11.529
28199W        W96604   0.775   0.038  14.989
28200W        W96605  10.366  27.470   3.251
28201W        W96606  12.899  29.025  13.635
28202W        W96607   5.415   9.680   4.726
28203W        W96608  21.096   4.660  12.978
28204W        W96609  34.825  37.818   4.512
28205W        W96610  30.665  24.787   2.780
28206W        W96611  26.647  35.602   0.789
28207W        W96612   1.314  22.569   0.362
28208W        W96613  15.308  26.950   3.901
28209W        W96614  18.954   0.867  13.928
28210W        W96615  41.364  43.007  12.260
28211W        W96616  34.164   4.716   2.247
28212W        W96617   7.677  32.976  11.932
28213W        W96618   2.195  27.455  11.116
28214W        W96619  15.239  21.721   1.443
28215W        W96620  29.033  34.413   0.840
28216W        W96621  29.401  29.073   4.266
28217W        W96622   9.337  32.886   1.718
28218W        W96623  39.960  34.518   2.876
28219W        W96624  40.804  35.416  11.356
28220W        W96625   9.827  25.869   2.395
28221W        W96626  21.220  43.369   0.531
28222W        W96627  26.553   3.939  13.029
28223W        W96628  30.963  28.361   2.892
28224W        W96629  19.105   3.410   0.368
28225W        W96630  20.087  41.830  11.556
28226W        W96631   9.797  19.552   1.258
28227W        W96632  20.463  17.762   0.352
28228W        W96633  35.152  41.623  11.240
28229W        W96634  17.672  36.882  11.645
28230W        W96635  21.670   9.587   0.404
28231W        W96636  35.762  19.931  10.509
28232W        W96637  23.151  13.721   0.659
28233W        W96638   2.975   4.283   1.388
28234W        W96639   7.240  28.588   2.148
28235W        W96640  16.400  19.464  14.488
28236W        W96641   2.928  33.052   3.753
28237W        W96642  34.776  37.524   2.435
28238W        W96643  40.242  13.077   2.628
28239W        W96644  44.399  17.091  11.121
28240W        W96645   5.751  42.735   1.099
28241W        W96646   7.233  21.792   2.795
28242W        W96647  36.599  29.282  13.373
28243W        W96648   0.872  10.632  11.656
28244W        W96649  35.817  11.048   0.370
28245W        W96650   4.741  27.432   0.478
28246W        W96651  10.369  12.846  10.887
28247W        W96652  36.484  20.828  11.876
28248W        W96653  35.335  38.955   0.322
28249W        W96654  15.115  37.337   0.787
28250W        W96655  42.356  17.052   1.200
28251W        W96656  30.727   1.680   0.922
28252W        W96657  22.150  16.448   1.653
28253W        W96658  30.352  10.422  12.933
28254W        W96659  22.048  40.416   4.251
28255W        W96660   5.255  28.641   1.608
28256W        W96661  12.311  26.422  13.972
28257W        W96662   5.143  18.034   0.804
28258W        W96663   3.879   4.916  14.383
28259W        W96664  15.133  12.699   2.420
28260W        W96665  22.169  12.461   1.441
28261W        W96666  17.201  25.701  14.760
28262W        W96667  18.088   0.265   1.379
28263W        W96668   7.434  41.330   2.555
28264W        W96669  43.901  44.262   1.327
28265W        W96670  35.352  34.120   1.892
28266W        W96671  35.269  44.734  11.206
28267W        W96672   2.296  22.588   4.236
28268W        W96673  22.989  17.214   3.592
28269W        W96674   1.243  38.351   2.684
28270W        W96675  15.668  43.000   3.277
28271W        W96676  29.166  14.556   0.812
28272W        W96677  17.353  13.278   0.270
28273W        W96678   1.907  42.741  12.272
28274W        W96679  43.949  29.305   4.889
28275W        W96680   6.843   2.756   4.102
28276W        W96681  16.263  39.856  13.966
28277W        W96682  16.166  20.947  13.397
28278W        W96683  29.030  32.389   1.356
28279W        W96684  44.346  19.893   4.938
28280W        W96685  24.955  12.522   4.975
28281W        W96686  23.033  23.028   0.276
28282W        W96687  41.956   1.716  12.843
28283W        W96688  13.054   8.992   1.879
28284W        W96689   0.279   3.736  14.343
28285W        W96690   0.407  12.871  13.978
28286W        W96691  30.230  31.019  11.145
28287W        W96692  14.374  33.875  13.031
28288W        W96693  23.579  22.527   2.070
28289W        W96694  22.230   0.653   0.050
28290W        W96695  41.356   1.863   2.977
28291W        W96696  29.177  44.300   4.594
28292W        W96697   4.008  42.554  11.467
28293W        W96698  16.191  20.513  11.462
28294W        W96699  35.480  13.115   4.950
28295W        W96700  33.321  10.989  11.020
28296W        W96701  41.052  42.200  12.002
28297W        W96702  23.683  40.177  11.580
28298W        W96703  12.809  19.596   1.393
28299W        W96704   5.722  36.614   1.504
28300W        W96705  30.117  18.411   4.242
28301W        W96706  26.200   8.650  10.604
28302W        W96707  26.400  27.804  14.934
28303W        W96708  42.392   4.358  11.930
28304W        W96709  12.362   9.697   4.642
28305W        W96710  16.838  43.290  12.115
28306W        W96711   2.229  32.517   2.657
28307W        W96712  36.486  22.138   2.964
28308W        W96713  37.400   2.142   3.925
28309W        W96714  22.222  29.968  11.272
28310W        W96715  30.665   3.264   4.263
28311W        W96716  31.006  34.419   1.874
28312W        W96717  40.272  36.981  14.684
28313W        W96718  31.684  42.529  14.540
28314W        W96719  36.336  34.301   4.387
28315W        W96720   3.240  37.284   4.624
28316W        W96721  41.376  36.084  11.352
28317W        W96722  28.558  41.244  11.222
28318W        W96723   1.253  16.842  14.816
28319W        W96724   9.050  43.901  10.690
28320W        W96725   0.936   1.366  13.957
28321W        W96726  34.637  32.745  13.532
28322W        W96727  33.796   8.147  11.993
28323W        W96728  30.989  14.121  13.776
28324W        W96729  36.711   2.861   0.830
28325W        W96730  26.464   3.443   2.296
28326W        W96731  24.064  40.201  13.870
28327W        W96732  39.261   7.700  12.086
28328W        W96733  27.184  38.987  13.992
28329W        W96734   1.908   2.135  13.138
28330W        W96735   8.792  39.845   4.369
28331W        W96736   7.536  33.105  13.935
28332W        W96737  43.226  37.552  12.526
28333W        W96738   6.787  33.772  13.413
28334W        W96739  11.519   4.329  14.210
28335W        W96740  18.158   6.239  10.446
28336W        W96741  26.760   6.330  10.993
28337W        W96742  17.620  32.976  14.343
28338W        W96743  29.905  12.459   2.501
28339W        W96744  35.152   7.076  11.514
28340W        W96745  23.546   6.016   2.740
28341W        W96746  10.326   2.935   2.804
28342W        W96747  15.529   8.846  13.314
28343W        W96748   1.217  24.543   1.319
28344W        W96749   8.793  20.255  11.964
28345W        W96750   2.322   5.731   2.723
28346W        W96751  43.842  19.492   3.779
28347W        W96752  41.589  10.374   3.342
28348W        W96753  31.962  25.463   1.684
28349W        W96754  35.361   1.381   4.095
28350W        W96755  39.071  17.399  11.177
28351W        W96756  25.204  16.812   1.338
28352W        W96757  27.682  38.346  12.449
28353W        W96758  19.835  11.187  13.999
28354W        W96759  15.776  38.511   4.661
28355W        W96760  20.633  43.855  12.139
28356W        W96761   8.638  44.714  12.387
28357W        W96762  17.681   6.041  10.279
28358W        W96763  36.926  11.906   1.386
28359W        W96764  13.160   0.340   1.631
28360W        W96765  16.864   6.114   2.002
28361W        W96766   9.282  43.022   1.321
28362W        W96767  44.737   9.315   1.133
28363W        W96768  30.910  26.400   1.821
28364W        W96769   6.142  23.286   0.769
28365W        W96770  35.672  27.754  14.385
28366W        W96771  44.183  39.342   0.769
28367W        W96772  28.976   2.664  10.741
28368W        W96773   5.297  16.328   4.827
28369W        W96774  26.911  37.668  10.865
28370W        W96775  27.421  38.493   4.351
28371W        W96776  28.136   8.778  14.383
28372W        W96777   6.140  26.922   4.798
28373W        W96778  13.775  19.643  10.599
28374W        W96779   5.322   7.400   0.322
28375W        W96780  18.706  32.398   5.028
28376W        W96781  43.883  13.811   2.822
28377W        W96782  28.013   3.029   0.407
28378W        W96783  31.351  21.196   4.062
28379W        W96784  24.572   6.305  11.672
28380W        W96785  18.658  24.990  10.729
28381W        W96786  15.508  11.076  11.472
28382W        W96787  36.437  35.818  11.149
28383W        W96788  29.589   8.816  12.806
28384W        W96789   6.738  23.895  10.652
28385W        W96790  37.510  19.066  11.159
28386W        W96791  18.656  27.670   1.647
28387W        W96792  26.306  15.654   4.678
28388W        W96793  29.645  26.794  10.520
28389W        W96794   8.987  19.089   1.861
28390W        W96795   6.170  25.973   2.300
28391W        W96796  39.795   0.881   4.118
28392W        W96797  29.482  30.942   0.750
28393W        W96798   9.376  28.872   0.053
28394W        W96799  36.773  35.650   3.128
28395W        W96800   7.601  27.641   2.737
28396W        W96801  19.389  28.284  11.550
28397W        W96802  31.241  40.162   5.636
28398W        W96803   2.413  10.171   1.759
28399W        W96804  30.833  30.065   4.099
28400W        W96805  41.484  27.314   0.328
28401W        W96806  17.665   7.806  12.576
28402W        W96807  19.196   2.182  14.809
28403W        W96808  15.458  13.335   4.117
28404W        W96809   3.911  22.401   2.636
28405W        W96810   8.876  22.538  11.184
28406W        W96811  39.124  40.783  13.993
28407W        W96812  19.150  32.611   1.182
28408W        W96813  31.541  18.120  13.881
28409W        W96814   5.797  41.954  13.000
28410W        W96815  18.134  40.539   3.211
28411W        W96816   6.615  36.382  12.534
28412W        W96817  44.948  32.516   1.918
28413W        W96818  13.218  31.037  11.243
28414W        W96819  41.241  33.778  13.357
28415W        W96820  34.680   4.738   2.235
28416W        W96821   0.940   2.615   4.361
28417W        W96822   9.178   5.378  14.001
28418W        W96823  38.262  39.020   0.901
28419W        W96824  35.600   2.837  11.608
28420W        W96825   4.215  14.021   2.604
28421W        W96826  10.874  20.240   1.308
28422W        W96827  19.469  39.419   1.804
28423W        W96828  39.216  25.337  12.357
28424W        W96829  23.499   6.193  12.532
28425W        W96830   4.759   9.555  12.310
28426W        W96831  39.632   8.662   1.224
28427W        W96832  17.053  30.568  12.301
28428W        W96833  25.482  41.500   0.447
28429W        W96834   7.807   2.877  13.107
28430W        W96835  44.363  17.383   4.831
28431W        W96836  39.746  29.644   2.893
28432W        W96837  43.375  14.725  14.379
28433W        W96838   9.583  17.938   2.134
28434W        W96839  27.903  25.570   3.877
28435W        W96840  44.194   4.772  10.561
28436W        W96841  42.421   8.622  11.088
28437W        W96842  13.044  40.123   1.898
28438W        W96843  24.454  15.987  11.642
28439W        W96844  24.219  28.978  12.537
28440W        W96845  24.104  16.103  14.893
28441W        W96846   4.368  27.956   2.674
28442W        W96847  30.447  23.275   0.265
28443W        W96848  26.521   9.976  10.299
28444W        W96849  25.990   8.098  12.570
28445W        W96850  19.227  14.305  13.801
28446W        W96851  18.871  25.550   0.623
28447W        W96852  36.639  25.511   3.577
28448W        W96853  41.430   4.840  11.500
28449W        W96854  33.145  40.369  11.580
28450W        W96855  24.069  29.029   3.179
28451W        W96856  28.924  35.918   4.161
28452W        W96857  33.165   9.718  11.856
28453W        W96858  33.899   7.334  12.886
28454W        W96859  10.694  30.760  11.097
28455W        W96860   4.377  34.951  12.952
28456W        W96861  30.617   7.446   2.413
28457W        W96862   2.101  34.594   2.756
28458W        W96863  43.502   1.344  12.185
28459W        W96864  39.587  24.088  13.603
28460W        W96865  36.102  22.330   3.246
28461W        W96866  29.208  11.062  10.421
28462W        W96867   1.068  31.149   1.867
28463W        W96868  38.763  13.643  11.568
28464W        W96869  33.185  15.747  11.068
28465W        W96870   1.483  36.571  12.431
28466W        W96871  19.801  26.116  10.954
28467W        W96872  24.032   1.670   1.297
28468W        W96873  26.878  22.313   0.793
28469W        W96874  44.023  28.181   3.132
28470W        W96875  40.836  14.325   0.794
28471W        W96876  12.956  30.300  13.404
28472W        W96877  30.110   9.363   4.557
28473W        W96878  22.700  32.821  14.930
28474W        W96879  24.254  40.512   3.397
28475W        W96880  38.573  44.154  14.920
28476W        W96881   2.863   2.371   4.236
28477W        W96882  37.097  12.021   2.431
28478W        W96883  41.527  42.386   4.828
28479W        W96884   8.011  21.178  14.337
28480W        W96885  15.619  29.911   0.811
28481W        W96886  25.066  37.400   1.260
28482W        W96887  17.503   1.456  11.136
28483W        W96888   6.659   0.782   4.526
28484W        W96889   5.956  16.846  14.777
28485W        W96890  37.308   5.744  13.889
28486W        W96891  25.077   9.399   4.421
28487W        W96892  26.894  11.873   4.644
28488W        W96893   1.261   7.674  14.439
28489W        W96894  17.146  16.314  13.875
28490W        W96895  14.254  37.222   4.072
28491W        W96896  40.746  17.433  13.850
28492W        W96897   0.766  14.173  13.914
28493W        W96898   7.978  25.052   1.493
28494W        W96899   9.687  22.994   3.262
28495W        W96900  43.042  31.704   0.858
28496W        W96901  22.248  26.891   3.565
28497W        W96902  16.814  44.560   2.387
28498W        W96903  39.825  40.865  12.131
28499W        W96904  14.608   6.824   2.348
28500W        W96905   9.879  33.350   1.196
28501W        W96906  28.656  33.349   2.893
28502W        W96907  35.992   3.704  11.096
28503W        W96908  31.695  34.021  13.853
28504W        W96909  36.006  41.986  11.584
28505W        W96910  43.463  33.759  11.238
28506W        W96911   1.730  22.302   2.076
28507W        W96912  24.527  25.176   0.451
28508W        W96913  39.709  30.500   0.150
28509W        W96914  37.312  25.811  11.721
28510W        W96915  23.256   0.948   0.787
28511W        W96916   1.312   2.433  14.931
28512W        W96917  34.324  33.555  13.927
28513W        W96918  21.716  19.030  11.628
28514W        W96919   2.237  36.448   0.242
28515W        W96920  25.478  22.506  12.494
28516W        W96921  37.337  21.542  14.225
28517W        W96922  20.746  28.564  14.023
28518W        W96923  19.193  27.974   4.649
28519W        W96924  26.766  10.675  12.066
28520W        W96925  20.124  36.346  14.017
28521W        W96926   4.866  34.649   1.892
28522W        W96927  12.633  30.499   3.596
28523W        W96928  15.118  16.659  12.451
28524W        W96929   3.698  25.379   3.304
28525W        W96930   6.748  15.831  12.964
28526W        W96931  19.620  41.943   0.951
28527W        W96932  18.887  18.564  13.535
28528W        W96933   5.968  15.321  13.854
28529W        W96934   1.966  20.142  10.706
28530W        W96935   9.072  37.877   2.248
28531W        W96936  27.661  31.654   2.636
28532W        W96937   1.470   2.018  11.500
28533W        W96938   2.169  23.242   2.375
28534W        W96939   1.200  14.814   2.653
28535W        W96940  40.395  34.076  14.815
28536W        W96941   0.312   9.412   9.740
28537W        W96942  30.209  23.600  12.024
28538W        W96943  15.823   5.222   3.511
28539W        W96944  32.317  40.019   0.248
28540W        W96945  17.834  12.761  12.861
28541W        W96946  35.832  21.042   1.262
28542W        W96947  19.762  20.263   0.876
28543W        W96948  12.109  40.484   5.090
28544W        W96949  23.460   1.000  11.476
28545W        W96950  28.549   2.809  13.212
28546W        W96951  33.644   4.856   0.805
28547W        W96952  27.205  18.445  10.726
28548W        W96953  39.821  44.985   0.736
28549W        W96954  16.123  10.363  10.848
28550W        W96955  17.609  35.592  11.132
28551W        W96956  43.364  38.536  11.627
28552W        W96957  12.077   9.280   1.825
28553W        W96958  40.895   0.778  10.982
28554W        W96959  26.307  21.211  12.016
28555W        W96960  24.048  33.984  11.922
28556W        W96961  32.040  28.639   4.360
28557W        W96962   9.888   2.278   1.239
28558W        W96963   0.453  27.022  14.427
28559W        W96964   7.488  15.963  11.548
28560W        W96965  40.849  37.498   1.660
28561W        W96966  25.491  32.322   4.628
28562W        W96967  20.519  43.765   3.894
28563W        W96968   4.287   4.677   2.697
28564W        W96969  21.598  36.105  13.926
28565W        W96970  20.985  16.222   2.193
28566W        W96971  11.936   7.290  11.202
28567W        W96972  15.159  43.812   4.885
28568W        W96973  31.029   3.712   4.757
28569W        W96974  19.566  22.286  14.774
28570W        W96975  24.435  33.535   2.715
28571W        W96976  44.573  22.633   2.995
28572W        W96977  21.052   4.527   1.373
28573W        W96978  41.268  33.678   3.133
28574W        W96979  32.505  20.149   1.194
28575W        W96980  28.923  30.890   4.003
28576W        W96981  36.051  31.804   3.866
28577W        W96982  18.951  37.433   0.180
28578W        W96983  30.511  14.757   0.362
28579W        W96984  17.868  21.986  14.463
28580W        W96985  17.726  40.304  13.136
28581W        W96986  28.914  34.125  10.749
28582W        W96987  13.564  37.174   0.847
28583W        W96988  17.602  35.629   3.621
28584W        W96989  44.380  19.727  13.762
28585W        W96990   5.980  15.122   1.110
28586W        W96991  40.060  38.511  12.313
28587W        W96992  27.054  41.615  10.176
28588W        W96993  30.106   7.357  12.224
28589W        W96994  27.030   7.678  10.944
28590W        W96995  15.690  33.917  12.217
28591W        W96996   8.949  28.401   3.786
28592W        W96997  26.250  21.833   4.919
28593W        W96998   6.324   0.311   1.644
28594W        W96999  30.351  21.529   4.590
28595W        W97000  25.038   3.802   4.614
28596W        W97001  28.913  40.454   1.222
28597W        W97002  37.973  21.156   2.853
28598W        W97003  39.606   0.010   4.535
28599W        W97004  35.401  22.240  11.531
28600W        W97005  39.022  15.263  12.115
28601W        W97006  26.200  24.097   4.882
28602W        W97007  23.170   7.830   5.039
28603W        W97008   1.997  43.425   3.713
28604W        W97009  15.158  11.644  12.079
28605W        W97010  10.640  10.736  13.429
28606W        W97011  18.111   8.188  12.664
28607W        W97012  16.069   4.454  12.446
28608W        W97013  19.503  17.202   2.342
28609W        W97014  37.252  12.133  13.764
28610W        W97015  41.156   1.757  14.491
28611W        W97016  10.070  40.506  12.946
28612W        W97017  10.080   7.882  12.888
28613W        W97018  39.128  41.618   1.294
28614W        W97019  41.033  10.810   4.502
28615W        W97020  22.024  32.886   4.446
28616W        W97021  11.230  15.324   5.125
28617W        W97022  26.569  10.438   3.699
28618W        W97023  30.203  35.076   0.410
28619W        W97024  43.860  36.409  12.062
28620W        W97025   4.561  16.222   4.250
28621W        W97026  15.355   5.808   1.760
28622W        W97027  41.027  29.678  13.431
28623W        W97028   7.901   6.302  14.161
28624W        W97029  12.821  22.272   2.295
28625W        W97030  38.857   2.853   3.643
28626W        W97031  15.123  37.985  13.902
28627W        W97032  19.428  38.346  11.609
28628W        W97033  39.618  25.060   2.943
28629W        W97034   5.271  27.709  11.122
28630W        W97035   4.646   7.279  10.713
28631W        W97036  31.177  43.849   4.944
28632W        W97037  28.977   6.699  13.333
28633W        W97038  28.695  16.546  13.865
28634W        W97039  25.712  25.022   2.128
28635W        W97040  22.215  12.135   2.307
28636W        W97041  32.545  23.605  14.891
28637W        W97042  12.538  30.515   2.707
28638W        W97043  13.827  11.437   0.543
28639W        W97044  42.475  41.960  10.713
28640W        W97045  12.236  39.038   4.398
28641W        W97046  19.032   9.742   1.749
28642W        W97047  34.629  11.967   1.316
28643W        W97048   1.003   8.450   0.350
28644W        W97049   8.872   9.309   4.232
28645W        W97050  14.653  31.495   1.654
28646W        W97051  22.791   9.667  12.391
28647W        W97052   7.897  39.914   4.199
28648W        W97053  12.300  17.334   3.561
28649W        W97054  29.505  40.166   4.106
28650W        W97055   4.123   8.186  13.605
28651W        W97056  25.438   6.852   0.067
28652W        W97057  11.101   2.190  10.283
28653W        W97058  34.983  35.120   3.541
28654W        W97059  26.460  41.097   1.885
28655W        W97060   7.463   0.332  12.070
28656W        W97061  44.820  23.868   3.339
28657W        W97062  23.275   0.688   1.913
28658W        W97063   4.806  29.096   3.268
28659W        W97064  39.925  29.900  13.014
28660W        W97065  13.527  15.562  13.432
28661W        W97066  43.522   9.953   1.207
28662W        W97067  10.217  39.297  11.609
28663W        W97068   0.269   2.422  10.787
28664W        W97069  31.069  38.893   1.408
28665W        W97070  17.965   7.835   3.277
28666W        W97071  18.611  32.924   3.725
28667W        W97072  28.215  37.578   3.691
28668W        W97073  31.354  32.095  14.424
28669W        W97074  34.378  39.112   3.529
28670W        W97075  28.945  42.875  11.986
28671W        W97076  20.645  38.343   2.393
28672W        W97077  42.032  40.646  13.025
28673W        W97078   7.749  44.289  10.762
28674W        W97079  38.763   7.645  13.904
28675W        W97080  31.143  23.259  13.536
28676W        W97081   7.501  44.797   3.692
28677W        W97082  27.849  37.945   0.830
28678W        W97083  10.641  13.888   2.265
28679W        W97084  23.153  12.373   4.799
28680W        W97085  28.792   3.403   3.465
28681W        W97086  38.100   3.517   3.596
28682W        W97087  15.569  13.742  13.527
28683W        W97088  17.610  34.007   2.768
28684W        W97089  28.666  20.755   3.818
28685W        W97090  36.549  39.501   1.176
28686W        W97091  23.041  43.367  14.916
28687W        W97092  41.837  11.315  14.829
28688W        W97093   2.262  26.045   1.996
28689W        W97094  13.816  24.266   0.141
28690W        W97095  41.693  34.931   3.189
28691W        W97096   4.615  16.545   0.390
28692W        W97097  31.469  40.540  14.566
28693W        W97098  44.340  16.352  10.698
28694W        W97099  22.063   1.778   3.631
28695W        W97100  20.214  35.261  12.854
28696W        W97101  10.716  23.255  14.025
28697W        W97102  40.890  42.664  12.156
28698W        W97103  19.712  19.817   1.806
28699W        W97104  37.942  35.853   0.923
28700W        W97105  42.766   0.376   3.627
28701W        W97106  30.831  37.864  11.513
28702W        W97107  38.103  13.457  12.538
28703W        W97108  27.436  17.981   1.643
28704W        W97109  31.121   9.702   2.732
28705W        W97110  42.020  14.971  13.289
28706W        W97111   9.369   6.902  11.612
28707W        W97112  37.273  31.699   4.566
28708W        W97113  14.281  12.803   3.966
28709W        W97114  26.138  27.802  12.374
28710W        W97115  41.783  41.363   4.980
28711W        W97116  33.950   9.254  10.699
28712W        W97117  25.096  34.898  11.128
28713W        W97118   4.969   7.704   2.938
28714W        W97119  42.462  22.255   1.409
28715W        W97120   0.510  36.535  10.984
28716W        W97121  42.131  28.635   0.552
28717W        W97122  36.283  25.416   3.217
28718W        W97123  18.701   2.171  10.984
28719W        W97124  13.429   8.607   0.533
28720W        W97125  27.640  14.155  11.512
28721W        W97126  37.854  37.788   4.688
28722W        W97127   6.233   2.285   4.113
28723W        W97128  29.576  25.360  14.897
28724W        W97129  27.494   8.431  12.002
28725W        W97130  32.836   4.915   2.817
28726W        W97131  43.498  40.345   0.331
28727W        W97132  30.122  21.509  14.013
28728W        W97133   6.561  42.613  12.027
28729W        W97134   4.822   9.149   4.596
28730W        W97135   7.282  22.639  10.493
28731W        W97136  39.942   5.019  13.760
28732W        W97137  31.491   9.144   4.404
28733W        W97138  29.832  43.760  13.325
28734W        W97139  15.809  35.020  12.625
28735W        W97140  25.525  41.476   3.235
28736W        W97141  20.852  15.141  14.988
28737W        W97142  39.653   8.142   2.734
28738W        W97143  27.535  20.372   2.413
28739W        W97144  23.381  14.296   2.638
28740W        W97145  27.585  14.048  11.004
28741W        W97146  17.957  28.612   1.916
28742W        W97147  14.817  42.807   1.955
28743W        W97148  12.409  15.261   4.629
28744W        W97149  19.001  44.852  13.501
28745W        W97150  13.269  21.007  14.328
28746W        W97151  13.018  40.834   3.982
28747W        W97152  26.498  27.098   0.397
28748W        W97153  38.907   7.271   0.759
28749W        W97154  22.035  29.063   2.354
28750W        W97155  39.403  29.500  11.543
28751W        W97156  24.906   0.524  14.832
28752W        W97157  27.582  31.388  13.263
28753W        W97158  23.524  22.848   0.213
28754W        W97159   3.459  10.864  14.457
28755W        W97160  35.296  19.094  14.879
28756W        W97161  38.342  10.352   0.320
28757W        W97162  14.241   8.760  12.131
28758W        W97163  19.314  36.473   2.956
28759W        W97164  24.576   5.030   2.336
28760W        W97165  10.525  43.012  14.470
28761W        W97166  42.584   7.039  13.691
28762W        W97167  17.119  36.190   1.737
28763W        W97168  18.718   0.689  12.487
28764W        W97169   6.197  27.175   0.264
28765W        W97170  13.256  18.293   4.829
28766W        W97171   9.621  40.288  12.811
28767W        W97172  24.481  17.691  10.960
28768W        W97173   4.876  22.000  10.695
28769W        W97174   3.417  40.042  12.992
28770W        W97175   7.537  13.632   2.336
28771W        W97176  43.961   2.936  14.777
28772W        W97177   3.913  21.254  13.864
28773W        W97178  37.518  15.912  14.234
28774W        W97179  13.209  43.976  13.854
28775W        W97180   2.113  22.925   0.240
28776W        W97181  14.992   7.014  13.435
28777W        W97182  38.935  14.404  11.132
28778W        W97183  17.137  19.319  13.495
28779W        W97184  17.649  17.736   3.374
28780W        W97185  44.857  22.826   4.435
28781W        W97186  39.591  11.387   4.105
28782W        W97187  25.494  13.315   2.407
28783W        W97188   5.794  43.669   3.213
28784W        W97189  42.835   5.276   1.379
28785W        W97190  13.770  26.632  14.067
28786W        W97191  19.576  37.469   1.965
28787W        W97192  41.060  19.536  11.887
28788W        W97193  41.783   0.908   1.351
28789W        W97194  15.591  24.565  11.585
28790W        W97195  27.749  19.153  13.806
28791W        W97196  44.232  28.968   0.530
28792W        W97197  37.995  40.832   0.815
28793W        W97198  31.577  33.011   0.715
28794W        W97199  33.491  25.737  14.379
28795W        W97200  26.915  19.972   1.343
28796W        W97201  22.494   6.996   3.082
28797W        W97202   9.244  18.291  10.639
28798W        W97203  28.248  26.639  14.824
28799W        W97204  40.430  32.057   3.068
28800W        W97205   9.488   7.210   2.565
28801W        W97206   4.483  40.121   2.839
28802W        W97207  38.987  30.179   2.866
28803W        W97208  25.358  38.878  10.670
28804W        W97209  12.573  10.955  13.403
28805W        W97210   7.592  37.387   0.432
28806W        W97211   4.727  23.522   0.353
28807W        W97212  35.878  30.476  14.412
28808W        W97213  11.610   4.992  13.531
28809W        W97214  23.724  29.134  10.717
28810W        W97215   0.235  42.961   1.181
28811W        W97216  17.743  23.138   4.173
28812W        W97217   6.438  11.160   1.868
28813W        W97218  21.636  38.541  14.034
28814W        W97219  23.903  21.690   1.341
28815W        W97220  27.991  15.325  11.213
28816W        W97221  10.360  36.104  14.923
28817W        W97222  14.046  11.757  11.954
28818W        W97223   0.737  17.912   3.283
28819W        W97224  43.471  25.143   3.196
28820W        W97225  33.857  35.892  11.597
28821W        W97226  32.374  31.596   2.835
28822W        W97227   5.719  26.967  11.167
28823W        W97228   6.415  17.654   2.001
28824W        W97229   2.653  15.863   1.107
28825W        W97230  35.976   6.016   3.553
28826W        W97231  34.550  10.797   4.346
28827W        W97232  29.906  35.152   2.601
28828W        W97233  35.992  25.674  12.348
28829W        W97234  33.709  17.520   1.516
28830W        W97235  33.735  30.946  11.196
28831W        W97236  42.312  25.308  13.654
28832W        W97237  21.306   6.375   3.069
28833W        W97238  18.548   6.293  13.991
28834W        W97239  38.778  25.708   4.254
28835W        W97240  25.550  14.248   1.626
28836W        W97241   0.240  11.302  13.991
28837W        W97242  12.229   8.395  11.539
28838W        W97243   1.394   6.158   2.376
28839W        W97244  38.100  25.016  14.710
28840W        W97245  13.264  24.458   1.254
28841W        W97246  36.379  44.712  14.881
28842W        W97247  34.352   2.483   2.711
28843W        W97248  20.219  14.099   2.200
28844W        W97249  33.638  38.449  12.424
28845W        W97250  31.908   9.301   1.962
28846W        W97251  13.566  29.579  13.028
28847W        W97252   4.029  12.653  11.773
28848W        W97253  18.642  28.454  12.421
28849W        W97254  12.164  25.706   2.102
28850W        W97255  24.463  32.922  11.895
28851W        W97256  16.672  22.073  13.047
28852W        W97257  12.984  25.656   2.759
28853W        W97258  17.542  26.438  13.033
28854W        W97259  24.536   3.171  14.525
28855W        W97260  18.267   2.916  10.776
28856W        W97261   5.391   3.066  11.969
28857W        W97262  26.345  41.747  13.098
28858W        W97263   2.376   6.939   1.837
28859W        W97264  16.789  21.995   4.121
28860W        W97265   6.704   3.979  11.476
28861W        W97266  44.154  17.046  12.456
28862W        W97267  19.858  44.437  10.492
28863W        W97268  11.241  36.789   3.231
28864W        W97269  13.354  41.121  11.112
28865W        W97270  38.749  38.900   0.688
28866W        W97271   9.681  32.831   0.454
28867W        W97272  35.087   5.234   4.379
28868W        W97273  27.562  20.184   1.923
28869W        W97274  20.329  17.720   1.269
28870W        W97275  14.628  27.040   3.256
28871W        W97276  12.103  10.274  11.273
28872W        W97277  24.079  33.451   4.991
28873W        W97278  31.196  38.381  10.152
28874W        W97279   0.153  26.761   4.099
28875W        W97280   2.755  36.166  11.703
28876W        W97281  28.914   5.630  11.474
28877W        W97282   2.323  26.617  11.841
28878W        W97283  19.072  20.996  10.182
28879W        W97284  21.035   9.592  10.655
28880W        W97285  11.576  17.301   1.754
28881W        W97286  40.580  27.034   0.498
28882W        W97287  42.598  30.519  12.419
28883W        W97288   5.991  44.574   1.960
28884W        W97289   5.459  20.741  13.366
28885W        W97290  43.512   5.322   1.943
28886W        W97291  36.228   6.738  12.650
28887W        W97292  17.010  19.679   1.766
28888W        W97293  39.947  41.601   2.799
28889W        W97294  40.362  16.524  10.627
28890W        W97295   4.779  40.357   0.526
28891W        W97296   3.296   5.409  11.627
28892W        W97297  27.975  32.662  10.663
28893W        W97298  39.834  37.780  13.884
28894W        W97299  28.623  13.649   2.908
28895W        W97300  13.237  17.270   5.129
28896W        W97301  21.754  42.945  12.648
28897W        W97302  19.191  24.739  13.988
28898W        W97303  16.750  43.723   3.737
28899W        W97304  20.585  25.857  11.645
28900W        W97305   1.136  26.581   4.229
28901W        W97306   4.845  16.512  11.609
28902W        W97307  43.212  18.994   0.428
28903W        W97308  14.211  41.782  11.977
28904W        W97309  30.194  25.597   2.887
28905W        W97310  16.319  38.958   2.378
28906W        W97311  30.354  26.515   0.561
28907W        W97312  11.404  43.790  13.430
28908W        W97313  12.298  23.039   4.492
28909W        W97314   1.983  44.707  12.632
28910W        W97315  39.944   3.018  14.984
28911W        W97316  19.071  24.928  11.141
28912W        W97317  36.871  34.909   1.889
28913W        W97318  36.570  29.578   3.933
28914W        W97319  19.672  29.126   2.421
28915W        W97320  14.533   7.858   0.853
28916W        W97321  22.643  36.526   4.667
28917W        W97322  11.264  42.888   0.722
28918W        W97323   0.189  29.835  10.675
28919W        W97324   2.029  40.931   0.892
28920W        W97325  31.194   0.880   3.110
28921W        W97326  20.764   3.887  11.290
28922W        W97327   7.806  32.005   2.338
28923W        W97328  40.816   1.781  12.139
28924W        W97329  10.787  32.112   0.366
28925W        W97330  24.080  14.100   1.120
28926W        W97331  19.245  43.339  13.036
28927W        W97332  21.123  39.919   0.461
28928W        W97333  19.517   6.681   2.662
28929W        W97334  21.554  44.821   4.489
28930W        W97335  18.841  13.760  13.181
28931W        W97336  24.681  15.882  12.492
28932W        W97337  32.568  10.423  14.077
28933W        W97338  41.448  30.624   2.752
28934W        W97339   8.340   4.673   3.186
28935W        W97340  22.275   3.372   3.321
28936W        W97341  30.522  44.991  14.319
28937W        W97342   5.570  29.218   1.512
28938W        W97343   2.827  26.012   3.458
28939W        W97344  39.055  12.829  11.583
28940W        W97345  37.072  39.657   2.174
28941W        W97346  25.851  23.733  13.467
28942W        W97347  25.588  15.770  13.552
28943W        W97348   7.316   8.479   1.691
28944W        W97349   5.263  30.889  13.890
28945W        W97350  41.566   3.299  14.888
28946W        W97351   3.334  17.070   0.750
28947W        W97352  36.935  35.366   1.635
28948W        W97353   1.636  10.718  13.414
28949W        W97354  38.800  39.792  10.388
28950W        W97355  13.225  17.464   0.584
28951W        W97356  22.578  15.891  11.476
28952W        W97357  33.906   6.279  12.964
28953W        W97358   0.386  23.204   3.156
28954W        W97359  36.118  23.748   4.084
28955W        W97360   1.801   5.204  12.043
28956W        W97361  16.549   9.198   2.344
28957W        W97362  36.360  31.395  11.217
28958W        W97363  12.013   8.142  14.378
28959W        W97364  35.944  12.290   2.115
28960W        W97365   9.477  35.098   2.256
28961W        W97366  31.112  32.131  10.684
28962W        W97367  36.422   9.761  12.037
28963W        W97368   7.612   6.795   3.967
28964W        W97369  40.168  12.322   0.718
28965W        W97370   6.618  19.820   3.332
28966W        W97371   3.934   0.220  12.536
28967W        W97372  41.473  24.268   2.158
28968W        W97373   9.876  23.773   4.222
28969W        W97374   1.504  27.228   1.271
28970W        W97375  33.637  27.115   1.419
28971W        W97376  34.898  22.833  11.015
28972W        W97377   0.348   6.368  12.573
28973W        W97378   6.980  21.349   2.668
28974W        W97379  19.291  35.340  12.894
28975W        W97380   1.301   7.715  11.282
28976W        W97381   5.305  35.373   4.186
28977W        W97382  14.529  23.201   2.948
28978W        W97383  19.340  23.656  11.921
28979W        W97384  20.264  31.051   2.799
28980W        W97385  40.714  34.917  12.762
28981W        W97386  17.177  24.037   2.707
28982W        W97387  41.963  25.651  12.020
28983W        W97388   2.302  19.124  11.752
28984W        W97389  23.046  38.402   2.878
28985W        W97390  29.664   0.473  13.908
28986W        W97391  13.285  39.535   3.710
28987W        W97392   0.788  35.624  10.648
28988W        W97393  38.851  15.060   4.356
28989W        W97394  23.357  42.693  14.307
28990W        W97395  36.588  29.204  14.376
28991W        W97396  41.466  28.083  13.747
28992W        W97397  21.313  17.725  13.109
28993W        W97398  11.306  27.941  11.749
28994W        W97399   7.341  24.087   5.031
28995W        W97400   0.776   6.271   0.910
28996W        W97401   2.718  23.993  10.631
28997W        W97402   4.927  32.669  11.475
28998W        W97403  38.321  18.275  12.611
28999W        W97404   1.335  20.690   2.803
29000W        W97405  39.265  16.750   1.598
29001W        W97406  10.369  44.202   2.179
29002W        W97407  26.519  25.666   0.237
29003W        W97408  27.105  18.840  13.414
29004W        W97409  15.483  41.884   1.834
29005W        W97410  10.334   3.832  13.429
29006W        W97411  43.275  15.473  13.967
29007W        W97412  35.332  25.078  14.899
29008W        W97413   3.172  29.711   2.830
29009W        W97414  42.274   8.167   0.956
29010W        W97415  43.859  19.679   0.494
29011W        W97416   4.855  44.562   3.849
29012W        W97417  24.230   7.774  12.003
29013W        W97418   0.871  21.155  14.879
29014W        W97419  36.869   3.728   0.443
29015W        W97420  38.051  34.900  12.533
29016W        W97421  18.626  21.982  10.252
29017W        W97422  39.870   7.284  10.500
29018W        W97423  15.520  22.282  14.839
29019W        W97424  39.604   4.825   2.411
29020W        W97425  30.336  25.106   3.032
29021W        W97426  17.340  23.056  12.539
29022W        W97427  33.098  31.593   2.150
29023W        W97428  14.628  34.461   1.784
29024W        W97429   6.698  43.843  12.340
29025W        W97430  31.579  31.020   2.741
29026W        W97431  23.241   5.710   1.957
29027W        W97432  28.251  28.423   4.246
29028W        W97433  12.170  35.053  10.568
29029W        W97434   2.921  10.119  11.969
29030W        W97435  29.945  37.919   2.352
29031W        W97436   7.835  41.493  13.710
29032W        W97437   7.444  29.484   3.754
29033W        W97438  33.626  34.878   3.800
29034W        W97439  23.174  18.117   0.029
29035W        W97440  14.556  30.963   4.312
29036W        W97441   0.481  25.030  10.557
29037W        W97442  17.783  13.470  13.371
29038W        W97443   5.961  24.415  11.132
29039W        W97444  30.493   0.634   3.574
29040W        W97445  23.608  21.076   2.096
29041W        W97446  19.621  36.619   0.315
29042W        W97447  36.453   4.113   2.452
29043W        W97448   5.993  15.476   3.290
29044W        W97449  44.832  11.481  11.911
29045W        W97450   0.914  33.306   1.362
29046W        W97451  43.359  37.292  11.955
29047W        W97452  12.346  18.799   0.932
29048W        W97453  29.828  26.125  11.238
29049W        W97454  25.016  18.235  10.359
29050W        W97455   3.438   7.295   1.280
29051W        W97456  40.998  40.775  13.741
29052W        W97457   2.164  16.842   4.168
29053W        W97458  22.206   0.485  11.220
29054W        W97459   6.257  26.476  11.982
29055W        W97460  21.605  21.127  14.970
29056W        W97461  30.698  27.243   0.870
29057W        W97462  16.105  17.858   1.892
29058W        W97463  10.802  39.671   4.110
29059W        W97464  24.665  35.628   1.435
29060W        W97465  12.622  20.198  14.406
29061W        W97466   5.485  29.662   2.428
29062W        W97467  15.849  14.196  10.390
29063W        W97468   9.579  36.044  10.382
29064W        W97469  36.454  23.738   0.948
29065W        W97470  43.884  18.041  12.185
29066W        W97471   4.632  38.389   1.179
29067W        W97472  24.705  17.334   4.177
29068W        W97473  38.476  35.573  14.930
29069W        W97474  23.937   1.527   3.872
29070W        W97475  39.342  29.139  10.715
29071W        W97476  16.234  35.035  10.200
29072W        W97477  43.562  37.637   0.794
29073W        W97478   6.285  27.348  14.776
29074W        W97479  32.454  35.552   3.181
29075W        W97480  37.579  24.898  11.165
29076W        W97481  41.270  31.965   3.663
29077W        W97482   6.582  18.746   0.258
29078W        W97483  14.567  29.423   3.317
29079W        W97484  32.182  36.597   2.150
29080W        W97485  32.036   2.043  11.388
29081W        W97486  10.355  18.528   5.076
29082W        W97487  13.364  10.573  11.397
29083W        W97488  15.806  23.147   4.287
29084W        W97489  38.623  10.134  12.535
29085W        W97490  20.727  37.377   3.702
29086W        W97491   0.304  22.207  10.589
29087W        W97492  17.256   6.635   1.162
29088W        W97493  37.455  20.131  11.671
29089W        W97494   8.732  17.357  12.882
29090W        W97495  43.252   8.064  14.780
29091W        W97496  27.540  42.782  11.852
29092W        W97497  30.579  18.196  10.978
29093W        W97498  20.562  36.370  14.359
29094W        W97499   1.956  34.359   3.377
29095W        W97500  42.115  41.111   1.958
29096W        W97501  18.066  17.397  14.163
29097W        W97502  13.008  28.865  14.960
29098W        W97503  11.988  24.261  13.385
29099W        W97504   7.287  11.800   4.114
29100W        W97505   8.660  20.272  11.319
29101W        W97506  18.332  32.327   4.459
29102W        W97507  23.600  37.942   3.184
29103W        W97508  36.955   4.235   1.143
29104W        W97509   1.476  13.684  11.908
29105W        W97510   0.995   0.004  10.799
29106W        W97511  16.283  16.985   0.680
29107W        W97512  13.392  44.365  10.684
29108W        W97513   8.385  11.791  14.843
29109W        W97514  29.738  17.385  13.934
29110W        W97515   7.691   7.762   4.583
29111W        W97516  41.636   2.988  11.186
29112W        W97517  26.605  10.454   4.954
29113W        W97518  29.076  29.479  13.358
29114W        W97519   3.209  23.126   4.734
29115W        W97520   3.031  12.371   0.225
29116W        W97521  24.650  22.163   1.325
29117W        W97522  33.671   6.190  11.969
29118W        W97523  25.575  15.788   1.850
29119W        W97524  22.492   6.649   0.017
29120W        W97525   7.883  13.093  12.028
29121W        W97526  16.508  22.328  10.188
29122W        W97527  22.750  24.700  10.701
29123W        W97528  10.301  42.861   1.886
29124W        W97529  29.550  10.342   4.811
29125W        W97530  11.044   7.273  11.438
29126W        W97531  28.087  10.375  11.428
29127W        W97532  44.442   2.434  14.033
29128W        W97533  43.853  16.735  11.957
29129W        W97534  44.664  41.028  11.329
29130W        W97535  26.704   0.376   4.473
29131W        W97536   3.892   2.161   2.502
29132W        W97537  25.637  12.121  12.985
29133W        W97538  18.486   3.200   1.644
29134W        W97539  21.461  31.673  11.196
29135W        W97540  13.320  17.138   1.897
29136W        W97541  12.193  17.639   2.183
29137W        W97542  32.922  19.055   1.458
29138W        W97543  32.589  25.027   3.385
29139W        W97544  14.822   6.531  12.994
29140W        W97545  21.960  39.300  13.139
29141W        W97546   5.223  12.281  12.491
29142W        W97547  35.150   4.187  10.699
29143W        W97548  14.568  30.028   3.718
29144W        W97549  41.786  22.691  12.003
29145W        W97550  17.774  31.363  10.007
29146W        W97551  41.608  18.130   3.001
29147W        W97552  10.299  30.344   1.297
29148W        W97553  15.763   6.146   1.314
29149W        W97554  36.317  21.165   1.339
29150W        W97555  14.497  23.922   4.709
29151W        W97556  32.086  11.678   2.243
29152W        W97557  17.049   4.935  14.961
29153W        W97558  15.386  19.745   1.336
29154W        W97559  33.118  43.370  13.409
29155W        W97560  41.862  16.591   2.220
29156W        W97561  10.434  27.961   0.342
29157W        W97562   9.800  26.734  13.195
29158W        W97563  37.023  13.822  13.911
29159W        W97564  44.913  28.143   2.356
29160W        W97565  28.602  26.649   0.197
29161W        W97566  23.511  22.099  14.728
29162W        W97567   7.742  21.053   4.269
29163W        W97568  39.961  14.819   1.219
29164W        W97569   8.929  21.094  11.875
29165W        W97570   4.418  14.658   1.891
29166W        W97571  41.094  37.105  14.077
29167W        W97572   6.256  15.566  10.514
29168W        W97573  10.828  42.979   2.652
29169W        W97574  38.338  31.508   1.750
29170W        W97575   4.887   9.247  11.873
29171W        W97576  42.279  44.175  11.064
29172W        W97577  38.310  15.544   0.678
29173W        W97578  32.777  44.417   1.072
29174W        W97579   8.290  33.718  14.362
29175W        W97580  38.387   3.029  11.947
29176W        W97581  43.498  38.113   1.970
29177W        W97582  10.240  31.201  13.534
29178W        W97583  15.436   2.993  10.276
29179W        W97584   3.279  30.544   0.940
29180W        W97585  15.058  21.588   0.510
29181W        W97586  19.657   0.416   4.559
29182W        W97587  32.311  21.198   4.292
29183W        W97588  20.100  16.067   4.115
29184W        W97589  28.469  39.894  14.869
29185W        W97590  19.726  34.463  12.028
29186W        W97591  42.733   6.635   2.449
29187W        W97592  36.459  42.798  13.250
29188W        W97593   1.078  42.138  14.493
29189W        W97594  33.835   1.405   0.025
29190W        W97595   4.360  43.453   4.342
29191W        W97596  13.433  10.343   4.557
29192W        W97597  41.052  11.806   1.875
29193W        W97598  16.308  19.677   1.317
29194W        W97599   7.588  43.981  13.905
29195W        W97600  38.021  42.126  14.971
29196W        W97601  32.882  24.471  13.518
29197W        W97602  33.017  23.031  13.055
29198W        W97603  19.720   2.638   0.856
29199W        W97604  44.936   3.461  13.075
29200W        W97605  14.280  10.372   2.533
29201W        W97606  43.716  44.429   0.418
29202W        W97607  23.699  43.160   3.774
29203W        W97608  29.804  14.681   4.174
29204W        W97609  36.762   8.860   3.768
29205W        W97610  12.266  28.245   1.307
29206W        W97611  27.708  14.036   2.190
29207W        W97612  30.440  42.883   3.762
29208W        W97613  44.714  42.410  12.438
29209W        W97614   1.516  26.726  12.874
29210W        W97615  23.913   6.647   3.786
29211W        W97616  12.172  21.293  12.919
29212W        W97617  33.814  36.599   2.199
29213W        W97618  32.513  32.182  14.937
29214W        W97619  22.050   6.367   1.856
29215W        W97620  17.369  43.040  12.887
29216W        W97621  42.941  41.993  12.594
29217W        W97622  31.489  35.172  14.756
29218W        W97623  36.405  20.250   4.535
29219W        W97624  25.065   5.946   3.853
29220W        W97625   5.948  15.236   1.610
29221W        W97626  16.219  44.901   1.406
29222W        W97627  16.553  11.752   1.332
29223W        W97628   8.863   5.304  11.027
29224W        W97629  33.051  35.098  13.153
29225W        W97630  37.059  39.789  12.892
29226W        W97631  41.470  25.474  14.836
29227W        W97632   1.891  28.583   3.069
29228W        W97633   1.254  24.397  11.001
29229W        W97634  15.693  28.981   4.677
29230W        W97635  24.101  14.612   4.154
29231W        W97636  10.962  24.515  13.411
29232W        W97637  37.589  15.659  13.309
29233W        W97638  27.513  30.025  13.284
29234W        W97639  44.286  41.994  11.394
29235W        W97640  24.786  24.648   2.622
29236W        W97641   9.165  19.124  12.448
29237W        W97642  22.656  37.597  13.113
29238W        W97643  42.226  25.198  11.785
29239W        W97644  39.144   7.967   1.347
29240W        W97645  35.577  16.289   0.869
29241W        W97646  39.935  40.797   1.703
29242W        W97647  15.804  28.245   1.348
29243W        W97648   1.495   8.669  12.978
29244W        W97649  34.915  10.570   5.114
29245W        W97650  23.183  35.976  13.532
29246W        W97651  14.779  11.588  11.250
29247W        W97652  19.564  39.934  10.274
29248W        W97653  11.806  22.572   0.974
29249W        W97654   2.481  34.775  11.612
29250W        W97655   6.121  28.181  12.626
29251W        W97656  18.294  36.620   2.182
29252W        W97657  24.355  22.624   4.560
29253W        W97658  24.230  34.482  13.571
29254W        W97659  30.105  12.154   3.910
29255W        W97660  34.938  30.936   1.565
29256W        W97661  26.150  39.741   0.780
29257W        W97662  15.722  16.766   3.369
29258W        W97663   0.537   7.651   3.643
29259W        W97664  32.141   5.237   3.291
29260W        W97665  14.135  13.750   4.096
29261W        W97666  10.440  23.576   3.680
29262W        W97667  11.340  30.413  12.535
29263W        W97668  15.299  10.346   0.712
29264W        W97669  34.903  26.679  10.580
29265W        W97670  39.750  41.016  10.819
29266W        W97671   9.227   4.763   0.100
29267W        W97672  12.042  39.899  10.679
29268W        W97673  17.901   5.964  10.781
29269W        W97674  29.318  29.126   4.793
29270W        W97675  26.556  39.483   3.273
29271W        W97676  12.225  14.857  10.985
29272W        W97677  39.574  44.802  12.820
29273W        W97678  28.988   3.169   1.405
29274W        W97679   6.936  26.423  11.588
29275W        W97680  44.820  27.622  14.818
29276W        W97681   5.176   2.345   4.413
29277W        W97682  41.467   2.246   4.947
29278W        W97683  15.010  28.118  11.922
29279W        W97684  36.075  27.131  11.900
29280W        W97685  22.019   2.304  14.897
29281W        W97686  11.562  34.877  14.429
29282W        W97687  41.534  22.999   2.891
29283W        W97688  17.292  10.699   4.251
29284W        W97689  22.243  35.634  12.050
29285W        W97690  29.647   5.789  14.594
29286W        W97691  39.522  27.477  14.732
29287W        W97692  23.867  36.369   0.616
29288W        W97693  12.897   3.725   3.417
29289W        W97694  38.533  31.458  12.436
29290W        W97695  25.025  14.553  11.584
29291W        W97696  44.465  37.543  10.560
29292W        W97697   4.533   5.718  11.092
29293W        W97698  44.679  13.335  11.587
29294W        W97699   9.370  18.732   1.720
29295W        W97700  24.290  29.502  12.514
29296W        W97701  17.528  24.964  12.069
29297W        W97702  43.191   7.921   4.749
29298W        W97703  17.322  37.366   4.566
29299W        W97704  13.863  25.076  13.365
29300W        W97705  37.923   9.570   4.215
29301W        W97706  40.531  16.811   0.795
29302W        W97707  42.199   8.962   2.270
29303W        W97708  38.999   1.248  13.336
29304W        W97709  37.674   1.674  12.934
29305W        W97710   6.379  31.903   4.596
29306W        W97711  29.151  40.261   0.414
29307W        W97712  42.993  26.288   3.820
29308W        W97713  17.182  19.869  13.422
29309W        W97714   4.807  36.140   0.254
29310W        W97715  39.643  19.669   0.843
29311W        W97716   5.170   6.804  11.388
29312W        W97717  24.617   9.838   1.612
29313W        W97718  34.600  33.337  14.638
29314W        W97719   1.950  29.137   4.128
29315W        W97720  44.573  41.230  14.451
29316W        W97721  33.293  22.902  10.966
29317W        W97722  30.790  13.284   1.277
29318W        W97723  27.145  39.299   4.839
29319W        W97724   8.267  34.004  10.645
29320W        W97725  36.891  31.898  14.854
29321W        W97726  42.498   4.945   3.937
29322W        W97727  43.754   6.147   1.773
29323W        W97728  27.159  37.053   3.743
29324W        W97729  24.767  11.353  10.432
29325W        W97730   8.289  23.840   3.043
29326W        W97731  35.769  15.397  13.863
29327W        W97732  16.297   7.865  14.987
29328W        W97733  35.875  17.644  12.979
29329W        W97734  35.570  42.001   4.390
29330W        W97735  24.133   5.910   0.972
29331W        W97736  26.530  15.893   0.901
29332W        W97737  14.720  20.107  14.232
29333W        W97738  44.593   6.067  10.638
29334W        W97739  43.790  23.294  11.652
29335W        W97740  10.169  28.315   9.952
29336W        W97741   2.813   9.900  13.794
29337W        W97742  12.060  25.017  12.128
29338W        W97743  11.860  18.511  13.071
29339W        W97744  35.721  26.024   4.335
29340W        W97745  31.006  44.818  11.020
29341W        W97746  10.302  17.501   1.922
29342W        W97747  26.964  19.327  13.403
29343W        W97748   7.327  20.627  14.459
29344W        W97749  21.764   7.783   0.662
29345W        W97750   8.737   4.419   2.358
29346W        W97751   6.294  20.666   1.927
29347W        W97752  23.890  39.309   1.089
29348W        W97753   1.070  23.009   0.465
29349W        W97754   0.864  41.739  13.843
29350W        W97755   2.725  39.191  13.520
29351W        W97756  39.557  37.016  12.403
29352W        W97757  29.455  28.643  13.500
29353W        W97758  16.334   1.475  14.904
29354W        W97759  38.778   2.408  11.156
29355W        W97760   3.888   9.338  12.101
29356W        W97761   3.696  44.906  14.553
29357W        W97762   7.689  25.633   4.652
29358W        W97763  20.744  14.839   4.626
29359W        W97764   6.269   5.616  11.108
29360W        W97765  24.027   9.858   2.716
29361W        W97766  30.198   7.582   3.276
29362W        W97767  41.918  29.115   0.784
29363W        W97768  34.065  37.176   3.329
29364W        W97769  25.197  13.666  14.815
29365W        W97770  37.989  11.315  10.469
29366W        W97771  20.692   4.233  10.805
29367W        W97772  12.785  16.622   4.638
29368W        W97773  12.764  42.699  13.888
29369W        W97774  42.688  30.300  12.890
29370W        W97775   2.744  40.542   3.688
29371W        W97776  22.110   2.862   0.713
29372W        W97777  20.520  33.490  10.519
29373W        W97778   8.930  20.674  14.306
29374W        W97779  30.649  41.219   3.829
29375W        W97780  21.789  26.632  13.997
29376W        W97781   2.710  25.260  14.505
29377W        W97782   9.966  38.912  10.761
29378W        W97783   3.587  31.405  11.219
29379W        W97784  13.396   5.804  10.666
29380W        W97785  27.067  14.045   1.990
29381W        W97786  39.568  39.954  12.127
29382W        W97787  18.930   6.346   4.008
29383W        W97788  30.567   8.027  14.943
29384W        W97789  41.946  12.858  11.836
29385W        W97790   8.250  38.460  14.570
29386W        W97791   8.279  23.867  13.416
29387W        W97792  28.888  20.174   2.280
29388W        W97793   2.700   8.903   1.704
29389W        W97794  39.829  24.410  11.238
29390W        W97795  36.444  25.993   2.270
29391W        W97796   5.283  21.078   1.219
29392W        W97797  20.014  13.284  10.617
29393W        W97798  24.712  41.224   4.683
29394W        W97799   3.232  35.258  14.842
29395W        W97800   3.707  22.807   3.373
29396W        W97801  25.972  43.817  13.993
29397W        W97802  44.890  13.360  14.308
29398W        W97803  26.156  17.861  12.345
29399W        W97804  30.675   4.000  14.482
29400W        W97805  35.886  30.505   0.437
29401W        W97806  18.734   0.677   1.955
29402W        W97807  38.976  29.812  11.477
29403W        W97808  12.797  33.357  10.683
29404W        W97809  31.002  40.056  11.958
29405W        W97810  27.431  24.571  12.566
29406W        W97811  44.281  23.049   4.591
29407W        W97812  37.123  17.385   3.873
29408W        W97813  41.325  39.802  12.488
29409W        W97814  24.751   3.141   3.329
29410W        W97815  26.602   2.605  13.526
29411W        W97816  38.828  33.022   0.375
29412W        W97817  26.914  11.093   3.204
29413W        W97818  36.012  14.642   2.775
29414W        W97819  15.980  38.238  14.684
29415W        W97820  12.925   6.574  12.493
29416W        W97821  43.377  24.307  12.766
29417W        W97822  43.362  34.535   4.543
29418W        W97823   6.306  19.139  14.296
29419W        W97824  19.745  24.439   5.264
29420W        W97825  43.077  35.503  10.704
29421W        W97826  41.667  41.588   0.372
29422W        W97827   4.368  39.502  10.668
29423W        W97828  11.412   6.373  13.495
29424W        W97829  27.662   4.678  11.077
29425W        W97830  22.541  41.463  13.385
29426W        W97831   9.907   7.172  12.431
29427W        W97832  31.960  36.260  12.132
29428W        W97833  22.094  38.571   4.492
29429W        W97834   9.711  30.877  10.517
29430W        W97835  17.069  26.987   0.232
29431W        W97836  37.406  21.588   1.187
29432W        W97837  11.581  34.088   2.690
29433W        W97838  34.052  43.987   1.681
29434W        W97839   1.703  24.751   3.335
29435W        W97840  13.064  33.515  13.577
29436W        W97841   9.737  23.262   1.901
29437W        W97842  38.050   9.026   3.289
29438W        W97843  35.698  29.384  12.023
29439W        W97844  35.470  44.798  13.330
29440W        W97845  38.329  36.872   2.950
29441W        W97846   3.186  17.637   2.899
29442W        W97847  26.941  24.140   0.005
29443W        W97848   2.697  12.552   2.405
29444W        W97849  16.146  23.281   1.338
29445W        W97850   0.313  17.492   4.075
29446W        W97851  16.401  17.823   2.717
29447W        W97852  31.511  39.172   1.414
29448W        W97853  11.173  38.668   2.783
29449W        W97854  40.104  30.719   2.330
29450W        W97855  20.030  15.526   3.776
29451W        W97856   7.773  19.835  14.569
29452W        W97857  29.397   3.880   1.016
29453W        W97858  11.743   7.184  14.667
29454W        W97859  29.877  21.504  14.878
29455W        W97860  38.495  19.551   3.607
29456W        W97861  21.323   6.284  13.926
29457W        W97862   2.517  19.781  11.041
29458W        W97863  14.306   5.348  14.682
29459W        W97864  27.016   5.536   0.698
29460W        W97865  27.579  36.598   1.171
29461W        W97866  18.387  23.973  13.950
29462W        W97867  23.310  10.486   0.885
29463W        W97868  35.902   9.683   0.511
29464W        W97869   5.269   7.269   3.751
29465W        W97870   8.885  44.531   2.318
29466W        W97871  21.215  11.626   2.694
29467W        W97872  18.544  32.992   0.428
29468W        W97873   9.171  21.137  10.288
29469W        W97874  23.275  13.434  11.013
29470W        W97875  13.248  43.370  11.681
29471W        W97876  44.479  26.680  12.446
29472W        W97877  14.095  42.476   3.110
29473W        W97878   2.236  19.494   3.726
29474W        W97879  42.060   0.542   2.256
29475W        W97880  34.591  19.426   3.146
29476W        W97881  36.037  28.301  12.476
29477W        W97882  28.505  17.296   1.432
29478W        W97883  28.062  27.209  10.496
29479W        W97884  42.915  23.078   2.424
29480W        W97885  41.320  25.108   1.951
29481W        W97886  10.305  25.240  12.612
29482W        W97887  13.123   5.256  13.013
29483W        W97888  41.783  24.716   0.810
29484W        W97889  44.735  43.433  10.697
29485W        W97890  14.844  41.017   1.844
29486W        W97891   7.649  13.225   3.248
29487W        W97892  30.937   5.909   3.890
29488W        W97893  34.927  29.861   1.186
29489W        W97894  17.179  15.626  10.581
29490W        W97895   8.309  14.614  10.670
29491W        W97896  33.502  11.691  13.825
29492W        W97897  21.272  42.915  14.849
29493W        W97898  20.002  10.920   1.560
29494W        W97899  20.336   5.909   3.665
29495W        W97900  38.959  23.510   0.421
29496W        W97901  41.934  15.340   0.262
29497W        W97902  30.458  31.154  11.576
29498W        W97903  34.271  22.628   2.946
29499W        W97904  25.992  11.630  13.957
29500W        W97905  12.099  43.788  14.794
29501W        W97906  32.003  40.556   1.777
29502W        W97907  11.445  19.259   3.922
29503W        W97908  34.402  30.603   3.251
29504W        W97909  33.011   3.424  10.973
29505W        W97910   4.289   5.596   1.366
29506W        W97911  24.259  38.744   2.762
29507W        W97912  16.536  44.588  13.302
29508W        W97913   9.801  32.689  13.513
29509W        W97914   7.230  13.616  12.479
29510W        W97915  31.153  39.582  13.272
29511W        W97916  27.973   3.978   3.349
29512W        W97917  34.290   2.358   1.748
29513W        W97918   6.727  37.518   1.244
29514W        W97919  14.636  21.515   0.208
29515W        W97920   4.289   8.806   2.767
29516W        W97921   7.876   9.574  10.996
29517W        W97922   1.419  16.782   0.353
29518W        W97923  15.858   3.514  14.366
29519W        W97924  23.156  25.086  12.704
29520W        W97925  19.258  31.205  14.319
29521W        W97926  35.526  33.550  10.410
29522W        W97927  24.965   9.242   3.635
29523W        W97928   1.738  21.929   3.239
29524W        W97929  11.227  37.458  13.884
29525W        W97930  11.425  34.435  10.518
29526W        W97931   5.241  38.221  12.973
29527W        W97932  29.546  37.646   0.910
29528W        W97933   7.164  16.918  13.492
29529W        W97934   2.651  34.606  13.083
29530W        W97935  36.290  11.247   0.352
29531W        W97936   0.041  32.303  14.842
29532W        W97937   8.052  38.306  11.634
29533W        W97938  14.522  17.443   0.288
29534W        W97939  37.066  18.096  10.645
29535W        W97940  41.023   6.355   3.581
29536W        W97941  11.551  26.205   3.583
29537W        W97942  12.809  19.108  11.938
29538W        W97943  42.394   9.571   3.261
29539W        W97944  31.716  30.522   3.425
29540W        W97945  16.028  29.616   1.261
29541W        W97946  39.914  16.230   4.486
29542W        W97947   2.706  20.896  14.745
29543W        W97948  21.746  29.002   2.822
29544W        W97949   0.035  11.701   3.775
29545W        W97950   1.783  30.855  12.335
29546W        W97951  20.812  27.718  11.136
29547W        W97952  22.804   5.423  14.461
29548W        W97953  23.159   4.736  14.526
29549W        W97954  23.915  34.058  13.115
29550W        W97955  21.790  29.094  12.069
29551W        W97956   0.114  20.188   0.516
29552W        W97957  41.385   3.255  12.061
29553W        W97958   5.666  27.131   4.741
29554W        W97959   8.384  41.540   0.911
29555W        W97960  25.668  31.992  10.394
29556W        W97961   0.997  20.744   2.152
29557W        W97962  42.988   3.258   4.181
29558W        W97963  40.587  37.052  10.664
29559W        W97964   6.773  29.418  10.464
29560W        W97965  41.352   8.599   0.875
29561W        W97966  38.366  27.532  13.456
29562W        W97967  28.293  44.665   1.475
29563W        W97968  10.439  21.226  11.952
29564W        W97969  28.378  20.597  14.535
29565W        W97970   6.665  41.230   0.446
29566W        W97971   2.199  28.498   2.665
29567W        W97972  31.336  26.186   3.081
29568W        W97973   6.018   3.045   0.368
29569W        W97974  30.513  31.429  13.379
29570W        W97975   2.448  20.249  13.120
29571W        W97976   4.867  19.752   1.340
29572W        W97977  22.597  20.722   1.213
29573W        W97978  39.843  31.150   4.187
29574W        W97979  12.980  43.206  14.800
29575W        W97980  41.969  42.988  14.931
29576W        W97981  22.787   1.170   0.756
29577W        W97982  10.342  36.958  13.244
29578W        W97983  31.637   3.258   4.283
29579W        W97984  41.499  30.349   3.697
29580W        W97985  29.927  13.797  11.518
29581W        W97986   6.619   9.333  14.444
29582W        W97987  24.411  10.358  13.567
29583W        W97988  19.129  21.993   3.762
29584W        W97989  28.866   9.287  11.186
29585W        W97990  16.661   0.118  13.311
29586W        W97991  39.538  21.577   1.453
29587W        W97992  41.621  38.432   0.294
29588W        W97993  16.533  29.689   2.399
29589W        W97994  36.714  30.903   1.823
29590W        W97995   4.506  30.954  14.914
29591W        W97996  40.148  34.571  13.614
29592W        W97997   4.872   9.632  14.190
29593W        W97998   2.805  18.592   4.549
29594W        W97999   6.658  37.806  14.016
29595W        W98000  25.011  28.159   3.319
29596W        W98001  42.794  42.422  10.770
29597W        W98002   6.824  17.767  10.715
29598W        W98003  27.226   1.420   3.710
29599W        W98004  42.856  36.044  10.686
29600W        W98005  41.985  34.946  13.015
29601W        W98006  30.186  40.879   0.933
29602W        W98007  22.072  44.220  13.355
29603W        W98008  42.711   8.901  13.515
29604W        W98009  18.549   6.050   1.471
29605W        W98010  40.975  31.846  12.088
29606W        W98011   9.067  29.026  13.479
29607W        W98012   1.582   0.346   0.322
29608W        W98013  16.687   6.441  10.571
29609W        W98014  30.490  29.353   1.354
29610W        W98015   5.493   0.913  14.342
29611W        W98016  27.334  11.908  12.700
29612W        W98017  28.688  22.035  11.242
29613W        W98018  43.779  37.174   0.807
29614W        W98019  29.646   7.716   0.220
29615W        W98020  18.281  30.129   2.808
29616W        W98021  12.480   7.355   0.768
29617W        W98022   1.851  10.683   0.682
29618W        W98023   1.139  34.543  11.513
29619W        W98024  32.505  20.284  12.828
29620W        W98025  34.785  27.271  11.647
29621W        W98026   0.264  21.956   0.864
29622W        W98027   7.947  11.731   2.905
29623W        W98028  37.431  27.778  11.641
29624W        W98029   0.334  17.610   1.762
29625W        W98030  20.871   5.772   3.549
29626W        W98031  39.037  34.472  14.509
29627W        W98032  39.031  32.610  14.818
29628W        W98033  20.978  37.221  12.612
29629W        W98034  26.148  13.325   4.629
29630W        W98035  20.084  19.020  14.083
29631W        W98036   3.180   1.412  13.977
29632W        W98037  30.014  44.276   1.459
29633W        W98038  23.920  32.436  11.034
29634W        W98039  43.193   2.813   0.344
29635W        W98040   9.372  27.156   2.832
29636W        W98041  32.511  12.253   4.297
29637W        W98042   9.766  30.347  12.747
29638W        W98043  27.348   3.903   4.079
29639W        W98044   9.212  21.901  13.935
29640W        W98045  37.072   7.875  10.719
29641W        W98046  34.121   8.244   3.173
29642W        W98047  26.088   3.730  10.380
29643W        W98048   1.952   5.382  12.915
29644W        W98049  30.619   5.894   4.342
29645W        W98050  21.531  29.178   2.375
29646W        W98051   0.330   8.364  11.472
29647W        W98052  22.554  34.452   1.762
29648W        W98053   1.239  23.792  12.939
29649W        W98054  31.116  28.977   0.692
29650W        W98055  13.238  40.149  12.061
29651W        W98056  30.868   5.030   4.220
29652W        W98057  41.702  33.472  13.847
29653W        W98058   5.210  13.077  14.491
29654W        W98059   4.421  35.336  13.899
29655W        W98060   7.236  37.949  14.850
29656W        W98061   5.778  21.642   0.070
29657W        W98062  36.318   9.717   1.435
29658W        W98063   3.508  32.471  14.832
29659W        W98064  13.472  27.242   4.206
29660W        W98065  44.761  42.769  10.184
29661W        W98066  39.940  36.366  12.498
29662W        W98067  43.277  44.793   1.278
29663W        W98068  19.581   3.450   1.302
29664W        W98069   1.957  20.597   2.968
29665W        W98070  24.169  15.926  12.602
29666W        W98071  16.606  15.290  11.601
29667W        W98072  24.770  36.381   2.213
29668W        W98073  24.631   9.663  13.018
29669W        W98074   1.231  26.395  14.189
29670W        W98075  32.532  17.226  11.167
29671W        W98076  15.037   0.443  13.859
29672W        W98077  41.869   8.380   1.510
29673W        W98078   7.659  10.111  14.953
29674W        W98079  15.816  40.597  14.341
29675W        W98080   1.450  21.283  13.032
29676W        W98081  20.183  14.382  13.563
29677W        W98082   6.966  29.572   2.262
29678W        W98083   3.315  16.123   2.196
29679W        W98084  12.267  13.260   2.227
29680W        W98085  12.137  12.795   3.195
29681W        W98086  29.014  19.086   3.562
29682W        W98087  18.189  26.216  13.476
29683W        W98088  21.762  10.751  13.426
29684W        W98089  27.777  23.545  11.099
29685W        W98090  15.885  39.384  12.377
29686W        W98091  30.420  19.187  14.209
29687W        W98092  15.485   2.047  13.403
29688W        W98093  24.459  29.591   3.690
29689W        W98094  18.559  21.160   1.643
29690W        W98095  33.117  40.842  13.821
29691W        W98096  16.275   4.420   3.769
29692W        W98097  39.871  11.796   4.322
29693W        W98098  44.288  13.331   0.910
29694W        W98099  31.727   0.396  13.348
29695W        W98100  43.445  28.481   4.351
29696W        W98101  11.715   8.312  14.765
29697W        W98102   4.187  43.084  10.590
29698W        W98103  31.083  19.573   4.628
29699W        W98104  23.945  36.403  13.426
29700W        W98105  12.856   4.281  14.460
29701W        W98106  31.986  42.812   0.994
29702W        W98107  22.488   9.807   2.684
29703W        W98108  10.896   1.275   3.700
29704W        W98109  13.218  20.667   2.957
29705W        W98110  31.865  32.104   4.987
29706W        W98111  42.037  43.689  10.333
29707W        W98112  18.328   8.542  13.435
29708W        W98113   5.270  25.925  14.408
29709W        W98114  24.657  16.752  14.061
29710W        W98115  17.089  28.989   1.884
29711W        W98116  20.197  16.817   3.829
29712W        W98117   1.954  10.832  12.573
29713W        W98118  13.286  29.683  12.493
29714W        W98119   0.427   9.745   4.669
29715W        W98120  26.765   7.372   0.857
29716W        W98121   2.311   5.734  11.541
29717W        W98122   1.439  19.491   2.615
29718W        W98123  26.275  42.937  11.584
29719W        W98124  16.499  15.139   3.211
29720W        W98125  41.787  35.519   2.580
29721W        W98126  10.153  41.580   2.188
29722W        W98127  29.011  23.303  13.336
29723W        W98128  20.250  32.247   1.831
29724W        W98129  13.818  10.285   3.268
29725W        W98130  26.162   7.526  14.421
29726W        W98131  14.007   4.383   0.423
29727W        W98132  11.188  39.512   4.724
29728W        W98133  19.775  35.406   4.672
29729W        W98134  34.798  40.898   1.909
29730W        W98135  40.814  24.523   1.644
29731W        W98136  25.233   2.513  11.023
29732W        W98137   0.460  36.401  10.481
29733W        W98138  41.348   4.272   0.950
29734W        W98139  39.549  29.388   4.461
29735W        W98140   4.426  21.768  11.572
29736W        W98141  41.499  27.169   4.597
29737W        W98142  40.063   7.707   4.781
29738W        W98143  13.805  43.814  14.453
29739W        W98144  39.658  38.556  11.464
29740W        W98145  43.341   4.723  14.607
29741W        W98146  22.802  43.458  12.979
29742W        W98147   2.119  28.688  10.725
29743W        W98148  22.734  21.175  10.953
29744W        W98149  14.344  44.230  10.983
29745W        W98150  27.192   6.846  12.058
29746W        W98151  20.202   9.106   4.779
29747W        W98152   6.031  38.086  12.273
29748W        W98153  31.749  23.002   2.384
29749W        W98154   2.527  11.750  13.383
29750W        W98155   6.127  33.398  10.315
29751W        W98156   3.385  22.968  12.449
29752W        W98157  40.958  25.409  14.300
29753W        W98158  39.449  10.222  14.013
29754W        W98159  26.280  16.544   3.700
29755W        W98160   8.393  39.852   4.015
29756W        W98161  38.902  10.849  11.512
29757W        W98162   7.197  22.753  12.046
29758W        W98163  33.994  13.886  12.046
29759W        W98164  29.802  22.794   4.145
29760W        W98165  18.976  35.342   4.228
29761W        W98166  27.318  37.432  14.410
29762W        W98167  18.539   2.917   2.437
29763W        W98168   0.292  19.061   4.348
29764W        W98169  31.133   9.739   1.837
29765W        W98170  15.676  21.943   1.157
29766W        W98171  27.420  22.300  10.763
29767W        W98172  16.697  16.220   1.428
29768W        W98173  35.883  29.477   4.546
29769W        W98174  38.332  40.277   1.436
29770W        W98175  24.738  30.660  14.796
29771W        W98176  14.870  14.298   2.525
29772W        W98177   4.337  17.459   1.820
29773W        W98178  18.152  23.602   0.429
29774W        W98179  30.109  37.577  13.019
29775W        W98180  23.719  37.063   4.308
29776W        W98181  31.724   0.020   2.319
29777W        W98182  42.594  34.958  11.700
29778W        W98183   6.115  29.471  11.595
29779W        W98184   7.722  42.105   4.625
29780W        W98185  29.994   6.825  11.604
29781W        W98186  25.875  14.837  14.362
29782W        W98187  10.202  41.498  13.821
29783W        W98188  21.597  33.869  11.577
29784W        W98189   3.398  40.061   2.942
29785W        W98190  12.748  20.750  12.120
29786W        W98191  44.492   8.764   0.362
29787W        W98192  30.993  26.104  14.608
29788W        W98193   3.065  32.349  11.065
29789W        W98194  12.459  34.170  11.234
29790W        W98195  44.303  11.915   1.964
29791W        W98196   2.724  22.578  14.306
29792W        W98197   4.911  15.102  14.520
29793W        W98198  44.994  38.958  12.885
29794W        W98199  26.407  18.223   1.309
29795W        W98200  15.985  18.913  13.778
29796W        W98201  17.896   5.367   2.896
29797W        W98202   5.135   6.040  14.838
29798W        W98203  12.705  20.598  13.112
29799W        W98204  28.932  39.513   2.243
29800W        W98205  41.086   7.746  10.644
29801W        W98206  18.570  44.546   1.331
29802W        W98207  26.978  41.985  14.469
29803W        W98208  28.627   5.768  13.489
29804W        W98209  43.862  38.918   0.980
29805W        W98210   9.344  27.519  11.928
29806W        W98211  17.520  27.787   0.981
29807W        W98212  31.236  27.814   3.762
29808W        W98213  20.765  28.873  12.042
29809W        W98214   8.875  40.428   1.714
29810W        W98215  25.228  14.643   1.773
29811W        W98216   6.863  21.528   4.606
29812W        W98217  37.308  33.405  11.698
29813W        W98218  17.244   7.006  14.545
29814W        W98219   3.708  22.290  11.141
29815W        W98220  31.459  17.754  12.440
29816W        W98221  37.433  10.661   2.143
29817W        W98222  20.037  22.416  12.539
29818W        W98223  22.980  42.924   1.224
29819W        W98224  28.469  16.569   4.127
29820W        W98225  26.921   4.294  14.013
29821W        W98226  40.938  37.888   2.613
29822W        W98227  10.152   8.985   2.833
29823W        W98228  37.926  18.692  10.585
29824W        W98229   1.393  27.043   0.771
29825W        W98230  13.631   8.887  11.451
29826W        W98231  32.977  40.329   1.717
29827W        W98232  25.583  41.396  12.978
29828W        W98233  36.491  29.672  14.190
29829W        W98234   3.261  18.997   4.105
29830W        W98235   4.370  11.107   1.880
29831W        W98236  43.451  31.128  11.379
29832W        W98237  24.673  40.028   0.307
29833W        W98238  35.251   5.196  13.296
29834W        W98239  20.687   4.029  11.756
29835W        W98240  42.973  38.014   4.288
29836W        W98241  13.106  35.606   0.442
29837W        W98242  29.693  24.259   4.564
29838W        W98243  16.675  43.214   3.725
29839W        W98244  41.459  31.269   4.753
29840W        W98245   7.866  33.366  13.622
29841W        W98246   9.388  39.852   2.838
29842W        W98247  23.489  27.448   2.589
29843W        W98248  13.255  34.235   5.248
29844W        W98249  14.327  13.642   2.637
29845W        W98250   2.815  39.550   1.777
29846W        W98251  31.051   7.742   2.262
29847W        W98252  42.319  30.885  13.546
29848W        W98253   6.389   5.307  12.368
29849W        W98254   4.011   7.133   3.791
29850W        W98255  31.395  36.773  12.971
29851W        W98256  31.042  23.211   1.183
29852W        W98257  27.945  11.114  14.789
29853W        W98258   0.082   9.455  13.722
29854W        W98259   3.529  16.753   2.916
29855W        W98260   4.280  34.575  11.329
29856W        W98261  38.455  11.256   3.240
29857W        W98262   4.888  29.111  10.644
29858W        W98263  14.633  31.492  13.983
29859W        W98264  27.059  35.519  11.720
29860W        W98265   3.416  22.070   4.311
29861W        W98266  18.702  28.984  12.314
29862W        W98267  35.639  30.924  12.917
29863W        W98268  42.516   6.329  11.931
29864W        W98269  21.267  20.254   2.371
29865W        W98270  22.118  44.600  11.884
29866W        W98271  26.478  18.816  13.008
29867W        W98272  34.821  31.857  11.524
29868W        W98273  29.163  17.312   3.116
29869W        W98274   4.394  36.345   3.267
29870W        W98275  15.821  11.431  11.262
29871W        W98276   6.659  40.725   4.965
29872W        W98277   2.008   0.042  13.945
29873W        W98278  36.826   2.115   3.242
29874W        W98279  28.083  14.745  13.092
29875W        W98280  29.771  17.238  14.457
29876W        W98281  14.444   2.942  14.675
29877W        W98282  38.081  34.637   3.774
29878W        W98283   0.792  39.522   3.226
29879W        W98284  24.160  24.281   1.280
29880W        W98285  10.845  27.442  11.953
29881W        W98286  27.075  24.103  10.759
29882W        W98287  41.235  16.857  12.433
29883W        W98288  23.121  30.051  10.570
29884W        W98289  39.531  40.855   0.864
29885W        W98290  12.560  32.027   4.263
29886W        W98291  36.069   5.096  13.489
29887W        W98292  44.194   9.271   0.366
29888W        W98293  13.272   8.152   4.123
29889W        W98294   4.717  37.375   3.192
29890W        W98295   7.579   3.205   3.690
29891W        W98296  25.505  43.503  12.023
29892W        W98297  24.591  10.932  14.702
29893W        W98298  29.353   7.140  14.945
29894W        W98299  28.774   5.935  11.966
29895W        W98300  39.720  35.579  10.631
29896W        W98301  10.749  24.007  10.863
29897W        W98302  28.144  31.389  13.885
29898W        W98303   1.147  17.442  14.718
29899W        W98304  43.187  18.055   3.786
29900W        W98305  37.522  14.045   3.275
29901W        W98306  28.157  14.581   2.779
29902W        W98307  36.134   6.126   2.069
29903W        W98308  13.913   1.462  10.058
29904W        W98309  11.821  44.901   4.125
29905W        W98310  18.100  37.298   3.165
29906W        W98311   1.118  36.968  12.429
29907W        W98312  36.023  28.859   0.826
29908W        W98313  23.179  28.095   4.579
29909W        W98314  40.532  27.029  12.122
29910W        W98315  13.152  12.684  13.953
29911W        W98316  19.705  10.185   4.543
29912W        W98317   8.653  22.531  14.439
29913W        W98318  14.293   3.540   0.949
29914W        W98319   6.130   3.734   3.306
29915W        W98320  30.199   3.054  10.962
29916W        W98321   9.440  36.002   2.226
29917W        W98322  32.983   3.312   4.552
29918W        W98323  42.716  43.247  14.424
29919W        W98324  12.379   6.942   1.983
29920W        W98325  10.302   1.141   2.348
29921W        W98326  41.792  37.795  11.297
29922W        W98327   6.111  28.634   0.305
29923W        W98328  17.106  33.898   1.816
29924W        W98329  36.020  35.162  11.948
29925W        W98330  23.268   9.005  13.051
29926W        W98331  38.844  17.555  11.609
29927W        W98332   5.997  44.584  14.173
29928W        W98333   0.179  32.209   2.244
29929W        W98334  39.375   5.824  13.161
29930W        W98335   8.272   9.829  13.999
29931W        W98336  10.465  38.832  12.668
29932W        W98337  13.604  10.010   1.914
29933W        W98338  32.969   6.760   2.335
29934W        W98339  10.178  38.918  14.994
29935W        W98340  17.970   1.704  12.003
29936W        W98341  31.395  20.778  11.807
29937W        W98342   2.707   7.494  13.410
29938W        W98343   7.672  28.458  11.050
29939W        W98344  37.985  37.349  10.725
29940W        W98345  17.731  39.746   0.326
29941W        W98346  39.435  15.802   3.749
29942W        W98347  15.341   0.269  13.471
29943W        W98348  19.122   4.569   4.519
29944W        W98349   5.676  16.535   4.121
29945W        W98350  37.081  44.188  12.583
29946W        W98351  21.680   3.149  14.038
29947W        W98352  44.794  14.368  14.485
29948W        W98353  17.467  17.307  11.637
29949W        W98354  26.555   9.457   0.460
29950W        W98355   5.795  44.920   2.341
29951W        W98356  17.814  21.038  14.423
29952W        W98357   0.291  10.130   0.268
29953W        W98358  28.867  40.749  11.929
29954W        W98359  38.191  14.816   1.622
29955W        W98360   8.111   1.825  12.821
29956W        W98361   6.680  25.656   4.610
29957W        W98362  34.056  14.654  11.605
29958W        W98363   8.634   7.907   2.316
29959W        W98364  30.006  32.619   4.138
29960W        W98365  15.364  38.751  12.069
29961W        W98366  37.509  20.537   2.201
29962W        W98367  15.635  37.576  14.483
29963W        W98368  36.283  39.188   3.086
29964W        W98369  33.933  15.259  11.395
29965W        W98370   6.825  18.160  12.049
29966W        W98371  30.914  18.762  10.140
29967W        W98372  22.300  22.486  12.378
29968W        W98373   6.952  33.498  10.763
29969W        W98374  15.717   8.666  14.681
29970W        W98375  31.463  31.742  11.988
29971W        W98376  25.684  37.859  13.886
29972W        W98377  35.558  34.895  13.263
29973W        W98378  23.228   7.781   0.786
29974W        W98379  37.778  20.134  13.289
29975W        W98380  16.267  22.237   0.206
29976W        W98381  41.330  42.060   2.058
29977W        W98382  26.609  36.137  12.957
29978W        W98383  12.733   9.237   2.389
29979W        W98384  30.011  40.268   1.918
29980W        W98385  20.800  44.094   0.601
29981W        W98386  15.228   8.418   5.322
29982W        W98387   5.092  10.800   0.434
29983W        W98388   4.436  24.228  12.763
29984W        W98389  11.275  14.692  12.830
29985W        W98390   8.223  31.520  13.845
29986W        W98391   4.460  13.489   3.871
29987W        W98392  14.200  32.640  12.535
29988W        W98393  31.108  13.241   0.774
29989W        W98394  29.726  27.074   0.926
29990W        W98395  32.218  25.919   1.711
29991W        W98396  39.821  22.477   1.708
29992W        W98397   8.380  18.207  12.305
29993W        W98398  31.868  40.232  14.798
29994W        W98399   8.271  39.223   1.237
29995W        W98400  28.487  25.621  13.339
29996W        W98401  24.601  24.722   5.017
29997W        W98402   4.290  19.585   0.845
29998W        W98403  23.793   9.607  12.627
29999W        W98404   9.386  38.854   0.332
30000W        W98405  16.750  27.551   4.475
30001W        W98406  43.060   1.849  12.842
30002W        W98407   9.027  20.753   5.076
30003W        W98408   7.907  13.606  12.055
30004W        W98409  44.274  35.350  14.386
30005W        W98410  17.323   5.289  13.652
30006W        W98411  34.811  10.714  12.388
30007W        W98412  29.543  41.532   4.956
30008W        W98413  34.695  27.672   0.880
30009W        W98414  37.548   3.969  12.207
30010W        W98415  27.845  37.819   4.916
30011W        W98416  25.715  16.008  12.784
30012W        W98417  44.115  24.436   2.897
30013W        W98418  42.343  14.080  13.240
30014W        W98419  33.602  28.706   2.844
30015W        W98420  34.266  43.804   2.724
30016W        W98421  28.196  28.531   1.194
30017W        W98422  33.779  34.501  12.889
30018W        W98423   1.976  43.358   1.808
30019W        W98424  32.516  15.451  11.554
30020W        W98425   5.743  39.422  11.147
30021W        W98426   7.626  26.027  12.382
30022W        W98427  31.747  33.011  12.940
30023W        W98428  27.734  11.852   0.096
30024W        W98429  40.651  38.455   1.392
30025W        W98430  34.662   6.282   3.532
30026W        W98431  10.415   5.925  14.379
30027W        W98432  42.973   3.893  13.936
30028W        W98433  24.616  29.208   1.510
30029W        W98434   7.109  29.460  11.421
30030W        W98435  23.515  42.326  14.655
30031W        W98436  36.559  35.565  14.052
30032W        W98437   1.454  17.488   3.082
30033W        W98438  44.793   1.440   0.796
30034W        W98439  25.631  17.205  12.388
30035W        W98440  35.940  28.065  12.942
30036W        W98441   0.527   5.725  13.403
30037W        W98442  15.060  17.964   0.714
30038W        W98443  27.716  32.447   3.712
30039W        W98444  29.792   3.462   3.072
30040W        W98445  22.198  23.408  13.054
30041W        W98446  15.102  32.231   3.234
30042W        W98447  22.239  13.869   1.198
30043W        W98448  21.960  40.780   2.929
30044W        W98449  30.605  11.852  14.929
30045W        W98450  40.597  35.604   1.761
30046W        W98451  13.792   2.756   1.810
30047W        W98452   4.975  25.140  10.586
30048W        W98453  13.252   9.186   2.323
30049W        W98454  24.255  17.180  10.781
30050W        W98455  41.246   8.418   3.225
30051W        W98456   5.310  22.363  13.807
30052W        W98457  40.561  16.294   2.385
30053W        W98458  32.080  23.770  12.328
30054W        W98459  39.919  26.864  14.354
30055W        W98460   6.632  27.475   3.000
30056W        W98461  12.084  19.088   1.293
30057W        W98462  44.060  37.991   2.739
30058W        W98463   4.162  24.458   4.261
30059W        W98464   8.645  23.336   1.337
30060W        W98465  15.229   3.993  14.174
30061W        W98466  31.027  17.794  13.099
30062W        W98467  36.487  34.936   2.665
30063W        W98468  34.839   1.375   4.130
30064W        W98469  16.672  43.558   1.474
30065W        W98470  19.255  33.041   1.478
30066W        W98471   9.352   2.177   3.400
30067W        W98472   5.632  18.816  12.912
30068W        W98473  15.587  41.551   4.629
30069W        W98474  20.525  30.561  14.457
30070W        W98475  39.512   3.754   1.485
30071W        W98476  22.189  40.397  10.618
30072W        W98477  39.496  30.473   4.218
30073W        W98478  24.046  10.429   5.029
30074W        W98479   1.431  33.672   2.772
30075W        W98480  41.979  18.767  13.366
30076W        W98481  21.658  17.426  11.617
30077W        W98482  32.520  13.103  12.025
30078W        W98483  17.277  14.667   2.160
30079W        W98484  33.667  40.893   2.277
30080W        W98485  43.322  42.743  13.843
30081W        W98486  25.652  42.806  11.046
30082W        W98487  10.026  21.806  11.071
30083W        W98488  36.936   2.937  11.975
30084W        W98489   2.765  18.709   2.642
30085W        W98490  10.906  20.592  13.426
30086W        W98491  44.169  38.841  11.714
30087W        W98492  37.074   8.334   2.654
30088W        W98493  43.557   8.921  10.521
30089W        W98494  20.651  41.860  14.507
30090W        W98495  15.373  35.156   0.061
30091W        W98496   9.089  17.724   9.829
30092W        W98497  36.939  21.234  13.908
30093W        W98498  41.618  24.507  13.604
30094W        W98499  34.058  10.714   4.244
30095W        W98500  15.012  43.492  12.205
30096W        W98501  24.497  14.346  13.349
30097W        W98502  44.091   1.343  13.314
30098W        W98503   3.797  43.846  13.506
30099W        W98504  39.555  11.965  14.880
30100W        W98505  11.175  37.085   3.665
30101W        W98506  33.091  35.860  10.510
30102W        W98507  40.326  12.299   0.232
30103W        W98508  14.741  26.988  13.385
30104W        W98509   5.677  24.583  12.213
30105W        W98510   3.840  28.586  13.846
30106W        W98511  35.656  21.690   3.991
30107W        W98512   5.637  37.264   0.224
30108W        W98513  37.164  29.100  11.624
30109W        W98514  19.783  24.363   4.739
30110W        W98515  33.573   2.352  11.109
30111W        W98516  13.114   3.497   5.129
30112W        W98517  29.903  35.928  13.349
30113W        W98518  18.612   4.431  14.733
30114W        W98519   2.302  35.488  14.424
30115W        W98520  14.630  25.422  12.266
30116W        W98521  25.646  41.329   2.732
30117W        W98522  39.858  39.880  13.452
30118W        W98523  39.228   2.904   1.451
30119W        W98524   6.202   6.749   3.747
30120W        W98525  14.843  32.879  11.443
30121W        W98526  26.735  36.907   1.172
30122W        W98527  16.327  37.496   2.762
30123W        W98528   5.340   1.387  13.610
30124W        W98529  42.394  40.827  13.453
30125W        W98530  43.336  35.546   2.314
30126W        W98531  31.175  40.025   4.622
30127W        W98532   7.073  13.827   0.201
30128W        W98533  21.827  15.274   2.411
30129W        W98534  38.000  27.624  11.647
30130W        W98535  31.562  42.966   2.210
30131W        W98536   9.573   6.846   0.972
30132W        W98537  31.506  30.566   2.964
30133W        W98538  38.017  21.748  11.128
30134W        W98539  25.668   0.867  12.952
30135W        W98540  25.871   4.556  14.027
30136W        W98541  43.549  22.181   3.072
30137W        W98542   6.696  34.163  12.015
30138W        W98543  26.488   7.300  12.599
30139W        W98544  42.031   7.615   2.218
30140W        W98545  36.545  32.959  10.769
30141W        W98546  31.699   6.430   0.503
30142W        W98547  17.766  29.649   2.670
30143W        W98548  43.310  31.377  14.008
30144W        W98549   9.161  23.058   4.153
30145W        W98550  37.373   0.514  12.367
30146W        W98551  19.574  14.250   4.117
30147W        W98552  30.870  31.325  14.351
30148W        W98553   6.791   6.775  10.375
30149W        W98554  15.261  21.660  12.875
30150W        W98555  38.821  15.536   4.583
30151W        W98556   0.758  31.457  11.611
30152W        W98557  24.565  32.429  11.594
30153W        W98558   8.982  30.118  14.526
30154W        W98559  21.790  13.868   3.294
30155W        W98560  25.066  27.180  13.598
30156W        W98561   0.848  13.471   2.231
30157W        W98562  33.658   1.876  10.630
30158W        W98563  14.448  10.882  11.135
30159W        W98564   4.854  13.284   0.764
30160W        W98565   7.685  10.676   4.704
30161W        W98566  37.598  12.689   3.708
30162W        W98567  41.528   5.454  14.469
30163W        W98568  42.277  21.227   1.301
30164W        W98569  25.105  25.948  12.459
30165W        W98570  24.278  43.125   2.614
30166W        W98571  36.994   2.179  11.105
30167W        W98572  22.523  12.185  12.578
30168W        W98573  17.682  32.403  11.750
30169W        W98574  14.632  20.224   0.554
30170W        W98575  12.380  24.962  13.435
30171W        W98576  27.476  16.047   4.576
30172W        W98577  13.018  13.148  12.368
30173W        W98578  43.357   8.335  13.559
30174W        W98579  30.913  16.243   4.224
30175W        W98580   7.568  15.327   4.875
30176W        W98581  43.917  16.722   4.728
30177W        W98582   1.002  29.166   4.211
30178W        W98583  19.734  30.972  14.293
30179W        W98584   0.669   7.194   1.146
30180W        W98585   7.159  22.058  13.365
30181W        W98586  23.001  40.330   0.960
30182W        W98587  22.514  26.072   3.583
30183W        W98588   5.165  36.543  14.854
30184W        W98589  28.106  13.232   3.687
30185W        W98590  36.330  11.593   3.262
30186W        W98591  16.034  26.600  13.456
30187W        W98592   9.385  32.401   2.287
30188W        W98593  43.695  28.940  11.596
30189W        W98594  40.209  30.003   3.635
30190W        W98595   9.907  35.864   0.830
30191W        W98596  17.584  12.259   0.730
30192W        W98597  44.334  38.050   4.572
30193W        W98598   4.432  13.038   4.595
30194W        W98599  25.249  10.653   3.691
30195W        W98600  26.440  32.342  12.967
30196W        W98601   1.972  40.850   3.416
30197W        W98602  15.176  31.499  12.839
30198W        W98603  21.052  34.498  12.733
30199W        W98604  40.889  33.864  12.558
30200W        W98605  21.545  38.489   2.928
30201W        W98606  25.679  12.816  11.488
30202W        W98607   7.082  23.208  13.918
30203W        W98608  35.337  41.425  14.986
30204W        W98609  19.527   4.501  12.021
30205W        W98610  13.678   3.890   3.569
30206W        W98611  41.553  24.508  11.421
30207W        W98612   6.546  20.748  12.500
30208W        W98613  38.504  24.056  14.800
30209W        W98614  22.970  44.117   1.841
30210W        W98615   1.766  37.849  11.435
30211W        W98616  19.068  35.588   0.896
30212W        W98617   9.611  44.320   3.368
30213W        W98618  43.584  35.783  11.082
30214W        W98619   9.363  38.898   2.773
30215W        W98620  14.503   4.710  12.156
30216W        W98621  27.527  27.893   0.811
30217W        W98622   9.526   4.935  14.695
30218W        W98623  35.595  17.896  10.544
30219W        W98624  10.220   0.299   0.710
30220W        W98625  31.675  12.887  11.594
30221W        W98626   2.376   4.753  14.203
30222W        W98627  29.023   5.000   0.963
30223W        W98628  13.235  27.551  11.513
30224W        W98629  35.142   0.918   4.131
30225W        W98630  43.180  18.871  14.914
30226W        W98631   2.052  10.209  12.223
30227W        W98632  34.716  42.995  12.560
30228W        W98633  24.936  34.672  11.582
30229W        W98634  10.824  27.086  13.030
30230W        W98635  16.044  17.815  13.049
30231W        W98636  25.029   4.347  12.565
30232W        W98637   1.982  35.089  14.909
30233W        W98638  12.739  15.144  10.641
30234W        W98639  41.770  13.162  12.214
30235W        W98640  13.596  44.383   2.695
30236W        W98641  11.248  17.798  13.011
30237W        W98642  10.314  28.278  13.331
30238W        W98643  40.987   0.757  14.473
30239W        W98644  35.670  36.549  12.994
30240W        W98645  42.096  16.830   5.242
30241W        W98646  42.744   0.464  14.921
30242W        W98647  10.723   8.894  10.977
30243W        W98648  24.966  41.364  14.600
30244W        W98649   2.087  19.686  12.361
30245W        W98650  11.614  22.810  12.516
30246W        W98651  26.326   6.791   3.655
30247W        W98652  26.389  41.723  13.913
30248W        W98653  35.892  24.664   4.978
30249W        W98654  16.285  22.432   2.362
30250W        W98655  28.448  11.166   4.053
30251W        W98656  29.434  25.210   2.786
30252W        W98657  14.165  33.588   3.769
30253W        W98658  30.876  34.441   1.223
30254W        W98659  32.505   1.650   2.669
30255W        W98660   7.625  30.649   3.261
30256W        W98661   7.451   9.173   3.429
30257W        W98662   6.105  36.310   2.424
30258W        W98663  14.120  18.206  14.946
30259W        W98664  31.307  19.460   1.854
30260W        W98665   7.337   5.820  10.526
30261W        W98666  32.635  13.455  10.454
30262W        W98667  39.524   7.144   1.917
30263W        W98668  27.182  33.507  10.522
30264W        W98669  16.659   4.755  10.903
30265W        W98670  10.172  15.659   1.879
30266W        W98671  27.146  41.532  14.149
30267W        W98672  20.703   3.848   3.132
30268W        W98673  25.009  41.297  11.043
30269W        W98674  21.586   1.899  11.218
30270W        W98675  28.456   7.814   2.718
30271W        W98676  40.145  34.638   1.388
30272W        W98677  16.040   5.762   3.917
30273W        W98678  33.894  21.504   3.737
30274W        W98679   5.094  22.162   4.590
30275W        W98680   9.379  30.348  14.867
30276W        W98681  40.467   1.496  10.885
30277W        W98682  12.899   1.346   2.610
30278W        W98683  31.869  38.013   3.340
30279W        W98684  12.804  14.640   3.064
30280W        W98685  19.942  38.178  14.465
30281W        W98686  15.174  36.643   1.825
30282W        W98687  33.350  36.803   4.540
30283W        W98688  40.890  14.089   3.296
30284W        W98689  24.675  22.953   3.304
30285W        W98690  34.966  26.594  12.567
30286W        W98691  18.104  27.457   2.854
30287W        W98692  11.104  15.535  10.969
30288W        W98693  42.497   7.414   2.431
30289W        W98694  10.415  31.694   0.322
30290W        W98695  15.155  31.892   2.408
30291W        W98696  28.013  12.208   0.759
30292W        W98697  43.124   1.437   1.514
30293W        W98698  25.980  40.778   4.743
30294W        W98699  22.430  32.974  13.575
30295W        W98700  18.687  32.485  13.504
30296W        W98701   5.095  22.299  14.997
30297W        W98702  32.162   4.994  11.167
30298W        W98703   0.012  21.423  10.013
30299W        W98704  20.940  23.372   0.451
30300W        W98705  17.285   8.360   2.739
30301W        W98706   0.379   1.746  13.340
30302W        W98707   0.005  17.171   2.284
30303W        W98708  28.044  13.037  12.566
30304W        W98709   1.135  34.002   3.068
30305W        W98710  39.856  11.298   3.611
30306W        W98711  34.003  13.386   2.270
30307W        W98712  11.407  41.337  12.034
30308W        W98713   9.741  17.199  11.405
30309W        W98714  13.579  14.064   3.758
30310W        W98715  44.014  37.632   4.524
30311W        W98716  12.716  32.440   4.524
30312W        W98717  23.983   8.729   1.262
30313W        W98718   3.179  21.751  13.130
30314W        W98719   5.971  13.167   0.215
30315W        W98720  17.307  30.015   3.846
30316W        W98721  28.255  27.635  10.716
30317W        W98722  22.076  13.139  12.372
30318W        W98723   9.934  44.900  11.224
30319W        W98724  38.951   5.735   2.451
30320W        W98725   3.965  24.578  13.834
30321W        W98726  16.812   8.277  11.856
30322W        W98727   0.814   2.756  13.004
30323W        W98728  33.456  22.302   3.849
30324W        W98729  24.864  28.598   2.382
30325W        W98730  20.264  44.418  13.078
30326W        W98731   7.765  43.448   3.221
30327W        W98732  43.143   7.463   3.261
30328W        W98733  18.239  42.507  12.861
30329W        W98734  28.105  33.635   3.529
30330W        W98735  16.160  32.097  12.505
30331W        W98736  16.792  38.023   0.455
30332W        W98737  21.626  15.579   3.743
30333W        W98738  31.977   4.071  12.300
30334W        W98739  39.160  17.509   3.660
30335W        W98740   0.738  29.733  12.363
30336W        W98741  25.125  13.602  10.713
30337W        W98742   9.179  36.775   4.273
30338W        W98743  12.104  21.235  11.677
30339W        W98744   8.306  36.403  14.833
30340W        W98745  13.814  37.056  13.338
30341W        W98746  10.239  33.685  12.066
30342W        W98747  22.198  11.737  12.553
30343W        W98748  26.698  19.882  11.161
30344W        W98749   7.773  42.237  14.835
30345W        W98750   8.350  22.742  11.178
30346W        W98751  14.081  27.117  12.460
30347W        W98752  34.899  34.721   1.896
30348W        W98753  41.939  14.421  11.953
30349W        W98754  15.040  22.264   0.004
30350W        W98755   4.315  40.006  13.054
30351W        W98756  33.145  43.797  14.113
30352W        W98757   1.957  25.029   3.692
30353W        W98758  19.265   1.136  14.915
30354W        W98759  31.058  29.009  14.395
30355W        W98760  19.939  17.662   0.339
30356W        W98761  44.182  19.566  10.274
30357W        W98762  40.554   4.342   1.468
30358W        W98763   3.979   7.184  13.918
30359W        W98764   7.930  28.977   2.571
30360W        W98765  19.191  23.150  14.801
30361W        W98766  23.687   6.246  14.379
30362W        W98767  17.077  44.011  14.888
30363W        W98768   9.819  38.016   0.364
30364W        W98769  43.742  37.390   0.302
30365W        W98770  40.182  27.153  13.532
30366W        W98771  33.570  23.228   3.916
30367W        W98772  27.034  22.653  10.569
30368W        W98773  13.136  37.385  11.106
30369W        W98774   9.750  31.167  13.272
30370W        W98775  37.072  32.948   4.414
30371W        W98776  15.136  40.664   2.898
30372W        W98777  15.705  26.419   0.422
30373W        W98778  41.299  35.576   1.194
30374W        W98779  39.117  27.701   3.651
30375W        W98780  26.904   4.680   2.709
30376W        W98781  32.160  14.885   0.881
30377W        W98782   5.446  18.326   1.418
30378W        W98783  16.706  33.084  11.259
30379W        W98784  41.609  28.651   0.488
30380W        W98785  40.055  14.072   3.489
30381W        W98786  39.478  43.962  11.548
30382W        W98787  18.665  13.100  11.364
30383W        W98788  44.690  36.952  11.708
30384W        W98789   7.174  14.880   4.561
30385W        W98790  24.957  25.036  13.864
30386W        W98791  40.875  27.236  13.921
30387W        W98792  42.178  17.259  10.988
30388W        W98793  24.936   9.832  12.482
30389W        W98794  21.716  41.863   3.327
30390W        W98795  31.341  39.330   1.879
30391W        W98796  19.651   4.523  10.640
30392W        W98797  39.602   7.870  12.490
30393W        W98798   8.668  15.219   2.164
30394W        W98799   0.840  38.111  13.856
30395W        W98800  24.440  33.022  13.583
30396W        W98801  14.027  16.121  14.518
30397W        W98802  38.499  17.312   1.189
30398W        W98803  13.229  11.102   3.149
30399W        W98804   7.714  38.967  10.585
30400W        W98805  32.200  23.848   4.447
30401W        W98806  42.911  10.557   0.642
30402W        W98807  38.095  19.349  11.054
30403W        W98808  24.402  22.310  14.982
30404W        W98809  23.013  10.624  14.773
30405W        W98810  34.938  11.023   1.156
30406W        W98811  26.162   7.689   2.850
30407W        W98812  44.439  18.661  12.064
30408W        W98813  14.182  41.570  12.449
30409W        W98814  44.472  35.070   4.151
30410W        W98815  43.306  19.038   1.929
30411W        W98816  13.008  10.513  12.912
30412W        W98817   9.040  21.296   1.555
30413W        W98818  42.745  34.111  10.558
30414W        W98819  24.939  44.048   1.600
30415W        W98820   6.204  32.063   5.047
30416W        W98821  37.049  35.373   1.154
30417W        W98822  19.599  16.691  11.905
30418W        W98823  16.074  37.006  14.784
30419W        W98824  24.303  22.886   4.115
30420W        W98825  35.711  14.715  10.789
30421W        W98826   7.666  36.556   2.369
30422W        W98827  24.789  42.673   3.371
30423W        W98828  15.310  34.977  13.458
30424W        W98829   1.027  24.515  14.424
30425W        W98830   7.849  29.443  13.070
30426W        W98831  44.446  15.037  12.867
30427W        W98832  34.002  12.142  14.387
30428W        W98833  32.912  38.517  11.695
30429W        W98834   6.601   1.929  13.028
30430W        W98835  17.187  15.052   1.265
30431W        W98836  19.349  10.659  13.765
30432W        W98837  38.430  20.530   1.679
30433W        W98838   3.888  40.009   0.600
30434W        W98839   8.928  12.786  14.885
30435W        W98840   2.224  37.634   2.772
30436W        W98841  37.896  13.880  11.592
30437W        W98842   3.844  27.001  10.470
30438W        W98843  41.536   7.259  10.970
30439W        W98844   1.747  15.816   4.049
30440W        W98845   8.190   4.424  11.152
30441W        W98846   8.528   4.883  11.216
30442W        W98847  43.367  15.127  10.543
30443W        W98848  30.125   5.899   2.732
30444W        W98849   1.886  34.138  13.365
30445W        W98850  13.211  20.970  12.424
30446W        W98851  21.156  12.660  11.214
30447W        W98852  44.110  43.368  13.322
30448W        W98853   4.865  42.924   1.128
30449W        W98854   4.733  34.716  10.258
30450W        W98855  32.123  32.435   0.223
30451W        W98856  42.431  21.497   4.459
30452W        W98857  44.906  28.063   3.812
30453W        W98858  33.956   4.313   4.224
30454W        W98859   0.811  12.721  11.182
30455W        W98860  14.281  12.280   3.737
30456W        W98861  24.102  29.678  12.055
30457W        W98862  11.741  28.141  11.506
30458W        W98863  35.629   2.444  12.013
30459W        W98864  36.529   3.235  13.395
30460W        W98865  18.607  10.549   4.871
30461W        W98866  27.501   8.457   3.460
30462W        W98867  26.655  41.026   1.259
30463W        W98868   0.821  12.655   1.154
30464W        W98869  38.300  40.863   0.352
30465W        W98870  16.766  22.953   4.044
30466W        W98871  39.467   3.617  12.657
30467W        W98872  31.500   3.258   2.763
30468W        W98873  44.203  26.475   0.377
30469W        W98874  21.208  37.447  14.250
30470W        W98875  35.480  22.423  12.591
30471W        W98876  35.905  39.484   2.710
30472W        W98877  23.823  14.664  11.416
30473W        W98878   2.050  32.666   4.168
30474W        W98879  32.960  36.142  13.166
30475W        W98880  31.305   9.806   1.344
30476W        W98881  18.696  23.236  13.004
30477W        W98882  25.648   8.363  13.515
30478W        W98883  39.221  36.761  11.066
30479W        W98884  30.587   2.766  11.132
30480W        W98885   3.340  33.582  10.828
30481W        W98886  20.824  30.022   3.912
30482W        W98887  18.366  22.225   3.127
30483W        W98888   3.956  19.706  11.776
30484W        W98889  18.411  31.090   0.457
30485W        W98890  41.813   8.621   2.091
30486W        W98891   8.955  28.371  11.558
30487W        W98892   0.370   7.465  14.677
30488W        W98893  17.357  23.083  11.615
30489W        W98894  40.223  10.704   1.300
30490W        W98895  10.390   9.255  10.769
30491W        W98896  28.462  32.009  11.820
30492W        W98897   6.608   2.099   2.175
30493W        W98898  14.213   7.448  11.678
30494W        W98899  20.703  25.241   3.299
30495W        W98900  30.656  18.317  10.055
30496W        W98901  22.777  21.506  14.917
30497W        W98902  37.617  30.862   0.187
30498W        W98903  10.371  28.038  12.864
30499W        W98904  13.747  39.975  13.768
30500W        W98905  20.747  22.128   3.586
30501W        W98906  34.089   1.725  14.011
30502W        W98907   9.554   0.438  14.957
30503W        W98908  20.640   9.274  14.488
30504W        W98909   0.719  27.489   3.770
30505W        W98910  26.277  30.640   1.711
30506W        W98911  42.570   4.129   4.060
30507W        W98912  26.179  23.565  13.075
30508W        W98913  16.204  29.979   2.091
30509W        W98914  23.536  26.726  10.945
30510W        W98915   2.694  40.493   2.765
30511W        W98916  43.599   2.217   3.646
30512W        W98917  31.641   9.109   1.174
30513W        W98918  29.170  20.091   1.834
30514W        W98919  12.840  14.634  12.250
30515W        W98920  29.709  10.563   4.357
30516W        W98921   1.185  44.575   2.245
30517W        W98922  21.543   3.262  10.622
30518W        W98923  14.859  25.291  13.586
30519W        W98924   3.698  43.003   1.902
30520W        W98925   9.703  11.795   3.012
30521W        W98926  32.070  19.892   1.084
30522W        W98927  39.434  42.465   3.943
30523W        W98928   8.362  40.844  14.078
30524W        W98929  18.619  10.639  11.956
30525W        W98930  20.071  42.256   4.491
30526W        W98931   6.421  33.435  10.734
30527W        W98932  11.633  26.686  12.716
30528W        W98933   6.144   1.495   1.441
30529W        W98934  37.499   4.192   2.635
30530W        W98935  15.581  40.024   0.871
30531W        W98936  38.997  15.503   1.974
30532W        W98937  33.927  15.296  10.849
30533W        W98938  29.689  35.564   3.113
30534W        W98939  30.809   7.084   5.035
30535W        W98940  25.051  15.128   1.859
30536W        W98941  30.997  36.479  14.855
30537W        W98942  28.297  29.034   1.380
30538W        W98943  22.651  18.983   3.699
30539W        W98944  42.927  34.598  10.384
30540W        W98945  33.222  38.425   3.436
30541W        W98946  39.998   5.911  13.772
30542W        W98947  42.443  33.462  13.100
30543W        W98948   3.183  22.802   4.301
30544W        W98949  24.681  12.816  10.743
30545W        W98950  35.393  43.723  12.578
30546W        W98951   3.317  14.714   1.011
30547W        W98952  13.539   7.504   2.862
30548W        W98953   4.000   1.765   3.817
30549W        W98954  28.541  44.376   2.261
30550W        W98955  16.108   4.921  14.767
30551W        W98956  13.123  22.016  12.974
30552W        W98957  20.933  22.129   1.882
30553W        W98958  16.329  29.255  12.913
30554W        W98959  26.107  21.882  12.470
30555W        W98960  29.447  22.217   3.668
30556W        W98961  27.102  25.539  14.624
30557W        W98962  14.205  19.051  10.745
30558W        W98963   9.593   7.961  12.123
30559W        W98964  27.343  25.466   3.929
30560W        W98965  28.146  19.291   1.821
30561W        W98966   1.011  30.844   3.283
30562W        W98967  27.229  39.479  10.560
30563W        W98968  27.073  27.006  11.392
30564W        W98969   1.720  25.511   1.299
30565W        W98970  36.118  28.741   4.162
30566W        W98971  19.088  26.049  10.265
30567W        W98972  29.584  27.551   4.042
30568W        W98973  29.628  37.727  12.446
30569W        W98974   9.900  22.701   0.041
30570W        W98975  28.702  36.231  11.138
30571W        W98976  34.899  10.060  13.332
30572W        W98977  15.859  13.083   1.881
30573W        W98978  26.351  28.559   2.220
30574W        W98979  21.254  39.450  14.268
30575W        W98980  29.591   7.403  13.370
30576W        W98981  15.185  43.045  12.035
30577W        W98982  32.732  23.251   3.847
30578W        W98983  12.204  13.630   2.675
30579W        W98984  37.833   6.887  13.303
30580W        W98985  19.880  43.483  10.697
30581W        W98986  41.979   1.468  12.011
30582W        W98987  17.784  22.131  12.985
30583W        W98988  31.239  44.344  11.705
30584W        W98989  37.276  39.326  13.055
30585W        W98990  37.074  20.585  13.428
30586W        W98991   0.620  39.978  12.231
30587W        W98992  30.619  22.984   2.528
30588W        W98993   3.565   9.459  14.398
30589W        W98994  17.054  26.083  13.112
30590W        W98995  43.060  14.830  10.859
30591W        W98996  20.036  11.755  13.083
30592W        W98997  11.640  42.021  10.985
30593W        W98998  14.975   9.322  11.038
30594W        W98999  27.482  41.830  10.448
30595W        W99000  25.040  30.666   2.244
30596W        W99001   5.423   5.228   2.231
30597W        W99002  21.063  15.617  14.884
30598W        W99003  37.019  25.170   3.570
30599W        W99004  22.323  18.972   2.831
30600W        W99005  15.847  12.823  13.593
30601W        W99006  16.488  41.885   1.857
30602W        W99007  15.805  17.184   0.753
30603W        W99008  41.726  24.549   3.084
30604W        W99009  28.363  25.743   1.086
30605W        W99010  11.042  11.099   1.372
30606W        W99011  35.461  44.271  13.370
30607W        W99012  14.137  26.442   2.776
30608W        W99013   5.131  34.610  11.119
30609W        W99014  43.725  25.458  14.557
30610W        W99015  39.838  38.563   0.914
30611W        W99016  13.086  27.092   3.319
30612W        W99017  14.209  12.904   1.476
30613W        W99018  40.896  24.510   3.558
30614W        W99019  23.208  39.741   2.449
30615W        W99020  26.708  35.246  14.408
30616W        W99021   4.722   3.464  13.005
30617W        W99022  27.970  39.407  11.136
30618W        W99023   3.966  30.686   1.389
30619W        W99024  29.016   7.812  14.501
30620W        W99025   8.974  17.771   4.068
30621W        W99026  25.909  34.492   2.680
30622W        W99027  24.653  28.622  11.618
30623W        W99028  29.149  44.965   2.801
30624W        W99029  34.126  41.883  12.444
30625W        W99030  32.890  17.268  10.754
30626W        W99031  20.535  34.247   3.238
30627W        W99032   8.684  41.496  13.511
30628W        W99033  30.243  28.103  14.743
30629W        W99034   8.337  36.005   3.329
30630W        W99035  33.518  35.489   4.462
30631W        W99036   7.392   9.419  13.823
30632W        W99037  21.972  24.681   3.217
30633W        W99038  14.232  43.777  11.231
30634W        W99039   4.446  27.627   4.375
30635W        W99040  12.615  22.064  12.940
30636W        W99041  35.955  42.198   2.816
30637W        W99042   2.156  12.570  12.122
30638W        W99043   1.863   8.712  13.734
30639W        W99044  26.687  36.585  12.001
30640W        W99045  28.775  30.615  12.401
30641W        W99046   2.228  14.075  13.041
30642W        W99047  22.768  15.882   0.443
30643W        W99048  34.986  15.004  10.401
30644W        W99049  39.434  44.740   4.137
30645W        W99050  28.520   4.632   4.724
30646W        W99051   7.630  22.491   0.292
30647W        W99052   5.847  35.846   2.406
30648W        W99053  37.449  23.264   1.540
30649W        W99054  17.389  37.364  14.484
30650W        W99055  27.409  32.167   4.094
30651W        W99056  24.184  35.640   1.208
30652W        W99057  22.247   4.010  13.061
30653W        W99058  19.811  31.068  12.935
30654W        W99059  39.920   1.014   2.602
30655W        W99060  28.117  33.664  10.114
30656W        W99061   7.644  16.190   0.345
30657W        W99062  25.391  24.033  14.818
30658W        W99063  31.184  35.807  13.838
30659W        W99064  34.618  11.326  12.828
30660W        W99065  15.036  21.039   2.896
30661W        W99066  35.119  30.180   3.600
30662W        W99067  27.568  28.613   2.267
30663W        W99068   2.985  21.456  10.802
30664W        W99069   1.913  33.063   0.430
30665W        W99070   5.938  37.649  11.489
30666W        W99071  12.470  23.852   3.768
30667W        W99072  10.283  19.525   4.062
30668W        W99073  12.139  21.154  10.015
30669W        W99074  31.941  13.642   3.602
30670W        W99075  37.781  23.317  13.886
30671W        W99076   0.375  25.281  14.042
30672W        W99077  22.591  20.510  13.147
30673W        W99078   8.690  23.498  11.439
30674W        W99079   8.262  44.967   2.448
30675W        W99080   4.335  22.797   0.649
30676W        W99081  10.655  26.032  14.426
30677W        W99082  22.168  36.476   4.388
30678W        W99083  37.796  10.368   3.751
30679W        W99084  28.554  28.134   3.742
30680W        W99085  19.041  14.125  12.019
30681W        W99086  36.958   5.277  12.894
30682W        W99087  16.647  31.750  13.463
30683W        W99088  10.099  16.111  14.385
30684W        W99089  12.805  29.032   2.330
30685W        W99090  42.510  24.476  14.949
30686W        W99091  18.590  12.559   1.823
30687W        W99092  16.559  26.128  12.904
30688W        W99093   4.717  27.422   2.257
30689W        W99094  24.895  10.359  13.787
30690W        W99095  11.526  27.164   2.253
30691W        W99096  37.529   8.204   0.463
30692W        W99097  41.937   8.783   4.745
30693W        W99098  32.597  30.974   3.649
30694W        W99099  28.200  29.429   2.273
30695W        W99100  41.416  37.358  10.634
30696W        W99101  25.046  22.424  10.927
30697W        W99102  32.111  22.009   0.530
30698W        W99103  29.555   7.333  12.853
30699W        W99104  34.010  25.345   0.741
30700W        W99105   0.972   0.616  12.493
30701W        W99106  14.338  34.975  10.948
30702W        W99107  40.538   1.535  10.358
30703W        W99108   9.496  13.932   3.419
30704W        W99109   9.038  25.503   3.715
30705W        W99110  30.532  13.666   3.842
30706W        W99111  24.202  15.743  10.292
30707W        W99112  34.977  31.558  14.360
30708W        W99113   1.161  43.977  10.728
30709W        W99114  21.478   3.743   4.796
30710W        W99115   2.143   7.003  11.359
30711W        W99116  23.682  33.539   0.367
30712W        W99117   0.457  17.213   4.514
30713W        W99118   7.132  37.598  12.419
30714W        W99119   7.642  10.812   1.987
30715W        W99120  30.490  27.600   1.385
30716W        W99121  42.957  42.746  10.404
30717W        W99122  25.490  27.799  13.068
30718W        W99123  13.255   7.195  10.719
30719W        W99124  21.093  15.558  10.536
30720W        W99125  23.039  20.230  13.145
30721W        W99126  29.623  12.973   0.726
30722W        W99127  10.831  25.467  14.911
30723W        W99128  23.139  23.561   0.484
30724W        W99129  32.947  16.994  13.901
30725W        W99130  20.241   3.638   3.284
30726W        W99131  28.241  12.113  14.817
30727W        W99132  30.841   9.310   3.669
30728W        W99133  43.254  18.093   0.274
30729W        W99134  43.661  26.555  10.617
30730W        W99135  13.709  12.852   3.252
30731W        W99136   3.037  24.269  12.413
30732W        W99137  20.019  38.099   2.279
30733W        W99138   8.764  35.894   0.772
30734W        W99139  34.016  32.539   4.585
30735W        W99140  13.603  31.442  13.909
30736W        W99141   0.952   5.908   2.188
30737W        W99142  28.181  15.506   3.312
30738W        W99143  14.415  21.984   1.537
30739W        W99144  44.904  40.469  12.950
30740W        W99145  24.442  24.579  13.291
30741W        W99146  14.086  44.519   2.724
30742W        W99147  22.934   9.354  11.130
30743W        W99148   2.072   1.891   0.849
30744W        W99149  22.098   1.310  12.409
30745W        W99150  30.844  33.151  11.672
30746W        W99151   6.196  27.962   1.861
30747W        W99152  39.923  15.081   3.141
30748W        W99153   5.818  20.482   4.188
30749W        W99154  27.447  23.774   1.272
30750W        W99155  21.338   3.780   1.844
30751W        W99156  27.423   8.210  11.136
30752W        W99157  11.237   2.727  13.451
30753W        W99158  44.991  12.836   4.232
30754W        W99159  12.143   1.204   2.816
30755W        W99160  31.625  39.714  14.040
30756W        W99161  34.601  15.613  13.420
30757W        W99162  31.923   8.833  11.434
30758W        W99163  21.760  44.405  11.080
30759W        W99164  41.824   7.859   1.318
30760W        W99165   5.068  16.155   1.273
30761W        W99166   4.407  40.456   1.938
30762W        W99167  27.933   9.810   0.898
30763W        W99168  13.751   9.629   3.976
30764W        W99169  25.541  41.890  11.276
30765W        W99170  31.647  12.115  14.059
30766W        W99171  40.816  36.520   2.937
30767W        W99172  12.410  26.235  12.893
30768W        W99173   7.693  33.123  14.427
30769W        W99174  15.095  12.338   0.196
30770W        W99175  20.587  25.533  14.845
30771W        W99176  11.704  23.149  14.841
30772W        W99177  20.859   9.385   4.227
30773W        W99178  15.862  19.210  11.887
30774W        W99179  19.219  27.224  14.353
30775W        W99180   2.164  23.302   1.423
30776W        W99181   8.788  37.675  11.423
30777W        W99182  29.047  33.592  11.948
30778W        W99183  12.406  41.804   0.861
30779W        W99184  29.233  25.456  14.497
30780W        W99185   8.330  21.032   1.467
30781W        W99186  32.027  42.403  11.555
30782W        W99187  12.960   2.387   3.312
30783W        W99188  42.500  20.589  13.417
30784W        W99189  28.753  17.265   0.404
30785W        W99190   6.152   3.912  14.787
30786W        W99191  19.659  18.240   1.451
30787W        W99192  13.196  17.970   0.510
30788W        W99193  25.442  31.664   0.291
30789W        W99194  26.930  25.100  10.651
30790W        W99195   3.073  33.867   2.699
30791W        W99196  13.571  22.815  13.031
30792W        W99197  30.890   6.401   3.130
30793W        W99198   5.132  34.087  12.515
30794W        W99199  18.154  34.220   0.457
30795W        W99200  26.696  37.302   3.679
30796W        W99201  18.837   2.114   2.326
30797W        W99202  28.543  40.056  12.562
30798W        W99203  11.740  27.984   1.450
30799W        W99204  44.764  21.239   5.017
30800W        W99205  21.458  21.132   3.218
30801W        W99206  13.537  13.079  12.394
30802W        W99207  11.388  23.627   3.852
30803W        W99208  22.608  30.869  13.312
30804W        W99209  21.805  40.666   0.168
30805W        W99210  32.026  31.089  10.650
30806W        W99211  39.001   7.138  13.831
30807W        W99212  22.907   6.754  10.795
30808W        W99213   0.441  31.627   0.777
30809W        W99214  14.624  12.391  13.487
30810W        W99215  35.551  15.787  13.086
30811W        W99216  44.316  42.964   2.826
30812W        W99217  38.595  44.858  11.096
30813W        W99218  39.469  33.491   3.678
30814W        W99219  43.828   6.281  13.739
30815W        W99220  28.973  28.504  11.771
30816W        W99221  10.195  42.507   3.368
30817W        W99222  26.757  11.374  12.525
30818W        W99223  39.989  21.392  14.769
30819W        W99224   4.935  19.436  13.484
30820W        W99225  29.543   1.853  14.189
30821W        W99226  35.029   1.472  10.694
30822W        W99227   9.847  21.458   3.715
30823W        W99228  29.438  23.894   1.501
30824W        W99229  24.050  12.814  11.988
30825W        W99230   0.008  44.892  13.681
30826W        W99231  42.497  35.998   0.526
30827W        W99232  15.128  34.544   3.212
30828W        W99233  31.517  23.583  10.737
30829W        W99234  43.675  41.023  11.135
30830W        W99235  19.197  31.991  14.874
30831W        W99236   6.164  31.531  14.967
30832W        W99237   5.487  37.844  13.452
30833W        W99238  36.316   2.603  12.564
30834W        W99239  22.641  20.019  10.669
30835W        W99240  27.735  25.543   2.983
30836W        W99241  32.214  23.162   2.173
30837W        W99242  44.754  13.196  10.643
30838W        W99243  14.235  27.408   0.319
30839W        W99244  30.908   3.807   0.933
30840W        W99245  17.088  44.260   1.340
30841W        W99246   7.217  28.047   2.844
30842W        W99247   8.474  35.387   3.811
30843W        W99248  40.429  32.531  13.796
30844W        W99249  19.288  31.757  11.919
30845W        W99250  19.258  17.637   4.557
30846W        W99251  16.188   2.966  13.986
30847W        W99252  10.903  14.236   3.267
30848W        W99253   8.733  34.026  13.037
30849W        W99254  23.869  17.265  11.715
30850W        W99255  10.720  24.511  14.528
30851W        W99256  41.682  12.312  11.698
30852W        W99257   8.202  17.755   3.578
30853W        W99258   9.487  21.745  12.433
30854W        W99259   8.324  28.145   1.472
30855W        W99260  28.944  42.020   2.961
30856W        W99261  26.565  43.527  14.348
30857W        W99262  27.264  27.867  12.414
30858W        W99263   4.882  35.041   3.356
30859W        W99264  35.626  22.797   1.754
30860W        W99265  27.530  15.064  14.043
30861W        W99266  43.262  15.783   2.825
30862W        W99267  20.236  24.644  11.629
30863W        W99268   1.687  11.490  13.936
30864W        W99269  33.039  29.196  14.035
30865W        W99270  13.066  26.384  12.415
30866W        W99271  19.801   9.786  11.141
30867W        W99272  28.948  37.479  14.883
30868W        W99273  26.308   0.372  12.463
30869W        W99274  11.347  34.967  12.173
30870W        W99275   3.463  32.644   0.724
30871W        W99276   5.231   3.775  11.474
30872W        W99277  23.688  16.789   2.362
30873W        W99278  44.784  22.322  14.617
30874W        W99279  39.532  14.071   4.182
30875W        W99280  42.232  16.223  11.595
30876W        W99281  37.649  21.009   2.465
30877W        W99282  32.900  12.701  13.996
30878W        W99283  18.428  33.162  12.991
30879W        W99284  32.455  14.278  13.306
30880W        W99285  23.181  41.183   2.333
30881W        W99286  17.126   7.223   3.132
30882W        W99287   9.634  22.486   3.218
30883W        W99288  42.473   0.797  13.814
30884W        W99289  41.974   1.303  10.688
30885W        W99290  35.893  11.730  12.602
30886W        W99291  38.498   5.764  14.515
30887W        W99292  35.359  25.071  11.176
30888W        W99293  23.890  11.713   0.485
30889W        W99294   8.749  18.548   0.301
30890W        W99295  42.945  42.073   1.781
30891W        W99296  10.527  25.455  10.700
30892W        W99297  22.107  43.303   3.197
30893W        W99298  17.398  31.695  10.170
30894W        W99299  17.612   0.499   1.356
30895W        W99300  44.090  12.214  10.697
30896W        W99301  10.799  37.096   0.817
30897W        W99302  12.412  25.891   0.777
30898W        W99303  37.631  31.079   1.681
30899W        W99304   4.066   4.901   0.788
30900W        W99305  35.746   4.761  11.068
30901W        W99306  43.275  20.329  11.647
30902W        W99307   5.290  15.796  13.489
30903W        W99308  31.959  17.093   1.375
30904W        W99309  37.192  41.450   1.220
30905W        W99310  27.113  39.705  13.906
30906W        W99311  11.744  14.795  11.204
30907W        W99312  39.744   1.740   4.209
30908W        W99313  33.073  36.472  11.658
30909W        W99314  21.306  41.336   0.507
30910W        W99315  18.488  19.857   0.005
30911W        W99316  15.458  44.054  13.855
30912W        W99317  39.831  32.906   2.879
30913W        W99318   4.238  42.720   2.822
30914W        W99319  24.064   1.151   0.399
30915W        W99320   0.291   7.225  13.328
30916W        W99321  43.028   1.952   3.846
30917W        W99322  38.371  29.029  13.533
30918W        W99323   7.938  39.783  13.352
30919W        W99324  23.892  42.759  14.061
30920W        W99325  37.896   9.743  14.840
30921W        W99326   6.239  35.036  14.400
30922W        W99327   0.453   9.238   4.581
30923W        W99328  37.902  31.433  14.930
30924W        W99329  12.118  13.084   2.707
30925W        W99330  11.858  37.444  12.072
30926W        W99331  31.885  27.056  12.976
30927W        W99332  40.863  31.677   3.738
30928W        W99333  44.478  44.951   3.858
30929W        W99334  21.261  27.713   0.925
30930W        W99335  27.704  13.230   4.751
30931W        W99336   9.698   1.407   3.810
30932W        W99337  32.627  33.069  12.990
30933W        W99338   4.501  32.925  13.920
30934W        W99339   1.678   7.630  12.558
30935W        W99340   3.695   9.239  13.068
30936W        W99341   9.815   0.879  10.893
30937W        W99342   6.793  23.790   1.267
30938W        W99343  40.140  30.148   4.135
30939W        W99344  24.772  10.952   1.027
30940W        W99345  34.343   7.301   2.226
30941W        W99346  21.686  24.695   0.899
30942W        W99347   5.635  20.744  11.141
30943W        W99348   8.597  12.217   4.688
30944W        W99349  33.560  16.881   0.952
30945W        W99350  31.434  15.338   0.844
30946W        W99351  15.676  32.882  14.545
30947W        W99352  39.279   1.748  10.865
30948W        W99353  26.173  38.755  13.571
30949W        W99354   8.782  11.599   2.824
30950W        W99355  30.390  13.897  13.029
30951W        W99356   3.921  38.842   4.354
30952W        W99357  29.863  40.236  11.374
30953W        W99358   2.731   3.222  13.555
30954W        W99359   3.327  12.911   0.795
30955W        W99360   1.218  16.591  12.992
30956W        W99361  24.613  30.557  13.495
30957W        W99362  35.846  37.640   3.628
30958W        W99363  21.685  13.486   1.941
30959W        W99364  43.777   4.419   1.339
30960W        W99365  30.609  42.254   0.858
30961W        W99366  33.522   4.454   1.898
30962W        W99367  28.665  40.223   3.126
30963W        W99368  20.742   7.833   2.808
30964W        W99369  16.061   8.244  14.719
30965W        W99370  24.990  26.656  13.831
30966W        W99371  42.916   7.382  11.404
30967W        W99372   6.200  38.172  14.869
30968W        W99373  40.543  16.426   3.328
30969W        W99374   9.647  33.310   0.243
30970W        W99375  32.397  43.373  13.914
30971W        W99376   0.842  24.920   0.244
30972W        W99377  19.272   5.345  10.764
30973W        W99378  44.598  29.355   9.911
30974W        W99379  10.683  25.283  13.045
30975W        W99380   7.413  16.130  13.435
30976W        W99381  14.151   8.920   2.136
30977W        W99382  44.341   8.931   0.840
30978W        W99383  43.034  24.903  13.407
30979W        W99384   5.350  10.221   4.779
30980W        W99385  41.068  25.037   2.885
30981W        W99386  16.778   3.411   2.050
30982W        W99387  43.466   3.414   3.349
30983W        W99388  15.300  19.232   1.328
30984W        W99389  27.049  33.971  11.584
30985W        W99390  32.988  36.737   0.280
30986W        W99391  14.510  35.838  13.490
30987W        W99392  33.712  26.123  14.102
30988W        W99393  17.919  33.063  13.856
30989W        W99394   6.779  27.906  12.212
30990W        W99395   9.928  13.232   1.298
30991W        W99396  24.697   5.256   1.867
30992W        W99397  38.409   0.522   0.744
30993W        W99398  42.317  31.154   3.621
30994W        W99399  36.298  29.043   2.541
30995W        W99400  29.946  10.260   3.145
30996W        W99401  42.805  30.057   0.343
30997W        W99402  33.523  34.356   3.860
30998W        W99403  35.557  39.121  12.587
30999W        W99404  24.948  38.231   4.076
31000W        W99405  16.277  17.897  13.833
31001W        W99406  32.103   5.673  11.478
31002W        W99407  44.965   0.878   3.417
31003W        W99408  31.928  17.084   1.894
31004W        W99409  35.473   0.239   2.728
31005W        W99410  15.731   6.175  11.945
31006W        W99411  29.107   4.830   3.143
31007W        W99412  11.705  15.117  12.331
31008W        W99413  34.636  12.213  12.314
31009W        W99414  40.270  31.467   1.792
31010W        W99415  20.263   3.762  13.967
31011W        W99416  15.524  24.052  14.379
31012W        W99417   4.070  42.378   4.067
31013W        W99418   6.876  10.746  14.956
31014W        W99419  14.592   7.235   1.685
31015W        W99420  31.086  36.068   0.394
31016W        W99421  40.761  15.698   3.350
31017W        W99422  36.166  12.404  14.472
31018W        W99423  21.418  24.240   3.644
31019W        W99424  30.788  12.148  11.143
31020W        W99425   6.074  39.894  13.144
31021W        W99426  40.568  41.998  11.025
31022W        W99427  26.854  26.534   9.969
31023W        W99428  10.432   4.385  12.444
31024W        W99429   5.688   4.419  13.379
31025W        W99430   9.215  15.350  11.075
31026W        W99431  41.833  22.289  12.830
31027W        W99432  27.209  30.064  12.182
31028W        W99433  31.139  30.362   1.848
31029W        W99434  34.213  34.533   3.607
31030W        W99435   7.309  42.132  11.205
31031W        W99436  38.934   7.563   9.747
31032W        W99437  34.551  32.449  14.835
31033W        W99438   7.825  37.481   2.584
31034W        W99439  26.380  12.345   1.755
31035W        W99440   9.174  21.179   2.691
31036W        W99441  22.428  11.234  10.145
31037W        W99442  19.336  28.537  14.035
31038W        W99443  32.178  40.048   3.909
31039W        W99444   6.357   2.170   4.608
31040W        W99445  36.071  18.118  10.623
31041W        W99446  16.367  11.746  11.921
31042W        W99447   0.277   3.662   0.791
31043W        W99448   6.164  10.143   2.281
31044W        W99449   0.010  41.300  11.071
31045W        W99450  26.763  30.962  10.654
31046W        W99451  14.612  20.695   0.885
31047W        W99452  44.665   8.853   3.679
31048W        W99453  44.411  18.515  13.018
31049W        W99454  29.678  41.491   1.892
31050W        W99455  21.028  37.492   0.850
31051W        W99456  36.345  30.644  11.170
31052W        W99457  43.938   4.334  13.434
31053W        W99458  11.424  41.595   4.500
31054W        W99459  44.970  20.977  13.969
31055W        W99460  31.951  19.288   3.029
31056W        W99461  17.915  15.279   2.280
31057W        W99462  31.101  10.623  14.327
31058W        W99463  16.603  40.891  10.978
31059W        W99464  26.442   5.300  13.314
31060W        W99465   9.838  12.909  12.447
31061W        W99466  38.492  41.242  11.279
31062W        W99467   6.243   2.968   1.217
31063W        W99468  37.082  12.767   0.935
31064W        W99469  39.564  28.049   1.438
31065W        W99470  43.742  39.067   2.772
31066W        W99471  23.995  28.648   0.355
31067W        W99472  30.661  35.151   1.428
31068W        W99473  15.351  32.005   3.704
31069W        W99474   3.199  32.905  14.992
31070W        W99475   0.528  23.860  12.587
31071W        W99476  40.731  37.015  14.433
31072W        W99477  37.366  25.547  12.189
31073W        W99478  24.844  16.380   3.301
31074W        W99479   1.549  11.302   2.287
31075W        W99480  29.866  34.208  11.546
31076W        W99481  42.596  34.873   0.034
31077W        W99482  16.558  44.279  12.011
31078W        W99483  27.424  24.165   3.205
31079W        W99484  22.706  16.771   3.483
31080W        W99485  31.016  17.078   3.468
31081W        W99486  16.739  28.889  14.081
31082W        W99487  16.589  33.536  12.184
31083W        W99488  39.652  38.103   0.782
31084W        W99489  43.946  11.184   0.458
31085W        W99490   8.563   1.854   2.360
31086W        W99491  22.218  21.931  13.004
31087W        W99492  20.094  31.645   4.871
31088W        W99493   1.015  16.130   4.503
31089W        W99494  14.790   9.785   2.591
31090W        W99495  42.268  39.458   4.172
31091W        W99496  32.329  42.611   1.929
31092W        W99497  24.685  39.001   1.414
31093W        W99498   3.944  43.413   1.656
31094W        W99499  21.603  43.888  11.652
31095W        W99500  20.975  10.177   0.374
31096W        W99501   2.735  24.991   2.336
31097W        W99502  21.566   1.867  13.902
31098W        W99503   3.249  31.022   0.725
31099W        W99504  38.270   6.070  14.872
31100W        W99505  36.998   9.200  12.532
31101W        W99506  37.953   1.034   0.316
31102W        W99507  34.069  11.571   0.993
31103W        W99508  32.911  13.245  13.832
31104W        W99509  16.376   4.330   2.442
31105W        W99510  31.975   6.979   1.177
31106W        W99511  26.566  17.759   4.708
31107W        W99512   9.740  38.487   0.170
31108W        W99513  40.524  39.332   0.810
31109W        W99514  33.188  29.234   1.269
31110W        W99515  10.053  30.448   3.757
31111W        W99516   8.187  12.264  10.572
31112W        W99517  13.140  36.634   1.864
31113W        W99518  23.538   3.334   4.476
31114W        W99519   1.003   6.981  13.061
31115W        W99520  34.131   1.004  10.924
31116W        W99521  22.272   5.281   0.455
31117W        W99522  22.046  18.067   0.823
31118W        W99523  35.483   2.740  10.664
31119W        W99524  28.093   1.212  11.434
31120W        W99525  34.890   8.915   1.794
31121W        W99526  35.334  14.096   3.378
31122W        W99527  16.251  26.998   2.097
31123W        W99528  38.150  41.149  13.970
31124W        W99529  12.353   4.747  12.844
31125W        W99530  40.296  38.877  13.448
31126W        W99531   8.737  33.014   3.697
31127W        W99532  11.305  34.113  14.707
31128W        W99533  31.461  30.577  13.057
31129W        W99534  13.792   8.781   2.590
31130W        W99535  24.147  10.872   1.799
31131W        W99536   4.827  30.044  10.513
31132W        W99537  13.196  42.130  13.455
31133W        W99538  11.627  16.035  11.896
31134W        W99539  40.068  19.532  14.940
31135W        W99540  41.624  44.304  14.802
31136W        W99541  16.272  13.279  12.176
31137W        W99542  40.600  16.757  11.014
31138W        W99543  29.087   1.318   2.731
31139W        W99544  21.461  24.572   3.235
31140W        W99545  38.817   3.822  14.561
31141W        W99546  13.370  27.457   2.297
31142W        W99547  34.318  19.989   1.463
31143W        W99548  23.783  19.165   0.467
31144W        W99549  39.003  39.302   1.438
31145W        W99550  13.472  10.072   4.113
31146W        W99551  25.173   6.414  14.707
31147W        W99552  32.484  16.610   1.510
31148W        W99553  22.660  15.044  11.874
31149W        W99554  14.284  34.170  12.452
31150W        W99555  15.847  20.032   3.073
31151W        W99556   0.255  43.273   0.754
31152W        W99557  39.795  25.459   3.201
31153W        W99558   4.736  21.480  10.922
31154W        W99559  17.060   5.467   2.601
31155W        W99560  11.247  11.046   2.195
31156W        W99561  24.521  44.285  11.227
31157W        W99562  44.975  26.835   0.384
31158W        W99563   9.261  31.667   4.047
31159W        W99564  23.803  33.458  14.835
31160W        W99565  26.076  23.246  14.611
31161W        W99566  42.031  20.842  13.399
31162W        W99567  42.073   9.379   0.079
31163W        W99568   2.004  20.113   4.528
31164W        W99569  39.489  25.035  13.159
31165W        W99570   1.801  16.718  14.974
31166W        W99571  16.527   9.348   5.072
31167W        W99572  40.408  32.403   1.724
31168W        W99573  22.145   2.197  14.427
31169W        W99574  12.396  14.494   3.986
31170W        W99575  19.280   3.867  12.437
31171W        W99576  36.880  32.109   3.660
31172W        W99577   3.451  29.107   3.874
31173W        W99578  39.210  27.202  12.606
31174W        W99579   2.324   8.093  10.245
31175W        W99580  39.506  13.104   2.201
31176W        W99581  15.630  28.135  14.527
31177W        W99582  12.351   5.798  13.950
31178W        W99583  21.942  12.553   2.373
31179W        W99584  26.191  44.592   1.251
31180W        W99585  18.057  20.841  10.632
31181W        W99586  20.167  21.480  10.942
31182W        W99587  44.786  15.110  13.940
31183W        W99588   4.451  31.889   1.288
31184W        W99589  38.867   9.626   3.305
31185W        W99590  42.703  15.037  11.198
31186W        W99591   8.636  30.020  13.083
31187W        W99592   7.386  23.724   4.629
31188W        W99593   0.335   8.125  11.911
31189W        W99594  19.626  38.967  11.481
31190W        W99595   6.190  22.655   1.726
31191W        W99596  16.106  44.487  12.859
31192W        W99597   4.780  27.703  11.351
31193W        W99598  44.836  13.588   2.908
31194W        W99599  43.397   1.974  11.604
31195W        W99600  37.417  43.263   2.910
31196W        W99601  23.744   8.015  11.984
31197W        W99602  17.873  18.652  13.263
31198W        W99603   0.367  23.499   0.796
31199W        W99604  43.534   5.481  11.319
31200W        W99605   3.823  35.502   1.591
31201W        W99606  31.097  13.508  10.763
31202W        W99607  18.730  28.612   0.092
31203W        W99608   6.323  30.370   0.953
31204W        W99609  36.973  22.625  10.791
31205W        W99610  15.796  18.308  14.559
31206W        W99611  28.475   1.240   4.218
31207W        W99612   1.430   1.710   1.210
31208W        W99613  32.670  15.869  11.280
31209W        W99614  33.423   1.819   2.784
31210W        W99615  38.474  11.658   0.703
31211W        W99616  16.776  34.656   0.473
31212W        W99617  35.488  17.681  11.807
31213W        W99618  17.725  11.644   4.184
31214W        W99619  25.410  42.920   4.156
31215W        W99620  25.145  30.480  12.461
31216W        W99621  10.942  34.177   3.687
31217W        W99622  26.917  39.790  13.395
31218W        W99623  10.306  20.546  12.584
31219W        W99624  25.800  17.609  13.016
31220W        W99625   4.847  17.810   2.951
31221W        W99626  24.024  14.334   1.601
31222W        W99627  18.800  11.333  13.834
31223W        W99628   4.497  15.364  12.435
31224W        W99629   1.499  39.022  13.488
31225W        W99630  15.919  36.058   1.379
31226W        W99631  33.177  28.543  12.064
31227W        W99632  38.653   4.584   3.199
31228W        W99633  29.407  29.069   2.325
31229W        W99634  29.845   1.470   0.035
31230W        W99635  33.695  41.757  11.737
31231W        W99636  36.269  18.687   4.126
31232W        W99637  31.521  29.645   0.020
31233W        W99638  32.113  36.836  13.785
31234W        W99639  17.831  24.511  12.059
31235W        W99640  44.628  16.013   3.703
31236W        W99641  43.244   1.393  11.204
31237W        W99642  25.967  29.006   2.716
31238W        W99643  38.345   7.292  10.674
31239W        W99644  38.182   6.608  11.422
31240W        W99645  30.406  18.635   1.224
31241W        W99646  15.253   8.675   2.055
31242W        W99647  15.935  42.230  12.446
31243W        W99648  17.703   6.376   3.692
31244W        W99649   1.864  11.256   0.881
31245W        W99650  31.828  13.081  12.562
31246W        W99651   6.162  11.891  14.038
31247W        W99652  42.850  28.046  13.581
31248W        W99653   3.303  14.838  13.729
31249W        W99654  37.771  38.532  10.733
31250W        W99655  38.502  35.580   3.159
31251W        W99656  39.673  43.337   1.556
31252W        W99657  44.754   7.708  12.910
31253W        W99658  42.190  44.856  10.514
31254W        W99659  24.073  39.510   3.216
31255W        W99660  40.415  34.129  13.511
31256W        W99661  37.517  13.397   2.481
31257W        W99662   7.706  43.803   0.866
31258W        W99663  36.006  10.184   0.607
31259W        W99664  37.516  26.979  10.983
31260W        W99665  21.983  44.718   0.542
31261W        W99666  23.430  41.287   1.298
31262W        W99667  16.119  36.361  10.355
31263W        W99668  12.304   4.355  13.549
31264W        W99669  31.585   5.373  12.891
31265W        W99670   9.412  25.472  12.784
31266W        W99671  44.934  32.833   3.310
31267W        W99672  23.768  34.531  13.310
31268W        W99673  27.578  16.025  12.210
31269W        W99674   3.203  39.870   3.393
31270W        W99675  18.040  23.751  11.624
31271W        W99676  41.014  27.762   4.021
31272W        W99677  44.962  20.513  13.552
31273W        W99678  10.126  41.225  13.370
31274W        W99679  31.094  28.946  11.516
31275W        W99680  40.673  26.059   2.231
31276W        W99681   2.082  19.990  11.186
31277W        W99682  21.115   6.260   4.001
31278W        W99683  12.172  24.407   4.938
31279W        W99684  24.194  42.084   4.491
31280W        W99685   4.752   2.003   0.391
31281W        W99686  36.675  35.035  10.750
31282W        W99687  20.814  26.786  14.279
31283W        W99688  39.522   0.806   0.359
31284W        W99689   9.289  21.348  11.639
31285W        W99690   8.833   5.626  14.864
31286W        W99691   1.872  20.362  14.941
31287W        W99692   7.673  11.668  14.008
31288W        W99693  27.776  36.486   4.062
31289W        W99694  13.847  21.141  11.724
31290W        W99695  35.114   0.123  12.513
31291W        W99696  28.338  29.530  11.538
31292W        W99697  15.650  22.184  11.664
31293W        W99698  24.528  38.545   1.971
31294W        W99699  23.333  37.788  11.051
31295W        W99700  32.378   3.802   2.950
31296W        W99701  36.613  10.255   5.085
31297W        W99702  43.347  25.727  14.829
31298W        W99703  16.050  10.776  12.081
31299W        W99704  16.692  12.535  13.791
31300W        W99705  22.675  35.393   4.018
31301W        W99706  40.868   6.470   0.430
31302W        W99707   6.217  20.214   2.663
31303W        W99708   4.654  44.535   4.837
31304W        W99709   0.830  18.029   2.297
31305W        W99710  11.315  24.535   1.483
31306W        W99711  13.677  13.403  14.005
31307W        W99712  34.347  23.102   4.009
31308W        W99713   8.219  15.600   3.625
31309W        W99714  39.493  13.650   0.900
31310W        W99715  26.625   9.422  11.488
31311W        W99716   4.290  37.794  12.443
31312W        W99717  35.811   8.106  10.802
31313W        W99718   1.566  27.988   4.822
31314W        W99719  28.572   9.146  11.599
31315W        W99720  11.391  21.632  10.647
31316W        W99721  31.369  10.285   0.059
31317W        W99722  10.629  37.371   4.535
31318W        W99723   6.930  11.031  11.498
31319W        W99724  43.164  33.329   4.116
31320W        W99725  37.497   8.521   4.833
31321W        W99726  22.491   4.676  14.904
31322W        W99727  42.271  26.661  14.231
31323W        W99728  19.825  21.788  12.874
31324W        W99729  23.006   5.620  13.304
31325W        W99730  43.715  26.180  12.179
31326W        W99731  16.598  36.957  10.691
31327W        W99732  40.880   1.328   2.357
31328W        W99733  20.671  21.321  10.854
31329W        W99734  10.409  15.591   5.218
31330W        W99735  29.278  27.097   0.623
31331W        W99736  33.855   3.891   3.188
31332W        W99737  10.847  27.396  10.635
31333W        W99738  12.301  38.249  10.865
31334W        W99739  39.141  38.953   4.752
31335W        W99740   5.201  30.964   0.899
31336W        W99741  15.767   6.199   3.618
31337W        W99742   5.660  26.034  12.865
31338W        W99743   5.230   5.236   3.789
31339W        W99744  33.463  22.745   3.573
31340W        W99745   0.443  18.235   3.705
31341W        W99746   9.920  28.665  13.372
31342W        W99747  43.319   4.459  12.870
31343W        W99748   5.060  18.648   3.378
31344W        W99749  24.777  17.391  12.536
31345W        W99750  41.507  34.595   1.033
31346W        W99751   6.435  21.196   1.938
31347W        W99752   0.113  24.741  13.129
31348W        W99753  25.257  18.319  13.518
31349W        W99754  27.506  15.269   3.651
31350W        W99755  21.741  41.088   0.701
31351W        W99756  43.849  31.696   0.310
31352W        W99757  14.089  36.069  13.877
31353W        W99758  39.431   8.479  13.243
31354W        W99759  38.346  32.864   0.388
31355W        W99760  22.735  18.045  13.338
31356W        W99761   1.435  31.001   4.383
31357W        W99762  40.419   1.197  11.756
31358W        W99763  14.333  25.743  13.960
31359W        W99764  26.730  26.905  13.940
31360W        W99765   0.876   8.185   1.700
31361W        W99766  12.332  32.260  11.140
31362W        W99767  41.386  21.715   0.334
31363W        W99768  30.165  21.657   0.294
31364W        W99769  16.057  42.787   0.110
31365W        W99770   9.463  32.322  10.287
31366W        W99771  32.122  24.018   2.296
31367W        W99772  38.129  17.182   4.892
31368W        W99773   7.249  26.398  13.782
31369W        W99774  22.986  10.801   4.027
31370W        W99775  44.715   3.318  14.977
31371W        W99776  34.434  43.877   3.211
31372W        W99777   4.256   5.715   0.319
31373W        W99778  13.163  16.272   3.551
31374W        W99779  14.629  31.059   2.388
31375W        W99780  40.072  35.476   1.785
31376W        W99781   7.222  23.166   2.778
31377W        W99782  41.333  44.471  14.354
31378W        W99783  20.135   5.030   9.968
31379W        W99784  28.679  14.093   3.159
31380W        W99785  40.496  33.804   1.241
31381W        W99786  27.035  26.695   4.588
31382W        W99787  19.812  32.284   2.742
31383W        W99788   4.196  11.309  11.410
31384W        W99789  10.926  31.915   0.809
31385W        W99790  24.398  20.502   0.932
31386W        W99791  32.141  15.747   2.634
31387W        W99792  23.788  10.126   1.747
31388W        W99793  13.576   3.448  10.776
31389W        W99794  44.408  17.476  13.321
31390W        W99795  26.440   2.935  10.719
31391W        W99796   3.113  35.953  13.038
31392W        W99797  20.345  42.493   4.112
31393W        W99798  18.631  36.447  11.961
31394W        W99799   8.168  34.992   3.189
31395W        W99800  12.656  27.254   0.834
31396W        W99801  16.339  13.255   1.899
31397W        W99802  17.482  22.242  13.547
31398W        W99803  27.136  18.707   4.083
31399W        W99804  43.539  39.006  10.238
31400W        W99805  20.226  25.163   2.265
31401W        W99806  16.331  36.113  14.871
31402W        W99807  37.549  30.231  10.962
31403W        W99808   2.281  16.393  10.657
31404W        W99809  32.552  34.070   4.540
31405W        W99810  25.424  20.301   4.187
31406W        W99811  22.321  36.411  11.031
31407W        W99812  12.742   5.167   2.150
31408W        W99813  23.756   6.306   2.324
31409W        W99814  26.550  13.076  11.138
31410W        W99815  10.943  27.928   0.442
31411W        W99816  34.892   0.413   4.948
31412W        W99817  41.996  42.296   4.571
31413W        W99818  18.544  34.107   3.689
31414W        W99819  11.220  31.411  14.358
31415W        W99820  11.412  41.190  10.912
31416W        W99821   1.352  35.539   1.443
31417W        W99822   5.341  30.704  10.691
31418W        W99823  37.519  35.724   3.239
31419W        W99824   1.319   8.247  13.929
31420W        W99825  31.948  13.491  11.725
31421W        W99826  36.097   8.405  14.342
31422W        W99827   7.742  24.072  11.171
31423W        W99828  35.899  43.940  14.981
31424W        W99829  28.536  22.090   4.275
31425W        W99830  27.089  33.844  13.609
31426W        W99831   6.573  41.133   2.649
31427W        W99832   8.417  10.355   4.882
31428W        W99833  14.797  20.062   3.268
31429W        W99834   0.011  35.805   1.199
31430W        W99835  38.720  19.478  11.688
31431W        W99836  44.959   7.805  11.997
31432W        W99837  21.814  11.205  14.732
31433W        W99838  27.598  28.371   2.736
31434W        W99839  14.269  26.668   3.290
31435W        W99840  23.930  19.375  12.504
31436W        W99841  25.633  36.836   3.806
31437W        W99842  28.507  27.407   3.323
31438W        W99843   7.132  31.508   2.716
31439W        W99844   1.614  15.105   4.503
31440W        W99845  35.882  34.619  14.449
31441W        W99846  22.123   9.865  11.515
31442W        W99847  35.559   3.828   1.655
31443W        W99848  39.790   7.906  14.390
31444W        W99849  24.605  28.146   0.177
31445W        W99850   3.574   2.439   5.096
31446W        W99851  17.488  28.097   0.198
31447W        W99852  18.678  25.838  11.028
31448W        W99853  14.185  11.135  10.747
31449W        W99854  29.488  15.550  10.566
31450W        W99855   1.305   3.816  11.629
31451W        W99856  10.425  20.523   0.307
31452W        W99857  18.582  21.950  14.957
31453W        W99858  36.372  23.173  13.007
31454W        W99859   9.248  22.723   3.761
31455W        W99860  10.114  12.994   2.117
31456W        W99861  12.282  15.676  12.831
31457W        W99862  30.330  21.198   0.963
31458W        W99863  43.758   4.913  11.751
31459W        W99864   3.191  38.437   0.310
31460W        W99865  15.820   6.810  10.773
31461W        W99866  11.649  18.518   2.845
31462W        W99867  14.567  23.672   3.170
31463W        W99868  43.403  39.416  11.883
31464W        W99869  43.782  15.285  11.375
31465W        W99870   6.532  15.245  13.685
31466W        W99871  38.409  10.346   4.117
31467W        W99872  18.718  22.977  13.968
31468W        W99873  22.652  20.251   2.724
31469W        W99874  14.646   1.469   2.337
31470W        W99875  40.310  12.114  11.169
31471W        W99876   0.229   4.816  14.896
31472W        W99877  37.035   0.935  11.907
31473W        W99878   7.610   6.422  10.497
31474W        W99879  20.028  16.299  14.508
31475W        W99880  10.886  10.296   3.803
31476W        W99881  32.015  20.780  11.514
31477W        W99882  30.145  30.915   4.646
31478W        W99883  22.034  39.088   2.321
31479W        W99884   2.893  18.228  13.182
31480W        W99885  25.567  13.316  12.589
31481W        W99886  44.462   4.487   3.300
31482W        W99887  19.504   3.759   4.209
31483W        W99888  37.064  32.455   1.698
31484W        W99889  32.578   5.504   3.253
31485W        W99890   7.304   2.459  12.893
31486W        W99891  13.899  41.127  12.508
31487W        W99892  20.203  33.597   3.777
31488W        W99893  28.650  11.924  13.253
31489W        W99894  23.520  25.461  13.541
31490W        W99895  33.363  12.797   4.655
31491W        W99896   8.218  25.927   4.194
31492W        W99897  12.193  34.236  14.306
31493W        W99898  22.492  32.911   4.675
31494W        W99899  10.126  35.127   3.136
31495W        W99900  40.003  40.143   0.778
31496W        W99901   1.760  41.917   3.770
31497W        W99902  41.753  34.162   0.935
31498W        W99903   1.409   4.057  14.842
31499W        W99904  43.594  42.208   4.202
31500W        W99905  36.889  23.027  12.062
31501W        W99906  15.169  16.713   4.568
31502W        W99907  41.271   9.310   4.149
31503W        W99908  26.047   8.441  14.841
31504W        W99909  15.153  42.688   2.356
31505W        W99910  44.402  20.692   3.289
31506W        W99911  25.545  22.969  11.026
31507W        W99912  40.402   1.560  14.529
31508W        W99913  27.982   2.937  13.558
31509W        W99914  25.948   2.883  14.531
31510W        W99915  38.434   6.934   0.082
31511W        W99916   6.761  16.342  10.782
31512W        W99917  38.856  11.600   3.332
31513W        W99918  29.355   4.407   3.349
31514W        W99919   0.558  33.331  12.856
31515W        W99920  44.824  16.727  12.030
31516W        W99921   9.505  36.441  12.035
31517W        W99922  30.413  20.664  13.146
31518W        W99923   1.073   5.712  13.352
31519W        W99924   3.827  37.378  13.137
31520W        W99925   2.691  44.648   3.958
31521W        W99926  23.530  28.734  13.964
31522W        W99927  26.191  39.254   1.749
31523W        W99928  31.910  18.124  14.295
31524W        W99929  41.224  20.289   2.760
31525W        W99930  34.482  39.600   3.670
31526W        W99931  15.856  21.736  10.697
31527W        W99932   2.732  30.466  10.753
31528W        W99933  24.108  26.612   3.597
31529W        W99934   5.581   9.979  11.701
31530W        W99935  22.073  24.962  11.618
31531W        W99936  41.766  20.995  14.845
31532W        W99937  14.568  42.514  13.142
31533W        W99938   6.335  27.027   1.701
31534W        W99939  17.684  35.124  13.346
31535W        W99940  11.701  11.926   3.673
31536W        W99941  19.212  14.777   2.609
31537W        W99942  20.612  30.525   1.541
31538W        W99943  29.384  14.376  14.003
31539W        W99944  27.130  13.155  11.087
31540W        W99945   3.659   3.355   4.529
31541W        W99946  14.388   6.708  12.162
31542W        W99947  13.837  35.112   0.269
31543W        W99948  17.708  44.860   3.786
31544W        W99949  41.718  13.881   1.001
31545W        W99950  12.632  38.565   3.231
31546W        W99951  37.047  25.483   4.375
31547W        W99952  35.929  12.140  12.988
31548W        W99953  20.227   1.978  13.160
31549W        W99954   4.740  31.648  12.527
31550W        W99955   8.413   8.770   0.455
31551W        W99956  24.993  12.818  12.851
31552W        W99957  39.449   3.810  14.738
31553W        W99958  38.157  19.735   2.307
31554W        W99959  39.662  14.297   2.118
31555W        W99960  30.077  36.389   1.300
31556W        W99961  29.353  24.834   4.556
31557W        W99962  11.724  13.846   1.203
31558W        W99963  18.806  29.088   4.096
31559W        W99964  42.515  12.902  14.519
31560W        W99965  26.165   2.528  13.836
31561W        W99966  19.527   8.877   3.187
31562W        W99967  36.984  19.541   3.635
31563W        W99968   3.343   1.008   3.217
31564W        W99969  32.031   7.322  13.045
31565W        W99970  33.034  21.447  12.955
31566W        W99971  37.298  15.376  14.887
31567W        W99972  44.914  13.163   1.136
31568W        W99973  29.861   9.512  11.263
31569W        W99974   5.252  33.017  12.105
31570W        W99975  30.544  42.532  10.204
31571W        W99976  22.761  13.834   1.858
31572W        W99977  14.197   8.180   4.526
31573W        W99978  15.267   4.702   1.193
31574W        W99979  43.079  35.012  11.536
31575W        W99980  39.482  36.067   4.342
31576W        W99981   7.221   2.995  10.630
31577W        W99982  10.399  19.531  11.641
31578W        W99983  21.694  34.336   3.851
31579W        W99984  14.000  18.840   4.245
31580W        W99985  37.926  12.352   2.811
31581W        W99986  27.006  28.609   0.341
31582W        W99987  29.927  25.204   2.689
31583W        W99988  40.914   4.515   1.812
31584W        W99989  29.372  27.552   0.891
31585W        W99990  11.080  42.720   3.528
31586W        W99991  44.491  19.222  13.926
31587W        W99992   8.437  27.476   3.150
31588W        W99993  13.797  40.971   2.788
31589W        W99994  35.965  14.537  13.220
31590W        W99995   1.005  34.957   1.978
31591W        W99996  27.242  23.638   0.822
31592W        W99997  42.506  38.098   3.001
31593W        W99998   2.276  10.485  12.820
31594W        W99999  27.196  27.708   0.271
31595W        W    0  22.594  44.195  13.483
31596W        W    1  43.397  27.518   4.051
31597W        W    2  23.218  39.726   2.986
31598W        W    3  22.803   2.877  13.021
31599W        W    4  21.648  25.104   3.312
31600W        W    5  18.532  16.217  14.971
31601W        W    6   2.239  36.203  13.499
31602W        W    7   7.365  27.278  13.667
31603W        W    8  43.954  17.342  12.878
31604W        W    9  22.109   0.083  12.076
31605W        W   10  20.710  17.640   3.566
31606W        W   11  44.868  38.324  11.465
31607W        W   12  21.113   1.952   4.163
31608W        W   13  32.052  13.690   4.510
31609W        W   14   6.948  14.115   1.884
31610W        W   15  27.162   6.647   1.243
31611W        W   16  34.880  14.286   3.533
31612W        W   17  31.277   1.021  13.135
31613W        W   18  40.819  21.544   4.877
31614W        W   19  33.088  35.449   4.783
31615W        W   20  39.573  31.427  13.899
31616W        W   21  40.029  22.499   0.663
31617W        W   22  31.712  12.355   2.305
31618W        W   23  13.688  23.788   0.347
31619W        W   24  40.443  22.243   3.833
31620W        W   25  12.442   9.795   1.817
31621W        W   26  12.411  21.238  14.960
31622W        W   27  39.984  33.793  14.982
31623W        W   28  20.252  39.107   4.479
31624W        W   29  36.811  37.864  14.392
31625W        W   30  14.353   4.318  12.587
31626W        W   31  25.948   2.133  11.751
31627W        W   32   5.659  34.522   0.818
31628W        W   33  33.159  32.699  12.159
31629W        W   34  34.043  11.571   4.174
31630W        W   35  37.874  13.910  12.430
31631W        W   36   4.393  16.144  14.205
31632W        W   37  40.878   5.844  13.528
31633W        W   38  19.289  40.528   2.691
31634W        W   39  38.782  23.062  12.434
31635W        W   40  29.139   9.336  12.514
31636W        W   41  24.686  23.485   2.352
31637W        W   42   4.870  13.750   3.143
31638W        W   43  31.152  37.465   0.800
31639W        W   44   2.726  21.995  12.946
31640W        W   45  17.662  39.543  13.132
31641W        W   46  15.046  22.994  13.047
31642W        W   47  28.376  17.032  13.815
31643W        W   48  37.658   1.923  14.791
31644W        W   49  14.942  21.540  13.792
31645W        W   50   6.799  35.412   1.633
31646W        W   51  44.349  31.882   0.327
31647W        W   52  39.290  12.731   1.413
31648W        W   53  33.355   1.446   3.148
31649W        W   54  26.750  21.527  11.990
31650W        W   55  13.037  27.415  13.740
31651W        W   56  24.702   5.211  13.443
31652W        W   57  39.331  31.172   1.764
31653W        W   58  12.107  37.931  12.111
31654W        W   59  14.826  39.962  13.815
31655W        W   60  12.247   1.749  13.085
31656W        W   61  38.088  42.471  14.018
31657W        W   62  36.907  11.693  11.705
31658W        W   63  14.681  21.490  11.600
31659W        W   64  13.129   0.729   4.610
31660W        W   65  25.986  18.166   1.607
31661W        W   66  20.409   8.880   1.609
31662W        W   67   2.997  19.704   2.486
31663W        W   68  14.392  18.855   0.327
31664W        W   69  11.722  38.330   0.551
31665W        W   70   3.080   5.476   5.258
31666W        W   71  31.858  31.564   2.672
31667W        W   72   8.579   9.904  14.982
31668W        W   73  10.797  25.072  10.477
31669W        W   74  29.437  11.794  14.038
31670W        W   75  14.493  39.829   0.343
31671W        W   76   3.079  21.232  12.505
31672W        W   77  44.807  28.388  12.079
31673W        W   78   5.462  22.307  11.956
31674W        W   79   4.439   8.383   0.954
31675W        W   80   2.907  23.275  13.653
31676W        W   81  11.372  38.101  13.436
31677W        W   82  30.916  35.115  13.551
31678W        W   83  29.214   0.121   1.728
31679W        W   84  23.005   7.503   4.671
31680W        W   85  23.638   2.762   3.952
31681W        W   86  38.877  22.028  13.942
31682W        W   87   6.653   0.434  12.498
31683W        W   88   0.033  30.210   0.725
31684W        W   89  32.582  26.627  11.431
31685W        W   90  36.042   6.767  14.025
31686W        W   91  12.059  12.072   0.582
31687W        W   92   8.624  27.163   0.794
31688W        W   93  12.236  26.655   2.646
31689W        W   94   0.740  29.587   0.858
31690W        W   95  40.885   4.357  13.140
31691W        W   96  29.378  38.420   3.842
31692W        W   97  38.136  30.686   1.364
31693W        W   98  43.324  36.329   0.833
31694W        W   99   1.518  35.340   2.458
31695W        W  100  15.652  37.864  13.808
31696W        W  101   9.710   4.461  14.756
31697W        W  102  19.783  43.443   0.541
31698W        W  103  12.728  22.423  11.249
31699W        W  104  22.540  43.469   0.021
31700W        W  105  32.718   6.147   2.826
31701W        W  106  24.268  38.887  14.889
31702W        W  107  41.596  14.858  11.869
31703W        W  108  24.059  19.766   0.485
31704W        W  109  28.910   6.603  14.274
31705W        W  110  16.884  14.193  13.524
31706W        W  111  34.096  16.302  11.027
31707W        W  112  14.230  16.537  14.256
31708W        W  113  28.845  42.053   4.989
31709W        W  114  14.708  16.355  12.486
31710W        W  115  27.520   2.305  12.476
31711W        W  116  10.626  31.327   0.002
31712W        W  117   3.992   9.905   4.770
31713W        W  118  34.378  40.375  13.828
31714W        W  119   6.604   7.902   3.741
31715W        W  120   0.927  40.891  10.793
31716W        W  121   2.220  24.062  10.822
31717W        W  122  34.999  41.488  14.607
31718W        W  123  29.336  43.597  13.412
31719W        W  124  36.329  32.554   4.142
31720W        W  125  33.022  42.895  13.912
31721W        W  126  28.595  18.612   4.087
31722W        W  127  40.623  38.961  11.652
31723W        W  128  37.789  22.873   4.584
31724W        W  129  37.524  25.746   1.343
31725W        W  130  37.598  30.452   5.003
31726W        W  131  39.825  26.620  10.795
31727W        W  132   1.204  19.281   1.243
31728W        W  133  34.467  37.571   3.051
31729W        W  134  22.351   7.970   4.052
31730W        W  135   4.741  12.514  14.477
31731W        W  136   6.401   9.517   4.475
31732W        W  137  31.028   7.236   2.163
31733W        W  138  31.233  41.189   1.846
31734W        W  139   6.932   4.794  14.451
31735W        W  140  30.999  18.970  13.465
31736W        W  141  18.257  29.508   2.584
31737W        W  142  14.708   7.109   5.089
31738W        W  143  16.482   8.680  12.195
31739W        W  144   8.332   3.190   2.248
31740W        W  145  40.687  27.896  13.541
31741W        W  146  27.998   5.207  14.883
31742W        W  147  19.080  20.627   3.800
31743W        W  148  15.196  37.609   2.208
31744W        W  149  35.006  17.145   2.182
31745W        W  150   5.488  37.900  11.282
31746W        W  151   2.523  20.315   1.324
31747W        W  152  22.756  42.636  12.091
31748W        W  153  11.566  16.607  13.790
31749W        W  154   8.664  31.557   5.450
31750W        W  155  16.185   5.461  11.740
31751W        W  156  21.340  12.651   1.055
31752W        W  157  21.710   0.264   2.453
31753W        W  158  35.878  34.168  11.987
31754W        W  159  29.415  40.371  14.961
31755W        W  160  28.529  14.757  12.419
31756W        W  161   3.242  21.541  11.569
31757W        W  162  21.495  24.947  10.793
31758W        W  163   2.332  41.144  10.751
31759W        W  164  43.056  31.315  13.079
31760W        W  165  39.430  12.626   3.897
31761W        W  166  30.101  41.006  12.522
31762W        W  167  30.264  29.276   0.846
31763W        W  168  17.651  10.751   3.846
31764W        W  169  38.561  27.753  13.022
31765W        W  170   4.860  31.466   1.876
31766W        W  171  33.114   7.653  10.862
31767W        W  172  14.352  31.120   1.170
31768W        W  173  20.556  17.436  13.100
31769W        W  174  28.962  13.359   1.774
31770W        W  175  22.231  33.371  13.310
31771W        W  176  32.510   7.401  14.427
31772W        W  177  35.272  37.096  14.235
31773W        W  178  39.421  35.039  11.209
31774W        W  179  11.414  14.531  11.819
31775W        W  180  15.844  34.562  12.912
31776W        W  181  29.968  40.572  13.432
31777W        W  182   4.841   1.396   4.123
31778W        W  183  42.183  14.034  13.731
31779W        W  184  36.631  20.350   1.972
31780W        W  185  22.138  10.817   2.784
31781W        W  186  30.278  30.269   0.971
31782W        W  187  28.594   2.926  11.823
31783W        W  188  10.596  39.001   0.946
31784W        W  189   0.220  18.311  11.992
31785W        W  190   4.744  39.372   1.402
31786W        W  191  28.198  24.114  12.639
31787W        W  192  37.073  40.178   2.083
31788W        W  193  26.153   9.446   2.907
31789W        W  194  19.345  18.413   3.627
31790W        W  195  12.603  41.996  12.099
31791W        W  196  18.109  13.101   2.332
31792W        W  197  14.636   6.700  14.551
31793W        W  198  35.049  37.416   0.605
31794W        W  199  34.888  22.130  10.623
31795W        W  200   8.427  24.909   1.172
31796W        W  201  35.877   4.706   4.597
31797W        W  202  10.139  25.664   4.183
31798W        W  203  30.959  16.661   2.000
31799W        W  204  17.702   9.184  12.557
31800W        W  205   4.228  23.941  12.337
31801W        W  206   3.922  24.248  14.249
31802W        W  207   6.404  31.313  13.764
31803W        W  208  39.403   5.887   1.816
31804W        W  209  36.188   6.462   1.228
31805W        W  210  21.518  19.606   5.100
31806W        W  211  43.944  27.939   3.594
31807W        W  212  36.010  19.233   2.610
31808W        W  213  32.175  11.486  14.921
31809W        W  214  27.023  19.837   2.590
31810W        W  215   5.111  14.606   3.682
31811W        W  216  42.736  26.464  13.545
31812W        W  217  34.093  21.954   4.586
31813W        W  218  33.972   8.266  12.834
31814W        W  219   4.855  31.968  13.494
31815W        W  220   1.055   0.716  12.985
31816W        W  221  28.673  26.898   3.350
31817W        W  222  30.117  42.506  14.326
31818W        W  223   6.212  38.318  10.788
31819W        W  224  18.835  32.085   1.798
31820W        W  225   1.748  43.615  14.834
31821W        W  226  30.812   4.520  14.542
31822W        W  227  42.020  36.947  11.777
31823W        W  228  20.355   4.730  13.802
31824W        W  229  32.350   3.365   3.698
31825W        W  230  19.321  13.530   0.480
31826W        W  231  40.554  33.349  10.059
31827W        W  232  29.101  33.506   2.641
31828W        W  233  12.521   6.876  12.569
31829W        W  234  19.325  20.187  13.447
31830W        W  235  44.401  34.019  12.939
31831W        W  236  13.297  42.715   2.812
31832W        W  237  32.486  30.426  10.979
31833W        W  238  10.752  14.182   0.629
31834W        W  239  14.271  19.560  10.724
31835W        W  240  30.532  31.349   0.389
31836W        W  241   4.518  42.206   4.609
31837W        W  242   7.916  42.070  11.623
31838W        W  243  36.623   1.996  10.522
31839W        W  244  41.045   6.551  13.009
31840W        W  245  22.495  39.605   2.320
31841W        W  246  11.188  29.691   3.627
31842W        W  247  16.422  32.807   3.641
31843W        W  248  41.009  19.736   1.319
31844W        W  249  15.155   1.196   3.669
31845W        W  250  27.724  27.863   3.413
31846W        W  251  16.407  16.534  11.188
31847W        W  252  39.665  40.652   3.618
31848W        W  253   8.690  36.330  10.745
31849W        W  254  31.373  25.521  12.558
31850W        W  255   6.726  20.962  11.125
31851W        W  256  10.119  41.465  12.519
31852W        W  257  19.189  36.038   2.184
31853W        W  258   0.715  15.273  14.003
31854W        W  259  22.510  23.748  12.833
31855W        W  260  42.772  39.862   2.341
31856W        W  261   0.827  25.520   3.107
31857W        W  262  40.579   2.657   1.796
31858W        W  263   7.907  17.108  11.460
31859W        W  264   3.469   6.269  13.482
31860W        W  265  40.461  43.762   4.614
31861W        W  266  29.444  28.963  11.997
31862W        W  267  19.019   9.137  11.689
31863W        W  268  15.401  37.430  13.134
31864W        W  269  40.995  22.125  13.031
31865W        W  270   3.934  14.403  10.613
31866W        W  271  26.651  39.074  13.406
31867W        W  272  11.722  30.110  12.671
31868W        W  273  34.599  28.882   3.184
31869W        W  274  34.108   9.634  12.131
31870W        W  275  32.425  27.822  14.536
31871W        W  276   4.392  37.772   3.144
31872W        W  277  11.638  42.511  11.505
31873W        W  278  28.156  38.002   1.256
31874W        W  279  11.602   9.029  11.057
31875W        W  280  10.937  43.421  11.203
31876W        W  281  33.967   0.936  13.782
31877W        W  282  39.379  34.671   0.960
31878W        W  283  32.523  12.198   2.827
31879W        W  284  19.458  20.179   3.526
31880W        W  285  35.006  21.300  12.954
31881W        W  286  42.533  40.519  11.738
31882W        W  287  11.687  39.396   4.531
31883W        W  288   1.513  13.304  13.154
31884W        W  289  21.998   5.326   2.268
31885W        W  290   8.836  41.781   0.840
31886W        W  291  35.593  25.261   1.232
31887W        W  292  38.630  18.207  12.990
31888W        W  293  30.638   0.486  12.465
31889W        W  294   9.395  12.069   3.369
31890W        W  295   2.949  27.090  12.610
31891W        W  296  38.732  41.296   1.689
31892W        W  297  35.497  12.615   2.182
31893W        W  298  26.986  37.347   1.084
31894W        W  299  20.324  38.532  14.450
31895W        W  300   9.713  29.650   0.737
31896W        W  301  39.030   9.625   2.203
31897W        W  302   3.806  39.945  12.238
31898W        W  303  32.295  25.176   2.969
31899W        W  304  26.642   7.584   2.238
31900W        W  305   2.219  16.138  13.399
31901W        W  306   8.443  21.655  12.549
31902W        W  307  39.616  27.445   4.001
31903W        W  308   9.927  32.433   3.129
31904W        W  309  40.624  20.952   2.861
31905W        W  310  44.506  22.651  10.425
31906W        W  311   0.532   6.244   3.462
31907W        W  312  43.817  16.709   0.262
31908W        W  313   8.848  30.718   2.677
31909W        W  314  34.541  16.605   1.818
31910W        W  315  25.713  41.260  14.044
31911W        W  316   7.304   2.127  12.489
31912W        W  317   4.907  26.054   4.143
31913W        W  318  44.889  13.201   4.705
31914W        W  319   1.361  43.617  14.024
31915W        W  320  12.225  13.940  14.495
31916W        W  321  34.909  29.938   1.698
31917W        W  322  31.395  37.477  12.631
31918W        W  323   5.024  43.022   2.608
31919W        W  324  18.706  24.190   1.366
31920W        W  325  31.481  10.529  10.951
31921W        W  326  35.621  25.795  12.665
31922W        W  327  42.436   4.533  14.219
31923W        W  328  35.311   6.274  12.606
31924W        W  329  41.507  12.041  10.771
31925W        W  330  10.195  18.217   0.827
31926W        W  331  22.056  39.352   2.746
31927W        W  332  36.353   8.808   4.089
31928W        W  333  23.743  44.431  14.706
31929W        W  334  26.164   6.486   1.426
31930W        W  335   7.204  32.702  13.927
31931W        W  336  15.124  15.156   1.185
31932W        W  337  24.686  33.408   2.211
31933W        W  338  29.061  18.611  10.638
31934W        W  339  42.262   0.866  14.276
31935W        W  340   1.014  31.876  11.428
31936W        W  341  11.296  30.177  10.894
31937W        W  342  18.508   5.768   4.533
31938W        W  343  36.883  15.629   3.847
31939W        W  344  13.852  40.502   4.829
31940W        W  345  12.345  16.682   4.022
31941W        W  346  28.098   9.049  14.855
31942W        W  347  34.027  20.746  13.416
31943W        W  348  14.082  29.659   3.259
31944W        W  349  34.385   0.054  12.877
31945W        W  350  27.703  28.452  10.735
31946W        W  351  11.327   8.782   4.834
31947W        W  352  24.712  42.837   2.511
31948W        W  353  38.008   3.697  12.135
31949W        W  354  23.232  25.751  13.904
31950W        W  355  30.596  25.394  12.980
31951W        W  356  34.615  41.101   1.000
31952W        W  357  43.431  20.210  12.628
31953W        W  358  26.107  19.942  10.791
31954W        W  359  33.855  44.760   3.634
31955W        W  360   8.327  21.565   0.942
31956W        W  361  30.815  44.598  11.477
31957W        W  362  11.152  30.352  14.491
31958W        W  363  17.234  29.782  11.662
31959W        W  364   1.836  35.197  13.601
31960W        W  365  42.834  28.124  11.600
31961W        W  366  34.147  21.944   2.080
31962W        W  367  15.193  27.914   4.350
31963W        W  368   8.623  22.982   3.259
31964W        W  369  22.902  18.178   2.301
31965W        W  370  19.783  22.490   5.440
31966W        W  371   7.799  27.904  11.043
31967W        W  372  38.763   3.146  10.196
31968W        W  373  24.952  27.938  12.970
31969W        W  374  19.912  30.750   0.069
31970W        W  375  34.966  36.648   1.148
31971W        W  376   6.412  32.142   0.982
31972W        W  377  16.630  12.543   4.092
31973W        W  378  19.197  23.524  13.977
31974W        W  379   2.894   4.220   5.469
31975W        W  380  10.168  14.039   4.610
31976W        W  381  10.401  35.070   0.387
31977W        W  382  32.982  17.814  11.472
31978W        W  383  30.369  31.195  14.920
31979W        W  384  39.835  25.970   3.068
31980W        W  385  25.308   6.298  12.036
31981W        W  386  29.285  31.983  11.201
31982W        W  387  44.458  16.582  11.689
31983W        W  388  30.518  19.212  14.720
31984W        W  389  33.325  21.089  14.775
31985W        W  390   9.088  35.637  11.606
31986W        W  391  35.751  15.292  11.063
31987W        W  392  18.581  28.703   2.756
31988W        W  393  29.172  43.077  13.555
31989W        W  394  13.631  33.877  14.507
31990W        W  395  27.162  38.403   3.393
31991W        W  396  21.149  39.381   1.271
31992W        W  397  35.223  37.792  14.808
31993W        W  398  14.769  20.429   2.070
31994W        W  399   2.469  33.549  12.120
31995W        W  400  35.829   5.474  14.585
31996W        W  401  20.211  25.318  13.909
31997W        W  402   0.277   3.301   2.394
31998W        W  403  35.536  31.347  11.209
31999W        W  404  12.057   8.590   1.365
32000W        W  405  15.048  27.209  14.654
32001W        W  406  44.901  19.507   2.691
32002W        W  407  42.131  36.398   2.293
32003W        W  408   3.947  25.540   3.751
32004W        W  409  28.643  42.967   4.763
32005W        W  410  15.114  40.410  12.470
32006W        W  411  37.919  17.259   0.886
32007W        W  412  36.866   1.377   3.598
32008W        W  413   8.726  25.090  10.731
32009W        W  414  19.719  32.188  11.933
32010W        W  415   6.437  38.102   4.303
32011W        W  416  20.498  20.636   4.096
32012W        W  417  34.597  11.141  14.075
32013W        W  418  11.695  26.997  11.036
32014W        W  419   5.809  40.364   4.647
32015W        W  420  41.463   9.117   1.627
32016W        W  421  26.469   7.083   2.319
32017W        W  422  21.948  25.479  11.497
32018W        W  423  32.805  22.784   0.317
32019W        W  424  33.468  15.726  12.890
32020W        W  425  43.804   5.210   4.028
32021W        W  426  15.590  23.891  12.918
32022W        W  427  28.155  26.957   3.247
32023W        W  428   5.649  13.815  11.562
32024W        W  429  21.537  19.014  13.071
32025W        W  430  16.872  29.913   1.066
32026W        W  431  33.540  26.488  13.805
32027W        W  432  22.570   3.141   0.815
32028W        W  433   1.353   3.164   1.906
32029W        W  434  37.981  11.335  11.498
32030W        W  435  16.184  24.999  12.543
32031W        W  436  35.877  26.504   1.165
32032W        W  437  14.537   9.532   1.623
32033W        W  438  30.812  37.050   3.689
32034W        W  439  17.939  36.689  14.862
32035W        W  440   8.264   7.358   2.852
32036W        W  441  33.322  23.473   2.643
32037W        W  442  31.633  29.233   1.444
32038W        W  443  40.792  30.791  14.457
32039W        W  444  29.020  16.274   3.576
32040W        W  445  43.614  34.091   3.688
32041W        W  446  25.634  42.063   4.857
32042W        W  447  22.117   9.665   4.121
32043W        W  448   9.367  36.940   3.819
32044W        W  449  11.373  35.783   3.281
32045W        W  450   7.965  16.587  12.591
32046W        W  451  34.477  20.347  10.669
32047W        W  452  27.372   5.612   1.662
32048W        W  453  16.398  15.136  12.116
32049W        W  454   9.929  32.444   4.993
32050W        W  455   3.410   5.940  13.070
32051W        W  456  14.702  20.979  11.649
32052W        W  457  39.560   1.762   3.265
32053W        W  458  19.648  12.425  14.415
32054W        W  459  38.906  36.885  14.255
32055W        W  460   0.957  40.909   3.178
32056W        W  461  30.591  13.153  14.259
32057W        W  462  44.420   7.313   3.289
32058W        W  463  27.097  30.202  10.489
32059W        W  464  14.008  39.945   3.760
32060W        W  465  38.603  16.757   3.352
32061W        W  466  13.619  31.988   2.310
32062W        W  467  30.957  10.912  13.914
32063W        W  468  36.971  24.796  10.742
32064W        W  469  23.021  10.137   2.337
32065W        W  470  35.978  29.271  14.879
32066W        W  471  13.172  40.760   0.762
32067W        W  472  29.199  43.868  14.364
32068W        W  473  27.061   5.322   0.245
32069W        W  474  13.720   8.721  11.931
32070W        W  475  40.296  13.512  10.734
32071W        W  476   1.757  11.565  12.094
32072W        W  477  33.454  11.131   0.353
32073W        W  478  41.765   2.802   2.948
32074W        W  479  10.783  19.984  14.861
32075W        W  480  37.358  37.838  14.383
32076W        W  481  14.499  44.433   1.461
32077W        W  482  14.200  43.848   4.795
32078W        W  483  37.215  27.049  13.462
32079W        W  484  42.736  30.591   1.359
32080W        W  485  32.371   8.568   1.929
32081W        W  486   5.572  14.730  14.492
32082W        W  487  23.944  18.129  11.608
32083W        W  488   0.602  14.978  14.418
32084W        W  489  38.499  31.133   3.853
32085W        W  490   1.828   8.496  14.450
32086W        W  491  42.349  15.237   4.371
32087W        W  492  17.727  42.528   0.852
32088W        W  493  17.850  36.436  13.567
32089W        W  494  27.209  44.855  14.453
32090W        W  495   5.871   0.763  13.286
32091W        W  496  18.004   4.875   3.667
32092W        W  497  26.026  42.709   2.325
32093W        W  498   9.210  17.611  12.800
32094W        W  499  13.891   1.463  13.498
32095W        W  500  10.663  19.643   2.142
32096W        W  501   9.849  13.726  14.748
32097W        W  502  19.173  40.050  10.679
32098W        W  503  42.307  17.044  12.882
32099W        W  504  10.180  22.289  10.987
32100W        W  505  15.099  18.189  13.530
32101W        W  506   9.303  40.549  13.625
32102W        W  507  30.573   5.899  14.095
32103W        W  508   5.157  37.028   4.191
32104W        W  509  32.186  35.304  11.301
32105W        W  510   4.511   4.262   0.975
32106W        W  511  22.949  36.155   1.228
32107W        W  512  34.116   7.604   1.203
32108W        W  513  39.402  20.951   4.885
32109W        W  514   6.847  28.795   0.822
32110W        W  515  42.393   8.830  11.573
32111W        W  516  17.823  14.710   3.383
32112W        W  517  25.623   3.819  12.013
32113W        W  518  29.686  38.349  13.360
32114W        W  519  24.089  12.807  14.804
32115W        W  520  38.829   3.376   0.345
32116W        W  521  36.368   4.405  14.854
32117W        W  522  39.955  20.968   1.002
32118W        W  523   8.248  31.302   1.553
32119W        W  524  33.354  29.787   4.821
32120W        W  525  37.028   3.286  12.519
32121W        W  526  13.336  44.745   3.428
32122W        W  527  44.742  29.673   0.948
32123W        W  528  21.358  33.987   2.764
32124W        W  529  21.522   2.638  14.163
32125W        W  530  16.614  24.069   1.381
32126W        W  531   1.798  10.822   1.166
32127W        W  532   7.189  41.846   4.033
32128W        W  533  32.605  19.829   4.137
32129W        W  534  12.793  39.606  11.912
32130W        W  535  28.620  15.324  12.448
32131W        W  536  41.927  13.268   1.885
32132W        W  537   4.371  25.540  14.867
32133W        W  538  25.718  24.218  11.526
32134W        W  539  19.291   3.847   1.475
32135W        W  540  34.530   5.066  11.626
32136W        W  541   1.078  37.547   2.267
32137W        W  542  29.600  20.146  13.066
32138W        W  543   7.958  33.661  11.629
32139W        W  544  35.142  23.016   1.737
32140W        W  545  15.110  39.795   0.710
32141W        W  546   8.903   6.881   3.246
32142W        W  547  23.481  43.068  13.961
32143W        W  548   5.806   9.620  14.229
32144W        W  549  26.372  42.988  10.659
32145W        W  550  42.514  44.461  10.680
32146W        W  551  36.995   2.219  11.617
32147W        W  552  42.819  43.623   3.649
32148W        W  553  14.598  41.750   1.297
32149W        W  554  43.007  41.681  14.454
32150W        W  555  41.311  23.466   2.865
32151W        W  556   3.975  31.669   2.260
32152W        W  557   6.212   2.736  11.564
32153W        W  558  30.514   2.159   0.875
32154W        W  559  28.537  16.154   3.172
32155W        W  560  21.160  27.493   3.924
32156W        W  561  35.614   7.726  12.094
32157W        W  562  27.455  12.757  13.954
32158W        W  563   9.336  14.717  14.469
32159W        W  564  10.374   8.846   1.650
32160W        W  565  39.069  36.180   2.164
32161W        W  566  14.907  37.447   3.602
32162W        W  567  39.457  23.707  11.301
32163W        W  568  30.788  26.075  11.988
32164W        W  569  15.977  28.471   0.897
32165W        W  570   5.727  12.548  11.512
32166W        W  571  19.694   4.010  10.741
32167W        W  572   2.782  38.770  11.049
32168W        W  573  15.812   4.745  13.473
32169W        W  574  18.974   4.811  13.794
32170W        W  575  37.763  42.758  12.459
32171W        W  576   2.914  24.222  12.896
32172W        W  577  42.994  26.689  13.130
32173W        W  578  29.538  37.289   4.494
32174W        W  579  30.858  13.961  11.615
32175W        W  580  31.015  29.161   3.603
32176W        W  581   4.209  18.063   1.891
32177W        W  582   2.093  36.625  13.853
32178W        W  583  19.330  18.927   2.853
32179W        W  584  18.797   8.507   3.749
32180W        W  585   5.252  14.094   1.099
32181W        W  586  15.200  22.691   1.328
32182W        W  587  13.849  10.683   0.458
32183W        W  588  23.404  38.430   3.284
32184W        W  589   5.219   0.338   1.417
32185W        W  590   6.089  39.490   2.290
32186W        W  591  30.095  25.583   2.370
32187W        W  592  13.110  25.118   2.125
32188W        W  593  42.946  15.591   1.869
32189W        W  594  37.841  44.498  13.579
32190W        W  595  33.969  38.733   3.631
32191W        W  596   5.313  18.872  10.466
32192W        W  597   5.517   8.956   0.394
32193W        W  598  20.282  37.132   2.641
32194W        W  599  19.589  43.425  11.619
32195W        W  600  21.594  18.686   3.773
32196W        W  601  27.943  16.953  14.053
32197W        W  602  26.134  23.036  14.141
32198W        W  603  33.864   2.748   2.930
32199W        W  604  10.432   1.203   3.059
32200W        W  605  27.522  16.700   2.790
32201W        W  606  10.119  32.069  11.546
32202W        W  607   9.438  20.278   0.281
32203W        W  608   1.754   6.928   3.434
32204W        W  609  14.944   3.289  10.527
32205W        W  610  34.652  21.696   4.070
32206W        W  611  23.363  30.738   3.581
32207W        W  612  30.047  26.848   2.739
32208W        W  613  34.073   8.618  11.943
32209W        W  614   5.918  33.498  11.680
32210W        W  615   5.410  16.270  13.645
32211W        W  616  31.877  12.774  14.313
32212W        W  617  22.319  34.414  13.432
32213W        W  618   6.739  38.624  14.449
32214W        W  619   5.644   3.394   0.261
32215W        W  620  10.668   7.838   2.932
32216W        W  621   5.694  14.287   1.242
32217W        W  622  43.674  15.520   4.438
32218W        W  623  43.694  20.691  13.043
32219W        W  624  41.926  17.081  14.981
32220W        W  625  26.990  24.666  13.538
32221W        W  626  22.651  27.365  12.764
32222W        W  627   8.302  26.571   0.288
32223W        W  628  36.836  32.480   4.271
32224W        W  629  25.529  17.678  11.076
32225W        W  630  40.785  41.952  11.641
32226W        W  631  42.763  32.438  12.614
32227W        W  632  41.562  41.079   4.143
32228W        W  633  13.175   5.328  10.725
32229W        W  634  40.348  16.302  11.093
32230W        W  635  40.315   3.806  14.344
32231W        W  636  23.580  33.331   4.879
32232W        W  637  18.544  31.851   2.217
32233W        W  638  34.329  30.516  13.999
32234W        W  639  31.198  25.616   0.944
32235W        W  640  24.509  35.395  12.611
32236W        W  641  22.449  44.029   1.876
32237W        W  642  22.222   3.745  10.666
32238W        W  643  19.145  27.328  13.021
32239W        W  644  32.693  42.810   1.597
32240W        W  645  35.866  22.003  11.908
32241W        W  646   3.248  32.451  11.744
32242W        W  647  21.783  28.831  11.172
32243W        W  648  15.230  36.829   4.192
32244W        W  649  23.723   7.791  11.116
32245W        W  650  14.260  40.043  13.961
32246W        W  651  26.138   9.717   0.278
32247W        W  652  23.502  11.474   2.212
32248W        W  653  17.726  14.340   1.314
32249W        W  654   6.194   5.405   2.731
32250W        W  655   4.792  41.827   0.301
32251W        W  656  31.837  34.388   0.008
32252W        W  657  15.458  34.924   3.267
32253W        W  658   5.929  37.911  11.023
32254W        W  659  19.792  28.348   1.884
32255W        W  660  15.207  41.415  14.241
32256W        W  661  16.007  15.574   1.453
32257W        W  662   0.271   3.380  11.183
32258W        W  663   0.361  20.092   2.321
32259W        W  664  31.443  13.685   1.703
32260W        W  665   6.337  31.077  13.128
32261W        W  666   5.157   5.731   0.247
32262W        W  667  34.157  33.426   1.833
32263W        W  668  32.149  32.909  13.911
32264W        W  669   0.739  14.152  14.904
32265W        W  670  24.405  30.004   4.553
32266W        W  671  24.520   7.852  12.434
32267W        W  672  10.498   0.250   2.671
32268W        W  673  28.856  39.660   3.775
32269W        W  674   5.746  41.027  11.218
32270W        W  675  31.612  25.775   2.898
32271W        W  676   8.409  12.453  12.223
32272W        W  677   7.703  42.970   4.542
32273W        W  678  29.934  34.129   0.872
32274W        W  679   5.823   9.612   0.867
32275W        W  680  20.589  22.423  13.816
32276W        W  681  28.099  33.853   1.066
32277W        W  682   5.231  30.988  12.492
32278W        W  683  43.840   7.933   2.752
32279W        W  684  21.545  29.609  11.147
32280W        W  685   1.246  16.564  14.369
32281W        W  686  31.726  29.693   3.324
32282W        W  687  26.212  27.591  12.824
32283W        W  688  12.172   0.240  11.667
32284W        W  689  26.592  33.126   4.077
32285W        W  690  43.262  13.291  14.805
32286W        W  691  28.716  22.501   1.281
32287W        W  692  15.083  21.753   2.344
32288W        W  693   2.751  22.537  12.947
32289W        W  694  32.577  41.549  14.329
32290W        W  695  18.037  14.657  12.543
32291W        W  696  24.245  29.131   9.900
32292W        W  697  39.600  10.350  10.186
32293W        W  698  25.623  16.279   2.099
32294W        W  699  11.698  41.042  14.676
32295W        W  700  30.615   2.847   0.231
32296W        W  701   1.877  27.867  12.029
32297W        W  702   3.227  12.687   1.274
32298W        W  703  11.578   9.321  12.898
32299W        W  704  11.887  21.103  14.805
32300W        W  705  26.089   1.003  13.854
32301W        W  706   6.200  32.907   4.227
32302W        W  707  25.074   4.661  13.003
32303W        W  708  24.427  40.503  11.867
32304W        W  709  13.331  15.235   1.840
32305W        W  710  32.213   5.497  13.315
32306W        W  711   2.385  19.045   0.937
32307W        W  712  36.112  16.129   3.792
32308W        W  713   6.903  14.334  10.508
32309W        W  714  19.697   7.812   0.599
32310W        W  715  44.604  36.868   2.735
32311W        W  716  32.903  12.675   4.373
32312W        W  717  33.799  24.057  12.831
32313W        W  718  17.284  36.422   2.588
32314W        W  719  23.031   5.822   2.917
32315W        W  720   1.370  31.624  12.805
32316W        W  721  23.856  34.561  10.672
32317W        W  722  19.005  32.530   2.175
32318W        W  723   1.308  29.202   2.295
32319W        W  724   2.278  31.613   4.157
32320W        W  725  38.405  28.057  13.458
32321W        W  726  20.321  12.192  13.857
32322W        W  727   4.895   0.808   2.298
32323W        W  728  16.925  35.137  11.925
32324W        W  729  22.178   9.669   0.561
32325W        W  730   1.452  25.043  11.622
32326W        W  731   2.906  44.821   3.429
32327W        W  732  16.502  41.752  13.778
32328W        W  733  34.938  25.924   0.432
32329W        W  734  33.880   3.308  10.877
32330W        W  735  10.436  35.006   2.732
32331W        W  736  38.506  22.465  11.639
32332W        W  737   4.788  12.277   5.004
32333W        W  738  16.947   3.362   4.551
32334W        W  739  26.857  22.248  14.973
32335W        W  740  25.815  31.749  11.123
32336W        W  741  14.130  33.073   2.855
32337W        W  742  13.764  39.351   0.469
32338W        W  743  13.690  39.961   2.634
32339W        W  744  22.766  32.982  12.485
32340W        W  745  35.273  14.923  13.324
32341W        W  746  25.630   8.678   0.275
32342W        W  747  29.707   2.469  11.313
32343W        W  748  35.233   2.645   3.921
32344W        W  749   2.227   2.186   2.242
32345W        W  750  39.177  23.621   1.912
32346W        W  751  34.140  14.260  14.486
32347W        W  752  19.612   2.256   2.892
32348W        W  753  30.181   0.839  14.326
32349W        W  754  41.923   3.634  14.028
32350W        W  755  36.514  16.086   3.303
32351W        W  756   2.845  35.890  12.594
32352W        W  757  44.398  19.666   1.442
32353W        W  758  35.325  40.853   1.853
32354W        W  759  40.103  23.053   3.569
32355W        W  760  43.523  21.028   4.741
32356W        W  761  39.521  20.465   3.526
32357W        W  762  17.778  17.738   4.376
32358W        W  763  15.686  33.417   1.982
32359W        W  764  23.438  24.191   1.830
32360W        W  765  23.599  17.736   2.194
32361W        W  766   7.665  25.524   1.772
32362W        W  767   3.639  28.936  14.206
32363W        W  768  20.470  35.812  11.396
32364W        W  769  35.413  22.772  12.227
32365W        W  770  11.665  33.681   0.414
32366W        W  771  33.525   6.535  11.493
32367W        W  772   3.696  19.149  14.613
32368W        W  773  35.491  37.143   4.924
32369W        W  774  20.224  37.950  14.902
32370W        W  775  31.485  36.600  14.969
32371W        W  776  37.033  33.606  12.996
32372W        W  777  12.567  31.937  12.470
32373W        W  778  34.198  26.970   1.457
32374W        W  779  39.372   3.266  12.313
32375W        W  780  20.135   3.915  14.503
32376W        W  781  14.750  26.458   1.999
32377W        W  782  28.622  16.833  11.659
32378W        W  783  41.063  30.351   3.400
32379W        W  784   9.126  17.275  14.915
32380W        W  785  39.824  26.952   0.363
32381W        W  786  25.928  27.689  14.752
32382W        W  787  10.204  42.287   3.816
32383W        W  788   2.485  22.724   1.109
32384W        W  789  14.343   6.392   2.192
32385W        W  790   8.871  22.247   2.214
32386W        W  791  24.471   5.250   3.775
32387W        W  792  30.637   9.227  11.438
32388W        W  793  14.587  25.783  11.888
32389W        W  794   7.285   2.947   3.274
32390W        W  795  40.477  35.179   2.642
32391W        W  796   1.422  19.726   3.088
32392W        W  797  17.207  17.257   2.231
32393W        W  798  33.805  18.751  14.383
32394W        W  799  14.153  38.877  12.658
32395W        W  800  28.071  16.945   2.223
32396W        W  801  37.372  37.889  11.595
32397W        W  802  26.330  39.561   2.144
32398W        W  803   2.000  23.455  13.258
32399W        W  804   1.905  12.598   2.709
32400W        W  805  33.885  27.813   1.878
32401W        W  806  38.351  43.413  14.332
32402W        W  807  28.263  17.544  13.870
32403W        W  808   6.230   1.300   2.363
32404W        W  809   6.741  12.167   3.642
32405W        W  810  19.986  13.131  14.804
32406W        W  811   2.561   4.167  14.406
32407W        W  812  38.367  14.120  13.251
32408W        W  813  12.115  27.048  12.454
32409W        W  814  35.465  10.169  12.016
32410W        W  815  27.754  37.982   5.403
32411W        W  816  11.191  32.863  13.154
32412W        W  817  10.324  35.570  12.858
32413W        W  818  11.315   5.679  10.758
32414W        W  819  34.484  35.451   1.438
32415W        W  820  38.533   6.733  13.644
32416W        W  821  23.856  29.207   1.367
32417W        W  822  27.652  42.791   4.092
32418W        W  823  10.872  21.619  10.744
32419W        W  824  16.253  42.588  11.451
32420W        W  825  16.231  36.889   3.697
32421W        W  826  41.059  20.039   0.903
32422W        W  827   8.548  27.715   1.269
32423W        W  828  11.627  23.904  13.453
32424W        W  829  43.834  29.080   4.361
32425W        W  830  40.571  19.414  14.903
32426W        W  831  38.345  16.746  10.611
32427W        W  832   5.867   6.311   1.838
32428W        W  833  30.174   0.301  11.492
32429W        W  834   4.430  33.353  12.143
32430W        W  835  17.364   2.733   3.552
32431W        W  836   8.923  30.582  12.097
32432W        W  837  43.788  20.233   2.386
32433W        W  838  30.949  15.248  11.133
32434W        W  839  30.690  23.485  13.392
32435W        W  840  24.692   6.198   0.460
32436W        W  841  12.765  20.468   1.011
32437W        W  842  12.093  11.815   1.047
32438W        W  843  25.899  36.049   4.195
32439W        W  844  35.587  11.992  13.946
32440W        W  845  39.253  30.070  14.269
32441W        W  846   4.101  39.728  14.831
32442W        W  847  42.709   5.916  12.670
32443W        W  848  27.120  22.058   3.645
32444W        W  849  42.250  25.141  13.176
32445W        W  850  40.864   7.196  13.834
32446W        W  851  36.128  43.940  13.003
32447W        W  852  35.122  36.470   4.712
32448W        W  853  21.045  21.224   2.297
32449W        W  854  37.382  16.329   2.798
32450W        W  855  43.603   3.364  13.516
32451W        W  856  36.466  43.033   4.041
32452W        W  857  17.663   0.339   4.525
32453W        W  858  28.955  41.060   3.943
32454W        W  859   4.236  42.490  14.384
32455W        W  860  28.447  34.653   2.604
32456W        W  861  17.305  31.017   1.643
32457W        W  862  28.632  41.070  13.497
32458W        W  863  36.415  10.770  11.716
32459W        W  864   3.870  18.346   3.576
32460W        W  865   7.104   0.240   4.089
32461W        W  866  28.896   3.333   2.920
32462W        W  867  19.994   5.768   2.347
32463W        W  868  16.365   9.936  10.662
32464W        W  869  41.402  42.831   4.600
32465W        W  870  13.078  24.170  11.354
32466W        W  871  40.956   9.315  11.125
32467W        W  872  41.785   5.970   0.005
32468W        W  873   6.149  29.032   4.600
32469W        W  874   6.483  24.471  14.897
32470W        W  875  37.366  22.280   0.458
32471W        W  876  33.609  38.032  11.164
32472W        W  877  43.309  22.723  14.924
32473W        W  878  31.444  10.268  14.104
32474W        W  879  42.806  32.160   0.909
32475W        W  880  15.196  12.251   2.171
32476W        W  881   6.895  43.260   1.736
32477W        W  882  18.718  32.541  10.241
32478W        W  883  41.359  31.103   4.260
32479W        W  884   6.870  21.404  10.769
32480W        W  885  21.382  40.816   0.434
32481W        W  886  10.820   6.795  10.617
32482W        W  887  26.143  16.763  14.019
32483W        W  888  42.976   8.836   0.323
32484W        W  889  24.219   5.410   2.719
32485W        W  890  25.028  17.828  12.345
32486W        W  891  19.036  32.555   1.673
32487W        W  892   2.521  20.931  11.435
32488W        W  893  17.991   2.913   0.409
32489W        W  894  42.633  26.682  10.683
32490W        W  895  20.279  36.166  11.060
32491W        W  896  38.135  15.636  11.467
32492W        W  897  40.800   1.674   3.926
32493W        W  898   6.907  44.282  13.371
32494W        W  899  12.787  35.665  10.271
32495W        W  900   3.014  10.737  11.533
32496W        W  901  20.030   8.982   3.388
32497W        W  902  39.927  22.966   3.100
32498W        W  903   8.783  15.385  12.890
32499W        W  904   4.213  19.611  12.218
32500W        W  905  13.846  15.055   2.633
32501W        W  906   9.725  20.744  13.933
32502W        W  907  14.634  16.821  10.687
32503W        W  908  13.882  15.235   1.737
32504W        W  909  22.805  43.590   2.507
32505W        W  910  26.374  43.729  12.940
32506W        W  911  31.617  18.811  11.516
32507W        W  912   9.609  35.067  12.008
32508W        W  913   4.189  21.652  12.008
32509W        W  914  12.947   8.881   0.827
32510W        W  915  16.129   6.296   1.693
32511W        W  916  23.781  33.058   0.628
32512W        W  917  15.557  28.668  10.387
32513W        W  918  26.040  15.221   4.809
32514W        W  919  25.156  36.885  10.767
32515W        W  920  10.816   5.645   3.075
32516W        W  921  38.075   3.938   3.300
32517W        W  922  16.337  23.549   2.358
32518W        W  923  29.609   8.699  11.918
32519W        W  924  42.093  23.215  11.780
32520W        W  925  34.894   0.655  12.554
32521W        W  926  31.342  36.458  10.761
32522W        W  927  22.792   0.178  11.634
32523W        W  928   3.675  22.598   4.429
32524W        W  929  31.799   1.716  11.064
32525W        W  930  29.118  22.233   4.536
32526W        W  931  44.455  43.511  11.985
32527W        W  932  18.075  21.825  14.963
32528W        W  933  17.023  33.111   1.394
32529W        W  934  21.371   4.256  10.203
32530W        W  935   7.877  24.000   2.171
32531W        W  936  40.316  36.681   0.688
32532W        W  937  40.369  44.520   1.810
32533W        W  938  15.454   7.892  11.776
32534W        W  939  31.229   9.382   3.194
32535W        W  940   6.334   6.884  14.114
32536W        W  941  15.550  22.878  12.903
32537W        W  942  39.929  14.563   3.306
32538W        W  943  21.617  35.603  10.578
32539W        W  944  24.700  40.506   0.523
32540W        W  945  19.106   8.428  14.551
32541W        W  946   9.241  37.661   2.722
32542W        W  947  27.433  16.195   5.068
32543W        W  948   1.908  36.593  13.383
32544W        W  949   5.946  19.794   2.553
32545W        W  950  12.221  12.114  12.917
32546W        W  951   4.237  32.562   0.348
32547W        W  952  35.412  29.532  13.338
32548W        W  953   5.866  33.667   1.496
32549W        W  954  44.698  16.992  11.514
32550W        W  955  40.273  10.109  13.875
32551W        W  956  17.901  38.976  14.868
32552W        W  957  24.673  27.738   1.369
32553W        W  958  29.573  20.712   2.637
32554W        W  959   3.290  28.231  13.552
32555W        W  960  16.646  37.092   2.751
32556W        W  961  29.494  27.460   3.499
32557W        W  962  12.404  29.198   4.362
32558W        W  963  40.436  17.505   1.060
32559W        W  964  19.175  44.823   3.423
32560W        W  965  28.767  44.793  14.436
32561W        W  966   4.927  23.259  13.091
32562W        W  967   4.901  26.617   2.674
32563W        W  968   1.967  34.586   1.214
32564W        W  969  40.769  19.284   3.145
32565W        W  970   0.793  44.996  13.237
32566W        W  971  44.440  44.022   3.349
32567W        W  972   7.370  18.194   0.474
32568W        W  973  26.891  40.494   1.181
32569W        W  974  17.439   5.577  10.230
32570W        W  975  26.765  44.584  11.533
32571W        W  976  19.531  24.712  11.028
32572W        W  977  30.604  40.926   3.120
32573W        W  978   8.666  26.574  13.467
32574W        W  979  26.126   7.108  10.460
32575W        W  980  29.022   3.014  12.653
32576W        W  981  39.771  12.266   1.697
32577W        W  982  43.356  16.718   2.367
32578W        W  983  40.018  17.025   0.741
32579W        W  984  11.794  26.940  14.453
32580W        W  985  16.744  39.810  13.755
32581W        W  986  23.060  18.563  13.935
32582W        W  987  36.820   4.651  11.906
32583W        W  988   1.334  21.734  12.157
32584W        W  989  42.200  37.956   2.576
32585W        W  990  41.504   2.766   4.808
32586W        W  991  30.534  29.026  13.616
32587W        W  992  23.368  19.546  14.089
32588W        W  993  19.182   0.177  13.097
32589W        W  994  26.937  36.319  13.503
32590W        W  995   3.235   1.948   2.181
32591W        W  996  29.157   3.651   1.470
32592W        W  997  33.396  36.243  10.735
32593W        W  998  29.994  33.650  11.617
32594W        W  999  24.103  40.510  14.296
32595W        W 1000   0.228  23.190   2.650
32596W        W 1001  13.921  30.424  11.155
32597W        W 1002  32.678  13.112   3.637
32598W        W 1003  18.600  38.863   1.184
32599W        W 1004   7.598  19.603  10.735
32600W        W 1005  29.408  35.321  12.597
32601W        W 1006  32.452  10.234   0.755
32602W        W 1007  31.116  40.272   3.513
32603W        W 1008   5.131  35.695  11.521
32604W        W 1009  11.399   3.434   4.654
32605W        W 1010  42.600  30.138  11.577
32606W        W 1011  23.294  37.505  11.491
32607W        W 1012  36.087   7.233  13.765
32608W        W 1013  12.831  10.189   3.246
32609W        W 1014  23.172  32.426  11.611
32610W        W 1015  16.762   9.290   2.838
32611W        W 1016  21.483  27.236   0.775
32612W        W 1017   8.868  32.123  11.504
32613W        W 1018  28.055   8.772  11.897
32614W        W 1019  27.571   4.956  10.659
32615W        W 1020  18.490  31.474  12.123
32616W        W 1021  22.375  14.854   1.907
32617W        W 1022   4.137  29.335   4.563
32618W        W 1023  22.679   2.054  12.371
32619W        W 1024  10.298   4.702   2.251
32620W        W 1025  13.772  32.432  11.503
32621W        W 1026  38.103  19.237   4.495
32622W        W 1027  44.959  37.517  10.437
32623W        W 1028  14.846  10.346  13.492
32624W        W 1029  23.957  31.093  11.163
32625W        W 1030  32.872  10.349  12.934
32626W        W 1031   5.618   8.169  13.249
32627W        W 1032  12.042  19.019   2.235
32628W        W 1033  22.354  17.141  13.586
32629W        W 1034  39.502  13.487   2.570
32630W        W 1035  21.783   2.931  12.020
32631W        W 1036  13.363  26.489  10.898
32632W        W 1037  22.267  22.164  10.990
32633W        W 1038  25.886  31.522   1.804
32634W        W 1039   7.037  36.972  12.515
32635W        W 1040  25.708  27.202  11.658
32636W        W 1041  23.483  15.439   0.572
32637W        W 1042  19.590  41.199  14.812
32638W        W 1043  29.683   8.902  13.360
32639W        W 1044   1.679  25.032   4.590
32640W        W 1045  41.605  40.957   2.957
32641W        W 1046  18.561  20.830  13.110
32642W        W 1047  23.569  34.738  11.466
32643W        W 1048  33.309  33.129  14.979
32644W        W 1049   4.596  15.865  13.253
32645W        W 1050  15.676   4.321   4.644
32646W        W 1051   8.175   2.342  12.431
32647W        W 1052   8.976   7.375  13.422
32648W        W 1053  32.972  23.011  10.569
32649W        W 1054  29.183  21.300  12.101
32650W        W 1055  14.536  39.971   3.757
32651W        W 1056   5.728   9.100  13.405
32652W        W 1057  14.073  16.270   1.898
32653W        W 1058  21.547  18.313   1.316
32654W        W 1059   4.884  22.051   2.669
32655W        W 1060   9.474   6.509   2.841
32656W        W 1061   5.423   7.993   4.250
32657W        W 1062  40.284  32.514  12.328
32658W        W 1063  25.362  12.269   2.473
32659W        W 1064  17.680  35.042   1.739
32660W        W 1065  24.970   6.272   1.825
32661W        W 1066   8.368  44.514   1.660
32662W        W 1067  40.259  10.993   0.415
32663W        W 1068   1.737  31.938  14.695
32664W        W 1069  30.082  21.308  11.184
32665W        W 1070  21.085  37.789  11.200
32666W        W 1071   4.019  44.400   3.606
32667W        W 1072  43.036   1.411   3.182
32668W        W 1073  41.108  22.709   2.703
32669W        W 1074   3.522   9.844  11.432
32670W        W 1075  27.131  34.661  12.124
32671W        W 1076  40.827  16.057  13.022
32672W        W 1077  27.118  23.196  13.526
32673W        W 1078  25.041  44.132  11.123
32674W        W 1079  18.328   8.948   1.002
32675W        W 1080   4.989  15.746   2.141
32676W        W 1081  29.903   8.783  12.402
32677W        W 1082   9.854  14.753  10.624
32678W        W 1083  16.256  29.017   2.413
32679W        W 1084  43.165   7.769  11.692
32680W        W 1085  42.281  44.967   1.329
32681W        W 1086  10.102  39.853   0.803
32682W        W 1087   8.651  30.542   3.143
32683W        W 1088  25.489  40.236   0.962
32684W        W 1089  30.027  24.200  14.016
32685W        W 1090   2.748   8.169  12.881
32686W        W 1091  22.537   4.421  14.422
32687W        W 1092  24.378  13.821  13.434
32688W        W 1093  40.823  30.156  12.377
32689W        W 1094  14.364  27.679  11.819
32690W        W 1095  22.987  19.350  11.551
32691W        W 1096  41.023   4.006  13.936
32692W        W 1097  18.003   1.424  12.523
32693W        W 1098  25.579  19.613   0.188
32694W        W 1099   3.350   0.996   4.564
32695W        W 1100  20.148  36.709  12.246
32696W        W 1101   0.758  37.242  10.353
32697W        W 1102  40.510  33.131   3.097
32698W        W 1103  35.419  34.385  14.440
32699W        W 1104  32.409  37.898   2.473
32700W        W 1105  30.562  29.357   3.754
32701W        W 1106  39.489  12.281  13.989
32702W        W 1107  19.992  41.090   3.189
32703W        W 1108   1.212  23.742   0.247
32704W        W 1109  43.916   8.219   2.290
32705W        W 1110   8.167  23.093   4.205
32706W        W 1111  20.033   9.980   1.768
32707W        W 1112  10.103  20.147  10.561
32708W        W 1113  16.172   3.945   4.669
32709W        W 1114  28.145   8.951   1.805
32710W        W 1115  44.054   3.334   4.342
32711W        W 1116  12.472   3.426   1.754
32712W        W 1117  13.385   6.695  10.785
32713W        W 1118  31.673  11.142  13.270
32714W        W 1119   9.195   8.897   4.171
32715W        W 1120  27.390  24.261   0.811
32716W        W 1121  44.942  22.938   1.512
32717W        W 1122  11.726   0.002   1.307
32718W        W 1123  14.150  15.640   3.881
32719W        W 1124  43.845  19.710   4.877
32720W        W 1125  33.607  35.961   5.287
32721W        W 1126   5.159  41.608  11.593
32722W        W 1127   9.623   4.944   1.222
32723W        W 1128  16.926  36.990   4.542
32724W        W 1129   6.223  39.757   2.741
32725W        W 1130   2.913  29.800  13.005
32726W        W 1131  24.177  23.605   2.216
32727W        W 1132  26.095   3.770   0.192
32728W        W 1133   8.687  29.952   3.944
32729W        W 1134  11.140  18.871   1.305
32730W        W 1135   2.429  21.056  10.520
32731W        W 1136  11.645  25.236  13.542
32732W        W 1137  15.798  20.487   3.336
32733W        W 1138  35.534  24.503  14.283
32734W        W 1139  36.522  30.670   3.718
32735W        W 1140  13.157  33.128   2.667
32736W        W 1141  27.116   9.790   2.115
32737W        W 1142  27.537  33.919   1.674
32738W        W 1143  32.510  42.946   0.163
32739W        W 1144  17.639  42.491  12.563
32740W        W 1145  23.642  25.052  12.849
32741W        W 1146   5.726  20.631   0.637
32742W        W 1147  43.997   0.513  11.969
32743W        W 1148  21.940  16.158  10.686
32744W        W 1149  17.629  20.387  13.089
32745W        W 1150  38.267  15.792  12.989
32746W        W 1151  19.719  31.686  11.542
32747W        W 1152  17.117  37.636   3.255
32748W        W 1153  22.210   2.373   0.518
32749W        W 1154  15.879  24.502  11.148
32750W        W 1155  21.946   7.944  13.495
32751W        W 1156  15.588  27.727  12.612
32752W        W 1157  17.218  17.330   5.049
32753W        W 1158  14.765  25.279   0.213
32754W        W 1159  36.944  20.084  11.594
32755W        W 1160  35.886  13.262   4.540
32756W        W 1161  34.091  20.020   4.741
32757W        W 1162   5.890  18.064   3.231
32758W        W 1163  41.337  22.897   3.814
32759W        W 1164  30.263  39.282   3.224
32760W        W 1165  14.004  18.785  11.147
32761W        W 1166  41.710  18.173   3.547
32762W        W 1167  28.327  20.577   3.159
32763W        W 1168  32.372  22.052  13.598
32764W        W 1169  17.884  38.990   3.250
32765W        W 1170  44.009  27.480  12.874
32766W        W 1171  32.581   1.254  12.207
32767W        W 1172   2.866  38.302  11.786
32768W        W 1173  13.653   5.392  10.494
32769W        W 1174  35.555  42.963  12.788
32770W        W 1175  13.563  19.516  11.486
32771W        W 1176  34.973  31.020  14.354
32772W        W 1177   0.482  33.616   1.514
32773W        W 1178  32.930  15.821   3.625
32774W        W 1179  41.135  34.634  13.504
32775W        W 1180  29.319  37.497  12.102
32776W        W 1181   9.728  41.139  12.436
32777W        W 1182   1.621  17.191  14.777
32778W        W 1183  11.832  24.406   0.365
32779W        W 1184  30.447  37.375  12.171
32780W        W 1185  41.960  40.077  11.732
32781W        W 1186   8.196  15.764   4.122
32782W        W 1187  21.521   2.319   2.858
32783W        W 1188  24.545   8.937  13.405
32784W        W 1189  30.090  23.290  14.272
32785W        W 1190  43.187  40.016   0.015
32786W        W 1191  41.064   3.659  11.506
32787W        W 1192  44.078  34.159   2.407
32788W        W 1193  12.049  26.138   2.772
32789W        W 1194   5.351   1.571  13.130
32790W        W 1195  29.563  19.442  10.335
32791W        W 1196  21.496   0.679   2.228
32792W        W 1197  29.996  41.553  12.073
32793W        W 1198  31.161  28.372  14.954
32794W        W 1199  22.032   1.972   4.100
32795W        W 1200  33.164   6.288  13.565
32796W        W 1201  41.941   4.914   0.622
32797W        W 1202  19.569  13.932  10.977
32798W        W 1203   2.686  12.304  10.458
32799W        W 1204  14.405  24.002   2.306
32800W        W 1205  37.099   9.722  12.641
32801W        W 1206  28.349   5.474   1.632
32802W        W 1207  44.824  24.882   3.263
32803W        W 1208  13.691  23.931   2.327
32804W        W 1209  33.218  40.849   0.885
32805W        W 1210  31.888  10.784  13.581
32806W        W 1211  22.368  34.009   3.869
32807W        W 1212  37.575  37.735   2.396
32808W        W 1213   6.514   7.214   4.409
32809W        W 1214  32.911  23.092  12.080
32810W        W 1215  27.623  23.038  12.077
32811W        W 1216  25.223  16.776  12.340
32812W        W 1217  43.391  37.763  13.982
32813W        W 1218  19.029  20.632   1.299
32814W        W 1219   0.917  19.337  10.195
32815W        W 1220  27.074   7.826   0.990
32816W        W 1221  31.245   9.416  13.586
32817W        W 1222   8.199  12.077  11.957
32818W        W 1223  37.814  15.748   3.961
32819W        W 1224  24.437   3.252  13.990
32820W        W 1225  42.961  29.158   4.544
32821W        W 1226   8.124  12.632   4.042
32822W        W 1227  10.637   4.326   2.397
32823W        W 1228   1.298  15.324  12.509
32824W        W 1229  13.096   7.047  12.480
32825W        W 1230  35.588  33.837   3.818
32826W        W 1231  16.040  39.502   1.251
32827W        W 1232  44.946  18.774  11.953
32828W        W 1233  38.636  22.733  13.022
32829W        W 1234  28.393  37.418   2.832
32830W        W 1235  26.048  29.062  14.576
32831W        W 1236  17.263   9.690  12.960
32832W        W 1237  19.926  34.219  13.043
32833W        W 1238  19.509  25.543  13.527
32834W        W 1239  21.756  23.495  11.691
32835W        W 1240   3.409  41.470  14.363
32836W        W 1241  36.738   1.748   2.285
32837W        W 1242  22.277  23.464  10.624
32838W        W 1243  27.423   8.428   4.030
32839W        W 1244  30.088   6.651  13.953
32840W        W 1245  38.122   1.031   2.430
32841W        W 1246  12.752   9.363   3.402
32842W        W 1247  11.616   9.869  13.701
32843W        W 1248   7.645  29.934   1.388
32844W        W 1249  12.859  32.435   4.025
32845W        W 1250  19.532  30.802   0.417
32846W        W 1251  25.095  15.395  11.376
32847W        W 1252  23.048  22.360   4.132
32848W        W 1253  26.719  21.671   2.845
32849W        W 1254  30.848  21.660   4.593
32850W        W 1255  12.694  35.076  12.354
32851W        W 1256  30.220   0.947   3.073
32852W        W 1257  30.172  21.587   3.576
32853W        W 1258  17.778  32.132  12.217
32854W        W 1259   7.382  28.910   1.767
32855W        W 1260  39.403  30.620   3.732
32856W        W 1261  23.221  15.272  13.082
32857W        W 1262  43.019  43.563   1.020
32858W        W 1263  40.324  44.282   2.704
32859W        W 1264  39.691  35.776  13.711
32860W        W 1265  34.367  25.096   3.290
32861W        W 1266  41.911  19.953  10.723
32862W        W 1267  14.527  15.741  11.974
32863W        W 1268  22.333  27.670  13.044
32864W        W 1269  27.246  10.055  11.016
32865W        W 1270  42.021  42.023  10.492
32866W        W 1271  35.614  24.065  14.004
32867W        W 1272  11.767  42.464  12.453
32868W        W 1273   4.603  20.601  14.689
32869W        W 1274   3.920  35.069  10.795
32870W        W 1275   2.449  42.265  11.562
32871W        W 1276  18.236  25.634  12.905
32872W        W 1277   0.650  19.658  14.988
32873W        W 1278  30.007   8.279  11.797
32874W        W 1279  40.421  29.095   2.780
32875W        W 1280  13.312  44.695   3.925
32876W        W 1281   2.268  26.647   0.848
32877W        W 1282  41.447  43.819  11.513
32878W        W 1283  41.074  13.235   2.145
32879W        W 1284   2.189   8.857  14.466
32880W        W 1285   2.292  16.575   1.466
32881W        W 1286  44.373  16.219   0.301
32882W        W 1287  29.704  31.017   3.176
32883W        W 1288  35.848  28.595  13.055
32884W        W 1289  15.650  14.593  11.143
32885W        W 1290  35.472  10.581   2.284
32886W        W 1291  26.951  32.502   0.758
32887W        W 1292  34.986  14.327   3.022
32888W        W 1293   6.899   7.771  12.382
32889W        W 1294  38.244  10.146   2.101
32890W        W 1295  29.872   2.196   2.443
32891W        W 1296  18.765  34.450  14.992
32892W        W 1297  19.157   0.832  10.754
32893W        W 1298   6.172  44.502  10.300
32894W        W 1299  13.693  18.463   0.745
32895W        W 1300  41.941  41.832   4.793
32896W        W 1301  42.667  19.068   0.336
32897W        W 1302  25.255  32.538   4.212
32898W        W 1303  28.627   5.638  13.973
32899W        W 1304   1.395  30.638  10.935
32900W        W 1305  23.465  29.632   2.383
32901W        W 1306  41.125  26.251   4.709
32902W        W 1307  27.372  40.367  13.977
32903W        W 1308  43.521  21.968  11.011
32904W        W 1309  37.864  19.373  10.242
32905W        W 1310  27.392  39.384  12.241
32906W        W 1311  37.431  29.734  10.966
32907W        W 1312  12.387  39.880  11.060
32908W        W 1313   7.223  36.398   0.451
32909W        W 1314   0.969  42.839  10.737
32910W        W 1315   2.905  34.360   4.978
32911W        W 1316  18.510   8.838  11.575
32912W        W 1317   2.940  18.176  11.381
32913W        W 1318  35.877  24.145   3.211
32914W        W 1319   8.879  31.573   4.369
32915W        W 1320   8.217  16.357  13.712
32916W        W 1321   1.292  28.618   1.379
32917W        W 1322   2.750  29.710  11.212
32918W        W 1323  44.711   9.588   2.907
32919W        W 1324   7.183   1.630  12.601
32920W        W 1325  41.766   9.369   0.536
32921W        W 1326   0.230   1.923   4.711
32922W        W 1327  43.558  24.798   0.839
32923W        W 1328  42.373  22.592   0.725
32924W        W 1329  14.091  27.176   3.329
32925W        W 1330   8.216  28.544   1.803
32926W        W 1331   5.814   7.040  14.496
32927W        W 1332  36.281  13.698   1.362
32928W        W 1333  30.825  44.378  13.048
32929W        W 1334  38.891  20.223   2.857
32930W        W 1335   1.727  37.623   2.786
32931W        W 1336  20.750   7.514  14.737
32932W        W 1337  44.092  26.705   4.321
32933W        W 1338  33.151  37.240   2.117
32934W        W 1339   0.228  18.223   4.621
32935W        W 1340  14.472  28.123  13.032
32936W        W 1341   5.986  23.581  13.857
32937W        W 1342  28.830  26.578   5.015
32938W        W 1343  20.634  37.330   2.313
32939W        W 1344  39.057   5.007   0.926
32940W        W 1345  26.442  32.864  14.292
32941W        W 1346   9.443   7.944   0.195
32942W        W 1347  37.946   0.001   1.770
32943W        W 1348  31.182  22.310   1.775
32944W        W 1349  20.310  19.098   0.076
32945W        W 1350  36.948  25.209  12.081
32946W        W 1351   3.695  13.732   2.706
32947W        W 1352  23.702   9.373   1.433
32948W        W 1353   5.940  35.429   0.318
32949W        W 1354  30.059  37.448  12.512
32950W        W 1355  24.108   4.417   0.240
32951W        W 1356  40.510  37.149   1.915
32952W        W 1357  20.246  27.895   2.736
32953W        W 1358  26.004   6.799  11.210
32954W        W 1359  11.538   1.013   2.983
32955W        W 1360  21.484  37.234  10.372
32956W        W 1361  30.043   5.007   4.013
32957W        W 1362  22.306  37.921   1.885
32958W        W 1363  24.987  33.944   0.462
32959W        W 1364   3.393  11.580   0.490
32960W        W 1365  29.782  31.866  11.155
32961W        W 1366   6.348   0.028  11.165
32962W        W 1367  33.753  28.146  12.521
32963W        W 1368  14.366  42.560  14.349
32964W        W 1369   5.424   0.907   0.253
32965W        W 1370  37.428  33.211  10.608
32966W        W 1371   7.562  12.591  11.166
32967W        W 1372  44.183   0.745   2.856
32968W        W 1373  28.703  38.538  11.418
32969W        W 1374  40.476  41.615  11.395
32970W        W 1375   7.755  31.367   4.551
32971W        W 1376  36.796  41.416  12.527
32972W        W 1377   5.190  17.026   4.094
32973W        W 1378  28.924   9.715   5.009
32974W        W 1379  14.348  24.494  12.800
32975W        W 1380  44.881  14.743  11.735
32976W        W 1381  31.164  21.057   2.250
32977W        W 1382  26.140  43.239   1.805
32978W        W 1383  10.094   5.355  10.434
32979W        W 1384  42.791   4.769   0.711
32980W        W 1385  11.731  14.296   3.673
32981W        W 1386  36.565   5.271  14.016
32982W        W 1387  27.633  10.453  11.165
32983W        W 1388  38.946  35.443   3.411
32984W        W 1389  44.849   8.132   3.309
32985W        W 1390   8.816  30.408  12.584
32986W        W 1391  13.600  24.079   1.015
32987W        W 1392  13.763  26.248  11.118
32988W        W 1393  31.017   1.213  10.997
32989W        W 1394   6.365  29.940   0.153
32990W        W 1395   9.460   6.304   2.324
32991W        W 1396  34.056  23.998   2.874
32992W        W 1397  44.641  28.114  10.659
32993W        W 1398  44.043  42.584   0.280
32994W        W 1399  12.770  26.734   0.882
32995W        W 1400  44.241  23.184  14.974
32996W        W 1401  33.126  34.395  13.426
32997W        W 1402  14.842   7.443   0.701
32998W        W 1403   4.751   8.432   3.528
32999W        W 1404   1.272  32.529   2.809
33000W        W 1405   2.382  29.595  12.957
33001W        W 1406   3.196   1.128   3.682
33002W        W 1407  44.972  34.960   4.223
33003W        W 1408  11.906  30.552  11.869
33004W        W 1409  28.126  15.043   3.546
33005W        W 1410   3.689  21.932  14.826
33006W        W 1411  44.559  21.701  13.803
33007W        W 1412  31.396  38.887  14.921
33008W        W 1413  35.448  20.353   1.252
33009W        W 1414   9.704  33.815   0.341
33010W        W 1415   7.420  40.861   2.345
33011W        W 1416  40.960   5.881   4.172
33012W        W 1417   9.560  30.192   1.035
33013W        W 1418  17.683  37.599   4.135
33014W        W 1419  25.281  18.267   2.394
33015W        W 1420  30.561  32.223   3.209
33016W        W 1421   6.802   5.496   0.696
33017W        W 1422  13.759   3.429   3.372
33018W        W 1423  11.218  13.296   4.668
33019W        W 1424  34.212  28.033  12.315
33020W        W 1425  27.527  44.401   1.671
33021W        W 1426  31.910   5.327   2.110
33022W        W 1427  30.492   5.155   0.890
33023W        W 1428  20.472  40.925   3.305
33024W        W 1429  29.042  34.074   2.942
33025W        W 1430  19.765  16.780   3.316
33026W        W 1431  37.463  14.585  13.855
33027W        W 1432  14.851   9.675   1.225
33028W        W 1433  25.278  23.298   1.919
33029W        W 1434  36.669   3.459  11.555
33030W        W 1435  29.308   0.851   0.812
33031W        W 1436  27.966  20.528  14.024
33032W        W 1437   6.905   9.507  10.621
33033W        W 1438  17.782   5.830  12.030
33034W        W 1439  32.518  31.687  12.913
33035W        W 1440  23.304   1.241  14.229
33036W        W 1441  28.047   2.825   1.888
33037W        W 1442  23.172  42.861  11.418
33038W        W 1443  14.320   3.282  12.066
33039W        W 1444  26.542  17.165  11.904
33040W        W 1445  22.642  43.986   4.266
33041W        W 1446  32.961  17.287   4.113
33042W        W 1447   6.478  34.509  11.659
33043W        W 1448  14.132   9.314   0.351
33044W        W 1449  13.442  31.173  10.302
33045W        W 1450   3.293  23.536  11.130
33046W        W 1451  30.401  18.581  13.860
33047W        W 1452  36.647  31.017   3.327
33048W        W 1453   2.310  15.319  10.530
33049W        W 1454  23.743  13.764   4.250
33050W        W 1455   0.503  18.357   1.321
33051W        W 1456   5.333  38.441   4.571
33052W        W 1457   5.287   9.973   3.382
33053W        W 1458  44.075  41.651   0.683
33054W        W 1459   7.049   1.894   4.503
33055W        W 1460  32.719  24.801  14.467
33056W        W 1461  18.974  42.311  14.111
33057W        W 1462   4.641  34.014   1.287
33058W        W 1463  23.655  42.411   2.826
33059W        W 1464  26.867  23.669  12.539
33060W        W 1465  12.367  17.623  10.973
33061W        W 1466  16.290  14.229  12.138
33062W        W 1467  39.412   5.285  13.269
33063W        W 1468  39.095  28.485   3.291
33064W        W 1469  17.538   8.220   2.160
33065W        W 1470  39.343  40.403  11.973
33066W        W 1471  13.210  44.309   4.853
33067W        W 1472   7.300   7.165  12.481
33068W        W 1473  28.392  29.197   4.611
33069W        W 1474  18.128  29.094   1.831
33070W        W 1475   0.391  33.578  13.506
33071W        W 1476  28.987  44.556  14.860
33072W        W 1477  26.711  15.329  13.104
33073W        W 1478   5.751  19.980   4.067
33074W        W 1479  29.917  20.767  14.452
33075W        W 1480  40.421  43.433  14.266
33076W        W 1481  38.412  15.637   3.217
33077W        W 1482   3.715  25.089  13.853
33078W        W 1483  25.557  15.194   3.444
33079W        W 1484   0.729  29.649   1.978
33080W        W 1485  16.168  21.235   3.933
33081W        W 1486  10.246  29.893  13.957
33082W        W 1487  36.026   1.848   3.680
33083W        W 1488  29.405  44.398   2.791
33084W        W 1489  36.627   9.916  11.593
33085W        W 1490  14.598  44.971   0.702
33086W        W 1491   0.464  25.039   3.785
33087W        W 1492  43.668  29.709  13.688
33088W        W 1493  28.587  19.319   3.687
33089W        W 1494  44.471   9.912   1.041
33090W        W 1495  35.068  10.738   3.207
33091W        W 1496  32.960  32.194  11.499
33092W        W 1497  16.773  14.520  13.908
33093W        W 1498  11.366  34.995   1.930
33094W        W 1499   1.580  16.306   3.398
33095W        W 1500   7.837  36.940   2.893
33096W        W 1501  25.507  18.526   4.148
33097W        W 1502  34.779  29.538   0.309
33098W        W 1503  13.623  13.415  11.592
33099W        W 1504   8.902  44.470  11.991
33100W        W 1505  19.019  20.070  13.889
33101W        W 1506  29.055  37.040   4.577
33102W        W 1507   9.864   9.715   2.885
33103W        W 1508  29.092  26.916  13.878
33104W        W 1509   2.025   3.890  10.701
33105W        W 1510  23.526  25.213   3.666
33106W        W 1511  43.458  33.532  10.670
33107W        W 1512  40.546  25.173  10.809
33108W        W 1513  26.395  31.188   4.639
33109W        W 1514  36.471  21.136   1.841
33110W        W 1515  16.208  10.633   0.692
33111W        W 1516   4.351   1.249  13.113
33112W        W 1517  23.739   0.369   2.182
33113W        W 1518  11.905  26.145  14.899
33114W        W 1519   8.740  13.578  13.401
33115W        W 1520  14.342  39.640   2.820
33116W        W 1521  31.589  42.600  11.336
33117W        W 1522  10.988  15.162   4.501
33118W        W 1523  14.531   9.189   2.407
33119W        W 1524  39.969   8.677   4.208
33120W        W 1525  12.630  19.566  11.689
33121W        W 1526   3.680  21.219   2.492
33122W        W 1527   2.427  20.086  10.436
33123W        W 1528  40.807   4.544  11.230
33124W        W 1529  33.146  18.054  14.804
33125W        W 1530   8.379   2.302   1.735
33126W        W 1531  17.132   4.394   1.436
33127W        W 1532  17.089  44.823   2.743
33128W        W 1533   2.908  21.086  11.745
33129W        W 1534  38.741  36.000  10.923
33130W        W 1535  31.963  41.815   5.037
33131W        W 1536  39.048  36.864  12.446
33132W        W 1537  14.532   1.316  11.588
33133W        W 1538  36.828  43.773   1.191
33134W        W 1539  13.270  34.116   2.694
33135W        W 1540  41.593  15.773   1.325
33136W        W 1541  21.324  23.625   2.362
33137W        W 1542  33.930   9.600   2.079
33138W        W 1543  20.162  42.172  11.148
33139W        W 1544  28.829  22.341  12.041
33140W        W 1545  19.651  13.743   0.838
33141W        W 1546   5.333   1.475   4.341
33142W        W 1547  24.003   4.403   2.219
33143W        W 1548   5.284  41.992   1.769
33144W        W 1549  11.261   6.434   0.424
33145W        W 1550   6.306  23.987  14.743
33146W        W 1551  27.719  28.344   1.831
33147W        W 1552  12.634  29.631   3.648
33148W        W 1553  38.880  39.102  13.502
33149W        W 1554  24.242  26.229  12.506
33150W        W 1555  27.633   5.345  12.426
33151W        W 1556  42.031  23.618  12.082
33152W        W 1557  15.141  41.389  10.689
33153W        W 1558  20.355  23.553   5.130
33154W        W 1559  13.787  28.214  14.460
33155W        W 1560   0.231   5.716   1.179
33156W        W 1561  37.055   4.817  10.765
33157W        W 1562  33.431  10.786  13.456
33158W        W 1563  18.993  18.625  11.133
33159W        W 1564  42.538  32.111  14.260
33160W        W 1565  28.903  10.536  12.091
33161W        W 1566  15.131  10.938   4.185
33162W        W 1567  17.309  17.562   4.269
33163W        W 1568  38.850  29.370  10.589
33164W        W 1569   4.849  16.205   3.832
33165W        W 1570  25.095   4.840  10.205
33166W        W 1571  35.882  17.747   3.187
33167W        W 1572  15.688  26.193  13.500
33168W        W 1573   2.252   7.603   3.128
33169W        W 1574  37.492  41.274   2.055
33170W        W 1575  34.920  18.960  14.066
33171W        W 1576  23.589  33.211  12.854
33172W        W 1577  40.255  33.708  12.383
33173W        W 1578  10.147  36.646  10.406
33174W        W 1579  22.612  44.058  12.589
33175W        W 1580  20.878   2.710   1.361
33176W        W 1581  36.764  23.497  11.883
33177W        W 1582  38.535  15.674   2.153
33178W        W 1583  35.673   2.776   1.820
33179W        W 1584  42.517  26.219  13.976
33180W        W 1585  21.530  35.483   4.737
33181W        W 1586  32.725  29.574  11.127
33182W        W 1587  20.648  20.214  14.278
33183W        W 1588   6.265  19.279   4.549
33184W        W 1589  20.215  23.124   0.801
33185W        W 1590  38.102   9.796  13.065
33186W        W 1591   8.805  44.172  12.423
33187W        W 1592  27.233  44.890  13.559
33188W        W 1593   0.477   6.638   3.765
33189W        W 1594  34.053  29.659   0.849
33190W        W 1595  40.227  26.626  12.089
33191W        W 1596  22.641  39.921  11.309
33192W        W 1597  34.124   5.935  11.956
33193W        W 1598  31.163  36.323  13.935
33194W        W 1599  36.830   5.147  12.001
33195W        W 1600  43.828  20.862   1.893
33196W        W 1601   2.011  39.470   4.046
33197W        W 1602  22.667  26.739  14.418
33198W        W 1603  33.583  25.384   4.762
33199W        W 1604  14.833  38.914   3.234
33200W        W 1605  25.066  16.068  14.482
33201W        W 1606  33.957  36.772   4.218
33202W        W 1607  37.808  44.262  14.446
33203W        W 1608  17.312   1.862  13.436
33204W        W 1609   0.964  27.886   2.699
33205W        W 1610  26.007  18.309   4.177
33206W        W 1611  39.884  32.620   2.456
33207W        W 1612  14.887  32.929   0.467
33208W        W 1613  35.446  10.378   0.862
33209W        W 1614  27.675   2.781  12.003
33210W        W 1615   7.094  18.708   4.689
33211W        W 1616  34.629   8.571  14.564
33212W        W 1617  38.156  37.979   3.251
33213W        W 1618  12.328  13.587  13.406
33214W        W 1619   7.557  42.935   2.832
33215W        W 1620  11.897  22.075   1.188
33216W        W 1621   8.842  11.386  11.564
33217W        W 1622   6.099  26.858  14.746
33218W        W 1623  30.640  34.280   3.560
33219W        W 1624  10.915   6.831   1.907
33220W        W 1625   2.371   1.164   3.128
33221W        W 1626   1.465   6.186   0.452
33222W        W 1627  19.811   7.089   3.823
33223W        W 1628   4.219  15.172  12.856
33224W        W 1629  24.697  18.259  12.147
33225W        W 1630   5.717  38.895  11.149
33226W        W 1631  36.398  26.904   3.754
33227W        W 1632  11.693  44.383   2.437
33228W        W 1633   7.466  28.434   1.225
33229W        W 1634  31.381  31.389  12.360
33230W        W 1635   2.822  36.862  12.396
33231W        W 1636  18.752  37.759   3.661
33232W        W 1637  25.107  41.299  12.885
33233W        W 1638  17.215  26.879   4.283
33234W        W 1639   2.825   3.812  10.290
33235W        W 1640   7.661   2.383   4.033
33236W        W 1641  29.972  33.723  12.814
33237W        W 1642  22.068  34.062   2.227
33238W        W 1643  18.024  30.598   2.787
33239W        W 1644   5.143  23.037   3.687
33240W        W 1645  33.924   3.694   2.717
33241W        W 1646  43.775  44.813  11.012
33242W        W 1647  40.688  42.832  12.592
33243W        W 1648   2.302   1.678   2.165
33244W        W 1649  35.137  42.240   4.209
33245W        W 1650  24.688  21.803   0.908
33246W        W 1651  14.570  20.703   4.883
33247W        W 1652   7.759  32.477   0.300
33248W        W 1653   5.505  26.708  14.895
33249W        W 1654  36.291  26.055  11.608
33250W        W 1655  40.999   5.896  11.222
33251W        W 1656  17.565  28.704   3.800
33252W        W 1657  37.103  38.368   2.203
33253W        W 1658  31.045  26.450  10.610
33254W        W 1659   2.958   3.207  14.320
33255W        W 1660  38.013  20.120  11.584
33256W        W 1661  42.361  41.570  12.039
33257W        W 1662  44.929   9.859   4.829
33258W        W 1663  10.658  34.340   1.299
33259W        W 1664  24.146   1.463  12.523
33260W        W 1665  44.395  12.327   2.335
33261W        W 1666  13.730   1.301  13.061
33262W        W 1667  24.636  42.961  10.165
33263W        W 1668  19.127   5.217  14.071
33264W        W 1669   3.244  29.535   1.841
33265W        W 1670  36.492  43.736  13.315
33266W        W 1671  35.905  18.964   3.583
33267W        W 1672   8.644  10.328   3.232
33268W        W 1673  27.009   3.187   2.917
33269W        W 1674  12.129  10.275   2.622
33270W        W 1675  34.936   2.795   2.460
33271W        W 1676  44.417  28.931  12.605
33272W        W 1677   8.323  18.555   1.290
33273W        W 1678  33.704  31.477  11.170
33274W        W 1679  40.737  32.576   4.259
33275W        W 1680  37.125  12.400   4.163
33276W        W 1681  18.671  17.671   3.703
33277W        W 1682  15.224  34.234   5.236
33278W        W 1683  16.400  30.018   3.587
33279W        W 1684  42.085  30.612  14.808
33280W        W 1685  10.182  37.272   9.981
33281W        W 1686  15.283  15.337   0.296
33282W        W 1687   5.295  44.088  13.995
33283W        W 1688  37.412  28.038  14.891
33284W        W 1689   8.435  16.790  13.892
33285W        W 1690   0.255  37.393   3.163
33286W        W 1691  23.636  27.165   0.253
33287W        W 1692  31.075  36.138  14.459
33288W        W 1693  43.269  28.822  11.272
33289W        W 1694  27.537  11.217   0.519
33290W        W 1695  29.007  14.137  10.244
33291W        W 1696  35.586  35.645  12.972
33292W        W 1697  10.844  37.591   1.074
33293W        W 1698  30.555  35.028   2.320
33294W        W 1699  14.939  14.594   3.917
33295W        W 1700  21.725   1.443  10.491
33296W        W 1701  28.238  25.212  14.818
33297W        W 1702  19.808  28.172   2.855
33298W        W 1703  21.734  19.023  10.754
33299W        W 1704  19.947  34.939   4.512
33300W        W 1705  12.290  26.016   3.671
33301W        W 1706  34.825  14.775  13.564
33302W        W 1707   1.940  25.244  11.626
33303W        W 1708  42.768   1.787   2.894
33304W        W 1709  39.319  19.528  12.174
33305W        W 1710  22.987  11.894   4.935
33306W        W 1711  35.531  20.185  11.317
33307W        W 1712  34.565  10.187   2.158
33308W        W 1713  29.996   5.470   1.768
33309W        W 1714  20.662  15.252  10.620
33310W        W 1715  25.145  31.470  12.706
33311W        W 1716  44.991  11.867   2.618
33312W        W 1717   6.770  16.103   1.366
33313W        W 1718  39.788  39.056  12.248
33314W        W 1719  32.835  41.715   0.168
33315W        W 1720  13.688  29.895  14.853
33316W        W 1721  38.719  34.966   3.279
33317W        W 1722   9.147   7.670  12.072
33318W        W 1723  26.056  23.288  10.869
33319W        W 1724  12.154  40.789  12.003
33320W        W 1725  39.179  15.593   4.186
33321W        W 1726  35.456  13.604   2.018
33322W        W 1727  43.890  37.145  12.789
33323W        W 1728  34.598  28.931  14.317
33324W        W 1729   5.633  36.318  10.465
33325W        W 1730  38.496   9.555  11.373
33326W        W 1731   2.795  20.504   3.103
33327W        W 1732  34.415  13.570   3.353
33328W        W 1733  38.428  19.763  10.763
33329W        W 1734  41.926   0.433   0.499
33330W        W 1735   4.168   8.740   4.161
33331W        W 1736  30.380  22.900  14.031
33332W        W 1737   9.753  14.263  12.037
33333W        W 1738  41.273  43.742   1.168
33334W        W 1739   0.427  26.397   2.384
33335W        W 1740  35.407  25.009  13.997
33336W        W 1741  35.393  29.877  13.936
33337W        W 1742  35.905  26.383  14.375
33338W        W 1743  13.282  14.265   0.387
33339W        W 1744   3.879  42.829  13.354
33340W        W 1745  31.570  38.240   2.673
33341W        W 1746  38.898  44.245   1.745
33342W        W 1747   6.948  42.464  10.924
33343W        W 1748   3.614  20.536   0.693
33344W        W 1749  31.467   5.551   2.221
33345W        W 1750  28.089   5.436  11.399
33346W        W 1751  25.141  11.641  13.379
33347W        W 1752  21.845  37.549  12.517
33348W        W 1753  34.641   0.275   1.514
33349W        W 1754  19.271   3.007   3.128
33350W        W 1755  28.407   3.375  10.491
33351W        W 1756  27.939  36.006  14.819
33352W        W 1757  20.116  29.943   1.402
33353W        W 1758  23.661  34.118  12.665
33354W        W 1759   5.585  15.354  13.482
33355W        W 1760  22.684  16.106  11.938
33356W        W 1761   1.929  36.061   4.070
33357W        W 1762  35.956   5.157  12.063
33358W        W 1763  31.322  24.059   2.795
33359W        W 1764   6.516  29.571   4.022
33360W        W 1765  11.107  40.156  10.619
33361W        W 1766  37.060  19.029  12.483
33362W        W 1767  19.285  22.152   4.705
33363W        W 1768  15.787  21.104  11.892
33364W        W 1769  41.893  40.154   4.483
33365W        W 1770  33.338  10.300   4.585
33366W        W 1771  40.689  36.560   0.338
33367W        W 1772  12.467  28.918  13.346
33368W        W 1773  42.794  33.928   4.103
33369W        W 1774  22.748  40.998  13.576
33370W        W 1775  23.196  33.638  12.068
33371W        W 1776   9.117  15.991  12.176
33372W        W 1777  44.280   8.205   1.084
33373W        W 1778  18.771  19.074  13.540
33374W        W 1779   1.366  20.179   2.816
33375W        W 1780  12.254  11.602  10.935
33376W        W 1781   8.405   8.229   3.695
33377W        W 1782  25.486  27.575   4.864
33378W        W 1783  43.205  12.039  14.916
33379W        W 1784  20.173  44.967  14.484
33380W        W 1785  10.331  39.047   1.379
33381W        W 1786   0.525  37.693   2.297
33382W        W 1787  25.760  21.499   0.702
33383W        W 1788   8.145  30.722   3.208
33384W        W 1789   4.014  44.890   1.910
33385W        W 1790  30.671  22.198   1.935
33386W        W 1791  15.931  38.464  12.135
33387W        W 1792  25.155  14.375  11.121
33388W        W 1793  19.291  35.030  11.097
33389W        W 1794  14.908  30.482  11.203
33390W        W 1795  21.744   6.382  12.072
33391W        W 1796  24.845   6.602  11.325
33392W        W 1797  17.990  31.523  13.024
33393W        W 1798  11.954   4.731  13.192
33394W        W 1799  24.083  33.017   1.635
33395W        W 1800   2.330  34.777   4.120
33396W        W 1801  42.559  18.143   2.831
33397W        W 1802  12.134   6.302   2.851
33398W        W 1803  41.270  12.747   3.009
33399W        W 1804  23.540  10.415   2.260
33400W        W 1805  28.375  28.724  12.659
33401W        W 1806  38.611  16.692  11.124
33402W        W 1807  37.075  36.975   4.758
33403W        W 1808   9.929   8.815   3.284
33404W        W 1809  31.637  12.169  13.067
33405W        W 1810   6.009  30.659  13.206
33406W        W 1811  23.200   0.738  11.882
33407W        W 1812  35.950   2.937  10.754
33408W        W 1813   1.740   1.147   0.732
33409W        W 1814   0.564  16.188  14.926
33410W        W 1815  29.431  21.319   0.969
33411W        W 1816  21.203  14.143  10.215
33412W        W 1817  40.605  44.264  14.825
33413W        W 1818   8.132  42.895  12.688
33414W        W 1819  39.091  23.415  11.070
33415W        W 1820  19.228  19.834  14.660
33416W        W 1821  31.401   4.767   2.666
33417W        W 1822   1.990  44.745   3.287
33418W        W 1823  23.325  22.851   3.261
33419W        W 1824  14.219   1.991   1.543
33420W        W 1825   8.832  18.394   1.239
33421W        W 1826  38.590  25.963  12.951
33422W        W 1827  22.242  42.835  14.531
33423W        W 1828   5.292   4.737   3.913
33424W        W 1829   4.935  44.145  12.008
33425W        W 1830  39.264  14.665  12.009
33426W        W 1831   9.847   7.811  11.027
33427W        W 1832  44.872   3.480   4.568
33428W        W 1833  17.684  30.500   0.358
33429W        W 1834  16.861  25.443  13.819
33430W        W 1835  28.242  39.846  11.077
33431W        W 1836  27.964  37.139  10.938
33432W        W 1837  28.063  43.797   1.678
33433W        W 1838  10.036  44.794  12.571
33434W        W 1839   2.199  26.164  14.475
33435W        W 1840  44.092   9.632  10.767
33436W        W 1841  11.202  32.014  13.112
33437W        W 1842  40.388  22.400  11.917
33438W        W 1843  36.260  25.297   1.784
33439W        W 1844   7.738  32.596  14.000
33440W        W 1845  41.784   8.688   4.006
33441W        W 1846   4.406   0.244  12.717
33442W        W 1847  37.101  31.958   4.993
33443W        W 1848  29.191   0.337  12.978
33444W        W 1849  15.858   3.832   5.059
33445W        W 1850   5.415   3.806   2.839
33446W        W 1851  19.483   9.459   1.838
33447W        W 1852   3.841  39.879   1.670
33448W        W 1853  16.862  29.289  12.561
33449W        W 1854  42.252  37.908  12.941
33450W        W 1855  15.863   6.798  14.954
33451W        W 1856  43.853   1.286   2.744
33452W        W 1857  14.756  28.056   1.412
33453W        W 1858  32.903  33.124   1.325
33454W        W 1859  11.802  26.702  13.195
33455W        W 1860  38.576  29.210  12.541
33456W        W 1861  10.946  22.269  11.562
33457W        W 1862  38.747  11.807   2.870
33458W        W 1863  39.989  42.803   3.218
33459W        W 1864  28.441  24.441  10.420
33460W        W 1865  17.205  25.586  12.808
33461W        W 1866  20.240  23.440   1.731
33462W        W 1867  18.218  39.843   0.464
33463W        W 1868  25.496   9.083   1.824
33464W        W 1869  28.582   1.348   1.493
33465W        W 1870  17.293  27.984   3.693
33466W        W 1871  43.594  27.811  14.012
33467W        W 1872   9.180  35.931   3.746
33468W        W 1873  23.235  19.551  11.950
33469W        W 1874  10.791   0.846  10.580
33470W        W 1875   4.449  36.548   4.594
33471W        W 1876  37.440  24.217   4.132
33472W        W 1877  32.086  30.389  11.732
33473W        W 1878  34.859  16.042  14.697
33474W        W 1879   8.323  29.572   3.816
33475W        W 1880   3.516  44.386  12.884
33476W        W 1881  40.539  18.699  12.109
33477W        W 1882  27.619  38.121   2.361
33478W        W 1883   5.682   7.317   4.086
33479W        W 1884   9.945  42.945   3.287
33480W        W 1885  35.764  43.390   2.047
33481W        W 1886   1.470  27.933   2.851
33482W        W 1887  22.124  10.737   4.609
33483W        W 1888  25.344  39.676  13.259
33484W        W 1889  24.070  38.517   4.820
33485W        W 1890  26.966   0.832   0.279
33486W        W 1891  20.614  26.568  12.952
33487W        W 1892  34.622  36.915  13.483
33488W        W 1893  39.540  16.116  14.868
33489W        W 1894   0.381   6.163   0.341
33490W        W 1895  44.895  34.662   0.387
33491W        W 1896   8.399  16.862   0.440
33492W        W 1897  27.020  32.619   0.238
33493W        W 1898  37.053  34.348  14.316
33494W        W 1899  10.184   2.374  13.425
33495W        W 1900  30.183  15.301  10.708
33496W        W 1901   3.859  23.212   3.073
33497W        W 1902  15.692  15.316   1.004
33498W        W 1903  42.382  21.586  14.391
33499W        W 1904  24.626  32.657  12.472
33500W        W 1905  11.688  23.193   4.585
33501W        W 1906  30.177  44.795   3.594
33502W        W 1907  42.617  32.577   1.836
33503W        W 1908  32.457  29.936  10.826
33504W        W 1909   4.127  33.484   3.489
33505W        W 1910   4.206   5.958  12.131
33506W        W 1911  19.738  43.561   2.330
33507W        W 1912   9.724  22.751  12.932
33508W        W 1913   8.856  22.082   3.205
33509W        W 1914  36.675  15.920   1.602
33510W        W 1915  26.704  41.550   3.571
33511W        W 1916  21.080  11.726  11.530
33512W        W 1917  17.316   1.721   1.999
33513W        W 1918  11.828  28.200   1.000
33514W        W 1919  17.720   7.649  11.095
33515W        W 1920  22.471  44.609  14.023
33516W        W 1921  29.610  34.641   1.954
33517W        W 1922  20.763  26.680  12.474
33518W        W 1923  16.094  19.913   1.732
33519W        W 1924  20.310  19.633  10.689
33520W        W 1925  16.044  18.306   0.025
33521W        W 1926   8.991   1.665   1.456
33522W        W 1927  20.124  19.670   2.773
33523W        W 1928  30.926  23.579   4.768
33524W        W 1929  42.471  44.270   0.125
33525W        W 1930  23.174  40.277   2.912
33526W        W 1931  29.401   2.680   0.489
33527W        W 1932   6.391  28.007  13.958
33528W        W 1933   5.661   4.256  14.297
33529W        W 1934   2.626  42.390   4.553
33530W        W 1935  36.531  23.996   3.916
33531W        W 1936  13.368  38.286   0.038
33532W        W 1937  41.028  31.938   1.219
33533W        W 1938  24.116  16.143   3.324
33534W        W 1939  44.815  40.352   1.166
33535W        W 1940  44.608   2.560   3.746
33536W        W 1941  37.007  24.191   0.319
33537W        W 1942  30.265  30.978  12.821
33538W        W 1943  20.990   8.333  11.961
33539W        W 1944  28.269  31.037  10.815
33540W        W 1945  34.891  22.078  13.275
33541W        W 1946   1.084  20.102   4.372
33542W        W 1947  23.944  38.355  12.102
33543W        W 1948  25.474  26.513  13.973
33544W        W 1949  17.002   0.574  11.537
33545W        W 1950  43.438  28.074  10.178
33546W        W 1951  26.329  24.988  13.920
33547W        W 1952  26.013  29.594   4.909
33548W        W 1953  18.762  41.926  13.823
33549W        W 1954   0.686  25.422   0.395
33550W        W 1955   2.339  34.534  11.175
33551W        W 1956   3.211  13.351  12.443
33552W        W 1957  15.670  35.597   1.845
33553W        W 1958  20.540  43.002   2.746
33554W        W 1959   9.941  37.498   4.153
33555W        W 1960  28.742  18.682   9.831
33556W        W 1961  39.211   1.746   2.842
33557W        W 1962  21.077  11.208  14.500
33558W        W 1963  23.735  22.961  11.579
33559W        W 1964  34.892  12.754  10.788
33560W        W 1965  41.007  31.005   1.230
33561W        W 1966  31.139  44.825   4.516
33562W        W 1967  13.765  15.095  13.440
33563W        W 1968   7.170  28.082   0.989
33564W        W 1969  35.084  25.062   4.050
33565W        W 1970  23.448  22.018   2.009
33566W        W 1971  15.085  39.590   4.194
33567W        W 1972   5.612  43.284   0.768
33568W        W 1973  40.231   3.455  12.940
33569W        W 1974  12.811  19.610  10.721
33570W        W 1975  27.330  34.176   0.755
33571W        W 1976   6.075  25.604  12.980
33572W        W 1977  13.707   9.155  13.705
33573W        W 1978   0.643  14.826   1.886
33574W        W 1979  44.394   6.824   4.585
33575W        W 1980  44.392  38.019   3.148
33576W        W 1981  24.589  30.535  10.749
33577W        W 1982  14.795  13.236  13.467
33578W        W 1983  43.817   5.014   2.283
33579W        W 1984  14.721  33.924  11.698
33580W        W 1985   1.817   8.703   1.767
33581W        W 1986   8.036  33.262   5.023
33582W        W 1987  27.623  40.447   2.405
33583W        W 1988   7.963  30.444  12.941
33584W        W 1989  27.875  44.752   1.856
33585W        W 1990   1.443  37.703  14.458
33586W        W 1991  26.385  43.511   3.586
33587W        W 1992  25.776  44.276  11.561
33588W        W 1993  39.274   8.230   0.880
33589W        W 1994  25.151  12.217  11.960
33590W        W 1995  44.818  35.703  13.790
33591W        W 1996  27.732  26.023   0.737
33592W        W 1997  28.909   5.406  13.123
33593W        W 1998  41.509  20.133   4.533
33594W        W 1999   8.713  40.079   0.299
33595W        W 2000   0.167  41.349   1.888
33596W        W 2001  12.800  15.448  12.548
33597W        W 2002  12.745  40.409   3.805
33598W        W 2003  11.692  39.903   4.526
33599W        W 2004  41.573  17.354  12.365
33600W        W 2005  43.934  22.779  13.589
33601W        W 2006  41.082  40.867  14.261
33602W        W 2007  40.772  36.169  14.522
33603W        W 2008  25.585   0.938   4.112
33604W        W 2009  18.420  27.756   3.145
33605W        W 2010   0.408  15.161  14.861
33606W        W 2011  42.422   9.096  12.004
33607W        W 2012  27.886  21.331   5.017
33608W        W 2013  18.531  35.830  11.142
33609W        W 2014  19.061  43.444  11.100
33610W        W 2015  11.466  11.438  11.046
33611W        W 2016  24.886  32.537  11.181
33612W        W 2017  12.873   5.762  10.695
33613W        W 2018  12.012  11.557   0.606
33614W        W 2019  10.350  34.592  10.546
33615W        W 2020   7.245  12.762  13.376
33616W        W 2021  42.052  18.547  10.547
33617W        W 2022  28.582  22.548  13.405
33618W        W 2023   4.921  13.066  12.326
33619W        W 2024  28.584  35.621  12.692
33620W        W 2025  41.377  32.893  14.949
33621W        W 2026  20.588  16.974   4.159
33622W        W 2027  21.817  28.196   0.477
33623W        W 2028  15.082   8.831  11.548
33624W        W 2029  11.882  12.826  11.166
33625W        W 2030  40.455  32.816   0.924
33626W        W 2031  39.818  18.584   0.863
33627W        W 2032  24.059  21.535  10.677
33628W        W 2033   3.197  17.088  12.045
33629W        W 2034  12.268  30.572  11.508
33630W        W 2035  26.736  30.534   3.602
33631W        W 2036  29.497  37.986  14.779
33632W        W 2037  25.053  44.506   4.699
33633W        W 2038   6.155  32.858  14.119
33634W        W 2039   5.447  28.414   3.623
33635W        W 2040  30.917   6.341   3.626
33636W        W 2041  43.088  28.478  13.416
33637W        W 2042  16.919  17.748   2.672
33638W        W 2043  32.033  27.117   0.329
33639W        W 2044  42.372   8.708  13.161
33640W        W 2045  42.324  10.281  10.738
33641W        W 2046  34.545  18.566   3.807
33642W        W 2047  16.388  35.469   0.734
33643W        W 2048   5.347  13.595   3.877
33644W        W 2049  16.883  37.412  13.754
33645W        W 2050  25.625  18.252   0.283
33646W        W 2051  30.930   4.317  14.095
33647W        W 2052  14.205   7.986  11.610
33648W        W 2053  17.579  31.892  13.133
33649W        W 2054  41.767  14.432  14.892
33650W        W 2055   2.477  42.575   0.268
33651W        W 2056  29.003  28.896  14.233
33652W        W 2057  23.472  26.084  10.753
33653W        W 2058   1.771  28.032  14.076
33654W        W 2059  11.758  24.435  12.963
33655W        W 2060  28.030   3.712  14.225
33656W        W 2061   0.746  15.806  14.572
33657W        W 2062  41.874  21.613   0.498
33658W        W 2063  28.207   0.935   0.104
33659W        W 2064  11.926  13.913   2.283
33660W        W 2065  21.668  15.129  13.975
33661W        W 2066   8.383  10.049  12.101
33662W        W 2067  14.324  41.085  13.350
33663W        W 2068  28.944  21.685  13.051
33664W        W 2069  34.505  17.085  11.039
33665W        W 2070   1.321  23.917  11.134
33666W        W 2071  43.056  13.178   0.271
33667W        W 2072   4.039   5.716  11.228
33668W        W 2073  23.930  15.030   4.799
33669W        W 2074  37.357   8.260  10.934
33670W        W 2075  26.595  13.789  14.241
33671W        W 2076  44.339  31.123   3.235
33672W        W 2077   4.815  33.575  10.656
33673W        W 2078  33.896   0.939   2.826
33674W        W 2079  13.335  25.036  13.362
33675W        W 2080  28.583  36.649  12.482
33676W        W 2081  31.826  11.628  13.398
33677W        W 2082   5.082  18.042  13.770
33678W        W 2083  14.233  21.346  11.004
33679W        W 2084  25.626  26.125   4.540
33680W        W 2085  32.460  14.304  11.384
33681W        W 2086  13.350  38.918  11.518
33682W        W 2087  36.518  35.346  12.129
33683W        W 2088  27.274  13.200  13.097
33684W        W 2089  12.442  29.242   1.220
33685W        W 2090  34.423   6.257   2.079
33686W        W 2091   3.472  38.019   2.398
33687W        W 2092  16.287  11.593  11.431
33688W        W 2093  25.630  34.089  14.132
33689W        W 2094  22.913   3.288  14.959
33690W        W 2095  17.908  19.489   0.747
33691W        W 2096  17.229  32.096   5.000
33692W        W 2097   1.291  42.133   3.837
33693W        W 2098  22.496  28.663   0.398
33694W        W 2099  16.759   6.435   2.409
33695W        W 2100  11.012  19.404  14.015
33696W        W 2101  26.162  25.707   4.542
33697W        W 2102  35.445   4.934  11.992
33698W        W 2103  35.803  29.534   1.242
33699W        W 2104   9.606  16.297  13.507
33700W        W 2105  25.924  41.847   3.352
33701W        W 2106  27.975  43.032  10.531
33702W        W 2107  24.207  37.336   3.221
33703W        W 2108  41.383   1.766  10.603
33704W        W 2109  19.994  30.075  10.861
33705W        W 2110  20.254  25.605  11.359
33706W        W 2111  29.931  19.211   2.707
33707W        W 2112   9.294  16.348   4.012
33708W        W 2113  24.994  28.660   3.638
33709W        W 2114  36.711  15.811  12.942
33710W        W 2115  22.518  35.849   1.288
33711W        W 2116  40.013   7.204   3.993
33712W        W 2117  43.869  15.023  10.410
33713W        W 2118   4.289   6.418   1.705
33714W        W 2119   4.279  18.416  11.454
33715W        W 2120   3.184  19.560  14.939
33716W        W 2121  39.835  19.136   2.217
33717W        W 2122  10.582  10.349  11.115
33718W        W 2123   7.780  27.134  13.952
33719W        W 2124   5.567  14.787  12.018
33720W        W 2125  23.124  43.533  12.090
33721W        W 2126  14.064   8.731  11.154
33722W        W 2127  28.433  39.390   3.782
33723W        W 2128   2.797   0.897   0.707
33724W        W 2129  28.548  24.695   1.689
33725W        W 2130  44.208   8.689   1.300
33726W        W 2131  20.216  13.580  13.971
33727W        W 2132  41.884   8.907   0.210
33728W        W 2133  33.904   6.219  10.612
33729W        W 2134   2.283  30.491  14.958
33730W        W 2135  43.457   4.828   9.906
33731W        W 2136  20.492  24.516  11.009
33732W        W 2137  17.612   9.721   1.135
33733W        W 2138  22.855  42.767   4.017
33734W        W 2139  10.184  30.543  10.758
33735W        W 2140  43.590  32.062  14.036
33736W        W 2141  38.993  18.716   1.945
33737W        W 2142  36.526  24.466   0.269
33738W        W 2143  34.502   0.256   2.867
33739W        W 2144  26.451  29.003  14.905
33740W        W 2145  42.228  21.519  12.445
33741W        W 2146  44.288  35.300   0.802
33742W        W 2147   8.224  10.093   3.396
33743W        W 2148  21.618  39.646   4.108
33744W        W 2149  13.272  15.299   3.456
33745W        W 2150  41.531   8.839  14.369
33746W        W 2151  20.312  21.645   1.439
33747W        W 2152  11.836   9.286  14.893
33748W        W 2153   3.236  42.983  12.625
33749W        W 2154  42.941   7.226  12.914
33750W        W 2155  18.342  26.272   3.770
33751W        W 2156  44.388   1.439  12.890
33752W        W 2157  34.016  19.750  12.138
33753W        W 2158  18.564  33.338  11.198
33754W        W 2159   2.374  16.645   2.338
33755W        W 2160  17.455   8.762  12.366
33756W        W 2161   7.084  27.250   3.238
33757W        W 2162   5.140  40.580   1.545
33758W        W 2163  16.677  33.032  12.119
33759W        W 2164  37.717  15.649  14.674
33760W        W 2165  40.977   3.456  13.239
33761W        W 2166  24.339   0.260   4.123
33762W        W 2167   5.195  39.628   0.590
33763W        W 2168   2.431  18.242   4.814
33764W        W 2169   9.343   7.922  11.685
33765W        W 2170  22.340  31.014   2.216
33766W        W 2171  28.883  34.449   3.714
33767W        W 2172  16.128   7.588   9.813
33768W        W 2173  22.906   8.212   0.369
33769W        W 2174  37.195  43.925   3.583
33770W        W 2175  39.494  22.613   1.281
33771W        W 2176  32.467   4.377   4.229
33772W        W 2177  30.491  35.169  11.869
33773W        W 2178  32.946   2.917  11.094
33774W        W 2179  21.013   0.395  11.306
33775W        W 2180  16.819   0.176  12.404
33776W        W 2181  43.431  30.879   0.861
33777W        W 2182  38.473  10.912  11.080
33778W        W 2183  32.451   9.589  14.437
33779W        W 2184  24.583  21.426  11.463
33780W        W 2185  12.146  28.306   5.459
33781W        W 2186  22.811   7.023  10.347
33782W        W 2187  42.159   8.390   3.835
33783W        W 2188  10.132   2.829  10.274
33784W        W 2189  16.224   1.746   1.494
33785W        W 2190  13.267  33.010  10.263
33786W        W 2191  22.498  14.717   4.127
33787W        W 2192   3.441  26.552  11.068
33788W        W 2193   2.650  18.352   3.029
33789W        W 2194  14.686   4.795   3.677
33790W        W 2195  39.251  32.777   4.238
33791W        W 2196  14.796  16.190   2.207
33792W        W 2197   2.730  41.485  11.539
33793W        W 2198   3.900  27.542   0.003
33794W        W 2199  29.538  35.207  11.505
33795W        W 2200   5.469  12.552   3.574
33796W        W 2201   9.650  37.935   2.967
33797W        W 2202  28.454  11.233   0.420
33798W        W 2203  39.267   4.748   1.509
33799W        W 2204  28.392  19.041   2.240
33800W        W 2205  38.224  38.495   3.333
33801W        W 2206  29.143   7.808   2.292
33802W        W 2207  14.129  16.725   3.962
33803W        W 2208  21.102  21.143  14.795
33804W        W 2209  11.236   1.835  13.436
33805W        W 2210  17.484  41.999   1.769
33806W        W 2211   4.556  11.642  11.640
33807W        W 2212   0.630  17.120  11.699
33808W        W 2213  44.015   6.132  12.844
33809W        W 2214  19.151  16.626  12.159
33810W        W 2215  11.642   2.746  14.143
33811W        W 2216  31.532   5.939   0.391
33812W        W 2217  20.344  28.017  11.575
33813W        W 2218  10.137  14.998  10.270
33814W        W 2219  40.836  23.452  11.718
33815W        W 2220  23.018   4.227  14.518
33816W        W 2221  10.354  21.475   3.866
33817W        W 2222  30.537  31.019   2.189
33818W        W 2223  28.855  31.451   0.455
33819W        W 2224  40.061  34.177  14.433
33820W        W 2225  17.713  14.684  14.261
33821W        W 2226  22.263  13.674  11.616
33822W        W 2227   8.319  26.936   5.201
33823W        W 2228  29.901  20.628   5.002
33824W        W 2229  23.743  25.205   1.807
33825W        W 2230  24.435  13.309   0.991
33826W        W 2231  14.780   8.901   4.159
33827W        W 2232   0.332  25.676   3.206
33828W        W 2233  40.962  44.289  13.488
33829W        W 2234  43.814   2.243   0.794
33830W        W 2235   0.271  42.307  13.493
33831W        W 2236  27.199  42.214   4.041
33832W        W 2237  16.114  12.295   0.884
33833W        W 2238  40.914  44.942  14.883
33834W        W 2239  41.169  25.902   4.273
33835W        W 2240  12.710  43.434  12.864
33836W        W 2241  39.780  26.042  11.471
33837W        W 2242  22.546  23.071   2.757
33838W        W 2243  18.295  35.979   0.623
33839W        W 2244   9.305  16.911   4.071
33840W        W 2245  35.157  29.430  12.062
33841W        W 2246  33.668  39.573  11.642
33842W        W 2247  34.871  22.534  13.520
33843W        W 2248   1.145  20.688   1.112
33844W        W 2249  29.823  44.229  13.152
33845W        W 2250  43.631  29.489  11.668
33846W        W 2251   1.359  34.064  14.385
33847W        W 2252  28.177  41.459  13.347
33848W        W 2253  35.881   6.643  11.140
33849W        W 2254   8.441  27.804   4.901
33850W        W 2255  44.336  27.463  11.996
33851W        W 2256  27.613  15.678  10.681
33852W        W 2257   7.784  14.532  12.835
33853W        W 2258   0.559  12.088   4.413
33854W        W 2259  29.434  11.386   1.671
33855W        W 2260  34.142  22.706   4.335
33856W        W 2261  21.055  17.120   0.877
33857W        W 2262  32.196   9.334   3.510
33858W        W 2263  18.829  41.692  12.440
33859W        W 2264  22.559   3.675   0.816
33860W        W 2265  13.114  11.393   4.930
33861W        W 2266  43.930  10.736   1.378
33862W        W 2267  34.988  41.373  11.651
33863W        W 2268  11.316  36.491  13.977
33864W        W 2269  13.610   2.085   1.402
33865W        W 2270  17.083  37.606   2.373
33866W        W 2271  41.909  10.830   0.986
33867W        W 2272  21.529  25.836  11.825
33868W        W 2273  16.937   5.347   3.084
33869W        W 2274  13.083  38.938  11.963
33870W        W 2275   6.323   5.735   1.371
33871W        W 2276  35.034  10.107   4.624
33872W        W 2277  37.341  27.134   0.930
33873W        W 2278  34.545  43.530   4.109
33874W        W 2279  22.011  10.102   4.396
33875W        W 2280  36.571   7.609  12.314
33876W        W 2281  37.588  29.183  10.141
33877W        W 2282   6.658  34.370   2.945
33878W        W 2283  13.619  32.318   4.635
33879W        W 2284   3.432  35.573   4.667
33880W        W 2285  36.583  26.184  12.053
33881W        W 2286  29.130   9.378   1.176
33882W        W 2287  38.830   5.977  12.548
33883W        W 2288   6.924  10.906   0.549
33884W        W 2289  34.990  38.945   3.283
33885W        W 2290  29.188  13.828   1.731
33886W        W 2291   2.187  14.878   1.833
33887W        W 2292   1.679   9.897   3.737
33888W        W 2293  36.840  41.522  11.944
33889W        W 2294  27.249  25.640   4.813
33890W        W 2295  22.008  19.115   4.491
33891W        W 2296  35.060  37.428  12.888
33892W        W 2297  22.718  30.253  14.362
33893W        W 2298   0.947  18.834  12.983
33894W        W 2299  14.081  42.067   1.810
33895W        W 2300  15.521  24.536   5.069
33896W        W 2301  37.362   6.338  14.605
33897W        W 2302  31.620  43.596   0.982
33898W        W 2303  26.513   9.396  13.339
33899W        W 2304  31.393   5.260  11.091
33900W        W 2305  32.869  35.619   2.778
33901W        W 2306   6.444  41.632   2.864
33902W        W 2307  31.107   4.204   4.579
33903W        W 2308   3.966   5.661   3.338
33904W        W 2309   4.875  38.022   1.459
33905W        W 2310  43.742  16.736   4.143
33906W        W 2311  18.062  35.999   2.765
33907W        W 2312  39.050  38.326   3.592
33908W        W 2313  14.862  40.095   4.186
33909W        W 2314  14.395  37.583   3.665
33910W        W 2315  18.834   2.940   1.339
33911W        W 2316   2.846  16.715  12.937
33912W        W 2317  40.309  42.643  11.648
33913W        W 2318  39.386   6.635  14.167
33914W        W 2319  34.098  22.562  10.900
33915W        W 2320  18.681  12.883   4.632
33916W        W 2321   3.177  42.477  14.418
33917W        W 2322   2.918  18.996  12.951
33918W        W 2323  21.078   1.001   2.418
33919W        W 2324  13.696  14.439  12.435
33920W        W 2325  39.902   7.903   1.617
33921W        W 2326  12.579   0.877   3.737
33922W        W 2327  29.850  44.221  14.050
33923W        W 2328  37.000  19.583  14.928
33924W        W 2329  34.879   9.110  10.815
33925W        W 2330   0.714  13.809  13.007
33926W        W 2331  33.457  16.157  11.175
33927W        W 2332  28.901  31.269  11.844
33928W        W 2333  25.260  36.375   2.359
33929W        W 2334  22.230  31.635  13.840
33930W        W 2335  16.766  25.344   3.069
33931W        W 2336  13.283   4.750   0.059
33932W        W 2337   3.162  21.958  13.614
33933W        W 2338  43.730  42.589  14.857
33934W        W 2339  11.107  31.515  12.992
33935W        W 2340   3.034  29.171  14.712
33936W        W 2341  11.475   8.233  13.844
33937W        W 2342  29.746  11.595  14.404
33938W        W 2343  11.972  35.304   1.378
33939W        W 2344  26.044   6.109  12.332
33940W        W 2345   0.237   9.025   4.129
33941W        W 2346  24.164  40.303   3.850
33942W        W 2347   9.137  24.421   0.860
33943W        W 2348  31.978  44.181  11.015
33944W        W 2349  35.837  26.728   4.594
33945W        W 2350  44.024  24.463  14.526
33946W        W 2351  12.605   3.041  11.086
33947W        W 2352   3.322  40.487   5.053
33948W        W 2353  29.942  22.001  14.009
33949W        W 2354  44.256  22.147  12.098
33950W        W 2355  23.795  34.617  14.353
33951W        W 2356   9.752  31.368  10.686
33952W        W 2357  10.481  33.971  11.245
33953W        W 2358   0.473   0.967  10.876
33954W        W 2359  30.131  26.281  13.831
33955W        W 2360  36.088  15.779   0.386
33956W        W 2361  15.213  25.318   0.935
33957W        W 2362  25.100  29.413   0.721
33958W        W 2363  20.308  43.460  12.179
33959W        W 2364  10.669  42.555   3.206
33960W        W 2365  22.157  30.307  10.696
33961W        W 2366  11.977  37.376  14.644
33962W        W 2367  16.374  42.944   0.944
33963W        W 2368  19.977  39.977   3.912
33964W        W 2369  20.912   4.965   4.398
33965W        W 2370  18.734  15.261   1.796
33966W        W 2371   5.863  10.669   2.521
33967W        W 2372  29.515  34.003  14.396
33968W        W 2373   9.824  22.584  12.411
33969W        W 2374  43.934  21.161   4.443
33970W        W 2375  11.806  14.715  12.637
33971W        W 2376   2.944  39.896  11.295
33972W        W 2377  36.852   5.148   4.506
33973W        W 2378  15.336   3.786  13.307
33974W        W 2379   6.152  11.969   4.712
33975W        W 2380  33.599  27.402   3.232
33976W        W 2381  12.220  31.757   3.744
33977W        W 2382   8.734  16.108   2.314
33978W        W 2383  25.687   7.414   2.750
33979W        W 2384  39.392  42.152  13.716
33980W        W 2385  34.020   6.694  14.996
33981W        W 2386  40.589  29.966   3.984
33982W        W 2387   0.834   9.257  12.146
33983W        W 2388  35.988  22.927   0.465
33984W        W 2389  10.789  14.708   0.651
33985W        W 2390  38.358  29.734   4.215
33986W        W 2391   1.755  40.307  12.516
33987W        W 2392  32.026  30.914  11.489
33988W        W 2393  16.181  27.182  13.941
33989W        W 2394  12.229  17.192  11.996
33990W        W 2395   7.909  26.404   2.350
33991W        W 2396  26.898  30.720  14.374
33992W        W 2397  10.113  35.054  10.540
33993W        W 2398  17.780  29.628   0.244
33994W        W 2399  24.247  31.826   4.503
33995W        W 2400  27.978   5.235  13.813
33996W        W 2401  17.489  21.150   1.677
33997W        W 2402  38.437  31.432  10.665
33998W        W 2403  35.372  27.023  13.927
33999W        W 2404  19.694  31.635   0.537
34000W        W 2405  31.382  30.139   2.256
34001W        W 2406  10.136  25.120   0.258
34002W        W 2407  27.159  18.033   1.196
34003W        W 2408   6.426  34.470   0.398
34004W        W 2409   6.437   2.451   2.507
34005W        W 2410  21.522   1.002  11.695
34006W        W 2411  28.287  41.948  14.474
34007W        W 2412  31.161  17.654   2.372
34008W        W 2413  31.191  17.250  10.182
34009W        W 2414  33.342  41.215  13.426
34010W        W 2415  29.135  21.798  11.199
34011W        W 2416  27.441  42.974  14.323
34012W        W 2417  18.072  16.351  12.989
34013W        W 2418  31.862  26.620   0.260
34014W        W 2419  12.683  14.498   3.558
34015W        W 2420  35.917  14.648  14.498
34016W        W 2421  42.788   6.375  14.889
34017W        W 2422  36.322   2.404   3.736
34018W        W 2423  20.481  13.084  14.906
34019W        W 2424  43.421   2.188  12.511
34020W        W 2425  15.581  22.310   1.994
34021W        W 2426  40.809   7.732   3.561
34022W        W 2427   1.926  32.304  12.314
34023W        W 2428   7.230  20.739   0.886
34024W        W 2429   9.853  13.520   4.525
34025W        W 2430  17.026   6.368  13.008
34026W        W 2431  20.137  31.846  12.486
34027W        W 2432  27.772  42.367  13.128
34028W        W 2433   7.419  27.803  13.690
34029W        W 2434  10.210  42.834   4.664
34030W        W 2435  29.512  34.301   4.229
34031W        W 2436  28.658  33.279  11.786
34032W        W 2437  14.694  34.386   3.650
34033W        W 2438  44.957  38.936  12.026
34034W        W 2439  20.643  13.036   2.816
34035W        W 2440  12.580  30.540  14.360
34036W        W 2441  19.978   2.829   4.342
34037W        W 2442  32.295  28.450   3.021
34038W        W 2443  34.577  39.133   0.894
34039W        W 2444  23.314  44.061   4.136
34040W        W 2445  21.949   8.794  10.598
34041W        W 2446  14.697  42.811  12.753
34042W        W 2447  21.716  32.455  14.949
34043W        W 2448  27.531  40.412   0.939
34044W        W 2449  15.527  39.388  12.810
34045W        W 2450  10.225  25.984   3.705
34046W        W 2451  28.119  32.466   1.233
34047W        W 2452  17.691   0.444   3.660
34048W        W 2453  17.066  26.514   0.451
34049W        W 2454  38.447  14.426   3.303
34050W        W 2455  33.856  14.320   5.046
34051W        W 2456  29.751   4.249  13.421
34052W        W 2457   6.442  36.035  13.309
34053W        W 2458   0.858  11.202   1.561
34054W        W 2459  37.130   9.676  10.727
34055W        W 2460  14.406  28.555  11.927
34056W        W 2461  19.232  41.745   0.317
34057W        W 2462   9.190   3.263  14.864
34058W        W 2463  27.730  21.599   1.244
34059W        W 2464  41.885  44.906   0.400
34060W        W 2465   4.450  17.015  12.376
34061W        W 2466  43.987  24.984  11.280
34062W        W 2467  29.921   2.835  13.460
34063W        W 2468  28.019  13.653   3.959
34064W        W 2469  28.610  19.111   3.209
34065W        W 2470  29.775  44.384  12.229
34066W        W 2471  33.564  18.135   0.741
34067W        W 2472  34.282   6.692   1.156
34068W        W 2473  35.131   4.114  11.860
34069W        W 2474  22.298   3.740  13.959
34070W        W 2475  41.415  26.517  14.736
34071W        W 2476  41.774  35.536   2.064
34072W        W 2477  12.576  28.247   4.881
34073W        W 2478   7.043  31.594   5.056
34074W        W 2479  37.595  12.708  12.397
34075W        W 2480   2.366   3.505  12.905
34076W        W 2481  44.586  15.848  12.402
34077W        W 2482   2.764   3.950  11.191
34078W        W 2483  41.248  21.953   1.833
34079W        W 2484  13.714  44.288   4.978
34080W        W 2485  34.491  27.912   3.441
34081W        W 2486  25.029  42.643  10.853
34082W        W 2487  24.498   6.495  13.780
34083W        W 2488  17.278   1.073  13.943
34084W        W 2489  37.014  36.852   4.277
34085W        W 2490  41.548  31.213  13.917
34086W        W 2491  38.326  22.285   3.171
34087W        W 2492   5.925  42.421  10.996
34088W        W 2493   9.559  38.944   0.812
34089W        W 2494  41.074  24.677  11.528
34090W        W 2495  26.707  19.744  13.557
34091W        W 2496   9.475  12.585  14.553
34092W        W 2497   9.397  33.979  13.340
34093W        W 2498  19.465  35.185   4.320
34094W        W 2499   9.295  10.909   1.884
34095W        W 2500  40.370   2.817   2.235
34096W        W 2501   4.006   3.363   2.618
34097W        W 2502   1.702  23.566  12.836
34098W        W 2503  19.676   5.032  10.696
34099W        W 2504  11.824  35.761  13.676
34100W        W 2505  32.677  18.218   1.688
34101W        W 2506  25.059  35.097   1.824
34102W        W 2507  27.691  36.101  12.058
34103W        W 2508  11.690   1.451   2.758
34104W        W 2509  30.509   5.383   1.933
34105W        W 2510  19.683  25.096  13.670
34106W        W 2511  27.023  43.041  14.018
34107W        W 2512   5.779  16.380   3.156
34108W        W 2513  19.842   3.546  13.771
34109W        W 2514  22.159  11.625   2.304
34110W        W 2515  13.135  21.714   0.809
34111W        W 2516  17.126  20.022  14.825
34112W        W 2517  20.195  38.917   0.914
34113W        W 2518   8.249  26.838   4.169
34114W        W 2519  18.187   0.238   4.548
34115W        W 2520  19.156  24.267   2.754
34116W        W 2521  37.936   1.763   0.938
34117W        W 2522   7.243  34.188   1.184
34118W        W 2523  14.376  20.732   0.432
34119W        W 2524  21.460  40.765  11.917
34120W        W 2525  18.569  11.203  11.094
34121W        W 2526   1.954   9.276  13.491
34122W        W 2527  42.853  20.006  14.002
34123W        W 2528  27.498  10.787  12.505
34124W        W 2529  30.267  40.035  14.438
34125W        W 2530  22.959  33.438  10.294
34126W        W 2531  20.257  11.559   0.830
34127W        W 2532  24.418  35.126  12.153
34128W        W 2533   5.979  10.962  14.854
34129W        W 2534  35.992  25.578   1.421
34130W        W 2535  43.915  20.576  10.698
34131W        W 2536  28.591  41.824  11.194
34132W        W 2537   4.892  42.782   2.159
34133W        W 2538  39.274  40.118   1.264
34134W        W 2539  39.544   6.158  13.958
34135W        W 2540  16.805  35.635  11.874
34136W        W 2541   0.785  36.516  12.411
34137W        W 2542  18.178   3.888   2.731
34138W        W 2543   3.240   8.810  12.636
34139W        W 2544   9.327  10.268   3.849
34140W        W 2545   6.511  13.652  11.151
34141W        W 2546   2.867   4.762  12.897
34142W        W 2547  30.930  29.904  10.717
34143W        W 2548  41.034  28.443   3.164
34144W        W 2549  18.708  15.704   3.606
34145W        W 2550  25.192  17.107   4.182
34146W        W 2551  43.572  12.086  12.045
34147W        W 2552  27.600  33.243   4.157
34148W        W 2553   5.184  23.616  13.464
34149W        W 2554  15.131   8.925   1.626
34150W        W 2555  44.371  36.603  12.719
34151W        W 2556  38.315   5.815  13.995
34152W        W 2557  32.589  34.334  14.442
34153W        W 2558   5.048  22.296  12.280
34154W        W 2559  44.980  26.590  12.287
34155W        W 2560   3.829  25.637  10.377
34156W        W 2561  44.973  18.180   1.950
34157W        W 2562  11.961  15.362   1.999
34158W        W 2563  18.675   9.226   3.107
34159W        W 2564  31.462  15.122  14.957
34160W        W 2565  25.162  37.331  10.479
34161W        W 2566   7.615   9.146  11.155
34162W        W 2567  37.513  10.448   0.773
34163W        W 2568  43.773  20.041   3.732
34164W        W 2569  40.830  44.150  10.746
34165W        W 2570  42.343  28.474   0.995
34166W        W 2571  16.245  34.537   0.787
34167W        W 2572  18.650  15.575   2.223
34168W        W 2573  22.607  10.922   3.007
34169W        W 2574   1.071   4.760   3.651
34170W        W 2575  15.659   9.913   4.646
34171W        W 2576  32.166  26.020  11.976
34172W        W 2577  29.149   0.955   0.335
34173W        W 2578  19.435   8.948   1.923
34174W        W 2579   8.646   2.656  11.977
34175W        W 2580  32.362  34.925  12.637
34176W        W 2581  30.958  12.214   2.753
34177W        W 2582   2.488  41.120   0.728
34178W        W 2583  15.139  31.073  10.042
34179W        W 2584   4.480   3.099  11.968
34180W        W 2585  35.552  35.131   1.948
34181W        W 2586  25.601  21.966   0.864
34182W        W 2587  21.475   5.234  11.577
34183W        W 2588  16.391  35.331  11.855
34184W        W 2589  10.463  12.860  13.019
34185W        W 2590   9.751   4.009  12.651
34186W        W 2591  17.074  23.013  12.075
34187W        W 2592  10.382  21.219  14.728
34188W        W 2593  37.924  21.256  12.926
34189W        W 2594  32.616  12.644  12.904
34190W        W 2595  11.783   3.575   2.132
34191W        W 2596  38.393   2.231  12.565
34192W        W 2597   4.318   4.221   0.499
34193W        W 2598  23.965  12.867   1.881
34194W        W 2599  42.067  39.832  13.434
34195W        W 2600   1.950  37.843  10.466
34196W        W 2601  38.932  35.322   4.390
34197W        W 2602   0.989   2.212   1.733
34198W        W 2603  43.657  34.401   3.242
34199W        W 2604  39.660  12.225   2.631
34200W        W 2605  35.397  35.603  10.464
34201W        W 2606  17.049   6.409  12.184
34202W        W 2607  10.308   1.721   0.684
34203W        W 2608  15.103  29.969   0.641
34204W        W 2609  33.375  29.608   2.039
34205W        W 2610  44.314   7.872   1.961
34206W        W 2611   7.177  26.242  11.169
34207W        W 2612   0.838  30.940   0.445
34208W        W 2613  26.276  21.166   1.354
34209W        W 2614  41.290  15.270  10.626
34210W        W 2615  39.486   6.613   2.871
34211W        W 2616  14.692   2.869   4.489
34212W        W 2617   1.278  42.767  14.333
34213W        W 2618  16.089  10.013  14.123
34214W        W 2619  43.543  39.820   0.372
34215W        W 2620  22.027  21.690  11.876
34216W        W 2621  20.067  36.316   0.395
34217W        W 2622  31.636   1.847   4.092
34218W        W 2623  30.927   8.522   3.339
34219W        W 2624   0.808  13.637  13.978
34220W        W 2625  42.401  27.545  12.964
34221W        W 2626  18.289   0.730   1.543
34222W        W 2627  36.291  22.113   0.309
34223W        W 2628  42.022  37.182   3.739
34224W        W 2629   1.913  12.222   1.425
34225W        W 2630  44.208   3.918   1.658
34226W        W 2631  16.491  29.992   0.262
34227W        W 2632   8.979  34.109   1.066
34228W        W 2633  33.979  17.042  14.732
34229W        W 2634   6.278  41.979  12.088
34230W        W 2635  25.706  32.084  13.376
34231W        W 2636   6.996  22.750  12.564
34232W        W 2637  16.355   9.185  12.201
34233W        W 2638  34.367   8.817   4.363
34234W        W 2639   0.306  30.117  14.499
34235W        W 2640  39.432  28.861   4.521
34236W        W 2641   0.797  38.046  12.479
34237W        W 2642  41.514   0.687   0.913
34238W        W 2643  27.584  32.825  10.965
34239W        W 2644   4.819  36.115   1.959
34240W        W 2645  27.035  20.216   3.267
34241W        W 2646  40.276   9.344  12.755
34242W        W 2647   9.805  40.829  13.268
34243W        W 2648  38.508  19.581  14.563
34244W        W 2649  33.626  29.530  12.019
34245W        W 2650  14.239   0.973   2.877
34246W        W 2651  33.333  34.160   0.760
34247W        W 2652  25.350   7.091  12.513
34248W        W 2653  19.033  25.207   3.738
34249W        W 2654   1.707   4.251   4.137
34250W        W 2655  32.863   2.717   1.973
34251W        W 2656   2.227  18.054  13.916
34252W        W 2657  15.021  25.067   4.546
34253W        W 2658  43.480  16.079  11.930
34254W        W 2659  29.058  24.920   4.130
34255W        W 2660  14.658  44.028  11.413
34256W        W 2661  33.960  42.537   3.095
34257W        W 2662  40.297  16.871  13.676
34258W        W 2663  31.898  38.101  14.497
34259W        W 2664  31.232  33.346   5.048
34260W        W 2665   3.150  19.703  13.939
34261W        W 2666   9.000  37.509  13.834
34262W        W 2667  19.230  34.911  12.614
34263W        W 2668  27.064  10.564   3.228
34264W        W 2669  39.529   7.810   0.266
34265W        W 2670   4.886  25.718   1.855
34266W        W 2671  37.347   2.064   4.441
34267W        W 2672  25.279  15.582   3.660
34268W        W 2673  28.480  22.728  11.870
34269W        W 2674  44.257  29.698   2.104
34270W        W 2675   5.014  33.694  14.883
34271W        W 2676  21.707  25.577   0.726
34272W        W 2677  10.420   0.464  13.251
34273W        W 2678  29.163  10.639  12.579
34274W        W 2679  19.160   0.513   4.637
34275W        W 2680  38.303  31.501  12.915
34276W        W 2681  21.472   9.869  12.846
34277W        W 2682   8.242   7.504  14.552
34278W        W 2683  23.583  41.551  10.966
34279W        W 2684  16.754  18.896   0.103
34280W        W 2685   5.659   7.208   1.737
34281W        W 2686  34.665   0.295   1.007
34282W        W 2687  44.222  29.926  10.805
34283W        W 2688  36.930   3.242  13.033
34284W        W 2689  17.601   0.265  12.027
34285W        W 2690  42.056  26.917   3.825
34286W        W 2691  39.800  39.805   4.537
34287W        W 2692  30.704  15.163  10.688
34288W        W 2693  42.162  31.957  12.786
34289W        W 2694   6.131  20.058   3.714
34290W        W 2695   2.553  18.602   2.172
34291W        W 2696  26.798  40.700  14.749
34292W        W 2697  13.571  33.994   4.525
34293W        W 2698  11.302  16.038   1.640
34294W        W 2699  42.917   6.457   4.753
34295W        W 2700  37.398  29.410  14.279
34296W        W 2701   3.289  29.635  14.736
34297W        W 2702  25.357  10.082  14.580
34298W        W 2703  16.114  10.582   4.258
34299W        W 2704  33.336   3.342  10.139
34300W        W 2705  21.622  32.582   2.447
34301W        W 2706  33.338  31.664  10.255
34302W        W 2707  33.137  37.834   2.892
34303W        W 2708  10.524  21.577  11.137
34304W        W 2709  41.828  26.462  14.422
34305W        W 2710   7.618  39.082   4.706
34306W        W 2711  40.561  22.604  13.995
34307W        W 2712  31.049  40.602  10.603
34308W        W 2713  30.612  19.716   0.987
34309W        W 2714   2.435  25.272  11.484
34310W        W 2715  43.211  18.704  14.066
34311W        W 2716  11.343  43.278  14.608
34312W        W 2717  39.018  16.636  12.876
34313W        W 2718  24.014  27.519  11.990
34314W        W 2719  27.545  26.116  10.590
34315W        W 2720  23.696  11.671  13.597
34316W        W 2721  30.089   6.021   0.883
34317W        W 2722   1.353  14.397   0.839
34318W        W 2723   1.686  41.063  12.128
34319W        W 2724  29.180  23.642  11.115
34320W        W 2725  36.541  31.532  13.726
34321W        W 2726  31.598   1.681  12.102
34322W        W 2727   2.344   1.670  10.554
34323W        W 2728  25.525  15.279   1.998
34324W        W 2729  32.676  27.632  12.960
34325W        W 2730  21.620   0.991  10.730
34326W        W 2731  21.271  29.916  10.826
34327W        W 2732  25.636  24.313  12.343
34328W        W 2733  38.011  24.191   2.323
34329W        W 2734  13.797  30.527  12.194
34330W        W 2735  41.782   7.901   2.825
34331W        W 2736  35.606  43.537   4.052
34332W        W 2737   2.091   6.621   3.135
34333W        W 2738  28.201  12.636   0.977
34334W        W 2739  17.774  41.286   3.761
34335W        W 2740  32.161  25.682   2.162
34336W        W 2741   3.348   0.749   1.397
34337W        W 2742   1.940  30.598  13.610
34338W        W 2743  25.910  24.061  14.847
34339W        W 2744  16.477  44.548   1.032
34340W        W 2745  32.464  19.013   1.680
34341W        W 2746   2.922  32.836  12.528
34342W        W 2747   5.728  22.397   3.244
34343W        W 2748  21.192  41.914   1.756
34344W        W 2749   2.214  41.620   2.258
34345W        W 2750  42.651  25.003   1.703
34346W        W 2751  11.726  38.864   3.676
34347W        W 2752   4.242  18.267  10.625
34348W        W 2753  19.540  25.206  11.185
34349W        W 2754  32.502  12.591  12.038
34350W        W 2755  42.929  18.762  11.296
34351W        W 2756  37.580   7.638   3.266
34352W        W 2757  20.503   7.154   0.341
34353W        W 2758  32.575  37.653   0.203
34354W        W 2759   8.249   2.292   1.243
34355W        W 2760  14.730  41.203   1.299
34356W        W 2761  18.320  39.028   3.534
34357W        W 2762  19.712  33.461   3.551
34358W        W 2763  35.844  43.456  14.761
34359W        W 2764   7.581  19.501   5.030
34360W        W 2765  21.094  11.520   4.978
34361W        W 2766  36.477  27.542  14.937
34362W        W 2767  18.359  26.123   1.276
34363W        W 2768   8.830  43.266   1.319
34364W        W 2769   7.941  35.073  12.913
34365W        W 2770  12.313  14.756  11.894
34366W        W 2771  18.590  42.169  12.479
34367W        W 2772   6.800   9.202  11.559
34368W        W 2773  15.095  17.371  11.600
34369W        W 2774  16.017   7.193  11.608
34370W        W 2775  41.519   0.743   1.801
34371W        W 2776  34.722  43.232  13.823
34372W        W 2777  43.870  26.115   4.949
34373W        W 2778  23.011   4.468   0.742
34374W        W 2779  44.676  43.834   4.437
34375W        W 2780   6.844  12.903   3.326
34376W        W 2781  31.676  43.943   0.554
34377W        W 2782  33.340  15.159   2.682
34378W        W 2783  20.197  25.582   0.446
34379W        W 2784   5.276   5.418   4.596
34380W        W 2785  20.310   6.961   3.928
34381W        W 2786   1.228  20.719  13.907
34382W        W 2787  42.512  20.595   0.817
34383W        W 2788  24.062  12.416   4.792
34384W        W 2789  33.541   5.089  10.766
34385W        W 2790  31.150  34.818   0.471
34386W        W 2791  42.947  19.507  10.648
34387W        W 2792   0.278  43.783   0.812
34388W        W 2793   2.842  39.158  10.721
34389W        W 2794  29.490  22.391  12.475
34390W        W 2795  17.307   8.388   3.622
34391W        W 2796  18.331   7.287  11.612
34392W        W 2797  27.307  16.111  11.110
34393W        W 2798   9.571  11.077  13.892
34394W        W 2799  35.675  34.507   3.210
34395W        W 2800  36.641  22.314  14.374
34396W        W 2801   4.712  20.126  14.464
34397W        W 2802  28.405  27.756   2.680
34398W        W 2803   6.468  33.296   3.992
34399W        W 2804  32.561  16.134   1.683
34400W        W 2805  20.335  43.897   0.775
34401W        W 2806  35.087  42.789  12.911
34402W        W 2807  36.763  27.720  11.882
34403W        W 2808  43.752  32.719   2.211
34404W        W 2809   8.657  38.597   1.391
34405W        W 2810  30.964   4.421   0.964
34406W        W 2811  25.844  17.762   0.297
34407W        W 2812  17.361  38.095  14.808
34408W        W 2813  21.608   6.642   1.814
34409W        W 2814  27.405   9.821   0.337
34410W        W 2815  30.513   3.879   1.297
34411W        W 2816  34.538  18.974  12.877
34412W        W 2817  13.874  22.132  12.454
34413W        W 2818   0.521  36.020  11.130
34414W        W 2819  39.890   5.914   1.243
34415W        W 2820  26.764  15.557  14.887
34416W        W 2821  13.226  44.512  14.495
34417W        W 2822  18.319   9.867  13.549
34418W        W 2823  22.099   3.174   3.755
34419W        W 2824  21.663  43.457  14.812
34420W        W 2825  32.782  34.321  14.944
34421W        W 2826  38.489  17.422  14.530
34422W        W 2827  33.647  16.599  11.313
34423W        W 2828   7.693  29.444  14.069
34424W        W 2829  39.565  22.764  13.876
34425W        W 2830  23.368  30.654   2.901
34426W        W 2831  24.714  44.564  10.818
34427W        W 2832  39.833  31.897  13.931
34428W        W 2833  10.132  21.568   4.358
34429W        W 2834  43.216  23.210   0.860
34430W        W 2835  11.890  25.261   3.490
34431W        W 2836  39.906   2.999  12.979
34432W        W 2837  42.496  20.613   3.931
34433W        W 2838  14.278  41.250  14.922
34434W        W 2839  13.841  37.336  14.919
34435W        W 2840  42.557  16.909  11.095
34436W        W 2841  17.186  15.975   1.397
34437W        W 2842  28.545  31.847   0.753
34438W        W 2843  44.401   5.238  14.449
34439W        W 2844  19.226   4.231  10.611
34440W        W 2845  14.239  24.550   0.249
34441W        W 2846  25.023  35.083   0.931
34442W        W 2847  29.559  21.211   2.424
34443W        W 2848  38.317  31.275   4.295
34444W        W 2849  37.444  37.647  12.478
34445W        W 2850  41.171   7.811   2.014
34446W        W 2851   2.791  18.221  10.425
34447W        W 2852  42.329  32.592   4.539
34448W        W 2853  10.287  37.019   0.885
34449W        W 2854  17.743  29.887  12.399
34450W        W 2855  23.129  18.160  10.726
34451W        W 2856  27.470  18.292  14.793
34452W        W 2857  32.048   0.507  11.695
34453W        W 2858  10.686  17.885  13.097
34454W        W 2859   1.474  29.986   4.051
34455W        W 2860  35.126  29.927   4.220
34456W        W 2861  31.214  24.279   1.003
34457W        W 2862  10.062  25.678  10.618
34458W        W 2863  43.235  32.377   0.680
34459W        W 2864  42.550  22.531  11.507
34460W        W 2865  17.510  26.934   2.204
34461W        W 2866  22.008  13.228   2.870
34462W        W 2867   0.497  13.628  11.001
34463W        W 2868  41.884  30.008   2.878
34464W        W 2869  42.697  44.103   3.769
34465W        W 2870  40.264  41.453   4.261
34466W        W 2871  19.289   0.740   3.297
34467W        W 2872  43.697  40.916   1.230
34468W        W 2873  23.098   8.132  14.857
34469W        W 2874  16.209   8.618  13.973
34470W        W 2875  22.577   8.238  12.838
34471W        W 2876  24.522  13.223  14.532
34472W        W 2877   6.223  31.161   3.148
34473W        W 2878  20.672   1.981  11.396
34474W        W 2879  27.780   3.627   4.562
34475W        W 2880  10.108  30.042   1.694
34476W        W 2881   7.313  37.994  13.313
34477W        W 2882   8.814  18.595  10.741
34478W        W 2883  43.278  14.115   3.615
34479W        W 2884  28.876  14.549   9.957
34480W        W 2885  33.121  17.025  13.413
34481W        W 2886   3.276  34.962   0.345
34482W        W 2887   4.578  24.493  10.956
34483W        W 2888  22.171  30.656  14.272
34484W        W 2889   2.858  21.702  12.415
34485W        W 2890  22.289  12.816  11.592
34486W        W 2891  16.158  23.754   0.409
34487W        W 2892  25.179  20.953   1.105
34488W        W 2893  29.321  40.515  12.364
34489W        W 2894  24.491  12.099   0.858
34490W        W 2895  26.963  44.970  13.129
34491W        W 2896  42.872  32.584   0.064
34492W        W 2897   1.234  43.130  13.984
34493W        W 2898  44.615  44.796  13.999
34494W        W 2899  21.543   6.814   4.572
34495W        W 2900   9.723  18.544  13.316
34496W        W 2901   5.414  40.350   0.020
34497W        W 2902  41.320   8.188   2.744
34498W        W 2903  10.111  12.474  12.968
34499W        W 2904  35.939   6.143  10.847
34500W        W 2905  27.421  24.727   0.519
34501W        W 2906  27.941  13.395  11.127
34502W        W 2907   7.138  33.308   4.926
34503W        W 2908  37.949  13.853   0.473
34504W        W 2909   1.774  17.814   3.349
34505W        W 2910  39.872  25.739  10.639
34506W        W 2911  32.348  40.886   1.325
34507W        W 2912   0.976  27.611  14.205
34508W        W 2913   4.515   1.851   1.769
34509W        W 2914  44.888  14.049  10.720
34510W        W 2915   2.150   8.468   2.774
34511W        W 2916  10.707  21.625  12.103
34512W        W 2917  10.934  18.747  12.901
34513W        W 2918  20.588   9.273   2.833
34514W        W 2919   8.427  35.862  14.986
34515W        W 2920  20.252  12.689   2.698
34516W        W 2921   9.097  24.217   2.663
34517W        W 2922   3.288   4.025   0.394
34518W        W 2923   0.862  40.369  10.777
34519W        W 2924  31.226  16.174  13.984
34520W        W 2925  39.922  32.818   0.887
34521W        W 2926  11.535  37.928  12.942
34522W        W 2927  19.736  43.298   2.799
34523W        W 2928  43.554  38.579  13.948
34524W        W 2929  30.465  28.162   0.759
34525W        W 2930   4.281   7.905  11.672
34526W        W 2931  14.638  41.582  11.645
34527W        W 2932  38.965  12.716  10.268
34528W        W 2933   4.250  12.521   0.829
34529W        W 2934  20.204  21.700  14.429
34530W        W 2935  16.488  25.068  10.703
34531W        W 2936   1.151  20.464  14.353
34532W        W 2937  20.256  31.563  11.636
34533W        W 2938  16.269  36.246  11.594
34534W        W 2939   2.198  25.004  11.103
34535W        W 2940  44.052  18.249  13.916
34536W        W 2941  25.643  19.257  14.306
34537W        W 2942  40.447  37.514  13.008
34538W        W 2943  40.574  26.968   2.241
34539W        W 2944  10.174   6.986   2.629
34540W        W 2945   3.461  30.363   0.466
34541W        W 2946  13.218  13.811  12.854
34542W        W 2947  30.157  18.848  14.499
34543W        W 2948   4.484  15.883  10.255
34544W        W 2949   9.884  30.621   1.684
34545W        W 2950  30.887  16.683   5.010
34546W        W 2951  11.191  41.324  12.950
34547W        W 2952   1.462  38.264   3.161
34548W        W 2953   3.661  28.127  12.869
34549W        W 2954  36.046  33.630   3.715
34550W        W 2955   1.947  31.567   3.319
34551W        W 2956  37.941   4.524   0.772
34552W        W 2957   7.856   4.285   1.354
34553W        W 2958   6.338  10.053  13.565
34554W        W 2959  15.892  44.253  14.108
34555W        W 2960  31.017  29.802  14.812
34556W        W 2961  13.803  30.051  13.057
34557W        W 2962  42.954  16.252   4.608
34558W        W 2963  15.851  27.535  14.400
34559W        W 2964  33.585  13.512   4.183
34560W        W 2965  13.091   2.431   1.301
34561W        W 2966  37.158  28.545  14.306
34562W        W 2967  41.321  36.991  12.930
34563W        W 2968   5.684   8.764   4.560
34564W        W 2969   3.848   8.557  11.075
34565W        W 2970  19.057  39.951  14.311
34566W        W 2971   7.910  34.707  11.546
34567W        W 2972  30.071  25.625   3.394
34568W        W 2973  43.330   2.769  13.927
34569W        W 2974  24.696  39.463  10.960
34570W        W 2975  40.577  14.228  12.611
34571W        W 2976  15.231  20.008  14.308
34572W        W 2977  41.532   0.467   3.130
34573W        W 2978  41.291  38.287  11.684
34574W        W 2979  32.459  43.525   4.692
34575W        W 2980  17.264  20.722   2.881
34576W        W 2981  15.645  34.767  10.665
34577W        W 2982  43.661  25.908  11.752
34578W        W 2983  40.904  20.242  10.735
34579W        W 2984  20.949  31.736  11.104
34580W        W 2985  36.319  44.408   5.037
34581W        W 2986  35.329   5.355  10.448
34582W        W 2987  10.264  43.338  13.516
34583W        W 2988   2.193  18.529  14.828
34584W        W 2989  19.757  27.906  11.158
34585W        W 2990  30.070   8.370   3.604
34586W        W 2991  26.274   9.803   3.294
34587W        W 2992  36.079  19.219  12.805
34588W        W 2993  13.237  40.645  11.977
34589W        W 2994  20.710  30.219   2.437
34590W        W 2995   6.429   8.385  12.917
34591W        W 2996  13.750  24.988  10.578
34592W        W 2997  10.735  16.583   0.478
34593W        W 2998  21.419  18.241   1.804
34594W        W 2999  26.796  25.233  12.414
34595W        W 3000  34.334  38.148   3.098
34596W        W 3001  33.108  31.168  10.588
34597W        W 3002  22.488  44.685   0.679
34598W        W 3003   1.833   1.977  14.350
34599W        W 3004   4.962  15.224   4.174
34600W        W 3005  42.393   8.837   0.974
34601W        W 3006  17.228  21.595   1.814
34602W        W 3007  33.943  42.149  12.012
34603W        W 3008  28.492  33.793   2.320
34604W        W 3009  41.320  33.911   0.780
34605W        W 3010  25.089  33.800   1.335
34606W        W 3011  36.559  15.819  12.154
34607W        W 3012  24.306   7.558   3.554
34608W        W 3013   0.826  39.484   1.587
34609W        W 3014  40.442  42.710   4.687
34610W        W 3015  12.188   4.396   2.182
34611W        W 3016  35.033  24.984   0.499
34612W        W 3017  10.451  36.094  13.524
34613W        W 3018  25.038  18.620  12.394
34614W        W 3019  44.767  21.794   2.162
34615W        W 3020  28.371  15.800   1.990
34616W        W 3021  19.519  28.031   4.185
34617W        W 3022  28.466  37.284  13.371
34618W        W 3023   0.995   2.104  12.091
34619W        W 3024   7.227   7.725   1.054
34620W        W 3025   8.146  28.580   2.854
34621W        W 3026   1.953  19.207   3.092
34622W        W 3027  30.407  17.040   2.802
34623W        W 3028  16.934  37.370  10.533
34624W        W 3029  41.743  26.983   3.407
34625W        W 3030  22.460   7.338   0.241
34626W        W 3031   0.238   6.421  13.950
34627W        W 3032  40.609  20.712   0.216
34628W        W 3033  10.382  35.079  14.414
34629W        W 3034  19.634  28.715   2.844
34630W        W 3035  23.079  32.788  14.589
34631W        W 3036  44.183  22.656   4.267
34632W        W 3037  26.522  35.937   1.299
34633W        W 3038  20.600  16.102  11.095
34634W        W 3039  32.484  25.471   1.796
34635W        W 3040   9.290  24.404   4.721
34636W        W 3041  34.815  13.325   3.128
34637W        W 3042  16.855  32.861  14.973
34638W        W 3043  19.132   5.289  13.040
34639W        W 3044  10.847  24.564   3.823
34640W        W 3045  36.783  42.170  11.053
34641W        W 3046   9.611  23.172  10.622
34642W        W 3047   9.716  11.152   2.603
34643W        W 3048  27.655  21.455  13.460
34644W        W 3049  13.328   9.224   3.191
34645W        W 3050  20.082   8.581  14.347
34646W        W 3051   5.181  37.941  14.553
34647W        W 3052  11.814  37.370   4.934
34648W        W 3053  42.424  25.977   2.393
34649W        W 3054   9.240  35.310  10.679
34650W        W 3055  16.778  20.762  11.081
34651W        W 3056  42.508  43.280  13.488
34652W        W 3057  29.700  25.865  14.905
34653W        W 3058  33.435  21.935  14.514
34654W        W 3059  31.043  20.599   0.304
34655W        W 3060  36.583  41.907  12.560
34656W        W 3061  36.948  29.560  12.515
34657W        W 3062  14.825  42.134   2.664
34658W        W 3063   6.005  23.688   4.214
34659W        W 3064  25.169   4.723   0.713
34660W        W 3065  22.063  33.101   4.917
34661W        W 3066  25.511  11.716   0.241
34662W        W 3067  14.418  27.412  13.405
34663W        W 3068  29.975  33.007  14.035
34664W        W 3069  12.225  33.243   3.504
34665W        W 3070  27.731  37.382  12.861
34666W        W 3071  31.178  29.507   9.928
34667W        W 3072  38.366  39.922  10.721
34668W        W 3073  25.993   3.242  10.624
34669W        W 3074  17.750  27.654  11.963
34670W        W 3075   9.376   8.418  11.879
34671W        W 3076   4.289  13.181   0.321
34672W        W 3077  24.295   3.963   4.657
34673W        W 3078  14.496  21.530  12.453
34674W        W 3079  32.022  36.691   4.092
34675W        W 3080  43.229  17.899  11.614
34676W        W 3081  26.840  25.402   0.544
34677W        W 3082  20.954  13.561   3.262
34678W        W 3083   9.416  21.520   1.813
34679W        W 3084  41.344  38.985   2.468
34680W        W 3085  32.561  12.569   1.941
34681W        W 3086  36.340  24.714   4.710
34682W        W 3087  43.095  19.815  12.530
34683W        W 3088  36.826   5.431  11.574
34684W        W 3089  14.353  15.884   2.923
34685W        W 3090  33.991  33.861   4.161
34686W        W 3091  40.718  33.789  13.043
34687W        W 3092  11.768  36.873   3.307
34688W        W 3093   6.997  24.076   4.613
34689W        W 3094   8.296  38.367  12.863
34690W        W 3095  27.691  39.929   0.073
34691W        W 3096  21.327  24.575   4.198
34692W        W 3097  35.578  25.526  14.920
34693W        W 3098  22.681  39.406   1.235
34694W        W 3099  26.302  25.452   2.802
34695W        W 3100   1.348  10.260  10.490
34696W        W 3101  24.942   5.854   3.313
34697W        W 3102  19.086  40.864  11.616
34698W        W 3103  13.338  31.546   4.337
34699W        W 3104  22.993   6.767   0.189
34700W        W 3105   3.288   3.942  11.148
34701W        W 3106   3.374  23.482  12.452
34702W        W 3107  39.378  13.161  13.433
34703W        W 3108   8.995  28.792   1.364
34704W        W 3109  12.689  32.882   4.289
34705W        W 3110  14.114  34.429   3.290
34706W        W 3111  28.568  40.802  11.533
34707W        W 3112  20.579  38.899   3.085
34708W        W 3113  20.197   4.035   1.097
34709W        W 3114  31.101   1.873  14.289
34710W        W 3115   9.863   3.285  11.992
34711W        W 3116  35.738  43.078  13.997
34712W        W 3117  29.612   4.034  11.725
34713W        W 3118  32.422   4.345   4.773
34714W        W 3119  28.822   6.925   0.235
34715W        W 3120  35.297  33.111   3.436
34716W        W 3121  33.841  11.687  10.665
34717W        W 3122  22.501  25.223   1.914
34718W        W 3123  26.630  24.052   0.415
34719W        W 3124  27.043  22.824   4.101
34720W        W 3125   6.218   2.663   0.730
34721W        W 3126  22.388  20.256  11.043
34722W        W 3127  18.705  34.398   1.935
34723W        W 3128  16.261  31.604  10.701
34724W        W 3129  43.468  44.364   3.355
34725W        W 3130  18.662   3.251  10.797
34726W        W 3131  19.778  24.689   0.770
34727W        W 3132  22.640   9.647  13.985
34728W        W 3133  13.731  33.840   3.647
34729W        W 3134  23.008   2.234   4.268
34730W        W 3135   8.439   7.273   0.412
34731W        W 3136  43.859  15.540  13.850
34732W        W 3137  14.211  16.148  12.563
34733W        W 3138  30.983  37.649  14.265
34734W        W 3139   1.900  27.625   3.116
34735W        W 3140  41.462  30.875  12.324
34736W        W 3141  24.032   8.179  14.763
34737W        W 3142  30.197  21.260  11.739
34738W        W 3143  43.912  17.395  13.702
34739W        W 3144  24.560  44.948  14.406
34740W        W 3145  17.611  13.207  12.969
34741W        W 3146   2.474   7.497  13.920
34742W        W 3147   7.837  30.476   2.330
34743W        W 3148  11.640  17.105  14.099
34744W        W 3149  28.655  32.760  11.905
34745W        W 3150  15.565  35.278  10.742
34746W        W 3151  16.149   0.733  10.255
34747W        W 3152  41.764   0.521   3.754
34748W        W 3153  10.179  40.809   0.793
34749W        W 3154  21.671  38.429   1.689
34750W        W 3155   4.256  15.043  13.372
34751W        W 3156  23.485  41.875  10.584
34752W        W 3157  29.664  14.818   1.721
34753W        W 3158   2.813  36.628   1.360
34754W        W 3159  36.369  22.688  11.725
34755W        W 3160  20.286  22.326   3.326
34756W        W 3161  22.089  18.213   4.569
34757W        W 3162  15.086  23.622  11.595
34758W        W 3163   0.200  24.813  12.619
34759W        W 3164  28.161  21.047   2.269
34760W        W 3165  37.859   8.622  12.354
34761W        W 3166   7.970  35.230   3.767
34762W        W 3167  24.130  21.883   3.933
34763W        W 3168  43.990  26.213   4.470
34764W        W 3169  31.996  34.856   0.866
34765W        W 3170   2.805   8.258  14.287
34766W        W 3171   8.985  30.946   0.583
34767W        W 3172   6.160  18.192  14.316
34768W        W 3173  38.448  42.626  13.680
34769W        W 3174  43.355   0.205   3.886
34770W        W 3175  20.064  39.248  11.501
34771W        W 3176  16.459  39.824   4.323
34772W        W 3177  26.280  15.498   3.823
34773W        W 3178  14.686  19.685  11.080
34774W        W 3179  23.662  44.111  11.616
34775W        W 3180   8.184   0.045   1.448
34776W        W 3181  44.013   2.851  11.551
34777W        W 3182  13.263  31.843  11.070
34778W        W 3183  23.032  25.583  12.661
34779W        W 3184   7.080   7.829   2.847
34780W        W 3185  44.853  24.691   4.587
34781W        W 3186   8.203  37.383  11.917
34782W        W 3187  39.845  24.640  13.962
34783W        W 3188  18.979  41.257  14.395
34784W        W 3189   8.919  40.993  13.479
34785W        W 3190   0.346  37.530  11.187
34786W        W 3191   6.754  15.033  11.510
34787W        W 3192  30.093  24.909   0.631
34788W        W 3193  36.386  43.887   2.923
34789W        W 3194  19.159  30.417   4.134
34790W        W 3195  41.768  12.324   1.848
34791W        W 3196  40.863  19.033  13.783
34792W        W 3197  20.217  12.719  12.614
34793W        W 3198   8.078  36.921  14.384
34794W        W 3199  15.710  40.713  10.983
34795W        W 3200  31.031  17.008  10.609
34796W        W 3201  44.353  39.935   3.150
34797W        W 3202  27.018  41.268   3.280
34798W        W 3203  24.566  40.525  14.533
34799W        W 3204   1.260  36.368  13.251
34800W        W 3205  31.465  33.900   3.084
34801W        W 3206  21.541  16.318  12.026
34802W        W 3207   2.372  23.071  11.188
34803W        W 3208  22.724  24.515   0.881
34804W        W 3209  34.618  39.247  13.936
34805W        W 3210  43.721  16.010  13.555
34806W        W 3211  12.821  11.359  11.381
34807W        W 3212  16.547   5.862   0.338
34808W        W 3213   8.483   6.815  13.759
34809W        W 3214   6.800  30.398  12.629
34810W        W 3215  41.354  15.774  14.759
34811W        W 3216   8.338  17.967  10.344
34812W        W 3217  23.982   3.806   3.669
34813W        W 3218  40.970  42.802  11.269
34814W        W 3219  40.096  42.008   0.966
34815W        W 3220  15.587  35.477   9.947
34816W        W 3221  10.905  41.383  12.113
34817W        W 3222  18.017  21.525   1.419
34818W        W 3223   2.961  43.808  11.189
34819W        W 3224  19.285  15.363   1.921
34820W        W 3225   0.869  44.421   4.665
34821W        W 3226   3.923  29.492  14.013
34822W        W 3227  27.684  32.071  10.510
34823W        W 3228  19.059  18.313  12.459
34824W        W 3229   0.819  23.646   1.978
34825W        W 3230  28.558  36.905   3.854
34826W        W 3231  20.364  12.885  11.651
34827W        W 3232  15.560   4.483  11.170
34828W        W 3233  38.777   3.008   2.199
34829W        W 3234  20.224  30.413   4.175
34830W        W 3235   3.951  40.953   2.672
34831W        W 3236  29.382   1.752  10.286
34832W        W 3237  38.872  42.184   2.812
34833W        W 3238  32.872  38.480   3.872
34834W        W 3239  11.201  35.881  12.646
34835W        W 3240  28.696  10.598   1.803
34836W        W 3241  29.475   1.408   2.315
34837W        W 3242  20.643  22.402  10.043
34838W        W 3243   3.851  39.838  11.746
34839W        W 3244  25.280   6.603  12.789
34840W        W 3245  11.455  32.506   3.296
34841W        W 3246   7.233  20.853  13.890
34842W        W 3247  24.998   0.404   1.093
34843W        W 3248   7.817  21.062   1.261
34844W        W 3249   4.541  44.396   3.488
34845W        W 3250  13.257  34.000  13.782
34846W        W 3251  20.588   8.460   5.049
34847W        W 3252  31.854  22.938   0.167
34848W        W 3253  18.239  37.489  14.510
34849W        W 3254  35.442  25.093  13.002
34850W        W 3255   5.675  19.690  13.839
34851W        W 3256  10.421  20.071   0.551
34852W        W 3257  33.893  17.072   1.307
34853W        W 3258   1.595  19.118   2.156
34854W        W 3259  44.890   5.274  11.934
34855W        W 3260  18.691  18.602   4.093
34856W        W 3261   2.089  23.165   3.670
34857W        W 3262  26.944  44.045  12.083
34858W        W 3263  20.230  23.383   3.917
34859W        W 3264  29.044  43.444  10.213
34860W        W 3265  30.943  11.097  11.170
34861W        W 3266   8.833  44.900   1.715
34862W        W 3267  37.148  17.877  13.536
34863W        W 3268   7.839  33.452   1.424
34864W        W 3269  19.667  26.485   3.410
34865W        W 3270  24.590  33.368   3.282
34866W        W 3271  20.615  37.392   4.874
34867W        W 3272  28.498  28.724  12.169
34868W        W 3273   8.463  27.858   9.817
34869W        W 3274  13.288   1.676   2.717
34870W        W 3275  42.548  33.324  13.589
34871W        W 3276  23.976   7.697  11.553
34872W        W 3277   1.063  21.690   2.786
34873W        W 3278  28.051   8.801  12.419
34874W        W 3279  11.602  18.736   2.032
34875W        W 3280  18.758  43.959   0.992
34876W        W 3281  36.889  32.949   1.431
34877W        W 3282  16.639   4.312  12.964
34878W        W 3283   8.757  21.391   4.564
34879W        W 3284  15.229  42.765  14.871
34880W        W 3285  16.173  28.565  11.131
34881W        W 3286   4.879   3.325  13.921
34882W        W 3287   0.497  29.955   3.305
34883W        W 3288  35.514  33.321  12.166
34884W        W 3289  10.743  18.383   2.931
34885W        W 3290  43.431  31.401   2.226
34886W        W 3291  18.592  12.799  12.215
34887W        W 3292  27.030  10.173   3.665
34888W        W 3293  40.426  21.080   1.886
34889W        W 3294   5.626  44.694  12.998
34890W        W 3295   8.930   9.147  14.748
34891W        W 3296  28.293  20.515   0.859
34892W        W 3297  18.820  40.609   3.667
34893W        W 3298  36.311   1.262  13.736
34894W        W 3299  40.715  19.330  11.557
34895W        W 3300  44.929   6.446   0.349
34896W        W 3301  16.050  27.680  13.898
34897W        W 3302  13.565  41.071  14.613
34898W        W 3303  18.340  34.532   3.944
34899W        W 3304  13.713  29.049   2.454
34900W        W 3305   1.125  20.106  13.621
34901W        W 3306   0.603  31.689  11.130
34902W        W 3307  28.401  38.864   1.754
34903W        W 3308  37.446   7.476   0.905
34904W        W 3309  31.873  32.602  10.806
34905W        W 3310  21.700  11.037   4.609
34906W        W 3311   7.219  31.753   0.341
34907W        W 3312  28.148  32.131  10.753
34908W        W 3313  29.958  36.670  14.011
34909W        W 3314  43.776  17.973   2.352
34910W        W 3315  36.644  38.848   4.652
34911W        W 3316  28.020  27.697  10.244
34912W        W 3317   4.259   0.383  10.709
34913W        W 3318  33.109  38.143  13.386
34914W        W 3319  25.946   7.843   0.897
34915W        W 3320  26.205  36.533  12.179
34916W        W 3321  34.321  39.702   4.633
34917W        W 3322   9.529  19.615  14.889
34918W        W 3323   6.440   8.739  12.515
34919W        W 3324  28.255   5.982  13.843
34920W        W 3325   6.307  24.426   1.040
34921W        W 3326   8.886   6.528   4.094
34922W        W 3327  20.973  27.909   4.155
34923W        W 3328   9.154  20.607   3.295
34924W        W 3329  31.071   0.506   0.113
34925W        W 3330  26.092  16.602  10.535
34926W        W 3331   0.941   0.847   1.715
34927W        W 3332   6.343  12.671   4.629
34928W        W 3333  43.670   6.701  14.975
34929W        W 3334  12.044  39.506   3.207
34930W        W 3335   3.445  25.610   4.343
34931W        W 3336   3.773  22.597  12.204
34932W        W 3337  27.315   0.542  12.354
34933W        W 3338  26.750  32.954   2.771
34934W        W 3339  42.072  15.686  14.341
34935W        W 3340  26.615  16.622   4.141
34936W        W 3341  30.480  25.175   0.410
34937W        W 3342  18.369  24.073   4.434
34938W        W 3343  11.339  32.110  11.989
34939W        W 3344  22.504  30.022   4.510
34940W        W 3345  15.796  13.881   1.370
34941W        W 3346  12.799  17.163  10.589
34942W        W 3347  32.991  16.805   0.546
34943W        W 3348   3.414  40.495  13.306
34944W        W 3349   1.013  42.591   4.677
34945W        W 3350  24.471  36.544   4.526
34946W        W 3351  37.607  16.301   1.878
34947W        W 3352   6.962  12.730  14.383
34948W        W 3353  32.431  10.918  10.956
34949W        W 3354  16.111  33.069  11.078
34950W        W 3355  42.183  40.338  13.430
34951W        W 3356  12.621  23.234   4.123
34952W        W 3357  15.604  43.020  13.267
34953W        W 3358  34.450  24.257   0.748
34954W        W 3359  43.473  35.827  14.565
34955W        W 3360  13.231   0.306  13.614
34956W        W 3361   8.774  39.427  11.506
34957W        W 3362  28.210  13.246   4.617
34958W        W 3363  21.426  16.259   3.224
34959W        W 3364  24.215  34.381  14.568
34960W        W 3365   9.084  33.658  14.963
34961W        W 3366  24.025   4.851   4.486
34962W        W 3367  23.251  32.978   3.884
34963W        W 3368   7.484  20.783  12.450
34964W        W 3369  14.776  25.462   2.245
34965W        W 3370  14.395  41.196  11.232
34966W        W 3371   1.392  17.526   1.122
34967W        W 3372   9.601  26.785  14.023
34968W        W 3373  37.974   0.235   0.851
34969W        W 3374  30.421  22.228   4.269
34970W        W 3375  41.809  38.231   2.401
34971W        W 3376  24.888  41.278   3.177
34972W        W 3377  26.111  34.029  14.405
34973W        W 3378  41.499  12.735  12.114
34974W        W 3379   2.583   5.386  10.146
34975W        W 3380  19.618  27.701   0.488
34976W        W 3381   7.989  32.240  10.455
34977W        W 3382   5.036   0.768  12.663
34978W        W 3383  39.404  38.731  12.148
34979W        W 3384  20.537  32.513  12.902
34980W        W 3385  35.808  32.718   1.859
34981W        W 3386  23.361   7.166   4.459
34982W        W 3387  35.464  32.930  14.261
34983W        W 3388  24.736  19.440   0.758
34984W        W 3389  10.597  42.430   0.388
34985W        W 3390  44.328  31.864  13.503
34986W        W 3391  42.396  30.446  10.994
34987W        W 3392   4.611  37.971  11.489
34988W        W 3393  12.359  18.169   2.134
34989W        W 3394  29.945  18.857   4.411
34990W        W 3395  31.844  36.110  14.921
34991W        W 3396  21.044  11.742  14.439
34992W        W 3397  31.138  38.549   0.587
34993W        W 3398  37.586  42.435   2.237
34994W        W 3399  41.009  12.011  11.902
34995W        W 3400  25.133  32.367  14.798
34996W        W 3401  34.698  30.888  11.878
34997W        W 3402  13.770  18.066  13.344
34998W        W 3403  16.060  32.625  12.444
34999W        W 3404  43.964  31.998  14.443
35000W        W 3405  38.646  19.305  10.853
35001W        W 3406  27.237  19.438   0.826
35002W        W 3407  14.357   7.978   4.993
35003W        W 3408  24.169  30.554   0.272
35004W        W 3409   9.856   2.239  14.303
35005W        W 3410  44.965  44.122   0.568
35006W        W 3411  27.295   5.729  13.952
35007W        W 3412   5.455   5.744   4.981
35008W        W 3413  44.810  37.456  12.508
35009W        W 3414   0.357  39.937   2.222
35010W        W 3415  14.600  31.915   4.701
35011W        W 3416  14.650  26.025   0.654
35012W        W 3417  43.525  25.668   3.355
35013W        W 3418  36.393  26.631  12.362
35014W        W 3419  41.410  24.067   3.550
35015W        W 3420   4.045  26.285   4.187
35016W        W 3421  33.317   2.300   1.510
35017W        W 3422   0.226   6.491   9.842
35018W        W 3423  35.480  18.996  12.933
35019W        W 3424  16.544   0.608   0.967
35020W        W 3425  18.097   3.916  12.987
35021W        W 3426  23.278  21.024   5.414
35022W        W 3427   0.948  41.091  14.337
35023W        W 3428  27.868  11.179  11.521
35024W        W 3429   9.153  42.269   1.846
35025W        W 3430  38.295  26.201  13.328
35026W        W 3431   6.413  31.186  12.105
35027W        W 3432  12.145   2.698   4.679
35028W        W 3433   6.107  35.993   2.845
35029W        W 3434  33.242  29.530   4.045
35030W        W 3435  15.798   6.907  13.100
35031W        W 3436  21.617  31.432   3.600
35032W        W 3437  37.925  13.396   3.729
35033W        W 3438  25.154  11.634   1.211
35034W        W 3439  30.079  44.271  13.580
35035W        W 3440  26.538  19.514   4.295
35036W        W 3441  30.111   2.881   1.852
35037W        W 3442  21.983  17.232  14.496
35038W        W 3443  24.945  25.298  10.669
35039W        W 3444   1.697  13.354  14.423
35040W        W 3445  22.757   4.496   4.881
35041W        W 3446  34.942  41.962   3.083
35042W        W 3447  10.612  38.384   4.640
35043W        W 3448  16.346   4.223  14.848
35044W        W 3449  14.759  36.052   4.284
35045W        W 3450  17.861   4.845   2.171
35046W        W 3451  40.376  21.455   4.629
35047W        W 3452  36.019  40.308  14.417
35048W        W 3453  30.944  10.246   1.863
35049W        W 3454  39.372  44.773   2.321
35050W        W 3455   0.951  15.008  14.815
35051W        W 3456  28.703  12.527   4.508
35052W        W 3457  20.833  29.065  14.242
35053W        W 3458  36.477  12.103  12.920
35054W        W 3459  16.014  16.665  14.824
35055W        W 3460  35.660   1.841  11.593
35056W        W 3461   0.293  36.892  14.283
35057W        W 3462  16.335  43.840   2.956
35058W        W 3463  28.853   8.740  11.463
35059W        W 3464  37.860  12.406   0.956
35060W        W 3465  44.448  18.986   3.271
35061W        W 3466  13.200   2.219  14.287
35062W        W 3467  43.980  30.104   0.957
35063W        W 3468  16.530  35.024   2.225
35064W        W 3469  26.718  30.415   1.878
35065W        W 3470  27.004  24.677  14.966
35066W        W 3471  12.469   0.403  12.071
35067W        W 3472   3.858   5.914   0.570
35068W        W 3473  13.561  10.629   4.124
35069W        W 3474  42.922  36.694   2.885
35070W        W 3475  25.101  35.023   3.168
35071W        W 3476   2.375  11.964   3.685
35072W        W 3477  30.077  13.483   0.015
35073W        W 3478   9.735  22.277   4.153
35074W        W 3479  35.466  20.038   2.363
35075W        W 3480  40.353  23.820  12.360
35076W        W 3481  44.521  27.662  14.184
35077W        W 3482   3.458  16.165  14.037
35078W        W 3483  31.510   6.706  11.353
35079W        W 3484   1.832   2.454   4.863
35080W        W 3485  20.785   9.154   1.829
35081W        W 3486  21.031  39.666   1.704
35082W        W 3487   9.384   5.790  10.409
35083W        W 3488  36.360  20.790   3.196
35084W        W 3489   9.148  27.630  13.087
35085W        W 3490  37.790  24.006   3.233
35086W        W 3491  14.109  14.264   3.713
35087W        W 3492  33.567  36.603   5.065
35088W        W 3493  18.543  18.749   5.098
35089W        W 3494   4.426  34.073  11.954
35090W        W 3495  11.596   6.671  12.849
35091W        W 3496  19.979   1.865   2.676
35092W        W 3497  27.598  29.901   1.832
35093W        W 3498   7.096   1.989  12.955
35094W        W 3499  21.991  27.078   4.778
35095W        W 3500   9.783  43.889  12.388
35096W        W 3501   5.765   3.929  11.869
35097W        W 3502  16.659  29.568   3.345
35098W        W 3503  30.882  27.409  14.335
35099W        W 3504  36.364  17.598   3.306
35100W        W 3505  37.309  27.885   2.435
35101W        W 3506  39.462  19.491   5.087
35102W        W 3507  18.724  16.029   0.965
35103W        W 3508  18.283  10.886  10.277
35104W        W 3509   3.029  44.960  13.768
35105W        W 3510  21.231  36.901   1.451
35106W        W 3511   2.704  31.503   1.695
35107W        W 3512  13.332  44.294   2.253
35108W        W 3513  34.153   5.709  13.296
35109W        W 3514   2.941  16.361   4.173
35110W        W 3515  20.556   3.757  10.466
35111W        W 3516  22.647   4.464   0.372
35112W        W 3517  17.880   2.945   3.108
35113W        W 3518  24.521  20.160  12.441
35114W        W 3519  37.828   0.358  11.112
35115W        W 3520  38.212  33.865   0.481
35116W        W 3521  42.534  35.945  14.051
35117W        W 3522   6.136  42.472  13.404
35118W        W 3523  20.370  11.809  13.497
35119W        W 3524   3.686  31.154   3.388
35120W        W 3525  14.204  29.461   0.963
35121W        W 3526   8.926  25.028   1.219
35122W        W 3527  10.627  30.746   1.360
35123W        W 3528  20.689  17.133  12.669
35124W        W 3529  43.452  42.929   2.421
35125W        W 3530  24.794  16.094  12.966
35126W        W 3531  24.583  44.673  13.450
35127W        W 3532   8.267  41.291   3.642
35128W        W 3533   0.520  30.664  11.228
35129W        W 3534  30.523  37.731   1.453
35130W        W 3535  36.337  24.110   3.453
35131W        W 3536   9.558  27.064  12.016
35132W        W 3537  19.011  25.553   5.238
35133W        W 3538  11.826   6.680  14.817
35134W        W 3539  43.758  11.299   3.701
35135W        W 3540  13.791  23.346   4.573
35136W        W 3541  27.549  19.439   3.250
35137W        W 3542  15.421   5.198   1.290
35138W        W 3543  12.611   9.959  11.204
35139W        W 3544   7.562  35.216  14.368
35140W        W 3545  22.909   3.131  12.124
35141W        W 3546  35.232  29.696   3.766
35142W        W 3547  12.654  14.191  14.016
35143W        W 3548  15.800  39.049  11.972
35144W        W 3549  12.866  34.539  13.871
35145W        W 3550  33.706   2.921   3.876
35146W        W 3551   1.828  42.753   2.771
35147W        W 3552   5.269  36.160  11.703
35148W        W 3553   7.967  12.057  11.026
35149W        W 3554  40.745  41.448  13.534
35150W        W 3555   4.879  26.383  11.213
35151W        W 3556   2.784  18.271   0.843
35152W        W 3557   6.285  29.489  14.897
35153W        W 3558   2.181  39.108   3.096
35154W        W 3559  37.157  30.105  13.539
35155W        W 3560  31.044  29.669   2.865
35156W        W 3561   9.698   1.329  11.188
35157W        W 3562  44.774   2.262  10.733
35158W        W 3563  22.560   6.999   1.570
35159W        W 3564  32.619  35.155  13.970
35160W        W 3565  44.862  37.836   4.408
35161W        W 3566  17.977   2.837  12.653
35162W        W 3567  36.831  25.996   3.607
35163W        W 3568   3.503   0.173   0.766
35164W        W 3569  23.155  29.716  11.933
35165W        W 3570  26.197  26.029   0.453
35166W        W 3571  44.891  33.308  14.974
35167W        W 3572  14.335   4.937  14.299
35168W        W 3573  29.090  15.057   3.636
35169W        W 3574  33.401   4.301   0.073
35170W        W 3575  23.235  29.402   1.956
35171W        W 3576   5.871  26.454   4.965
35172W        W 3577   7.591  44.270   2.585
35173W        W 3578  24.538  18.659  14.686
35174W        W 3579  22.446  34.828   2.907
35175W        W 3580  41.341   3.771  12.185
35176W        W 3581  33.504   5.028  12.443
35177W        W 3582  28.448   3.674   3.744
35178W        W 3583  43.981   9.203  13.407
35179W        W 3584  38.379   0.213  14.840
35180W        W 3585  27.594  36.305  14.275
35181W        W 3586   3.408  33.925   0.207
35182W        W 3587  36.115  35.006   0.376
35183W        W 3588  16.191  31.623  10.187
35184W        W 3589  34.107   4.622   3.796
35185W        W 3590   9.254  33.459  13.434
35186W        W 3591  28.103  11.393  11.141
35187W        W 3592   8.930  41.331  11.527
35188W        W 3593  24.980  34.995  13.822
35189W        W 3594  16.426  42.535   3.204
35190W        W 3595  42.873  33.959   1.815
35191W        W 3596  39.460  10.970  10.541
35192W        W 3597  10.401  19.622   3.548
35193W        W 3598   8.152  41.751   3.886
35194W        W 3599   2.934  40.373   4.126
35195W        W 3600  27.609  28.717  12.532
35196W        W 3601  33.487   9.461  12.764
35197W        W 3602  34.976  33.151  13.438
35198W        W 3603  28.559  17.799  11.655
35199W        W 3604   4.876  11.256   3.793
35200W        W 3605   2.488  33.590  14.643
35201W        W 3606   6.495  21.341   0.257
35202W        W 3607  13.684   5.792  11.999
35203W        W 3608  36.026  29.376   0.784
35204W        W 3609  28.672   5.873  12.999
35205W        W 3610  39.142  23.854  13.514
35206W        W 3611  21.615  32.622   4.172
35207W        W 3612   3.358  39.795  12.454
35208W        W 3613   3.436   7.795   1.907
35209W        W 3614  43.078  15.702   3.321
35210W        W 3615   9.310  13.821   2.967
35211W        W 3616  43.337  15.515  12.945
35212W        W 3617  29.982  43.959  11.985
35213W        W 3618   3.801   2.841   0.216
35214W        W 3619  25.517   3.723   3.385
35215W        W 3620   5.445   8.352   2.100
35216W        W 3621  28.555  12.274  11.530
35217W        W 3622   8.136  26.303  14.011
35218W        W 3623   4.913   6.270   4.685
35219W        W 3624  32.704  20.675  13.992
35220W        W 3625  11.863  30.301   4.993
35221W        W 3626  35.352  11.790   2.713
35222W        W 3627  27.891  23.414   4.240
35223W        W 3628   2.680   2.215  14.324
35224W        W 3629  36.322  19.342   1.803
35225W        W 3630  28.091  33.222   1.648
35226W        W 3631  20.737  44.425   1.888
35227W        W 3632   4.724  21.931  13.380
35228W        W 3633  23.831  25.858  14.421
35229W        W 3634   0.569   2.862   4.073
35230W        W 3635  37.373  30.904   4.121
35231W        W 3636  32.583  12.670  11.005
35232W        W 3637  26.997  25.106   3.407
35233W        W 3638  38.254  24.657  11.931
35234W        W 3639   9.200   8.899  11.716
35235W        W 3640  22.671   4.640   1.763
35236W        W 3641  30.543  18.135   1.281
35237W        W 3642  34.829  16.147  12.612
35238W        W 3643  27.483  41.356  12.600
35239W        W 3644   7.226  14.604   1.351
35240W        W 3645   2.090  24.137  13.982
35241W        W 3646   4.196  33.707  10.949
35242W        W 3647  29.196  34.035  14.002
35243W        W 3648  28.557  41.611  12.630
35244W        W 3649  26.007  14.313  14.698
35245W        W 3650  12.012   2.249   4.904
35246W        W 3651   8.948  32.635  11.468
35247W        W 3652  14.709   4.426  11.240
35248W        W 3653  11.068   5.825   3.690
35249W        W 3654  34.782  23.187  12.880
35250W        W 3655  41.300  11.363   0.307
35251W        W 3656  34.028  37.518   1.718
35252W        W 3657  43.490  10.452   1.384
35253W        W 3658  39.953  12.700  11.407
35254W        W 3659   2.899  12.862  11.667
35255W        W 3660   1.963   2.865  14.495
35256W        W 3661  25.889  37.540   4.031
35257W        W 3662  37.946  32.025   1.940
35258W        W 3663  32.983  32.669   0.378
35259W        W 3664  29.425  31.894   0.938
35260W        W 3665   0.796  43.879  14.927
35261W        W 3666  23.135  40.909   4.145
35262W        W 3667   8.487  20.139   1.205
35263W        W 3668  44.831  15.704   4.107
35264W        W 3669  30.900  17.139   4.102
35265W        W 3670  26.726  11.594   1.930
35266W        W 3671  23.222   0.035   2.728
35267W        W 3672  37.257  38.574  10.794
35268W        W 3673  19.499  13.839  13.743
35269W        W 3674  34.725   0.050  14.405
35270W        W 3675  14.449   8.604   1.860
35271W        W 3676  24.717  16.759   4.688
35272W        W 3677  27.695  29.306  14.310
35273W        W 3678  40.553  11.262   4.301
35274W        W 3679  32.157  42.038  10.678
35275W        W 3680   8.307  34.409   4.605
35276W        W 3681   6.957  33.824  11.175
35277W        W 3682  43.223  38.064  11.762
35278W        W 3683   8.933  33.141   0.850
35279W        W 3684  39.069  10.561  11.116
35280W        W 3685  25.600  17.338   2.181
35281W        W 3686  20.662  10.219   2.972
35282W        W 3687   1.231  40.179  10.453
35283W        W 3688  38.705  27.515  12.154
35284W        W 3689  16.149  29.086  10.992
35285W        W 3690  28.495  36.484   2.581
35286W        W 3691  41.466  10.923  11.402
35287W        W 3692  13.421  11.609   3.210
35288W        W 3693  21.797  16.175  14.812
35289W        W 3694  35.503  29.484  14.776
35290W        W 3695   7.121  43.577  12.528
35291W        W 3696  38.112  34.754   0.446
35292W        W 3697   3.761  38.860  10.782
35293W        W 3698  42.879  44.508   1.454
35294W        W 3699  21.096  44.794   2.889
35295W        W 3700   7.381  22.483  11.337
35296W        W 3701  38.401   7.937  11.950
35297W        W 3702  40.376  42.507  12.375
35298W        W 3703  28.508  16.283   1.257
35299W        W 3704  29.490  13.110  12.448
35300W        W 3705  17.804  31.524   2.355
35301W        W 3706  17.318  22.001   4.080
35302W        W 3707  14.918  17.887  14.692
35303W        W 3708   8.139  22.514  14.370
35304W        W 3709   1.963  29.591  11.780
35305W        W 3710  29.753  28.960   0.855
35306W        W 3711  41.855  15.595  13.856
35307W        W 3712  29.579  32.139  12.654
35308W        W 3713  20.582  17.761  13.921
35309W        W 3714  10.940  38.912   4.222
35310W        W 3715   0.041  29.025   3.200
35311W        W 3716   9.231  20.279   2.834
35312W        W 3717  32.096  40.955  14.084
35313W        W 3718  17.960  10.615   5.546
35314W        W 3719  41.770  33.623   1.843
35315W        W 3720  16.666  19.598   0.675
35316W        W 3721   7.149  22.332   4.581
35317W        W 3722   1.840   6.416   2.248
35318W        W 3723  38.653  29.441   0.799
35319W        W 3724  23.769  16.606  13.564
35320W        W 3725  31.384   9.600  12.866
35321W        W 3726  32.215  39.147   1.894
35322W        W 3727  24.261  31.935  12.077
35323W        W 3728  25.653   6.127   3.221
35324W        W 3729   4.166   7.826   3.265
35325W        W 3730  29.636  10.758  14.057
35326W        W 3731  44.449  28.101  12.372
35327W        W 3732  10.691  38.524  13.014
35328W        W 3733  23.548  17.573  11.437
35329W        W 3734  39.924  33.602   2.360
35330W        W 3735  22.273  19.102  11.462
35331W        W 3736  39.065  14.675   1.327
35332W        W 3737  42.852   9.656  12.862
35333W        W 3738  14.726  24.546   3.533
35334W        W 3739  31.399  17.592   5.048
35335W        W 3740   8.579  33.957   4.612
35336W        W 3741  42.017  36.678  14.417
35337W        W 3742  12.253  24.911  10.775
35338W        W 3743   2.780  31.570   3.957
35339W        W 3744  10.328  16.327   3.089
35340W        W 3745  15.749   6.188   4.720
35341W        W 3746  40.264  11.524  10.684
35342W        W 3747  32.154  25.626  11.148
35343W        W 3748   3.880  20.703   1.422
35344W        W 3749  16.123  16.310   2.689
35345W        W 3750  22.902  44.854  13.792
35346W        W 3751  36.265  39.240  11.634
35347W        W 3752   4.715  30.025   4.131
35348W        W 3753  37.970  12.071  13.082
35349W        W 3754  16.506  43.511   3.329
35350W        W 3755   7.355   2.606  12.269
35351W        W 3756  14.043   1.003   0.696
35352W        W 3757  35.509  15.533   3.164
35353W        W 3758   0.329  21.488   3.176
35354W        W 3759  14.974   4.203   2.823
35355W        W 3760  34.130   3.479   0.042
35356W        W 3761  41.007   1.752  10.197
35357W        W 3762   1.776  37.396  12.969
35358W        W 3763   5.121  40.611  12.004
35359W        W 3764  38.194  19.226  14.328
35360W        W 3765   3.762  40.261  11.447
35361W        W 3766  21.145  32.274   0.249
35362W        W 3767  35.132  26.499  13.960
35363W        W 3768  22.784  39.842   2.770
35364W        W 3769  13.554  44.243  11.535
35365W        W 3770   3.447  43.467   3.829
35366W        W 3771   9.442   9.133   3.458
35367W        W 3772  22.312  16.094  12.855
35368W        W 3773  19.214  14.883  14.398
35369W        W 3774  25.379  41.871  11.775
35370W        W 3775  26.460  32.458   2.806
35371W        W 3776  31.127  29.820   1.936
35372W        W 3777   3.540  44.183   2.166
35373W        W 3778  14.294  34.552   4.630
35374W        W 3779  11.052  24.541  11.553
35375W        W 3780  38.216  23.345   2.153
35376W        W 3781  32.420  28.057  12.151
35377W        W 3782  36.320  43.967  13.746
35378W        W 3783   5.306  28.169   2.855
35379W        W 3784  33.142  39.378  14.449
35380W        W 3785  15.156  33.609   0.852
35381W        W 3786  29.683  38.982   2.812
35382W        W 3787  13.529  42.105   1.878
35383W        W 3788   2.893  36.434  14.367
35384W        W 3789  36.348  32.981  12.175
35385W        W 3790  42.261  37.802   1.671
35386W        W 3791  37.293  23.740   1.717
35387W        W 3792  42.762  10.244  14.784
35388W        W 3793  30.143  34.343  11.127
35389W        W 3794  24.213  33.401   0.366
35390W        W 3795  16.046  35.031   0.840
35391W        W 3796   3.923  32.140   0.225
35392W        W 3797  13.213  20.796  11.867
35393W        W 3798   2.644  43.129   2.358
35394W        W 3799  16.509  10.265  14.314
35395W        W 3800  14.961   0.466   2.229
35396W        W 3801   8.384  36.206   4.234
35397W        W 3802  21.548  10.434  14.350
35398W        W 3803   8.767   0.307  12.761
35399W        W 3804   2.519  25.026  11.922
35400W        W 3805  17.082  36.012  10.598
35401W        W 3806   2.800   7.319   4.225
35402W        W 3807  40.449   1.426  13.425
35403W        W 3808  19.549  37.828   3.257
35404W        W 3809  43.521   6.114   0.416
35405W        W 3810  39.482   4.017   1.975
35406W        W 3811  40.804  43.057  10.816
35407W        W 3812   8.281   3.267   0.743
35408W        W 3813  33.593  30.371   3.230
35409W        W 3814   3.181   8.763   0.037
35410W        W 3815  10.174  27.634   3.707
35411W        W 3816  40.282  35.552   1.303
35412W        W 3817   5.340   6.142  14.367
35413W        W 3818  33.837  18.110   0.311
35414W        W 3819  35.432   5.240   3.569
35415W        W 3820   4.628  17.225   2.799
35416W        W 3821   3.376  14.225  12.522
35417W        W 3822  10.104   9.808  10.727
35418W        W 3823  41.851   7.000   1.012
35419W        W 3824  40.416   5.822   1.961
35420W        W 3825   5.134   6.309  11.966
35421W        W 3826  17.549  15.706  13.464
35422W        W 3827  40.720   2.225  10.945
35423W        W 3828   4.700  16.824  10.311
35424W        W 3829  27.748  18.153   2.997
35425W        W 3830  14.119  43.953   1.965
35426W        W 3831   3.001  20.066   3.223
35427W        W 3832  24.693  39.410  13.526
35428W        W 3833  36.411  12.092   1.650
35429W        W 3834  29.954  41.088  13.423
35430W        W 3835  41.773  22.788   1.694
35431W        W 3836   1.829  10.365   4.525
35432W        W 3837  15.617  26.651  14.424
35433W        W 3838  17.802  39.043  12.030
35434W        W 3839  30.993  20.042   4.819
35435W        W 3840  20.455   9.826   3.583
35436W        W 3841  37.509   3.532   4.501
35437W        W 3842  43.905  31.214  11.631
35438W        W 3843  21.101  37.072   2.299
35439W        W 3844  22.518  29.445  14.079
35440W        W 3845   4.356   2.879  14.040
35441W        W 3846  27.915   3.912   0.688
35442W        W 3847  36.837  43.492  14.451
35443W        W 3848  30.838  41.902  11.834
35444W        W 3849  29.277  43.309  12.112
35445W        W 3850   8.456  41.371  11.707
35446W        W 3851  30.934  22.232  10.621
35447W        W 3852  14.293  39.651   1.639
35448W        W 3853  11.026  31.994   3.335
35449W        W 3854   7.700  32.514  13.475
35450W        W 3855  17.546   9.366  13.474
35451W        W 3856   2.344  43.449   0.820
35452W        W 3857  44.048  43.690   3.245
35453W        W 3858  22.665  44.087  10.669
35454W        W 3859  24.708  41.704   4.502
35455W        W 3860   0.126  24.015  10.455
35456W        W 3861  19.457  31.441  13.033
35457W        W 3862  28.504  21.534   4.226
35458W        W 3863  22.987  39.786  12.396
35459W        W 3864  30.606  42.884  13.668
35460W        W 3865  31.848  36.879   3.573
35461W        W 3866  39.660  14.289  10.604
35462W        W 3867  25.183   0.944   1.829
35463W        W 3868  40.382   8.926  11.495
35464W        W 3869  21.233   0.714   5.099
35465W        W 3870  16.656  37.808   1.452
35466W        W 3871  18.339  11.944  13.128
35467W        W 3872  14.272   1.698  14.097
35468W        W 3873  42.239  39.018   1.973
35469W        W 3874  27.172  14.577  14.044
35470W        W 3875   4.118  44.985  11.179
35471W        W 3876   7.878  22.578   3.997
35472W        W 3877   0.855  41.827  12.433
35473W        W 3878  25.378  29.654  14.253
35474W        W 3879  27.133  37.932  11.806
35475W        W 3880  11.541  39.593  14.071
35476W        W 3881   3.427   7.555   3.988
35477W        W 3882   5.353  44.515   4.101
35478W        W 3883  38.724  13.139  14.056
35479W        W 3884  28.194  12.327  12.082
35480W        W 3885  39.116  41.983   3.222
35481W        W 3886  36.616  22.984  10.840
35482W        W 3887  30.581  12.091   1.821
35483W        W 3888  43.768  20.776  11.553
35484W        W 3889  29.956   6.639   3.141
35485W        W 3890   6.667  10.955  12.949
35486W        W 3891  42.244  14.559   1.114
35487W        W 3892  17.483  27.431   2.313
35488W        W 3893  10.658  25.175   2.976
35489W        W 3894  41.294  15.261  14.949
35490W        W 3895  24.705  11.090  12.262
35491W        W 3896   5.687  44.432   3.690
35492W        W 3897  21.610   6.676  12.552
35493W        W 3898  28.514   7.200  13.828
35494W        W 3899   3.764  17.736   2.751
35495W        W 3900   5.293  42.857   1.400
35496W        W 3901   9.680  21.564  11.937
35497W        W 3902  38.947  30.513   0.496
35498W        W 3903  43.808  13.099   3.233
35499W        W 3904   3.792  19.767   1.361
35500W        W 3905   8.072  32.870  11.583
35501W        W 3906  27.464  31.386  11.940
35502W        W 3907   8.328  16.511  12.982
35503W        W 3908   0.459  30.563   1.044
35504W        W 3909  22.479  36.884  11.474
35505W        W 3910  24.926   7.498  12.436
35506W        W 3911  38.340   4.789  14.549
35507W        W 3912  12.425   6.946   4.138
35508W        W 3913  27.526  28.717  13.506
35509W        W 3914   5.887  11.786  12.152
35510W        W 3915  20.037  37.799   1.395
35511W        W 3916  44.005  23.797   1.320
35512W        W 3917  38.413  13.435  12.095
35513W        W 3918   0.054  30.480  11.065
35514W        W 3919  15.709  20.690  14.212
35515W        W 3920   3.322  16.619  13.816
35516W        W 3921  18.700   9.884  14.830
35517W        W 3922  17.991  10.862   1.073
35518W        W 3923   6.289  36.037  12.286
35519W        W 3924  28.125  14.735  12.089
35520W        W 3925  42.460  20.762  13.995
35521W        W 3926  43.902  30.529   4.980
35522W        W 3927  22.249  28.143   1.222
35523W        W 3928  38.781  41.738   5.092
35524W        W 3929  19.400  20.644   0.779
35525W        W 3930  24.223  40.414  12.327
35526W        W 3931   4.487  34.955  11.650
35527W        W 3932  38.070   9.766  11.649
35528W        W 3933  10.489  39.924  13.136
35529W        W 3934  24.796  30.010  13.726
35530W        W 3935  13.347   2.151  13.674
35531W        W 3936  37.451  11.707   3.702
35532W        W 3937   5.063  42.737  11.072
35533W        W 3938  14.678  14.568   2.919
35534W        W 3939  30.060  20.842  11.462
35535W        W 3940  18.885  37.186   4.587
35536W        W 3941   2.771   3.273   3.326
35537W        W 3942  11.983   3.909  13.551
35538W        W 3943  27.685  15.607  13.978
35539W        W 3944  27.164  32.470  14.255
35540W        W 3945   3.948  34.922  11.666
35541W        W 3946  22.558  34.034   0.286
35542W        W 3947  19.922  27.039  13.466
35543W        W 3948  11.971  11.809   4.142
35544W        W 3949  42.227  21.683   3.166
35545W        W 3950  13.197  24.775   4.034
35546W        W 3951  43.278  44.497   3.848
35547W        W 3952  34.333  28.169   1.196
35548W        W 3953  15.539  42.066   4.872
35549W        W 3954   7.271  19.248   3.803
35550W        W 3955  16.517  26.140  10.571
35551W        W 3956  29.670  19.633  14.830
35552W        W 3957  28.985  41.708  13.081
35553W        W 3958  21.997  41.802  11.684
35554W        W 3959  38.565  30.203   0.238
35555W        W 3960  16.480   3.811  11.972
35556W        W 3961  21.039  12.014   0.440
35557W        W 3962  30.897  44.494   3.172
35558W        W 3963   3.872  37.914   1.352
35559W        W 3964   5.665  13.405  14.844
35560W        W 3965   4.623   4.289   2.711
35561W        W 3966  25.390  40.402  12.139
35562W        W 3967  42.659   2.755  14.428
35563W        W 3968  40.993  18.563  10.827
35564W        W 3969  42.260  27.079  13.916
35565W        W 3970  33.984  34.575  12.414
35566W        W 3971  26.917   0.047   4.813
35567W        W 3972  19.485   4.828   3.220
35568W        W 3973   5.858  13.825  13.333
35569W        W 3974  43.736   2.790  12.956
35570W        W 3975  36.329  33.375   4.056
35571W        W 3976  10.331  36.132  11.559
35572W        W 3977  37.475  15.444   4.603
35573W        W 3978   3.883  40.590  13.604
35574W        W 3979  23.058   4.180  12.133
35575W        W 3980   5.405   2.281   1.755
35576W        W 3981  36.562  31.249  12.960
35577W        W 3982  22.761  32.975   2.656
35578W        W 3983  18.748  42.222  11.047
35579W        W 3984   7.677  18.674  13.548
35580W        W 3985  44.755  22.198  11.939
35581W        W 3986  29.705  40.760  14.745
35582W        W 3987   1.799   5.168   9.871
35583W        W 3988   0.363  14.177  13.378
35584W        W 3989   5.403  41.605  12.901
35585W        W 3990  44.977  13.096  13.767
35586W        W 3991   0.175  19.255   1.362
35587W        W 3992  42.512  26.176   1.396
35588W        W 3993  20.174  35.823  14.035
35589W        W 3994  11.592  36.984  14.475
35590W        W 3995  17.113  22.973  14.731
35591W        W 3996  25.062   9.691  14.810
35592W        W 3997  39.949  21.464  12.519
35593W        W 3998  20.062  40.553   3.211
35594W        W 3999   3.680  22.472   1.740
35595W        W 4000  11.256   3.459   2.673
35596W        W 4001  21.215  34.547   2.118
35597W        W 4002  43.272  21.660   3.125
35598W        W 4003  42.732  23.203   4.633
35599W        W 4004  27.222   0.337  10.710
35600W        W 4005  10.132   0.902  11.742
35601W        W 4006   0.920  24.932  11.691
35602W        W 4007  17.690  28.091  14.255
35603W        W 4008  12.527  19.948   1.115
35604W        W 4009  44.748   5.019   2.128
35605W        W 4010  27.585  30.089  14.592
35606W        W 4011  10.749  31.045   2.435
35607W        W 4012   5.502  44.386  11.081
35608W        W 4013   6.840  27.877  14.219
35609W        W 4014  35.063   3.625  10.703
35610W        W 4015  11.625  21.077   0.802
35611W        W 4016  32.039  31.999  14.945
35612W        W 4017  11.671   3.863  13.131
35613W        W 4018  13.863   3.716   1.386
35614W        W 4019  33.609  28.703   1.844
35615W        W 4020  20.736  37.567  11.527
35616W        W 4021  40.254  30.074   2.695
35617W        W 4022  25.177  21.134   2.248
35618W        W 4023   7.073  23.503   2.413
35619W        W 4024  33.639  38.848   1.321
35620W        W 4025  17.086  37.566  11.294
35621W        W 4026  28.334   5.457   0.842
35622W        W 4027  39.239  20.693   1.499
35623W        W 4028   8.349  30.489  13.907
35624W        W 4029  23.076  20.869   4.144
35625W        W 4030  26.676   1.296   0.879
35626W        W 4031   1.249  32.096  13.526
35627W        W 4032   7.847  44.326  12.180
35628W        W 4033  33.921  16.262   4.582
35629W        W 4034  10.312  33.744   0.917
35630W        W 4035   8.571  24.232   2.654
35631W        W 4036   4.659  33.104  11.537
35632W        W 4037  39.748  35.053   3.114
35633W        W 4038  26.059  19.362   0.275
35634W        W 4039  15.556   1.453  11.560
35635W        W 4040  32.540   9.858   3.348
35636W        W 4041  37.552  42.236   0.849
35637W        W 4042   1.417   0.488  13.809
35638W        W 4043   6.771   4.322   2.202
35639W        W 4044  11.164  22.535  13.338
35640W        W 4045   8.090  23.955  12.119
35641W        W 4046   9.047   9.657  10.331
35642W        W 4047   2.784  11.645   2.945
35643W        W 4048   4.940   0.506   1.879
35644W        W 4049  27.517   9.964  11.900
35645W        W 4050   7.119  12.679   1.193
35646W        W 4051  28.688   7.878  12.477
35647W        W 4052  21.312  35.683  13.872
35648W        W 4053  42.056  22.474  11.623
35649W        W 4054  16.369  13.403   2.798
35650W        W 4055  20.477   1.855  10.102
35651W        W 4056   5.734  27.212  13.867
35652W        W 4057  30.250  41.261   1.764
35653W        W 4058  41.228  39.777  14.744
35654W        W 4059  24.072  40.569   0.345
35655W        W 4060  19.348   0.018  13.881
35656W        W 4061  36.623  32.606  11.911
35657W        W 4062  42.992  10.796  12.536
35658W        W 4063  26.639  31.814  14.755
35659W        W 4064  37.422  41.427   2.546
35660W        W 4065   2.753  33.159  14.017
35661W        W 4066   1.463   8.162   0.320
35662W        W 4067  23.249   5.343   2.888
35663W        W 4068  16.128   5.303  12.646
35664W        W 4069   1.729  39.615   1.492
35665W        W 4070  10.439  27.188   4.445
35666W        W 4071  34.264   4.917  12.934
35667W        W 4072   8.736  21.606   0.319
35668W        W 4073   1.227   4.562  13.959
35669W        W 4074  26.253  18.385   2.404
35670W        W 4075  33.313  39.418   4.212
35671W        W 4076  42.869  30.487  10.308
35672W        W 4077  19.776   5.542  10.711
35673W        W 4078  26.783  40.807  11.176
35674W        W 4079  22.880  40.080  13.627
35675W        W 4080  13.327  18.581   1.374
35676W        W 4081  35.961   6.559   2.778
35677W        W 4082  13.775   4.439  11.570
35678W        W 4083  26.548  34.060  11.429
35679W        W 4084  44.974  27.939   4.704
35680W        W 4085  15.764  11.458   0.984
35681W        W 4086  25.285   0.514   4.074
35682W        W 4087  28.276   5.637  14.786
35683W        W 4088  38.033  14.772  12.542
35684W        W 4089  44.784   8.289   1.325
35685W        W 4090   4.828   7.262  14.554
35686W        W 4091  38.828  20.589  13.875
35687W        W 4092   4.721  41.346   2.582
35688W        W 4093   4.691   2.902  10.746
35689W        W 4094  28.401   2.247  12.463
35690W        W 4095  33.591  12.841  12.813
35691W        W 4096  42.040  10.887  14.577
35692W        W 4097  23.369   2.451  10.630
35693W        W 4098   2.521  13.108  12.905
35694W        W 4099  35.321  25.985  11.634
35695W        W 4100  35.700  36.934  13.357
35696W        W 4101  17.810   9.482   3.822
35697W        W 4102  31.616  20.167  12.121
35698W        W 4103   8.300  29.756  13.467
35699W        W 4104  44.163  10.868   5.025
35700W        W 4105  10.305  32.290  14.720
35701W        W 4106  41.029  15.078   0.356
35702W        W 4107   3.589  39.610  14.736
35703W        W 4108  20.579  36.107  13.886
35704W        W 4109   1.660  23.608   2.067
35705W        W 4110  18.549  31.978  14.307
35706W        W 4111  21.065   8.785   2.283
35707W        W 4112  22.931  38.516  12.120
35708W        W 4113  43.938  18.322  13.067
35709W        W 4114  18.019  40.027  11.671
35710W        W 4115  14.707  20.805  13.155
35711W        W 4116   9.488  18.874  13.973
35712W        W 4117  14.649  44.402   0.502
35713W        W 4118   3.615   8.628   4.125
35714W        W 4119  11.866   6.803   0.358
35715W        W 4120  25.566  23.077  14.695
35716W        W 4121  42.257  13.192  10.937
35717W        W 4122   4.398  33.767  12.946
35718W        W 4123  28.786  30.144  13.868
35719W        W 4124  10.369  11.212   4.342
35720W        W 4125   5.424  17.852   0.405
35721W        W 4126  23.312  10.129   1.903
35722W        W 4127  41.874  33.453   0.399
35723W        W 4128  42.989  20.000   0.290
35724W        W 4129   8.381  28.297  14.558
35725W        W 4130   1.492   5.714   2.147
35726W        W 4131   1.771  24.580  12.268
35727W        W 4132  20.034   7.409   4.149
35728W        W 4133  13.717   3.903   0.436
35729W        W 4134   0.249  18.713  13.830
35730W        W 4135  33.934   9.308   0.198
35731W        W 4136  24.315  26.122   0.494
35732W        W 4137  22.736  18.716  11.613
35733W        W 4138  15.103  35.938   2.665
35734W        W 4139  26.573  15.655   2.315
35735W        W 4140   7.240   4.191   3.756
35736W        W 4141  17.831  16.532  12.054
35737W        W 4142  16.320   9.459  13.058
35738W        W 4143   3.529  27.546  14.454
35739W        W 4144  44.920   6.155  13.369
35740W        W 4145  19.176  22.565   3.161
35741W        W 4146  40.770  42.883   0.309
35742W        W 4147  23.224  12.732   3.175
35743W        W 4148  29.280  26.070   3.330
35744W        W 4149  35.254  27.022  11.833
35745W        W 4150  21.906  36.807  11.086
35746W        W 4151  34.936  26.053   3.726
35747W        W 4152  38.682   7.247  11.081
35748W        W 4153  26.223   0.226   2.798
35749W        W 4154   8.190  34.519  14.689
35750W        W 4155   6.573  11.434   1.439
35751W        W 4156  27.698   9.503  14.911
35752W        W 4157   4.337  24.482   1.754
35753W        W 4158  32.130  40.062  10.671
35754W        W 4159  19.623  10.050   0.309
35755W        W 4160   9.188  15.277   1.264
35756W        W 4161  38.300  41.623  11.628
35757W        W 4162  34.106  24.126  11.495
35758W        W 4163   8.574   5.248  10.588
35759W        W 4164  44.465   5.904   0.868
35760W        W 4165   3.241  44.024  12.606
35761W        W 4166  44.015  24.786   4.185
35762W        W 4167  40.929  42.664   4.113
35763W        W 4168  23.215   9.772  10.951
35764W        W 4169  13.064   3.938  11.958
35765W        W 4170   7.888  22.685   4.534
35766W        W 4171  29.160  38.451   0.964
35767W        W 4172  29.013  41.299   0.255
35768W        W 4173  38.292   1.455   0.298
35769W        W 4174  27.706   7.032  11.936
35770W        W 4175  40.262   0.842   1.256
35771W        W 4176  13.770   7.406   1.196
35772W        W 4177  43.306  40.116   3.425
35773W        W 4178  13.233  25.616   2.316
35774W        W 4179  34.562  19.226  12.436
35775W        W 4180  39.062  16.494  10.185
35776W        W 4181  41.110  15.636  11.156
35777W        W 4182  29.635  29.479   4.514
35778W        W 4183  14.907  16.958   1.971
35779W        W 4184  25.065  24.014  13.767
35780W        W 4185   6.841  35.610   2.568
35781W        W 4186  12.363  37.329   1.225
35782W        W 4187  13.350  28.937  14.533
35783W        W 4188   6.300  29.915   4.748
35784W        W 4189  20.248  27.185  11.820
35785W        W 4190  22.406  17.207   1.418
35786W        W 4191  22.545  38.412   2.713
35787W        W 4192   4.685   8.195  13.595
35788W        W 4193  10.750   1.710  12.049
35789W        W 4194  19.292  37.479  10.784
35790W        W 4195  23.732  10.954   1.373
35791W        W 4196  14.637   3.640  12.593
35792W        W 4197  14.121   7.499  12.410
35793W        W 4198  14.637  40.684  14.246
35794W        W 4199  37.831  27.099   3.569
35795W        W 4200   2.345  38.050   0.426
35796W        W 4201  20.547  24.627  12.963
35797W        W 4202  12.735  26.976   1.376
35798W        W 4203  21.073   6.857   1.176
35799W        W 4204  39.994  10.749  11.443
35800W        W 4205  41.371  17.618  10.633
35801W        W 4206  41.085  17.715  12.442
35802W        W 4207  11.681  21.921   4.088
35803W        W 4208  31.733  16.860  11.476
35804W        W 4209  16.387  39.097   3.234
35805W        W 4210  22.742   1.360  10.714
35806W        W 4211  29.682  13.422   3.254
35807W        W 4212   8.455  38.249  12.390
35808W        W 4213  21.677  21.320  11.152
35809W        W 4214  23.733  38.074   4.144
35810W        W 4215  43.816  29.034  14.843
35811W        W 4216  28.162  13.527  12.589
35812W        W 4217  29.978  31.429  10.973
35813W        W 4218  25.945  22.749  14.580
35814W        W 4219  40.454   9.448  11.245
35815W        W 4220  40.347  25.253  12.573
35816W        W 4221  41.643  38.743  11.598
35817W        W 4222  42.195  44.142   3.848
35818W        W 4223  38.491  34.064  14.310
35819W        W 4224  32.119  16.222   1.902
35820W        W 4225   4.198  16.704   2.155
35821W        W 4226  18.994  19.860   3.278
35822W        W 4227  27.670  34.151  13.011
35823W        W 4228  12.461  30.774  11.059
35824W        W 4229  42.235  19.709   2.202
35825W        W 4230   9.682  25.056   2.573
35826W        W 4231  14.903  13.655   2.886
35827W        W 4232  37.461  27.152  10.476
35828W        W 4233  31.021  23.435  10.751
35829W        W 4234  13.913  37.815   3.694
35830W        W 4235  27.505   0.019   4.571
35831W        W 4236  22.681  10.094  13.142
35832W        W 4237  32.747  29.896   2.707
35833W        W 4238  31.843  32.992   3.125
35834W        W 4239  30.355   1.379   4.337
35835W        W 4240  13.858  31.471   4.223
35836W        W 4241  20.587  42.022   4.326
35837W        W 4242  31.542  43.780  13.138
35838W        W 4243  18.007  21.492   4.984
35839W        W 4244  20.032  18.245  13.390
35840W        W 4245  11.186   1.173   3.299
35841W        W 4246  29.643  33.194   3.596
35842W        W 4247  25.596  13.810   2.252
35843W        W 4248  32.062   1.316   0.506
35844W        W 4249  13.332  43.991   5.306
35845W        W 4250  35.236  16.667   0.670
35846W        W 4251  27.838   3.540  12.924
35847W        W 4252  31.997  21.999  12.093
35848W        W 4253  36.357  17.546  12.641
35849W        W 4254  16.160  25.151  13.897
35850W        W 4255  35.412  40.961  10.902
35851W        W 4256  41.362  12.191  12.997
35852W        W 4257  18.259  44.986   0.958
35853W        W 4258  12.296  36.582  11.841
35854W        W 4259  21.255  17.359   0.444
35855W        W 4260  35.979  27.519  12.981
35856W        W 4261  44.822  12.547   0.234
35857W        W 4262   3.979  33.850  14.749
35858W        W 4263  26.988   9.672   0.680
35859W        W 4264   4.773  28.896   0.408
35860W        W 4265  16.606  33.517   3.577
35861W        W 4266  23.261   6.577  14.330
35862W        W 4267  34.047  30.474   1.331
35863W        W 4268   9.132  22.194   0.005
35864W        W 4269  23.231  32.878   2.856
35865W        W 4270   5.707  22.583   1.924
35866W        W 4271  10.447  24.596  13.431
35867W        W 4272  13.375   3.876   4.837
35868W        W 4273  21.640   9.645  11.474
35869W        W 4274  21.817  28.409   1.327
35870W        W 4275  14.661  11.380  10.783
35871W        W 4276  26.457   2.042  11.265
35872W        W 4277  15.202   7.236   5.141
35873W        W 4278  31.721  40.929   4.566
35874W        W 4279  20.560  15.571   3.727
35875W        W 4280  26.269   1.903  10.312
35876W        W 4281  14.265   3.869  12.349
35877W        W 4282  23.337   5.316  10.767
35878W        W 4283  34.818  33.058   3.662
35879W        W 4284  21.240  29.454  13.392
35880W        W 4285  43.589  36.291  11.198
35881W        W 4286  34.486  19.996  14.370
35882W        W 4287  10.460  37.073  10.387
35883W        W 4288   9.601  38.449  14.425
35884W        W 4289  40.746  17.201  14.338
35885W        W 4290   7.551  41.832   3.228
35886W        W 4291  20.948   8.978  13.003
35887W        W 4292  11.638   7.255  13.658
35888W        W 4293   4.963   3.348   0.887
35889W        W 4294   7.627  37.040  12.938
35890W        W 4295  35.111  38.579   2.690
35891W        W 4296  37.784  10.752   1.431
35892W        W 4297  42.086  20.284  12.810
35893W        W 4298  43.213  44.216  11.058
35894W        W 4299  33.312  43.997  10.797
35895W        W 4300  31.216  12.204   2.274
35896W        W 4301   9.219  36.454   3.644
35897W        W 4302  14.592  39.328   1.356
35898W        W 4303  31.489  30.146  14.894
35899W        W 4304   0.393  17.773  14.737
35900W        W 4305  15.525  21.153   2.765
35901W        W 4306   5.955  20.042  12.659
35902W        W 4307  17.168  36.606  14.808
35903W        W 4308  25.130   8.501  12.163
35904W        W 4309  22.625  28.486   1.394
35905W        W 4310   5.764   5.133   2.611
35906W        W 4311  16.701  41.626  14.788
35907W        W 4312  25.557   6.796  14.021
35908W        W 4313  34.983  27.034  10.977
35909W        W 4314  43.730  23.145   3.652
35910W        W 4315  22.668  26.556   2.687
35911W        W 4316  19.838  12.897   0.261
35912W        W 4317  12.034  40.456   1.257
35913W        W 4318  41.974   5.453  12.099
35914W        W 4319  16.123   5.307   2.709
35915W        W 4320  43.419   7.310  11.590
35916W        W 4321  11.981   7.040  10.461
35917W        W 4322  13.261   4.425   2.122
35918W        W 4323  29.510  44.193   0.026
35919W        W 4324   3.706  22.923   4.818
35920W        W 4325   4.214   4.172  10.560
35921W        W 4326  32.014  36.221  14.422
35922W        W 4327   4.823   6.335  10.679
35923W        W 4328  33.117   1.448   1.262
35924W        W 4329   3.566  13.435  13.459
35925W        W 4330  29.958  29.732  14.451
35926W        W 4331  42.264   6.796  11.868
35927W        W 4332  43.743  27.083   4.347
35928W        W 4333   9.092   9.987   3.189
35929W        W 4334  10.981  26.149   0.734
35930W        W 4335  24.594   0.003  11.035
35931W        W 4336   5.673   3.964   4.755
35932W        W 4337  23.117  14.191   3.587
35933W        W 4338  21.702   8.745  11.060
35934W        W 4339  42.961  37.605  12.022
35935W        W 4340   4.575  17.336   1.374
35936W        W 4341  27.844  33.273  13.011
35937W        W 4342  10.848  21.001  14.827
35938W        W 4343  39.894   6.747   2.596
35939W        W 4344  14.547  35.714   5.058
35940W        W 4345   6.334  28.434  10.217
35941W        W 4346  18.256  28.340  12.061
35942W        W 4347  43.760  29.817   2.162
35943W        W 4348  40.967  38.470   3.161
35944W        W 4349  17.752  22.465   1.926
35945W        W 4350   6.177  27.071   4.317
35946W        W 4351   8.263  17.351   0.250
35947W        W 4352  16.369  14.241   0.247
35948W        W 4353   6.957  20.903   3.785
35949W        W 4354   4.275  39.315   4.827
35950W        W 4355  27.173  38.639   0.403
35951W        W 4356  26.898  17.672   2.464
35952W        W 4357  34.031  12.828   3.925
35953W        W 4358  40.034  43.475   0.760
35954W        W 4359   0.872  39.999   2.177
35955W        W 4360  34.824  19.487   0.807
35956W        W 4361  41.387  29.696   2.236
35957W        W 4362  28.993  18.121   3.700
35958W        W 4363  29.560  43.065   2.310
35959W        W 4364  36.554   7.781   0.048
35960W        W 4365  13.687  35.482  11.110
35961W        W 4366   7.165  38.791  10.571
35962W        W 4367  28.925  15.701  13.342
35963W        W 4368  44.271   4.365   3.751
35964W        W 4369  20.500  12.002  13.021
35965W        W 4370   9.463  33.768   3.664
35966W        W 4371  14.295  17.335   2.812
35967W        W 4372  34.490  35.886   0.434
35968W        W 4373  24.727  21.531   1.738
35969W        W 4374   2.280  35.388   1.391
35970W        W 4375  24.418  31.623   1.363
35971W        W 4376  18.037  39.036   2.526
35972W        W 4377  15.595  29.563   3.462
35973W        W 4378  21.700  37.075   3.991
35974W        W 4379  31.138   9.660   0.877
35975W        W 4380   2.894  40.550   0.434
35976W        W 4381   5.698  36.500  12.924
35977W        W 4382  17.954  20.636  11.966
35978W        W 4383  30.631  23.538  14.847
35979W        W 4384  14.104  11.323  14.153
35980W        W 4385  44.082  21.807  12.585
35981W        W 4386  23.785   4.821   0.239
35982W        W 4387  25.627  43.389   4.309
35983W        W 4388  24.247  29.413  10.690
35984W        W 4389  15.122  39.784   1.716
35985W        W 4390   0.451  11.553   1.392
35986W        W 4391  20.796  44.339   2.785
35987W        W 4392   7.103  40.987   2.766
35988W        W 4393  17.638  33.742  12.948
35989W        W 4394  29.685  14.360   3.076
35990W        W 4395   2.247  29.799  14.300
35991W        W 4396  36.975   1.706   4.590
35992W        W 4397   5.241   1.544   3.827
35993W        W 4398  33.702  35.947   4.338
35994W        W 4399  38.372  11.380   1.784
35995W        W 4400  43.987  20.025  14.273
35996W        W 4401  16.323  37.949  11.519
35997W        W 4402  33.880  43.083   4.464
35998W        W 4403   3.583  16.724   0.448
35999W        W 4404   9.843  32.342   0.478
36000W        W 4405  36.215   7.783   4.572
36001W        W 4406  23.778  26.506  10.541
36002W        W 4407   2.458  22.501  12.444
36003W        W 4408  19.452  25.577   4.933
36004W        W 4409  24.402  43.756  10.540
36005W        W 4410   0.472   2.762  13.401
36006W        W 4411  34.920  21.100  13.429
36007W        W 4412   0.350  14.341   5.016
36008W        W 4413  25.512  19.021  10.774
36009W        W 4414   6.485  13.684  14.548
36010W        W 4415   0.285   4.267   2.325
36011W        W 4416  21.235  34.984  11.036
36012W        W 4417  18.552  29.144   0.343
36013W        W 4418  28.857  44.429  12.980
36014W        W 4419  44.228  30.589  13.924
36015W        W 4420  22.190   2.801  14.721
36016W        W 4421   3.261  39.280   4.666
36017W        W 4422  43.668   7.968   4.051
36018W        W 4423   3.774  30.696   3.612
36019W        W 4424   8.896   3.204   2.987
36020W        W 4425   9.884  37.635  13.467
36021W        W 4426   7.663   3.799   1.362
36022W        W 4427  41.034   2.074   3.693
36023W        W 4428   6.664   3.708   0.247
36024W        W 4429  44.229  25.940  12.840
36025W        W 4430   7.946  15.002  12.339
36026W        W 4431  32.160  28.800  13.471
36027W        W 4432  36.487   4.786  13.468
36028W        W 4433  13.051   3.846  10.063
36029W        W 4434  19.720   0.735   1.951
36030W        W 4435  33.375  27.614   2.794
36031W        W 4436  41.772  26.671   4.467
36032W        W 4437  16.234   6.579   4.171
36033W        W 4438  22.084  38.818  11.143
36034W        W 4439   2.800   0.869   4.554
36035W        W 4440  36.821  37.907   1.709
36036W        W 4441  24.085  19.117   4.560
36037W        W 4442  17.909  25.200   5.129
36038W        W 4443  26.454  14.783   1.361
36039W        W 4444  36.102  41.254  14.414
36040W        W 4445  17.199  15.773  11.136
36041W        W 4446  19.445  12.992  12.538
36042W        W 4447  13.465   3.209   3.755
36043W        W 4448  11.835  27.822   0.672
36044W        W 4449  23.776  39.331  12.541
36045W        W 4450  12.067  13.671   0.384
36046W        W 4451  11.815  17.505  13.716
36047W        W 4452  36.466  27.958   2.255
36048W        W 4453  19.521  12.342  11.492
36049W        W 4454   3.958  38.685  14.787
36050W        W 4455  29.538  34.883  12.877
36051W        W 4456  18.082   1.231  13.535
36052W        W 4457  43.038  22.144   3.006
36053W        W 4458  33.015  41.965  12.894
36054W        W 4459  11.487  34.934   2.932
36055W        W 4460   7.118  37.884   3.118
36056W        W 4461   8.160  10.374  13.027
36057W        W 4462  42.931  19.251  14.673
36058W        W 4463  31.690  29.029  11.511
36059W        W 4464  23.632  30.128  10.557
36060W        W 4465  35.936  29.886   0.840
36061W        W 4466   0.815  33.472   0.257
36062W        W 4467  15.701  42.926   1.566
36063W        W 4468  28.640   9.958  13.715
36064W        W 4469  25.867  17.129   0.830
36065W        W 4470  24.231  12.830   1.002
36066W        W 4471  10.027   4.009   3.663
36067W        W 4472  41.232  18.162   3.348
36068W        W 4473  18.837   2.415  12.412
36069W        W 4474  10.508   6.359   3.982
36070W        W 4475  31.471   3.139  10.793
36071W        W 4476  43.344   0.653  12.394
36072W        W 4477  21.543   7.291  13.426
36073W        W 4478  44.445   2.248   2.262
36074W        W 4479  43.707   5.890  14.984
36075W        W 4480  39.999  12.618   2.817
36076W        W 4481  12.493  35.045   1.274
36077W        W 4482  20.338  29.118  11.824
36078W        W 4483   8.364  43.358   0.201
36079W        W 4484  36.110  37.723   4.075
36080W        W 4485  18.216  20.153  11.894
36081W        W 4486  18.311   1.440  13.951
36082W        W 4487  30.572  28.171  11.867
36083W        W 4488  18.092  14.555   0.095
36084W        W 4489  33.692  36.957   2.985
36085W        W 4490  29.477  18.448  11.177
36086W        W 4491  39.567   1.032   1.700
36087W        W 4492  13.392  12.477  13.073
36088W        W 4493  24.619  26.441   3.596
36089W        W 4494  18.230  15.345  13.095
36090W        W 4495   6.654  21.951  13.335
36091W        W 4496   6.358   5.342  14.895
36092W        W 4497  32.163  10.238   2.423
36093W        W 4498  20.500   5.996   2.351
36094W        W 4499  23.379  37.747   0.467
36095W        W 4500  34.455   7.756  10.932
36096W        W 4501  24.137   9.734   3.552
36097W        W 4502   4.888   6.764  14.241
36098W        W 4503  32.467  26.004   0.945
36099W        W 4504  38.426  14.063   0.457
36100W        W 4505  43.200  42.059  13.107
36101W        W 4506   3.978  10.930  14.653
36102W        W 4507  21.165  17.054  14.926
36103W        W 4508  27.984  15.691   1.657
36104W        W 4509  30.179  25.163  11.708
36105W        W 4510  25.788  12.338  14.296
36106W        W 4511  43.008   7.840  11.180
36107W        W 4512  19.252  35.021  14.351
36108W        W 4513  15.784  27.432   0.327
36109W        W 4514  36.263  11.704  14.977
36110W        W 4515  17.084  31.201  11.568
36111W        W 4516  28.686  17.330  12.539
36112W        W 4517  11.388   1.371   0.214
36113W        W 4518  28.979  43.785   0.818
36114W        W 4519  31.842  19.595   1.908
36115W        W 4520  25.577   3.695   1.467
36116W        W 4521   2.438  40.377   0.196
36117W        W 4522  21.877  35.240   1.435
36118W        W 4523  22.756  18.523  13.512
36119W        W 4524  25.468  14.314  11.511
36120W        W 4525  27.851  30.499  14.446
36121W        W 4526  16.497  27.100  11.029
36122W        W 4527   5.531   9.641  12.620
36123W        W 4528  11.671  30.620  13.417
36124W        W 4529  13.086  23.413   4.796
36125W        W 4530  21.012  29.966   1.327
36126W        W 4531  35.050  22.639  10.575
36127W        W 4532  38.552  30.136   3.750
36128W        W 4533  44.299  42.221  10.550
36129W        W 4534  24.150  27.586   3.230
36130W        W 4535  37.611  37.982  13.901
36131W        W 4536  30.939  41.100  13.389
36132W        W 4537  27.840  35.004  13.824
36133W        W 4538  24.717  10.606   4.636
36134W        W 4539  38.997  10.086   3.116
36135W        W 4540  11.177  30.817  14.309
36136W        W 4541  20.058   5.190  11.222
36137W        W 4542  44.361  11.355   2.678
36138W        W 4543   0.950   7.919   3.846
36139W        W 4544  37.871   7.271  11.994
36140W        W 4545  38.541  38.460  12.362
36141W        W 4546  14.854  27.152   1.401
36142W        W 4547   6.752   6.659  13.782
36143W        W 4548   0.251  30.523  13.811
36144W        W 4549  34.730  23.955   1.993
36145W        W 4550   0.580  37.546  14.760
36146W        W 4551   6.229  43.202  12.717
36147W        W 4552  44.411   9.395   3.313
36148W        W 4553   7.197   1.082  10.551
36149W        W 4554  44.462  17.251   4.335
36150W        W 4555  17.776  10.344   4.144
36151W        W 4556  13.347  37.650   4.521
36152W        W 4557  20.786  36.594  14.815
36153W        W 4558  22.993  39.995   1.842
36154W        W 4559  18.103   4.256   1.913
36155W        W 4560   3.262  38.246   3.725
36156W        W 4561  32.063   6.354   1.989
36157W        W 4562  11.936  17.219  11.509
36158W        W 4563  30.184  14.352   4.064
36159W        W 4564  16.845  37.523   4.671
36160W        W 4565  24.786  18.644   1.849
36161W        W 4566   9.307  20.826  11.579
36162W        W 4567  25.788  44.429  12.959
36163W        W 4568  20.175  21.655   4.661
36164W        W 4569  29.193   3.360   4.164
36165W        W 4570  37.316  35.070   3.762
36166W        W 4571   4.216  40.839   0.857
36167W        W 4572   1.267  25.476  10.912
36168W        W 4573  35.168  30.756   1.129
36169W        W 4574  44.174  16.995  11.579
36170W        W 4575  29.127  18.308   2.357
36171W        W 4576  10.457  40.656   2.399
36172W        W 4577  15.583   4.082   0.406
36173W        W 4578  42.607  26.080  10.808
36174W        W 4579  36.852  19.955   3.344
36175W        W 4580   8.791  19.682   4.143
36176W        W 4581  31.755   3.804  13.277
36177W        W 4582  26.145  20.729  12.074
36178W        W 4583  31.420  28.872   4.934
36179W        W 4584  19.036  16.077   0.138
36180W        W 4585  41.871   9.342   2.461
36181W        W 4586   8.267  42.422   4.627
36182W        W 4587  33.664  35.566   2.699
36183W        W 4588  27.943   6.106  13.443
36184W        W 4589  37.821  30.447   2.326
36185W        W 4590  41.461  43.838   3.810
36186W        W 4591   4.866  17.467   4.821
36187W        W 4592   7.243  38.848   2.336
36188W        W 4593  27.233  43.307   3.256
36189W        W 4594   9.659  39.916  11.668
36190W        W 4595   8.653  41.749  11.263
36191W        W 4596   0.789  41.578  10.229
36192W        W 4597   4.285  26.233  14.340
36193W        W 4598  22.614  23.919  14.567
36194W        W 4599  44.018  42.874  13.408
36195W        W 4600   8.129  27.104   3.284
36196W        W 4601  36.699  37.693  10.751
36197W        W 4602  36.098  29.183   1.872
36198W        W 4603  42.069  15.339  12.908
36199W        W 4604  31.589   5.715  12.504
36200W        W 4605  13.185  39.345  13.161
36201W        W 4606  14.428  19.281  11.960
36202W        W 4607  26.113  17.190   1.796
36203W        W 4608  36.460  34.359  11.199
36204W        W 4609  34.652  35.807   2.638
36205W        W 4610  20.620  20.290   3.700
36206W        W 4611  32.018  30.115   3.329
36207W        W 4612  25.526  14.153   1.117
36208W        W 4613  43.249  24.601  11.000
36209W        W 4614  20.173  12.993   0.657
36210W        W 4615  38.986  23.062   0.678
36211W        W 4616  35.061  17.647   3.293
36212W        W 4617  21.654  31.838  13.340
36213W        W 4618  29.135  18.781  14.871
36214W        W 4619  35.610  44.502  11.517
36215W        W 4620  18.259  32.898  11.890
36216W        W 4621   7.818   1.890   3.663
36217W        W 4622  29.580  13.307   4.602
36218W        W 4623  39.383  40.033   3.239
36219W        W 4624  26.706  22.133   2.054
36220W        W 4625  21.582  18.469  14.754
36221W        W 4626  19.568  19.468  14.582
36222W        W 4627  31.114   1.830   4.165
36223W        W 4628  15.730  33.144   4.662
36224W        W 4629  42.095  34.498   1.672
36225W        W 4630  36.361  24.567   3.726
36226W        W 4631   4.691  25.597  11.635
36227W        W 4632  10.306  13.010  11.374
36228W        W 4633  39.008  28.770   1.350
36229W        W 4634  11.175  19.317   2.223
36230W        W 4635   6.622  16.774   3.031
36231W        W 4636  38.937  19.517   0.286
36232W        W 4637  18.725  41.435  14.827
36233W        W 4638  20.008  21.503  12.368
36234W        W 4639  31.985   6.900   2.135
36235W        W 4640  29.608  17.118   1.669
36236W        W 4641   3.663   8.929   1.722
36237W        W 4642  25.501  28.743   3.678
36238W        W 4643  39.783  30.151  14.336
36239W        W 4644  43.844  20.511   2.822
36240W        W 4645  11.534  39.848  13.094
36241W        W 4646  43.268  15.226   2.749
36242W        W 4647  34.078   3.049   0.330
36243W        W 4648  22.314  31.547   2.327
36244W        W 4649   8.403  18.696   4.051
36245W        W 4650  30.470  40.228   4.168
36246W        W 4651  28.944   4.747  11.408
36247W        W 4652  25.112  11.467   2.314
36248W        W 4653  25.301  18.196   3.715
36249W        W 4654  35.911  40.550  13.408
36250W        W 4655  18.051  26.435  12.124
36251W        W 4656   5.221  43.577   2.581
36252W        W 4657  17.512  17.142   3.320
36253W        W 4658   7.359   2.366  13.856
36254W        W 4659  21.535  16.834   1.215
36255W        W 4660  36.548  14.094  12.894
36256W        W 4661  32.213   2.536   1.238
36257W        W 4662  37.460  29.850  14.547
36258W        W 4663  22.275   3.118  12.104
36259W        W 4664   1.831  31.663  13.006
36260W        W 4665  14.153  25.959  14.458
36261W        W 4666  42.798  22.048  10.821
36262W        W 4667  28.992  39.275   0.502
36263W        W 4668  39.924   3.963  11.154
36264W        W 4669  13.784  21.524  14.976
36265W        W 4670  17.374   5.457  12.871
36266W        W 4671  41.858  14.746  12.330
36267W        W 4672  34.070  37.524   3.714
36268W        W 4673   2.961   9.328   0.996
36269W        W 4674   5.910  16.421  13.087
36270W        W 4675   6.311  15.790   0.483
36271W        W 4676  37.200  31.505  10.669
36272W        W 4677  24.264  10.379   4.561
36273W        W 4678  35.912  11.851  11.690
36274W        W 4679  42.755  35.470  12.781
36275W        W 4680  32.072   1.123  14.411
36276W        W 4681  35.534  30.920   1.481
36277W        W 4682   5.649   0.577   4.192
36278W        W 4683   3.054   1.799   0.774
36279W        W 4684  26.890   1.986  13.770
36280W        W 4685   9.117  35.847   1.419
36281W        W 4686  35.905  15.587  10.481
36282W        W 4687  41.198  27.690  13.505
36283W        W 4688  34.355  13.081   3.165
36284W        W 4689  24.739  12.269  11.618
36285W        W 4690  12.331  20.139   3.611
36286W        W 4691  40.510   0.961  13.105
36287W        W 4692  39.526  31.399   2.175
36288W        W 4693  15.888   5.834   1.756
36289W        W 4694  34.967  28.135  10.272
36290W        W 4695   8.759  10.058   2.795
36291W        W 4696  30.852  17.155  13.204
36292W        W 4697   9.419   0.494   3.385
36293W        W 4698  35.957  33.201   3.441
36294W        W 4699  38.340  29.773   0.045
36295W        W 4700  36.017  10.955  14.464
36296W        W 4701  32.493  18.134   2.731
36297W        W 4702  33.898  37.404  13.958
36298W        W 4703   3.810   2.469   1.041
36299W        W 4704  36.331  29.558   0.209
36300W        W 4705  30.163  40.972   2.646
36301W        W 4706  33.533   4.744  14.779
36302W        W 4707  17.507  16.567   4.745
36303W        W 4708  27.942  17.782  14.414
36304W        W 4709   4.903  12.184  12.903
36305W        W 4710   3.410  25.986  12.312
36306W        W 4711   0.347  15.136  11.665
36307W        W 4712   3.982  10.353   4.478
36308W        W 4713  44.967  40.056  13.333
36309W        W 4714  35.718  30.667   1.898
36310W        W 4715   4.709  31.858  14.526
36311W        W 4716   7.647  17.509   3.174
36312W        W 4717  22.461  13.379   1.126
36313W        W 4718  31.897  37.956   2.385
36314W        W 4719  15.568  41.820  11.988
36315W        W 4720   4.891  21.046  11.209
36316W        W 4721  14.756  11.053  14.988
36317W        W 4722  16.041  21.518  14.751
36318W        W 4723  42.814  10.395   5.023
36319W        W 4724  34.023   1.549   1.366
36320W        W 4725   9.763  10.862  13.430
36321W        W 4726  28.924  23.713  11.543
36322W        W 4727   4.229  15.683  14.346
36323W        W 4728  16.580  18.485  11.911
36324W        W 4729  33.649  10.410   4.178
36325W        W 4730  13.462   9.633   2.431
36326W        W 4731  38.821  33.661  13.442
36327W        W 4732   6.351  10.271  10.636
36328W        W 4733  14.675  30.610   3.974
36329W        W 4734   3.123   3.484  13.331
36330W        W 4735  19.774  31.417  13.477
36331W        W 4736  22.077  35.957  14.037
36332W        W 4737  41.276   2.162  14.181
36333W        W 4738  43.863   6.501  12.513
36334W        W 4739  27.818   8.848  12.881
36335W        W 4740  25.637  19.058   2.914
36336W        W 4741  19.718  19.054   1.322
36337W        W 4742  15.693  10.449  11.117
36338W        W 4743  26.040  29.334   0.005
36339W        W 4744  41.185  16.143   4.404
36340W        W 4745  22.246  28.054  11.717
36341W        W 4746   6.499  22.492  10.244
36342W        W 4747   0.915  36.813   1.928
36343W        W 4748  16.213  32.705   2.681
36344W        W 4749  36.287  14.110  13.335
36345W        W 4750  21.420   9.512   4.816
36346W        W 4751   3.547   7.217  10.759
36347W        W 4752  30.676  18.520  10.559
36348W        W 4753  38.680  12.908  11.211
36349W        W 4754  33.333   2.194   4.187
36350W        W 4755   6.996  44.875   3.626
36351W        W 4756  30.334  40.791  12.114
36352W        W 4757  40.805  10.766  12.500
36353W        W 4758   0.738  26.068   4.907
36354W        W 4759  26.624   6.829  12.761
36355W        W 4760   6.206  28.121   2.727
36356W        W 4761  37.886   3.874  11.256
36357W        W 4762   5.473  42.048  11.586
36358W        W 4763  29.455  14.386  11.151
36359W        W 4764  32.577  17.563   0.338
36360W        W 4765  30.389   1.922   2.245
36361W        W 4766  33.424  33.828  11.118
36362W        W 4767  10.906  10.316  11.518
36363W        W 4768   1.556  30.115   3.538
36364W        W 4769  12.632  41.521  12.416
36365W        W 4770  11.230  13.308  12.985
36366W        W 4771  15.862  10.143   4.197
36367W        W 4772   9.140  16.781   3.124
36368W        W 4773  28.873  34.448  11.367
36369W        W 4774  15.298   2.839  13.033
36370W        W 4775   2.323  41.193  14.831
36371W        W 4776  44.344  22.024  11.609
36372W        W 4777  28.041  37.839   3.241
36373W        W 4778   2.037  23.728   1.712
36374W        W 4779  32.145  10.048  12.572
36375W        W 4780  14.451  32.064   0.747
36376W        W 4781   8.461  12.289  11.016
36377W        W 4782   3.046  16.126  12.986
36378W        W 4783   2.713   5.113   0.946
36379W        W 4784  42.277  32.006  14.689
36380W        W 4785  10.813  27.195   3.274
36381W        W 4786   7.302  29.723  14.411
36382W        W 4787   2.223   6.237   1.959
36383W        W 4788   9.271  17.116  13.567
36384W        W 4789   0.348  14.022   4.534
36385W        W 4790  23.273   8.047  11.023
36386W        W 4791  12.708  28.035  12.270
36387W        W 4792  21.154  22.960  11.395
36388W        W 4793  29.442  20.208  10.726
36389W        W 4794  39.553   2.585   0.714
36390W        W 4795   0.864  22.105   3.483
36391W        W 4796   8.744  21.196  12.875
36392W        W 4797  17.518  13.399   3.134
36393W        W 4798   4.969  38.494   2.584
36394W        W 4799  28.361  16.003  11.658
36395W        W 4800  16.165  10.320   1.314
36396W        W 4801  19.088   5.790   0.920
36397W        W 4802  15.836  21.492  13.904
36398W        W 4803  35.369  11.836  11.718
36399W        W 4804  19.794  36.410   3.819
36400W        W 4805  18.599  43.763   3.358
36401W        W 4806  28.237  35.022   5.007
36402W        W 4807  36.817  25.974  12.548
36403W        W 4808  24.195   9.400  12.012
36404W        W 4809  42.964   3.984  12.073
36405W        W 4810  23.369   1.558   0.100
36406W        W 4811   0.092   1.126  11.180
36407W        W 4812  33.074  28.904  13.529
36408W        W 4813  32.949   9.883  14.456
36409W        W 4814  37.137  35.811   1.417
36410W        W 4815  32.524   3.286  12.714
36411W        W 4816  42.259  15.766   3.070
36412W        W 4817  20.283  17.655  14.335
36413W        W 4818  17.832   6.349   3.207
36414W        W 4819  16.637   5.333  14.244
36415W        W 4820   9.212   3.916  10.838
36416W        W 4821  15.736  39.798  14.017
36417W        W 4822   9.199  19.323  11.086
36418W        W 4823  22.226  14.251   3.294
36419W        W 4824  26.147   5.884   3.169
36420W        W 4825  19.936   8.472  14.823
36421W        W 4826  18.628  14.924  10.664
36422W        W 4827  28.063  22.516  11.601
36423W        W 4828  44.301  22.408  11.249
36424W        W 4829   3.514   0.724   3.620
36425W        W 4830  35.459  18.205  13.866
36426W        W 4831  35.601   1.225   1.852
36427W        W 4832  29.167  39.425  12.341
36428W        W 4833   5.030  28.617  10.834
36429W        W 4834  14.101  13.400   1.303
36430W        W 4835   3.343  18.123  11.068
36431W        W 4836  25.899  30.936  12.983
36432W        W 4837  21.357  12.286  12.038
36433W        W 4838   7.413  15.225  13.360
36434W        W 4839  21.906   4.591   2.771
36435W        W 4840   7.269  13.597  11.517
36436W        W 4841   2.730  19.807  13.348
36437W        W 4842   9.657   8.626   4.215
36438W        W 4843   9.393  34.206  13.810
36439W        W 4844  40.367  22.692  11.486
36440W        W 4845  14.713  34.490  13.967
36441W        W 4846  26.615  24.791   1.690
36442W        W 4847  44.660  39.699  12.599
36443W        W 4848  12.818  33.352   4.139
36444W        W 4849  39.074  35.179  11.699
36445W        W 4850  35.230  23.323   2.415
36446W        W 4851  16.982  28.178  12.553
36447W        W 4852  26.614  27.862   0.868
36448W        W 4853  22.933   4.229  11.648
36449W        W 4854  21.709   6.494   2.724
36450W        W 4855  41.417   0.890  12.523
36451W        W 4856  23.565  22.695  11.154
36452W        W 4857  23.875  33.096   3.289
36453W        W 4858   3.848  34.116  13.536
36454W        W 4859   1.180  38.901   4.072
36455W        W 4860  25.622  20.059  12.452
36456W        W 4861  26.064   6.866  13.928
36457W        W 4862   0.506  14.178  12.417
36458W        W 4863  22.203  40.097  14.858
36459W        W 4864  32.582  38.309   2.774
36460W        W 4865  25.098  29.991   4.127
36461W        W 4866  23.352  18.553  14.376
36462W        W 4867  16.767  11.055  12.484
36463W        W 4868  28.961  18.734  14.393
36464W        W 4869  33.137  16.574  11.463
36465W        W 4870  42.260   8.272  13.416
36466W        W 4871  32.624  23.010  13.849
36467W        W 4872   6.068  27.354   2.320
36468W        W 4873  24.263  42.727   2.166
36469W        W 4874  30.675  41.399  12.824
36470W        W 4875  19.224  26.919  14.768
36471W        W 4876  22.847  22.564  14.564
36472W        W 4877  19.045  42.046   3.594
36473W        W 4878  28.717   3.641   4.406
36474W        W 4879   4.281  19.082  12.096
36475W        W 4880  30.688  21.219  12.774
36476W        W 4881   5.219  36.474   3.642
36477W        W 4882  14.290   4.829   2.699
36478W        W 4883  35.443  30.338  14.654
36479W        W 4884  39.040   1.466  14.831
36480W        W 4885  22.065  38.451   2.926
36481W        W 4886  22.991   7.712   2.759
36482W        W 4887   0.311  26.470   3.691
36483W        W 4888  29.941   0.887  14.817
36484W        W 4889  20.574  17.206  12.181
36485W        W 4890  40.210  43.402  10.444
36486W        W 4891   0.769  32.813  11.521
36487W        W 4892  16.005  24.524  12.545
36488W        W 4893  20.153   6.850  13.170
36489W        W 4894  41.865  10.384   0.725
36490W        W 4895  12.311  12.372   0.921
36491W        W 4896  35.672  41.820   2.526
36492W        W 4897  37.279  24.037   5.072
36493W        W 4898  26.564  34.107  10.903
36494W        W 4899   6.716  32.394   2.288
36495W        W 4900  28.687   1.835   1.957
36496W        W 4901  27.560  34.420   1.919
36497W        W 4902   6.296   9.416   3.654
36498W        W 4903  21.492  18.762  11.156
36499W        W 4904  34.389  27.019   2.462
36500W        W 4905  33.310  22.705   0.264
36501W        W 4906  11.548  25.668   4.130
36502W        W 4907   8.010  25.558  12.682
36503W        W 4908  44.782  33.595   2.004
36504W        W 4909   8.277  37.910   0.759
36505W        W 4910  28.419  19.987  10.770
36506W        W 4911   3.836   5.260   4.104
36507W        W 4912  41.263  44.987  10.811
36508W        W 4913  11.189   0.227  10.199
36509W        W 4914  28.947  15.193  10.729
36510W        W 4915   8.612   0.655  14.427
36511W        W 4916  12.393  19.243   3.523
36512W        W 4917   4.867   1.306  10.140
36513W        W 4918  37.367  42.034  10.604
36514W        W 4919  44.363   1.305  14.850
36515W        W 4920   5.374  15.261  12.143
36516W        W 4921  18.069  27.617  13.429
36517W        W 4922   6.985  26.266   0.951
36518W        W 4923  42.946  30.134   4.563
36519W        W 4924  26.198   7.878  14.018
36520W        W 4925   0.934  37.840  14.333
36521W        W 4926   4.349  36.116  11.202
36522W        W 4927  31.891   0.226  14.147
36523W        W 4928   5.189  44.041   1.808
36524W        W 4929  11.775  23.600   4.236
36525W        W 4930  33.522  20.302   3.304
36526W        W 4931  44.377  23.327   0.459
36527W        W 4932  27.852   2.985  11.472
36528W        W 4933  12.118  22.301  12.886
36529W        W 4934  17.327   6.459  11.759
36530W        W 4935  38.159  21.168   3.847
36531W        W 4936  25.194  29.130  12.689
36532W        W 4937  18.554   7.456  13.385
36533W        W 4938  20.305  20.252   0.857
36534W        W 4939  16.803  19.909   4.839
36535W        W 4940  20.702  35.338   2.364
36536W        W 4941  21.373   5.368  14.317
36537W        W 4942   3.754  22.557  14.229
36538W        W 4943  39.237  42.973  14.235
36539W        W 4944  38.997  39.852  12.921
36540W        W 4945  34.083  29.092  14.287
36541W        W 4946  17.983  22.834   1.541
36542W        W 4947  34.017  33.603   0.403
36543W        W 4948  23.050   1.745   2.656
36544W        W 4949  12.174  44.030   3.495
36545W        W 4950  21.001  29.918   0.229
36546W        W 4951   9.742   6.948   2.958
36547W        W 4952  43.004  34.655  14.818
36548W        W 4953  40.870   4.573  14.640
36549W        W 4954  40.430  29.843   2.237
36550W        W 4955  26.082  23.234   3.324
36551W        W 4956  38.995   7.150   2.184
36552W        W 4957   9.273  19.760   2.165
36553W        W 4958  19.245  24.556   0.488
36554W        W 4959  43.762   2.787   3.780
36555W        W 4960   4.350  37.702   1.320
36556W        W 4961  10.595  14.342  14.750
36557W        W 4962  23.413   5.927   3.256
36558W        W 4963  26.997  13.722   0.023
36559W        W 4964  23.799  11.717  13.105
36560W        W 4965  38.023  17.661  14.477
36561W        W 4966  18.318  12.233   2.341
36562W        W 4967  42.170  21.470   4.918
36563W        W 4968  29.016  43.681   2.200
36564W        W 4969   4.491  42.529  12.557
36565W        W 4970  22.714  43.144  12.164
36566W        W 4971  27.046  19.534   2.149
36567W        W 4972  34.631  30.901  11.100
36568W        W 4973   6.285  13.538   0.365
36569W        W 4974  18.236   7.688  13.980
36570W        W 4975  29.379  15.203   1.957
36571W        W 4976   1.187  37.278  12.019
36572W        W 4977   7.139  25.043   3.351
36573W        W 4978  38.868  31.342   0.875
36574W        W 4979  16.718  37.906  11.153
36575W        W 4980  14.372   5.491   2.190
36576W        W 4981  43.565  35.794   5.121
36577W        W 4982  14.262  16.419   2.899
36578W        W 4983   8.837  30.475   0.347
36579W        W 4984   6.234  38.963   0.340
36580W        W 4985  35.490  13.680   3.679
36581W        W 4986  13.739  18.997   0.799
36582W        W 4987   9.964  31.131   1.792
36583W        W 4988  10.704  17.951   0.284
36584W        W 4989   9.374  26.775   3.220
36585W        W 4990   2.200   6.852  13.302
36586W        W 4991  28.592   8.885   4.162
36587W        W 4992  16.725   6.015   0.804
36588W        W 4993  28.046  34.999  10.500
36589W        W 4994  34.499   5.343  12.063
36590W        W 4995  17.540  30.513   3.677
36591W        W 4996  16.306  21.659  12.953
36592W        W 4997   7.770  32.936   4.695
36593W        W 4998  38.590   3.379   2.808
36594W        W 4999   8.157  24.017  10.856
36595W        W 5000  44.948  15.691  13.267
36596W        W 5001  37.305   4.221   2.168
36597W        W 5002  44.331   9.450   0.855
36598W        W 5003  27.168   3.389   1.600
36599W        W 5004   6.976  31.096   1.077
36600W        W 5005  40.745  17.262   4.679
36601W        W 5006  33.443  41.069  12.566
36602W        W 5007  18.403   3.665   3.169
36603W        W 5008  35.150  22.918  12.637
36604W        W 5009  34.581  40.814  14.024
36605W        W 5010   3.778  41.510  12.467
36606W        W 5011  30.045  43.207   3.782
36607W        W 5012  24.112   5.945   1.484
36608W        W 5013   3.770  28.230   2.903
36609W        W 5014   6.389  26.989  13.285
36610W        W 5015  40.300  44.760   2.449
36611W        W 5016   5.903  19.335   2.810
36612W        W 5017  18.169  30.346   2.337
36613W        W 5018  37.068  28.528  10.534
36614W        W 5019   6.147  13.312   4.734
36615W        W 5020  33.516  41.545   0.418
36616W        W 5021  14.297  16.904   3.110
36617W        W 5022  35.576  39.935  11.881
36618W        W 5023  26.002  17.277  10.039
36619W        W 5024  25.067   2.435   2.839
36620W        W 5025   1.675  36.540   1.005
36621W        W 5026  42.533  14.922   2.206
36622W        W 5027   3.557  20.702   1.875
36623W        W 5028  36.912  34.422  11.518
36624W        W 5029  41.799  30.977  14.491
36625W        W 5030   8.431  11.784  12.885
36626W        W 5031  19.600  21.798  10.602
36627W        W 5032  32.621  11.279   2.612
36628W        W 5033   8.414  12.679   0.862
36629W        W 5034   8.066  10.974   0.446
36630W        W 5035  31.075  43.318  13.496
36631W        W 5036  18.653  34.938   4.049
36632W        W 5037  38.221   2.757   2.819
36633W        W 5038  28.489  38.652   3.155
36634W        W 5039  37.994  12.093   2.331
36635W        W 5040  36.966  21.199  10.769
36636W        W 5041  39.278   2.226   2.074
36637W        W 5042  40.876  29.143   1.638
36638W        W 5043  22.500  42.408   3.633
36639W        W 5044   2.852   6.664   0.710
36640W        W 5045   9.775  39.136  13.537
36641W        W 5046   9.251  30.372   2.237
36642W        W 5047  20.191  16.864  12.415
36643W        W 5048  32.131  14.328   2.923
36644W        W 5049  23.977  19.203  14.321
36645W        W 5050  31.418  26.719  12.513
36646W        W 5051  33.616   0.790  11.612
36647W        W 5052  18.630  25.884   4.084
36648W        W 5053  16.149  44.258   0.755
36649W        W 5054  18.368  31.926  11.608
36650W        W 5055  24.913  29.505   2.239
36651W        W 5056   3.218  31.367   3.475
36652W        W 5057  28.934  26.254  10.767
36653W        W 5058  25.636   0.558  13.875
36654W        W 5059  17.399  21.551   0.454
36655W        W 5060  16.161  33.396   0.196
36656W        W 5061   5.148   0.883  11.680
36657W        W 5062   2.921  10.929   5.040
36658W        W 5063  18.736  21.219   2.149
36659W        W 5064  39.927  10.286   1.023
36660W        W 5065  42.731  27.169  13.069
36661W        W 5066  19.493  28.634  10.821
36662W        W 5067  24.498  38.607  14.524
36663W        W 5068  40.392   0.458   1.630
36664W        W 5069  39.143  12.769   4.883
36665W        W 5070  44.622  16.202   1.261
36666W        W 5071  31.822  40.890   3.761
36667W        W 5072   2.765  23.065  14.642
36668W        W 5073  27.491  33.749  14.842
36669W        W 5074  32.618   3.290   0.476
36670W        W 5075   1.813  13.184  13.917
36671W        W 5076  19.218  40.081   2.941
36672W        W 5077  22.068  25.922   3.818
36673W        W 5078  32.350  24.714  12.166
36674W        W 5079   3.295  26.077  12.823
36675W        W 5080  38.867   9.801  12.179
36676W        W 5081   9.917   0.351   3.256
36677W        W 5082  43.557  12.696  10.887
36678W        W 5083  17.653   7.319  13.977
36679W        W 5084   9.801  40.062   1.765
36680W        W 5085  40.470  33.164   5.066
36681W        W 5086  29.909  23.234  11.334
36682W        W 5087   6.351  15.647  13.959
36683W        W 5088  24.850  13.346   0.320
36684W        W 5089  34.719  40.818  10.989
36685W        W 5090   8.262  43.937   4.117
36686W        W 5091  40.501   0.524  14.488
36687W        W 5092  31.061  15.759  11.192
36688W        W 5093  20.727  29.082   0.182
36689W        W 5094  41.825  29.941   2.338
36690W        W 5095   1.606  26.575  12.405
36691W        W 5096  38.154  33.437  14.706
36692W        W 5097   9.622  43.724  13.871
36693W        W 5098  35.458  17.264   1.876
36694W        W 5099  10.560  34.776  14.945
36695W        W 5100  32.424  35.925  14.506
36696W        W 5101  13.150   8.009   0.806
36697W        W 5102  10.943  36.510   1.278
36698W        W 5103  28.507   5.825   1.297
36699W        W 5104  28.127  14.306  14.901
36700W        W 5105  28.965  27.144  10.707
36701W        W 5106   3.695  25.238   0.110
36702W        W 5107  27.773  29.583   1.438
36703W        W 5108   8.199  10.063   0.851
36704W        W 5109  16.971  35.015  13.906
36705W        W 5110   0.229  24.557   3.750
36706W        W 5111  35.561  43.265  13.550
36707W        W 5112  40.607  34.942  10.619
36708W        W 5113  11.124  41.197   2.703
36709W        W 5114  22.856   0.321  12.128
36710W        W 5115  27.703   6.366  10.642
36711W        W 5116   9.334  11.550  11.623
36712W        W 5117  23.030   2.420   0.886
36713W        W 5118  22.815  10.698   3.437
36714W        W 5119  41.022   5.537   1.846
36715W        W 5120  33.736  14.934   3.204
36716W        W 5121  31.532   9.794   3.038
36717W        W 5122  36.820   0.157   3.159
36718W        W 5123  28.421  36.119   0.816
36719W        W 5124  20.876  17.341  13.988
36720W        W 5125   4.373   0.416   2.918
36721W        W 5126  29.145  30.886  10.740
36722W        W 5127  32.635  16.123   2.188
36723W        W 5128  32.431  28.446   0.561
36724W        W 5129  19.949   2.702  13.591
36725W        W 5130   5.124   1.297   2.328
36726W        W 5131   2.336  42.541   3.634
36727W        W 5132  10.615   8.071  14.057
36728W        W 5133   4.685  25.609   1.366
36729W        W 5134  44.326  28.430  10.366
36730W        W 5135  40.362   1.498   2.481
36731W        W 5136  33.646   9.538  11.010
36732W        W 5137  37.388  18.703  14.227
36733W        W 5138  17.046   3.814   2.255
36734W        W 5139  24.114  44.072   1.798
36735W        W 5140  29.503   7.853   1.867
36736W        W 5141   3.964  31.734   1.369
36737W        W 5142   3.698  34.912  14.502
36738W        W 5143  25.038  11.322   2.876
36739W        W 5144  21.706  20.686  10.565
36740W        W 5145  21.540  14.323   4.940
36741W        W 5146  37.044   3.780   0.934
36742W        W 5147  31.233  36.427   2.507
36743W        W 5148  29.173  34.027   3.947
36744W        W 5149   1.273  22.609   2.864
36745W        W 5150  36.010  12.900  14.356
36746W        W 5151  25.129  17.734  11.390
36747W        W 5152  21.092  35.567  13.340
36748W        W 5153  20.527  29.974  14.727
36749W        W 5154  33.562  23.703  10.576
36750W        W 5155  40.051  43.587  11.248
36751W        W 5156  15.584   9.723   3.237
36752W        W 5157  38.756  42.867  12.190
36753W        W 5158  33.089   1.128  10.764
36754W        W 5159  37.256  20.783   0.187
36755W        W 5160  25.542  34.359   3.551
36756W        W 5161  44.338  42.915   1.464
36757W        W 5162  11.252   9.937  12.413
36758W        W 5163   1.325  25.453  11.889
36759W        W 5164   4.017  26.523   2.393
36760W        W 5165  41.807  18.643   3.744
36761W        W 5166   7.112  16.765   2.218
36762W        W 5167  28.651   5.829  14.447
36763W        W 5168   7.461   7.374   4.851
36764W        W 5169   7.213  13.651   2.777
36765W        W 5170  10.180  43.859  14.435
36766W        W 5171  23.080  11.165   2.282
36767W        W 5172  31.654  17.143   4.976
36768W        W 5173   5.449  36.823   2.611
36769W        W 5174  34.554  23.251  12.016
36770W        W 5175  12.096  44.299   1.726
36771W        W 5176  24.525  31.897  11.559
36772W        W 5177  34.416  12.357   1.817
36773W        W 5178  28.395  10.082   2.629
36774W        W 5179  39.587  30.370   1.443
36775W        W 5180  25.001  24.827   2.195
36776W        W 5181  40.350  39.464  12.011
36777W        W 5182   8.345  14.897  10.218
36778W        W 5183  37.254  23.959   3.128
36779W        W 5184   2.349  38.024   4.066
36780W        W 5185  40.522  17.959  10.127
36781W        W 5186  30.896  19.352   5.051
36782W        W 5187  14.664  12.010   0.437
36783W        W 5188  36.374  26.970  10.479
36784W        W 5189   5.245  10.357  11.916
36785W        W 5190   0.744  10.833   2.233
36786W        W 5191  44.883   8.638   3.243
36787W        W 5192  35.958   7.791   5.030
36788W        W 5193  44.192  20.534  11.697
36789W        W 5194  25.407  29.622   2.302
36790W        W 5195  40.137  33.068   1.360
36791W        W 5196  39.221  12.866   0.231
36792W        W 5197   4.311  41.276   2.277
36793W        W 5198   0.937   8.102  11.254
36794W        W 5199  32.024  25.512   2.651
36795W        W 5200   5.391  37.442   4.403
36796W        W 5201   2.849  32.629  11.458
36797W        W 5202  16.018  30.533   4.638
36798W        W 5203  12.677  43.429   3.752
36799W        W 5204  17.804  39.067   4.412
36800W        W 5205   9.110  36.923  13.392
36801W        W 5206  36.964  42.116   2.849
36802W        W 5207  44.973  15.462   4.539
36803W        W 5208   0.067  20.062  12.731
36804W        W 5209  34.218  36.519   2.534
36805W        W 5210  24.548  19.753  11.859
36806W        W 5211   6.184  29.456   4.990
36807W        W 5212   4.616  18.271  12.322
36808W        W 5213  25.449   6.800  10.354
36809W        W 5214  22.051  36.415  12.724
36810W        W 5215   5.870  27.599   0.299
36811W        W 5216  21.069  18.490   2.118
36812W        W 5217   4.852  11.225   0.618
36813W        W 5218  27.978  31.160   0.891
36814W        W 5219  16.195  44.402   4.270
36815W        W 5220  12.169  18.396   2.848
36816W        W 5221  13.681   6.297   3.731
36817W        W 5222  44.311  40.326   3.951
36818W        W 5223  18.808  38.043  11.825
36819W        W 5224  17.511   0.679  11.491
36820W        W 5225  26.479  24.759   0.671
36821W        W 5226  15.485   8.316   3.212
36822W        W 5227   5.413   0.696   2.690
36823W        W 5228  38.382  43.611  14.844
36824W        W 5229  41.456   5.242   2.695
36825W        W 5230  33.413   2.489   9.995
36826W        W 5231   5.739  14.518  12.437
36827W        W 5232  36.421  35.365   1.751
36828W        W 5233  17.896  14.990  12.965
36829W        W 5234  38.055  19.774  14.504
36830W        W 5235  24.718   3.392  10.473
36831W        W 5236  36.664  15.231   3.417
36832W        W 5237  43.055   7.978   2.071
36833W        W 5238  40.321   8.669   3.568
36834W        W 5239   7.350  15.451  14.114
36835W        W 5240   0.410  12.705   3.238
36836W        W 5241   8.267   7.829  12.205
36837W        W 5242   5.063   9.846  12.619
36838W        W 5243  42.394   1.742   0.187
36839W        W 5244  14.632  23.437  10.463
36840W        W 5245   5.112  20.205   1.398
36841W        W 5246  21.953   6.890  12.884
36842W        W 5247  31.625   4.345  14.543
36843W        W 5248  25.022   5.219  13.908
36844W        W 5249   9.427  23.195   3.671
36845W        W 5250  16.563  24.650  11.666
36846W        W 5251  32.657  16.058  14.417
36847W        W 5252  35.392   6.768  10.509
36848W        W 5253  31.532  44.047   4.624
36849W        W 5254   6.311   6.710  12.383
36850W        W 5255  27.859   4.418  11.486
36851W        W 5256  12.159  15.065   5.491
36852W        W 5257  36.097  32.442   1.270
36853W        W 5258  41.537   2.958   1.397
36854W        W 5259   1.432  10.979   2.689
36855W        W 5260  41.868   7.508   0.908
36856W        W 5261  24.350  11.558  11.998
36857W        W 5262  42.461  36.143   4.477
36858W        W 5263  27.923  24.742   1.836
36859W        W 5264  42.261   9.541   0.525
36860W        W 5265  19.013  24.758  12.518
36861W        W 5266  20.230  19.141   2.003
36862W        W 5267  19.312  28.959   3.198
36863W        W 5268   3.813  12.126  12.737
36864W        W 5269  37.497  22.248   3.244
36865W        W 5270  27.491  12.837  14.821
36866W        W 5271  12.536  16.779  13.553
36867W        W 5272  23.477   2.858   0.981
36868W        W 5273   9.977  20.828   2.903
36869W        W 5274   7.429  15.940  13.987
36870W        W 5275  34.475  27.549   3.822
36871W        W 5276  25.129  28.476  12.925
36872W        W 5277   2.162  42.250   4.005
36873W        W 5278  37.326  34.096  14.727
36874W        W 5279  15.149  41.878  10.971
36875W        W 5280   6.739  29.238  14.944
36876W        W 5281  42.819  35.568   2.199
36877W        W 5282   8.870  34.354  13.608
36878W        W 5283  18.177  36.284  11.421
36879W        W 5284   3.834   8.452   1.756
36880W        W 5285   0.550  12.101  11.108
36881W        W 5286   7.411  27.804  12.425
36882W        W 5287  23.684  29.168   2.407
36883W        W 5288  37.559  44.473   4.095
36884W        W 5289  17.303  33.988   3.175
36885W        W 5290  24.849  17.242  13.055
36886W        W 5291  37.001   4.981   1.691
36887W        W 5292  37.791  15.588  10.949
36888W        W 5293  38.854  10.701  14.718
36889W        W 5294   7.120  26.024  12.517
36890W        W 5295  38.408   6.730   3.644
36891W        W 5296  32.634  19.775   3.184
36892W        W 5297  17.740   7.123   4.912
36893W        W 5298  21.651  11.956  10.734
36894W        W 5299  39.866  22.565  11.405
36895W        W 5300   5.989  25.463  12.128
36896W        W 5301  25.496   3.178  10.481
36897W        W 5302  28.517  29.921   3.615
36898W        W 5303  16.509  20.814  10.622
36899W        W 5304  39.282   8.477   2.628
36900W        W 5305   1.937  18.968   1.169
36901W        W 5306  25.633  32.467  14.884
36902W        W 5307  26.275   8.400  12.954
36903W        W 5308   0.285  14.482   4.262
36904W        W 5309  40.482  27.605   1.218
36905W        W 5310  12.749  32.595  11.050
36906W        W 5311  22.791  17.237  14.954
36907W        W 5312   5.038  24.353  11.137
36908W        W 5313   9.900   0.799   2.312
36909W        W 5314  33.425   0.262   0.326
36910W        W 5315  24.597  27.057  14.525
36911W        W 5316  15.714  19.480   2.248
36912W        W 5317  25.142  18.512   2.820
36913W        W 5318  17.156  26.057   4.678
36914W        W 5319  31.626  44.822   0.379
36915W        W 5320  13.757  32.985   5.377
36916W        W 5321  10.165  39.841  14.960
36917W        W 5322   7.125  33.599   0.972
36918W        W 5323  35.243  12.153  14.325
36919W        W 5324  31.366  37.965   0.911
36920W        W 5325  10.409  40.199   3.659
36921W        W 5326  44.637  31.155  12.121
36922W        W 5327   9.251   7.365  14.346
36923W        W 5328   4.804   7.910  12.363
36924W        W 5329  12.811  12.624  14.348
36925W        W 5330  11.400  22.980   1.186
36926W        W 5331  12.203  27.274   4.070
36927W        W 5332  33.413  36.013   3.884
36928W        W 5333   0.714  32.305  11.438
36929W        W 5334  32.921  38.041   2.451
36930W        W 5335  23.789  25.445   2.675
36931W        W 5336   7.223  12.978   4.995
36932W        W 5337  35.224  25.710   0.900
36933W        W 5338  27.491   9.565   0.808
36934W        W 5339   1.026  22.748  10.713
36935W        W 5340  26.173   7.823  12.176
36936W        W 5341  20.963  15.348   2.647
36937W        W 5342  44.507  27.016  10.159
36938W        W 5343   0.820  41.783   0.776
36939W        W 5344   8.698  18.366  10.290
36940W        W 5345  34.525  22.750  10.674
36941W        W 5346  38.388   2.493  14.389
36942W        W 5347  25.845  42.329  11.122
36943W        W 5348   3.428   4.916  10.707
36944W        W 5349  42.107   3.374   2.294
36945W        W 5350  39.633  24.539  13.379
36946W        W 5351  31.616  33.494   0.558
36947W        W 5352  42.791  36.167   1.639
36948W        W 5353  40.495   3.418   1.147
36949W        W 5354  19.023  34.044   4.594
36950W        W 5355   5.430  14.428  14.097
36951W        W 5356  30.964  15.680   1.270
36952W        W 5357  20.623   7.883   2.294
36953W        W 5358   1.308  21.507  13.516
36954W        W 5359   3.216  10.076   1.511
36955W        W 5360  23.961  42.256   4.033
36956W        W 5361  26.069  30.399   4.251
36957W        W 5362  25.724   4.600   3.337
36958W        W 5363  39.894  29.044   3.694
36959W        W 5364  15.820  18.293   1.934
36960W        W 5365  12.201  40.042   0.319
36961W        W 5366  40.699  41.274   2.589
36962W        W 5367  43.319   7.197   1.885
36963W        W 5368  12.801  39.239   0.439
36964W        W 5369  31.650   9.628  11.974
36965W        W 5370  40.918  12.491  12.831
36966W        W 5371  44.299  28.881  10.609
36967W        W 5372   1.636  26.790  10.752
36968W        W 5373  29.587  37.335  11.703
36969W        W 5374   5.321  22.571   1.541
36970W        W 5375  44.657  11.583  10.982
36971W        W 5376  25.561   2.193   2.764
36972W        W 5377  22.234  24.741  12.044
36973W        W 5378   3.658  30.591  14.566
36974W        W 5379  27.086  12.131   2.288
36975W        W 5380  21.956  11.076  11.081
36976W        W 5381   7.437  13.848  11.971
36977W        W 5382  32.060  31.585  14.208
36978W        W 5383  16.098  12.623   2.280
36979W        W 5384  34.381  43.341   3.250
36980W        W 5385   6.873  22.633  13.819
36981W        W 5386  31.116  15.544   3.188
36982W        W 5387   0.299  10.582   4.361
36983W        W 5388  27.805   9.238  13.227
36984W        W 5389  20.165  35.351  11.937
36985W        W 5390  29.015  38.509   2.498
36986W        W 5391  27.459   2.232  10.651
36987W        W 5392  21.030  34.888  14.369
36988W        W 5393  33.619  42.918   0.209
36989W        W 5394  29.970  40.834  13.888
36990W        W 5395  20.694   3.018  14.663
36991W        W 5396  36.803  18.513   3.280
36992W        W 5397  39.773  22.870   0.419
36993W        W 5398  28.157  35.512  13.430
36994W        W 5399  19.298  39.381  12.015
36995W        W 5400  11.657  26.106  14.444
36996W        W 5401  42.917  12.549   3.986
36997W        W 5402  42.484  32.811  13.709
36998W        W 5403   2.436  30.716  12.959
36999W        W 5404  18.191  34.994   3.148
37000W        W 5405  11.065  34.618   2.145
37001W        W 5406  27.576   3.752  12.492
37002W        W 5407  20.599   7.800  12.753
37003W        W 5408  28.723  27.596  13.362
37004W        W 5409  23.014  32.643   0.909
37005W        W 5410  21.756  17.059  11.262
37006W        W 5411  26.019   0.807  14.317
37007W        W 5412  27.027  13.563  12.005
37008W        W 5413  33.024  44.713  14.944
37009W        W 5414  36.023  28.227   0.003
37010W        W 5415  18.115  38.605   3.779
37011W        W 5416  12.632   7.113   3.674
37012W        W 5417   6.121  17.268   1.208
37013W        W 5418  26.651  37.679   1.322
37014W        W 5419  43.761  24.469  12.114
37015W        W 5420   8.708   8.998  11.876
37016W        W 5421  34.568  19.969   2.241
37017W        W 5422  34.557  44.248   2.703
37018W        W 5423   6.130  35.413  10.689
37019W        W 5424  31.602  26.593   3.216
37020W        W 5425   4.441  44.384   0.898
37021W        W 5426  25.998  34.848   4.716
37022W        W 5427   2.327  11.321  11.126
37023W        W 5428  42.705   5.952   0.161
37024W        W 5429  32.565  43.041  14.483
37025W        W 5430  40.027  44.051  12.502
37026W        W 5431   6.083  15.375  12.500
37027W        W 5432   1.085  26.483  11.250
37028W        W 5433  16.867   4.986  13.403
37029W        W 5434   3.981  40.788  14.909
37030W        W 5435  37.416   2.255  14.440
37031W        W 5436   2.776  22.259  13.390
37032W        W 5437   1.011  41.893   3.058
37033W        W 5438  27.798   4.777   2.727
37034W        W 5439  10.774  41.871  14.815
37035W        W 5440  22.204  44.773  12.640
37036W        W 5441  32.863  16.303  11.069
37037W        W 5442  18.317   0.790  11.044
37038W        W 5443  38.996  22.319   4.025
37039W        W 5444  39.406  32.539   1.770
37040W        W 5445  19.502  18.644   2.335
37041W        W 5446  10.744  11.814   0.841
37042W        W 5447   0.534  38.372   4.491
37043W        W 5448  13.295  34.672   0.776
37044W        W 5449  11.460  15.833  13.220
37045W        W 5450  30.598  38.951   3.399
37046W        W 5451  25.999  30.303   0.957
37047W        W 5452   4.730  14.904  11.050
37048W        W 5453  40.726  22.006  11.501
37049W        W 5454  23.729  39.961  12.924
37050W        W 5455  11.665  34.674  12.923
37051W        W 5456  41.229  24.266   1.406
37052W        W 5457  20.031  34.556   2.121
37053W        W 5458  27.263  44.548  14.857
37054W        W 5459   0.439  17.590  11.545
37055W        W 5460  24.026  26.187  13.432
37056W        W 5461  20.156  25.310   1.753
37057W        W 5462  22.657  15.240   3.134
37058W        W 5463   3.513  29.810  12.534
37059W        W 5464  29.012  34.530   4.191
37060W        W 5465  26.565  30.877   3.195
37061W        W 5466  28.062  21.964   1.074
37062W        W 5467  30.533  42.517   1.841
37063W        W 5468  32.238   3.078   3.197
37064W        W 5469  22.292  12.906   1.200
37065W        W 5470  15.155   0.926  14.869
37066W        W 5471  42.614  18.197  10.696
37067W        W 5472  32.539  31.004  13.790
37068W        W 5473  17.704  36.599   0.731
37069W        W 5474  24.539  28.597  12.557
37070W        W 5475  25.121  44.304  14.100
37071W        W 5476  29.924  38.545  14.225
37072W        W 5477  36.507  34.361  13.013
37073W        W 5478   0.258  20.784  14.364
37074W        W 5479  33.394  34.516  10.117
37075W        W 5480  42.016  13.771   1.917
37076W        W 5481  33.740  24.835   2.570
37077W        W 5482   4.510  20.714  11.435
37078W        W 5483   0.651  38.074  14.711
37079W        W 5484  10.433  26.224  10.071
37080W        W 5485  34.174  38.986  12.646
37081W        W 5486  18.744  17.177   0.267
37082W        W 5487  33.672  44.865  11.630
37083W        W 5488  19.309  32.626   3.526
37084W        W 5489  29.442   7.193   0.961
37085W        W 5490  23.989  41.310   4.176
37086W        W 5491  23.457  13.344   0.815
37087W        W 5492  12.769  32.498  10.548
37088W        W 5493  39.288   0.432   3.073
37089W        W 5494  10.464  31.205   1.700
37090W        W 5495   1.820   0.594   3.740
37091W        W 5496  26.684  42.552   2.654
37092W        W 5497   7.411   1.857  13.726
37093W        W 5498  29.211  15.854  11.190
37094W        W 5499   8.511   9.221   1.798
37095W        W 5500  43.442   2.330  12.009
37096W        W 5501  33.188   6.808  14.788
37097W        W 5502  38.219  23.109   2.804
37098W        W 5503   8.705  14.891  12.714
37099W        W 5504  30.658  38.901   3.893
37100W        W 5505  14.823  25.793   3.197
37101W        W 5506  33.578  44.815  13.454
37102W        W 5507   0.708  37.368   1.358
37103W        W 5508   5.464  26.923  13.335
37104W        W 5509  13.331  33.198  12.360
37105W        W 5510  38.515  39.468   3.620
37106W        W 5511  14.262  28.982   1.177
37107W        W 5512  17.608  17.001  14.428
37108W        W 5513   3.901  24.030  10.584
37109W        W 5514  41.793   0.835  10.834
37110W        W 5515  28.949  34.659   0.397
37111W        W 5516  34.745  29.511   2.042
37112W        W 5517  32.672  27.626   4.206
37113W        W 5518  38.110  20.079   0.779
37114W        W 5519  42.855  37.539   4.059
37115W        W 5520  25.566  27.884  11.216
37116W        W 5521  29.897   9.724   3.313
37117W        W 5522  36.894  25.734  12.093
37118W        W 5523  23.735   4.010  13.605
37119W        W 5524  15.341   1.948  10.230
37120W        W 5525  24.957  43.478   4.575
37121W        W 5526  38.112  40.535   4.572
37122W        W 5527  25.001  39.831   2.681
37123W        W 5528  43.320  19.738   2.173
37124W        W 5529  29.198  39.328  11.827
37125W        W 5530  40.726  24.075   1.350
37126W        W 5531  39.419  41.333  14.959
37127W        W 5532  36.492  41.552  14.248
37128W        W 5533  23.329  31.999   3.246
37129W        W 5534  16.710  27.136   1.884
37130W        W 5535  34.396  12.866  10.720
37131W        W 5536  21.234  29.232  13.858
37132W        W 5537  16.635  24.659   0.321
37133W        W 5538  20.157  18.674  13.031
37134W        W 5539  22.218  10.134  11.952
37135W        W 5540   9.441  20.416   1.400
37136W        W 5541  20.236  17.516   0.772
37137W        W 5542  18.338  19.312  13.050
37138W        W 5543  11.847  39.874   1.440
37139W        W 5544  19.314  30.002  12.931
37140W        W 5545  20.979  24.700   0.277
37141W        W 5546  30.887  43.046  11.505
37142W        W 5547  10.123   4.809  13.484
37143W        W 5548  11.008  41.425  10.725
37144W        W 5549  37.892  39.954   1.389
37145W        W 5550  24.401  21.400   0.808
37146W        W 5551   2.298  20.092   0.888
37147W        W 5552  30.242   8.281   2.604
37148W        W 5553  35.268  20.275  13.116
37149W        W 5554   7.831  38.592  12.936
37150W        W 5555  14.537  39.099  12.393
37151W        W 5556  16.417  30.000  11.426
37152W        W 5557  40.890   6.770  11.028
37153W        W 5558  32.756   7.186   1.700
37154W        W 5559  26.408   0.590  13.427
37155W        W 5560  21.120  28.609  10.968
37156W        W 5561  27.688  29.568   2.321
37157W        W 5562  26.806   6.371   4.122
37158W        W 5563  14.227   7.152   1.125
37159W        W 5564  23.441  20.665   3.355
37160W        W 5565  22.133  44.692  13.151
37161W        W 5566  39.714   8.767  12.033
37162W        W 5567  11.262  35.345  11.397
37163W        W 5568  26.323   4.975  14.866
37164W        W 5569  26.025  18.120  14.984
37165W        W 5570  40.245  14.540   3.708
37166W        W 5571  35.961  36.589   3.718
37167W        W 5572  14.804   4.327  14.863
37168W        W 5573  21.756   8.258  13.882
37169W        W 5574  17.369  14.166  10.664
37170W        W 5575  22.596  29.419   2.816
37171W        W 5576  38.490  24.933   2.306
37172W        W 5577   5.838  25.899  11.212
37173W        W 5578  26.084  38.836  14.072
37174W        W 5579  15.708   5.271  12.371
37175W        W 5580  44.541  31.640  10.941
37176W        W 5581  33.004  16.860   3.778
37177W        W 5582  37.050  24.224  11.876
37178W        W 5583  33.832  43.834  14.460
37179W        W 5584  39.994  20.418  12.488
37180W        W 5585  13.364   5.728  14.789
37181W        W 5586   3.694  22.127   2.239
37182W        W 5587  12.928  16.420  11.752
37183W        W 5588  19.584  17.777   4.170
37184W        W 5589  29.416  10.805   1.408
37185W        W 5590  16.259   8.174  13.692
37186W        W 5591  34.937   9.730   0.696
37187W        W 5592  17.853  26.045   1.307
37188W        W 5593  24.723  40.426   1.997
37189W        W 5594  36.549   3.493  12.424
37190W        W 5595   0.231  39.894   2.724
37191W        W 5596  28.544  28.270  12.397
37192W        W 5597   0.007   6.434   2.218
37193W        W 5598  43.326  38.935   0.448
37194W        W 5599  41.522  18.538  12.884
37195W        W 5600  35.011  33.215  11.150
37196W        W 5601   9.819  36.869   4.860
37197W        W 5602  12.806   0.919   2.871
37198W        W 5603   3.810  18.607   0.482
37199W        W 5604   4.462   9.670   0.329
37200W        W 5605   9.819   5.350  14.857
37201W        W 5606   1.735   6.128  12.396
37202W        W 5607   4.827   1.717   1.322
37203W        W 5608  40.295  17.600  12.990
37204W        W 5609  34.333  13.342   2.670
37205W        W 5610  16.081  28.714   1.356
37206W        W 5611  24.567  39.895  11.189
37207W        W 5612  41.511  17.277   3.781
37208W        W 5613  23.566  37.088   2.383
37209W        W 5614  39.879  23.964  12.607
37210W        W 5615  37.978  30.527  10.809
37211W        W 5616  31.752  35.289   2.297
37212W        W 5617  10.364  16.078   4.017
37213W        W 5618   0.915  43.458   3.689
37214W        W 5619  20.512  35.872   3.691
37215W        W 5620  11.103  18.118  14.497
37216W        W 5621  19.857  21.307  13.877
37217W        W 5622  38.513   8.214   0.488
37218W        W 5623  10.634  16.155  14.295
37219W        W 5624  42.779   7.851   1.283
37220W        W 5625   9.120  33.969   3.245
37221W        W 5626  37.039  12.849   2.687
37222W        W 5627  11.839  44.872  14.327
37223W        W 5628  40.274  23.032   0.449
37224W        W 5629   2.871  16.801   2.202
37225W        W 5630  29.681   1.190  12.941
37226W        W 5631   2.691  11.492  11.752
37227W        W 5632  23.564  14.168   1.842
37228W        W 5633   6.192  42.394   2.302
37229W        W 5634   7.637  18.569  12.021
37230W        W 5635  34.447  26.743  12.491
37231W        W 5636  22.560  15.722  12.477
37232W        W 5637  34.971  39.892  14.936
37233W        W 5638   8.660  39.417   4.077
37234W        W 5639  21.085   7.734   1.449
37235W        W 5640  17.975  19.812   4.011
37236W        W 5641  27.638  34.104  14.497
37237W        W 5642  22.859  30.521  10.566
37238W        W 5643  38.994  39.409  14.466
37239W        W 5644  15.260   7.157   0.981
37240W        W 5645   4.570  18.062  13.656
37241W        W 5646  31.792   3.600   5.123
37242W        W 5647  23.594  32.123  11.434
37243W        W 5648   2.290   0.320   0.863
37244W        W 5649  43.210  17.536  11.998
37245W        W 5650  21.175  25.082   4.229
37246W        W 5651  35.349  26.665  12.188
37247W        W 5652  37.519  10.394   1.690
37248W        W 5653  37.082  23.183   0.573
37249W        W 5654   8.015   0.897  12.423
37250W        W 5655   7.985  17.107   2.873
37251W        W 5656  38.145  40.872   2.278
37252W        W 5657   2.056   7.358   3.656
37253W        W 5658  42.571  10.891   3.767
37254W        W 5659   5.704  21.170  13.543
37255W        W 5660  24.222  41.808  14.295
37256W        W 5661  22.210  24.515  10.591
37257W        W 5662  12.162  19.981   0.287
37258W        W 5663  12.145   9.533  14.551
37259W        W 5664  35.986  20.844  13.975
37260W        W 5665  30.498  12.885   4.284
37261W        W 5666  27.527  37.790   0.438
37262W        W 5667   0.016   7.391   0.441
37263W        W 5668  19.547  19.818  13.814
37264W        W 5669  30.578  11.121   1.765
37265W        W 5670  13.839  27.206   1.532
37266W        W 5671   5.722  27.878   2.712
37267W        W 5672  22.797  37.272  11.636
37268W        W 5673  16.787  21.908   3.182
37269W        W 5674  18.206   8.362  14.729
37270W        W 5675  31.797  19.726   2.775
37271W        W 5676  18.581  25.009  12.028
37272W        W 5677  18.043   3.303   3.793
37273W        W 5678  18.485  30.082  12.297
37274W        W 5679  23.822  10.683   0.926
37275W        W 5680  14.281   8.799   0.268
37276W        W 5681   2.971  43.528   1.887
37277W        W 5682  14.163  30.389   0.651
37278W        W 5683  38.850   9.843  13.635
37279W        W 5684  43.450   9.882  12.557
37280W        W 5685  16.816  42.481  10.675
37281W        W 5686   8.616  12.991   0.446
37282W        W 5687  26.499   4.134  11.601
37283W        W 5688  37.806  44.401   4.553
37284W        W 5689  34.845  37.996   1.760
37285W        W 5690  41.535   7.968  12.537
37286W        W 5691  19.942   9.665   0.924
37287W        W 5692  40.502  31.041  13.964
37288W        W 5693   6.861  26.202  12.921
37289W        W 5694  29.419   2.453   2.363
37290W        W 5695  43.750  28.574  13.804
37291W        W 5696  31.071  27.016   0.142
37292W        W 5697  42.557  27.573   4.529
37293W        W 5698  17.041  33.034  11.738
37294W        W 5699  26.648   0.317  13.975
37295W        W 5700  40.753  42.247  13.982
37296W        W 5701  26.688  15.583  11.115
37297W        W 5702  14.406  11.029  13.228
37298W        W 5703  35.170   3.808  13.538
37299W        W 5704  37.898   6.691   3.632
37300W        W 5705  21.262  13.870  14.052
37301W        W 5706  28.831  13.136  14.015
37302W        W 5707  37.632  22.443   2.032
37303W        W 5708  21.333  11.341   3.764
37304W        W 5709  27.530   4.174  11.111
37305W        W 5710   0.243  11.024   2.299
37306W        W 5711  19.598  44.056   2.404
37307W        W 5712  17.050  17.119  10.351
37308W        W 5713  22.097   3.604  12.797
37309W        W 5714   3.953  14.020  12.487
37310W        W 5715  24.141  11.623  10.526
37311W        W 5716  16.090  35.497  10.030
37312W        W 5717   1.272   4.568  14.918
37313W        W 5718  16.786   9.170   1.748
37314W        W 5719  42.975  43.525  10.963
37315W        W 5720  16.920  37.342  14.262
37316W        W 5721   1.481  14.752  13.379
37317W        W 5722  40.342  16.866  11.607
37318W        W 5723  37.461  32.690  10.386
37319W        W 5724   8.776  32.069   2.579
37320W        W 5725  35.448  39.732  10.413
37321W        W 5726   8.666   0.206  11.485
37322W        W 5727  27.153  26.150  14.302
37323W        W 5728  43.039  30.122  13.831
37324W        W 5729  38.589  30.749  11.558
37325W        W 5730  29.976   9.126  10.665
37326W        W 5731  10.752   0.302  11.457
37327W        W 5732  30.961   2.431  13.530
37328W        W 5733  36.551  36.729   1.551
37329W        W 5734   9.699  12.369  10.616
37330W        W 5735  10.744  12.693  11.268
37331W        W 5736  33.859   8.650   0.886
37332W        W 5737  12.792  40.299  12.682
37333W        W 5738  18.168  20.325   4.546
37334W        W 5739  27.477  39.466   0.262
37335W        W 5740  34.449  13.107  11.880
37336W        W 5741  40.809  28.741   1.940
37337W        W 5742   7.162  21.000   1.322
37338W        W 5743  35.615  20.514  13.798
37339W        W 5744  23.704  33.525  11.999
37340W        W 5745   6.817  23.879   2.167
37341W        W 5746  25.696  42.457   4.074
37342W        W 5747   3.812   3.906  10.311
37343W        W 5748  16.153  26.161  10.136
37344W        W 5749  41.467  37.339  14.342
37345W        W 5750  23.607  34.514   1.657
37346W        W 5751  21.183  10.638   0.260
37347W        W 5752   8.536  22.523   2.524
37348W        W 5753  38.300  26.193   3.677
37349W        W 5754  15.910   1.785   0.817
37350W        W 5755   7.729  27.520  13.366
37351W        W 5756   1.906   3.930   1.173
37352W        W 5757   6.806  35.565   4.286
37353W        W 5758  28.058  14.546  12.591
37354W        W 5759  38.972  33.898   0.783
37355W        W 5760  44.923   3.846  11.101
37356W        W 5761  38.332   5.156  12.114
37357W        W 5762  43.564   8.285  13.084
37358W        W 5763   8.974   8.151  12.747
37359W        W 5764  34.525  18.666  13.866
37360W        W 5765  37.775  31.930  13.829
37361W        W 5766   2.741   3.763   0.671
37362W        W 5767  19.745  12.395  13.645
37363W        W 5768  26.555  35.540   4.327
37364W        W 5769  40.494  36.146   2.683
37365W        W 5770  20.612  36.553  12.965
37366W        W 5771   3.686   1.010   1.700
37367W        W 5772  26.969   3.469   0.271
37368W        W 5773  29.701  31.163  12.005
37369W        W 5774  37.075  38.829  12.558
37370W        W 5775   9.112  38.867  11.053
37371W        W 5776  42.033  27.308  12.178
37372W        W 5777  17.178  26.807  10.225
37373W        W 5778  17.751   9.468   4.440
37374W        W 5779  25.254  13.581  11.562
37375W        W 5780  19.981  19.038   3.481
37376W        W 5781   9.237  36.829   0.215
37377W        W 5782  13.756  41.780  14.472
37378W        W 5783  33.545  30.422  11.910
37379W        W 5784  30.441  34.777   3.607
37380W        W 5785  27.614  14.333  13.574
37381W        W 5786  13.259  26.523   0.934
37382W        W 5787  39.434  41.397   2.812
37383W        W 5788   0.948  35.302  14.864
37384W        W 5789  26.109  32.608   0.089
37385W        W 5790   1.713  35.825  10.589
37386W        W 5791   6.787  41.950  11.087
37387W        W 5792  42.002  22.065  13.776
37388W        W 5793  22.146  33.636   0.255
37389W        W 5794  34.378  24.730  13.584
37390W        W 5795  34.674  35.375   2.952
37391W        W 5796  21.057  21.686  14.664
37392W        W 5797  25.920  40.453   4.301
37393W        W 5798  33.432   2.238  14.542
37394W        W 5799  20.568  42.753  14.084
37395W        W 5800  26.007  36.165  11.400
37396W        W 5801   1.334  24.716   3.712
37397W        W 5802  15.931  27.956   3.512
37398W        W 5803  14.061  38.022   2.253
37399W        W 5804   6.970  26.137   1.936
37400W        W 5805  29.046   7.324  10.723
37401W        W 5806  15.888   8.160  14.069
37402W        W 5807  26.692  25.082   4.604
37403W        W 5808  34.078  36.784  13.485
37404W        W 5809  44.833  43.156  12.008
37405W        W 5810  24.207   7.330   0.733
37406W        W 5811  40.307   5.432  13.695
37407W        W 5812  30.041  26.085   4.291
37408W        W 5813  25.823  35.025  14.356
37409W        W 5814  34.101  30.143   2.211
37410W        W 5815  15.508   4.383   5.154
37411W        W 5816  33.201  16.085  13.653
37412W        W 5817  30.955  14.113   4.440
37413W        W 5818  32.366  14.154  12.324
37414W        W 5819   0.182  41.755  11.243
37415W        W 5820  25.556  13.612  11.067
37416W        W 5821   5.672  34.867  12.704
37417W        W 5822   6.092  16.280   0.537
37418W        W 5823  30.347   9.984   3.306
37419W        W 5824   8.367   5.257  13.886
37420W        W 5825   8.230   0.268  12.577
37421W        W 5826   0.293   6.872   4.572
37422W        W 5827  12.606  28.939  12.111
37423W        W 5828  44.347  12.856  14.851
37424W        W 5829  25.973  27.214   1.213
37425W        W 5830  39.933  24.067   3.127
37426W        W 5831  16.310  42.414  11.959
37427W        W 5832   7.988  13.610   3.278
37428W        W 5833  37.125  25.168  14.699
37429W        W 5834   5.491  32.517   4.615
37430W        W 5835  33.343  40.499   0.279
37431W        W 5836   3.760  31.425   1.737
37432W        W 5837  29.655  21.677   0.318
37433W        W 5838   6.752  35.095  11.898
37434W        W 5839  21.126  14.771   2.083
37435W        W 5840   3.608  24.536  13.392
37436W        W 5841  43.535   0.894   1.999
37437W        W 5842   2.465  32.611   0.660
37438W        W 5843   3.125  22.075   2.253
37439W        W 5844  23.390  34.221  13.097
37440W        W 5845   3.454  38.596  14.367
37441W        W 5846  25.681   5.397  10.426
37442W        W 5847  14.018  19.238   2.453
37443W        W 5848  41.836   8.721  11.059
37444W        W 5849  30.659  34.408  12.482
37445W        W 5850  44.336   9.974   1.873
37446W        W 5851  25.548  41.791   0.865
37447W        W 5852  20.520  14.599   0.036
37448W        W 5853  17.980  20.325  13.742
37449W        W 5854   7.928   7.599   3.183
37450W        W 5855  17.950  11.747   1.521
37451W        W 5856  17.858   3.864  11.215
37452W        W 5857  24.520  11.607   2.226
37453W        W 5858   9.178  44.033   4.574
37454W        W 5859  28.115   4.443  13.033
37455W        W 5860  39.898   5.789   1.783
37456W        W 5861  29.674  35.556   4.596
37457W        W 5862  29.720  10.739   1.009
37458W        W 5863  13.298  11.269  14.442
37459W        W 5864  28.495  20.146   4.474
37460W        W 5865  21.603   2.636   1.977
37461W        W 5866  31.876  30.174   0.268
37462W        W 5867   5.281  27.185  14.177
37463W        W 5868  40.822  32.833  12.016
37464W        W 5869   6.998  43.552   1.310
37465W        W 5870  19.942  31.160   3.546
37466W        W 5871   5.792  13.692  10.702
37467W        W 5872  15.736  44.904  12.779
37468W        W 5873  28.951  37.751  13.983
37469W        W 5874  33.058  42.304  14.565
37470W        W 5875  33.135  22.140   1.921
37471W        W 5876  44.482   3.959   1.175
37472W        W 5877   8.075   4.856   1.863
37473W        W 5878   6.393  16.029   1.858
37474W        W 5879  30.452   8.367   1.943
37475W        W 5880  31.623  42.277   1.431
37476W        W 5881  29.890  35.032  13.223
37477W        W 5882  43.064  14.442  13.962
37478W        W 5883  24.907  38.902  11.703
37479W        W 5884   9.837  33.915   0.849
37480W        W 5885   7.493  17.026   3.055
37481W        W 5886  37.951   7.632   0.915
37482W        W 5887  19.486  14.860  12.176
37483W        W 5888  19.315   2.488   4.736
37484W        W 5889  27.068  15.118   1.820
37485W        W 5890  27.090  20.961  14.408
37486W        W 5891  28.475   9.426  10.838
37487W        W 5892  15.261  16.594   1.087
37488W        W 5893   5.297   2.011   3.090
37489W        W 5894   5.169  21.333   2.119
37490W        W 5895  22.294   7.107  14.807
37491W        W 5896   5.951  39.019  13.904
37492W        W 5897  39.846  19.695  14.500
37493W        W 5898  24.684  17.205   0.208
37494W        W 5899  43.367  27.473  14.321
37495W        W 5900  17.783  23.218   0.877
37496W        W 5901  44.468   7.394  12.576
37497W        W 5902  44.563  19.165  11.981
37498W        W 5903  13.115  14.247  12.488
37499W        W 5904  34.130  37.123   5.012
37500W        W 5905  39.761  31.490   1.719
37501W        W 5906  31.637  17.519  10.156
37502W        W 5907   1.266   2.302   0.888
37503W        W 5908  18.391   1.039   2.389
37504W        W 5909  32.057  36.057  11.660
37505W        W 5910  30.029   2.484  12.018
37506W        W 5911  32.495  27.488   3.750
37507W        W 5912  30.409  29.157  12.114
37508W        W 5913  32.005  41.080   2.445
37509W        W 5914   8.614  35.155   3.357
37510W        W 5915  11.933   3.385   3.427
37511W        W 5916  43.472   7.264   3.610
37512W        W 5917  22.834  34.467  13.412
37513W        W 5918   5.321  22.256  10.755
37514W        W 5919   0.907  21.805  13.340
37515W        W 5920   3.786   2.920  12.319
37516W        W 5921  21.850  17.299  13.605
37517W        W 5922  24.325  44.243  10.732
37518W        W 5923  35.295  11.243   1.455
37519W        W 5924  41.169  10.862   0.263
37520W        W 5925  34.022  31.514   2.298
37521W        W 5926   4.455  30.923  12.071
37522W        W 5927   3.232   1.008  12.624
37523W        W 5928  40.798  25.239  12.304
37524W        W 5929  23.032  20.756  10.816
37525W        W 5930  44.589   5.683   4.162
37526W        W 5931  11.716   1.402   0.947
37527W        W 5932   3.076   2.162   2.642
37528W        W 5933  23.360  41.353   3.398
37529W        W 5934  15.874  14.431   3.612
37530W        W 5935  28.978  12.094   4.590
37531W        W 5936   1.977  17.004  13.361
37532W        W 5937  16.334  20.427  13.367
37533W        W 5938  29.950  33.408   3.239
37534W        W 5939  44.478   5.670   0.401
37535W        W 5940  27.417   0.860   0.755
37536W        W 5941  28.586   4.495  12.824
37537W        W 5942  39.777  27.875   2.334
37538W        W 5943  18.143  16.152  11.526
37539W        W 5944   8.887   5.403  12.548
37540W        W 5945  22.954  16.390   3.207
37541W        W 5946  13.323  44.010  14.371
37542W        W 5947  28.085  39.141  14.554
37543W        W 5948  40.929   5.487   0.822
37544W        W 5949  13.199   8.591  11.324
37545W        W 5950  41.539  40.466   3.838
37546W        W 5951   0.834  44.595   5.144
37547W        W 5952  21.975  16.802  13.495
37548W        W 5953  44.639  14.375  13.168
37549W        W 5954  42.556  44.644  14.784
37550W        W 5955  31.068  42.127  13.816
37551W        W 5956  43.901  13.064  11.070
37552W        W 5957   4.000  22.295  12.993
37553W        W 5958  33.631  14.788   1.775
37554W        W 5959  10.886  30.851  13.856
37555W        W 5960  39.398  24.967   4.329
37556W        W 5961  16.117   0.213   2.689
37557W        W 5962  16.205  24.825   1.375
37558W        W 5963  41.869  24.291   3.711
37559W        W 5964   3.350   1.503   3.352
37560W        W 5965  18.327  15.242  11.437
37561W        W 5966  29.573  25.221  10.570
37562W        W 5967  19.229  16.314   4.102
37563W        W 5968   5.684  26.999  14.464
37564W        W 5969  27.969  14.102   4.563
37565W        W 5970  30.094  18.250  13.123
37566W        W 5971  13.404  23.538  13.852
37567W        W 5972  33.213  28.139   3.464
37568W        W 5973  32.923  39.731   2.622
37569W        W 5974   3.027   9.833  11.504
37570W        W 5975  11.749  32.384  13.726
37571W        W 5976   9.950  12.785   0.890
37572W        W 5977   4.625  42.839  14.341
37573W        W 5978  17.706  12.944  13.409
37574W        W 5979  10.459  43.718   2.002
37575W        W 5980  25.484   8.393  11.689
37576W        W 5981  40.887   1.753  10.694
37577W        W 5982   7.653  23.031   4.217
37578W        W 5983   3.547   0.306  12.918
37579W        W 5984  36.313  31.160   3.719
37580W        W 5985  41.954  44.563   3.996
37581W        W 5986  29.574  19.987  11.169
37582W        W 5987  41.364  19.634   4.529
37583W        W 5988  16.135  39.103   3.671
37584W        W 5989  23.135  42.881  14.733
37585W        W 5990  19.663  21.577  11.065
37586W        W 5991  31.969  29.618  10.628
37587W        W 5992   5.612  43.751  11.246
37588W        W 5993  20.236  37.452  10.808
37589W        W 5994  23.255   7.280   1.797
37590W        W 5995  39.041   9.347  11.997
37591W        W 5996  22.421   0.910  11.437
37592W        W 5997  43.321  39.434   1.416
37593W        W 5998   1.701  16.757   1.408
37594W        W 5999  36.438  37.942   2.737
37595W        W 6000  16.583  17.697   4.636
37596W        W 6001  28.664  36.006  13.002
37597W        W 6002  36.643  34.626   4.113
37598W        W 6003   8.225  38.263   1.540
37599W        W 6004  34.831  18.224   2.370
37600W        W 6005   1.124  14.367   1.323
37601W        W 6006  23.228   3.764  12.402
37602W        W 6007   5.292  27.093   0.219
37603W        W 6008  34.886  25.351   0.168
37604W        W 6009  12.684   8.374  13.090
37605W        W 6010  15.069   5.312   2.819
37606W        W 6011  32.062  12.854  12.138
37607W        W 6012   6.701  37.825   1.727
37608W        W 6013   9.234  16.654  12.974
37609W        W 6014  36.316   7.224  12.020
37610W        W 6015  36.870   5.395   0.442
37611W        W 6016   9.962  27.936   1.201
37612W        W 6017   4.664  40.233   3.769
37613W        W 6018  31.892  15.830  12.081
37614W        W 6019  21.090  23.811  12.399
37615W        W 6020   8.261  31.257   3.264
37616W        W 6021  14.144  34.554  11.173
37617W        W 6022   2.104  29.039  10.323
37618W        W 6023  41.232  44.804   4.841
37619W        W 6024  40.425  37.512   2.317
37620W        W 6025  13.308  16.567  14.915
37621W        W 6026   0.783  13.347   4.884
37622W        W 6027   0.399  20.306  14.388
37623W        W 6028  37.488  21.550  12.829
37624W        W 6029  26.474  24.957   4.104
37625W        W 6030  32.078  32.588  12.037
37626W        W 6031  23.109  41.971  13.822
37627W        W 6032  42.591  10.442   1.288
37628W        W 6033  43.005  34.348   1.510
37629W        W 6034  20.123  19.177  10.934
37630W        W 6035   4.714   9.298   1.365
37631W        W 6036  16.903  15.494   2.341
37632W        W 6037  28.293  20.812  11.157
37633W        W 6038   7.184  25.913   2.402
37634W        W 6039   3.471  41.759  11.092
37635W        W 6040  26.881   0.781  13.489
37636W        W 6041  40.419  36.068  12.361
37637W        W 6042   1.054  27.642  14.712
37638W        W 6043   3.903   4.722  10.874
37639W        W 6044  24.408  27.415  13.013
37640W        W 6045   4.929  10.219   1.789
37641W        W 6046  15.555  28.214   4.144
37642W        W 6047  33.368  44.241   0.391
37643W        W 6048  24.519  26.656  12.559
37644W        W 6049  24.920  42.531  13.893
37645W        W 6050  44.524  13.752  14.775
37646W        W 6051  26.630  24.441   2.711
37647W        W 6052  36.021  37.704  11.135
37648W        W 6053  25.147   5.468  13.480
37649W        W 6054  15.801  15.116  10.395
37650W        W 6055  27.224  41.392   2.839
37651W        W 6056  39.997  11.218   2.581
37652W        W 6057  31.444  19.135  14.611
37653W        W 6058  39.076  23.522   3.291
37654W        W 6059  17.659  24.970  13.272
37655W        W 6060  41.420  29.908   0.741
37656W        W 6061  17.618  12.067   1.245
37657W        W 6062   8.128  31.042  14.040
37658W        W 6063  35.467   2.443   3.229
37659W        W 6064  31.796   0.711  13.964
37660W        W 6065  14.456   6.896  13.050
37661W        W 6066  44.021  26.189   3.446
37662W        W 6067   9.823  14.272   1.898
37663W        W 6068   3.036  35.608   1.384
37664W        W 6069  20.188   8.425  11.243
37665W        W 6070  43.221   6.825  11.672
37666W        W 6071  15.149  32.279  10.366
37667W        W 6072  41.616  23.344  11.895
37668W        W 6073  17.261  16.297  12.028
37669W        W 6074  38.384   1.925   1.207
37670W        W 6075   5.284  10.759   1.281
37671W        W 6076  14.164  33.969  13.516
37672W        W 6077  19.464   6.430   3.117
37673W        W 6078  38.067   6.228   0.933
37674W        W 6079  19.077  19.548   2.372
37675W        W 6080  27.227   4.695  13.821
37676W        W 6081   0.200  37.295  11.623
37677W        W 6082   9.763   7.424   3.260
37678W        W 6083  37.509  23.892  14.330
37679W        W 6084  13.862  33.319   1.871
37680W        W 6085  27.527   5.224   0.061
37681W        W 6086   5.376   0.243   3.609
37682W        W 6087  24.950  18.595   3.668
37683W        W 6088  20.540  39.538   1.986
37684W        W 6089  14.171  23.592  13.275
37685W        W 6090  24.771   3.418   3.757
37686W        W 6091  29.710  16.170   0.092
37687W        W 6092  31.569  42.079   9.692
37688W        W 6093  41.521  37.331   4.686
37689W        W 6094  19.587  25.113  11.958
37690W        W 6095  44.675  15.203   4.183
37691W        W 6096  28.860  21.496  14.876
37692W        W 6097  15.022  24.258  12.398
37693W        W 6098  11.390  18.755  10.223
37694W        W 6099  17.177  26.647   1.464
37695W        W 6100  13.007  17.051   3.081
37696W        W 6101  34.899  42.798   3.717
37697W        W 6102  27.005  23.458  11.608
37698W        W 6103  41.969  34.005  14.596
37699W        W 6104  41.401  32.901   0.965
37700W        W 6105  32.865  14.230  13.601
37701W        W 6106  43.449  12.233  14.085
37702W        W 6107  10.363  37.707  11.978
37703W        W 6108  25.062  44.722  14.430
37704W        W 6109   3.688  35.492  14.936
37705W        W 6110  24.683  34.518  13.835
37706W        W 6111  33.487  23.901  11.043
37707W        W 6112  35.315  12.616   4.513
37708W        W 6113  18.035  30.123  12.916
37709W        W 6114  25.175  19.708  14.373
37710W        W 6115  24.981  33.158   4.601
37711W        W 6116  12.703  27.634  13.402
37712W        W 6117  16.994  24.310   4.183
37713W        W 6118  27.428   2.644   4.399
37714W        W 6119  23.229  17.451  12.077
37715W        W 6120   7.261  11.321  13.260
37716W        W 6121  33.054  30.508   4.199
37717W        W 6122  28.131  11.630  11.602
37718W        W 6123  15.079  15.307  13.172
37719W        W 6124  36.595  35.884   3.596
37720W        W 6125  23.213   4.967   0.299
37721W        W 6126   1.320   7.395   2.654
37722W        W 6127  24.531  21.679   4.213
37723W        W 6128  10.318  34.629   3.092
37724W        W 6129  37.787  11.155  13.575
37725W        W 6130  37.288  17.581  12.205
37726W        W 6131  11.677  22.553   2.882
37727W        W 6132  36.420  39.355  12.113
37728W        W 6133  40.015  41.940   3.443
37729W        W 6134  16.657  35.578   3.709
37730W        W 6135  16.132  33.781   3.523
37731W        W 6136  10.066  36.559   3.252
37732W        W 6137  33.437  18.905   5.213
37733W        W 6138  33.967  12.064   2.698
37734W        W 6139  31.977  35.246   4.124
37735W        W 6140  22.571  17.512  10.418
37736W        W 6141  11.663  15.976  12.601
37737W        W 6142  20.871  26.292   4.610
37738W        W 6143  41.466   9.875   3.208
37739W        W 6144  19.584  21.648  12.073
37740W        W 6145   6.930  40.307   2.654
37741W        W 6146   7.166  44.890   1.463
37742W        W 6147  14.158  40.778  12.852
37743W        W 6148  29.965  30.891  14.961
37744W        W 6149  40.012  33.785  13.518
37745W        W 6150  13.710  22.712   0.852
37746W        W 6151  33.075  21.620   3.377
37747W        W 6152  21.537   5.910  13.457
37748W        W 6153   2.821   9.614   3.109
37749W        W 6154  23.101  31.812  14.360
37750W        W 6155  24.715  37.274  12.223
37751W        W 6156   2.242   9.802   0.321
37752W        W 6157  21.074  28.835   2.308
37753W        W 6158  42.924  36.745  13.046
37754W        W 6159  15.091  28.666  10.669
37755W        W 6160  32.895  26.744   0.369
37756W        W 6161  17.411   5.882  10.704
37757W        W 6162   0.310  39.310  13.425
37758W        W 6163  36.228  40.844  12.101
37759W        W 6164  25.539   7.292  14.757
37760W        W 6165  29.972  34.565  14.434
37761W        W 6166  28.418  43.409   4.098
37762W        W 6167  40.899  24.187  14.914
37763W        W 6168  13.331  14.580  12.084
37764W        W 6169  42.305  38.519   4.168
37765W        W 6170  27.727  20.585   2.873
37766W        W 6171  44.339   5.672  12.460
37767W        W 6172   2.834  10.685  10.663
37768W        W 6173  24.405  20.368   3.640
37769W        W 6174  28.949  27.994  13.639
37770W        W 6175  29.393  42.272  11.188
37771W        W 6176  36.499  42.142  11.529
37772W        W 6177  17.784   9.395   2.870
37773W        W 6178  33.118  37.698   0.213
37774W        W 6179  37.810  27.095   2.729
37775W        W 6180  13.657  15.616   2.626
37776W        W 6181   4.432  22.272  11.517
37777W        W 6182   5.714  31.072   1.791
37778W        W 6183  41.410   4.818  13.087
37779W        W 6184  39.297  34.095   3.314
37780W        W 6185  20.804  38.762  11.456
37781W        W 6186  11.961  27.560  12.609
37782W        W 6187  30.590   8.353  10.580
37783W        W 6188  25.467  42.494  12.043
37784W        W 6189  38.803   5.789  14.062
37785W        W 6190  42.818   8.255   4.957
37786W        W 6191  31.945  27.051  11.850
37787W        W 6192   4.761  24.683   1.926
37788W        W 6193  39.996  40.192   0.233
37789W        W 6194   2.824  41.597   0.514
37790W        W 6195   7.777  14.924  11.559
37791W        W 6196  32.938  20.859   0.765
37792W        W 6197  11.380  11.957  11.082
37793W        W 6198   7.286  15.094  10.652
37794W        W 6199   7.258  29.410   1.846
37795W        W 6200  26.923  40.373  10.926
37796W        W 6201  41.409  33.900  13.832
37797W        W 6202  37.286  39.357   0.715
37798W        W 6203  15.283  24.174  14.831
37799W        W 6204   7.758   3.933  14.868
37800W        W 6205  23.572  20.982   4.971
37801W        W 6206  44.669  43.920   4.948
37802W        W 6207  40.279   2.653   1.339
37803W        W 6208  33.949   2.905  13.424
37804W        W 6209  19.657  40.477   0.466
37805W        W 6210  42.813   5.269  13.807
37806W        W 6211  15.900  12.980   1.374
37807W        W 6212  26.064  22.165   0.178
37808W        W 6213  20.499  23.947   3.585
37809W        W 6214  40.921  36.253  10.984
37810W        W 6215   6.812  19.460   3.667
37811W        W 6216  37.925  24.381   1.089
37812W        W 6217  31.666   8.675  11.965
37813W        W 6218   0.674  39.378   1.120
37814W        W 6219  18.238  27.907  14.863
37815W        W 6220   1.425   2.807   2.286
37816W        W 6221  11.181  20.525  12.549
37817W        W 6222  31.277  11.167  13.610
37818W        W 6223  32.018  38.583  14.338
37819W        W 6224  10.703   7.194  13.376
37820W        W 6225  34.146  40.769  12.928
37821W        W 6226  20.508   1.779   3.580
37822W        W 6227  22.446  33.745  14.863
37823W        W 6228   5.256  16.280  14.682
37824W        W 6229  24.163  31.402   3.585
37825W        W 6230  21.068  39.597  10.379
37826W        W 6231  15.647   5.275  12.909
37827W        W 6232   2.781   0.314  14.550
37828W        W 6233   6.903  37.534  12.915
37829W        W 6234  15.366   0.487  10.743
37830W        W 6235  41.343   4.184   5.584
37831W        W 6236  11.804   7.292   0.702
37832W        W 6237  33.614  33.663   2.754
37833W        W 6238   8.571  20.041  13.544
37834W        W 6239  32.563  35.893  10.586
37835W        W 6240   4.879  35.249  11.908
37836W        W 6241  37.846  14.617  10.783
37837W        W 6242  25.231  21.297  13.457
37838W        W 6243   4.734   3.745   3.108
37839W        W 6244  38.670  33.077  12.526
37840W        W 6245  41.538  15.325  12.033
37841W        W 6246  43.239  30.410   4.933
37842W        W 6247  19.844   8.730  12.161
37843W        W 6248  33.966  15.678   2.736
37844W        W 6249   9.192   6.169   0.723
37845W        W 6250  27.415   9.159  11.482
37846W        W 6251  13.176   5.500   0.430
37847W        W 6252  27.089  31.181   1.999
37848W        W 6253  40.610  15.170  12.901
37849W        W 6254  33.944  17.541  14.752
37850W        W 6255  32.061  28.858   1.469
37851W        W 6256   6.238   0.856   1.585
37852W        W 6257  43.459   8.411   3.157
37853W        W 6258  35.141  22.671   4.114
37854W        W 6259  34.434  35.721  13.930
37855W        W 6260   8.307  24.840   0.671
37856W        W 6261   7.383  26.458  14.279
37857W        W 6262  34.061  33.920   0.006
37858W        W 6263  19.023   7.208   4.090
37859W        W 6264  24.868  23.880  12.009
37860W        W 6265  33.086   4.856  13.703
37861W        W 6266  32.461  14.958  11.326
37862W        W 6267  32.065  10.133   1.437
37863W        W 6268  32.001   5.887   0.169
37864W        W 6269  29.062   0.867  10.700
37865W        W 6270  27.024  34.350  14.506
37866W        W 6271  44.811  42.464   0.796
37867W        W 6272   3.941  13.249   4.593
37868W        W 6273  18.788  31.641  11.729
37869W        W 6274  44.864  15.467   1.591
37870W        W 6275  32.486   6.330  14.827
37871W        W 6276  26.463  23.958   1.951
37872W        W 6277  19.173   5.244  13.557
37873W        W 6278  36.539  28.247  13.410
37874W        W 6279  31.771  25.493   4.247
37875W        W 6280  20.755   3.945  14.499
37876W        W 6281  39.304   6.382  11.013
37877W        W 6282  24.505  14.319   1.350
37878W        W 6283  41.316  37.506  11.180
37879W        W 6284  36.411  21.302  12.071
37880W        W 6285  11.141  42.533  11.610
37881W        W 6286  23.017  14.191  12.544
37882W        W 6287   0.217  31.858   3.264
37883W        W 6288   8.595  44.641   5.127
37884W        W 6289  31.800   0.620  10.561
37885W        W 6290   0.990  27.334   1.403
37886W        W 6291  22.320  37.491  11.589
37887W        W 6292  15.268  26.369  11.793
37888W        W 6293  10.358   5.786   3.246
37889W        W 6294  42.540  22.459  14.403
37890W        W 6295   5.278   8.634   4.885
37891W        W 6296  34.622  26.642  14.962
37892W        W 6297  43.718  19.088   4.717
37893W        W 6298  36.462   3.373   2.829
37894W        W 6299  37.736  21.967  11.582
37895W        W 6300  26.640  12.748  12.338
37896W        W 6301  14.901  38.704   4.201
37897W        W 6302   4.428   1.912   3.577
37898W        W 6303   6.972  14.397  11.038
37899W        W 6304  30.006  34.139  13.084
37900W        W 6305  15.157   7.407  12.618
37901W        W 6306   5.292  13.358  13.075
37902W        W 6307  16.554  17.674   1.707
37903W        W 6308  11.248  10.606   0.901
37904W        W 6309  30.544  26.259  10.694
37905W        W 6310  14.164  21.049   3.790
37906W        W 6311  22.461  21.663  14.548
37907W        W 6312  40.756   6.759  12.086
37908W        W 6313   7.686  29.388   2.793
37909W        W 6314  29.178  43.929   3.207
37910W        W 6315  24.556  38.977  13.741
37911W        W 6316  13.771  41.451  14.936
37912W        W 6317   7.305   6.054   3.325
37913W        W 6318  12.624   7.807  14.929
37914W        W 6319  39.896  19.302  12.851
37915W        W 6320   7.106   2.074   3.092
37916W        W 6321   1.933  40.351   2.185
37917W        W 6322  21.712  40.377   3.376
37918W        W 6323  33.854  18.633  11.579
37919W        W 6324   9.829  25.021   0.693
37920W        W 6325  20.616   7.690   0.683
37921W        W 6326  26.266  38.401   2.300
37922W        W 6327  23.059   2.834  10.454
37923W        W 6328  40.045  30.163  10.750
37924W        W 6329  44.849  44.033   1.047
37925W        W 6330  26.226  33.593   0.278
37926W        W 6331   9.309  24.695   4.121
37927W        W 6332  29.700  39.333  11.620
37928W        W 6333  42.298  14.227   3.968
37929W        W 6334  35.471  19.807  13.236
37930W        W 6335  25.969  16.023   2.384
37931W        W 6336  21.479  30.013   0.380
37932W        W 6337   4.211  21.464   3.695
37933W        W 6338  14.582  16.962  13.503
37934W        W 6339  11.642  28.194   5.295
37935W        W 6340  26.304  39.246   0.879
37936W        W 6341   7.180  16.741   0.851
37937W        W 6342  27.212  21.313  12.385
37938W        W 6343  43.694   0.432  11.534
37939W        W 6344  24.572  16.101  14.682
37940W        W 6345  37.073  36.645   3.242
37941W        W 6346  29.430  37.450   4.995
37942W        W 6347  43.684   0.810   2.886
37943W        W 6348  14.204  32.681  11.612
37944W        W 6349  31.941   2.832   2.137
37945W        W 6350  35.036  26.924   4.136
37946W        W 6351  27.950  20.731   4.133
37947W        W 6352  26.456  10.327  14.770
37948W        W 6353  35.846  17.643  10.925
37949W        W 6354   8.588  35.078  12.132
37950W        W 6355  23.220   0.984  13.791
37951W        W 6356  15.797   1.903  11.480
37952W        W 6357  42.505  35.416  14.965
37953W        W 6358  10.698  39.457   1.195
37954W        W 6359  31.382  32.047   4.322
37955W        W 6360   0.052  19.998   2.737
37956W        W 6361  43.437  44.792   0.024
37957W        W 6362  17.166   0.507   4.371
37958W        W 6363  39.150  36.425   1.342
37959W        W 6364   7.599  14.992   3.808
37960W        W 6365  13.738  40.204  14.244
37961W        W 6366  31.443  26.949   4.653
37962W        W 6367   4.683  11.127  13.807
37963W        W 6368  27.982  37.455  13.317
37964W        W 6369  28.082  26.871   4.118
37965W        W 6370  41.535  22.590  11.484
37966W        W 6371  41.305  38.098  13.888
37967W        W 6372  40.891   2.211  10.453
37968W        W 6373  36.378  39.498  12.600
37969W        W 6374  20.602  34.057   2.077
37970W        W 6375  44.295  32.455   4.075
37971W        W 6376  26.506  15.862  10.705
37972W        W 6377   5.008  33.504  11.460
37973W        W 6378   1.895  37.876   2.324
37974W        W 6379  18.598  32.112  10.567
37975W        W 6380  36.048  18.830   0.682
37976W        W 6381  30.453   4.494  11.613
37977W        W 6382  41.637  44.077   4.241
37978W        W 6383  17.393   7.450   2.689
37979W        W 6384  17.742  35.360  11.576
37980W        W 6385  28.413   4.019  12.945
37981W        W 6386  20.770  18.634  10.646
37982W        W 6387  26.123  31.702   3.268
37983W        W 6388   5.364  15.932   1.829
37984W        W 6389  33.688   8.270   2.262
37985W        W 6390  41.872  13.705  14.187
37986W        W 6391  31.833  35.338   1.033
37987W        W 6392  43.562  19.195  14.778
37988W        W 6393   2.863  42.934  10.389
37989W        W 6394  11.745   5.049   4.591
37990W        W 6395   8.185  12.654   2.186
37991W        W 6396  19.895   1.898  10.377
37992W        W 6397  10.772   8.112   1.565
37993W        W 6398  11.635   9.741  12.130
37994W        W 6399   8.593  24.213   3.561
37995W        W 6400  24.387  10.112  13.083
37996W        W 6401   7.948   7.305  11.609
37997W        W 6402  31.786  35.518   0.005
37998W        W 6403  22.159  31.097   3.122
37999W        W 6404   9.735  41.051   1.964
38000W        W 6405  35.943   8.863   0.748
38001W        W 6406  15.099  32.402  13.713
38002W        W 6407  42.001  34.911   3.807
38003W        W 6408  11.395  23.159   3.629
38004W        W 6409  41.296  16.892   0.874
38005W        W 6410  44.587  22.097  14.192
38006W        W 6411  27.477   6.917  14.479
38007W        W 6412  16.074  28.464  13.414
38008W        W 6413   1.837  28.121   3.321
38009W        W 6414  42.975  19.761   3.295
38010W        W 6415  43.860  42.837   4.016
38011W        W 6416   9.748  12.647   4.368
38012W        W 6417  13.143  30.464  10.565
38013W        W 6418  10.157  44.290  12.548
38014W        W 6419  31.539  26.993   0.396
38015W        W 6420  31.084   3.788  14.913
38016W        W 6421  35.950  43.469  14.251
38017W        W 6422  38.728  37.503   2.437
38018W        W 6423   2.519   5.122  10.574
38019W        W 6424  28.098  19.184   2.666
38020W        W 6425   5.820  44.643  12.010
38021W        W 6426   1.446   5.794   3.250
38022W        W 6427  17.380  39.955  13.335
38023W        W 6428  35.059  21.706   1.544
38024W        W 6429   9.772   1.684  14.330
38025W        W 6430  35.796  38.961   0.708
38026W        W 6431  29.768   7.221  11.319
38027W        W 6432  31.080  23.253  11.643
38028W        W 6433  37.016   9.277   2.743
38029W        W 6434  34.259   6.929   2.937
38030W        W 6435  12.311  26.873  13.749
38031W        W 6436  36.832   5.630   4.708
38032W        W 6437  20.295  35.726   2.308
38033W        W 6438   0.809  20.273   3.557
38034W        W 6439  32.342  41.388   0.308
38035W        W 6440  21.216  26.065   4.276
38036W        W 6441   9.505  33.993   5.034
38037W        W 6442  37.102  12.550  12.483
38038W        W 6443  42.257   2.471  14.269
38039W        W 6444  43.406  35.545   4.690
38040W        W 6445  28.676   9.265   0.959
38041W        W 6446   5.489   0.450   1.860
38042W        W 6447  35.564  30.461   3.531
38043W        W 6448   6.320  27.022  10.691
38044W        W 6449  30.083  32.165   3.901
38045W        W 6450   2.425  19.050   2.413
38046W        W 6451  14.233  36.409   3.004
38047W        W 6452   8.760  15.044   5.430
38048W        W 6453   5.720  14.652   4.834
38049W        W 6454  35.474  22.732  11.728
38050W        W 6455  14.270  24.493   3.790
38051W        W 6456   3.918  26.453   0.007
38052W        W 6457  15.809   7.345   4.082
38053W        W 6458   4.883  43.643  14.496
38054W        W 6459   7.695   5.401  14.310
38055W        W 6460   8.789  40.915   1.921
38056W        W 6461  27.211  18.019   2.218
38057W        W 6462  16.090  21.018  11.461
38058W        W 6463  11.528  21.740   4.567
38059W        W 6464   4.915   3.373  11.899
38060W        W 6465   9.677  11.619  12.016
38061W        W 6466  30.415  39.434  12.056
38062W        W 6467  14.658  27.592   1.762
38063W        W 6468  24.500  34.082   4.525
38064W        W 6469   1.981  40.924   1.901
38065W        W 6470  29.293  34.857  13.899
38066W        W 6471  36.769  32.879   0.185
38067W        W 6472  17.774  34.391   1.927
38068W        W 6473  15.121   3.750   2.289
38069W        W 6474  38.542  24.514   4.615
38070W        W 6475  10.874  12.372  11.761
38071W        W 6476  36.266  11.405  13.521
38072W        W 6477   0.721   7.160  11.590
38073W        W 6478  14.603  23.576  11.885
38074W        W 6479  27.186   1.557   4.213
38075W        W 6480  15.647  36.557   3.149
38076W        W 6481  27.739  30.983  12.169
38077W        W 6482  40.524  14.223  11.715
38078W        W 6483  18.337   7.913  14.462
38079W        W 6484  13.808  12.806  13.139
38080W        W 6485  19.662  12.121  13.145
38081W        W 6486   0.785   6.357  13.888
38082W        W 6487   9.757  30.965   3.101
38083W        W 6488   1.177   2.356   2.216
38084W        W 6489  44.797  26.110  12.054
38085W        W 6490  20.662   1.926  12.403
38086W        W 6491  38.302   5.879   0.345
38087W        W 6492  17.272  40.934  13.636
38088W        W 6493  22.522  10.721  14.953
38089W        W 6494   0.587   2.779   1.212
38090W        W 6495   1.032  43.323  10.948
38091W        W 6496  20.650  20.622  13.772
38092W        W 6497  16.058   2.193  14.461
38093W        W 6498  23.535  22.734  12.915
38094W        W 6499  38.938  14.090  12.558
38095W        W 6500  43.933  34.538   1.734
38096W        W 6501  41.115  39.431   2.735
38097W        W 6502  12.405   7.992  11.258
38098W        W 6503  42.941  15.564   3.835
38099W        W 6504  12.882  42.569  12.707
38100W        W 6505  36.087  36.067   3.691
38101W        W 6506   0.263   3.723   0.271
38102W        W 6507  35.057  33.522  10.135
38103W        W 6508   2.462  37.483  11.612
38104W        W 6509  35.422  16.762   1.767
38105W        W 6510  12.355  32.528   4.137
38106W        W 6511  18.642  13.729  10.597
38107W        W 6512  20.731  32.425  13.388
38108W        W 6513  25.153   2.820   3.197
38109W        W 6514   8.674   1.241   4.266
38110W        W 6515  14.628  25.397  14.222
38111W        W 6516  19.053  43.061  10.372
38112W        W 6517  38.291  23.137  13.057
38113W        W 6518  30.584  16.543   2.777
38114W        W 6519  25.657  20.877  11.933
38115W        W 6520  25.742  33.190  12.037
38116W        W 6521  11.181  17.405   1.392
38117W        W 6522   9.403  37.085  13.796
38118W        W 6523  42.217  31.664   3.654
38119W        W 6524  43.106  15.766  12.475
38120W        W 6525  10.281  41.014  14.012
38121W        W 6526  22.925   7.900   3.331
38122W        W 6527  39.002  44.337   3.671
38123W        W 6528  18.646  19.155   3.358
38124W        W 6529  24.111  17.674  11.472
38125W        W 6530  24.935  36.806   3.241
38126W        W 6531   8.142  36.933  13.026
38127W        W 6532  16.982  22.589  11.436
38128W        W 6533  40.070  25.717   3.537
38129W        W 6534  12.377  28.736   5.270
38130W        W 6535  38.786  41.932  12.348
38131W        W 6536   8.013  15.601   0.848
38132W        W 6537  17.787  37.832   1.788
38133W        W 6538  24.050  23.417   2.724
38134W        W 6539   1.333  25.371   2.281
38135W        W 6540  14.877  30.658   2.610
38136W        W 6541   3.513  28.612   3.233
38137W        W 6542  13.271  10.400   1.811
38138W        W 6543  34.439  31.915   3.127
38139W        W 6544   2.475  44.452  12.252
38140W        W 6545  39.299  43.243   0.896
38141W        W 6546  25.755  16.491   3.731
38142W        W 6547  11.678  39.652   0.860
38143W        W 6548   4.179   1.020  14.829
38144W        W 6549  39.904   6.050   0.702
38145W        W 6550   4.982  18.057   0.220
38146W        W 6551   4.801  26.084   1.181
38147W        W 6552  27.265  37.985   3.680
38148W        W 6553  31.794  17.376  11.597
38149W        W 6554  22.232   1.184   4.655
38150W        W 6555  15.292  34.507   4.236
38151W        W 6556  43.992   0.413  14.782
38152W        W 6557  13.747  35.746  14.072
38153W        W 6558  35.404  39.266  13.080
38154W        W 6559   9.907  30.156   3.374
38155W        W 6560  29.595   9.088   0.006
38156W        W 6561  27.599  29.182  12.242
38157W        W 6562  33.377  42.537  13.894
38158W        W 6563  12.633  38.684   2.248
38159W        W 6564  12.919  38.412   1.880
38160W        W 6565  14.774  13.816   2.376
38161W        W 6566  36.518   7.550  13.838
38162W        W 6567  12.883   9.633  14.038
38163W        W 6568  20.794  10.676  14.082
38164W        W 6569  34.411  24.567   3.296
38165W        W 6570  29.697  12.241  13.945
38166W        W 6571  19.242   3.379   2.710
38167W        W 6572  21.196  14.039   1.427
38168W        W 6573  12.169  32.898   4.456
38169W        W 6574  23.295  34.417   1.230
38170W        W 6575   4.173  43.420  12.292
38171W        W 6576   9.852  31.618  12.354
38172W        W 6577  40.598   1.280   4.374
38173W        W 6578  31.456   9.631  11.066
38174W        W 6579  21.032  21.765  10.702
38175W        W 6580  30.367  33.392  12.799
38176W        W 6581   2.877   9.352  11.496
38177W        W 6582  28.244   8.992  10.669
38178W        W 6583   4.290  11.797   4.113
38179W        W 6584  36.554   1.423   4.727
38180W        W 6585   9.938  27.432   5.071
38181W        W 6586  38.372  11.631  14.824
38182W        W 6587  44.324  10.260   4.132
38183W        W 6588   3.453   3.832   3.175
38184W        W 6589  26.438  20.312  11.159
38185W        W 6590  36.521  14.101  13.841
38186W        W 6591  25.301  26.074  14.654
38187W        W 6592  28.161   1.461   0.857
38188W        W 6593   6.416  20.852  14.993
38189W        W 6594   6.174  22.244  14.080
38190W        W 6595   3.487  32.977   4.440
38191W        W 6596  22.072  40.337   1.030
38192W        W 6597  16.226   2.640  10.596
38193W        W 6598  18.403  29.364   1.496
38194W        W 6599  18.604   1.669   1.888
38195W        W 6600  40.747  25.566   2.029
38196W        W 6601  33.107   9.264   1.360
38197W        W 6602  42.693  33.015  10.731
38198W        W 6603  22.922  17.058   1.309
38199W        W 6604  44.287  20.114   2.350
38200W        W 6605  19.605  22.121  11.021
38201W        W 6606  16.211  40.313  11.545
38202W        W 6607  15.304  14.091   2.682
38203W        W 6608  26.012  15.275   0.595
38204W        W 6609  12.803   8.313   2.346
38205W        W 6610  39.165  25.767   1.239
38206W        W 6611   4.267   5.131  11.772
38207W        W 6612  30.728   2.541  12.909
38208W        W 6613  15.306   3.167   3.654
38209W        W 6614  25.580  17.204   0.231
38210W        W 6615  30.522  41.376  13.298
38211W        W 6616   6.800  41.280  12.974
38212W        W 6617  10.954  23.714  14.106
38213W        W 6618   0.829  25.692   4.526
38214W        W 6619  23.851  13.856  13.515
38215W        W 6620  30.507  37.332  10.773
38216W        W 6621  28.591  41.599   4.862
38217W        W 6622  17.631  13.305  13.843
38218W        W 6623  39.419   7.915  14.759
38219W        W 6624  31.572  44.461  10.870
38220W        W 6625  28.605  37.843  10.820
38221W        W 6626  22.262  29.912   0.877
38222W        W 6627  27.118  33.400  13.329
38223W        W 6628  36.891   7.279   0.363
38224W        W 6629  20.614   5.969   3.125
38225W        W 6630  19.522  31.149   2.274
38226W        W 6631  41.541  33.933  14.900
38227W        W 6632  21.437  23.413  10.018
38228W        W 6633  20.587   6.896  10.582
38229W        W 6634  17.271   1.550  13.017
38230W        W 6635   2.794   6.242  13.056
38231W        W 6636   9.719  35.572  12.474
38232W        W 6637  31.540  28.998   2.892
38233W        W 6638   0.020   5.242   2.902
38234W        W 6639  10.777  26.769   2.188
38235W        W 6640  21.528   8.638   1.687
38236W        W 6641  32.607  37.763  11.529
38237W        W 6642  30.925  40.682  14.892
38238W        W 6643  30.400  17.697   3.325
38239W        W 6644  11.114  31.550   1.808
38240W        W 6645  22.076   5.524   0.894
38241W        W 6646  32.548  10.409  11.040
38242W        W 6647  16.425  39.320  10.367
38243W        W 6648  35.230  33.064   3.975
38244W        W 6649  19.120  12.615   0.899
38245W        W 6650  28.393   3.505  12.938
38246W        W 6651   3.705  36.879  14.044
38247W        W 6652  39.185  44.820   3.671
38248W        W 6653   5.756  18.182  11.483
38249W        W 6654  23.190  30.067  14.338
38250W        W 6655  37.339  35.260  11.463
38251W        W 6656  35.878  24.009  11.145
38252W        W 6657   3.021  41.948  10.842
38253W        W 6658  13.649  39.863  11.921
38254W        W 6659   7.848   6.829   1.439
38255W        W 6660  40.824  34.956  11.116
38256W        W 6661   6.257  16.081   0.067
38257W        W 6662  35.986  29.138  12.999
38258W        W 6663   7.887  36.968  13.910
38259W        W 6664  36.784  37.579  14.854
38260W        W 6665   9.571  14.742   4.192
38261W        W 6666  21.173  38.628   4.549
38262W        W 6667   3.146  34.906   3.960
38263W        W 6668  35.255  33.054   0.918
38264W        W 6669  13.789  16.484  12.605
38265W        W 6670  22.919  28.459  10.739
38266W        W 6671  15.108  38.821  11.614
38267W        W 6672  24.601  42.870   4.349
38268W        W 6673  28.081   0.265   0.951
38269W        W 6674  44.642  13.116   2.987
38270W        W 6675  26.607  44.564  13.366
38271W        W 6676  44.476  16.836   0.975
38272W        W 6677  44.297  33.156   0.767
38273W        W 6678  20.565  12.645   0.674
38274W        W 6679  22.981  39.485  14.748
38275W        W 6680  36.031  26.569   2.876
38276W        W 6681   1.277  19.684  10.673
38277W        W 6682  31.560   9.534  10.569
38278W        W 6683  27.687   9.753   4.735
38279W        W 6684   5.136  39.028   1.288
38280W        W 6685  13.401  27.602   2.800
38281W        W 6686  38.958  23.621   2.384
38282W        W 6687   3.965  36.654  11.858
38283W        W 6688  38.255  16.270  13.833
38284W        W 6689  18.254  41.800   2.396
38285W        W 6690  22.695   5.725  12.877
38286W        W 6691  27.386   0.436  14.326
38287W        W 6692  12.779  30.052   3.408
38288W        W 6693  41.179  21.016   3.636
38289W        W 6694   2.977  14.132   3.043
38290W        W 6695  15.219  28.954  14.361
38291W        W 6696  13.297   9.253   1.481
38292W        W 6697  12.288   7.669  12.604
38293W        W 6698  37.090  34.509   2.144
38294W        W 6699  36.505  15.152   0.843
38295W        W 6700  40.101  32.880   3.358
38296W        W 6701  44.938  32.881   1.338
38297W        W 6702  40.885  38.227  11.115
38298W        W 6703  12.831  31.458  12.555
38299W        W 6704  12.705  33.742  13.257
38300W        W 6705  22.543   9.852  14.479
38301W        W 6706  25.501  31.279  13.024
38302W        W 6707  23.840  35.997   1.481
38303W        W 6708  15.198  42.006  10.481
38304W        W 6709  10.889  33.065   0.748
38305W        W 6710  23.005  26.706   3.086
38306W        W 6711   0.525  43.494  13.051
38307W        W 6712  12.782  22.506  10.734
38308W        W 6713   3.990  20.953   0.929
38309W        W 6714  26.788  19.092   0.730
38310W        W 6715  44.484  21.758  12.913
38311W        W 6716  18.944  36.753  14.931
38312W        W 6717  37.338  41.394  14.821
38313W        W 6718  37.806   7.555   5.135
38314W        W 6719  21.929   8.770   4.088
38315W        W 6720  19.786  33.446  14.800
38316W        W 6721  23.910  33.633   2.680
38317W        W 6722   5.451  31.158  12.930
38318W        W 6723  12.020  16.783  13.627
38319W        W 6724  28.544  42.526   3.740
38320W        W 6725  20.149  26.971  10.929
38321W        W 6726  35.861  12.336  11.120
38322W        W 6727  14.107  10.425  14.407
38323W        W 6728  35.916  17.009   1.745
38324W        W 6729  42.132  28.601   1.452
38325W        W 6730   7.633   1.531   1.367
38326W        W 6731  13.323  11.757  13.475
38327W        W 6732   4.645  43.809  13.509
38328W        W 6733  12.375  34.361   1.419
38329W        W 6734  42.529  21.083   0.372
38330W        W 6735  38.638  32.434  12.994
38331W        W 6736  31.504  29.408  14.044
38332W        W 6737  24.545  41.820   0.433
38333W        W 6738  22.208  19.810   3.710
38334W        W 6739  18.075  35.102   0.906
38335W        W 6740  42.301   6.150  14.854
38336W        W 6741   5.695  20.260   2.636
38337W        W 6742  34.365  20.960   3.353
38338W        W 6743  12.720   5.089   3.586
38339W        W 6744  15.082  13.805  14.422
38340W        W 6745  31.199  19.676   1.356
38341W        W 6746  38.371   3.839  14.271
38342W        W 6747  24.690  17.383  10.602
38343W        W 6748  27.950  16.606   0.443
38344W        W 6749   0.909  25.765  12.053
38345W        W 6750  34.999  35.741   3.717
38346W        W 6751   6.036  13.133   3.033
38347W        W 6752  28.915  28.954   2.129
38348W        W 6753  44.464  32.943   0.289
38349W        W 6754  25.543  32.098  10.883
38350W        W 6755  35.733  16.980  14.406
38351W        W 6756  44.898  27.763  13.104
38352W        W 6757  39.809   5.804  12.790
38353W        W 6758  38.774   5.931   3.573
38354W        W 6759  37.363  31.417   4.145
38355W        W 6760  34.098  41.958   0.969
38356W        W 6761   6.141   0.577   4.126
38357W        W 6762  26.642  13.326  11.713
38358W        W 6763   5.740   5.714  13.891
38359W        W 6764   3.074   9.252  14.392
38360W        W 6765  31.016   2.994  10.979
38361W        W 6766  38.592  27.074   0.450
38362W        W 6767  34.883  16.652  12.816
38363W        W 6768   3.917  27.003  14.977
38364W        W 6769  27.233  26.576   0.685
38365W        W 6770  21.093  33.624   0.302
38366W        W 6771  29.570  28.169  10.372
38367W        W 6772  18.824  29.146  11.839
38368W        W 6773  14.487  24.932   4.429
38369W        W 6774  22.534   9.390   4.210
38370W        W 6775  25.501  14.404  10.673
38371W        W 6776   0.949  10.603   3.624
38372W        W 6777  39.285  25.400   5.117
38373W        W 6778  42.030   1.407   4.201
38374W        W 6779   8.068  20.596   1.362
38375W        W 6780   2.243   3.675   2.611
38376W        W 6781  13.286   0.808  13.730
38377W        W 6782   9.303   5.307   0.972
38378W        W 6783  21.317  21.298  12.355
38379W        W 6784  43.375  36.371  12.828
38380W        W 6785   4.913  31.079   2.258
38381W        W 6786   4.241  39.352  12.634
38382W        W 6787  16.274  40.991   1.824
38383W        W 6788   6.184  14.025   4.083
38384W        W 6789  39.574  34.878   0.205
38385W        W 6790  25.120  35.700  11.668
38386W        W 6791  11.233  41.484  13.915
38387W        W 6792  24.500   5.692   0.636
38388W        W 6793  21.099  31.850   0.907
38389W        W 6794  44.052  36.388  11.528
38390W        W 6795  27.012  32.728   3.194
38391W        W 6796  34.350   0.394   3.330
38392W        W 6797  11.345  25.368  11.450
38393W        W 6798   1.387   6.740   3.806
38394W        W 6799   3.983  17.666   3.207
38395W        W 6800  30.888  17.753   3.350
38396W        W 6801  27.184   2.700   0.895
38397W        W 6802   2.218   6.793   3.595
38398W        W 6803   0.330  24.260   0.310
38399W        W 6804   9.617  23.505   1.444
38400W        W 6805  10.060  23.617  12.989
38401W        W 6806  25.599  27.565   4.336
38402W        W 6807  44.082   7.728  13.579
38403W        W 6808  32.451  37.040   2.347
38404W        W 6809  34.376  10.744  13.859
38405W        W 6810  39.330  12.441   0.479
38406W        W 6811  13.810   4.359   3.727
38407W        W 6812  28.506   8.724  14.774
38408W        W 6813  20.286  34.813   1.608
38409W        W 6814   7.950  16.722  14.009
38410W        W 6815   9.391   3.533  12.019
38411W        W 6816  44.665   5.245  12.395
38412W        W 6817   1.394  30.633   0.751
38413W        W 6818  44.399  33.845   3.537
38414W        W 6819  21.562  24.865   1.941
38415W        W 6820  25.443  37.527   4.363
38416W        W 6821  35.548  18.048   4.129
38417W        W 6822  32.624  32.411   4.703
38418W        W 6823   6.923  18.778   0.700
38419W        W 6824  19.640   4.865  10.191
38420W        W 6825  25.657  18.733  13.429
38421W        W 6826   6.768  20.120  13.864
38422W        W 6827  37.394  36.125  13.470
38423W        W 6828  11.349   9.123  14.819
38424W        W 6829  32.536  38.524  14.486
38425W        W 6830  32.423   8.398   0.275
38426W        W 6831   3.867   2.328   4.698
38427W        W 6832  39.886  11.790   3.826
38428W        W 6833   7.291  34.458   1.672
38429W        W 6834  41.285  26.720   4.617
38430W        W 6835  12.481  36.974  13.476
38431W        W 6836  36.325  41.399   2.648
38432W        W 6837   7.007  15.279   1.354
38433W        W 6838  28.192  29.839  13.313
38434W        W 6839  38.305  24.502   2.034
38435W        W 6840  41.434   6.941   4.623
38436W        W 6841   6.227  39.429   0.946
38437W        W 6842  24.348   1.360   3.292
38438W        W 6843  18.389  29.397  13.514
38439W        W 6844   0.522  23.488  14.993
38440W        W 6845  37.578  12.172  10.979
38441W        W 6846  41.224  37.310  12.524
38442W        W 6847   4.537  21.097  13.550
38443W        W 6848  24.449  27.710  13.884
38444W        W 6849  15.212  11.622   2.933
38445W        W 6850  24.459   4.944   4.215
38446W        W 6851  18.855   4.131   1.356
38447W        W 6852  27.622  36.701   1.699
38448W        W 6853  13.566  26.033  10.692
38449W        W 6854  28.940  44.715  11.160
38450W        W 6855  16.548  19.457  13.985
38451W        W 6856  20.018   0.807  11.475
38452W        W 6857   7.770   9.842  11.462
38453W        W 6858   6.830   8.224  14.350
38454W        W 6859   6.812  17.858  12.978
38455W        W 6860  10.688  31.487   3.257
38456W        W 6861  10.169   7.845   2.659
38457W        W 6862  26.456   3.727   1.858
38458W        W 6863  22.550  11.817  11.734
38459W        W 6864  17.620  11.205  14.355
38460W        W 6865  17.727  31.310   3.305
38461W        W 6866   2.606  20.766   0.917
38462W        W 6867  13.839  33.899  12.562
38463W        W 6868  20.444  22.503  11.822
38464W        W 6869  35.569  28.530   3.209
38465W        W 6870  16.500   3.852   2.170
38466W        W 6871  12.111  14.821   1.370
38467W        W 6872   4.190  11.835  14.752
38468W        W 6873  35.083  41.413   3.232
38469W        W 6874  23.978   1.067  10.373
38470W        W 6875  44.902  32.778  11.463
38471W        W 6876  32.994  12.013   0.927
38472W        W 6877  38.554  38.249  13.236
38473W        W 6878  37.516  26.791  13.931
38474W        W 6879  23.629  32.021  10.934
38475W        W 6880   4.189  21.244   2.403
38476W        W 6881   8.511  32.432  14.461
38477W        W 6882  43.913  19.476   2.837
38478W        W 6883  23.426  18.967   3.201
38479W        W 6884   4.249  14.808   4.227
38480W        W 6885  40.989  14.235  14.392
38481W        W 6886  37.355  16.557   3.296
38482W        W 6887  19.077  27.419  11.598
38483W        W 6888   7.235  29.911   1.986
38484W        W 6889   5.363  16.524  11.060
38485W        W 6890  42.844  33.008   2.714
38486W        W 6891  43.898  36.012   1.658
38487W        W 6892   6.218  34.634   1.813
38488W        W 6893  25.715   9.860  11.887
38489W        W 6894  43.358  17.019  12.888
38490W        W 6895  40.501  10.222  11.937
38491W        W 6896  33.953  13.359  14.087
38492W        W 6897  17.168  15.524   1.705
38493W        W 6898  16.349  42.906  10.092
38494W        W 6899   6.256  32.434   0.072
38495W        W 6900  14.890  24.959   1.769
38496W        W 6901  39.551  20.302   2.249
38497W        W 6902  24.451   1.832  13.821
38498W        W 6903  40.885  36.113   0.500
38499W        W 6904  12.054  28.786  12.113
38500W        W 6905  37.762  38.735   4.391
38501W        W 6906  14.887  37.599   0.398
38502W        W 6907  37.399  17.077   1.432
38503W        W 6908   2.672  30.493   1.798
38504W        W 6909  32.033  21.485   3.308
38505W        W 6910  16.667  33.397   0.021
38506W        W 6911  21.767  16.719  14.451
38507W        W 6912  43.839  29.812   1.373
38508W        W 6913  10.097   4.205   1.248
38509W        W 6914  39.458   1.261  12.552
38510W        W 6915  18.213  18.311  13.009
38511W        W 6916  32.668  36.009   3.232
38512W        W 6917   8.987  27.003   4.506
38513W        W 6918  42.958  11.752   4.605
38514W        W 6919   2.017   4.900   0.004
38515W        W 6920  31.090  22.330   0.929
38516W        W 6921  29.120  41.911  13.570
38517W        W 6922  44.938  40.912  14.235
38518W        W 6923  28.664   5.610   4.837
38519W        W 6924   1.264  24.036  12.068
38520W        W 6925  20.997  11.034  14.980
38521W        W 6926  44.305  13.186  11.959
38522W        W 6927  41.057  10.113  13.398
38523W        W 6928  16.419  36.207   1.500
38524W        W 6929  24.024  10.444  14.370
38525W        W 6930  26.464  20.755  13.938
38526W        W 6931  39.874  38.457   2.292
38527W        W 6932  28.463  19.519  12.064
38528W        W 6933  18.283  38.247   4.124
38529W        W 6934  31.053  16.411  12.072
38530W        W 6935  35.029  34.930  14.781
38531W        W 6936  39.967   1.272  14.538
38532W        W 6937  12.718  42.818   2.254
38533W        W 6938   7.932  13.038  11.167
38534W        W 6939  30.870  36.631  13.573
38535W        W 6940   5.465   6.708   1.668
38536W        W 6941  22.469  10.628  11.076
38537W        W 6942  38.227  33.235  11.280
38538W        W 6943  21.670  19.700  11.962
38539W        W 6944   3.413  39.593  11.968
38540W        W 6945  10.256  20.581  13.086
38541W        W 6946  42.845  20.881   5.124
38542W        W 6947  16.876  27.236  13.506
38543W        W 6948  40.344  24.737   4.311
38544W        W 6949  18.339   2.859   3.820
38545W        W 6950  36.299  26.624  10.085
38546W        W 6951  25.821  32.901  12.510
38547W        W 6952  24.595  33.013   4.266
38548W        W 6953  43.425   2.663  14.869
38549W        W 6954   6.677   0.839  11.472
38550W        W 6955  20.017  33.574  10.668
38551W        W 6956   4.418  10.226   1.839
38552W        W 6957  33.023  26.927  10.429
38553W        W 6958   0.832   9.810   1.180
38554W        W 6959  34.752   8.111   2.146
38555W        W 6960  21.922  37.069   2.285
38556W        W 6961  28.621  20.297  11.654
38557W        W 6962  32.999   5.175   1.034
38558W        W 6963   2.470  33.364   1.654
38559W        W 6964  40.887  18.141  14.619
38560W        W 6965  19.592  41.763   1.861
38561W        W 6966  34.973  44.261   0.865
38562W        W 6967  30.460  13.339  13.780
38563W        W 6968   9.264  33.269   3.692
38564W        W 6969   6.832  32.907   4.975
38565W        W 6970  26.011  11.768  12.904
38566W        W 6971  43.327   2.911   1.224
38567W        W 6972  29.989   0.782  12.931
38568W        W 6973  13.124   0.532  12.747
38569W        W 6974  36.425  12.713   2.207
38570W        W 6975   8.390  27.230   2.647
38571W        W 6976  22.026  17.075   3.799
38572W        W 6977   0.253   3.305  14.080
38573W        W 6978   1.678   2.439  14.534
38574W        W 6979  13.093  43.899   4.493
38575W        W 6980  18.496  12.192  14.352
38576W        W 6981  44.391  37.196  10.943
38577W        W 6982  18.892  21.164  10.638
38578W        W 6983  42.713   3.926   3.586
38579W        W 6984  39.867  38.513  14.853
38580W        W 6985  23.159  18.530   0.411
38581W        W 6986  29.121  27.977   0.279
38582W        W 6987  39.302  24.031  14.059
38583W        W 6988   6.372  16.538  14.869
38584W        W 6989  22.569  32.960  10.899
38585W        W 6990  32.568   6.948   4.075
38586W        W 6991  14.555  11.116   3.751
38587W        W 6992  21.917  33.898   4.130
38588W        W 6993  32.991  26.803   3.352
38589W        W 6994  44.879   8.654   4.118
38590W        W 6995  13.065  40.598  10.379
38591W        W 6996  19.102  10.803   5.047
38592W        W 6997  18.568  24.128   3.423
38593W        W 6998  28.386  32.132   3.257
38594W        W 6999  20.564  27.083  13.022
38595W        W 7000   7.884  38.328   3.299
38596W        W 7001  37.419  31.840  14.443
38597W        W 7002   7.754  43.697  13.484
38598W        W 7003  31.622   7.821   4.305
38599W        W 7004  29.128  28.496  11.266
38600W        W 7005  21.556  21.446   0.968
38601W        W 7006  16.225   3.671  12.393
38602W        W 7007  43.364  13.246  13.137
38603W        W 7008  12.355  39.263  10.625
38604W        W 7009  35.638  14.359  11.963
38605W        W 7010  29.909   0.177   1.282
38606W        W 7011  11.682   9.877   1.383
38607W        W 7012  19.000  13.750  10.176
38608W        W 7013  35.907  19.880   2.125
38609W        W 7014  28.476  20.027  12.073
38610W        W 7015  44.758  32.448  11.095
38611W        W 7016  25.197   5.965   0.473
38612W        W 7017   7.923  19.772  10.361
38613W        W 7018  34.600  42.697   4.554
38614W        W 7019  32.646  22.255   3.335
38615W        W 7020  10.858  19.679  10.700
38616W        W 7021  18.740  43.351  12.932
38617W        W 7022  28.392  38.305   4.075
38618W        W 7023  21.374  16.752  11.042
38619W        W 7024  12.313  42.975  12.128
38620W        W 7025   6.399   9.189   0.806
38621W        W 7026  16.216   7.436   5.346
38622W        W 7027  26.662   9.341   2.840
38623W        W 7028  40.528  14.534  10.829
38624W        W 7029  14.180   0.011   2.880
38625W        W 7030   9.745   1.160   1.919
38626W        W 7031   0.024   8.663   1.626
38627W        W 7032  35.444  17.687   0.985
38628W        W 7033  10.687   3.718  11.800
38629W        W 7034  16.323   5.477  10.696
38630W        W 7035  34.003  15.366   2.300
38631W        W 7036  33.478  41.330   0.902
38632W        W 7037  24.991  10.834   4.084
38633W        W 7038   8.862  27.077  12.896
38634W        W 7039  42.030  15.745  11.503
38635W        W 7040   1.567  37.944   1.216
38636W        W 7041  14.532  22.538   0.319
38637W        W 7042  15.344  18.598  14.461
38638W        W 7043  31.751  41.790   3.749
38639W        W 7044  13.798   0.051   4.610
38640W        W 7045  27.751   1.362   3.594
38641W        W 7046   9.665  23.216  13.870
38642W        W 7047  11.099  30.868  12.504
38643W        W 7048   6.434   3.711   4.098
38644W        W 7049  10.754  10.425   4.599
38645W        W 7050  26.291   3.295   3.484
38646W        W 7051  28.077   7.756   2.299
38647W        W 7052  21.238   8.180  10.337
38648W        W 7053  30.206  39.415   0.862
38649W        W 7054  40.929   6.943   1.693
38650W        W 7055  36.783  10.421  11.611
38651W        W 7056   5.444  24.151  11.371
38652W        W 7057   4.510  37.354  10.663
38653W        W 7058  18.147  25.734   3.995
38654W        W 7059  21.471  11.087  12.456
38655W        W 7060  27.741  26.076   0.188
38656W        W 7061  14.849  44.341   3.261
38657W        W 7062   4.353  12.557   0.319
38658W        W 7063   1.318  16.338  13.459
38659W        W 7064   4.719  25.189  11.040
38660W        W 7065  38.065  39.847   0.362
38661W        W 7066  25.712  31.021  11.614
38662W        W 7067  32.505  36.894   0.400
38663W        W 7068  19.200  37.249  14.210
38664W        W 7069  27.501  31.547  10.496
38665W        W 7070   1.694  18.014   0.206
38666W        W 7071  13.444  12.285  10.620
38667W        W 7072  40.959   3.180  11.758
38668W        W 7073  15.408  38.105   4.747
38669W        W 7074  11.621  34.191  11.659
38670W        W 7075  41.491  22.681  13.369
38671W        W 7076  40.323   0.226  11.476
38672W        W 7077   6.628  27.176   4.524
38673W        W 7078  33.493   1.649   2.293
38674W        W 7079   0.754  24.610   3.636
38675W        W 7080  16.136  36.572   3.292
38676W        W 7081  11.605   1.985   1.848
38677W        W 7082  38.617  15.169   2.000
38678W        W 7083  39.785  30.901  11.302
38679W        W 7084  22.248  14.987  12.231
38680W        W 7085  18.764  19.719   2.764
38681W        W 7086  42.784   7.112   3.342
38682W        W 7087  26.272  38.166   3.719
38683W        W 7088  34.462  14.543   3.225
38684W        W 7089   0.083  29.494   4.163
38685W        W 7090  25.436  21.120  14.214
38686W        W 7091  11.161  27.454   0.448
38687W        W 7092  16.715  10.625   0.850
38688W        W 7093  32.949   6.408  12.604
38689W        W 7094   5.987  10.589  11.197
38690W        W 7095  34.554   2.459   2.227
38691W        W 7096  29.461   8.914  10.694
38692W        W 7097  20.604  39.865  12.234
38693W        W 7098  25.617  36.668  12.934
38694W        W 7099  12.808  20.689  12.629
38695W        W 7100  11.151  11.215   3.198
38696W        W 7101  26.671  22.331   3.692
38697W        W 7102  39.130  42.234  14.953
38698W        W 7103  33.662  26.198  14.969
38699W        W 7104  20.291  43.753   3.443
38700W        W 7105  20.065   6.030  12.534
38701W        W 7106  34.023  36.138   0.340
38702W        W 7107  31.657  42.848   0.482
38703W        W 7108   8.553  14.814   4.163
38704W        W 7109  27.489   3.969  11.987
38705W        W 7110  33.350  44.443   9.989
38706W        W 7111   8.993  39.249  10.711
38707W        W 7112  32.379  27.583   1.448
38708W        W 7113  17.192  31.626  11.229
38709W        W 7114  39.395   4.950   1.970
38710W        W 7115   2.334  13.164  11.083
38711W        W 7116  19.709  21.552  14.326
38712W        W 7117  11.237   3.173   1.328
38713W        W 7118  38.833  43.202  12.909
38714W        W 7119  26.176   9.828   9.888
38715W        W 7120  26.589  16.846   5.024
38716W        W 7121  21.301  11.656  11.052
38717W        W 7122  16.583  25.164   4.607
38718W        W 7123  11.862   2.072  12.919
38719W        W 7124  19.153  40.334  11.571
38720W        W 7125  40.573   7.203  11.090
38721W        W 7126  36.454  39.346   0.076
38722W        W 7127  42.954  38.766  12.969
38723W        W 7128  26.275  33.248  11.156
38724W        W 7129  15.060  23.150   5.034
38725W        W 7130  32.990  14.856   1.420
38726W        W 7131  20.640  23.790  14.424
38727W        W 7132  43.437   9.626   0.797
38728W        W 7133  12.157  44.887  13.906
38729W        W 7134   3.150   7.760   3.139
38730W        W 7135  26.236  28.725   3.340
38731W        W 7136  16.606  30.212  10.654
38732W        W 7137  34.375   6.530  12.882
38733W        W 7138  44.971   3.426   1.893
38734W        W 7139  32.028   4.678   0.769
38735W        W 7140  26.649   9.050  14.046
38736W        W 7141  39.405  24.166  11.029
38737W        W 7142  16.991  29.644   2.153
38738W        W 7143  38.389  34.527  12.471
38739W        W 7144   3.826  14.547  11.305
38740W        W 7145  14.380  20.826  11.089
38741W        W 7146   5.984  32.611   1.805
38742W        W 7147   1.485  17.399  10.804
38743W        W 7148  37.030  40.220  14.378
38744W        W 7149  20.546  36.567   4.339
38745W        W 7150  16.540  18.597   0.815
38746W        W 7151  13.677  41.715  13.042
38747W        W 7152  24.560  38.116   1.690
38748W        W 7153  17.141   2.453  13.002
38749W        W 7154  40.555  37.943   3.805
38750W        W 7155  10.449  42.357  10.719
38751W        W 7156   0.300   9.733   2.824
38752W        W 7157  27.036   3.652   0.767
38753W        W 7158  10.111  25.763   0.899
38754W        W 7159   2.347   2.481  11.133
38755W        W 7160  15.644  14.396   0.794
38756W        W 7161  36.119  26.589   5.251
38757W        W 7162  29.037  25.416   4.270
38758W        W 7163  29.191   3.568   4.609
38759W        W 7164  32.956  16.107   0.943
38760W        W 7165  34.526  22.620  13.895
38761W        W 7166  16.409  18.616  14.839
38762W        W 7167   2.057  38.906   4.204
38763W        W 7168  41.968  28.167  13.814
38764W        W 7169  41.281   8.136   0.646
38765W        W 7170   2.283  18.172  12.554
38766W        W 7171  32.709  32.930   4.878
38767W        W 7172  27.121  32.534   1.335
38768W        W 7173  35.349   3.831   2.862
38769W        W 7174  14.229  34.932   3.332
38770W        W 7175  42.888   7.366   0.002
38771W        W 7176  25.678   7.721   2.324
38772W        W 7177  36.107  13.155   1.503
38773W        W 7178  19.528   3.576  10.493
38774W        W 7179  11.720  26.380  11.931
38775W        W 7180  22.077  42.489   2.754
38776W        W 7181  22.998  43.971  12.950
38777W        W 7182   0.882  13.952  14.386
38778W        W 7183  39.746  21.735   3.317
38779W        W 7184  28.042  28.402  12.439
38780W        W 7185   9.874  31.059   0.867
38781W        W 7186  17.149  37.643   4.136
38782W        W 7187  25.144  41.376   1.837
38783W        W 7188  14.545   0.445  13.266
38784W        W 7189  22.618  31.095  10.705
38785W        W 7190  37.404   0.418  10.795
38786W        W 7191  25.231  11.626   4.572
38787W        W 7192  19.219   1.955   3.111
38788W        W 7193  25.715  37.454  14.912
38789W        W 7194  25.476  14.653   1.312
38790W        W 7195  22.582  34.094   3.334
38791W        W 7196  11.599  22.684  11.531
38792W        W 7197  24.206  28.936   4.548
38793W        W 7198  32.321  43.417   2.364
38794W        W 7199   9.855  22.157   1.314
38795W        W 7200  19.215  23.988   2.282
38796W        W 7201  24.258  39.031   3.197
38797W        W 7202   2.008  13.493   1.672
38798W        W 7203  42.863  40.068   3.166
38799W        W 7204  12.971   7.503   3.642
38800W        W 7205  20.014  19.522   3.299
38801W        W 7206  32.867   3.976   1.403
38802W        W 7207  38.483  23.487  14.882
38803W        W 7208  33.401  42.911   4.563
38804W        W 7209  19.010  17.563  11.158
38805W        W 7210   1.105  29.919   0.736
38806W        W 7211   2.129  37.980  12.463
38807W        W 7212  34.023  14.187   2.804
38808W        W 7213   7.649  16.692   2.182
38809W        W 7214  43.398  19.832  13.000
38810W        W 7215  42.118  43.350  13.905
38811W        W 7216  19.087  37.290  14.708
38812W        W 7217  31.478  16.322   0.663
38813W        W 7218  42.122  34.161  12.176
38814W        W 7219   4.893  30.490  13.929
38815W        W 7220  39.461  34.948  13.842
38816W        W 7221  29.958   9.397  14.769
38817W        W 7222  28.178  39.386  10.640
38818W        W 7223   0.005  34.364  10.412
38819W        W 7224  13.200   8.105  11.555
38820W        W 7225   5.602  19.987  11.660
38821W        W 7226  37.806   9.998  14.364
38822W        W 7227  43.648  43.877   3.500
38823W        W 7228  14.367  25.138  13.472
38824W        W 7229  32.372  13.502   3.828
38825W        W 7230  29.457  42.785  13.903
38826W        W 7231  25.431  14.353   3.468
38827W        W 7232  27.391  36.547  14.900
38828W        W 7233  15.731   1.746   1.326
38829W        W 7234  26.390  25.716  11.568
38830W        W 7235   6.927   1.286  11.764
38831W        W 7236   6.271   9.726  14.478
38832W        W 7237   4.478  27.673   0.868
38833W        W 7238  31.070  38.371  12.553
38834W        W 7239  30.037  30.564  11.058
38835W        W 7240  43.468  32.574  10.732
38836W        W 7241  26.005  23.966   1.733
38837W        W 7242  12.915  12.255  10.531
38838W        W 7243  20.635   3.046   3.779
38839W        W 7244  31.339  30.139  11.712
38840W        W 7245   4.770  18.759   0.689
38841W        W 7246   5.018   5.654  11.238
38842W        W 7247  19.047  14.403   4.171
38843W        W 7248   2.152  15.128   4.488
38844W        W 7249  23.838  20.235   0.273
38845W        W 7250   9.393  23.092  14.310
38846W        W 7251  14.322   3.941   1.298
38847W        W 7252  14.540  32.104  14.394
38848W        W 7253  42.839  44.539  14.124
38849W        W 7254  12.698   9.686  11.628
38850W        W 7255  17.167  27.849   9.892
38851W        W 7256   9.276  27.234   4.124
38852W        W 7257   3.677  29.433  10.807
38853W        W 7258  35.074  36.522   1.631
38854W        W 7259  10.454  44.593   4.111
38855W        W 7260  32.128  27.646  12.940
38856W        W 7261   5.209  21.072   4.538
38857W        W 7262  15.203  44.972  13.962
38858W        W 7263  42.004  20.767  11.218
38859W        W 7264  10.415  24.751  12.521
38860W        W 7265  12.322  44.558   9.966
38861W        W 7266  44.214  19.805  14.680
38862W        W 7267   1.605   7.953   5.265
38863W        W 7268   7.242  20.346  13.960
38864W        W 7269  24.436  33.290  13.146
38865W        W 7270  23.184  15.413   4.107
38866W        W 7271   4.040  18.736  13.864
38867W        W 7272  21.628  19.598  14.921
38868W        W 7273  30.163  38.809  13.782
38869W        W 7274  12.529  10.176   0.379
38870W        W 7275  20.270   8.372   1.698
38871W        W 7276  26.997  26.517   2.774
38872W        W 7277  33.355  25.271  12.562
38873W        W 7278  41.634  28.689  12.000
38874W        W 7279  22.215  42.626  11.062
38875W        W 7280  41.404  35.962   4.562
38876W        W 7281  41.052  28.162  14.837
38877W        W 7282  18.576  32.978  10.536
38878W        W 7283  44.178  40.200  13.433
38879W        W 7284  41.306   2.886   2.267
38880W        W 7285  31.776  15.394   3.249
38881W        W 7286  19.598  10.832  14.313
38882W        W 7287  34.486  21.234   0.181
38883W        W 7288  44.810  37.097   0.810
38884W        W 7289  31.382  29.988   0.973
38885W        W 7290  28.696  25.427  14.568
38886W        W 7291  24.289  44.512  12.119
38887W        W 7292  15.590  44.311   4.182
38888W        W 7293  43.014  43.071   1.736
38889W        W 7294  11.397  38.133   1.803
38890W        W 7295  19.514  27.960   1.651
38891W        W 7296  44.092  43.360  11.209
38892W        W 7297  15.177  44.851   3.870
38893W        W 7298  23.501  18.013   1.343
38894W        W 7299  12.124  30.146   4.105
38895W        W 7300   8.395  42.494   1.249
38896W        W 7301   0.488  41.341  11.234
38897W        W 7302  43.319   5.800  10.796
38898W        W 7303  36.084  43.783   1.999
38899W        W 7304  30.828  36.502  10.863
38900W        W 7305  33.454  32.911   0.431
38901W        W 7306  19.778  26.868   3.091
38902W        W 7307   1.822  11.900   0.169
38903W        W 7308  28.547   0.991  11.428
38904W        W 7309   9.418   0.220   1.949
38905W        W 7310  17.509  43.834   3.809
38906W        W 7311   6.835  27.128  13.019
38907W        W 7312   9.901  22.733  13.864
38908W        W 7313   4.088  36.610  13.743
38909W        W 7314  11.637  24.724  10.788
38910W        W 7315   5.746  25.583   3.258
38911W        W 7316  15.947  10.703   3.573
38912W        W 7317  37.935   7.655  12.946
38913W        W 7318   6.444  29.150  14.500
38914W        W 7319  20.216  16.309  11.401
38915W        W 7320  11.744  12.805   1.197
38916W        W 7321  23.957  10.335  13.339
38917W        W 7322  19.110  42.943  11.834
38918W        W 7323  11.147  22.421  13.837
38919W        W 7324  28.989  37.982  14.952
38920W        W 7325  13.560  25.193  12.907
38921W        W 7326  44.442  21.450  11.834
38922W        W 7327  17.298  21.623  10.349
38923W        W 7328  29.292  18.137  12.469
38924W        W 7329  21.657  33.073   2.641
38925W        W 7330   7.437   3.172  11.091
38926W        W 7331  37.282  30.182   1.386
38927W        W 7332  15.192  25.367  14.913
38928W        W 7333  25.660   2.443  11.377
38929W        W 7334  11.310  41.115  12.491
38930W        W 7335  20.532  34.011  13.482
38931W        W 7336  21.105  19.770   1.810
38932W        W 7337  33.952  38.997  11.799
38933W        W 7338  21.453  44.594   1.209
38934W        W 7339  22.734  32.531  14.305
38935W        W 7340  38.483  30.982  10.412
38936W        W 7341  42.776   8.861   1.392
38937W        W 7342   9.852  23.754   1.903
38938W        W 7343  42.279  41.464  10.804
38939W        W 7344  27.051  44.348  13.549
38940W        W 7345  29.543  35.585   3.589
38941W        W 7346  16.264   6.703  10.370
38942W        W 7347  29.216  40.843   3.083
38943W        W 7348   5.391   5.430  10.988
38944W        W 7349  23.307  26.011   0.346
38945W        W 7350  25.896  26.649  14.238
38946W        W 7351  15.969   5.261   1.373
38947W        W 7352  38.426  16.540  11.647
38948W        W 7353   5.629  20.752   4.594
38949W        W 7354  26.159  38.489   0.394
38950W        W 7355  10.320   5.167   4.080
38951W        W 7356  23.228  31.698  11.160
38952W        W 7357  24.722   0.830   1.180
38953W        W 7358   4.169  13.519   2.751
38954W        W 7359   8.234  44.960   0.933
38955W        W 7360  39.392  39.723  13.748
38956W        W 7361  38.302  15.575   4.124
38957W        W 7362  16.624  42.332   4.022
38958W        W 7363  10.656   5.251  13.916
38959W        W 7364  30.576  25.001   4.210
38960W        W 7365  22.991  32.205  14.015
38961W        W 7366   5.809   6.763   4.070
38962W        W 7367  13.352  21.031   2.119
38963W        W 7368  24.495  10.596  12.085
38964W        W 7369  14.676  12.773   1.630
38965W        W 7370  13.170  24.232  14.051
38966W        W 7371  26.214  37.873  11.975
38967W        W 7372  29.037  37.972  11.927
38968W        W 7373  35.281   0.802   3.623
38969W        W 7374  12.502  29.069   0.285
38970W        W 7375   4.927   0.430  14.882
38971W        W 7376  17.187  14.747   0.648
38972W        W 7377  36.590  20.081  14.495
38973W        W 7378   8.975  37.834  14.253
38974W        W 7379  34.117   3.304   1.383
38975W        W 7380  10.487   8.666  12.430
38976W        W 7381  41.208  37.834  13.380
38977W        W 7382   3.338  40.456  11.702
38978W        W 7383  12.155  39.017  14.486
38979W        W 7384   7.384  32.864  11.121
38980W        W 7385   7.828   9.944   1.866
38981W        W 7386  21.067   4.728  12.122
38982W        W 7387   9.046   2.698  12.273
38983W        W 7388  15.690   9.754  14.824
38984W        W 7389  42.379  25.205  14.446
38985W        W 7390  21.294  24.307   0.816
38986W        W 7391  16.191  24.327   1.218
38987W        W 7392  17.990  20.769   4.801
38988W        W 7393  22.481  26.638   3.162
38989W        W 7394   0.386  36.145   2.849
38990W        W 7395  24.543  19.342  14.365
38991W        W 7396  35.026  23.649  10.404
38992W        W 7397  22.977   5.126  14.854
38993W        W 7398  39.164  11.050   2.294
38994W        W 7399  13.283   0.880  14.247
38995W        W 7400   3.204  14.338  13.060
38996W        W 7401  17.841  36.106   0.815
38997W        W 7402   5.147   6.650   2.073
38998W        W 7403  44.394  28.464   0.456
38999W        W 7404  39.546  42.413  12.369
39000W        W 7405  13.655  11.584  14.223
39001W        W 7406  26.535  13.847  12.937
39002W        W 7407  27.869  26.948  12.141
39003W        W 7408  31.371  21.343   0.072
39004W        W 7409  22.016  18.697  11.200
39005W        W 7410  18.848   1.721  14.088
39006W        W 7411   2.333  10.360  11.365
39007W        W 7412  34.908  43.305  12.956
39008W        W 7413  28.824   3.150   4.517
39009W        W 7414   2.256   8.816   4.169
39010W        W 7415  10.306  42.556   4.230
39011W        W 7416   0.814  10.387   2.946
39012W        W 7417   2.812   0.876   3.242
39013W        W 7418  42.289  29.032  12.829
39014W        W 7419  35.847  44.513   3.649
39015W        W 7420  18.703  31.794   9.767
39016W        W 7421  36.378   0.366  13.062
39017W        W 7422  29.524  43.678  14.908
39018W        W 7423  36.177  10.964   3.880
39019W        W 7424   9.189  39.032   2.276
39020W        W 7425  32.430  22.586   1.283
39021W        W 7426  24.506  34.883   4.155
39022W        W 7427  33.925   8.294  11.524
39023W        W 7428  10.658  39.029  12.031
39024W        W 7429  44.950   9.130  10.971
39025W        W 7430  43.449  18.280  11.020
39026W        W 7431   8.417  21.389   2.395
39027W        W 7432   4.744  19.759  11.139
39028W        W 7433   9.646  26.450   4.278
39029W        W 7434   5.865  43.574  13.953
39030W        W 7435   4.163  37.931   2.722
39031W        W 7436  21.540  12.144   2.815
39032W        W 7437  36.385  40.366  11.993
39033W        W 7438   4.947  22.552   3.688
39034W        W 7439  25.358   5.701   2.316
39035W        W 7440  43.253  17.240   2.223
39036W        W 7441   3.743  11.868   1.440
39037W        W 7442   2.614  41.038  11.171
39038W        W 7443  44.811  36.869  14.935
39039W        W 7444   7.081  14.628  12.269
39040W        W 7445  26.937  37.837   2.735
39041W        W 7446  17.719  44.041   1.090
39042W        W 7447  33.479   8.926  13.490
39043W        W 7448   9.749  36.410   1.404
39044W        W 7449  29.480   1.882   1.270
39045W        W 7450   1.453  38.619  12.159
39046W        W 7451  15.892  33.594  11.060
39047W        W 7452  26.559  43.513   1.672
39048W        W 7453  20.636  40.412   3.241
39049W        W 7454  40.302  39.976  13.800
39050W        W 7455  37.468  43.672  13.309
39051W        W 7456  25.593  21.725   2.232
39052W        W 7457  35.642  13.120   3.127
39053W        W 7458  21.970  36.480  13.248
39054W        W 7459   6.357  26.526   3.172
39055W        W 7460  29.690   9.725  12.092
39056W        W 7461  31.528  40.321   1.842
39057W        W 7462   3.480  22.727  11.523
39058W        W 7463  22.117  13.775  12.964
39059W        W 7464  30.485   8.847  14.387
39060W        W 7465  17.270  39.508   0.438
39061W        W 7466  44.350  41.325  12.123
39062W        W 7467   8.044  17.565   2.237
39063W        W 7468  14.613  17.514  11.708
39064W        W 7469  13.665   7.825  14.932
39065W        W 7470  32.990  29.252   0.104
39066W        W 7471  26.751  39.984   4.176
39067W        W 7472  35.400  39.340  10.743
39068W        W 7473  14.347   8.087   0.365
39069W        W 7474  13.662   3.948  10.683
39070W        W 7475  12.059   2.746   3.372
39071W        W 7476  13.074  23.250   2.468
39072W        W 7477  36.955  21.017  11.700
39073W        W 7478  26.017  35.538  11.113
39074W        W 7479  44.839   1.545  14.878
39075W        W 7480   5.373  37.960   0.043
39076W        W 7481  36.667  41.080  14.120
39077W        W 7482   0.937  17.679  11.634
39078W        W 7483  30.996  42.093  13.305
39079W        W 7484  28.414  22.043   0.265
39080W        W 7485  26.416  25.029  12.075
39081W        W 7486  21.657  24.366  10.133
39082W        W 7487  25.008   4.313  14.806
39083W        W 7488  29.778  29.126   2.791
39084W        W 7489  42.876  26.779   3.592
39085W        W 7490  32.988  28.893   0.493
39086W        W 7491   0.880   8.482  13.986
39087W        W 7492  24.020  24.520  11.144
39088W        W 7493  39.024  32.417   2.674
39089W        W 7494  39.057   9.887   1.767
39090W        W 7495   8.768  30.470   3.988
39091W        W 7496   2.366  41.282  13.870
39092W        W 7497  33.052   5.848  13.292
39093W        W 7498   4.894  22.705  14.759
39094W        W 7499   0.854  38.675   3.726
39095W        W 7500  44.676   9.288  11.373
39096W        W 7501  25.132  40.904   4.465
39097W        W 7502  37.326  40.420   4.151
39098W        W 7503   2.898  25.704  10.836
39099W        W 7504  18.559  42.000   3.786
39100W        W 7505  38.268  30.014   4.652
39101W        W 7506  33.759   5.446  13.517
39102W        W 7507  29.131   0.256   4.813
39103W        W 7508  40.232  29.567   2.683
39104W        W 7509  35.187  11.325  10.710
39105W        W 7510  31.463  15.742   1.879
39106W        W 7511  11.126  44.736  13.371
39107W        W 7512   7.178  41.829  12.054
39108W        W 7513   3.438   6.181  12.080
39109W        W 7514  28.044  17.499   1.328
39110W        W 7515   1.669  25.061  12.546
39111W        W 7516  41.504   7.243   3.715
39112W        W 7517  25.272  38.782   0.252
39113W        W 7518  10.475  27.377  11.158
39114W        W 7519  37.526  10.416   3.284
39115W        W 7520  42.480  40.080  10.741
39116W        W 7521  14.031  14.652  13.453
39117W        W 7522  42.300  35.839  11.546
39118W        W 7523  16.334  35.593   2.569
39119W        W 7524  39.004  36.824   0.817
39120W        W 7525  23.575   0.542  14.901
39121W        W 7526  12.711   1.976  11.865
39122W        W 7527   6.308  43.215   1.211
39123W        W 7528  34.212  40.100   2.452
39124W        W 7529  30.897   2.480   4.077
39125W        W 7530  19.004  25.598   4.689
39126W        W 7531  15.736  39.076   1.078
39127W        W 7532   0.113  34.049   0.779
39128W        W 7533  42.480  32.041   0.162
39129W        W 7534  39.250  31.801  14.925
39130W        W 7535  39.390   2.547   5.418
39131W        W 7536  14.075  10.936  12.319
39132W        W 7537   6.235  23.089  12.854
39133W        W 7538  40.425  25.631   4.887
39134W        W 7539   4.730  21.064   0.370
39135W        W 7540  37.836  23.194   2.450
39136W        W 7541  28.122  43.025  10.044
39137W        W 7542  21.254  41.757   4.537
39138W        W 7543  29.457  43.482   1.854
39139W        W 7544  40.027  11.831   0.907
39140W        W 7545  41.854  14.700   4.454
39141W        W 7546  22.083  22.819  14.382
39142W        W 7547  34.124   2.798   1.296
39143W        W 7548  28.570  32.669  13.992
39144W        W 7549  40.012  35.061  12.843
39145W        W 7550  30.157  44.672  10.764
39146W        W 7551  12.937  38.608   4.109
39147W        W 7552  17.548  44.795  10.689
39148W        W 7553   4.852  39.473  10.896
39149W        W 7554  12.869  26.437  11.083
39150W        W 7555  19.981  11.781  14.454
39151W        W 7556  31.969  43.590   4.225
39152W        W 7557  15.804  37.129   0.574
39153W        W 7558  16.242   4.292   1.954
39154W        W 7559  39.489  12.684   0.938
39155W        W 7560   6.967  44.578  11.080
39156W        W 7561  20.639  26.214  10.901
39157W        W 7562  16.775  41.011  13.591
39158W        W 7563  25.658   0.254   0.871
39159W        W 7564  25.847   5.918  13.527
39160W        W 7565  24.731   7.808   0.318
39161W        W 7566   2.397   2.864   0.357
39162W        W 7567  40.696   9.487  10.713
39163W        W 7568   8.812  41.007   0.374
39164W        W 7569   8.999   7.281  12.373
39165W        W 7570   4.904  10.068  12.201
39166W        W 7571  17.063   5.873  14.958
39167W        W 7572  34.480  37.023   1.709
39168W        W 7573  13.418   4.943   0.516
39169W        W 7574  43.494   3.246   1.991
39170W        W 7575  25.812  38.985  12.381
39171W        W 7576  22.825   2.383   0.396
39172W        W 7577  44.039  40.878   1.755
39173W        W 7578  40.102  37.069  10.932
39174W        W 7579  11.896  26.052   1.848
39175W        W 7580   8.407  25.769  12.967
39176W        W 7581  30.776  27.437  10.714
39177W        W 7582  26.662  13.278   4.731
39178W        W 7583   7.218   9.435   1.463
39179W        W 7584   6.331   0.056   1.016
39180W        W 7585  43.694   7.748   0.777
39181W        W 7586  39.046  22.398  11.996
39182W        W 7587  39.397  26.551   0.395
39183W        W 7588  17.612  31.043   2.117
39184W        W 7589   0.004  23.559  13.484
39185W        W 7590  26.699  15.403   2.750
39186W        W 7591  35.135  40.022  14.452
39187W        W 7592  44.394  15.755  14.535
39188W        W 7593  44.945  13.723   4.403
39189W        W 7594  12.798  18.543   0.973
39190W        W 7595  35.476  24.782   4.681
39191W        W 7596  19.218   3.385  13.555
39192W        W 7597  38.887  20.636   4.197
39193W        W 7598  18.211  24.458  14.075
39194W        W 7599  39.856  30.986  11.800
39195W        W 7600  16.610  16.840   3.887
39196W        W 7601   9.725  35.984  14.010
39197W        W 7602  40.811   0.324   0.780
39198W        W 7603  42.318  23.583   1.627
39199W        W 7604  24.827   2.392   3.317
39200W        W 7605   5.919  22.206  14.526
39201W        W 7606  43.949  26.651   2.300
39202W        W 7607  34.978   6.349  14.813
39203W        W 7608  11.341  31.635  13.884
39204W        W 7609  22.315  37.268  12.910
39205W        W 7610  20.910  24.531  13.851
39206W        W 7611  31.638  30.112   3.713
39207W        W 7612  37.434  35.618  12.525
39208W        W 7613  38.018   2.924   1.399
39209W        W 7614  27.189  11.247   1.938
39210W        W 7615  18.743  41.447  11.998
39211W        W 7616  11.300  12.226  11.510
39212W        W 7617  31.386  39.711  11.922
39213W        W 7618  23.144  30.932  11.592
39214W        W 7619   6.707   9.377   0.028
39215W        W 7620   7.597   1.371   3.431
39216W        W 7621   4.030  28.551   3.215
39217W        W 7622   1.248  34.363   3.830
39218W        W 7623  24.681  38.750   3.327
39219W        W 7624  17.859  23.081  12.563
39220W        W 7625   6.981  24.528   3.400
39221W        W 7626  19.376  37.582  13.867
39222W        W 7627  34.986  30.471  14.441
39223W        W 7628  42.812  13.422  12.294
39224W        W 7629  35.662  44.325   9.924
39225W        W 7630  36.466  42.481   4.132
39226W        W 7631   8.185  33.843   3.670
39227W        W 7632  41.975   3.709  11.461
39228W        W 7633  44.021  32.723   0.194
39229W        W 7634  41.942  27.549   2.844
39230W        W 7635  11.643  30.908  11.578
39231W        W 7636  21.212  12.855  10.732
39232W        W 7637  25.729  43.901   1.475
39233W        W 7638  31.123   9.730  11.904
39234W        W 7639  41.822  42.662  10.188
39235W        W 7640   5.139  23.100   4.544
39236W        W 7641  20.559   9.726  14.727
39237W        W 7642  36.570  40.391   2.109
39238W        W 7643   0.016  17.042  14.619
39239W        W 7644  42.093   5.400   4.659
39240W        W 7645  11.803  36.397   3.071
39241W        W 7646  40.948  44.789  12.120
39242W        W 7647   5.272  25.533  10.779
39243W        W 7648  10.294  16.784   0.277
39244W        W 7649  29.503   6.374   4.318
39245W        W 7650  29.519  16.545   2.969
39246W        W 7651  39.913   0.044  14.014
39247W        W 7652  27.320   4.571   0.678
39248W        W 7653  19.534  38.325   3.092
39249W        W 7654   3.653  10.167  13.583
39250W        W 7655  14.603  35.164   3.076
39251W        W 7656  30.669  34.066  11.211
39252W        W 7657  27.946  31.919  11.166
39253W        W 7658  12.914  43.758  11.078
39254W        W 7659  29.512  29.382  14.885
39255W        W 7660   9.287  15.661  14.604
39256W        W 7661  23.967  27.923  13.962
39257W        W 7662  27.185  38.131  14.519
39258W        W 7663  24.705  20.210  10.728
39259W        W 7664  33.563   2.870   3.363
39260W        W 7665  43.868  16.599  12.458
39261W        W 7666  27.477   4.769   1.449
39262W        W 7667  18.084  26.448   0.964
39263W        W 7668  42.436  21.823  12.095
39264W        W 7669   8.398  43.049  13.088
39265W        W 7670  10.136  44.893   4.395
39266W        W 7671  23.451   6.664   3.567
39267W        W 7672   2.381  42.727   4.120
39268W        W 7673  18.297  30.535  14.313
39269W        W 7674  26.525  39.000  13.884
39270W        W 7675  26.422  40.720  11.577
39271W        W 7676   2.296  27.988  13.319
39272W        W 7677   4.099  17.546  11.146
39273W        W 7678  13.126   9.997  11.546
39274W        W 7679   8.677  17.112  12.434
39275W        W 7680  23.807  13.236   4.186
39276W        W 7681  26.504  13.798  10.804
39277W        W 7682  19.249  36.287   3.821
39278W        W 7683  33.722  40.887   1.002
39279W        W 7684  12.852   9.048  14.818
39280W        W 7685  15.475  39.424  10.739
39281W        W 7686  31.186  39.230   9.889
39282W        W 7687   0.756  37.348  14.293
39283W        W 7688  25.287   2.813  13.992
39284W        W 7689  35.931  43.941   0.976
39285W        W 7690   4.243  39.880   3.232
39286W        W 7691  24.164  36.054   4.706
39287W        W 7692  12.803  42.131   4.198
39288W        W 7693  26.500  17.803  13.570
39289W        W 7694  44.197  11.152   4.579
39290W        W 7695  15.818   8.294  12.734
39291W        W 7696  35.017  44.710  13.799
39292W        W 7697  41.792  40.347  12.534
39293W        W 7698  21.681  25.606   4.693
39294W        W 7699  19.159  38.273  11.154
39295W        W 7700   9.316   5.202   4.046
39296W        W 7701  21.329  43.525   2.818
39297W        W 7702  27.470  39.114  11.806
39298W        W 7703   8.296  41.788  12.616
39299W        W 7704  22.979  33.013   1.327
39300W        W 7705  13.721  13.027   1.549
39301W        W 7706   7.145   1.400   1.412
39302W        W 7707  13.811   4.197   1.240
39303W        W 7708  19.478   4.449  14.917
39304W        W 7709  41.841  28.613   0.964
39305W        W 7710   7.126  24.858  13.326
39306W        W 7711  23.317   6.446  12.947
39307W        W 7712  32.125  17.646  14.367
39308W        W 7713  41.962  22.819  13.570
39309W        W 7714   6.490   5.919   4.342
39310W        W 7715  19.487   5.644   2.420
39311W        W 7716  38.006   2.738   0.599
39312W        W 7717   6.173  17.358   4.191
39313W        W 7718  14.842   1.751  10.188
39314W        W 7719  13.110  14.796   3.529
39315W        W 7720  32.316   4.315   1.076
39316W        W 7721  26.063   1.522   4.656
39317W        W 7722  30.625   0.139  13.802
39318W        W 7723   7.790   7.351  12.568
39319W        W 7724   6.714  19.070   4.669
39320W        W 7725  43.904  37.870   3.252
39321W        W 7726  35.690  40.962  12.951
39322W        W 7727  15.704  16.519   2.922
39323W        W 7728  31.984  18.014  12.510
39324W        W 7729  35.898  35.143   4.581
39325W        W 7730   1.221  41.737   0.428
39326W        W 7731   0.728  23.029  10.244
39327W        W 7732   4.779   5.461  12.557
39328W        W 7733  44.015  30.094  13.948
39329W        W 7734   4.921  19.854  14.888
39330W        W 7735  33.201  33.562  14.727
39331W        W 7736  18.735  35.839   2.302
39332W        W 7737   5.605  10.844   0.350
39333W        W 7738  36.814   6.605   2.391
39334W        W 7739  18.940  31.976  10.201
39335W        W 7740  16.685  43.044   1.385
39336W        W 7741  22.611  25.033   3.649
39337W        W 7742  23.989  34.545   2.605
39338W        W 7743  36.990  37.854  11.225
39339W        W 7744  18.332  25.406  11.067
39340W        W 7745  12.445  31.518   4.164
39341W        W 7746   2.685  21.218   1.157
39342W        W 7747  42.200  42.020  13.078
39343W        W 7748  42.717  28.436  12.026
39344W        W 7749  23.605   4.454  14.890
39345W        W 7750  40.146  40.599  14.358
39346W        W 7751   3.927   4.242  14.688
39347W        W 7752  12.348  36.496   1.248
39348W        W 7753  14.556  33.577  13.418
39349W        W 7754  10.841   6.574  13.957
39350W        W 7755  23.767  10.715   3.772
39351W        W 7756  41.996  25.167   3.821
39352W        W 7757  38.944  41.363   4.774
39353W        W 7758  10.434  15.544  12.445
39354W        W 7759  31.881  37.266   4.596
39355W        W 7760  35.533   0.512  11.985
39356W        W 7761  24.505  16.395  10.857
39357W        W 7762   8.329  20.994   4.608
39358W        W 7763  19.418   6.873   4.053
39359W        W 7764  32.487  28.581   1.063
39360W        W 7765   1.282   5.646  13.860
39361W        W 7766   6.528  37.447   4.695
39362W        W 7767  16.689  26.773   2.271
39363W        W 7768   5.549  32.502   3.284
39364W        W 7769  16.809  38.886  13.046
39365W        W 7770   1.936   0.537   2.826
39366W        W 7771  44.988  16.797  11.131
39367W        W 7772  34.981   1.505   0.434
39368W        W 7773  17.919  24.552   2.415
39369W        W 7774   6.245  14.330  11.188
39370W        W 7775   8.194  25.204  12.376
39371W        W 7776  32.108   0.382  13.699
39372W        W 7777  28.024   9.886  10.087
39373W        W 7778  15.990  12.225   4.056
39374W        W 7779  18.307  21.015  12.009
39375W        W 7780  10.894  13.828  12.366
39376W        W 7781  43.010  37.456   3.571
39377W        W 7782  18.827  32.110  11.476
39378W        W 7783  37.521   8.446   2.889
39379W        W 7784   3.446  14.328   1.404
39380W        W 7785   1.405   4.304   2.775
39381W        W 7786  44.045   9.169  12.525
39382W        W 7787  15.506   5.846  14.188
39383W        W 7788  38.759  16.149  13.807
39384W        W 7789  40.798  16.047  11.158
39385W        W 7790  31.162  10.782  12.961
39386W        W 7791  26.231  17.657  14.019
39387W        W 7792  17.045  21.162   0.397
39388W        W 7793  31.405  19.352   3.728
39389W        W 7794  18.249  22.071   4.042
39390W        W 7795  18.003  19.987   1.772
39391W        W 7796  41.521  36.934  11.945
39392W        W 7797  35.332  15.165   0.906
39393W        W 7798  17.924  39.003  13.516
39394W        W 7799  12.558  34.603  14.288
39395W        W 7800  22.258  10.607   2.285
39396W        W 7801  35.647  27.255  12.678
39397W        W 7802  31.993  16.238   0.835
39398W        W 7803  16.142  17.511  14.416
39399W        W 7804  32.919   5.146  12.071
39400W        W 7805  21.493  38.041  14.289
39401W        W 7806  21.705  35.487  12.085
39402W        W 7807   3.189  41.941   1.349
39403W        W 7808  19.601  27.246  12.829
39404W        W 7809  12.328  35.618   4.725
39405W        W 7810  36.543  40.386   3.643
39406W        W 7811  18.685  12.644  12.992
39407W        W 7812  13.780  14.811  12.998
39408W        W 7813  44.901  36.096   2.117
39409W        W 7814  42.409  24.565  13.051
39410W        W 7815   3.341  22.450   3.947
39411W        W 7816  23.065  31.916   1.854
39412W        W 7817  13.247  28.070  11.483
39413W        W 7818  22.629  42.997  12.649
39414W        W 7819  37.669  20.570  14.327
39415W        W 7820   8.894  25.788   1.693
39416W        W 7821  17.273  43.808  13.329
39417W        W 7822  44.934  12.118  12.367
39418W        W 7823   8.185  20.209  11.176
39419W        W 7824  35.692  43.954   2.320
39420W        W 7825  30.031  42.441   1.714
39421W        W 7826  25.014  21.578   3.897
39422W        W 7827  34.004  34.934  11.593
39423W        W 7828   2.429  33.124   4.921
39424W        W 7829  33.979  22.411   1.342
39425W        W 7830  13.896  20.132  10.733
39426W        W 7831   7.918  14.847   2.507
39427W        W 7832  24.703  29.139  12.514
39428W        W 7833   4.194   3.855   0.871
39429W        W 7834   4.603  14.775  11.967
39430W        W 7835  42.328  38.829  12.457
39431W        W 7836   3.719  19.597  13.103
39432W        W 7837   6.237  26.473  13.295
39433W        W 7838  26.962   6.930  14.390
39434W        W 7839  20.770   7.169   0.806
39435W        W 7840  15.844  31.661  14.486
39436W        W 7841   6.769  16.003  11.177
39437W        W 7842   8.103  11.124   1.323
39438W        W 7843  43.635  30.079   4.876
39439W        W 7844  16.131  24.576   0.010
39440W        W 7845   8.002  18.690   1.955
39441W        W 7846  21.154  14.307   1.869
39442W        W 7847  44.895   6.480  14.365
39443W        W 7848  24.615  36.587   1.282
39444W        W 7849  35.386  13.682   4.205
39445W        W 7850  21.096  26.269   1.748
39446W        W 7851  39.289   6.694  13.666
39447W        W 7852  41.832  34.606  13.386
39448W        W 7853   5.993  23.495  11.237
39449W        W 7854  23.488  18.143   1.848
39450W        W 7855  37.940  37.931   1.266
39451W        W 7856  33.362   3.323   0.930
39452W        W 7857  40.525  19.834   4.321
39453W        W 7858  25.364  31.585   1.746
39454W        W 7859  36.412   6.930   4.522
39455W        W 7860  29.657   3.996  12.570
39456W        W 7861   0.012  23.212   4.099
39457W        W 7862  37.020  19.091   1.834
39458W        W 7863  24.269   9.134  10.560
39459W        W 7864  23.604  28.039   4.858
39460W        W 7865  29.977   8.218   2.106
39461W        W 7866  12.310  24.979   3.737
39462W        W 7867  16.788  21.741  11.003
39463W        W 7868  15.763  18.467  12.640
39464W        W 7869   2.314  28.129  11.934
39465W        W 7870  29.091  14.130   2.232
39466W        W 7871  38.635   5.343   0.843
39467W        W 7872  44.314  40.774  10.765
39468W        W 7873   1.886  21.429   2.494
39469W        W 7874  31.103  36.641  14.344
39470W        W 7875   2.293   2.472  13.001
39471W        W 7876   4.310  42.707  13.022
39472W        W 7877  35.067  32.708  11.212
39473W        W 7878  21.997  31.633  12.875
39474W        W 7879  26.557  25.191   3.146
39475W        W 7880  42.413   2.968   1.185
39476W        W 7881  29.018   7.907   4.533
39477W        W 7882  31.459  33.547  14.213
39478W        W 7883  43.415  34.602   0.515
39479W        W 7884  14.186  29.157   2.278
39480W        W 7885   6.457  19.766   2.466
39481W        W 7886  23.704  26.008  13.816
39482W        W 7887   1.677   7.402  14.328
39483W        W 7888  35.316  18.348  13.397
39484W        W 7889  43.614   2.036  14.394
39485W        W 7890  39.021   7.145   4.239
39486W        W 7891  12.917  41.059  13.421
39487W        W 7892  17.383  29.792  14.925
39488W        W 7893  19.085  31.349   1.244
39489W        W 7894   6.712  32.172   0.434
39490W        W 7895   3.289  42.303   3.841
39491W        W 7896  15.822   3.492  10.623
39492W        W 7897  13.017   0.287  14.923
39493W        W 7898  28.253  25.334  11.147
39494W        W 7899  14.618  27.451   4.657
39495W        W 7900   1.872   0.202  12.458
39496W        W 7901  16.061  35.685  14.301
39497W        W 7902  32.573   5.196   0.765
39498W        W 7903  17.544  36.903  10.757
39499W        W 7904  12.591  32.081   1.024
39500W        W 7905  32.035  27.710   3.754
39501W        W 7906  30.446  33.390   1.374
39502W        W 7907  29.740   2.644  14.939
39503W        W 7908  39.402  33.502   2.245
39504W        W 7909  20.491  38.419   1.683
39505W        W 7910  44.129  28.194   5.133
39506W        W 7911  14.192   4.873  10.843
39507W        W 7912  16.479  26.873   3.138
39508W        W 7913  43.546  14.483  10.491
39509W        W 7914  42.141  11.618  13.326
39510W        W 7915   7.941  13.053   1.347
39511W        W 7916   3.264  19.716  11.415
39512W        W 7917   8.298  26.027  11.114
39513W        W 7918  41.506  25.589  12.977
39514W        W 7919  37.462  44.286   4.968
39515W        W 7920  16.014  14.367   1.172
39516W        W 7921  14.505  18.265   0.410
39517W        W 7922  32.177  32.317   2.249
39518W        W 7923  36.672  11.903  12.124
39519W        W 7924   1.426  28.427   3.175
39520W        W 7925   7.742  43.974  13.047
39521W        W 7926  15.813  42.547   1.228
39522W        W 7927  12.660  10.922   4.124
39523W        W 7928   5.671  27.362   2.684
39524W        W 7929  15.265  22.257  13.968
39525W        W 7930  25.048  40.106   0.674
39526W        W 7931  24.489  34.336   0.827
39527W        W 7932  25.716  21.766   0.237
39528W        W 7933  11.640  27.140  11.571
39529W        W 7934  29.439  10.351   3.874
39530W        W 7935  26.928  27.040   2.659
39531W        W 7936  38.229  19.182  10.567
39532W        W 7937  14.236  44.438   0.841
39533W        W 7938  39.598  44.259  14.009
39534W        W 7939  22.725  20.227   1.238
39535W        W 7940   5.949  44.943   0.157
39536W        W 7941  19.354  22.078   3.302
39537W        W 7942  35.996  19.265   0.380
39538W        W 7943   0.272  12.887  12.042
39539W        W 7944  38.078   0.873  12.056
39540W        W 7945  36.331   2.178   3.268
39541W        W 7946   1.877   8.106  13.421
39542W        W 7947  11.392  31.265   2.768
39543W        W 7948  40.858   4.938   2.305
39544W        W 7949  26.552  21.766  11.579
39545W        W 7950   2.851  43.160  13.107
39546W        W 7951  23.638   8.145  11.479
39547W        W 7952  30.393  38.294  14.222
39548W        W 7953  44.459  34.566  12.975
39549W        W 7954  36.814   2.266   3.738
39550W        W 7955  13.692  33.327   2.767
39551W        W 7956  38.370   5.355  10.744
39552W        W 7957   8.818  12.711   4.764
39553W        W 7958  21.156  17.316   2.760
39554W        W 7959  36.134  40.509   2.362
39555W        W 7960  19.958   7.384  12.454
39556W        W 7961   7.356  44.229   4.268
39557W        W 7962  15.191  43.427   0.543
39558W        W 7963  21.696  30.582   1.487
39559W        W 7964  32.173  28.514  12.109
39560W        W 7965  22.465  21.471  10.616
39561W        W 7966  41.805  39.320  12.563
39562W        W 7967  11.771  20.452  11.989
39563W        W 7968   2.757  26.097   4.803
39564W        W 7969  23.051   4.656  11.931
39565W        W 7970  33.921  42.873   0.662
39566W        W 7971  22.592  38.564  14.982
39567W        W 7972   5.848  16.216  10.718
39568W        W 7973  14.309  23.478  14.155
39569W        W 7974  16.786  36.126   4.566
39570W        W 7975  36.589  33.668   3.725
39571W        W 7976  18.223  43.405   1.604
39572W        W 7977  19.274  34.879  13.118
39573W        W 7978   9.355   0.306  12.004
39574W        W 7979  10.849  19.138   4.758
39575W        W 7980  24.665  23.717  12.862
39576W        W 7981  44.279  33.344  13.474
39577W        W 7982  35.922   0.843   1.331
39578W        W 7983  37.108  13.291  13.949
39579W        W 7984  21.397  37.115   0.945
39580W        W 7985   9.125  25.123  14.594
39581W        W 7986  34.984  34.559  12.258
39582W        W 7987  19.581  20.239  12.139
39583W        W 7988  15.756  43.239   2.840
39584W        W 7989  28.871  15.147   1.782
39585W        W 7990  34.981  41.327   3.726
39586W        W 7991  13.023   2.583   4.818
39587W        W 7992  31.951  22.465  11.187
39588W        W 7993  30.304  30.000   0.211
39589W        W 7994  27.558  44.845   1.412
39590W        W 7995   8.225  28.087   0.494
39591W        W 7996  30.953  19.652   0.444
39592W        W 7997  30.480  11.345  13.189
39593W        W 7998   3.480  41.237  11.149
39594W        W 7999  34.244   4.129   3.802
39595W        W 8000  10.673  13.329  13.184
39596W        W 8001  22.849  22.520   2.087
39597W        W 8002   4.420  30.038  11.456
39598W        W 8003   1.093  37.229  12.869
39599W        W 8004  25.532  12.607   1.704
39600W        W 8005   8.261  24.149  14.963
39601W        W 8006  27.915  36.871  12.890
39602W        W 8007  40.441  19.166   1.914
39603W        W 8008  23.560  20.287   1.130
39604W        W 8009  29.423  33.528   3.944
39605W        W 8010  36.932  39.523   4.606
39606W        W 8011  21.103  13.257   1.734
39607W        W 8012   6.160  27.988   4.650
39608W        W 8013  26.563  21.645  14.001
39609W        W 8014  14.114   7.163   0.228
39610W        W 8015  14.691  27.233   0.501
39611W        W 8016  31.506   5.261  11.934
39612W        W 8017  15.639  38.649  11.227
39613W        W 8018  32.035  40.707   2.791
39614W        W 8019  15.296  24.152   0.465
39615W        W 8020   1.647   1.842   4.262
39616W        W 8021  12.177  21.251  10.782
39617W        W 8022   9.726  38.250   4.616
39618W        W 8023  24.150  36.444   3.171
39619W        W 8024  24.344  39.627  12.143
39620W        W 8025  15.249  28.037   2.376
39621W        W 8026  16.108  44.282   1.327
39622W        W 8027  41.891  16.581   0.781
39623W        W 8028  37.812  26.112   4.439
39624W        W 8029  22.773  29.975   2.682
39625W        W 8030  18.534   7.253   2.266
39626W        W 8031  14.597   4.356  10.749
39627W        W 8032  12.728   7.998   3.321
39628W        W 8033  21.631  39.162   0.617
39629W        W 8034  42.572  29.570   0.374
39630W        W 8035  25.647  40.069   2.303
39631W        W 8036  36.365  34.120   0.944
39632W        W 8037  22.046  39.806  13.897
39633W        W 8038  11.454  26.699   1.088
39634W        W 8039  34.882  32.961   3.154
39635W        W 8040  34.494  37.707  13.613
39636W        W 8041  18.884  40.098  14.781
39637W        W 8042   5.644  26.033   2.390
39638W        W 8043  31.103  33.754  11.064
39639W        W 8044   7.228  31.081  12.603
39640W        W 8045  24.821  20.306   1.695
39641W        W 8046   0.038  43.490  11.156
39642W        W 8047  21.929  42.157   4.676
39643W        W 8048  16.052   2.826   3.255
39644W        W 8049  23.756  13.216  11.691
39645W        W 8050  39.819   6.824   4.828
39646W        W 8051   9.443  38.738   9.691
39647W        W 8052  38.547  16.017   0.708
39648W        W 8053  28.576  40.274  13.027
39649W        W 8054  30.657  40.898   4.515
39650W        W 8055   7.308  29.971  10.570
39651W        W 8056  41.886  43.011   0.461
39652W        W 8057  17.804  10.258  12.485
39653W        W 8058  35.586  24.934   2.706
39654W        W 8059  34.542   2.242   1.288
39655W        W 8060  25.588  29.804  12.040
39656W        W 8061  41.079   3.381   2.347
39657W        W 8062  30.432  44.670   4.013
39658W        W 8063  41.486  30.224   3.143
39659W        W 8064  18.778  37.983   1.202
39660W        W 8065   3.356  17.284   0.250
39661W        W 8066  38.239  13.125  11.339
39662W        W 8067  24.560  41.721  11.313
39663W        W 8068  19.766  35.540  12.888
39664W        W 8069  42.151  24.434   0.321
39665W        W 8070  38.519  25.205  13.466
39666W        W 8071  36.996  22.006   3.115
39667W        W 8072  33.203  44.784  13.803
39668W        W 8073  14.663   5.945   1.424
39669W        W 8074  31.364  20.709  12.780
39670W        W 8075  35.123  23.132  11.735
39671W        W 8076  27.645  38.855  10.117
39672W        W 8077  32.385   3.801   4.005
39673W        W 8078  16.961  35.509   4.147
39674W        W 8079  20.379  22.671   5.450
39675W        W 8080  10.884  11.205  11.466
39676W        W 8081  17.471   7.848  10.686
39677W        W 8082  27.118  44.573  11.179
39678W        W 8083  35.432  39.489   4.638
39679W        W 8084  19.118  23.234   4.053
39680W        W 8085  32.904   8.406  13.928
39681W        W 8086  36.299  31.396   2.720
39682W        W 8087   4.432  11.934  12.046
39683W        W 8088  36.706   2.834  10.063
39684W        W 8089  34.995  21.760  14.223
39685W        W 8090  10.584  37.497   0.146
39686W        W 8091  13.838  27.082   0.400
39687W        W 8092  15.203  14.330  11.207
39688W        W 8093  20.319   6.350   1.224
39689W        W 8094  36.458  28.048  14.770
39690W        W 8095   5.147  38.426  12.500
39691W        W 8096  41.378  15.344   3.825
39692W        W 8097  25.137  19.476  10.580
39693W        W 8098   0.968  17.473   0.513
39694W        W 8099   5.764  20.055  13.482
39695W        W 8100   9.607  13.935   9.515
39696W        W 8101  32.880  26.557  10.785
39697W        W 8102  42.278  10.701   1.859
39698W        W 8103   1.402   2.468  12.606
39699W        W 8104   7.432  21.081   2.325
39700W        W 8105  39.323   3.220  11.382
39701W        W 8106  18.251  16.057  12.570
39702W        W 8107  43.451  41.909   1.212
39703W        W 8108  30.929  25.439  10.681
39704W        W 8109  31.957   0.847   4.670
39705W        W 8110  34.385  23.670   0.091
39706W        W 8111  39.451  41.239   4.676
39707W        W 8112  36.354  36.128  12.585
39708W        W 8113  38.586   4.985  12.545
39709W        W 8114   3.733  22.608  13.285
39710W        W 8115  35.544  12.451  13.470
39711W        W 8116  37.525  35.162   1.899
39712W        W 8117  35.375  27.519   3.269
39713W        W 8118  33.090  14.746   3.659
39714W        W 8119  43.055  26.260   2.959
39715W        W 8120  25.668   7.804   0.020
39716W        W 8121   8.909  23.483  14.996
39717W        W 8122  24.240  34.685  13.101
39718W        W 8123   4.123  11.553   1.663
39719W        W 8124  14.373  22.620   3.690
39720W        W 8125   8.223   6.994  14.611
39721W        W 8126  38.463  37.503  10.955
39722W        W 8127   0.399  28.023  13.356
39723W        W 8128  17.273   0.799  14.441
39724W        W 8129  20.833  18.667   2.543
39725W        W 8130  44.824  44.099  13.021
39726W        W 8131  24.605  22.974   4.851
39727W        W 8132  41.400  12.430   3.973
39728W        W 8133  23.215  22.829  10.803
39729W        W 8134  16.966   1.960  12.928
39730W        W 8135   1.709  33.614   0.330
39731W        W 8136   1.091  13.801   2.570
39732W        W 8137  33.465  32.418   0.284
39733W        W 8138   6.159  35.139   1.758
39734W        W 8139   7.145  23.953  14.550
39735W        W 8140   3.788  15.361  12.051
39736W        W 8141  37.672  11.245   3.848
39737W        W 8142  30.061  22.763   0.012
39738W        W 8143  30.636  40.437   1.258
39739W        W 8144  25.148  32.152   3.126
39740W        W 8145   9.369  17.412   4.246
39741W        W 8146  14.328   6.389  14.310
39742W        W 8147  30.892  16.614  14.863
39743W        W 8148  16.222   3.414   0.936
39744W        W 8149  25.501  32.048   5.084
39745W        W 8150  34.473  40.942   2.981
39746W        W 8151   3.166  30.519  11.045
39747W        W 8152  25.390  33.640  12.905
39748W        W 8153  19.280  43.821   3.275
39749W        W 8154  26.903  40.534   3.814
39750W        W 8155   6.631  35.539   2.106
39751W        W 8156  23.515  25.470  12.479
39752W        W 8157   6.081  42.440  12.089
39753W        W 8158  31.819  34.054  13.330
39754W        W 8159  22.549  10.593  13.099
39755W        W 8160  31.171  17.507   1.374
39756W        W 8161   7.670  44.767  10.606
39757W        W 8162  42.244  23.144  10.939
39758W        W 8163  39.871  14.675  13.969
39759W        W 8164  39.947  33.318   1.852
39760W        W 8165   6.632  24.086  14.002
39761W        W 8166  13.456   9.367   3.653
39762W        W 8167  43.378  27.508   3.138
39763W        W 8168   6.949  15.128  11.969
39764W        W 8169  40.506  31.670  12.244
39765W        W 8170  31.321  22.493  11.678
39766W        W 8171  11.957  16.671  11.020
39767W        W 8172  25.032  36.871   4.501
39768W        W 8173  20.603  44.777  14.746
39769W        W 8174  24.326  10.839  12.490
39770W        W 8175  35.401   9.470   0.430
39771W        W 8176  36.292  41.480   4.047
39772W        W 8177  18.115  32.658   2.109
39773W        W 8178  33.351   1.772  11.801
39774W        W 8179  20.761   6.175   0.385
39775W        W 8180  13.086   9.426   2.764
39776W        W 8181   8.258  10.162   2.893
39777W        W 8182  37.579  34.578   1.264
39778W        W 8183  18.310  13.447  11.158
39779W        W 8184  16.115  13.170  14.841
39780W        W 8185   7.061   9.642  11.525
39781W        W 8186   5.651   0.781   0.734
39782W        W 8187  41.447  34.431  12.038
39783W        W 8188  34.501  41.712   4.444
39784W        W 8189  20.570   1.769  10.947
39785W        W 8190   8.698  19.369   1.528
39786W        W 8191  12.190  32.892  11.639
39787W        W 8192  22.213  36.960   4.228
39788W        W 8193  10.398  31.978   0.744
39789W        W 8194  42.955  36.642   4.192
39790W        W 8195   2.470   0.444  14.922
39791W        W 8196  13.189   1.954   2.305
39792W        W 8197  41.429  39.762  14.264
39793W        W 8198   1.539  21.641  12.622
39794W        W 8199   1.899  14.806   2.254
39795W        W 8200  32.132   9.351   2.452
39796W        W 8201  30.523  16.842   2.349
39797W        W 8202   6.271  18.398  13.848
39798W        W 8203   7.323  14.927  14.340
39799W        W 8204  14.722  28.630  14.412
39800W        W 8205  31.611  12.998   1.469
39801W        W 8206   5.014  36.663  13.938
39802W        W 8207  31.158  28.080   0.945
39803W        W 8208   7.378  25.578  12.419
39804W        W 8209  23.644  43.948   0.527
39805W        W 8210  29.551  28.287  12.555
39806W        W 8211  20.217   7.785   3.825
39807W        W 8212   5.008  25.501   0.957
39808W        W 8213   3.823  37.472   1.010
39809W        W 8214  30.001  42.564  13.331
39810W        W 8215  33.347  35.131   2.845
39811W        W 8216   9.527  28.989   0.961
39812W        W 8217  12.927   5.888   4.440
39813W        W 8218   9.907  21.226   1.400
39814W        W 8219  34.164  43.305   2.711
39815W        W 8220   5.010   0.039  13.489
39816W        W 8221  41.402  26.307   0.194
39817W        W 8222  27.333  16.808  12.474
39818W        W 8223  30.432   4.959  11.154
39819W        W 8224  15.389  14.948  12.935
39820W        W 8225   1.884  30.511   0.558
39821W        W 8226  33.060  10.658   2.383
39822W        W 8227  10.423  18.781  14.391
39823W        W 8228  35.979  38.370   3.135
39824W        W 8229  38.232  22.588   2.754
39825W        W 8230  35.695  29.159  12.547
39826W        W 8231   0.447  19.889   3.583
39827W        W 8232  10.061   8.134   4.706
39828W        W 8233  25.029  31.701  13.162
39829W        W 8234  30.882  27.185  11.131
39830W        W 8235  19.010  39.818  11.566
39831W        W 8236  21.734  30.627   4.224
39832W        W 8237  41.258  23.915  11.123
39833W        W 8238  15.617  42.187  10.763
39834W        W 8239   7.152  14.356   2.283
39835W        W 8240  18.172  34.789  11.653
39836W        W 8241  38.172  40.549   2.852
39837W        W 8242  28.533   1.013  13.883
39838W        W 8243  40.942  33.142  14.782
39839W        W 8244  41.837   1.887   3.191
39840W        W 8245  29.641  33.902   1.261
39841W        W 8246  32.327   3.908  11.562
39842W        W 8247   7.231  44.733   4.132
39843W        W 8248  26.435   5.015   1.344
39844W        W 8249   1.379  24.381   0.845
39845W        W 8250  44.701  23.434  13.885
39846W        W 8251   1.996  40.194  14.911
39847W        W 8252  10.297  12.685  12.541
39848W        W 8253  31.961  36.624  14.773
39849W        W 8254  37.031  10.879  11.662
39850W        W 8255  11.871   9.347   3.752
39851W        W 8256   6.772  30.933  13.929
39852W        W 8257   6.025  28.819  14.548
39853W        W 8258  32.021   8.813   2.726
39854W        W 8259   2.811  16.386   2.514
39855W        W 8260  20.543   6.649   0.740
39856W        W 8261  29.483  12.477  13.427
39857W        W 8262  14.384  19.155   4.369
39858W        W 8263  23.925  23.656  12.120
39859W        W 8264   1.276  40.444   0.674
39860W        W 8265  44.000   9.075  10.773
39861W        W 8266  30.545   9.865  10.692
39862W        W 8267  24.086   0.196  10.541
39863W        W 8268  34.116  38.987   0.673
39864W        W 8269  27.649  26.488   0.982
39865W        W 8270  24.903  30.598   1.353
39866W        W 8271  13.172  37.882  14.776
39867W        W 8272  30.503  27.630   4.399
39868W        W 8273   3.781  14.446   0.392
39869W        W 8274  22.538  19.679   0.385
39870W        W 8275  43.496  15.462   3.150
39871W        W 8276  36.656  29.408  12.056
39872W        W 8277  38.283  29.415  13.973
39873W        W 8278  22.068  20.454  11.376
39874W        W 8279  29.179  17.180  13.472
39875W        W 8280   1.446  19.248  10.973
39876W        W 8281  17.368  32.153   0.963
39877W        W 8282  11.810  39.217   0.341
39878W        W 8283  24.147  43.806  11.888
39879W        W 8284  16.091  17.598   2.348
39880W        W 8285  33.116  28.849  12.484
39881W        W 8286  39.958  29.364  13.995
39882W        W 8287  28.672  26.305  12.000
39883W        W 8288  36.664   8.808   1.321
39884W        W 8289  31.790  39.999   0.253
39885W        W 8290  38.518  38.261   2.004
39886W        W 8291  19.529  39.626   4.022
39887W        W 8292  34.422  30.075  10.689
39888W        W 8293  12.110  34.066  11.621
39889W        W 8294  43.425  23.834  12.997
39890W        W 8295   7.408   9.501   4.735
39891W        W 8296   3.695  41.402   2.870
39892W        W 8297  13.893  16.785  11.211
39893W        W 8298  39.521  39.281   4.573
39894W        W 8299  20.887  27.116   3.675
39895W        W 8300  26.208  20.447  11.610
39896W        W 8301  40.198   6.137  12.913
39897W        W 8302  31.405  25.574   3.889
39898W        W 8303  37.607  10.116  10.677
39899W        W 8304  24.573  19.708   0.354
39900W        W 8305  17.569   5.927   0.730
39901W        W 8306  32.131  41.338  14.498
39902W        W 8307  15.107  39.597   2.275
39903W        W 8308  18.246  33.546   1.040
39904W        W 8309  16.571   4.833  13.017
39905W        W 8310   4.751  12.841  13.671
39906W        W 8311   0.916  34.446   1.301
39907W        W 8312  27.727  30.939  13.056
39908W        W 8313   2.915  11.213   3.913
39909W        W 8314  31.665  36.969  11.170
39910W        W 8315  41.918  18.420  14.431
39911W        W 8316  40.319   7.710  13.826
39912W        W 8317  20.724  11.305   3.664
39913W        W 8318  11.833  22.560   2.396
39914W        W 8319  13.718   1.289   1.421
39915W        W 8320  34.629  30.367  12.008
39916W        W 8321  29.475  24.664  12.098
39917W        W 8322  11.092  12.554   1.426
39918W        W 8323  29.941   3.344   0.359
39919W        W 8324  22.542   6.893  11.138
39920W        W 8325  27.487  27.303  11.137
39921W        W 8326  24.691  43.096  13.040
39922W        W 8327  39.818  39.818  10.750
39923W        W 8328  10.415  15.147   3.969
39924W        W 8329  15.796  22.415  13.046
39925W        W 8330  16.712  34.555   2.853
39926W        W 8331   8.676   0.450  14.902
39927W        W 8332  18.072  32.478   1.628
39928W        W 8333  22.526  31.922  12.630
39929W        W 8334   7.174  18.677  13.402
39930W        W 8335  42.246   5.798   3.403
39931W        W 8336  39.336   9.141   3.702
39932W        W 8337  40.100  41.792  11.085
39933W        W 8338   4.400  29.516   1.304
39934W        W 8339   4.957  33.099   0.696
39935W        W 8340  26.355  44.478   4.167
39936W        W 8341  26.645  12.411   2.225
39937W        W 8342   1.754  39.597  14.371
39938W        W 8343   0.285  27.684  11.127
39939W        W 8344  36.392  12.335  11.082
39940W        W 8345  32.900  32.483   3.261
39941W        W 8346  10.645   2.825   2.241
39942W        W 8347  11.166  17.175   2.798
39943W        W 8348  21.429  41.517  14.903
39944W        W 8349  24.585   8.216   2.455
39945W        W 8350  39.369   6.166   5.074
39946W        W 8351  19.964  22.068   1.961
39947W        W 8352  33.054  24.211   2.187
39948W        W 8353  29.055  41.418   1.310
39949W        W 8354  36.296  20.193  13.443
39950W        W 8355   9.824   9.791   0.229
39951W        W 8356  31.505   6.338  14.375
39952W        W 8357  37.620  37.932  12.912
39953W        W 8358  23.656  27.706   4.429
39954W        W 8359   5.398   3.430  13.893
39955W        W 8360  33.078  12.788  11.090
39956W        W 8361  43.009  36.363   2.510
39957W        W 8362   9.670   9.732  10.998
39958W        W 8363  39.779  40.956  14.417
39959W        W 8364   5.326  21.271  10.434
39960W        W 8365  24.979  15.068  10.434
39961W        W 8366  33.240  17.699   1.333
39962W        W 8367  22.317   9.853  12.406
39963W        W 8368   2.707  36.994  13.585
39964W        W 8369   2.387  35.817  11.684
39965W        W 8370  31.001  35.262   3.361
39966W        W 8371  23.152  24.522   4.039
39967W        W 8372  32.707  23.558   4.528
39968W        W 8373  32.934  12.249  14.745
39969W        W 8374   5.967  26.707  11.615
39970W        W 8375   3.759   6.403   0.384
39971W        W 8376  28.009  15.545   5.702
39972W        W 8377   5.577  26.299   3.670
39973W        W 8378   5.239  15.187  12.668
39974W        W 8379   2.191  24.455  11.209
39975W        W 8380  44.328  42.635   4.103
39976W        W 8381   6.287  34.971   4.632
39977W        W 8382  37.937  32.412   4.769
39978W        W 8383  12.747  20.863   2.822
39979W        W 8384  30.978  10.785   1.975
39980W        W 8385  20.681   7.769  14.247
39981W        W 8386   2.939  21.636   0.332
39982W        W 8387   4.969  26.701  14.012
39983W        W 8388  38.403  18.291   1.391
39984W        W 8389   0.198  20.951   1.048
39985W        W 8390  29.455  23.520  11.542
39986W        W 8391  12.908  40.309   0.785
39987W        W 8392  43.219  28.973   3.696
39988W        W 8393  18.202   8.149  13.735
39989W        W 8394  41.446  26.868  12.529
39990W        W 8395  38.797  14.577   4.626
39991W        W 8396   1.727  16.024  14.833
39992W        W 8397  22.134  25.643   3.343
39993W        W 8398   6.791   8.302   1.772
39994W        W 8399  28.114   7.506  14.990
39995W        W 8400  32.568  18.155   3.916
39996W        W 8401  12.465  36.122   1.594
39997W        W 8402  21.826  31.064  14.451
39998W        W 8403  35.785  23.701   1.427
39999W        W 8404  16.366  24.941  14.334
40000W        W 8405  22.719  35.264  13.846
40001W        W 8406   5.647  18.214   0.062
40002W        W 8407  39.196  29.557   2.241
40003W        W 8408  27.189  14.825  11.191
40004W        W 8409  11.169  40.035  12.539
40005W        W 8410  22.534  13.634  10.636
40006W        W 8411  29.996  32.814  11.888
40007W        W 8412   1.149  10.870  13.312
40008W        W 8413   1.822  43.991   2.914
40009W        W 8414  11.914  37.574   1.275
40010W        W 8415   2.229  32.217   0.402
40011W        W 8416  29.260  41.045  14.881
40012W        W 8417   3.736  13.188   0.939
40013W        W 8418  20.340  23.786  11.407
40014W        W 8419  14.584   5.681   0.514
40015W        W 8420  16.190  26.566   1.820
40016W        W 8421   5.889   1.946  13.866
40017W        W 8422  19.527  30.440  13.190
40018W        W 8423  27.609  13.789   3.196
40019W        W 8424  35.885  35.956   1.391
40020W        W 8425   1.870  42.820   1.809
40021W        W 8426   4.710  15.491  11.468
40022W        W 8427  37.962  15.939   0.562
40023W        W 8428  21.245  29.061   0.305
40024W        W 8429   5.566  32.590   0.855
40025W        W 8430  34.325   9.858  14.282
40026W        W 8431   6.241  26.092  14.117
40027W        W 8432  36.572  14.849   0.394
40028W        W 8433  39.809  30.324  12.071
40029W        W 8434  14.755  23.647  14.373
40030W        W 8435   3.226  10.779   4.110
40031W        W 8436  20.590  13.033  12.989
40032W        W 8437  15.661  27.703   2.228
40033W        W 8438   9.408  40.556  14.985
40034W        W 8439  34.159  30.429  14.960
40035W        W 8440  28.095   2.634   1.409
40036W        W 8441   5.196  18.757   2.876
40037W        W 8442  16.896  30.030  13.935
40038W        W 8443  10.647  28.929  12.224
40039W        W 8444  44.883  32.561  11.981
40040W        W 8445   2.816  17.915  12.209
40041W        W 8446  12.133  14.973  11.471
40042W        W 8447  13.842   8.239  13.813
40043W        W 8448  10.223  23.513  11.597
40044W        W 8449  26.227  23.002  11.720
40045W        W 8450  44.322  34.132   4.453
40046W        W 8451  40.169  19.285  14.481
40047W        W 8452  24.601  40.958  13.244
40048W        W 8453  23.872   1.380   1.704
40049W        W 8454  25.988  14.766   0.405
40050W        W 8455  29.245   2.670  11.183
40051W        W 8456  25.856   6.735  10.715
40052W        W 8457   8.037  37.913   2.363
40053W        W 8458  18.165   1.345  11.623
40054W        W 8459   2.421  33.293  10.666
40055W        W 8460   2.787  34.468  13.571
40056W        W 8461  10.755   3.308   2.752
40057W        W 8462   8.611  41.241   1.266
40058W        W 8463  16.192  22.088   4.146
40059W        W 8464  35.822   5.874  12.992
40060W        W 8465  28.900  31.774  11.969
40061W        W 8466  37.887  40.417  13.320
40062W        W 8467  37.524  36.161   0.863
40063W        W 8468  29.547  32.217  10.844
40064W        W 8469  29.169  13.093  12.005
40065W        W 8470  36.613   1.405  10.622
40066W        W 8471  43.541   6.877   0.873
40067W        W 8472  20.542  32.210   3.321
40068W        W 8473  44.197  24.499  14.057
40069W        W 8474  34.372   3.596   0.797
40070W        W 8475  25.729   6.761  12.986
40071W        W 8476  10.556  17.067   0.664
40072W        W 8477  14.736  39.114  10.724
40073W        W 8478  39.826   0.666  11.895
40074W        W 8479   5.932   4.345   1.251
40075W        W 8480   4.710   9.207   0.435
40076W        W 8481  29.747   0.800   1.739
40077W        W 8482  11.660  35.144   5.001
40078W        W 8483  35.118  25.772   1.778
40079W        W 8484  11.203   7.133   2.348
40080W        W 8485  23.502  38.523   1.999
40081W        W 8486  43.315  26.493  12.055
40082W        W 8487   2.209  27.991  14.420
40083W        W 8488  18.538  37.583   1.004
40084W        W 8489  34.796  14.238   4.636
40085W        W 8490  34.099  10.569   2.382
40086W        W 8491  36.312  38.249  13.217
40087W        W 8492  42.996  20.218   5.151
40088W        W 8493  13.366   3.685  13.997
40089W        W 8494  23.483  35.504   0.717
40090W        W 8495   1.410  12.970   4.317
40091W        W 8496  20.976  17.182   5.074
40092W        W 8497  39.212   1.716   4.153
40093W        W 8498  12.634   6.756  13.067
40094W        W 8499  41.694  12.593  10.862
40095W        W 8500   2.848  13.702   1.577
40096W        W 8501  18.033   6.666   4.028
40097W        W 8502  22.254  23.460   0.519
40098W        W 8503   9.455  11.355   4.797
40099W        W 8504   7.899  11.847  11.600
40100W        W 8505  12.704  32.154   1.524
40101W        W 8506   8.761  15.922  13.819
40102W        W 8507  15.368  10.143   4.127
40103W        W 8508  19.804   0.905  14.475
40104W        W 8509  27.791  41.415   4.572
40105W        W 8510   6.169  28.705  12.722
40106W        W 8511  24.608  37.467   4.128
40107W        W 8512   2.351   0.696   2.280
40108W        W 8513  43.406  26.523   2.402
40109W        W 8514  13.877   4.659  14.321
40110W        W 8515   1.000  38.982  13.371
40111W        W 8516  10.156   1.849  13.427
40112W        W 8517   2.447  28.049   1.754
40113W        W 8518   6.612  15.621   3.996
40114W        W 8519  23.579   6.382  13.411
40115W        W 8520  37.519  20.348   3.846
40116W        W 8521  37.098  43.757  11.105
40117W        W 8522  25.961  35.657  13.368
40118W        W 8523  36.809  14.779   2.219
40119W        W 8524  40.800   2.695   2.628
40120W        W 8525  33.921  40.447   3.824
40121W        W 8526  33.231  22.617   1.730
40122W        W 8527  24.127  38.458  10.793
40123W        W 8528  34.001  30.640  14.375
40124W        W 8529   9.783  38.064  12.630
40125W        W 8530  18.182  44.677   2.381
40126W        W 8531  22.412  35.345   2.228
40127W        W 8532   3.517  37.129   1.229
40128W        W 8533   3.801   6.809  12.905
40129W        W 8534  18.290  36.433  10.956
40130W        W 8535  15.551  31.550   5.081
40131W        W 8536   4.886  44.490   4.357
40132W        W 8537   0.799  26.865  14.948
40133W        W 8538  34.153   1.783   2.148
40134W        W 8539  25.086  14.163  13.886
40135W        W 8540  27.009  13.662   4.916
40136W        W 8541  21.762  15.212  12.119
40137W        W 8542  30.959  31.111   1.430
40138W        W 8543  29.559   9.282   1.423
40139W        W 8544  28.059   8.784   2.330
40140W        W 8545  42.418  22.166   4.463
40141W        W 8546  37.327  43.734  12.441
40142W        W 8547  38.471  41.444  10.756
40143W        W 8548  24.719  28.741  14.826
40144W        W 8549  13.193  11.057   4.081
40145W        W 8550  44.796  42.298  10.748
40146W        W 8551  36.331  13.673  10.806
40147W        W 8552  42.268   5.726  13.322
40148W        W 8553  43.220  11.758  12.923
40149W        W 8554   0.822  24.094  12.959
40150W        W 8555  41.298  17.601   3.037
40151W        W 8556  19.291   4.714   1.912
40152W        W 8557  14.176  37.448  13.312
40153W        W 8558  33.460  15.676  10.635
40154W        W 8559  43.961   3.333  14.430
40155W        W 8560  42.959   4.120  13.044
40156W        W 8561   9.786  36.636   3.685
40157W        W 8562  37.587  36.592  13.576
40158W        W 8563  12.932   9.211  10.765
40159W        W 8564  33.175   3.907  13.878
40160W        W 8565   6.868  27.758   0.698
40161W        W 8566  22.209  17.373  11.185
40162W        W 8567   8.804  21.629  11.724
40163W        W 8568  20.197  25.512  11.864
40164W        W 8569   8.417   3.475  13.251
40165W        W 8570   6.609  14.309   0.272
40166W        W 8571  41.412   0.033  12.061
40167W        W 8572   3.877   0.197   4.620
40168W        W 8573   5.875  15.670   0.243
40169W        W 8574   9.601  32.051   5.181
40170W        W 8575  27.080  12.339  12.871
40171W        W 8576  10.157  13.390   4.907
40172W        W 8577  15.657  24.429  10.704
40173W        W 8578  13.136  43.327  12.173
40174W        W 8579  41.460  32.069   0.570
40175W        W 8580  24.663  43.442   1.738
40176W        W 8581  39.362  24.444   4.219
40177W        W 8582  32.400  23.059  12.791
40178W        W 8583  11.586  12.767  10.779
40179W        W 8584  29.714  17.125  13.416
40180W        W 8585  23.962   0.929  11.549
40181W        W 8586  44.437  22.877   1.297
40182W        W 8587   4.132  30.901  11.680
40183W        W 8588  39.471   9.325  14.069
40184W        W 8589  32.608  39.923   4.167
40185W        W 8590  39.702   1.811  13.363
40186W        W 8591  17.938  25.134   1.731
40187W        W 8592  23.202   0.161  14.970
40188W        W 8593  29.887  43.707   0.323
40189W        W 8594  29.452   0.635   4.705
40190W        W 8595  34.093  38.548  14.615
40191W        W 8596  33.800  28.981   1.177
40192W        W 8597   8.853  21.947  13.556
40193W        W 8598  21.069   7.840   1.955
40194W        W 8599   0.821  10.278  10.385
40195W        W 8600  22.680   4.189  14.916
40196W        W 8601  24.190  28.695  14.862
40197W        W 8602  18.538  33.337   1.453
40198W        W 8603  36.931  39.792  10.994
40199W        W 8604  35.627   2.723   4.252
40200W        W 8605   7.424  14.915  12.002
40201W        W 8606  37.817  30.503  11.304
40202W        W 8607  11.696  15.502  11.949
40203W        W 8608  37.519  38.080   4.415
40204W        W 8609   0.887  18.995  11.133
40205W        W 8610   9.195  29.885   3.681
40206W        W 8611  17.932  26.069  13.000
40207W        W 8612   8.167  36.018  14.202
40208W        W 8613  39.779   6.773  12.413
40209W        W 8614  29.529  34.437  14.078
40210W        W 8615  31.972  28.226   3.721
40211W        W 8616  16.640  11.376   2.287
40212W        W 8617  30.302  41.483   4.604
40213W        W 8618  31.343  37.453   9.944
40214W        W 8619  26.849  12.814   1.126
40215W        W 8620  25.218  37.253   3.079
40216W        W 8621  24.961   3.294  12.689
40217W        W 8622  26.226   2.433   3.911
40218W        W 8623   1.235  24.095   4.177
40219W        W 8624  43.428   3.903  12.920
40220W        W 8625  20.649  18.766   4.681
40221W        W 8626  37.269  36.855  14.828
40222W        W 8627  12.744  18.241   0.389
40223W        W 8628   5.419  43.790  13.097
40224W        W 8629  44.222   6.312   2.578
40225W        W 8630   3.339  31.951   1.207
40226W        W 8631  22.576  30.432   3.576
40227W        W 8632   0.346   0.358  12.506
40228W        W 8633   4.953  20.219   2.234
40229W        W 8634   0.913  12.788   3.019
40230W        W 8635  31.906  37.294   2.787
40231W        W 8636  20.548   3.010  11.561
40232W        W 8637  42.803  29.029  12.470
40233W        W 8638   5.929   2.202  14.324
40234W        W 8639   3.693  13.615  13.929
40235W        W 8640  34.975   0.447  12.086
40236W        W 8641  30.126  36.894  13.450
40237W        W 8642  28.039  10.086   4.535
40238W        W 8643  12.844  38.453  11.899
40239W        W 8644   5.187  31.801   2.909
40240W        W 8645  30.423   3.288  14.685
40241W        W 8646  16.095   9.854  12.591
40242W        W 8647  31.877   3.716   4.102
40243W        W 8648  31.644  29.141  14.491
40244W        W 8649  33.557  15.341   0.863
40245W        W 8650  33.851   1.250   3.249
40246W        W 8651  33.392  23.846  13.086
40247W        W 8652  41.476  17.281   2.684
40248W        W 8653   5.866  17.441  12.975
40249W        W 8654  15.236  19.622  10.365
40250W        W 8655  28.354  28.965   2.060
40251W        W 8656  15.127  23.279  10.332
40252W        W 8657  11.796  27.430   4.740
40253W        W 8658  26.415  14.215   3.731
40254W        W 8659  22.069  26.108   1.877
40255W        W 8660   8.327  16.238   3.296
40256W        W 8661  19.456  15.299   3.298
40257W        W 8662   4.125  20.194   4.804
40258W        W 8663  13.302   8.926   2.765
40259W        W 8664  13.784  39.309   4.590
40260W        W 8665  13.436  17.904   2.826
40261W        W 8666  43.972  40.463   1.155
40262W        W 8667  15.018  12.736  13.352
40263W        W 8668  36.256  37.088   1.794
40264W        W 8669  42.922  26.743   3.089
40265W        W 8670  41.199  33.483  12.380
40266W        W 8671   7.861  13.370   3.736
40267W        W 8672  30.528   2.271  11.189
40268W        W 8673  12.810  40.438  12.187
40269W        W 8674  29.269  14.618  10.290
40270W        W 8675  10.196  25.293   4.579
40271W        W 8676   1.477  42.957   3.085
40272W        W 8677  36.208  11.879  11.268
40273W        W 8678  31.458  10.341   1.901
40274W        W 8679   6.498  23.514  14.011
40275W        W 8680  10.828  38.226  13.501
40276W        W 8681  32.265   5.216  11.614
40277W        W 8682   1.865   0.313   3.300
40278W        W 8683  34.999  27.723  11.526
40279W        W 8684   4.997  12.368  13.735
40280W        W 8685  44.560  19.179  11.179
40281W        W 8686  41.777  27.749  12.081
40282W        W 8687  25.963   2.147   1.686
40283W        W 8688  42.503  39.006   4.368
40284W        W 8689   0.438   2.437   4.768
40285W        W 8690  23.303  40.440   1.926
40286W        W 8691  12.463  43.409  14.842
40287W        W 8692  32.615  14.904   4.436
40288W        W 8693  25.617  22.766   4.178
40289W        W 8694  10.192  37.323   2.760
40290W        W 8695   0.508  15.650  12.585
40291W        W 8696  30.235  11.216   3.860
40292W        W 8697  25.369  21.608  11.125
40293W        W 8698  15.688  44.954  10.474
40294W        W 8699  28.684  19.592  10.597
40295W        W 8700   9.186   6.427  12.382
40296W        W 8701  36.464  32.535  12.397
40297W        W 8702  39.868   7.604   2.588
40298W        W 8703  38.624  23.910   1.282
40299W        W 8704  22.511  36.288   5.131
40300W        W 8705  33.000  34.908   3.193
40301W        W 8706   6.776  18.525   1.238
40302W        W 8707  38.939  24.933   3.159
40303W        W 8708  23.678  34.039   3.286
40304W        W 8709  10.241  41.625  14.806
40305W        W 8710  20.613  23.199  12.621
40306W        W 8711  18.711  31.530  12.590
40307W        W 8712  29.038  24.533  11.076
40308W        W 8713   5.909  12.391   1.836
40309W        W 8714  26.738  38.619   2.184
40310W        W 8715  25.191  27.170   3.559
40311W        W 8716  39.965  23.225   1.807
40312W        W 8717   9.883  22.513   0.937
40313W        W 8718   5.859  10.241  13.431
40314W        W 8719  18.736  25.799   1.997
40315W        W 8720   5.939  31.193  11.242
40316W        W 8721  26.896  13.197   5.180
40317W        W 8722  34.990  12.976  12.081
40318W        W 8723  26.138   7.358   4.251
40319W        W 8724  16.252  17.068   3.172
40320W        W 8725  27.469   4.440  14.725
40321W        W 8726   0.753  19.705  10.643
40322W        W 8727   6.738  24.588   3.878
40323W        W 8728  12.632   2.844   4.495
40324W        W 8729  14.876  26.642  13.873
40325W        W 8730   3.333   5.413   3.932
40326W        W 8731  23.191  42.230  12.477
40327W        W 8732   6.768   5.480   3.645
40328W        W 8733   9.871  41.087   1.349
40329W        W 8734  44.402  44.529   3.175
40330W        W 8735   5.687   6.853  11.332
40331W        W 8736   8.313  39.781  14.999
40332W        W 8737   6.470  44.539  13.363
40333W        W 8738  18.829  35.596   2.776
40334W        W 8739  23.224  37.221  13.909
40335W        W 8740  13.602   2.961   4.679
40336W        W 8741  10.198  15.172  13.544
40337W        W 8742   0.405   7.229  10.331
40338W        W 8743  43.556  30.821   2.217
40339W        W 8744  42.384  41.506   4.178
40340W        W 8745  23.745  29.111   4.726
40341W        W 8746  36.208  39.273   0.838
40342W        W 8747  23.810  30.001   0.872
40343W        W 8748   7.392  14.241   0.115
40344W        W 8749  12.119  39.446   2.267
40345W        W 8750  34.850   9.887  14.227
40346W        W 8751  32.126   5.629   4.642
40347W        W 8752  31.047  14.580  12.831
40348W        W 8753   7.601  27.215   3.310
40349W        W 8754  44.807  23.726  13.042
40350W        W 8755  31.612  16.388  10.684
40351W        W 8756   6.384  12.220  13.052
40352W        W 8757  17.612   2.992  12.072
40353W        W 8758  40.262   2.323  12.469
40354W        W 8759   1.414  28.493  12.180
40355W        W 8760   9.618  24.639  11.554
40356W        W 8761  25.492   4.814   1.822
40357W        W 8762   3.811   8.939   4.495
40358W        W 8763  41.957  24.161  13.943
40359W        W 8764  30.618  32.743   0.874
40360W        W 8765  37.861  14.362   1.747
40361W        W 8766  25.121  32.072   4.103
40362W        W 8767  20.188  25.785  10.880
40363W        W 8768  14.312   6.914  11.677
40364W        W 8769  32.485  27.591  11.928
40365W        W 8770  13.333  17.260  12.853
40366W        W 8771   1.507  44.273  11.010
40367W        W 8772   7.891  25.161  10.850
40368W        W 8773  11.586  14.212   0.870
40369W        W 8774  11.768  28.953  12.578
40370W        W 8775  12.874   9.025   3.048
40371W        W 8776  14.477  11.568   2.362
40372W        W 8777  41.606  21.321  12.169
40373W        W 8778   6.868  36.118  13.021
40374W        W 8779  24.358  24.959   2.374
40375W        W 8780   4.675  28.956  11.089
40376W        W 8781  10.881   5.562   0.707
40377W        W 8782  41.439  41.825   3.044
40378W        W 8783  26.117  34.121   1.952
40379W        W 8784  40.368  33.355   4.602
40380W        W 8785  11.254  33.404   2.725
40381W        W 8786   7.985  11.640  14.400
40382W        W 8787  37.860  42.039  10.447
40383W        W 8788  36.403  24.190   4.759
40384W        W 8789   4.610  33.463  11.143
40385W        W 8790  38.307  15.694  12.403
40386W        W 8791  31.047  41.597  13.485
40387W        W 8792  24.497   8.853  12.521
40388W        W 8793  33.987  41.437   0.877
40389W        W 8794   2.786  14.252   0.701
40390W        W 8795  34.448   3.688  12.980
40391W        W 8796   4.029  10.099   2.843
40392W        W 8797   7.786  13.536   1.286
40393W        W 8798   8.300  19.657   3.412
40394W        W 8799  15.301   5.805   2.892
40395W        W 8800  31.098  34.762  11.209
40396W        W 8801  33.940   7.653  11.096
40397W        W 8802  17.796  11.899   3.286
40398W        W 8803  32.855  19.229   1.957
40399W        W 8804  10.235  30.514  14.891
40400W        W 8805  18.353  10.805   0.704
40401W        W 8806  23.982  20.569   3.362
40402W        W 8807  36.605  11.292   2.946
40403W        W 8808  24.993  35.214  11.524
40404W        W 8809  43.377   3.965  10.715
40405W        W 8810  18.373  10.074  14.433
40406W        W 8811  24.233   3.937  12.466
40407W        W 8812  27.507  12.375  12.554
40408W        W 8813  31.173  12.472  14.814
40409W        W 8814  20.528  18.280  13.209
40410W        W 8815  35.978  10.503  11.852
40411W        W 8816  19.633  36.077   4.167
40412W        W 8817  39.607   7.756  13.900
40413W        W 8818  20.182  14.403   3.895
40414W        W 8819  17.723  34.077   0.170
40415W        W 8820  23.707  39.043  12.967
40416W        W 8821  34.127  26.453  14.936
40417W        W 8822  33.355   9.689   2.693
40418W        W 8823  30.774  33.454   9.851
40419W        W 8824  17.359  28.101  10.855
40420W        W 8825   0.454  18.127   1.778
40421W        W 8826   3.767  33.449  13.778
40422W        W 8827  13.905  34.814  14.290
40423W        W 8828   4.647   8.706   3.934
40424W        W 8829  20.479  22.698  10.942
40425W        W 8830  18.154  12.679   3.615
40426W        W 8831  14.122   7.888  14.061
40427W        W 8832  13.401  11.170   0.391
40428W        W 8833  20.797   2.354   0.338
40429W        W 8834  29.620  27.809   4.508
40430W        W 8835  22.909   6.481  14.751
40431W        W 8836  39.509  18.910  13.781
40432W        W 8837  20.519  38.316  12.676
40433W        W 8838  17.244  44.275  14.235
40434W        W 8839  32.375  22.904   1.704
40435W        W 8840  35.987   1.954  10.741
40436W        W 8841   4.394  38.391  14.794
40437W        W 8842  18.049  20.873   0.399
40438W        W 8843   9.895  24.078   2.296
40439W        W 8844  21.549   4.391   1.418
40440W        W 8845  38.446   6.176  11.356
40441W        W 8846   2.539  32.104  14.079
40442W        W 8847  43.982  29.210  12.571
40443W        W 8848  37.601  36.654   3.276
40444W        W 8849  22.062  23.259   4.508
40445W        W 8850  25.143   8.601  13.297
40446W        W 8851  22.632  14.211  10.783
40447W        W 8852  24.196  30.618   4.046
40448W        W 8853  29.295  10.254   2.582
40449W        W 8854  22.546  37.351   4.269
40450W        W 8855  33.397  30.050  10.729
40451W        W 8856   9.426   3.254   1.323
40452W        W 8857  40.501  23.573   1.319
40453W        W 8858  21.797  12.777  12.617
40454W        W 8859   6.342   9.051  14.094
40455W        W 8860   0.551  19.870  12.513
40456W        W 8861   5.267  38.282  10.384
40457W        W 8862  38.963  24.763   4.050
40458W        W 8863  38.559  43.392  13.859
40459W        W 8864   6.943  39.932  13.432
40460W        W 8865   2.848   9.807  10.621
40461W        W 8866   6.344  42.084  10.722
40462W        W 8867  44.320  37.488   2.146
40463W        W 8868  22.486  32.908  13.056
40464W        W 8869  41.410  28.896  12.464
40465W        W 8870  39.689  37.016   2.157
40466W        W 8871  38.365  41.782  13.036
40467W        W 8872  43.549  24.476   0.417
40468W        W 8873  12.135  37.896   2.822
40469W        W 8874  30.421  42.516   3.411
40470W        W 8875  18.982  14.762  13.923
40471W        W 8876  36.030  21.046   0.355
40472W        W 8877  18.078  17.655  12.530
40473W        W 8878  17.472   4.757   0.811
40474W        W 8879  26.675  32.965  13.831
40475W        W 8880   1.388   6.224   3.626
40476W        W 8881  10.090  18.711  10.561
40477W        W 8882   0.066  38.926   0.839
40478W        W 8883  14.680   3.153  12.470
40479W        W 8884  23.281   2.254  11.159
40480W        W 8885   4.971  12.541  11.651
40481W        W 8886  25.992   4.651   1.999
40482W        W 8887  43.238  24.177  11.557
40483W        W 8888  35.429  41.442   1.453
40484W        W 8889  24.448  32.656  14.507
40485W        W 8890   6.404  41.944   2.422
40486W        W 8891   0.243  43.326  10.698
40487W        W 8892  26.650  16.533  13.978
40488W        W 8893   8.313   6.634  14.222
40489W        W 8894  42.669  35.881  13.076
40490W        W 8895  22.768  24.997  11.115
40491W        W 8896   0.777  15.859   3.412
40492W        W 8897  40.906  30.023   4.868
40493W        W 8898   8.986  12.482   3.341
40494W        W 8899   0.203  21.461   0.944
40495W        W 8900   8.921  25.180   3.243
40496W        W 8901  32.406  17.516  10.768
40497W        W 8902  37.542  33.229   3.728
40498W        W 8903  15.279   3.458   4.081
40499W        W 8904   2.722   2.150  11.171
40500W        W 8905  44.936   5.887   1.727
40501W        W 8906  34.422  12.487   4.017
40502W        W 8907  23.647   4.596   4.238
40503W        W 8908   4.050  16.222   4.255
40504W        W 8909  33.630  24.887  13.996
40505W        W 8910   7.673   0.434  13.810
40506W        W 8911  41.847   6.982  14.997
40507W        W 8912   7.732  39.106   0.093
40508W        W 8913  23.620  15.121   4.140
40509W        W 8914  41.274  40.575  13.371
40510W        W 8915  11.913   9.443  10.658
40511W        W 8916  22.959  11.143   1.753
40512W        W 8917  19.116  11.098  14.514
40513W        W 8918  22.642  34.352   2.856
40514W        W 8919  13.811  31.636  14.342
40515W        W 8920  28.286  24.104  13.495
40516W        W 8921   3.366  10.552   1.660
40517W        W 8922  13.193  18.964  10.594
40518W        W 8923  41.799  16.165  14.368
40519W        W 8924   7.120   6.980   4.109
40520W        W 8925   6.692  20.028  14.735
40521W        W 8926  41.290   3.856   2.822
40522W        W 8927  24.596   1.461   4.545
40523W        W 8928  26.024  37.906  12.442
40524W        W 8929  19.033   4.281  12.634
40525W        W 8930   1.307  38.092   2.090
40526W        W 8931  44.470   5.176  13.826
40527W        W 8932  38.582  37.119   0.837
40528W        W 8933  32.496  31.971   4.353
40529W        W 8934  18.617  21.688  10.680
40530W        W 8935  34.812  13.679  13.607
40531W        W 8936   4.658  40.423  10.666
40532W        W 8937   4.937   1.447   4.641
40533W        W 8938  25.135  10.178  10.806
40534W        W 8939  19.263  30.618  11.171
40535W        W 8940  19.223   9.267  12.677
40536W        W 8941  12.823   9.982   0.000
40537W        W 8942   0.465   2.810   0.729
40538W        W 8943  15.811  33.797  11.724
40539W        W 8944  39.931  27.031   4.613
40540W        W 8945  17.233  44.246   2.269
40541W        W 8946  39.761  41.985   1.364
40542W        W 8947  37.556  22.071  13.495
40543W        W 8948   7.812  24.603  13.650
40544W        W 8949  30.428  21.664   0.732
40545W        W 8950  37.113   8.158  14.253
40546W        W 8951  34.980  34.190   3.288
40547W        W 8952   2.388  25.135  10.646
40548W        W 8953   1.274  23.164  12.041
40549W        W 8954  12.973   9.747   2.327
40550W        W 8955  22.896  12.722  14.010
40551W        W 8956  18.825  36.000  13.172
40552W        W 8957  43.069   8.365  10.547
40553W        W 8958  16.680  12.250   1.260
40554W        W 8959  24.546   1.763   0.738
40555W        W 8960  19.208   8.892   1.179
40556W        W 8961  23.197  31.955   4.570
40557W        W 8962  31.012  15.866  13.641
40558W        W 8963   1.428  43.373  13.568
40559W        W 8964  26.481  10.920   4.675
40560W        W 8965  22.225  27.884   0.751
40561W        W 8966  17.759  25.240   0.370
40562W        W 8967  37.523  26.437  11.114
40563W        W 8968   5.736  35.069  11.746
40564W        W 8969  32.013  30.608   4.210
40565W        W 8970  10.667  35.290   3.700
40566W        W 8971  13.349  43.529  14.588
40567W        W 8972   7.859  42.520   1.234
40568W        W 8973   7.307  17.197   4.076
40569W        W 8974  29.455   9.276   3.973
40570W        W 8975  37.732   6.784   3.163
40571W        W 8976  42.067   3.885  10.965
40572W        W 8977  15.709  41.548   2.408
40573W        W 8978  23.654  43.524   2.361
40574W        W 8979  32.143   0.964   4.199
40575W        W 8980  37.969  41.322   3.220
40576W        W 8981  23.052  11.142   3.192
40577W        W 8982  18.987  13.728   0.147
40578W        W 8983  40.525  42.890  14.832
40579W        W 8984   7.914  36.910  12.529
40580W        W 8985  24.346  28.218  11.584
40581W        W 8986  24.045  15.702  10.777
40582W        W 8987   4.855  38.808  11.592
40583W        W 8988  33.844   9.760  12.557
40584W        W 8989  15.134  30.055  11.357
40585W        W 8990   9.324  33.686   4.647
40586W        W 8991  20.454  25.669   1.466
40587W        W 8992  33.181  33.881   3.082
40588W        W 8993  29.816  25.107  12.075
40589W        W 8994   4.855  37.634  13.745
40590W        W 8995   1.734  43.827   2.440
40591W        W 8996   6.490  41.017   3.694
40592W        W 8997  26.084  11.273  12.159
40593W        W 8998  17.094  31.782  12.960
40594W        W 8999  28.190  18.930  12.888
40595W        W 9000  34.685  43.335   2.837
40596W        W 9001   2.890   6.755   4.044
40597W        W 9002  19.259   0.369   3.701
40598W        W 9003   3.279   3.723  14.970
40599W        W 9004  25.459  18.093  11.579
40600W        W 9005  21.838  14.983  11.595
40601W        W 9006  10.163  31.049  14.943
40602W        W 9007  18.289   9.386   1.317
40603W        W 9008  30.874  37.539   4.272
40604W        W 9009  37.184  10.085  11.562
40605W        W 9010   4.749  41.282   3.655
40606W        W 9011  44.862  10.887   0.189
40607W        W 9012  38.302   5.697  12.047
40608W        W 9013  14.656  40.567  11.644
40609W        W 9014  39.901  26.453   0.279
40610W        W 9015  19.308  37.194   3.529
40611W        W 9016  38.163  33.593   4.534
40612W        W 9017  15.510  44.239   2.719
40613W        W 9018  13.838  13.349   3.294
40614W        W 9019  29.988  31.388   4.554
40615W        W 9020  15.965  15.513  13.935
40616W        W 9021  25.936   7.273  13.450
40617W        W 9022   5.803   7.919   3.272
40618W        W 9023  23.479  11.163   1.782
40619W        W 9024   0.389  10.823   0.813
40620W        W 9025  33.504   2.022   1.908
40621W        W 9026  33.166   5.758   2.196
40622W        W 9027  16.815  38.506   0.253
40623W        W 9028  42.541  20.024   1.771
40624W        W 9029  30.369  35.884  14.954
40625W        W 9030   3.217  28.079   2.174
40626W        W 9031  41.468  29.773  11.150
40627W        W 9032  37.848  11.655  14.883
40628W        W 9033  42.178  14.126   0.020
40629W        W 9034  42.273  32.937   3.203
40630W        W 9035   0.794  19.819   1.217
40631W        W 9036   2.284  12.203  11.274
40632W        W 9037  19.477  31.670   1.394
40633W        W 9038  26.907   0.283  13.528
40634W        W 9039  27.472  13.579   0.225
40635W        W 9040  18.791  27.415   3.228
40636W        W 9041   1.358   3.715   0.229
40637W        W 9042  33.272  40.537   2.285
40638W        W 9043  43.752  16.737   3.619
40639W        W 9044  42.504  41.335  14.496
40640W        W 9045  20.240  37.076  13.468
40641W        W 9046  21.261  12.216   3.291
40642W        W 9047  40.650  36.554   1.189
40643W        W 9048   6.389   6.479   1.895
40644W        W 9049   6.812  32.150   4.461
40645W        W 9050  24.184   0.078  12.760
40646W        W 9051   0.130  15.133   3.767
40647W        W 9052  44.562  32.931  11.080
40648W        W 9053  26.671   7.343  14.511
40649W        W 9054  33.016  19.536  11.219
40650W        W 9055  27.709  24.993  12.538
40651W        W 9056  13.279  12.254  12.201
40652W        W 9057  27.392  34.575  13.068
40653W        W 9058   9.323  35.614   1.893
40654W        W 9059   6.602  42.974  11.190
40655W        W 9060   3.321  14.963   0.218
40656W        W 9061  39.036   9.445   0.374
40657W        W 9062  12.493  44.120  14.909
40658W        W 9063  43.061  10.322  13.609
40659W        W 9064  33.311  43.453   2.214
40660W        W 9065  30.996   6.470  14.418
40661W        W 9066   7.853  36.388   2.832
40662W        W 9067  13.138   4.484   0.483
40663W        W 9068  19.488  32.422  14.888
40664W        W 9069  34.464  42.891  12.126
40665W        W 9070   8.117  21.765  11.124
40666W        W 9071  26.066  26.923   2.667
40667W        W 9072  41.669  18.003  10.820
40668W        W 9073  20.000   0.460   4.142
40669W        W 9074  24.525  43.833  13.744
40670W        W 9075  38.390  19.265   4.931
40671W        W 9076  36.318  19.534  14.375
40672W        W 9077  27.998  26.936  13.508
40673W        W 9078   7.814   8.072   3.308
40674W        W 9079  23.834   2.585   1.305
40675W        W 9080  36.346   6.195  14.434
40676W        W 9081  31.980   1.693  14.701
40677W        W 9082   5.107  31.423  12.260
40678W        W 9083   3.689  32.336   3.625
40679W        W 9084   8.353  33.530   3.281
40680W        W 9085  12.573  21.238   1.410
40681W        W 9086  27.626  40.534  11.549
40682W        W 9087  10.201  11.478  13.076
40683W        W 9088  43.948  17.385   1.719
40684W        W 9089  43.431   0.202   2.342
40685W        W 9090  29.469  33.080  13.778
40686W        W 9091  44.877  29.904   3.898
40687W        W 9092  26.642  28.539   4.188
40688W        W 9093  24.381  28.709   2.279
40689W        W 9094   4.429  31.889   3.768
40690W        W 9095  15.768  40.279  10.638
40691W        W 9096  42.846  40.632  10.302
40692W        W 9097  11.226  27.470  14.948
40693W        W 9098  33.999  36.953   1.408
40694W        W 9099  32.531  14.616  12.931
40695W        W 9100  40.851  40.110  14.883
40696W        W 9101  13.035   6.708   3.299
40697W        W 9102   5.975  39.363  12.020
40698W        W 9103  11.909  36.488  10.714
40699W        W 9104  23.284  22.448  13.298
40700W        W 9105  13.772  10.723  11.146
40701W        W 9106  16.239  20.732  12.939
40702W        W 9107  42.072  10.324   1.198
40703W        W 9108  30.245  14.207   1.244
40704W        W 9109   6.619  21.896  12.816
40705W        W 9110  37.142  38.947   2.808
40706W        W 9111   0.526  40.362   4.228
40707W        W 9112  44.518  43.363   4.577
40708W        W 9113  21.989  14.092  13.379
40709W        W 9114  10.258   9.750   3.204
40710W        W 9115  22.298   6.431  11.216
40711W        W 9116  24.088  14.620   1.139
40712W        W 9117  18.232  32.656   1.176
40713W        W 9118   6.796  17.311  12.843
40714W        W 9119  27.720   1.315   1.109
40715W        W 9120  13.431  43.768   3.712
40716W        W 9121  42.059  42.928  10.568
40717W        W 9122  29.984  39.895   0.929
40718W        W 9123  11.108  11.567   1.173
40719W        W 9124  29.363  20.795  12.055
40720W        W 9125   3.839   9.467  10.570
40721W        W 9126  39.368  14.286  14.372
40722W        W 9127  24.511  41.323  10.979
40723W        W 9128  10.261  11.622  13.585
40724W        W 9129  39.971  37.332   4.524
40725W        W 9130  22.014  43.305  11.728
40726W        W 9131  38.226   8.834   2.379
40727W        W 9132  43.244  25.700   0.789
40728W        W 9133   2.776   1.487  11.970
40729W        W 9134  10.434  41.341   1.827
40730W        W 9135  21.431  17.316  12.057
40731W        W 9136  40.489  33.645   0.242
40732W        W 9137  11.630  41.098  13.787
40733W        W 9138  15.228  25.250   1.469
40734W        W 9139  41.993  41.891  11.007
40735W        W 9140   2.210  30.883   0.328
40736W        W 9141  29.904   1.705   2.254
40737W        W 9142  36.126   2.810  14.953
40738W        W 9143  15.419  28.290   1.697
40739W        W 9144  29.648  18.293   2.374
40740W        W 9145  18.288  10.545  14.196
40741W        W 9146  43.982  12.808  11.692
40742W        W 9147  31.155  44.187  13.413
40743W        W 9148  29.036   4.287  13.964
40744W        W 9149  22.118  34.592   2.126
40745W        W 9150  26.312  12.376  14.372
40746W        W 9151  33.058   5.755  10.585
40747W        W 9152  41.211  35.466   4.590
40748W        W 9153  13.666  40.858   0.070
40749W        W 9154  29.393   4.389   0.437
40750W        W 9155  21.576   5.029  14.747
40751W        W 9156  24.685  27.729   1.901
40752W        W 9157  15.829  16.099   1.927
40753W        W 9158   0.763  13.375  13.309
40754W        W 9159   8.907  27.612   4.962
40755W        W 9160   7.197  11.378  11.860
40756W        W 9161  40.412  32.490  13.298
40757W        W 9162  20.433  38.431  11.334
40758W        W 9163  40.470  35.618  13.444
40759W        W 9164  20.552  43.353   3.229
40760W        W 9165  12.337   4.180   3.105
40761W        W 9166  17.573  15.706   4.138
40762W        W 9167  14.339  36.047   0.302
40763W        W 9168   4.657  23.725  14.461
40764W        W 9169   5.873   5.747   3.515
40765W        W 9170  10.312   1.238  14.119
40766W        W 9171  36.402  30.964  10.769
40767W        W 9172  11.886  22.636  14.966
40768W        W 9173  32.961  41.278  14.620
40769W        W 9174  32.199  32.798  13.017
40770W        W 9175  25.109  19.145  12.361
40771W        W 9176  39.992  37.449  14.753
40772W        W 9177  15.082   8.293  10.739
40773W        W 9178  27.010  38.811  11.649
40774W        W 9179   7.719  36.001  10.305
40775W        W 9180  38.385   6.106   4.530
40776W        W 9181  19.174  29.147   1.725
40777W        W 9182  40.399  43.549   1.985
40778W        W 9183   7.343  43.529   2.275
40779W        W 9184   7.967  25.522   2.193
40780W        W 9185  43.298  44.006   0.956
40781W        W 9186  22.479  22.729  13.709
40782W        W 9187  21.011  39.757   3.120
40783W        W 9188  21.764  18.065   3.056
40784W        W 9189  34.580  37.394  14.015
40785W        W 9190  32.958  27.270   0.330
40786W        W 9191  28.895  24.666  11.570
40787W        W 9192  37.175  39.261   3.249
40788W        W 9193  19.640   7.695   1.575
40789W        W 9194   8.103  35.122   5.079
40790W        W 9195  28.985  16.129  13.021
40791W        W 9196  38.741  27.919   2.217
40792W        W 9197   6.824   5.323  12.661
40793W        W 9198  38.750   1.285   1.703
40794W        W 9199  42.134  27.629  14.031
40795W        W 9200   0.855  35.993  11.530
40796W        W 9201  11.586  12.364   1.443
40797W        W 9202  40.311  20.409  14.872
40798W        W 9203  18.461  21.261  11.549
40799W        W 9204  27.095  22.060  14.538
40800W        W 9205  26.156   7.188   2.751
40801W        W 9206  37.304  13.228   2.053
40802W        W 9207  44.446   4.449  13.477
40803W        W 9208   0.440  20.654  11.604
40804W        W 9209  22.026   7.162   3.245
40805W        W 9210  27.457  29.854   0.037
40806W        W 9211  33.470  21.995  12.584
40807W        W 9212   3.696  24.710   0.194
40808W        W 9213  31.011  40.907   2.242
40809W        W 9214  36.235  29.170   1.216
40810W        W 9215   6.702  21.090   4.206
40811W        W 9216   9.398  22.632  14.958
40812W        W 9217  19.834   1.710  13.387
40813W        W 9218   6.968  11.704   0.897
40814W        W 9219   0.319  21.145  11.701
40815W        W 9220  15.649   6.424  13.405
40816W        W 9221  15.762   2.214  14.884
40817W        W 9222  23.462  19.067  14.338
40818W        W 9223  27.142  21.019   1.273
40819W        W 9224  39.859  20.051  13.976
40820W        W 9225  34.972  41.028   2.844
40821W        W 9226  24.346  25.980  14.519
40822W        W 9227  43.423  10.056   2.340
40823W        W 9228  40.158  19.306  10.586
40824W        W 9229   8.788   9.671   1.893
40825W        W 9230  31.937  33.675   1.508
40826W        W 9231  16.164  15.545  13.031
40827W        W 9232  35.630  44.009   4.284
40828W        W 9233  15.526  26.681  13.557
40829W        W 9234   7.487  36.725  12.262
40830W        W 9235  33.605  24.069  14.836
40831W        W 9236  16.203   4.683  11.167
40832W        W 9237  44.395  14.806  13.397
40833W        W 9238  13.295   1.187  13.353
40834W        W 9239  19.500  26.607   2.440
40835W        W 9240  39.785  39.255   4.104
40836W        W 9241   9.791   7.454  10.493
40837W        W 9242  36.365  30.240  13.077
40838W        W 9243   0.539  43.420  11.105
40839W        W 9244  34.081  34.562  14.249
40840W        W 9245  10.158  30.972   1.344
40841W        W 9246   6.879  18.579   3.078
40842W        W 9247   8.063  24.038   1.418
40843W        W 9248  34.780  41.858   0.353
40844W        W 9249   0.018   3.430  13.626
40845W        W 9250  25.605   8.886  13.379
40846W        W 9251  38.265  27.704   4.064
40847W        W 9252  24.227  22.669  13.297
40848W        W 9253  32.411  17.645  13.569
40849W        W 9254  19.240  19.647   0.480
40850W        W 9255  20.569  40.653   1.676
40851W        W 9256   1.388  20.019  12.455
40852W        W 9257  10.575  26.471   4.277
40853W        W 9258  42.304  10.285   0.020
40854W        W 9259   8.500  31.487  10.796
40855W        W 9260  43.979  32.055  11.231
40856W        W 9261  43.829  20.520  14.364
40857W        W 9262   3.970  22.494   1.160
40858W        W 9263  31.843   3.403   3.703
40859W        W 9264   4.176  41.311  14.858
40860W        W 9265   6.236  42.900   4.057
40861W        W 9266   9.120  17.079   4.550
40862W        W 9267  22.041  18.336   2.248
40863W        W 9268   7.627  22.671  10.889
40864W        W 9269  27.052  13.703  10.576
40865W        W 9270  10.947   9.385   3.862
40866W        W 9271   9.693   1.133  13.536
40867W        W 9272  16.674   5.669   2.291
40868W        W 9273  43.120  13.243  12.677
40869W        W 9274  17.661   2.260   4.873
40870W        W 9275  35.178   6.293   0.278
40871W        W 9276  35.848  18.648  12.131
40872W        W 9277   2.423  31.602   3.103
40873W        W 9278   2.831  10.741   2.674
40874W        W 9279  31.845  40.729  14.958
40875W        W 9280  25.657  23.673  12.986
40876W        W 9281  41.272  40.548   2.614
40877W        W 9282  11.727  41.617  13.831
40878W        W 9283   7.216  41.184  12.498
40879W        W 9284  21.055  38.459  11.796
40880W        W 9285  16.984  25.194   3.668
40881W        W 9286   6.240  10.298   1.339
40882W        W 9287  33.087  19.516  13.862
40883W        W 9288   9.232  25.215   4.197
40884W        W 9289  13.859  15.697   4.682
40885W        W 9290  24.448  18.005  11.719
40886W        W 9291  28.087  36.451   4.745
40887W        W 9292  23.529  16.532  12.679
40888W        W 9293  18.551  16.625   2.893
40889W        W 9294  33.438  39.695  11.068
40890W        W 9295  11.388   8.415   0.218
40891W        W 9296  42.397  20.545  14.503
40892W        W 9297  16.811  44.311   1.934
40893W        W 9298  40.639  11.143   0.811
40894W        W 9299  18.224  19.156  11.558
40895W        W 9300  37.989  32.170   4.291
40896W        W 9301  33.647   7.916   1.290
40897W        W 9302  32.604  22.471   4.675
40898W        W 9303  42.774  18.311   3.626
40899W        W 9304  17.762  13.841   0.079
40900W        W 9305  39.485  27.499   2.645
40901W        W 9306   6.740  26.180  13.956
40902W        W 9307  31.038   8.932  13.598
40903W        W 9308   4.724  34.790  12.085
40904W        W 9309  40.533  11.799   1.878
40905W        W 9310  19.885  13.555   4.919
40906W        W 9311  31.446  24.460   4.358
40907W        W 9312   0.337  22.654  14.025
40908W        W 9313  42.897  25.499  14.993
40909W        W 9314  26.744  19.264  12.916
40910W        W 9315  36.013  31.101   4.513
40911W        W 9316   2.169  25.321  12.488
40912W        W 9317  39.328  33.582  13.435
40913W        W 9318  16.178  25.470   2.365
40914W        W 9319  32.590  24.133  14.848
40915W        W 9320   3.149  43.278  14.828
40916W        W 9321  23.339  32.961  10.607
40917W        W 9322  29.178  38.811  13.902
40918W        W 9323  23.177  20.187   1.993
40919W        W 9324  31.630  40.698  12.180
40920W        W 9325  30.102  21.993  14.879
40921W        W 9326  37.555  19.625   1.380
40922W        W 9327   0.484  44.732   3.538
40923W        W 9328  24.725   8.569   4.522
40924W        W 9329  36.845   2.749   4.596
40925W        W 9330   9.696  33.466   1.896
40926W        W 9331  37.032  25.294   4.872
40927W        W 9332  10.884   5.367  12.025
40928W        W 9333   9.880  17.998   4.575
40929W        W 9334   2.746   0.501   4.184
40930W        W 9335   1.393  33.619  10.753
40931W        W 9336  37.042  19.712  13.596
40932W        W 9337   1.493  30.948   1.159
40933W        W 9338   7.407  34.709   1.221
40934W        W 9339  35.001  32.424  10.757
40935W        W 9340  20.163  13.608  12.421
40936W        W 9341  12.243  22.049   0.380
40937W        W 9342   8.716  17.042   2.375
40938W        W 9343   3.378   9.358  11.344
40939W        W 9344  42.431  30.865  12.079
40940W        W 9345   6.872  28.759   3.709
40941W        W 9346  32.736  35.393   2.265
40942W        W 9347  34.117  34.692   3.042
40943W        W 9348  11.872  44.468   1.184
40944W        W 9349  41.084  28.660  14.978
40945W        W 9350  36.427  10.269  11.960
40946W        W 9351  23.068  38.375   3.698
40947W        W 9352  12.777  28.105  13.172
40948W        W 9353  39.779  42.225  11.424
40949W        W 9354  42.938  28.973  13.354
40950W        W 9355  40.812   2.867  14.515
40951W        W 9356  19.840  41.418   0.933
40952W        W 9357   5.910  18.075  13.501
40953W        W 9358   3.713  44.199  12.445
40954W        W 9359  28.660  13.066  13.200
40955W        W 9360  39.004  34.657  14.999
40956W        W 9361  34.149  39.616   3.260
40957W        W 9362  43.471  23.986   1.728
40958W        W 9363   8.650   0.361  12.275
40959W        W 9364  24.144   9.562   2.317
40960W        W 9365  43.231  30.085   3.432
40961W        W 9366  16.038   1.038   2.844
40962W        W 9367  23.046  40.878  12.048
40963W        W 9368  14.788  19.583  13.392
40964W        W 9369  23.006   3.238   1.495
40965W        W 9370  42.287  31.106  14.446
40966W        W 9371  20.495   4.840  10.975
40967W        W 9372  26.074  21.357  12.438
40968W        W 9373  10.722  23.468  14.489
40969W        W 9374  17.219   2.732   2.113
40970W        W 9375   0.485  15.484   3.626
40971W        W 9376  27.705  36.770   3.625
40972W        W 9377   1.077  44.496  10.744
40973W        W 9378   3.527   2.307   2.859
40974W        W 9379  32.156   0.843   2.836
40975W        W 9380  10.803  30.071  11.575
40976W        W 9381   4.962  40.856   2.728
40977W        W 9382  44.643  19.758   3.999
40978W        W 9383  13.378  29.996  10.594
40979W        W 9384   6.705  20.325   1.731
40980W        W 9385  39.534  33.226  11.483
40981W        W 9386   3.030  22.160  14.265
40982W        W 9387  41.285  33.849  11.633
40983W        W 9388  20.728  14.086  14.792
40984W        W 9389  24.681  20.706   4.777
40985W        W 9390  25.111  26.959  14.503
40986W        W 9391  42.331  35.922   1.433
40987W        W 9392  25.299  23.118   3.737
40988W        W 9393   9.326  29.549   1.791
40989W        W 9394  42.777  27.846   4.114
40990W        W 9395   8.568   6.912   3.635
40991W        W 9396  44.325  31.096   4.341
40992W        W 9397  23.239  16.229   2.793
40993W        W 9398  35.323   5.722   1.875
40994W        W 9399  15.278   5.450  12.531
40995W        W 9400   2.703  34.912  11.168
40996W        W 9401   4.544  29.188  14.428
40997W        W 9402   1.723  29.641  12.591
40998W        W 9403  36.322  14.983  13.341
40999W        W 9404  32.033  23.798  10.896
41000W        W 9405  32.154  22.755  13.134
41001W        W 9406   8.724  37.570  12.860
41002W        W 9407  22.439  12.859   1.707
41003W        W 9408  24.452  33.892   0.502
41004W        W 9409   5.039  10.251  14.967
41005W        W 9410  19.181  39.703   2.127
41006W        W 9411  16.584  27.019  12.880
41007W        W 9412  19.056  15.631  13.082
41008W        W 9413  19.843   0.227  14.849
41009W        W 9414   1.583  33.893  14.841
41010W        W 9415  35.956   8.607  13.426
41011W        W 9416   8.252  22.246   0.277
41012W        W 9417  20.362  30.583  13.576
41013W        W 9418  14.783  40.378  14.640
41014W        W 9419   1.937  17.809  11.667
41015W        W 9420  27.101  27.404  12.589
41016W        W 9421  38.445  21.458   3.558
41017W        W 9422  22.006  10.799   0.834
41018W        W 9423  28.106  24.930  12.878
41019W        W 9424   4.398  14.659   1.359
41020W        W 9425  27.506   8.639   2.493
41021W        W 9426  42.426  25.246  12.721
41022W        W 9427  18.175  25.213  10.617
41023W        W 9428  15.100  44.331  13.586
41024W        W 9429  33.972  11.236   0.381
41025W        W 9430  10.406  18.252  11.329
41026W        W 9431  13.838  15.901  12.842
41027W        W 9432  16.531   1.952   0.338
41028W        W 9433  23.755  18.037   5.022
41029W        W 9434   5.902   8.871  12.471
41030W        W 9435  40.446  26.062   3.570
41031W        W 9436  24.716  26.987   2.863
41032W        W 9437   7.141  18.524  11.088
41033W        W 9438  21.818  13.346   2.408
41034W        W 9439  30.599   0.280  14.967
41035W        W 9440   7.304  16.590   1.365
41036W        W 9441  13.255  12.830   1.629
41037W        W 9442  17.131  10.735   1.667
41038W        W 9443  23.051  31.647  13.379
41039W        W 9444  30.716  31.122  13.018
41040W        W 9445  44.900  14.858   2.937
41041W        W 9446  34.300  18.607  14.343
41042W        W 9447  18.196   9.345   4.635
41043W        W 9448  44.092   8.120   3.732
41044W        W 9449  22.111   9.255   1.503
41045W        W 9450  40.052   5.371  11.516
41046W        W 9451   1.926  14.264   2.186
41047W        W 9452  11.335   7.609  12.976
41048W        W 9453  13.079  22.063  10.488
41049W        W 9454   7.080  37.115  14.163
41050W        W 9455  23.318  20.285  13.585
41051W        W 9456  40.886   0.532   2.637
41052W        W 9457  27.235  24.637   3.347
41053W        W 9458   0.204  36.135   4.194
41054W        W 9459   9.906   8.333  11.946
41055W        W 9460  32.994  28.124  10.655
41056W        W 9461   8.878  37.288  14.806
41057W        W 9462  37.713  25.088   4.579
41058W        W 9463  34.585  39.718   2.329
41059W        W 9464  40.392  20.559   3.113
41060W        W 9465   3.912  16.545  13.531
41061W        W 9466  43.131  30.840  11.101
41062W        W 9467  13.755   2.952  12.435
41063W        W 9468   2.643   4.339   1.857
41064W        W 9469  15.414  15.010   2.326
41065W        W 9470  33.642  43.818  11.167
41066W        W 9471   8.890  34.866  10.744
41067W        W 9472  29.876  14.812   3.225
41068W        W 9473   9.239  23.190   2.597
41069W        W 9474   0.333  29.456  12.866
41070W        W 9475  14.465  34.202   0.425
41071W        W 9476   4.237  11.359  14.490
41072W        W 9477  22.085  14.459   0.333
41073W        W 9478  36.330  42.480  11.189
41074W        W 9479  43.290  33.851   2.754
41075W        W 9480  27.452  32.685   0.955
41076W        W 9481   2.456  18.344   0.236
41077W        W 9482  39.019   2.298  10.715
41078W        W 9483  32.475  34.416   0.335
41079W        W 9484  41.140  38.898  11.617
41080W        W 9485   1.981  44.934   4.549
41081W        W 9486  26.396  22.110   2.837
41082W        W 9487  27.200  23.774  11.956
41083W        W 9488   5.109  44.036  13.515
41084W        W 9489  28.456  30.308  12.075
41085W        W 9490   1.765   5.262   2.098
41086W        W 9491  19.513  19.776   0.905
41087W        W 9492  13.176  32.946  11.913
41088W        W 9493   5.301   7.781  13.052
41089W        W 9494   0.167   9.220  10.183
41090W        W 9495   1.819   9.849   3.223
41091W        W 9496  23.900  23.663  13.966
41092W        W 9497  36.231  24.107  11.511
41093W        W 9498  12.644   0.653   2.311
41094W        W 9499  16.809  11.371  14.826
41095W        W 9500  23.644  13.080  12.549
41096W        W 9501  44.489  28.458  14.292
41097W        W 9502  19.548  27.445   2.472
41098W        W 9503  20.010  16.030   2.101
41099W        W 9504   6.390  42.453  14.663
41100W        W 9505  13.004  10.279  11.104
41101W        W 9506   8.996  36.469  12.022
41102W        W 9507  37.710   4.990   0.649
41103W        W 9508  10.754  31.624  14.403
41104W        W 9509  27.145  32.861  12.430
41105W        W 9510  39.016  13.715  13.348
41106W        W 9511  25.346  13.988   3.101
41107W        W 9512   9.162  18.209   3.855
41108W        W 9513  25.527  17.256  11.385
41109W        W 9514   7.326  30.497  10.595
41110W        W 9515   3.713   5.292   0.783
41111W        W 9516  13.772  21.363   3.921
41112W        W 9517  29.563   0.741   2.816
41113W        W 9518   0.862  44.967   4.599
41114W        W 9519  37.438  26.946   3.954
41115W        W 9520  11.143  23.605  11.503
41116W        W 9521  11.182  37.091   2.794
41117W        W 9522  28.048  34.011  11.938
41118W        W 9523   0.201   2.139   2.205
41119W        W 9524  10.669  24.060  11.363
41120W        W 9525  10.423  40.469  12.356
41121W        W 9526  36.371  11.552   0.781
41122W        W 9527  26.717  39.084   4.462
41123W        W 9528   3.368  25.112  14.262
41124W        W 9529  41.861   4.970   1.769
41125W        W 9530  36.278  44.034   3.748
41126W        W 9531   4.414  38.753   3.540
41127W        W 9532  39.946  32.393   1.995
41128W        W 9533   0.738  39.903   4.933
41129W        W 9534  15.309   5.216   3.716
41130W        W 9535  36.070  41.547  14.849
41131W        W 9536  31.637   4.404   0.416
41132W        W 9537  35.002  23.920   3.272
41133W        W 9538  31.392  23.397   2.417
41134W        W 9539  31.453  40.990  13.114
41135W        W 9540  30.546  41.045   0.569
41136W        W 9541  30.683  12.197   3.620
41137W        W 9542   0.927   6.192  13.352
41138W        W 9543  36.798  19.118  14.993
41139W        W 9544  36.895  34.421  12.051
41140W        W 9545  19.523  33.446   2.579
41141W        W 9546  26.247  35.700  12.113
41142W        W 9547   5.565  42.795  11.041
41143W        W 9548   1.531  21.033   2.446
41144W        W 9549  39.836  22.797   4.943
41145W        W 9550  13.975  29.171  11.120
41146W        W 9551  34.959  12.743   3.668
41147W        W 9552  39.195   7.500  14.162
41148W        W 9553  14.002  24.978   2.302
41149W        W 9554  24.306  25.427   2.644
41150W        W 9555  14.214  40.975  11.698
41151W        W 9556  21.482  43.325  13.494
41152W        W 9557  30.683  16.686   4.288
41153W        W 9558   0.526  23.232  13.866
41154W        W 9559  31.063   1.973   0.474
41155W        W 9560  15.129   1.162  13.431
41156W        W 9561   1.236  21.006  13.472
41157W        W 9562  30.498  10.930   3.209
41158W        W 9563  25.368   4.493  11.455
41159W        W 9564  11.488  19.636  10.345
41160W        W 9565  22.984  26.929   4.153
41161W        W 9566  13.623   2.606  11.118
41162W        W 9567  20.238  26.142   1.588
41163W        W 9568  20.531  21.986   4.510
41164W        W 9569  20.254  21.011  10.760
41165W        W 9570  33.134  23.083  12.552
41166W        W 9571  35.002  12.247  13.610
41167W        W 9572  26.130  20.972   2.356
41168W        W 9573  18.133  13.264  12.947
41169W        W 9574  35.813  31.990   0.825
41170W        W 9575   5.734  35.433  12.736
41171W        W 9576  15.994  25.642  10.219
41172W        W 9577  33.356   0.205   1.508
41173W        W 9578   6.951  41.515  13.899
41174W        W 9579  20.064  30.097  13.854
41175W        W 9580   4.285  43.920   4.161
41176W        W 9581  12.090  40.815   0.220
41177W        W 9582   1.481  22.576   1.306
41178W        W 9583  41.937  36.965   0.728
41179W        W 9584  39.521   2.036  12.068
41180W        W 9585  32.073  24.291   3.334
41181W        W 9586  43.561   4.769   4.157
41182W        W 9587   4.408  34.162   4.673
41183W        W 9588  26.760  28.140   0.244
41184W        W 9589   3.319  33.523   0.589
41185W        W 9590  35.386   8.338   2.232
41186W        W 9591  41.360  27.495   1.694
41187W        W 9592   7.931  28.098   3.536
41188W        W 9593  37.173  11.349  10.917
41189W        W 9594  31.001   3.596  14.445
41190W        W 9595  13.870  30.896   1.123
41191W        W 9596  22.398   9.313   4.688
41192W        W 9597  33.960  14.303   0.976
41193W        W 9598  13.669  12.222  13.443
41194W        W 9599   2.775  42.928  12.273
41195W        W 9600  20.013  14.981  11.618
41196W        W 9601  33.483  36.930   3.462
41197W        W 9602  18.223  11.641   2.822
41198W        W 9603   1.062   4.292  14.526
41199W        W 9604   6.887  16.674  12.462
41200W        W 9605  13.621  10.832   0.898
41201W        W 9606   9.180   2.745  14.759
41202W        W 9607  27.677   9.962  11.326
41203W        W 9608  11.366   2.980   0.504
41204W        W 9609  31.526  42.058   0.960
41205W        W 9610  40.047  20.128   4.228
41206W        W 9611  34.113  19.621   3.187
41207W        W 9612  19.757  33.590   1.769
41208W        W 9613  24.272  16.104  12.126
41209W        W 9614   9.734  34.655  13.651
41210W        W 9615   4.568   5.120   1.221
41211W        W 9616  25.161  31.506  14.872
41212W        W 9617  31.044  27.684  11.147
41213W        W 9618  24.530  35.434  11.515
41214W        W 9619  23.331  30.934  13.798
41215W        W 9620  37.924  20.245  10.757
41216W        W 9621  31.947  18.927   1.348
41217W        W 9622  16.180  13.190   9.945
41218W        W 9623  25.735  36.412  14.338
41219W        W 9624   8.456  43.583   1.062
41220W        W 9625   4.228  14.822  13.940
41221W        W 9626  40.414  36.322   3.191
41222W        W 9627   7.088  39.926  12.921
41223W        W 9628  44.471   5.736   2.390
41224W        W 9629  24.239  10.353   0.873
41225W        W 9630  33.583  27.639   4.133
41226W        W 9631   8.928  37.470   3.297
41227W        W 9632  32.975   5.952  14.802
41228W        W 9633   1.907  19.683   2.861
41229W        W 9634  14.180  31.346  10.818
41230W        W 9635   2.354  17.572  14.755
41231W        W 9636  29.587  27.992   2.316
41232W        W 9637  14.214  28.854   2.931
41233W        W 9638  20.223   6.230   0.718
41234W        W 9639  19.590  11.949   3.422
41235W        W 9640  31.764  28.646   2.289
41236W        W 9641  16.029   9.957   3.288
41237W        W 9642  35.127  28.478   1.320
41238W        W 9643  21.794  22.082  12.156
41239W        W 9644  28.645  25.046   0.861
41240W        W 9645  36.685   8.313  13.050
41241W        W 9646  31.238  30.863  11.084
41242W        W 9647  13.382  20.947   0.338
41243W        W 9648  25.952  29.153   1.264
41244W        W 9649   0.991  22.081  12.383
41245W        W 9650  44.286  32.122  14.852
41246W        W 9651  29.677   4.959  13.936
41247W        W 9652   8.405  18.913  10.684
41248W        W 9653  27.947  42.068   0.900
41249W        W 9654  23.475  43.648  11.653
41250W        W 9655  41.318   4.789   2.485
41251W        W 9656  31.863  33.263  10.337
41252W        W 9657  37.065   5.344  14.112
41253W        W 9658  17.792  41.606   2.531
41254W        W 9659  25.038  36.625  14.937
41255W        W 9660  44.484  25.160   2.625
41256W        W 9661  44.853  43.547  11.632
41257W        W 9662  30.604  30.791  14.544
41258W        W 9663   0.228  26.164  13.399
41259W        W 9664  15.339   4.025   3.168
41260W        W 9665  20.472  26.648  11.146
41261W        W 9666  22.480   5.027  11.119
41262W        W 9667   5.680   8.862  14.373
41263W        W 9668  14.907   8.442  12.572
41264W        W 9669  36.304  24.704  11.547
41265W        W 9670  37.361   5.985   3.688
41266W        W 9671  11.265  20.643   1.921
41267W        W 9672  18.666  21.330   0.653
41268W        W 9673   7.901   6.428   3.664
41269W        W 9674   1.861  38.502   0.823
41270W        W 9675  24.960  37.390   4.533
41271W        W 9676  10.580   7.189   0.277
41272W        W 9677   0.050  14.737  14.834
41273W        W 9678  12.604  30.089   3.926
41274W        W 9679  16.106  18.007  11.722
41275W        W 9680  28.520  21.021   3.333
41276W        W 9681  33.923  21.499  12.906
41277W        W 9682  32.020  43.053  12.335
41278W        W 9683  11.338  41.453   4.024
41279W        W 9684  24.534  22.558  11.011
41280W        W 9685  10.748  40.497   3.959
41281W        W 9686  37.801   4.722  12.889
41282W        W 9687   8.829   2.339   4.228
41283W        W 9688  38.578  39.838   3.140
41284W        W 9689  44.838  32.091  12.763
41285W        W 9690   6.711  13.353   0.591
41286W        W 9691  14.626  26.610   2.889
41287W        W 9692  25.246  21.591  14.324
41288W        W 9693  16.567  13.863  11.892
41289W        W 9694  15.207  32.535   0.275
41290W        W 9695  43.938  12.236  13.421
41291W        W 9696  44.687  33.399   4.706
41292W        W 9697  19.122  28.421  11.987
41293W        W 9698  19.737   3.219  12.457
41294W        W 9699  14.608   2.690  14.251
41295W        W 9700   8.323  14.674   3.729
41296W        W 9701  20.471  11.571   3.300
41297W        W 9702  43.537   6.749  13.422
41298W        W 9703  12.645   7.223  11.928
41299W        W 9704  22.872  29.345   4.152
41300W        W 9705  17.869   5.174   0.963
41301W        W 9706  13.820  22.716   2.900
41302W        W 9707  26.512  29.627  11.088
41303W        W 9708  30.501  31.405  12.564
41304W        W 9709   7.500  18.128  11.187
41305W        W 9710  39.868   3.979  11.982
41306W        W 9711  44.965  30.455  14.270
41307W        W 9712  14.963   9.340  12.005
41308W        W 9713  30.090  32.563  13.275
41309W        W 9714  17.831   0.263   2.703
41310W        W 9715   8.399   4.879   5.031
41311W        W 9716   4.809  38.037  10.208
41312W        W 9717  27.510  20.099  11.039
41313W        W 9718  44.732  19.760   0.217
41314W        W 9719  13.186  39.266  14.952
41315W        W 9720   9.736  28.306  14.446
41316W        W 9721   7.241  27.547  12.835
41317W        W 9722  26.407   6.585  14.215
41318W        W 9723   1.498  18.721   4.310
41319W        W 9724  41.569   7.376   1.323
41320W        W 9725   5.360  24.986  12.366
41321W        W 9726   1.267   4.269   4.469
41322W        W 9727  42.073  20.298   0.759
41323W        W 9728   8.820   9.556   0.282
41324W        W 9729  29.087  13.739   3.204
41325W        W 9730  16.055  23.030   0.897
41326W        W 9731  21.492  37.939   1.457
41327W        W 9732  18.081   3.212  13.582
41328W        W 9733  27.509  16.779  14.393
41329W        W 9734  17.669  32.890  11.604
41330W        W 9735  39.584  19.172  12.427
41331W        W 9736  11.651   3.791   0.872
41332W        W 9737   6.259  24.545   3.087
41333W        W 9738  43.568  11.211   0.818
41334W        W 9739  28.469  10.574  12.818
41335W        W 9740   9.201  14.757  10.150
41336W        W 9741  11.625  36.160  10.438
41337W        W 9742  25.804  11.670   3.715
41338W        W 9743  22.729  23.599  11.509
41339W        W 9744  26.411  31.533   5.008
41340W        W 9745  22.185  41.335  10.474
41341W        W 9746  41.058  19.795   2.882
41342W        W 9747  10.378  20.546   3.062
41343W        W 9748   5.299  18.627  11.479
41344W        W 9749  13.550   2.202  11.429
41345W        W 9750  41.526  43.796  10.586
41346W        W 9751  41.978   4.058  11.829
41347W        W 9752  44.358  31.586   4.207
41348W        W 9753  32.465  32.816   3.234
41349W        W 9754   7.770  13.701  13.855
41350W        W 9755  44.802  17.182   0.080
41351W        W 9756  31.101   5.690  10.426
41352W        W 9757  29.083   3.984   4.303
41353W        W 9758   1.350  23.894   2.361
41354W        W 9759  42.937  18.160   1.799
41355W        W 9760   4.326  11.749   1.248
41356W        W 9761  43.336  42.761  12.026
41357W        W 9762   6.375  17.523  11.605
41358W        W 9763  21.323  42.766  10.944
41359W        W 9764  20.294   2.548   2.185
41360W        W 9765   2.434  21.716  10.735
41361W        W 9766   4.966  25.518  14.899
41362W        W 9767  12.459  30.278  10.966
41363W        W 9768  37.806  31.061   3.856
41364W        W 9769   9.219  24.587  12.931
41365W        W 9770  14.695  26.430   0.992
41366W        W 9771  32.156  26.422   1.032
41367W        W 9772  36.962  34.978   2.430
41368W        W 9773   0.569  11.273   1.987
41369W        W 9774  17.568  36.505   1.747
41370W        W 9775   0.013  29.232  14.046
41371W        W 9776  19.743   9.811   2.171
41372W        W 9777  44.953  31.511   0.967
41373W        W 9778  15.342   6.147   0.807
41374W        W 9779  21.304  36.943   4.290
41375W        W 9780  27.573   0.745   2.320
41376W        W 9781  18.159  24.740   5.036
41377W        W 9782   9.156  38.003  13.738
41378W        W 9783  18.661  23.136  10.846
41379W        W 9784  21.646  17.758   1.765
41380W        W 9785  31.877  36.507  12.954
41381W        W 9786  25.417  14.917  10.718
41382W        W 9787  42.307  34.943   0.970
41383W        W 9788  21.773   5.743  14.939
41384W        W 9789  20.772  10.778   4.144
41385W        W 9790   6.892   1.806  11.050
41386W        W 9791  38.660  25.963   0.443
41387W        W 9792  16.864   9.575   4.690
41388W        W 9793  12.094  28.924  14.482
41389W        W 9794  38.897   1.316   2.780
41390W        W 9795  33.578  36.675  12.565
41391W        W 9796  31.294  13.360   1.274
41392W        W 9797   4.710  25.158   2.113
41393W        W 9798  13.296   3.427   2.334
41394W        W 9799  18.789  20.276  11.503
41395W        W 9800  18.209  10.848   4.084
41396W        W 9801  21.340  26.043   1.378
41397W        W 9802  22.763   3.820  10.704
41398W        W 9803  13.429  15.722  10.669
41399W        W 9804  40.879  33.813   2.821
41400W        W 9805  41.827   6.187  14.044
41401W        W 9806  39.240  13.191  13.943
41402W        W 9807  38.976   6.422   2.779
41403W        W 9808  38.841   6.685  14.052
41404W        W 9809  12.750  28.421  14.890
41405W        W 9810  35.321  12.717  11.520
41406W        W 9811   0.264  11.829  12.696
41407W        W 9812  11.677  27.963  14.352
41408W        W 9813  19.335  43.532   3.721
41409W        W 9814  37.377  10.799  13.558
41410W        W 9815  22.709   4.861  12.693
41411W        W 9816   5.557  18.442  14.076
41412W        W 9817  38.506  19.005   3.691
41413W        W 9818   9.344  41.911   0.344
41414W        W 9819  39.789  27.523  12.095
41415W        W 9820  23.365  18.160   4.202
41416W        W 9821  32.199  33.105  12.075
41417W        W 9822  33.909  33.090   4.630
41418W        W 9823  39.890  27.138   1.826
41419W        W 9824  37.598  27.560   1.026
41420W        W 9825  41.542  13.905  11.066
41421W        W 9826  12.992  33.146   9.843
41422W        W 9827   0.101   0.974   3.963
41423W        W 9828  35.119  42.459   4.680
41424W        W 9829   0.000  43.472  13.060
41425W        W 9830   6.676  38.463   2.839
41426W        W 9831  26.901  12.691  11.025
41427W        W 9832  29.195  39.925  13.153
41428W        W 9833  33.994  38.484  11.727
41429W        W 9834  22.207  12.047   4.251
41430W        W 9835  31.119   2.663  10.615
41431W        W 9836  41.805  10.112  11.636
41432W        W 9837  25.117  11.076  12.553
41433W        W 9838  20.007  40.261  11.648
41434W        W 9839  43.485  22.457   3.703
41435W        W 9840  44.862   9.153   3.267
41436W        W 9841  10.796   3.621  12.734
41437W        W 9842   6.295   1.927  14.560
41438W        W 9843  38.092  28.476   0.016
41439W        W 9844   2.453  36.499   4.745
41440W        W 9845  29.826  20.998   0.842
41441W        W 9846  32.511  35.530  11.998
41442W        W 9847   3.771   6.336   1.801
41443W        W 9848  20.791  12.584  11.608
41444W        W 9849  36.455  14.085  11.668
41445W        W 9850  25.030  17.259   1.547
41446W        W 9851  37.255  13.812  14.962
41447W        W 9852  29.805  41.997  14.210
41448W        W 9853  14.329  29.421   0.400
41449W        W 9854   7.265  20.092   2.649
41450W        W 9855   9.194  32.727   9.583
41451W        W 9856  21.716  26.361   2.485
41452W        W 9857  37.821  21.219  10.255
41453W        W 9858  11.332  19.633  10.924
41454W        W 9859  41.776  18.181  12.607
41455W        W 9860   1.322  12.698   3.328
41456W        W 9861  19.096  19.455  11.951
41457W        W 9862  13.364   6.207  12.707
41458W        W 9863  32.202  43.625  14.835
41459W        W 9864  19.600  27.608   3.825
41460W        W 9865  21.953  28.214   3.173
41461W        W 9866  18.308   7.209   1.764
41462W        W 9867  10.199   4.852   4.495
41463W        W 9868  10.771  40.528  14.633
41464W        W 9869   3.325  42.083  11.454
41465W        W 9870  32.649  21.599   3.685
41466W        W 9871  38.328  37.100   1.303
41467W        W 9872  31.917  22.074   4.557
41468W        W 9873  26.261  22.587  12.992
41469W        W 9874  24.667  19.113   4.065
41470W        W 9875  13.128  35.964  11.584
41471W        W 9876  31.531  18.958   2.428
41472W        W 9877   4.511  23.535   9.920
41473W        W 9878  29.478  14.903  11.170
41474W        W 9879  38.542  26.000   3.270
41475W        W 9880   6.399  28.730   3.087
41476W        W 9881  19.108  36.962   0.764
41477W        W 9882  42.524  22.946  10.557
41478W        W 9883   3.729  19.740  10.605
41479W        W 9884  21.093  16.831  11.492
41480W        W 9885   6.190   3.850  13.895
41481W        W 9886  33.383  10.339  10.678
41482W        W 9887  40.928  44.807  13.507
41483W        W 9888  41.812  31.608  12.542
41484W        W 9889   6.937  41.376  14.454
41485W        W 9890   8.351  36.262   0.706
41486W        W 9891   9.181  39.539   4.092
41487W        W 9892  18.237   2.150   3.238
41488W        W 9893  15.273  14.455  13.041
41489W        W 9894  43.366  26.200  12.550
41490W        W 9895   1.558  39.376   3.747
41491W        W 9896  41.605  25.184   0.975
41492W        W 9897  40.146  25.668  11.420
41493W        W 9898  19.196  12.196   1.240
41494W        W 9899  41.931  28.642  12.447
41495W        W 9900  26.443  32.381   0.892
41496W        W 9901  27.096  18.530  13.853
41497W        W 9902  17.840   4.423  10.664
41498W        W 9903   7.389  22.960   0.330
41499W        W 9904   8.199  24.747  11.509
41500W        W 9905  37.623  38.464  12.117
41501W        W 9906  18.383  14.983  12.762
41502W        W 9907  13.355   2.926   5.636
41503W        W 9908  15.704  38.800  13.778
41504W        W 9909  13.424  23.854  11.081
41505W        W 9910  36.064  38.780  13.883
41506W        W 9911  28.830  27.218  12.398
41507W        W 9912  26.218  36.903   2.624
41508W        W 9913  28.483  13.882  14.392
41509W        W 9914  38.769  17.981  13.831
41510W        W 9915   8.806  25.790  12.069
41511W        W 9916  16.257  10.445   3.188
41512W        W 9917  23.206  27.344  13.471
41513W        W 9918   2.587  21.668   2.001
41514W        W 9919  26.486  31.430   2.955
41515W        W 9920  14.218  22.777  14.947
41516W        W 9921  25.460   1.231  13.272
41517W        W 9922  18.604   9.916  12.319
41518W        W 9923  14.209  15.836   4.349
41519W        W 9924  16.109  34.363   4.650
41520W        W 9925  31.614  27.960   2.427
41521W        W 9926  17.004  14.315   1.870
41522W        W 9927  17.720  34.107  13.854
41523W        W 9928   2.584  27.587  13.423
41524W        W 9929  39.199   1.195   9.743
41525W        W 9930  23.537   3.561  13.752
41526W        W 9931  13.197  39.833  13.062
41527W        W 9932   8.734  18.305   3.171
41528W        W 9933  25.109   5.982  14.435
41529W        W 9934   6.815  21.684  13.810
41530W        W 9935  33.227  34.927   1.471
41531W        W 9936  38.356  34.682  10.830
41532W        W 9937   0.650   2.832  10.700
41533W        W 9938   7.966  37.936   1.187
41534W        W 9939  15.251   6.014  13.635
41535W        W 9940   5.799   2.482   4.333
41536W        W 9941  21.773   2.858  10.889
41537W        W 9942   8.427   1.288   3.388
41538W        W 9943  15.529  20.783   3.696
41539W        W 9944  35.363  18.020   3.639
41540W        W 9945   0.849  44.928   4.074
41541W        W 9946  37.037  38.830  11.730
41542W        W 9947   7.617   8.900  13.930
41543W        W 9948   6.133   0.563  12.617
41544W        W 9949   1.774   2.307   0.892
41545W        W 9950  31.688   2.333   0.345
41546W        W 9951   4.347  36.571   0.945
41547W        W 9952  28.209   6.467   5.138
41548W        W 9953   4.322  10.546  11.937
41549W        W 9954   0.614   5.544   4.104
41550W        W 9955  34.807   5.666   1.889
41551W        W 9956  18.237  20.974  11.137
41552W        W 9957  14.771  23.673   0.994
41553W        W 9958   1.708   1.440   2.662
41554W        W 9959  14.542  13.684   0.399
41555W        W 9960  17.760  29.541  11.593
41556W        W 9961  15.454  38.972   0.083
41557W        W 9962  15.668  28.684   3.907
41558W        W 9963  15.567  13.662  12.124
41559W        W 9964  38.400   6.956  12.010
41560W        W 9965   9.118  11.292  11.993
41561W        W 9966  27.529  41.322   0.998
41562W        W 9967   3.981  20.075  14.954
41563W        W 9968   6.934   9.668   1.030
41564W        W 9969  43.666  22.590  12.845
41565W        W 9970  40.236  11.412   1.704
41566W        W 9971  14.082  26.469   0.497
41567W        W 9972  22.492  11.608   5.022
41568W        W 9973  28.603  18.266   1.367
41569W        W 9974   7.743  32.303   0.814
41570W        W 9975  18.165  29.612   0.563
41571W        W 9976  27.502   5.444   0.533
41572W        W 9977  26.707  20.749   3.727
41573W        W 9978  20.506  12.313   1.885
41574W        W 9979   0.218  37.897  14.525
41575W        W 9980  19.185  39.306  13.390
41576W        W 9981  12.626   3.566   4.955
41577W        W 9982  16.401  34.423  11.703
41578W        W 9983  24.025  30.750  11.958
41579W        W 9984  10.430  33.661  14.789
41580W        W 9985   0.472  29.293  12.401
41581W        W 9986  22.895  24.426  11.970
41582W        W 9987  13.093  16.944   1.457
41583W        W 9988  41.360   5.377   3.202
41584W        W 9989  28.327   9.898  12.252
41585W        W 9990  13.201  32.586   4.533
41586W        W 9991  21.750  16.672   2.197
41587W        W 9992  22.886  38.681   3.289
41588W        W 9993   3.224  38.769  10.122
41589W        W 9994  35.201   0.018   3.334
41590W        W 9995   7.820  31.092   0.372
41591W        W 9996  32.106  29.757  14.352
41592W        W 9997   3.900   0.400   1.757
41593W        W 9998  27.180  21.021   3.655
41594W        W 9999   8.496  20.992  14.334
41595W        W10000  12.723   3.270  13.093
41596W        W10001  14.270  20.551  13.350
41597W        W10002  10.807  12.646  12.659
41598W        W10003  13.214  35.609   1.899
41599W        W10004  34.163  20.504   3.693
41600W        W10005  19.739  37.930   2.776
41601W        W10006  41.821  13.605   1.464
41602W        W10007   3.464  14.894   2.385
41603W        W10008  10.873  28.019  12.966
41604W        W10009   6.640  13.080   4.770
41605W        W10010   9.084  32.465  12.392
41606W        W10011  11.967   3.869   4.115
41607W        W10012  42.836  32.586  11.599
41608W        W10013  43.573   8.386  10.509
41609W        W10014   1.844  37.535   4.568
41610W        W10015  21.802  10.424   1.718
41611W        W10016  40.006  41.155  12.551
41612W        W10017   8.912   4.387  12.409
41613W        W10018  31.512  23.105   1.951
41614W        W10019  26.268  34.296   4.511
41615W        W10020  30.588  41.564   0.766
41616W        W10021  12.545  37.810   0.375
41617W        W10022  11.326  37.784  14.321
41618W        W10023  33.423  23.535  13.550
41619W        W10024  13.855  31.878  12.812
41620W        W10025  37.939  29.237   2.828
41621W        W10026  32.917  15.144  10.425
41622W        W10027  44.785  32.360  13.954
41623W        W10028  20.217   2.778   0.886
41624W        W10029   0.976   1.996   1.238
41625W        W10030  18.829  27.116  10.709
41626W        W10031  33.478  22.142   2.880
41627W        W10032  41.534   6.483  10.362
41628W        W10033  43.943  40.266   3.139
41629W        W10034  35.432   0.983   4.612
41630W        W10035  24.111  20.036  11.554
41631W        W10036  38.853  36.400   4.548
41632W        W10037  16.578   3.188   2.881
41633W        W10038  30.740  40.400  12.948
41634W        W10039  21.532  36.355   0.283
41635W        W10040  15.340  31.763  12.406
41636W        W10041  24.168  24.814  10.756
41637W        W10042  20.754  37.475  12.224
41638W        W10043  19.452  15.376  12.074
41639W        W10044  28.494  43.696   1.376
41640W        W10045  39.556  31.394   4.542
41641W        W10046  41.804   4.069   3.619
41642W        W10047   9.462  37.985  14.284
41643W        W10048  40.889  14.916  14.880
41644W        W10049  12.831  43.435   4.458
41645W        W10050  40.557  14.123   1.469
41646W        W10051  35.506  22.662  11.207
41647W        W10052  25.272   4.137  11.810
41648W        W10053  39.811  44.885   1.251
41649W        W10054  43.301  31.276  12.624
41650W        W10055  12.783  11.483  12.756
41651W        W10056  13.401  20.155  14.840
41652W        W10057  20.121  40.275   0.374
41653W        W10058   3.717  19.850  12.200
41654W        W10059  24.306  14.819  12.476
41655W        W10060   0.375   6.648  11.165
41656W        W10061  34.975  14.976  12.185
41657W        W10062  15.222  26.632  11.362
41658W        W10063   8.422  14.890  11.132
41659W        W10064  32.020  41.854  13.740
41660W        W10065  33.471  43.017  14.150
41661W        W10066  23.686  14.720   2.772
41662W        W10067   5.993  37.790  13.394
41663W        W10068  29.355   5.284  10.870
41664W        W10069  28.747   3.998   2.400
41665W        W10070  14.357   6.154   0.758
41666W        W10071  33.920   5.411  14.544
41667W        W10072  33.114  30.528  12.529
41668W        W10073   9.934  42.269   4.477
41669W        W10074  22.530  13.698  12.047
41670W        W10075   8.585  25.282   0.842
41671W        W10076   0.686  16.104  13.366
41672W        W10077  26.482  38.797   0.669
41673W        W10078  42.041  10.721  10.725
41674W        W10079  24.704   0.954  11.086
41675W        W10080  37.056   1.645  10.042
41676W        W10081  43.939  41.093   2.743
41677W        W10082   8.457   4.402  10.696
41678W        W10083  25.635  37.560   3.146
41679W        W10084   4.282  12.837  11.063
41680W        W10085  11.708  18.823  10.631
41681W        W10086  21.415   3.371  14.816
41682W        W10087   6.741  14.482  11.492
41683W        W10088  14.204  38.377   1.437
41684W        W10089   1.053  33.154  12.963
41685W        W10090  11.250  23.162   1.660
41686W        W10091  33.513  37.782  11.608
41687W        W10092  41.138  40.470  14.619
41688W        W10093  43.204  25.495   1.410
41689W        W10094  27.493  44.872  13.018
41690W        W10095   3.809  38.599   2.998
41691W        W10096  19.019   9.265  13.909
41692W        W10097  22.106   4.461   0.877
41693W        W10098  35.778  35.391  13.411
41694W        W10099   0.515   2.381   0.437
41695W        W10100  41.439  26.070   1.135
41696W        W10101  41.611  40.973  12.078
41697W        W10102  30.580  32.072   3.704
41698W        W10103  37.433  39.094   1.984
41699W        W10104  29.820   4.466  14.783
41700W        W10105  13.175   5.949  11.978
41701W        W10106  24.982  19.851  10.237
41702W        W10107  17.633  23.998  12.405
41703W        W10108   3.285   7.893   3.623
41704W        W10109  23.743  41.336  13.338
41705W        W10110   1.797  18.775  14.520
41706W        W10111  24.095  27.630   0.679
41707W        W10112  18.858  35.970   3.156
41708W        W10113   6.988  18.034  11.138
41709W        W10114  11.675  34.900  10.326
41710W        W10115  40.904  24.722  14.800
41711W        W10116  13.569  19.316   0.414
41712W        W10117   3.337  41.096   4.358
41713W        W10118  25.633  36.008  14.690
41714W        W10119  23.454  37.486  12.131
41715W        W10120  44.823  37.035  10.638
41716W        W10121  35.446  31.122  10.741
41717W        W10122   3.983  30.407   0.422
41718W        W10123   8.308  43.613  11.185
41719W        W10124   2.996  20.271  13.293
41720W        W10125  11.727  16.805   1.788
41721W        W10126  38.392   8.360   2.333
41722W        W10127  30.530  39.923  12.120
41723W        W10128  22.117  33.315  11.525
41724W        W10129  28.146  27.164   1.501
41725W        W10130  43.417  38.268  10.673
41726W        W10131  38.905  40.842   3.883
41727W        W10132  17.950  44.990  13.297
41728W        W10133  42.951  32.840  14.347
41729W        W10134  14.451  17.315   0.928
41730W        W10135   7.121  36.964  11.191
41731W        W10136  28.111  25.128  13.819
41732W        W10137  26.401  23.428  12.617
41733W        W10138   6.431  27.315  12.306
41734W        W10139  28.908  43.529   4.250
41735W        W10140   4.924  13.799  14.141
41736W        W10141  13.615  11.993   2.834
41737W        W10142   2.065  23.275  12.592
41738W        W10143  31.892  38.705  11.696
41739W        W10144  31.120  23.581   2.871
41740W        W10145  22.020  39.471   3.836
41741W        W10146  17.294  38.494   2.439
41742W        W10147  42.346  10.879  13.678
41743W        W10148   1.061  20.782   4.444
41744W        W10149  30.843   6.952  14.352
41745W        W10150  25.088   7.381   0.560
41746W        W10151  16.821  39.837   3.902
41747W        W10152  20.769  26.797   4.602
41748W        W10153  10.757  17.218   4.213
41749W        W10154  22.455  21.206   2.425
41750W        W10155  15.170   7.473  11.545
41751W        W10156   1.598  43.091  11.521
41752W        W10157  33.207  38.493  13.027
41753W        W10158   7.885  41.069  13.984
41754W        W10159  28.124  43.281   2.997
41755W        W10160  34.623  10.906   4.855
41756W        W10161   6.303  36.788  11.765
41757W        W10162  44.261  27.854   2.793
41758W        W10163  29.896  23.476   2.297
41759W        W10164  33.857  18.008  12.472
41760W        W10165  43.953  29.313  14.424
41761W        W10166  31.187  19.199  10.215
41762W        W10167  25.951  36.318   1.750
41763W        W10168  19.560   9.369  10.962
41764W        W10169  12.069  25.725   4.087
41765W        W10170   2.390  13.841  11.974
41766W        W10171  42.806  41.573  10.752
41767W        W10172  21.495  15.827  12.895
41768W        W10173  12.895  21.956  14.472
41769W        W10174  31.874   7.176  10.379
41770W        W10175  13.574   7.015   1.482
41771W        W10176  36.856  23.051   4.709
41772W        W10177   2.330   8.738  12.453
41773W        W10178  25.839  26.224   1.301
41774W        W10179  31.553  24.583   0.734
41775W        W10180  35.924  13.586   0.098
41776W        W10181  43.268   0.693  14.088
41777W        W10182   5.898   6.978  10.329
41778W        W10183   8.837  11.278   0.751
41779W        W10184  34.528   7.113   4.877
41780W        W10185  29.590  30.325   4.514
41781W        W10186  33.796   9.255  12.387
41782W        W10187   0.003  10.105  14.766
41783W        W10188  34.585   9.375  11.182
41784W        W10189  20.257  27.963   3.684
41785W        W10190  13.455  43.905  14.897
41786W        W10191   7.844  23.132  14.393
41787W        W10192  25.086  21.135   3.652
41788W        W10193   9.467  23.703   3.723
41789W        W10194  15.265  27.751   2.839
41790W        W10195  38.368  13.535  14.086
41791W        W10196  33.073  38.543  11.217
41792W        W10197  36.603  43.007   2.712
41793W        W10198   5.409  34.848   4.108
41794W        W10199  38.380  29.206  13.035
41795W        W10200  37.547  24.687   4.320
41796W        W10201  11.867  40.969  12.499
41797W        W10202  15.498  13.236  11.385
41798W        W10203  23.232  34.649  11.891
41799W        W10204  23.167  33.988  12.466
41800W        W10205   5.198  34.004   2.111
41801W        W10206   7.951  11.106  11.121
41802W        W10207  29.576  17.711   3.894
41803W        W10208   7.573  15.185   0.420
41804W        W10209  10.984   0.333  11.918
41805W        W10210   0.277  14.933  13.929
41806W        W10211  42.900  13.059   1.718
41807W        W10212   6.818   3.913   3.718
41808W        W10213   7.630   3.101  11.573
41809W        W10214  21.748  39.874   2.698
41810W        W10215  12.959  27.047  14.999
41811W        W10216  12.296  19.903   4.446
41812W        W10217  34.894   8.073   4.594
41813W        W10218   8.257  20.840   2.377
41814W        W10219  22.077  11.292   1.385
41815W        W10220   1.275   0.993   4.567
41816W        W10221  30.064  13.247   0.772
41817W        W10222  43.768  36.867   2.150
41818W        W10223  31.441  37.278  13.096
41819W        W10224  42.776  28.967   2.757
41820W        W10225  12.264  36.132   4.681
41821W        W10226  17.598   3.704  11.629
41822W        W10227  11.978  42.491  14.765
41823W        W10228  39.280  39.193   4.109
41824W        W10229  24.475  12.781  12.862
41825W        W10230  14.397  12.517   3.300
41826W        W10231  38.571  29.155  14.347
41827W        W10232  40.902  13.138   3.634
41828W        W10233   9.838  43.588  11.381
41829W        W10234  11.122  38.040  12.137
41830W        W10235  17.688   4.930  10.611
41831W        W10236  22.889  40.807   0.779
41832W        W10237  29.262  38.698   1.508
41833W        W10238  14.186   9.043   4.989
41834W        W10239   6.970  16.026  11.645
41835W        W10240  25.957   4.994   2.390
41836W        W10241  26.972  35.993  11.514
41837W        W10242  42.019  30.197   1.859
41838W        W10243   9.113   2.980   0.285
41839W        W10244  41.838  35.176   0.332
41840W        W10245  36.261  24.819  13.408
41841W        W10246  36.730  21.777   2.399
41842W        W10247  25.590  24.759   3.898
41843W        W10248  35.035  23.868   1.531
41844W        W10249  16.392   5.732  10.151
41845W        W10250  11.222   7.239  13.321
41846W        W10251  22.426  27.092  10.668
41847W        W10252  19.811  24.589  11.937
41848W        W10253  40.099  29.719  14.383
41849W        W10254  13.699  32.817   1.436
41850W        W10255  40.579  31.431   2.797
41851W        W10256  15.905  44.435  11.157
41852W        W10257  19.180   2.014  11.072
41853W        W10258  28.584   3.401   1.157
41854W        W10259  41.535  26.817   0.197
41855W        W10260   7.214   5.446  12.998
41856W        W10261  18.226  27.642  12.895
41857W        W10262   7.677  44.915   1.354
41858W        W10263  12.706  42.705   0.476
41859W        W10264   2.737  23.769   3.512
41860W        W10265   7.876  19.677  12.546
41861W        W10266  32.909  28.439   0.747
41862W        W10267  10.561  26.513  12.108
41863W        W10268  28.371   5.750   2.460
41864W        W10269  40.248   4.892   1.422
41865W        W10270  13.323  12.069   2.395
41866W        W10271  15.092  35.115   1.166
41867W        W10272   7.464  40.743  13.968
41868W        W10273  22.182   8.408  12.546
41869W        W10274  38.683  37.414   4.366
41870W        W10275  15.245  24.519   3.715
41871W        W10276  28.604  35.818  12.213
41872W        W10277   7.837  22.181  10.752
41873W        W10278   2.342  13.571   0.410
41874W        W10279  16.405  32.628  14.824
41875W        W10280   2.780  28.338  11.976
41876W        W10281  35.266  28.532  11.117
41877W        W10282  36.888   3.460  12.024
41878W        W10283  30.148  20.663   3.993
41879W        W10284  33.403  35.798   3.430
41880W        W10285   5.698  31.481   3.839
41881W        W10286  39.034   3.967   5.017
41882W        W10287   5.659   1.384   1.450
41883W        W10288  30.098  31.127   2.851
41884W        W10289  25.137  16.495   2.196
41885W        W10290  13.092  33.028  13.317
41886W        W10291  40.361  23.499   3.523
41887W        W10292  37.498   0.617  13.690
41888W        W10293  12.955  20.634   2.403
41889W        W10294   5.949   1.136  14.415
41890W        W10295  27.931  23.909  11.415
41891W        W10296  14.030  40.508  13.825
41892W        W10297  35.613  15.775  11.299
41893W        W10298   4.244  23.718   0.359
41894W        W10299  37.487  12.607   0.229
41895W        W10300  27.059   6.989  11.537
41896W        W10301  13.785  40.285   1.421
41897W        W10302  15.951   8.706   5.012
41898W        W10303  44.973  31.582   1.484
41899W        W10304   8.217   5.807  13.870
41900W        W10305  34.216  36.255   3.283
41901W        W10306  20.636   3.516  11.693
41902W        W10307  30.447   1.310   3.421
41903W        W10308  23.702   4.740  10.066
41904W        W10309   7.895   7.901  10.479
41905W        W10310  16.166  14.680  14.499
41906W        W10311  34.359  10.802  11.533
41907W        W10312  35.950  28.735  11.674
41908W        W10313  41.733  44.885   4.737
41909W        W10314  17.225  41.110  11.719
41910W        W10315  42.385  21.064   1.894
41911W        W10316  11.384   8.188   4.146
41912W        W10317  21.462  28.030   0.137
41913W        W10318  14.610  21.105  14.290
41914W        W10319  38.824  22.059  11.540
41915W        W10320   2.943  29.944  13.757
41916W        W10321  44.125  32.495   2.516
41917W        W10322  31.922  34.756  12.939
41918W        W10323  21.030  13.863   2.787
41919W        W10324  44.020  26.054  13.795
41920W        W10325  21.948  17.820  11.166
41921W        W10326  15.315  43.535   2.332
41922W        W10327  37.656  13.094   3.345
41923W        W10328   5.463  36.071   4.992
41924W        W10329  11.237  41.076  11.642
41925W        W10330  35.275   3.124   0.876
41926W        W10331  22.485  35.586  14.818
41927W        W10332  17.141  17.507   3.322
41928W        W10333   7.751   7.814   2.364
41929W        W10334   6.690   4.699  14.020
41930W        W10335  44.968  36.083   3.664
41931W        W10336  26.833  10.796   1.180
41932W        W10337  17.449  17.109   4.616
41933W        W10338   5.855  35.878   1.889
41934W        W10339   2.509  21.283  11.001
41935W        W10340  24.497   7.479  14.892
41936W        W10341  28.864  28.734   0.806
41937W        W10342  36.884   8.785   2.830
41938W        W10343  17.162  16.742  10.701
41939W        W10344  13.760  37.665   0.904
41940W        W10345  27.043  43.804   1.616
41941W        W10346  31.688  23.116  10.518
41942W        W10347   5.730  22.651  11.395
41943W        W10348  38.109  16.576  12.421
41944W        W10349  34.411  38.895   1.984
41945W        W10350  19.732  23.428  11.663
41946W        W10351  42.611   6.313  14.408
41947W        W10352  16.167   3.902   3.760
41948W        W10353  10.298  10.518  14.365
41949W        W10354  33.165  27.689   0.113
41950W        W10355   8.977   8.657  12.669
41951W        W10356   5.801  14.018  12.383
41952W        W10357   1.391  37.361   4.931
41953W        W10358   9.784  34.806   0.042
41954W        W10359  18.648  38.455  12.051
41955W        W10360  40.814   3.603   2.745
41956W        W10361  18.747  11.436  14.836
41957W        W10362  25.668  38.164   2.271
41958W        W10363  37.364  44.461  12.045
41959W        W10364   9.927  40.338   0.792
41960W        W10365  14.104   4.863  14.753
41961W        W10366  13.766   5.502   1.792
41962W        W10367  15.304  39.037  11.074
41963W        W10368  14.054   7.680   2.887
41964W        W10369   8.233   2.424  14.499
41965W        W10370   8.875   0.187   1.267
41966W        W10371  34.449  19.746  12.409
41967W        W10372  11.347  21.422   1.136
41968W        W10373  34.505  29.490   3.697
41969W        W10374  44.247  22.208   2.655
41970W        W10375  16.609   9.426   1.316
41971W        W10376  33.954  42.492   0.304
41972W        W10377  32.016  39.377  11.185
41973W        W10378   0.568  24.542   1.881
41974W        W10379  28.410  30.656  11.455
41975W        W10380  40.024  22.638  14.119
41976W        W10381   3.802   2.484  12.009
41977W        W10382  21.277  35.141   2.509
41978W        W10383  33.631  43.060   1.273
41979W        W10384  23.470  31.405  13.593
41980W        W10385  11.185   2.032  10.761
41981W        W10386  43.672  10.086   4.970
41982W        W10387   3.406  21.553   0.731
41983W        W10388  21.066  17.355   1.350
41984W        W10389   4.351  26.465  11.182
41985W        W10390   9.250  12.339   1.554
41986W        W10391  10.710  14.880   2.158
41987W        W10392   2.403  22.736   3.641
41988W        W10393   8.946  39.991   1.986
41989W        W10394  21.481  30.398   1.065
41990W        W10395   5.283   7.066  14.396
41991W        W10396   2.128   1.501  13.905
41992W        W10397  11.892   0.263   0.563
41993W        W10398  31.048  25.621  12.954
41994W        W10399  40.476  37.120  13.312
41995W        W10400  15.779  28.955   1.002
41996W        W10401  42.288  41.556  14.072
41997W        W10402  44.071  42.082  11.917
41998W        W10403   8.781  20.384   1.832
41999W        W10404  12.624   3.726   0.257
42000W        W10405  41.960  37.427   0.946
42001W        W10406   4.593  31.391   3.681
42002W        W10407  42.102   8.302  11.334
42003W        W10408  12.891  13.178  10.508
42004W        W10409  10.005   6.860   0.685
42005W        W10410  40.435  43.477  12.002
42006W        W10411   5.488  20.642  14.371
42007W        W10412   5.186  31.896   1.710
42008W        W10413   9.421   2.530   4.639
42009W        W10414  16.792  16.261   2.741
42010W        W10415  36.152  16.670   3.625
42011W        W10416   3.841  12.142   4.397
42012W        W10417  31.628   5.285   3.258
42013W        W10418   6.166  34.419  14.947
42014W        W10419  41.250  35.955  10.527
42015W        W10420   3.996   6.850   0.404
42016W        W10421  27.991   5.893   3.316
42017W        W10422  18.761  13.432   0.839
42018W        W10423  25.625  34.425   4.046
42019W        W10424  25.782  34.845  10.753
42020W        W10425  40.797  20.896  13.067
42021W        W10426  35.703   2.706   3.711
42022W        W10427  31.486  15.865  11.463
42023W        W10428  40.459  14.747  13.828
42024W        W10429  21.522  33.672  12.304
42025W        W10430  26.900  30.576  10.189
42026W        W10431  16.237  28.964  13.394
42027W        W10432  42.938   5.935  13.607
42028W        W10433  17.665  26.466  14.060
42029W        W10434  21.120  23.464   0.952
42030W        W10435   7.816   3.672   3.660
42031W        W10436  25.289  15.183  12.703
42032W        W10437  39.154  23.898   1.074
42033W        W10438  22.826  31.522  12.498
42034W        W10439  16.746  30.434   0.303
42035W        W10440  44.567  26.102   0.312
42036W        W10441  19.765  31.130   4.018
42037W        W10442  14.188   4.187  13.958
42038W        W10443   7.482  22.111   0.800
42039W        W10444  32.099  35.684   2.313
42040W        W10445  28.499   2.711  14.624
42041W        W10446  31.663  41.635   1.859
42042W        W10447  39.824  16.061   3.512
42043W        W10448  25.171  38.483   1.199
42044W        W10449  14.045  21.727   1.809
42045W        W10450  40.720   6.820  12.621
42046W        W10451  26.934  18.747   4.535
42047W        W10452   1.023   7.391   0.328
42048W        W10453  31.788  38.443   3.625
42049W        W10454  39.143  34.133   2.174
42050W        W10455  21.928  18.559   4.158
42051W        W10456  36.151  36.313   2.321
42052W        W10457  32.730  12.334   2.368
42053W        W10458  44.451  37.870  12.562
42054W        W10459  31.862  20.279  11.481
42055W        W10460   6.639   6.699  14.485
42056W        W10461  31.032  16.215   0.985
42057W        W10462  42.842  17.283  14.023
42058W        W10463   9.355  40.012  13.608
42059W        W10464  43.873   1.788   1.488
42060W        W10465  30.513  15.331  12.082
42061W        W10466  23.091   2.888  12.587
42062W        W10467  27.483  25.475  14.947
42063W        W10468  25.911   1.468   1.358
42064W        W10469  18.480  34.141  12.335
42065W        W10470  37.242  27.210   3.544
42066W        W10471  11.375   9.642  14.797
42067W        W10472  39.154  37.579   4.246
42068W        W10473  41.901  41.352   2.344
42069W        W10474  22.677  29.504  12.155
42070W        W10475  32.004  33.538  10.744
42071W        W10476  42.980   9.001   1.857
42072W        W10477  36.373  12.674  14.861
42073W        W10478  17.102  30.956  14.328
42074W        W10479  14.096  38.589   4.526
42075W        W10480  31.878  20.566  11.954
42076W        W10481  17.213  27.481   3.686
42077W        W10482   0.268  34.038   4.586
42078W        W10483  35.554  23.684  11.862
42079W        W10484  23.538  44.626   1.163
42080W        W10485  10.327   1.245   0.445
42081W        W10486  25.305  15.649   2.769
42082W        W10487  42.811  29.500  13.373
42083W        W10488  23.413  11.033  11.014
42084W        W10489  20.829   4.421   0.294
42085W        W10490  41.194  42.545  13.899
42086W        W10491   3.734  26.099   2.337
42087W        W10492  13.380  21.675   4.427
42088W        W10493  21.524  25.329   5.082
42089W        W10494  12.617   7.701  13.967
42090W        W10495  41.230   8.733   2.823
42091W        W10496  15.149  15.648  14.884
42092W        W10497   7.286  42.651  11.421
42093W        W10498  35.014  34.706   5.059
42094W        W10499  11.331  11.065   4.134
42095W        W10500  20.067  44.750  12.052
42096W        W10501  44.500  21.972  11.095
42097W        W10502  29.188  34.892   2.564
42098W        W10503   4.135  16.131  10.559
42099W        W10504   5.411  44.527   0.571
42100W        W10505  18.739   5.867   4.075
42101W        W10506  38.016  37.477  11.230
42102W        W10507   1.694  41.299   1.068
42103W        W10508   0.962  12.645   2.506
42104W        W10509  20.115  25.012  13.439
42105W        W10510  36.365  30.473  11.659
42106W        W10511  26.033   0.870  11.590
42107W        W10512  43.317  43.501   3.640
42108W        W10513  25.370  38.391  14.725
42109W        W10514  24.578  28.920  14.354
42110W        W10515  26.575  32.511   2.289
42111W        W10516   9.638  37.912   4.248
42112W        W10517  24.550   4.890  13.023
42113W        W10518   7.836  30.632   4.092
42114W        W10519   1.505   2.848   3.544
42115W        W10520  36.899  12.180  11.146
42116W        W10521  22.650  20.316  10.202
42117W        W10522  30.053  39.424   2.256
42118W        W10523  21.173  43.015   9.866
42119W        W10524  24.544  42.790  10.771
42120W        W10525  12.952  19.831  14.925
42121W        W10526  28.702  30.102  12.486
42122W        W10527  13.658   3.124  14.316
42123W        W10528  40.587   3.160   4.516
42124W        W10529   8.676   3.725  13.637
42125W        W10530  25.641  44.240  13.432
42126W        W10531   5.711  26.458  13.274
42127W        W10532   5.682  23.506  13.453
42128W        W10533  35.823   2.252   0.428
42129W        W10534   6.743  11.974   0.504
42130W        W10535  30.664  10.539   0.790
42131W        W10536  15.907  24.751   0.972
42132W        W10537  20.990  12.740  12.097
42133W        W10538  28.177  44.783  14.462
42134W        W10539  44.429   2.469   3.271
42135W        W10540  39.599  14.486   1.443
42136W        W10541  44.004  21.003  11.946
42137W        W10542  34.915  37.474  10.997
42138W        W10543  11.714  28.562   3.752
42139W        W10544   1.510  43.285  14.424
42140W        W10545   8.403  29.472  11.896
42141W        W10546  23.662  43.897  12.085
42142W        W10547  44.054  12.128   0.241
42143W        W10548  31.630   0.982   4.266
42144W        W10549   1.028   1.395  14.477
42145W        W10550  31.828  43.518   2.210
42146W        W10551   3.324  34.765   2.422
42147W        W10552  44.496  34.937   5.129
42148W        W10553  43.864  34.664  14.704
42149W        W10554  17.834  22.599  12.726
42150W        W10555  30.100  10.920   2.707
42151W        W10556  32.074   2.170  14.912
42152W        W10557  41.207  18.187   0.018
42153W        W10558  40.778   3.014  14.997
42154W        W10559  34.136  31.245   4.287
42155W        W10560  41.373  25.085   2.452
42156W        W10561  39.892  11.348  13.389
42157W        W10562   7.689  17.946   2.345
42158W        W10563  22.487  24.534  11.637
42159W        W10564  29.882   4.361  14.286
42160W        W10565   7.402   0.615  14.256
42161W        W10566  19.304  36.167  13.266
42162W        W10567  20.950   7.420   0.374
42163W        W10568  37.440   8.244   1.384
42164W        W10569  26.098  20.019   4.910
42165W        W10570  31.357  40.966  14.916
42166W        W10571  19.104   8.145  12.125
42167W        W10572  26.616  10.413  12.467
42168W        W10573   3.894  21.051  12.443
42169W        W10574   9.248  34.080   0.197
42170W        W10575  12.196  28.990  12.904
42171W        W10576  36.066   7.416   3.702
42172W        W10577  17.893  25.453   2.169
42173W        W10578   1.260  44.721   4.871
42174W        W10579   7.512  10.901  10.767
42175W        W10580   2.606  42.666  13.842
42176W        W10581  13.344  43.048  14.438
42177W        W10582  32.150  29.452   0.693
42178W        W10583   1.911   8.611   0.820
42179W        W10584  34.601  19.784  11.341
42180W        W10585  20.315   6.146   4.212
42181W        W10586  37.451  41.904   2.775
42182W        W10587   9.430  34.018  12.435
42183W        W10588   2.414  44.941  12.475
42184W        W10589   2.573  33.423   4.114
42185W        W10590   9.281  39.385   0.813
42186W        W10591  34.045  42.745  11.060
42187W        W10592  24.325  41.488   1.409
42188W        W10593  12.411  39.180  12.541
42189W        W10594  20.072  24.286   2.401
42190W        W10595  14.305  20.751  13.835
42191W        W10596  28.911   0.583   3.895
42192W        W10597   1.300  40.285   4.574
42193W        W10598  21.445   5.364   0.104
42194W        W10599  13.540  37.781   1.368
42195W        W10600   3.441  36.960  13.205
42196W        W10601   9.309  28.452  11.195
42197W        W10602  44.395  30.312  13.509
42198W        W10603  42.693  36.627   4.628
42199W        W10604   8.808  17.835  13.059
42200W        W10605  26.615  20.798  11.908
42201W        W10606  32.587  26.899   3.676
42202W        W10607  28.718  42.952  14.435
42203W        W10608  23.213  26.529  10.603
42204W        W10609   3.347  30.405   3.688
42205W        W10610   7.375  43.238  12.986
42206W        W10611  22.670  26.783   0.303
42207W        W10612  38.010   8.570   5.318
42208W        W10613  27.412  29.574  12.567
42209W        W10614  29.589  17.234   4.143
42210W        W10615  32.895  27.296   3.507
42211W        W10616   2.149  15.849   0.954
42212W        W10617   7.502   6.774   0.438
42213W        W10618  15.292  35.020  11.907
42214W        W10619  32.108   5.771   3.293
42215W        W10620  32.911  34.707  14.624
42216W        W10621  22.452   9.287  12.516
42217W        W10622  25.718  38.452  12.422
42218W        W10623  31.164  34.369   0.811
42219W        W10624  32.938  22.165  14.324
42220W        W10625   0.279  24.527  14.855
42221W        W10626  15.015  13.171   2.637
42222W        W10627  35.879  19.646  12.958
42223W        W10628  10.855   6.607  12.160
42224W        W10629  12.135  23.510   2.302
42225W        W10630  17.596  42.982   2.158
42226W        W10631  23.070  38.039   3.266
42227W        W10632   3.716  12.988   0.115
42228W        W10633  33.939  15.839   0.213
42229W        W10634  31.562  26.029  11.501
42230W        W10635  15.602  15.017   2.805
42231W        W10636  15.597  22.146   5.325
42232W        W10637   0.863  35.591   3.246
42233W        W10638  27.392  14.779  10.739
42234W        W10639  11.378  20.617  10.664
42235W        W10640  16.351  12.711  13.422
42236W        W10641  36.329  12.625  13.776
42237W        W10642   8.500   1.377   1.592
42238W        W10643  40.665   2.974  10.403
42239W        W10644  19.201   7.655  11.232
42240W        W10645   8.623  22.043   2.724
42241W        W10646  19.802  20.087   2.255
42242W        W10647  20.176  20.928   4.785
42243W        W10648  37.540  22.968   0.529
42244W        W10649  14.314   4.418  14.435
42245W        W10650  26.158  15.357   4.304
42246W        W10651  35.992  36.482  11.690
42247W        W10652  21.737   9.552   1.263
42248W        W10653  15.651  18.493  13.658
42249W        W10654  39.587  11.264  11.908
42250W        W10655  41.901  31.702  11.993
42251W        W10656   2.294  34.450  13.446
42252W        W10657  20.196  36.568  13.543
42253W        W10658  23.641  23.937   1.405
42254W        W10659  17.075   1.350   2.299
42255W        W10660  17.014  26.206   1.691
42256W        W10661   9.341  41.915   4.692
42257W        W10662  21.496   8.913   3.694
42258W        W10663   3.439  34.016   3.053
42259W        W10664   3.762  16.186   1.801
42260W        W10665  32.043  12.520  11.770
42261W        W10666  29.424  20.031  12.552
42262W        W10667  17.862   8.385   3.666
42263W        W10668   3.290  37.306  10.186
42264W        W10669  10.164  12.357  12.052
42265W        W10670   6.901   6.334  12.490
42266W        W10671   6.654  30.140   1.641
42267W        W10672  43.941  13.605  10.741
42268W        W10673  17.841  10.678  13.954
42269W        W10674  24.532  43.496   0.867
42270W        W10675  29.617  19.992   0.770
42271W        W10676  39.999  32.788  12.642
42272W        W10677   9.217  18.297   2.423
42273W        W10678   8.977   9.299  13.829
42274W        W10679  27.412  10.057   2.677
42275W        W10680  39.017   2.419  11.597
42276W        W10681  41.534  36.553   1.280
42277W        W10682  25.626  12.740   0.719
42278W        W10683   7.310  16.128   2.826
42279W        W10684  42.094  28.534   2.456
42280W        W10685  32.201  27.071  11.068
42281W        W10686  27.696  28.554   1.368
42282W        W10687  19.508  20.581   4.095
42283W        W10688  14.657  10.679  10.705
42284W        W10689   5.306  43.068  11.388
42285W        W10690  11.498  19.620   1.946
42286W        W10691  44.302  15.226  13.728
42287W        W10692  34.408  12.841   2.708
42288W        W10693  20.781  27.133   2.826
42289W        W10694  42.180  12.661  11.052
42290W        W10695   5.238  34.659  12.913
42291W        W10696   9.904  39.915  11.184
42292W        W10697  35.840   3.245  13.857
42293W        W10698  20.649  26.852   3.265
42294W        W10699  15.816   2.415   5.427
42295W        W10700  25.085  41.578  10.220
42296W        W10701  41.612   0.270  11.183
42297W        W10702   4.199  35.152  14.753
42298W        W10703  29.640  39.633   4.108
42299W        W10704  38.139  40.361   0.407
42300W        W10705   1.305  17.760   2.102
42301W        W10706  31.427  26.726  11.984
42302W        W10707  12.515  39.836  12.871
42303W        W10708   4.902  36.661   0.383
42304W        W10709   8.955  43.666  12.443
42305W        W10710  26.700  34.575   4.424
42306W        W10711  18.762  33.444  10.728
42307W        W10712  20.624  23.409   4.694
42308W        W10713   6.981  33.771   4.700
42309W        W10714  37.504  42.836  12.034
42310W        W10715  21.034  15.898   1.312
42311W        W10716  19.022  23.736   0.437
42312W        W10717  40.894   9.740   0.469
42313W        W10718   1.433   3.307  11.614
42314W        W10719  21.097  21.950   2.817
42315W        W10720  16.321   7.603  10.844
42316W        W10721  43.124  43.304  12.589
42317W        W10722  36.399  15.591   2.596
42318W        W10723  37.395   5.484   3.603
42319W        W10724  33.540  14.768  10.951
42320W        W10725  14.717   0.025   3.610
42321W        W10726   5.459  42.361   1.315
42322W        W10727  42.731  42.299  11.503
42323W        W10728   6.348   1.656   5.259
42324W        W10729  29.035  12.216  11.198
42325W        W10730  16.496  28.241  14.867
42326W        W10731  38.706  12.345   2.723
42327W        W10732  12.050  34.457   2.338
42328W        W10733  20.518  10.737  12.904
42329W        W10734  36.957  32.830  13.361
42330W        W10735  21.459  39.565   0.889
42331W        W10736  34.840  19.216  13.578
42332W        W10737   5.121  16.661  10.047
42333W        W10738   9.592  13.606  11.580
42334W        W10739  31.432  19.429   9.828
42335W        W10740  23.718  37.824  11.383
42336W        W10741   1.630  27.048   4.639
42337W        W10742  24.061  13.400   1.862
42338W        W10743   0.783   2.342  10.800
42339W        W10744  23.449   4.227   0.895
42340W        W10745  39.400  37.367   0.308
42341W        W10746  17.654  39.904  13.891
42342W        W10747  18.180   4.481  14.421
42343W        W10748  10.610  35.164   0.852
42344W        W10749  21.700  34.581   3.383
42345W        W10750  41.318  41.614  10.871
42346W        W10751  24.660  17.862   3.275
42347W        W10752  38.429  21.935  14.903
42348W        W10753  41.325  39.306  14.540
42349W        W10754  22.661  17.718   2.176
42350W        W10755  41.353   9.588  12.574
42351W        W10756   7.804  28.000  12.832
42352W        W10757  29.454  27.472   1.428
42353W        W10758  26.539  20.329   1.373
42354W        W10759  19.626  18.787  14.033
42355W        W10760  16.217   9.655   0.995
42356W        W10761  19.729   7.116   0.854
42357W        W10762   8.173  16.432  12.121
42358W        W10763  36.810  28.557   0.413
42359W        W10764  26.120  32.109  13.951
42360W        W10765   6.976   4.263  13.951
42361W        W10766  35.532  34.177  13.966
42362W        W10767  32.119   2.531  11.262
42363W        W10768  11.743   3.404   5.335
42364W        W10769  38.405  21.498   2.667
42365W        W10770  25.596  26.820   5.041
42366W        W10771   2.177   2.379  14.328
42367W        W10772  14.157  38.384  13.291
42368W        W10773  43.478  40.416   1.309
42369W        W10774   6.101  36.356   1.246
42370W        W10775  26.099  22.595  13.876
42371W        W10776   0.405  27.738  12.914
42372W        W10777   3.879  30.420  10.525
42373W        W10778  23.156  33.998   4.539
42374W        W10779   0.728   8.080   1.215
42375W        W10780  34.021  31.175  14.410
42376W        W10781  37.260  11.802  11.204
42377W        W10782  14.399  37.194  11.953
42378W        W10783  38.624  43.073  13.438
42379W        W10784  19.746  41.848   2.863
42380W        W10785  36.499  32.115  14.084
42381W        W10786   9.874  14.833   4.586
42382W        W10787  37.395  23.977  13.484
42383W        W10788  23.014  10.645  10.907
42384W        W10789   0.219   7.020   9.873
42385W        W10790   4.769  15.313   4.639
42386W        W10791  34.056  34.035   3.679
42387W        W10792   7.410  31.166   2.396
42388W        W10793  13.171  33.955  13.241
42389W        W10794  44.919  28.001  14.047
42390W        W10795   8.068  34.078   2.113
42391W        W10796  29.941  15.139  12.980
42392W        W10797  43.236  32.927   4.466
42393W        W10798   7.880   7.772  14.304
42394W        W10799   3.809  36.678  14.667
42395W        W10800  15.224  13.809   4.425
42396W        W10801   3.322  21.934  12.542
42397W        W10802  18.746   3.769   0.202
42398W        W10803  15.239   8.802  10.640
42399W        W10804   9.261  11.443   1.019
42400W        W10805  40.984  34.697   2.225
42401W        W10806  16.896  14.671   1.464
42402W        W10807  23.026  10.461  12.885
42403W        W10808   2.969   5.037   2.808
42404W        W10809  39.899  11.762   0.396
42405W        W10810  14.646  25.383   1.220
42406W        W10811  13.699  14.965  12.494
42407W        W10812  43.452  22.610  10.346
42408W        W10813  24.676  11.257   3.909
42409W        W10814  24.174  24.282  10.715
42410W        W10815  17.561   7.262  12.904
42411W        W10816  27.041  25.591  10.757
42412W        W10817  32.334  35.825   0.848
42413W        W10818  18.202  18.684   3.842
42414W        W10819  32.316   9.659  10.549
42415W        W10820   5.736   8.759   2.612
42416W        W10821  23.548  28.124   3.736
42417W        W10822  31.770  28.151  10.459
42418W        W10823  13.398  40.328   3.179
42419W        W10824  22.220  16.628   2.679
42420W        W10825   9.075   0.746  14.649
42421W        W10826  30.422   8.418  14.024
42422W        W10827   5.874  15.829   0.744
42423W        W10828  18.681  14.772   4.933
42424W        W10829  35.630  40.356  11.534
42425W        W10830  16.629  25.243   2.122
42426W        W10831  43.581   8.590  13.936
42427W        W10832  32.015   0.933   2.338
42428W        W10833  26.666  30.587   2.751
42429W        W10834  17.327   8.340  14.937
42430W        W10835  18.634  10.565   4.135
42431W        W10836  20.261  41.980   3.122
42432W        W10837   8.908  40.362   5.069
42433W        W10838  25.600   9.599   2.652
42434W        W10839   1.019   3.093   4.139
42435W        W10840   7.145  18.365   0.907
42436W        W10841   9.506   5.898   0.386
42437W        W10842   3.693   3.469   0.244
42438W        W10843  33.928  32.920  12.596
42439W        W10844  17.184  38.522  12.989
42440W        W10845  18.490   5.087  11.041
42441W        W10846  33.712  14.733  11.969
42442W        W10847  38.992  13.424   3.965
42443W        W10848   0.388  18.280   0.465
42444W        W10849  34.963   3.005   0.221
42445W        W10850  27.290  25.091  12.269
42446W        W10851  34.260  17.669   4.247
42447W        W10852  27.085  24.205   3.616
42448W        W10853  26.846   5.844  12.641
42449W        W10854  15.694  32.830   4.252
42450W        W10855  22.600  44.529  10.368
42451W        W10856  11.765  23.531   2.859
42452W        W10857  30.675  40.046   2.924
42453W        W10858  42.725   9.221  11.597
42454W        W10859  15.106  14.572   0.768
42455W        W10860  14.894  14.239  10.799
42456W        W10861   0.530  37.153   0.620
42457W        W10862  25.714  14.754   2.685
42458W        W10863  30.117  43.505  11.769
42459W        W10864   2.587  26.546  10.836
42460W        W10865  18.353   4.790  11.427
42461W        W10866   7.287  30.483   3.731
42462W        W10867  36.651  18.300  12.230
42463W        W10868  20.265  16.028  14.878
42464W        W10869  37.564   2.681   1.367
42465W        W10870  37.900  12.740   1.353
42466W        W10871  32.905   9.796  12.300
42467W        W10872  33.697  24.380   0.329
42468W        W10873  38.472  17.156   4.477
42469W        W10874   7.373  17.075  13.044
42470W        W10875   8.804  34.702  11.678
42471W        W10876  17.396  35.062   2.411
42472W        W10877  25.970   4.959   0.291
42473W        W10878  36.215  23.569  10.521
42474W        W10879  44.690   3.717   4.151
42475W        W10880  18.101  10.466   4.615
42476W        W10881  44.368  41.821   0.288
42477W        W10882  15.234  44.019   1.248
42478W        W10883  29.396  21.106   3.856
42479W        W10884  42.913   0.927   3.277
42480W        W10885  23.219  12.180  12.264
42481W        W10886   6.936   8.827   5.172
42482W        W10887  24.842  38.362  14.823
42483W        W10888  15.238  31.226   3.314
42484W        W10889  36.883  11.998   1.905
42485W        W10890  14.086  35.585   0.308
42486W        W10891  28.679  37.949  14.443
42487W        W10892  22.638   6.346   3.723
42488W        W10893   4.137  34.184   1.186
42489W        W10894  13.760  40.726  11.561
42490W        W10895  36.487  20.082   0.386
42491W        W10896  17.068  38.579  14.826
42492W        W10897  27.205  17.257   0.381
42493W        W10898  27.734   5.702   0.038
42494W        W10899  30.897  41.979   4.185
42495W        W10900  15.267  29.033   1.159
42496W        W10901  42.413  37.844   0.226
42497W        W10902  42.239  18.133   0.477
42498W        W10903  20.577  44.039  10.837
42499W        W10904  43.014  38.364   0.749
42500W        W10905   6.259  42.531   0.177
42501W        W10906   7.234  42.385  14.933
42502W        W10907  21.069   1.363  14.307
42503W        W10908  39.070  23.565  14.299
42504W        W10909  15.328  23.007  10.738
42505W        W10910  43.554  14.568   3.498
42506W        W10911  43.618   2.087   9.883
42507W        W10912  13.699  10.743  14.536
42508W        W10913   6.720  16.453  11.422
42509W        W10914  20.574   6.500  12.414
42510W        W10915  16.751  14.862  12.909
42511W        W10916  25.238  44.180   4.230
42512W        W10917  30.878  24.650  11.601
42513W        W10918   6.784  43.745   0.850
42514W        W10919  12.153  31.459   1.709
42515W        W10920  16.687  26.640   1.702
42516W        W10921   9.910  41.385   4.772
42517W        W10922  39.978  25.697  11.902
42518W        W10923  29.123  19.528  14.053
42519W        W10924   4.670   4.499   1.935
42520W        W10925  10.649  17.323   4.709
42521W        W10926  38.900   3.242  12.082
42522W        W10927   9.390  23.664  14.006
42523W        W10928  37.873  20.750  12.949
42524W        W10929  22.035   9.908   1.011
42525W        W10930  24.101  11.414   4.772
42526W        W10931  24.987  21.613   2.302
42527W        W10932  19.231   9.307   3.942
42528W        W10933  29.861   3.297  10.648
42529W        W10934   7.939   2.334  13.050
42530W        W10935   7.433  14.191   3.874
42531W        W10936   3.941  29.654   1.459
42532W        W10937  38.099  16.209   4.291
42533W        W10938  44.537  13.816   0.748
42534W        W10939  25.240   4.393   1.585
42535W        W10940  29.033  44.325   0.862
42536W        W10941   2.949  35.221  11.496
42537W        W10942  19.060   4.268   0.890
42538W        W10943  17.239  10.316  14.408
42539W        W10944  32.897  44.896  12.360
42540W        W10945   1.523  15.657   1.767
42541W        W10946  12.786  25.721  11.607
42542W        W10947   1.818  27.642  12.487
42543W        W10948  34.851  38.256   2.349
42544W        W10949  18.757  42.856   0.896
42545W        W10950  13.763  34.182  12.126
42546W        W10951   7.118  40.455  13.056
42547W        W10952  16.031   9.387   3.227
42548W        W10953  41.763  33.089   1.945
42549W        W10954  11.666  32.148   2.746
42550W        W10955  13.313  33.459  14.555
42551W        W10956  27.626   4.495  11.952
42552W        W10957   4.914   7.180   3.046
42553W        W10958  26.583  16.577   0.393
42554W        W10959  13.290  11.438   4.431
42555W        W10960  23.473   9.429  11.655
42556W        W10961   8.366  15.308   9.881
42557W        W10962  14.586  36.577  11.312
42558W        W10963  15.761  41.797  11.138
42559W        W10964  26.216  44.117   1.494
42560W        W10965  42.035  23.100   2.002
42561W        W10966  41.584  24.233  10.808
42562W        W10967   2.769  39.252   2.375
42563W        W10968  24.106  38.112  11.214
42564W        W10969  34.872  26.904  13.755
42565W        W10970  21.176  12.260  12.875
42566W        W10971   3.887   4.983   1.750
42567W        W10972  19.127  13.454  13.909
42568W        W10973   6.415  24.564   1.528
42569W        W10974   6.149  17.586  13.461
42570W        W10975   7.850   3.723   0.484
42571W        W10976   7.679  12.321  10.701
42572W        W10977  24.453  29.940  11.454
42573W        W10978  14.233  34.636  13.890
42574W        W10979  13.644  38.515  10.781
42575W        W10980  43.171  15.494   2.335
42576W        W10981  12.589  36.703  13.966
42577W        W10982  14.679  41.734   4.510
42578W        W10983  29.710  13.619  11.062
42579W        W10984  16.726  28.599  11.206
42580W        W10985  35.164  10.261  14.430
42581W        W10986  20.169  44.935   1.480
42582W        W10987   5.795  26.353   2.806
42583W        W10988   6.206   6.665  11.144
42584W        W10989  17.344  39.246  11.093
42585W        W10990  41.294  28.962   4.243
42586W        W10991  35.885  13.722   4.285
42587W        W10992  31.987  33.939  11.602
42588W        W10993  32.611  11.240   1.652
42589W        W10994  35.127   2.424  12.150
42590W        W10995  25.603  27.088   2.828
42591W        W10996  14.340  44.540   3.328
42592W        W10997  13.018   7.402   4.506
42593W        W10998  15.837  31.845  12.204
42594W        W10999  12.322   5.046  11.899
42595W        W11000  11.778  16.161  11.053
42596W        W11001   0.386  30.379   0.311
42597W        W11002  11.333  24.503   0.242
42598W        W11003  13.840   1.237  14.867
42599W        W11004   6.628  16.127   2.304
42600W        W11005  35.200   8.353  11.438
42601W        W11006  30.457  37.130  12.650
42602W        W11007  20.576  17.480  14.728
42603W        W11008  20.117  39.783   2.826
42604W        W11009  15.132   2.647  14.104
42605W        W11010  12.175  12.745   2.252
42606W        W11011   4.838  34.429   3.561
42607W        W11012  39.405  25.535  10.724
42608W        W11013  16.000  35.099   4.135
42609W        W11014  24.275   1.625   0.322
42610W        W11015  29.768  43.531  12.186
42611W        W11016  21.156  14.376  13.940
42612W        W11017  27.399   9.473  14.483
42613W        W11018  36.216  18.349   1.929
42614W        W11019  22.638  38.044   0.026
42615W        W11020  43.791   4.647  10.876
42616W        W11021  27.811  22.043  12.867
42617W        W11022  41.498  37.930   3.696
42618W        W11023  43.737  44.250   3.884
42619W        W11024   0.942  37.060   4.855
42620W        W11025  26.518  41.104   3.240
42621W        W11026  37.598  14.354   0.805
42622W        W11027  26.053  17.300  12.678
42623W        W11028  25.518  24.154   3.822
42624W        W11029   3.722  24.649   3.026
42625W        W11030   7.315  28.258   5.418
42626W        W11031  20.579  28.680   0.469
42627W        W11032  41.726   4.604  14.833
42628W        W11033  21.232   8.247  12.455
42629W        W11034  43.945  39.288   4.191
42630W        W11035  33.085   5.681   3.179
42631W        W11036  35.553  28.157   0.495
42632W        W11037  26.146  35.153   3.852
42633W        W11038  43.848  15.207   2.381
42634W        W11039  35.061  24.048  10.753
42635W        W11040  14.830  11.548  14.815
42636W        W11041   9.328  26.650  12.918
42637W        W11042  32.812  27.585   1.871
42638W        W11043   0.430  27.233  13.008
42639W        W11044  38.970  19.649  14.787
42640W        W11045   3.296  37.423   0.861
42641W        W11046  34.937   2.978  12.770
42642W        W11047  17.713  18.244   0.446
42643W        W11048  36.126   1.357  12.004
42644W        W11049  15.302  36.850   2.314
42645W        W11050  13.384  24.123  14.897
42646W        W11051   0.459  42.191  11.353
42647W        W11052  43.800  42.117   2.875
42648W        W11053   9.725  13.241   0.817
42649W        W11054  34.041  25.845   2.647
42650W        W11055  44.914   4.217   3.276
42651W        W11056   7.276  18.736   1.268
42652W        W11057   8.832  17.735  14.066
42653W        W11058   8.370  36.336   2.909
42654W        W11059  14.083  13.713  13.841
42655W        W11060  19.486   7.370  12.590
42656W        W11061  38.522   8.850   3.246
42657W        W11062   1.337  21.464  10.852
42658W        W11063  42.232   9.085  11.151
42659W        W11064  42.317   9.200  13.342
42660W        W11065   9.071   8.294  11.495
42661W        W11066  22.713  17.545  12.058
42662W        W11067  34.358  21.625   0.895
42663W        W11068  37.935  10.088   4.168
42664W        W11069  19.787  12.743   4.746
42665W        W11070   5.153   7.413  10.720
42666W        W11071   1.052  28.193  11.003
42667W        W11072  38.533   9.410  12.023
42668W        W11073   4.803   3.014  11.527
42669W        W11074  13.103  31.867  12.410
42670W        W11075  30.870  21.514  13.234
42671W        W11076  44.522  23.032   1.811
42672W        W11077   5.709  44.617  10.084
42673W        W11078  13.612  30.928   2.167
42674W        W11079  36.921  26.488   1.117
42675W        W11080  40.094  20.677   0.247
42676W        W11081  28.996  22.063  14.049
42677W        W11082  38.958  26.169  11.076
42678W        W11083  20.499  10.114  10.672
42679W        W11084  23.853  18.082   4.092
42680W        W11085  20.769  12.197   1.451
42681W        W11086  16.728   5.853   5.110
42682W        W11087  12.176  44.417  13.384
42683W        W11088  23.921  40.378  11.131
42684W        W11089  39.996  14.086  11.844
42685W        W11090  31.160  14.603   1.850
42686W        W11091  12.296  17.330  10.544
42687W        W11092  18.045  43.879   4.613
42688W        W11093  29.946  20.013  12.452
42689W        W11094  30.523  36.801  13.109
42690W        W11095  30.169  12.805  11.672
42691W        W11096   7.730  13.217  14.979
42692W        W11097  15.966  15.193   3.229
42693W        W11098  24.519  17.320   1.201
42694W        W11099   7.939  30.144  13.820
42695W        W11100  32.549  20.498  10.703
42696W        W11101   6.654  28.977   4.508
42697W        W11102   8.395  34.677   4.164
42698W        W11103   3.400  36.993   0.289
42699W        W11104  41.982  16.046   3.979
42700W        W11105  17.123  35.804   3.663
42701W        W11106  24.800  22.648   0.024
42702W        W11107  31.899  32.882  13.437
42703W        W11108  13.807  16.089  10.586
42704W        W11109  38.567  31.567   4.651
42705W        W11110  27.172  33.847  14.438
42706W        W11111  15.339   0.709  12.470
42707W        W11112   7.609  36.685   1.358
42708W        W11113  19.659   6.793  10.075
42709W        W11114  40.465  39.654   4.527
42710W        W11115   1.100  22.615   5.132
42711W        W11116  25.601   5.882  11.212
42712W        W11117  40.764  13.627   0.211
42713W        W11118  20.715  22.642  10.492
42714W        W11119  40.917  27.435   0.419
42715W        W11120   5.791  39.033  14.426
42716W        W11121  27.672  34.567   2.822
42717W        W11122   4.845  41.337   4.560
42718W        W11123  12.481  30.127   4.483
42719W        W11124  34.818  11.729  12.477
42720W        W11125  35.622   9.320   4.984
42721W        W11126   3.098  26.541   3.622
42722W        W11127  10.401  28.500   4.083
42723W        W11128  28.764  14.143  11.628
42724W        W11129  37.563   0.723   0.524
42725W        W11130  29.524  13.132  11.133
42726W        W11131  35.994   8.846   2.730
42727W        W11132  37.640  15.671   0.201
42728W        W11133  13.659   4.958  11.553
42729W        W11134  26.828  30.730   5.001
42730W        W11135  27.703  40.025   1.463
42731W        W11136  18.252  20.120  11.381
42732W        W11137   7.645   3.014  13.609
42733W        W11138  34.484   0.574  12.151
42734W        W11139  31.796  13.594  12.539
42735W        W11140  18.161  20.650  10.155
42736W        W11141  31.992  15.597  12.554
42737W        W11142   7.623  12.632   1.288
42738W        W11143  41.099  32.037  11.619
42739W        W11144  36.098  23.077   1.942
42740W        W11145  41.526  31.146  13.134
42741W        W11146  25.376  14.866  14.539
42742W        W11147  28.734  12.619   1.808
42743W        W11148  37.016  17.527  10.591
42744W        W11149  27.264   9.648  11.471
42745W        W11150  35.828  36.980  11.565
42746W        W11151  33.564  10.735  12.355
42747W        W11152  20.589   4.996  10.478
42748W        W11153  20.053  12.262  12.814
42749W        W11154  13.310  13.210  11.939
42750W        W11155  36.320  17.143   0.181
42751W        W11156  21.113  24.939   3.251
42752W        W11157  43.835  43.352  14.785
42753W        W11158  15.981   2.683  14.358
42754W        W11159  37.300  28.588   0.209
42755W        W11160  38.556  44.434   1.409
42756W        W11161  11.305  30.432  13.062
42757W        W11162   7.326  25.579  14.930
42758W        W11163   8.225  25.653   0.890
42759W        W11164  28.316   0.862   1.820
42760W        W11165  35.025  22.293   0.964
42761W        W11166  44.494  13.340   1.962
42762W        W11167  17.070  33.753   3.574
42763W        W11168  40.787   5.455  11.093
42764W        W11169  23.107  16.702   0.286
42765W        W11170  42.027  39.777   1.772
42766W        W11171   1.115  24.563   1.829
42767W        W11172  14.434   3.924   3.092
42768W        W11173   1.269   7.986   1.240
42769W        W11174  22.547  41.915  10.989
42770W        W11175  13.585  27.626   1.678
42771W        W11176  20.831  40.063  11.433
42772W        W11177   2.932  23.673   3.989
42773W        W11178  37.989  35.999  13.185
42774W        W11179  17.185   6.522  14.369
42775W        W11180  20.244  12.063   0.545
42776W        W11181  10.328  17.232   3.403
42777W        W11182  31.970   9.791  14.475
42778W        W11183  27.147  28.590   2.805
42779W        W11184  38.325  43.450  12.045
42780W        W11185  25.513  44.873   2.586
42781W        W11186  41.052  32.708   3.834
42782W        W11187  31.855  15.255  14.273
42783W        W11188  17.169  39.891  10.478
42784W        W11189   8.296  19.142   3.592
42785W        W11190   2.766  38.316   2.748
42786W        W11191  32.221   0.966  12.909
42787W        W11192  21.204   9.036   4.090
42788W        W11193  26.275  17.164   3.154
42789W        W11194  12.953  15.973   0.411
42790W        W11195  16.669  33.784  11.152
42791W        W11196  34.802  18.316  10.242
42792W        W11197  25.128  42.108  10.434
42793W        W11198  34.456  40.351  14.341
42794W        W11199  19.753   1.920   2.184
42795W        W11200  16.665  30.232   3.195
42796W        W11201  33.322  29.550   0.601
42797W        W11202  42.113  35.369  10.433
42798W        W11203  32.467  44.581   4.562
42799W        W11204   5.040  15.749  11.149
42800W        W11205  20.146  40.419  12.959
42801W        W11206   3.132  28.218  14.830
42802W        W11207  17.099   9.348   3.294
42803W        W11208  11.345  40.017   0.291
42804W        W11209  21.712   1.454  14.896
42805W        W11210  41.536  21.558  13.430
42806W        W11211  41.483   2.891  11.666
42807W        W11212  11.591   0.868   3.523
42808W        W11213  20.501  16.651  12.762
42809W        W11214  24.574  33.167  14.508
42810W        W11215   2.029  26.124  13.482
42811W        W11216  35.542  30.193   4.358
42812W        W11217  27.631   3.055  13.011
42813W        W11218  19.343  26.033   2.465
42814W        W11219  23.155  42.453   0.049
42815W        W11220  24.064  16.308   2.233
42816W        W11221   4.764  27.055  13.037
42817W        W11222   1.370  19.792  12.000
42818W        W11223  33.478  41.460   2.480
42819W        W11224   3.713  41.465   4.582
42820W        W11225  33.677  28.215  11.453
42821W        W11226  25.002   3.598   3.311
42822W        W11227  38.091  23.106   1.265
42823W        W11228  36.407   8.350   1.313
42824W        W11229  30.827   1.506   0.184
42825W        W11230   9.981   8.141  12.442
42826W        W11231  41.394  37.509  12.991
42827W        W11232  43.438  37.779  12.123
42828W        W11233   0.323  44.827   0.820
42829W        W11234  44.509  10.933   0.847
42830W        W11235  40.855   7.360   4.381
42831W        W11236   0.023  17.741   2.825
42832W        W11237   2.999   9.662   3.589
42833W        W11238  40.563  37.848  14.882
42834W        W11239  27.915   1.790   4.636
42835W        W11240  11.593  37.491  11.618
42836W        W11241   4.521  22.562   3.373
42837W        W11242  35.896  41.253  12.120
42838W        W11243  31.093  39.104  11.941
42839W        W11244  11.503   0.858   1.310
42840W        W11245  36.714  23.965  11.608
42841W        W11246  25.803   1.379  10.711
42842W        W11247  24.084  43.840   2.265
42843W        W11248  23.022  10.619  12.375
42844W        W11249  43.812  21.222   0.854
42845W        W11250  25.665  30.633  13.574
42846W        W11251  38.872  24.900   1.303
42847W        W11252   0.505  37.519   1.808
42848W        W11253  37.421  24.193   3.578
42849W        W11254  41.371  32.120  11.163
42850W        W11255  21.675  37.715   3.967
42851W        W11256  36.796   0.264   4.541
42852W        W11257  20.617  37.560   1.825
42853W        W11258  31.875  19.041  14.951
42854W        W11259  40.772  20.381  12.996
42855W        W11260  30.162  10.788   1.828
42856W        W11261   6.705   0.917  10.502
42857W        W11262  17.706   4.305   1.548
42858W        W11263  25.176  35.426  13.024
42859W        W11264  43.757  32.206   2.266
42860W        W11265  33.693  15.072  14.995
42861W        W11266  19.650  27.995  12.654
42862W        W11267  22.142  41.349   0.966
42863W        W11268  21.021  12.388   1.877
42864W        W11269  31.373   8.533   2.270
42865W        W11270  27.654   0.403   0.678
42866W        W11271   8.240  21.204  13.008
42867W        W11272  17.536  41.820  11.438
42868W        W11273  20.912  44.324   5.070
42869W        W11274  27.041  40.280   3.342
42870W        W11275   2.949  16.609  11.617
42871W        W11276  37.076  27.079  13.962
42872W        W11277  20.806  25.551   9.717
42873W        W11278  14.566  39.652   4.157
42874W        W11279  13.065  13.918   0.812
42875W        W11280  22.176  16.143   3.741
42876W        W11281  42.723  38.421  14.434
42877W        W11282  18.972   6.265   1.677
42878W        W11283   4.496  24.724  12.533
42879W        W11284  19.239  21.277  14.397
42880W        W11285  28.734  27.913  12.932
42881W        W11286   3.444  10.648  13.973
42882W        W11287  27.124  30.133   1.725
42883W        W11288   9.877  20.669  13.425
42884W        W11289  15.933  12.292   3.234
42885W        W11290   8.673  13.411  12.480
42886W        W11291   8.746  21.693   4.134
42887W        W11292  26.086   4.630   2.958
42888W        W11293  19.686  15.559   0.761
42889W        W11294  40.428  26.485   2.394
42890W        W11295  12.835   4.011   1.228
42891W        W11296  31.123  33.032   3.807
42892W        W11297  41.088  29.410  11.057
42893W        W11298   3.169   9.683  14.106
42894W        W11299  20.505  42.275  10.781
42895W        W11300  20.101  34.443   1.243
42896W        W11301   8.209  27.034  10.213
42897W        W11302  10.532   6.871   0.713
42898W        W11303  12.417  27.635   3.048
42899W        W11304  22.762  35.367  12.942
42900W        W11305  14.575   2.833  12.028
42901W        W11306   6.253  14.571   1.646
42902W        W11307  32.759  15.304   1.138
42903W        W11308  16.107  15.623   0.941
42904W        W11309  36.709   6.439   0.387
42905W        W11310  27.468  31.199   0.753
42906W        W11311  43.111  24.775   2.930
42907W        W11312  30.230  34.396  13.467
42908W        W11313  39.340  24.512  12.012
42909W        W11314  37.988  28.605  14.513
42910W        W11315  43.259  39.796   3.893
42911W        W11316  42.040  23.564  13.526
42912W        W11317  44.274   0.567   1.674
42913W        W11318   4.276  44.873   1.002
42914W        W11319  23.324  10.874  12.726
42915W        W11320   4.833  17.027  11.439
42916W        W11321  22.757  25.507   2.715
42917W        W11322  35.029  41.303   4.659
42918W        W11323  44.787  24.139   2.191
42919W        W11324  35.660  29.539  12.893
42920W        W11325  35.817  16.208   0.411
42921W        W11326  24.098  14.824   1.838
42922W        W11327  34.942  26.467   3.192
42923W        W11328  37.547  16.230  11.553
42924W        W11329   4.235   4.374   4.176
42925W        W11330  16.567  37.037  13.550
42926W        W11331  26.597  41.489   0.999
42927W        W11332  20.592   3.083  12.528
42928W        W11333  40.864  28.651   0.450
42929W        W11334  15.917  37.980   4.635
42930W        W11335  21.171  19.767  13.985
42931W        W11336  22.243  27.407  13.466
42932W        W11337  43.026   3.484   4.665
42933W        W11338  13.767  19.812   0.457
42934W        W11339  13.664  28.458  10.633
42935W        W11340  16.737  21.561   1.646
42936W        W11341  16.132  23.059   2.917
42937W        W11342  29.592  22.868   1.529
42938W        W11343  20.950  44.925  12.123
42939W        W11344  29.155   5.785  12.264
42940W        W11345  12.747  30.203   0.976
42941W        W11346  14.660   4.394  13.017
42942W        W11347   5.965  34.736   3.345
42943W        W11348  42.844  32.755   3.775
42944W        W11349  33.630  15.260  12.597
42945W        W11350   8.406  24.755   1.687
42946W        W11351  40.094   8.719  14.858
42947W        W11352  16.373   0.947   3.315
42948W        W11353  11.941  17.711   4.706
42949W        W11354  19.630   8.384  13.785
42950W        W11355  15.525   7.037   1.424
42951W        W11356  30.521   6.220   0.075
42952W        W11357  20.650  39.759   2.689
42953W        W11358  25.293  17.702  11.882
42954W        W11359  38.355   6.220   3.657
42955W        W11360  27.596  32.711  12.203
42956W        W11361  42.204  27.208   3.412
42957W        W11362   6.487   4.733  13.196
42958W        W11363  37.955  24.773   2.288
42959W        W11364  20.809  27.439   4.308
42960W        W11365  19.687  43.799   2.863
42961W        W11366  14.717  30.711  13.480
42962W        W11367  12.720   1.551  11.573
42963W        W11368  42.484  19.634   3.603
42964W        W11369   5.846  36.869  11.085
42965W        W11370  15.231  37.333   4.296
42966W        W11371  40.347  40.442  11.960
42967W        W11372  11.707   0.371  11.502
42968W        W11373   3.923  35.296   3.707
42969W        W11374  14.846  44.841  14.360
42970W        W11375  17.748  32.804  13.431
42971W        W11376  36.731   6.076   2.454
42972W        W11377   4.949  25.710   4.912
42973W        W11378  16.702   8.605  12.652
42974W        W11379   5.278  28.607  14.157
42975W        W11380   3.699  27.489  12.492
42976W        W11381  39.914  18.206   3.271
42977W        W11382  40.026  10.225   4.589
42978W        W11383   8.303  32.973   4.696
42979W        W11384  22.629   0.618   3.140
42980W        W11385  30.360  37.970  13.555
42981W        W11386  17.674  39.003   1.716
42982W        W11387  26.904   5.739   4.680
42983W        W11388   5.282  10.846  12.639
42984W        W11389   5.359  41.149   2.821
42985W        W11390   0.285   5.406   4.492
42986W        W11391  43.042  21.466  11.506
42987W        W11392   9.878  33.873   4.051
42988W        W11393  10.110  20.199  13.444
42989W        W11394  14.046  38.492  12.312
42990W        W11395  30.621  44.285  13.525
42991W        W11396  22.107  37.396   3.963
42992W        W11397  22.960  37.958  13.334
42993W        W11398  40.996   9.792  11.304
42994W        W11399  44.539  39.895  13.583
42995W        W11400   5.679  37.741   3.614
42996W        W11401   2.066  21.767   2.877
42997W        W11402   6.919  37.570  10.742
42998W        W11403  26.174  25.008   4.594
42999W        W11404  32.369  27.396   2.819
43000W        W11405   4.691  25.223   2.608
43001W        W11406  21.106  44.187  10.792
43002W        W11407   5.479  29.472  14.275
43003W        W11408   0.767  32.303   1.322
43004W        W11409  19.345  34.480  12.379
43005W        W11410  30.061   7.811   1.792
43006W        W11411  15.346  20.459  13.447
43007W        W11412  22.037  38.073   4.675
43008W        W11413  10.698  27.745  13.891
43009W        W11414  38.464  11.155  10.620
43010W        W11415  40.872  40.612   0.043
43011W        W11416  38.961  27.442  13.111
43012W        W11417  26.568   7.634   3.195
43013W        W11418  31.181   3.626   1.358
43014W        W11419  35.308  20.145  13.618
43015W        W11420  38.658  42.539   1.403
43016W        W11421  34.214   7.404   3.727
43017W        W11422  42.357  44.893   4.089
43018W        W11423   5.335  10.277  14.560
43019W        W11424  25.514  28.603   2.743
43020W        W11425  12.073  36.056   3.821
43021W        W11426  18.169   7.296   3.182
43022W        W11427  30.663  33.442  13.316
43023W        W11428  25.289  39.379  14.008
43024W        W11429  23.211  22.575   2.832
43025W        W11430  11.421  42.796  14.333
43026W        W11431   2.919  24.672   3.717
43027W        W11432  41.686  27.043   2.896
43028W        W11433  40.201  31.582  13.090
43029W        W11434  40.247  21.265  13.951
43030W        W11435  31.358  31.719   3.506
43031W        W11436  35.560  36.779   2.880
43032W        W11437  34.227  19.028  11.407
43033W        W11438  38.597   7.899   2.316
43034W        W11439   1.671  24.440   1.528
43035W        W11440   9.696  25.571   2.777
43036W        W11441  12.608  26.694  13.091
43037W        W11442  34.070  27.463   1.511
43038W        W11443   4.292  10.188   0.377
43039W        W11444  39.452  19.488  11.102
43040W        W11445  39.468  14.289   3.278
43041W        W11446   1.394  24.088  13.379
43042W        W11447  16.220   2.285  12.056
43043W        W11448  18.120  16.424  14.003
43044W        W11449  34.433  27.093  14.694
43045W        W11450   7.828   7.423   0.980
43046W        W11451  11.372  15.114  10.202
43047W        W11452  22.702   4.134   1.714
43048W        W11453  16.599  30.913   4.630
43049W        W11454   9.576   4.756   5.201
43050W        W11455  14.866   0.751  12.619
43051W        W11456  12.111  16.786  11.717
43052W        W11457   8.732  14.328  10.552
43053W        W11458  27.596  38.985   0.441
43054W        W11459  41.899   2.574  10.991
43055W        W11460   6.449   5.131   3.255
43056W        W11461  18.241   7.885   1.018
43057W        W11462  19.168  27.904  11.239
43058W        W11463  37.426  42.643  14.550
43059W        W11464  24.296  43.060   1.729
43060W        W11465  35.900  35.492   3.268
43061W        W11466   1.753  26.208   0.789
43062W        W11467  18.725  10.434  14.987
43063W        W11468  10.529  22.301   4.183
43064W        W11469  43.309  42.262  10.735
43065W        W11470  36.791   3.341   4.111
43066W        W11471  18.549  30.647   2.756
43067W        W11472  13.145  38.740  14.804
43068W        W11473   3.823  28.660   0.159
43069W        W11474   4.225  13.995  11.944
43070W        W11475  15.509  44.094  13.342
43071W        W11476   1.066  24.195  13.786
43072W        W11477   2.189  42.438  11.963
43073W        W11478  44.035   8.659  12.507
43074W        W11479  13.859  24.093  14.644
43075W        W11480  40.698  38.731  11.161
43076W        W11481   8.552  44.423  12.800
43077W        W11482  30.467   9.238  14.771
43078W        W11483  27.612  38.784   3.796
43079W        W11484  32.411  17.163   4.081
43080W        W11485  44.850  23.919  10.881
43081W        W11486  33.065  12.207   3.635
43082W        W11487  22.121  21.999   4.301
43083W        W11488  41.986   1.112  14.645
43084W        W11489  23.436   8.929   4.258
43085W        W11490  36.854   3.697  10.929
43086W        W11491  26.023  33.969  14.948
43087W        W11492  35.294  17.149  13.344
43088W        W11493  35.416  26.604   2.037
43089W        W11494  27.785  38.990   4.236
43090W        W11495  31.490  32.469   0.807
43091W        W11496  24.601  11.410   0.069
43092W        W11497  16.378  26.175  14.078
43093W        W11498  42.258  38.972   3.465
43094W        W11499   1.870  21.435   3.299
43095W        W11500  36.606   6.796  11.847
43096W        W11501   5.428  19.281  11.169
43097W        W11502  33.379   7.377   3.155
43098W        W11503  18.341   7.669   1.978
43099W        W11504  12.246  33.938  14.737
43100W        W11505  30.271  34.798   2.733
43101W        W11506  35.933  29.476  14.411
43102W        W11507  36.856  14.104   4.682
43103W        W11508  14.769  17.340   1.333
43104W        W11509  42.476  32.021   3.920
43105W        W11510   5.191  32.633  12.979
43106W        W11511   7.540  39.533   2.575
43107W        W11512   2.530  23.514   4.269
43108W        W11513   9.715  30.529  13.619
43109W        W11514  26.048  36.103  13.596
43110W        W11515  41.859   3.381   1.806
43111W        W11516   2.805  19.070  14.539
43112W        W11517  41.842  17.128  13.485
43113W        W11518  38.588  37.274   1.722
43114W        W11519  38.080  15.413   0.241
43115W        W11520  39.778   0.257   3.239
43116W        W11521  38.861  37.937  11.564
43117W        W11522  32.892   0.450   4.211
43118W        W11523  29.896   7.442   0.969
43119W        W11524  44.431  25.991  13.314
43120W        W11525  38.468  15.191  10.486
43121W        W11526  31.089  15.956  12.682
43122W        W11527  20.983  32.510  10.669
43123W        W11528  14.743   3.828   1.002
43124W        W11529  31.976   9.822   2.724
43125W        W11530  10.277  16.682  12.098
43126W        W11531  26.611  34.967   3.495
43127W        W11532  41.187  35.849  12.820
43128W        W11533   4.668  28.062   1.764
43129W        W11534  44.023   3.691  11.234
43130W        W11535  28.562  42.212   1.281
43131W        W11536  43.754  10.572   4.222
43132W        W11537  26.249   3.520  14.743
43133W        W11538   5.911  17.236  10.733
43134W        W11539  13.171   9.467  11.582
43135W        W11540  26.712   8.070  13.928
43136W        W11541  13.114  25.297   4.796
43137W        W11542   6.700  22.665   1.944
43138W        W11543   4.276  32.389   2.678
43139W        W11544  26.556   9.961   4.209
43140W        W11545  34.645  31.941  11.043
43141W        W11546  38.471   3.657  11.315
43142W        W11547  15.978  28.070  11.248
43143W        W11548  30.863   9.009   3.208
43144W        W11549  23.560  43.535  14.189
43145W        W11550  34.381  34.895  12.011
43146W        W11551  11.255   1.360  10.960
43147W        W11552  31.919  26.171   2.297
43148W        W11553   6.424  19.546  12.543
43149W        W11554   3.761  36.607   3.117
43150W        W11555  37.379  41.821   4.555
43151W        W11556  23.029   3.929   0.749
43152W        W11557  35.884  31.425   3.547
43153W        W11558  19.217   1.780   2.185
43154W        W11559  41.970  30.699   2.749
43155W        W11560  33.251  15.586  12.391
43156W        W11561   6.026  19.616  14.206
43157W        W11562  37.383  25.366  13.070
43158W        W11563  16.723  26.527  10.294
43159W        W11564  10.775   6.933  12.944
43160W        W11565  19.174  40.301   0.402
43161W        W11566  30.046  24.536   4.848
43162W        W11567  32.527  16.358   4.141
43163W        W11568   0.780  38.071  10.707
43164W        W11569  30.578  25.468  13.899
43165W        W11570  27.310  12.562  14.423
43166W        W11571  34.033  29.296   3.806
43167W        W11572   4.885  19.230   4.598
43168W        W11573   3.797  24.150  11.399
43169W        W11574  11.923  10.924   1.334
43170W        W11575   5.179  40.448  13.646
43171W        W11576  37.583  16.786  11.972
43172W        W11577  24.763  40.396   3.299
43173W        W11578  40.064   8.648  10.745
43174W        W11579   5.129   7.729   4.667
43175W        W11580  26.008   9.641   0.903
43176W        W11581  25.145  23.302  11.363
43177W        W11582  24.506  29.069  11.390
43178W        W11583  39.403  28.635  13.986
43179W        W11584  18.473   2.787   4.763
43180W        W11585  14.059  22.296   2.671
43181W        W11586  30.994  21.010  14.757
43182W        W11587  28.586  43.227  10.198
43183W        W11588  17.270  27.997  12.933
43184W        W11589   8.789  20.904   1.783
43185W        W11590   0.271   8.584   2.262
43186W        W11591  38.810  27.950  10.928
43187W        W11592  27.683  37.059  11.677
43188W        W11593  15.392  36.015   3.500
43189W        W11594  12.914  39.843  13.609
43190W        W11595   8.422   4.888   4.148
43191W        W11596  23.496  32.273  13.901
43192W        W11597  30.274  24.145  10.735
43193W        W11598   5.575  36.993   1.166
43194W        W11599  11.562  38.460  11.012
43195W        W11600  44.271  30.978  13.015
43196W        W11601   5.797  43.865  12.157
43197W        W11602  28.189  43.390  11.835
43198W        W11603   4.184  42.219   0.812
43199W        W11604  24.838  33.067  12.266
43200W        W11605  18.942   4.135   2.215
43201W        W11606  35.593  33.561  14.986
43202W        W11607  44.229  18.396  13.475
43203W        W11608  38.871  28.887  11.895
43204W        W11609  16.263  37.657  11.094
43205W        W11610  23.479  13.875   3.811
43206W        W11611  28.543   9.381   4.784
43207W        W11612  12.431  20.681  14.293
43208W        W11613  40.506  31.174  12.448
43209W        W11614  22.070   6.860   0.230
43210W        W11615  38.335  27.692   1.700
43211W        W11616   1.986  30.012   4.158
43212W        W11617  10.267  20.075   2.413
43213W        W11618  28.622  13.622   3.408
43214W        W11619  28.872   6.768  12.358
43215W        W11620  28.904  33.583  11.436
43216W        W11621  34.509  11.832  12.878
43217W        W11622  30.503  39.390   3.703
43218W        W11623  39.293   4.297   3.608
43219W        W11624   0.258  26.500  10.620
43220W        W11625  30.027  18.318   1.394
43221W        W11626   0.418   2.206  13.601
43222W        W11627   7.992   1.196   3.095
43223W        W11628  15.668  32.932  11.885
43224W        W11629   6.311  39.828   1.304
43225W        W11630  30.020  25.971  12.468
43226W        W11631   4.345  30.472   4.947
43227W        W11632   0.403  34.598   1.226
43228W        W11633  14.716  29.497   4.702
43229W        W11634  16.780  13.397  11.756
43230W        W11635  32.105   5.788  14.210
43231W        W11636   7.863   3.508   2.502
43232W        W11637  42.688  13.110  11.890
43233W        W11638  15.381  20.779   3.195
43234W        W11639  32.462   5.468  12.200
43235W        W11640  14.419  16.240  12.070
43236W        W11641  40.234   9.281   1.504
43237W        W11642  10.270  32.117   2.857
43238W        W11643  15.630  16.858   4.758
43239W        W11644   2.799  37.426  13.854
43240W        W11645   2.952   7.303  13.829
43241W        W11646  11.320  42.548  12.746
43242W        W11647  38.972  16.837  13.337
43243W        W11648   0.004  39.452  14.140
43244W        W11649  42.379  39.886   3.323
43245W        W11650  25.457  40.377   4.061
43246W        W11651  36.117  24.753   0.510
43247W        W11652  36.567  31.978   3.278
43248W        W11653  17.767  18.221   4.090
43249W        W11654  13.736   7.414  11.477
43250W        W11655  34.486  27.099   4.401
43251W        W11656  14.816  35.118  13.053
43252W        W11657  10.785   3.850  10.263
43253W        W11658   9.408  30.031   3.222
43254W        W11659   5.209  18.574   0.998
43255W        W11660  30.234  23.047   1.784
43256W        W11661  43.920  36.120   2.184
43257W        W11662   6.357  17.529  10.718
43258W        W11663  16.543  17.910   2.188
43259W        W11664  16.858  38.101   3.169
43260W        W11665  39.811  12.192   3.108
43261W        W11666  27.447  11.842  10.978
43262W        W11667  40.415  11.036  10.644
43263W        W11668  17.127  22.899   3.646
43264W        W11669   3.001   9.150  11.070
43265W        W11670   6.825  24.470   2.235
43266W        W11671  18.499  24.088   3.931
43267W        W11672   5.172  35.649   0.947
43268W        W11673   3.592   8.509  10.647
43269W        W11674   0.859   0.518  14.786
43270W        W11675  28.200  39.311   4.236
43271W        W11676  38.794   8.559   0.188
43272W        W11677  40.653   3.763  12.960
43273W        W11678   2.838  11.911  11.972
43274W        W11679  34.987  37.373   3.338
43275W        W11680  29.543  13.748   0.277
43276W        W11681  16.150  32.064  10.458
43277W        W11682  22.460  23.423  10.144
43278W        W11683  43.470  21.385   0.276
43279W        W11684  27.919  23.692   4.713
43280W        W11685  26.524   0.033   3.573
43281W        W11686   4.974  34.132   4.273
43282W        W11687  39.852  12.912  13.422
43283W        W11688  43.093  43.696  13.841
43284W        W11689  19.534   8.642   0.094
43285W        W11690  23.035  43.790   1.205
43286W        W11691   1.431  34.332  13.473
43287W        W11692  37.003  32.571  14.759
43288W        W11693  30.701  17.084  14.644
43289W        W11694  43.611  40.768   4.253
43290W        W11695  23.569  43.284  14.972
43291W        W11696  15.739  35.122  10.299
43292W        W11697   0.962  25.781  13.401
43293W        W11698  23.297  38.344  13.453
43294W        W11699   9.192   0.846   5.000
43295W        W11700  40.597   5.921  12.682
43296W        W11701  44.263  20.549  11.175
43297W        W11702   7.850  37.502   0.886
43298W        W11703   5.380   3.587  11.956
43299W        W11704  23.473  42.497   2.333
43300W        W11705   5.677  22.085  14.058
43301W        W11706   4.889  15.861   1.648
43302W        W11707  27.654  11.201   1.048
43303W        W11708  22.591  31.072  12.444
43304W        W11709  36.886  20.804  12.175
43305W        W11710  43.677  22.685  14.542
43306W        W11711  31.996  41.213   2.936
43307W        W11712  22.530  18.350  11.906
43308W        W11713  38.945  40.035   0.189
43309W        W11714  16.735  42.420   4.523
43310W        W11715  44.994  37.390   4.680
43311W        W11716  26.002  40.304   0.786
43312W        W11717  40.001  35.055  11.424
43313W        W11718  22.207  23.124  13.966
43314W        W11719  36.913  31.418   0.045
43315W        W11720  15.585  33.858   3.489
43316W        W11721  22.992  10.184  14.473
43317W        W11722  42.543  13.286   0.342
43318W        W11723  25.241  16.061   3.393
43319W        W11724  19.618  39.623   0.848
43320W        W11725  21.709  16.563  13.962
43321W        W11726  27.249   6.127   1.238
43322W        W11727  24.714  24.243  12.983
43323W        W11728  33.097  22.245   0.961
43324W        W11729  11.395  25.741   0.379
43325W        W11730  31.977  29.667  13.865
43326W        W11731  38.974   3.842  11.289
43327W        W11732   1.408  42.483   3.359
43328W        W11733  37.285  44.411   4.510
43329W        W11734  17.375  17.771   2.935
43330W        W11735  42.322  42.378   3.660
43331W        W11736  31.996   2.023   3.763
43332W        W11737  13.118  19.031  13.416
43333W        W11738   2.999   3.657  10.837
43334W        W11739  32.070  20.565  13.020
43335W        W11740  34.973  38.606  14.583
43336W        W11741   7.448  30.801   1.767
43337W        W11742  32.871  44.097   2.934
43338W        W11743  10.256  35.059   4.471
43339W        W11744  28.726  37.632   0.921
43340W        W11745   1.790  41.027   4.361
43341W        W11746  43.136  36.018  11.112
43342W        W11747  12.627  10.284   0.883
43343W        W11748  16.789  19.974  12.170
43344W        W11749   3.168  38.986   3.415
43345W        W11750  36.470  43.774   0.807
43346W        W11751  22.951   8.320  14.260
43347W        W11752  31.548  27.861  14.032
43348W        W11753  21.973   0.708  13.109
43349W        W11754  20.767  41.750  10.781
43350W        W11755  30.340   2.444   0.463
43351W        W11756  33.830  31.389  14.836
43352W        W11757  27.287   4.259   1.873
43353W        W11758  20.112  43.498  11.193
43354W        W11759  37.048  22.034  13.478
43355W        W11760  24.508  41.897  10.845
43356W        W11761  21.416  14.828   3.211
43357W        W11762   0.374  21.258   1.425
43358W        W11763  23.747  33.599  13.864
43359W        W11764  41.499   3.931   4.037
43360W        W11765  40.488  29.443   0.802
43361W        W11766  11.219  33.903  12.463
43362W        W11767  34.104  32.582   3.752
43363W        W11768   3.284  33.020   2.877
43364W        W11769  33.421  11.819   3.563
43365W        W11770   1.519  27.398   0.396
43366W        W11771  11.197   3.319  12.575
43367W        W11772   4.862  34.214  14.945
43368W        W11773  33.782  13.266  14.986
43369W        W11774   7.349  31.952   0.809
43370W        W11775  33.035   4.906   1.475
43371W        W11776  36.913  20.962  14.370
43372W        W11777   5.452  31.490   4.812
43373W        W11778  44.408   2.763   2.460
43374W        W11779  18.844  40.682   0.509
43375W        W11780  16.822  23.060  11.622
43376W        W11781   5.567  13.234  10.650
43377W        W11782  31.041   9.232  11.738
43378W        W11783  35.033   1.662   4.997
43379W        W11784   0.390  17.097  12.181
43380W        W11785  16.719  11.684   0.272
43381W        W11786  15.836  11.353   4.208
43382W        W11787  10.143   1.316  10.920
43383W        W11788  15.213   7.644   2.807
43384W        W11789  44.559  37.768   2.705
43385W        W11790  32.793  41.520  12.702
43386W        W11791  22.151  36.621  10.593
43387W        W11792  19.963  18.071  11.214
43388W        W11793  20.656  19.646   3.653
43389W        W11794   3.752  33.344   2.188
43390W        W11795   1.961  23.619   3.438
43391W        W11796  27.031   4.392   3.198
43392W        W11797  44.960   8.887  11.574
43393W        W11798   3.625   2.606  11.548
43394W        W11799  25.267  33.326   1.216
43395W        W11800  25.600  14.579  14.923
43396W        W11801   7.107  22.559  14.290
43397W        W11802  17.574  12.434  13.379
43398W        W11803  23.924  36.958  11.981
43399W        W11804  22.986  39.049  10.917
43400W        W11805   6.685  31.921  14.555
43401W        W11806  26.224  33.646  11.501
43402W        W11807  27.571  30.702  14.035
43403W        W11808  30.042  25.035   5.009
43404W        W11809  22.419  22.316  14.732
43405W        W11810  24.477   8.576   2.807
43406W        W11811  44.101  17.853  11.505
43407W        W11812  17.705  19.993  14.327
43408W        W11813  10.615  38.585  14.431
43409W        W11814  26.541  29.408   4.967
43410W        W11815  15.138  34.636   3.759
43411W        W11816   0.665   7.909  14.556
43412W        W11817  42.428  20.304   1.326
43413W        W11818  22.015  35.643   4.610
43414W        W11819  25.923  22.602   4.592
43415W        W11820  37.354  26.326  11.579
43416W        W11821  16.741  43.992   4.179
43417W        W11822  32.447  44.331  13.898
43418W        W11823  14.656   7.486  12.451
43419W        W11824  26.379  36.575  13.978
43420W        W11825  19.136   5.706  13.339
43421W        W11826  20.731  10.570  14.970
43422W        W11827   3.770  39.092   0.687
43423W        W11828  19.417   2.509  13.524
43424W        W11829  21.322   0.340   0.708
43425W        W11830   7.252  10.308  14.285
43426W        W11831  13.569  37.393   1.808
43427W        W11832  26.561   4.615  10.097
43428W        W11833  44.881   3.613  12.543
43429W        W11834  42.769  16.672  13.999
43430W        W11835  12.391  43.280   4.688
43431W        W11836   1.703  19.635   2.194
43432W        W11837  24.565  39.613   2.545
43433W        W11838  14.904  35.905  11.636
43434W        W11839  15.560   3.774  14.923
43435W        W11840   3.469  16.871  12.456
43436W        W11841  23.477  17.321   4.520
43437W        W11842   6.833   3.269   4.496
43438W        W11843  40.635  12.216   1.357
43439W        W11844  37.511  35.570  11.079
43440W        W11845  39.617  18.039   1.799
43441W        W11846  31.975  34.967   4.578
43442W        W11847  20.158   3.995   4.594
43443W        W11848  13.699  12.108  12.571
43444W        W11849  21.168  31.972   2.012
43445W        W11850  41.966   6.341  12.686
43446W        W11851   5.386  26.450  10.796
43447W        W11852  12.189  19.470  12.847
43448W        W11853  23.501   1.405  11.795
43449W        W11854  33.919  32.674   0.334
43450W        W11855  12.726   9.159  11.654
43451W        W11856  38.066  30.424   3.638
43452W        W11857  12.900   3.801  13.772
43453W        W11858  13.727  35.433   0.756
43454W        W11859  40.505   6.844  14.759
43455W        W11860  27.469  30.558   4.060
43456W        W11861  10.355   2.349  14.365
43457W        W11862   4.201  33.038   1.859
43458W        W11863   0.484  26.039  10.663
43459W        W11864  10.749  13.683  14.745
43460W        W11865  34.480   6.480   0.722
43461W        W11866  30.391  44.033   1.182
43462W        W11867  23.932  15.489  12.674
43463W        W11868  22.969  28.073  14.672
43464W        W11869  32.553  29.340   2.544
43465W        W11870   5.750  20.506  13.740
43466W        W11871   9.257  27.217   1.441
43467W        W11872  18.107  16.129  10.993
43468W        W11873  13.326   6.207  13.206
43469W        W11874   5.837   9.352  12.327
43470W        W11875  26.920  24.070   0.863
43471W        W11876  33.380  41.507   1.384
43472W        W11877   9.011  11.521   3.276
43473W        W11878  39.072  28.202  13.934
43474W        W11879  33.371  38.094  14.119
43475W        W11880   3.809  29.893  10.560
43476W        W11881   1.946   1.683  12.133
43477W        W11882  13.299  21.262  13.383
43478W        W11883  29.621  12.985  11.605
43479W        W11884  41.376   6.556   0.298
43480W        W11885  34.693  10.173   0.207
43481W        W11886  38.807  32.906   3.618
43482W        W11887  14.747  15.684  11.491
43483W        W11888  37.349  43.444  12.011
43484W        W11889   8.624  20.592   3.288
43485W        W11890  31.902  23.682   1.425
43486W        W11891  34.796  41.377  13.029
43487W        W11892   4.975  20.340  12.563
43488W        W11893   0.573  30.959   1.410
43489W        W11894  28.567  30.185   1.433
43490W        W11895  36.101   3.904   1.638
43491W        W11896  37.523  37.572   1.763
43492W        W11897  11.775  13.800  10.864
43493W        W11898  13.117  28.459   4.719
43494W        W11899  24.574  44.487  12.924
43495W        W11900  36.022   0.323   2.779
43496W        W11901  41.928  37.967  10.760
43497W        W11902  30.641  25.640  14.487
43498W        W11903  31.608   0.492   0.878
43499W        W11904   0.465  19.002  11.440
43500W        W11905  24.076  31.346   4.529
43501W        W11906  29.868   7.717  11.944
43502W        W11907  38.325   0.127   3.743
43503W        W11908  13.266  17.307  13.359
43504W        W11909   1.364   7.260  13.904
43505W        W11910   1.886  26.005   1.240
43506W        W11911  23.087  25.505   2.133
43507W        W11912  25.175  37.034  12.242
43508W        W11913   0.477  39.427  13.945
43509W        W11914  40.848  27.530  10.533
43510W        W11915   2.000  24.913   2.716
43511W        W11916  25.605  23.414   3.286
43512W        W11917  40.498   1.907   3.570
43513W        W11918  37.400  18.502  12.928
43514W        W11919  26.619  19.363   3.323
43515W        W11920  36.997   0.593  13.328
43516W        W11921  16.644  33.311  14.114
43517W        W11922  27.744  12.894   0.891
43518W        W11923  12.223  42.365   1.304
43519W        W11924  41.648   3.787   9.765
43520W        W11925   8.868  34.347   2.303
43521W        W11926  37.324  12.303  14.237
43522W        W11927  44.682  31.745  14.921
43523W        W11928  36.697  43.273   1.787
43524W        W11929  31.266   3.355   3.412
43525W        W11930  25.594  34.557  14.893
43526W        W11931  28.590   7.183   1.318
43527W        W11932   7.479   7.342   3.310
43528W        W11933  14.821  37.020   1.513
43529W        W11934  40.836  28.679   2.699
43530W        W11935   9.244  19.141   3.825
43531W        W11936  16.931  44.273  11.296
43532W        W11937  44.208  34.877  10.938
43533W        W11938  36.342  18.450   0.852
43534W        W11939  20.702   6.762  11.559
43535W        W11940  12.295  36.592  14.415
43536W        W11941  11.925  32.910  10.784
43537W        W11942  26.080   7.325   4.847
43538W        W11943  21.322   5.344   5.058
43539W        W11944  23.134  17.741  13.212
43540W        W11945   5.397  29.893   3.406
43541W        W11946  20.813  30.151  14.323
43542W        W11947  37.209   2.897   0.982
43543W        W11948  41.339  12.705  13.073
43544W        W11949  12.920  32.859   0.817
43545W        W11950  22.046  21.581  13.817
43546W        W11951  23.052   8.272   0.909
43547W        W11952  35.577  38.903   4.649
43548W        W11953  44.062   8.417  13.109
43549W        W11954   1.646  12.770  14.793
43550W        W11955   5.663  14.770   2.856
43551W        W11956   9.933   0.497  13.062
43552W        W11957  33.133  23.335   2.187
43553W        W11958  28.369  21.031   4.149
43554W        W11959  16.019   4.395   0.943
43555W        W11960  37.405   4.379  11.953
43556W        W11961   5.472   5.833  13.461
43557W        W11962  23.736   4.823  12.483
43558W        W11963  43.883  41.405   1.155
43559W        W11964  25.662  21.080  13.308
43560W        W11965  29.517   3.756   4.159
43561W        W11966  26.163  35.416   1.291
43562W        W11967   4.875  40.541  12.449
43563W        W11968  33.083  24.205  13.989
43564W        W11969  26.712  14.039   3.283
43565W        W11970  27.943   3.708   3.793
43566W        W11971  15.156  43.758  11.092
43567W        W11972  16.340  13.114  11.681
43568W        W11973  37.216  30.005  12.502
43569W        W11974  33.144  33.784  12.940
43570W        W11975  33.217  17.326   3.634
43571W        W11976  10.155  43.312   2.160
43572W        W11977  21.566   7.933  14.260
43573W        W11978  39.485  12.278   1.267
43574W        W11979  11.185   6.383   1.806
43575W        W11980  25.057  29.424   4.204
43576W        W11981  10.615  27.624   2.360
43577W        W11982  33.595  17.648   0.522
43578W        W11983  33.091  11.509   0.792
43579W        W11984  34.483  34.553  12.391
43580W        W11985  25.190  35.946  10.867
43581W        W11986  35.086  30.194   4.657
43582W        W11987  22.370  40.051  13.500
43583W        W11988   7.918  27.663  11.528
43584W        W11989  42.874  20.026   1.308
43585W        W11990  16.145  42.373  14.805
43586W        W11991  36.582  25.248  11.083
43587W        W11992  20.624  44.831   1.202
43588W        W11993  34.089  31.570  11.996
43589W        W11994   8.898  31.928  10.759
43590W        W11995  38.803  15.559  12.561
43591W        W11996  20.629   2.355   4.242
43592W        W11997  35.034  33.740  14.776
43593W        W11998   9.586  25.240  14.390
43594W        W11999  24.861  21.680  11.061
43595W        W12000  27.017  20.228  10.893
43596W        W12001  32.851  35.399  13.505
43597W        W12002  18.148  41.442  11.253
43598W        W12003  30.630   9.475   3.232
43599W        W12004  22.500  31.176   2.696
43600W        W12005  42.267  29.993  13.054
43601W        W12006   2.442   9.822   2.593
43602W        W12007   2.347  13.585  12.965
43603W        W12008   3.767  18.424   4.430
43604W        W12009  39.100  37.934   0.913
43605W        W12010  37.276   7.390  10.756
43606W        W12011  23.694  37.891  11.897
43607W        W12012  12.281  42.264  13.260
43608W        W12013  23.779  24.554   2.648
43609W        W12014  14.183   4.727   3.625
43610W        W12015  44.998  30.352   4.128
43611W        W12016  27.572  34.266  12.137
43612W        W12017   5.355  26.473   1.439
43613W        W12018   4.363  39.233   3.796
43614W        W12019  16.563   6.674  14.245
43615W        W12020  26.910  10.318  10.121
43616W        W12021  11.154  18.628   1.768
43617W        W12022   4.430   3.661  12.611
43618W        W12023  20.773  10.939  12.471
43619W        W12024   5.857   6.855  10.831
43620W        W12025  11.408  42.997   2.241
43621W        W12026  40.328   6.763  11.793
43622W        W12027  26.758  28.633   1.676
43623W        W12028   0.299   4.611  14.427
43624W        W12029  21.741  41.602   0.761
43625W        W12030  41.536  17.809   2.593
43626W        W12031  12.027  41.892   1.222
43627W        W12032  43.128  23.456  12.802
43628W        W12033  40.749  41.777  12.131
43629W        W12034  38.273  10.124   4.586
43630W        W12035  10.468  12.105   2.147
43631W        W12036  28.608  32.821   4.361
43632W        W12037   7.404  29.090  12.026
43633W        W12038  13.153  21.545  12.404
43634W        W12039   3.840  28.373  14.312
43635W        W12040   4.233   1.628   2.179
43636W        W12041  44.551   0.873  11.600
43637W        W12042  20.504  21.165   1.798
43638W        W12043  11.217   1.460  11.967
43639W        W12044  15.979  42.936   0.585
43640W        W12045  44.478  34.384  11.143
43641W        W12046  33.467  12.471  11.216
43642W        W12047  11.871  21.132  13.798
43643W        W12048  18.676   8.139   0.942
43644W        W12049  25.840   8.058   2.694
43645W        W12050  37.951   1.786  10.925
43646W        W12051  35.544  27.463  14.879
43647W        W12052  24.962  18.071  11.738
43648W        W12053  37.828   8.053   3.056
43649W        W12054  14.233   8.689  14.774
43650W        W12055  28.160  27.078  13.972
43651W        W12056  23.414   8.235   0.283
43652W        W12057  11.666  20.149  10.221
43653W        W12058   6.868  42.031   3.654
43654W        W12059  38.008  27.288  13.932
43655W        W12060  41.824  29.175  14.732
43656W        W12061  38.903  21.781   3.706
43657W        W12062  21.502  22.466  14.846
43658W        W12063  27.406  35.125  14.924
43659W        W12064  27.921  30.082   1.444
43660W        W12065   3.357  38.535   1.692
43661W        W12066  21.252   0.566  10.115
43662W        W12067   2.223  26.062   4.734
43663W        W12068   6.260  34.468   3.745
43664W        W12069  40.711  13.007  13.758
43665W        W12070  27.185  14.273  10.730
43666W        W12071  12.668  26.153  13.339
43667W        W12072  37.991  23.785   4.906
43668W        W12073  26.920  35.074  11.910
43669W        W12074  26.003  43.666  12.034
43670W        W12075  23.591  35.727  12.545
43671W        W12076  25.452   0.508  14.541
43672W        W12077  19.225  32.192   0.890
43673W        W12078  17.176   5.478  11.184
43674W        W12079  30.965  22.091   3.820
43675W        W12080  12.037  27.278  11.289
43676W        W12081  14.180   7.245   3.613
43677W        W12082  35.093   2.014   0.476
43678W        W12083   9.352  24.435  12.006
43679W        W12084   4.021  32.613   3.147
43680W        W12085  10.251  34.022   4.358
43681W        W12086   4.424  41.784   2.431
43682W        W12087  37.769  23.580   2.940
43683W        W12088  32.729  22.884  11.379
43684W        W12089  25.188  12.489   0.433
43685W        W12090  42.779  33.029  14.791
43686W        W12091  31.017  37.802  12.526
43687W        W12092   1.932  36.620  12.092
43688W        W12093   0.381  29.211   0.909
43689W        W12094  33.211   9.806  14.999
43690W        W12095   5.513  14.950   0.943
43691W        W12096  38.715  36.979  14.959
43692W        W12097  31.884  10.386   0.947
43693W        W12098  15.613  21.270  13.343
43694W        W12099  18.553  26.723  14.033
43695W        W12100  27.507   8.436  10.664
43696W        W12101  26.629   7.091  10.344
43697W        W12102  20.014   2.671   2.835
43698W        W12103  19.139  32.994  14.067
43699W        W12104  13.126  17.516  11.994
43700W        W12105   5.275   3.398  12.967
43701W        W12106  27.313  12.742   1.319
43702W        W12107  44.026  12.305  14.398
43703W        W12108  29.478  22.985  11.596
43704W        W12109  30.351  36.484   0.808
43705W        W12110  24.321  32.200   3.146
43706W        W12111   7.186  38.889  14.381
43707W        W12112  36.509   6.744   2.802
43708W        W12113   6.161  36.542   3.745
43709W        W12114  29.397   2.435  13.453
43710W        W12115  38.513   2.387  10.710
43711W        W12116  24.081   6.320   2.760
43712W        W12117  40.594  21.165  12.185
43713W        W12118  12.975   8.079  13.933
43714W        W12119   3.774  28.605   0.664
43715W        W12120  25.404   3.305   2.154
43716W        W12121  44.428   3.385  11.237
43717W        W12122  30.193   9.219   3.153
43718W        W12123   0.970  36.893  13.237
43719W        W12124  31.708  18.575   1.010
43720W        W12125  33.430  31.558  11.632
43721W        W12126  14.732   4.213   1.483
43722W        W12127  19.308   2.869  11.594
43723W        W12128   1.506  30.920  13.924
43724W        W12129  43.669  34.150   0.403
43725W        W12130  15.827  38.402   1.289
43726W        W12131   6.523  41.808  11.542
43727W        W12132  17.880  44.437   0.454
43728W        W12133  37.809   5.752   0.268
43729W        W12134  32.700  17.290   3.670
43730W        W12135  30.900  13.571   1.696
43731W        W12136  34.681  27.117   4.903
43732W        W12137  42.242  16.769   2.775
43733W        W12138  18.119  44.003  10.421
43734W        W12139   7.661  12.680   4.920
43735W        W12140  36.321  19.034   2.235
43736W        W12141  38.673  44.893  14.541
43737W        W12142  39.466   3.879   3.857
43738W        W12143  31.652  10.772   1.221
43739W        W12144   3.322  12.283  11.040
43740W        W12145  24.177  24.975  12.181
43741W        W12146  26.397  29.523   2.250
43742W        W12147  12.948  31.375   2.151
43743W        W12148  23.507  21.829  13.816
43744W        W12149  24.480  11.265   1.842
43745W        W12150  44.492  13.700  10.672
43746W        W12151  26.133  26.076  11.018
43747W        W12152  44.551  42.226  11.744
43748W        W12153   4.598  19.292   1.254
43749W        W12154  44.729  12.915  12.037
43750W        W12155   8.106  30.446   2.765
43751W        W12156   5.016  18.589   1.556
43752W        W12157  40.362  25.159   4.642
43753W        W12158  22.747   5.617  14.987
43754W        W12159  32.718   8.150   3.118
43755W        W12160  44.409   6.291  14.556
43756W        W12161  17.348  33.309   3.661
43757W        W12162   3.923  11.199  10.766
43758W        W12163   9.927  38.456   3.649
43759W        W12164  32.967  43.360  14.409
43760W        W12165  36.090   3.004  11.625
43761W        W12166  31.553  17.999   2.214
43762W        W12167  16.300  30.811  11.881
43763W        W12168  30.970   6.641   0.878
43764W        W12169  40.294  18.851   3.769
43765W        W12170  13.539   6.248  12.232
43766W        W12171  13.085  39.994   0.407
43767W        W12172   2.388   3.366   0.551
43768W        W12173   5.168  35.137   3.758
43769W        W12174   7.746  33.271   3.668
43770W        W12175  17.467   3.350   4.653
43771W        W12176  41.072   3.427  14.988
43772W        W12177  42.440  41.779   4.973
43773W        W12178  11.590  29.693  13.010
43774W        W12179  22.559   6.450  11.651
43775W        W12180   8.649  19.109  12.401
43776W        W12181   9.218  39.473  14.836
43777W        W12182   9.107   6.848   2.770
43778W        W12183  30.514   4.910   1.336
43779W        W12184  37.177   1.698  13.018
43780W        W12185  15.074   1.696  12.618
43781W        W12186  10.327  34.124  12.284
43782W        W12187  15.687  34.013   5.324
43783W        W12188  35.871   5.614   3.855
43784W        W12189  42.945  14.218   0.478
43785W        W12190  11.238  16.758  11.691
43786W        W12191  16.753  22.486  12.058
43787W        W12192   5.168  38.067   2.814
43788W        W12193  15.630  22.701  11.025
43789W        W12194   3.111   8.530   4.243
43790W        W12195  21.561  23.290   2.683
43791W        W12196  13.462   8.775   1.624
43792W        W12197  21.424  10.637  11.150
43793W        W12198  19.134  26.022   5.132
43794W        W12199   0.904   7.853   3.333
43795W        W12200  34.654   5.526   0.029
43796W        W12201  38.093  44.550   1.584
43797W        W12202  32.253  11.309  14.014
43798W        W12203  31.854  40.586   2.288
43799W        W12204  18.220  16.021   1.147
43800W        W12205  20.162  28.085  13.010
43801W        W12206  20.158  24.174   0.053
43802W        W12207   1.918  15.841   2.280
43803W        W12208  34.648  24.570   0.390
43804W        W12209  29.347  34.005  14.872
43805W        W12210  41.283  34.539   4.649
43806W        W12211  38.860  27.549   3.230
43807W        W12212   4.581  40.835   0.444
43808W        W12213  21.182   0.837  12.063
43809W        W12214   9.723   8.192  14.307
43810W        W12215  17.093   5.974  11.288
43811W        W12216  35.095  23.116   4.368
43812W        W12217  27.403   9.309  10.587
43813W        W12218  28.236  18.598  10.004
43814W        W12219  43.543  33.622   1.224
43815W        W12220  24.346  18.850  14.256
43816W        W12221  14.557  13.235   2.854
43817W        W12222   0.718   5.587  14.728
43818W        W12223  26.472  23.022   0.436
43819W        W12224  37.021  26.605  13.284
43820W        W12225  25.186  27.254  11.724
43821W        W12226  44.478  42.834  14.529
43822W        W12227  21.234   2.382   3.908
43823W        W12228  18.069  36.874  10.750
43824W        W12229   7.713  40.020   2.642
43825W        W12230   4.995   2.707  11.137
43826W        W12231  32.364   4.031   1.528
43827W        W12232  44.838  13.080   1.646
43828W        W12233  35.784   6.838  13.065
43829W        W12234  34.837  15.831   2.174
43830W        W12235  19.826  24.468  12.457
43831W        W12236  33.843  29.425   0.381
43832W        W12237  15.232  33.881   0.433
43833W        W12238  41.098  19.138  12.545
43834W        W12239  36.688  34.522  13.489
43835W        W12240  31.092  42.550  10.704
43836W        W12241  11.856  16.622   1.193
43837W        W12242   9.244   0.199  10.057
43838W        W12243  33.901   3.844   1.379
43839W        W12244  34.001   5.276   3.445
43840W        W12245  21.171  18.075   4.833
43841W        W12246   2.509  44.870  13.853
43842W        W12247  44.502  21.047  11.173
43843W        W12248  26.489  34.022   0.225
43844W        W12249  30.388  30.045  12.900
43845W        W12250  15.817  17.332  12.208
43846W        W12251  32.063   5.904  12.384
43847W        W12252  30.434  21.574  12.485
43848W        W12253  39.629  24.305   2.270
43849W        W12254  38.029  25.531   4.689
43850W        W12255  17.133  16.248   1.830
43851W        W12256  43.493  37.260  14.021
43852W        W12257  14.672   1.234   2.783
43853W        W12258   3.997  17.655   1.251
43854W        W12259  29.463  34.888   0.881
43855W        W12260   7.408  12.177  14.054
43856W        W12261  38.694  38.831  14.896
43857W        W12262  40.403  20.051   3.257
43858W        W12263  33.402  38.087   2.226
43859W        W12264  30.656  39.280   0.133
43860W        W12265  38.981  44.016  13.159
43861W        W12266  24.811   4.574   3.321
43862W        W12267  30.860  11.679   1.955
43863W        W12268   6.635  28.689   0.346
43864W        W12269  15.424  10.338   5.087
43865W        W12270  30.523  40.797  11.632
43866W        W12271   2.458  43.681  11.231
43867W        W12272   8.389  13.959   3.317
43868W        W12273  22.028   7.448  13.578
43869W        W12274  35.055  25.982  13.886
43870W        W12275   1.759  38.279  13.918
43871W        W12276  42.810  34.066  11.908
43872W        W12277  17.204  18.156   0.508
43873W        W12278  44.305  13.635   4.156
43874W        W12279  27.552  32.828  13.125
43875W        W12280  22.820  17.272  12.487
43876W        W12281  16.136  25.080  14.795
43877W        W12282  30.688   7.714  12.959
43878W        W12283  26.540  10.413   1.388
43879W        W12284  42.345  26.483   2.246
43880W        W12285  34.507  27.668  12.090
43881W        W12286  42.713  22.554   3.176
43882W        W12287   9.717  27.664   3.476
43883W        W12288   1.296   8.892   0.102
43884W        W12289  28.043  23.198  13.504
43885W        W12290   4.289  43.355   3.764
43886W        W12291  18.792  34.992  12.895
43887W        W12292   5.623  18.176  12.457
43888W        W12293   6.551   9.883   1.423
43889W        W12294  21.234  31.034   2.945
43890W        W12295  15.865  15.827  11.148
43891W        W12296  24.995   5.710   0.946
43892W        W12297  35.102  35.897  12.151
43893W        W12298  40.448  11.838   9.846
43894W        W12299  13.635  22.621   4.432
43895W        W12300   9.941  33.998   3.545
43896W        W12301  38.027   2.612   9.994
43897W        W12302  22.207  17.720  10.739
43898W        W12303  43.875   3.273  10.516
43899W        W12304  16.816   8.697   0.778
43900W        W12305  23.036  12.184   1.299
43901W        W12306   6.307   9.133   2.359
43902W        W12307  15.205  33.376  13.806
43903W        W12308  30.555  22.895  14.894
43904W        W12309   1.274  37.948  12.655
43905W        W12310  36.964  31.134   0.997
43906W        W12311  24.952   1.805   3.735
43907W        W12312  28.864  11.564   1.051
43908W        W12313  18.089  14.808  13.474
43909W        W12314  40.899   9.001  10.709
43910W        W12315  41.274  34.451   1.835
43911W        W12316  42.740  29.093  11.479
43912W        W12317  38.016  14.686  14.351
43913W        W12318  36.801   6.858   1.935
43914W        W12319  37.319  13.104   0.227
43915W        W12320  20.280  12.697   1.187
43916W        W12321  20.803  31.966  11.534
43917W        W12322  15.637  25.964  13.949
43918W        W12323  44.511  10.596  14.896
43919W        W12324   9.159  18.535  14.407
43920W        W12325  24.081   9.177  12.478
43921W        W12326   9.232  15.732   0.507
43922W        W12327  27.628  20.140   0.234
43923W        W12328  32.173   2.966   2.690
43924W        W12329  24.039  21.100   3.312
43925W        W12330   2.612  39.120   1.499
43926W        W12331   6.824  26.572   0.364
43927W        W12332   6.083  20.892   5.041
43928W        W12333  23.171  32.307  14.485
43929W        W12334  18.774  27.734   3.627
43930W        W12335   5.778  42.608  13.792
43931W        W12336  14.026  22.645   0.415
43932W        W12337  18.032  34.626  11.191
43933W        W12338  10.192  33.558   0.263
43934W        W12339  39.487  42.121  13.048
43935W        W12340  21.736  10.307  14.812
43936W        W12341  19.017   0.375   4.157
43937W        W12342  17.010  31.347   3.730
43938W        W12343  29.267  18.783   9.809
43939W        W12344  35.643   3.351  10.744
43940W        W12345  36.257  14.605  14.977
43941W        W12346  44.372  26.655   1.668
43942W        W12347  32.979   8.221   4.107
43943W        W12348  34.750  39.766  13.658
43944W        W12349  36.569  10.154   4.564
43945W        W12350  26.070  21.988  11.636
43946W        W12351  19.619  43.380  14.525
43947W        W12352   8.849  33.476   4.689
43948W        W12353   6.589  36.294  10.862
43949W        W12354  17.714  24.386   2.896
43950W        W12355   5.832  34.896   4.826
43951W        W12356  43.338  35.336   4.198
43952W        W12357  41.871  32.727  14.820
43953W        W12358   2.744  29.456   1.841
43954W        W12359   1.015   5.309  13.033
43955W        W12360  39.565  40.026  14.501
43956W        W12361  12.833  10.894  11.136
43957W        W12362  33.664  22.595  11.155
43958W        W12363  13.333  19.610   1.293
43959W        W12364   6.276  22.001   2.368
43960W        W12365  40.893  41.216  13.960
43961W        W12366  20.936  19.502  12.604
43962W        W12367   6.575  35.383   3.834
43963W        W12368  13.031   9.314  12.050
43964W        W12369  33.126  27.679   3.243
43965W        W12370  19.015  11.076   3.379
43966W        W12371  30.865  22.586   2.704
43967W        W12372  35.493  44.813   2.430
43968W        W12373  29.004  38.996  12.564
43969W        W12374  20.530  37.889  12.945
43970W        W12375  40.972  32.386  12.930
43971W        W12376  21.222  23.463  11.446
43972W        W12377   3.360   5.006   0.521
43973W        W12378  11.825  43.196   4.653
43974W        W12379  44.079  15.541  14.908
43975W        W12380   2.250  20.323   2.275
43976W        W12381   5.712  30.461   2.748
43977W        W12382  26.366  16.776   1.965
43978W        W12383  23.313   2.354  13.980
43979W        W12384  25.910  12.873   4.801
43980W        W12385   8.198  44.506   2.174
43981W        W12386   0.274  26.790  14.916
43982W        W12387  40.087  35.083   4.094
43983W        W12388  30.612  32.941   3.812
43984W        W12389   8.816  21.064   3.268
43985W        W12390  16.239  15.365   3.625
43986W        W12391  27.331  41.895  13.825
43987W        W12392  33.055  26.365   4.177
43988W        W12393  33.542  41.921  12.878
43989W        W12394  36.543   3.618   2.382
43990W        W12395  34.051  27.165   3.169
43991W        W12396   2.071  28.076   1.397
43992W        W12397  12.031  21.612   4.923
43993W        W12398  17.692  13.841   4.026
43994W        W12399  34.913  39.344   1.400
43995W        W12400   3.771  29.280  12.092
43996W        W12401  18.739   3.308  12.488
43997W        W12402  11.323  41.088   4.479
43998W        W12403  35.202   3.576   1.964
43999W        W12404   0.430  20.381   2.755
44000W        W12405  39.123   5.197  10.328
44001W        W12406  36.478   9.266   4.541
44002W        W12407  32.658  18.645   4.844
44003W        W12408  17.332  29.752  11.034
44004W        W12409   0.453   8.146   2.481
44005W        W12410  41.554  22.429   4.580
44006W        W12411  15.395  26.439  10.528
44007W        W12412  34.991  11.289   0.725
44008W        W12413   2.739  30.473  12.526
44009W        W12414  38.433  38.548   2.423
44010W        W12415  23.701  38.105  12.959
44011W        W12416   0.409   1.261   4.537
44012W        W12417  33.408  40.819  11.639
44013W        W12418  43.023  25.171   4.988
44014W        W12419  27.979  13.910  14.523
44015W        W12420  22.958  16.544  12.176
44016W        W12421  32.968  12.368  13.456
44017W        W12422  35.501  16.562   2.599
44018W        W12423  17.240  21.670  11.386
44019W        W12424   1.455  10.847  12.388
44020W        W12425  30.939  27.031   1.703
44021W        W12426  36.840  13.632  11.627
44022W        W12427  32.122  38.874  14.786
44023W        W12428   3.817  18.387   0.970
44024W        W12429  34.325   8.934  11.623
44025W        W12430  15.649  12.858   4.105
44026W        W12431  41.716  13.617   0.506
44027W        W12432  31.788  42.949  10.313
44028W        W12433  14.892  10.722   3.754
44029W        W12434  44.771   9.043  12.853
44030W        W12435   2.219  33.922  11.493
44031W        W12436  39.055  44.452   1.278
44032W        W12437   6.609  42.524  10.465
44033W        W12438  34.872  20.832  14.420
44034W        W12439  40.424  10.378  12.588
44035W        W12440   9.691   3.641  14.459
44036W        W12441   4.812  43.120  10.784
44037W        W12442  20.119  36.684   2.455
44038W        W12443  19.300  43.616   4.549
44039W        W12444  40.922  22.248   4.020
44040W        W12445  20.298  32.489   2.846
44041W        W12446  16.717  39.080  10.720
44042W        W12447  11.911   3.438   4.817
44043W        W12448  33.595  37.512   0.323
44044W        W12449  15.808  10.352   2.373
44045W        W12450   6.418  27.476   1.959
44046W        W12451  10.103   9.135  12.552
44047W        W12452   6.233  27.237   0.785
44048W        W12453  20.252  13.160  13.467
44049W        W12454  38.050  36.105   4.022
44050W        W12455  17.319   8.798   0.778
44051W        W12456  38.687  33.589  14.851
44052W        W12457  17.782  41.110   2.756
44053W        W12458  37.135  16.597  13.328
44054W        W12459  21.176  39.144  10.674
44055W        W12460  11.610  38.578   1.976
44056W        W12461  37.579  35.078  10.947
44057W        W12462  10.670   5.783  13.398
44058W        W12463  38.362   2.696  11.091
44059W        W12464  27.169  43.016  11.165
44060W        W12465  23.697  30.265  12.631
44061W        W12466   3.331  13.104  13.813
44062W        W12467  28.530  10.388   3.295
44063W        W12468   9.889  38.929   0.418
44064W        W12469  18.504  44.812  10.595
44065W        W12470  42.172  35.397   3.659
44066W        W12471  36.973  18.760  12.016
44067W        W12472  13.078  18.292   2.711
44068W        W12473   0.405  29.598   1.234
44069W        W12474  22.072   5.180   4.540
44070W        W12475   5.637  35.687  11.576
44071W        W12476   2.994  36.578  10.763
44072W        W12477  18.956  18.854   1.218
44073W        W12478  34.130  41.441  11.525
44074W        W12479  30.419  40.400   3.222
44075W        W12480  26.086  27.988  11.910
44076W        W12481  40.289  34.931   3.643
44077W        W12482  38.696  14.635   4.085
44078W        W12483   2.288  14.918  14.979
44079W        W12484   6.951  13.682  12.035
44080W        W12485  25.709   6.372  11.062
44081W        W12486  25.640  22.281   0.438
44082W        W12487   2.481  40.509  14.292
44083W        W12488  19.058  15.321  10.695
44084W        W12489  11.837  39.001   2.167
44085W        W12490   5.334  22.471   1.017
44086W        W12491   9.259  38.321   4.372
44087W        W12492  16.569  29.692  12.441
44088W        W12493   8.669  33.976  14.979
44089W        W12494   5.624  22.195   3.721
44090W        W12495  23.768  24.653   1.802
44091W        W12496   2.737  40.370  12.609
44092W        W12497   8.749   4.402  11.123
44093W        W12498  32.532   1.909  12.942
44094W        W12499   0.332  37.407   0.209
44095W        W12500   7.234  43.460   0.845
44096W        W12501  10.625  26.578  13.126
44097W        W12502   4.939  41.018  13.336
44098W        W12503  18.048   3.358   1.359
44099W        W12504  35.882  22.160   4.082
44100W        W12505  39.829  30.606  10.909
44101W        W12506   4.929   0.188   3.187
44102W        W12507  41.587   1.667   1.784
44103W        W12508  26.747  23.133   1.885
44104W        W12509  43.784   6.445  11.101
44105W        W12510  24.710  38.508  12.478
44106W        W12511   6.341  22.492   1.249
44107W        W12512  40.302  40.393   1.751
44108W        W12513  13.160  42.247   3.779
44109W        W12514  10.413  29.514  13.595
44110W        W12515  24.342  31.052  12.405
44111W        W12516  32.747  23.227  10.979
44112W        W12517  34.613  24.634   3.783
44113W        W12518   2.290   9.522   1.181
44114W        W12519  24.716  42.760   1.860
44115W        W12520  23.383  13.584  10.528
44116W        W12521  29.574  29.937  14.024
44117W        W12522   9.243   6.993   1.800
44118W        W12523   3.821   2.006   4.286
44119W        W12524  27.531   2.698  13.424
44120W        W12525  37.146   1.483   1.766
44121W        W12526  41.177  33.385  13.731
44122W        W12527  16.665  28.413  11.675
44123W        W12528  12.374  12.684  11.203
44124W        W12529  30.052  10.838  12.917
44125W        W12530  33.326  10.829   1.985
44126W        W12531  42.859  41.176   3.340
44127W        W12532   3.426  44.959   4.743
44128W        W12533   7.636   1.350  14.079
44129W        W12534  35.866  12.659   1.182
44130W        W12535   2.373  27.761   3.273
44131W        W12536  19.195   1.340  13.313
44132W        W12537   9.247   5.827  12.410
44133W        W12538   4.518  33.836  13.821
44134W        W12539   0.932  32.624   3.293
44135W        W12540  21.059  29.721  12.952
44136W        W12541  30.994  29.628   3.860
44137W        W12542  11.659  20.947   1.775
44138W        W12543  24.703  12.899   1.210
44139W        W12544  44.697  25.481  10.943
44140W        W12545   6.981  17.769  13.829
44141W        W12546  18.683  25.462   2.836
44142W        W12547  33.948   7.194  10.876
44143W        W12548  16.404  44.891   4.081
44144W        W12549  13.620  11.210   2.834
44145W        W12550  27.804   1.846  12.021
44146W        W12551   6.745   3.795  10.674
44147W        W12552   4.011  28.223   0.366
44148W        W12553  38.410  17.389  10.567
44149W        W12554  42.279  33.078  10.422
44150W        W12555  24.545  10.463   3.955
44151W        W12556  18.049  38.500  14.590
44152W        W12557  34.068  21.918   0.495
44153W        W12558  32.622  11.535   1.232
44154W        W12559  29.613  38.859   3.686
44155W        W12560  43.574  21.539  13.486
44156W        W12561  19.326  18.298  14.892
44157W        W12562  39.571  30.192  13.338
44158W        W12563  25.373  33.023  13.515
44159W        W12564  36.750  14.788  13.643
44160W        W12565   1.982  20.939   3.383
44161W        W12566  26.715   5.695  13.119
44162W        W12567  24.227  36.341  13.980
44163W        W12568  19.082  22.689   1.207
44164W        W12569  26.751  39.926  12.896
44165W        W12570   9.631  14.521   0.292
44166W        W12571  15.166  32.520  10.833
44167W        W12572  22.056  33.906  12.452
44168W        W12573  25.938  15.109   3.917
44169W        W12574  40.632  39.712   3.733
44170W        W12575   6.261  16.127  12.170
44171W        W12576  30.681  35.554  13.887
44172W        W12577   9.324   0.318   0.538
44173W        W12578  18.849  24.160   0.854
44174W        W12579   9.482  27.665  11.458
44175W        W12580  37.320   5.436   4.605
44176W        W12581  13.674  39.418  13.063
44177W        W12582  13.326  26.496  11.420
44178W        W12583  13.899   9.738   2.212
44179W        W12584   3.350   2.999   1.927
44180W        W12585  22.625   6.955   1.049
44181W        W12586  31.888  34.211  12.830
44182W        W12587  35.901  43.531  13.244
44183W        W12588  25.450  43.229  11.563
44184W        W12589  28.973  14.325  13.033
44185W        W12590  23.415  31.367  12.038
44186W        W12591  28.053  25.168   5.020
44187W        W12592   8.143  28.983   1.215
44188W        W12593  35.784  22.013   3.582
44189W        W12594  29.382   0.765  11.488
44190W        W12595  41.764  23.426   2.370
44191W        W12596   1.789   3.710  10.260
44192W        W12597  21.792  35.311   2.452
44193W        W12598  24.106  21.720   4.803
44194W        W12599  29.784  12.476  11.630
44195W        W12600   7.741  14.851  13.578
44196W        W12601  36.415  42.967   0.336
44197W        W12602  22.518  17.997   3.741
44198W        W12603  30.275  43.335  12.215
44199W        W12604  22.201   6.251   4.669
44200W        W12605  17.240  38.430   2.948
44201W        W12606   4.277  40.350  11.788
44202W        W12607  34.540  14.070  12.028
44203W        W12608  14.401  12.317  14.403
44204W        W12609   6.055   3.216   2.683
44205W        W12610  14.252  20.612  14.378
44206W        W12611  19.539   0.385  13.570
44207W        W12612  15.836  39.019   3.258
44208W        W12613   9.677  20.554   2.113
44209W        W12614  37.083  28.007  14.406
44210W        W12615   9.882  16.288   0.831
44211W        W12616  30.987   0.759   3.675
44212W        W12617  11.630  17.594   2.187
44213W        W12618  43.469  10.297   3.631
44214W        W12619  28.119  18.030  13.035
44215W        W12620  41.879   8.628  13.335
44216W        W12621  25.608   8.236   3.101
44217W        W12622   3.873  12.344   0.529
44218W        W12623  40.565  18.754   4.193
44219W        W12624  43.899  38.870  14.355
44220W        W12625  38.297  39.367  12.881
44221W        W12626  26.931   2.251   0.862
44222W        W12627  25.057   1.621   1.245
44223W        W12628  29.559  12.335   4.994
44224W        W12629  29.033  15.727  10.730
44225W        W12630   0.984  37.327   1.799
44226W        W12631   8.060  31.457  13.180
44227W        W12632   2.986  37.457  11.681
44228W        W12633  40.928  28.539   4.543
44229W        W12634  41.107   5.230  12.957
44230W        W12635  21.623  44.161   3.524
44231W        W12636   8.088  19.826  12.072
44232W        W12637   2.652  35.401   0.971
44233W        W12638  14.082  33.846   2.394
44234W        W12639   3.023  38.958   3.912
44235W        W12640  11.364  17.731   4.205
44236W        W12641   8.905  44.484   4.649
44237W        W12642  18.092  23.575  13.748
44238W        W12643  16.799  27.561  12.044
44239W        W12644  33.137  27.761   4.403
44240W        W12645  10.450  40.105   0.397
44241W        W12646   1.935  13.841  12.591
44242W        W12647  29.463  39.841   0.161
44243W        W12648   7.400  25.719  11.917
44244W        W12649   7.499  25.208   1.297
44245W        W12650  18.775  23.677   1.217
44246W        W12651   6.122  25.720  11.664
44247W        W12652  14.740  43.248  11.855
44248W        W12653  24.043  17.499  13.350
44249W        W12654  35.627   5.930   0.843
44250W        W12655   2.499  39.840   0.803
44251W        W12656  19.853  14.088   3.644
44252W        W12657  25.674  43.555  14.507
44253W        W12658  38.968   8.793   1.801
44254W        W12659  18.856  40.387   2.344
44255W        W12660  13.798  30.749  14.443
44256W        W12661  44.625  25.333  13.590
44257W        W12662  34.588  22.417  11.081
44258W        W12663  40.830  23.606  12.502
44259W        W12664   8.702  32.560   2.758
44260W        W12665   7.208   1.367  13.707
44261W        W12666  41.026  30.896  13.980
44262W        W12667  12.715  13.958   3.659
44263W        W12668  23.059  24.775  12.317
44264W        W12669  19.019  33.063   0.979
44265W        W12670  16.749  23.870  11.299
44266W        W12671  35.291  26.491  11.706
44267W        W12672   4.753  15.064  12.769
44268W        W12673  24.655   7.796   2.174
44269W        W12674  31.136  16.119   1.484
44270W        W12675  22.084  18.320  12.166
44271W        W12676  44.359   0.855  10.770
44272W        W12677  28.626   4.288   1.174
44273W        W12678  21.756   8.746   0.275
44274W        W12679  44.856  34.936  14.917
44275W        W12680  13.762  17.192  13.300
44276W        W12681  43.130   2.252   3.453
44277W        W12682   0.750  42.292   0.815
44278W        W12683   0.756   8.942  10.891
44279W        W12684  25.119   1.948   3.219
44280W        W12685  40.398   8.639   0.867
44281W        W12686  41.801  35.538  12.361
44282W        W12687  22.301  24.591   3.631
44283W        W12688   2.356  15.223  13.485
44284W        W12689   5.286   7.295   1.330
44285W        W12690  27.076   2.257   3.084
44286W        W12691  15.329  13.306   0.253
44287W        W12692  21.616  39.432   4.581
44288W        W12693  33.201  27.234   1.843
44289W        W12694  15.013   5.559   1.335
44290W        W12695   4.264  27.181   4.657
44291W        W12696   4.691   5.445  11.558
44292W        W12697  11.404  32.427  12.391
44293W        W12698  22.791  42.504   1.461
44294W        W12699  28.109  28.028   1.319
44295W        W12700  33.822  22.249   4.254
44296W        W12701  23.124  41.454   0.028
44297W        W12702   2.183  21.251   2.899
44298W        W12703  16.608   1.465  11.654
44299W        W12704  10.826  34.584  10.710
44300W        W12705   3.429  22.953   1.818
44301W        W12706  40.275  11.838   1.403
44302W        W12707  32.511   3.525   1.363
44303W        W12708  35.305  17.083   0.369
44304W        W12709  38.401   7.958   0.940
44305W        W12710   4.693  34.539   4.470
44306W        W12711  22.558  32.887   0.831
44307W        W12712   3.857  39.988   4.155
44308W        W12713  19.097  18.785   3.869
44309W        W12714  15.851   8.680   2.002
44310W        W12715   3.706  13.171   4.149
44311W        W12716   4.682  40.004   2.327
44312W        W12717  36.390  35.806   2.695
44313W        W12718  23.978  20.299  12.860
44314W        W12719  31.915  37.027   2.295
44315W        W12720  22.962   2.366  14.880
44316W        W12721  23.708  16.193   2.994
44317W        W12722   5.393  39.525   3.717
44318W        W12723  34.137   9.103  11.179
44319W        W12724  18.815   8.345   2.298
44320W        W12725  11.580  10.433  12.330
44321W        W12726  29.002  20.804   4.686
44322W        W12727   1.258  35.133   1.133
44323W        W12728  14.416  28.378   2.895
44324W        W12729   2.778   2.823   3.072
44325W        W12730  30.545   7.155  13.496
44326W        W12731  44.492  22.147   3.595
44327W        W12732   2.413  23.523   3.184
44328W        W12733  32.835  34.910   3.917
44329W        W12734   1.229   8.711  11.073
44330W        W12735  29.664  34.661   2.467
44331W        W12736  35.380  38.655  14.883
44332W        W12737   5.775   1.919   1.407
44333W        W12738  11.782   4.209   3.727
44334W        W12739  13.018  36.139   1.741
44335W        W12740  14.871  11.842  11.697
44336W        W12741  18.180  35.914  12.501
44337W        W12742  40.110  20.059  11.147
44338W        W12743  42.974  28.581   0.100
44339W        W12744  44.684  24.340   1.723
44340W        W12745  30.843   7.911  12.024
44341W        W12746  14.714  30.177  11.661
44342W        W12747  23.140  12.289  14.073
44343W        W12748  13.099  17.094  14.032
44344W        W12749  20.537  16.171  14.458
44345W        W12750  15.067  32.783  12.491
44346W        W12751  41.836   8.440   0.985
44347W        W12752  29.141   0.355   0.773
44348W        W12753  22.469  27.009  13.093
44349W        W12754  20.591  14.063   0.785
44350W        W12755   0.007   5.228  13.856
44351W        W12756  17.508  26.936  12.905
44352W        W12757  25.018  29.091  11.171
44353W        W12758  13.610  19.543   2.685
44354W        W12759  40.250  41.795  12.020
44355W        W12760  30.704  28.585  13.417
44356W        W12761  28.165   4.623  11.045
44357W        W12762  39.629  32.087  13.499
44358W        W12763   3.936  11.253  12.129
44359W        W12764  17.393  28.416  12.381
44360W        W12765  43.976   5.013   4.467
44361W        W12766  28.931  35.798  14.735
44362W        W12767  11.771  29.424  10.945
44363W        W12768  24.526  44.392   1.767
44364W        W12769   0.819  14.376  13.369
44365W        W12770  35.830  12.951  11.172
44366W        W12771  30.648  41.503  11.583
44367W        W12772   3.903  24.103  12.739
44368W        W12773  35.535  13.125  14.951
44369W        W12774  36.351  11.788  14.461
44370W        W12775  19.106   9.113  13.396
44371W        W12776  28.421  43.880   3.830
44372W        W12777   0.731  11.139  13.562
44373W        W12778  42.096  44.474   2.668
44374W        W12779  17.525   7.816  11.550
44375W        W12780  28.041   0.949   4.132
44376W        W12781  24.735   4.370  11.554
44377W        W12782  11.101  18.622  13.380
44378W        W12783  41.451  22.127  11.095
44379W        W12784  25.473  28.500  12.382
44380W        W12785  11.683  26.420   4.979
44381W        W12786  10.787  41.261  14.517
44382W        W12787  16.585  16.974   4.740
44383W        W12788  42.028  40.965   2.652
44384W        W12789   5.380  28.137  10.330
44385W        W12790  39.291  10.449  14.466
44386W        W12791  38.994  23.562   4.619
44387W        W12792  12.296  32.561  12.054
44388W        W12793  16.591   9.595  14.912
44389W        W12794  44.099  44.941   4.212
44390W        W12795   6.871  32.064   3.607
44391W        W12796  16.321  38.986  14.326
44392W        W12797  39.966  38.535  11.068
44393W        W12798  43.449  31.049   4.281
44394W        W12799  23.000  21.487  11.826
44395W        W12800   8.192  14.056  14.777
44396W        W12801  16.767  23.047   0.214
44397W        W12802   8.585  13.590  13.911
44398W        W12803   3.424  17.316  11.659
44399W        W12804  29.787  24.588   0.152
44400W        W12805  32.924   1.066  11.474
44401W        W12806  17.674  34.843  11.508
44402W        W12807   5.486  14.452   0.776
44403W        W12808  19.986  18.577   0.386
44404W        W12809   0.949   0.833  10.969
44405W        W12810  39.550  39.848   0.891
44406W        W12811  26.732  41.943   1.343
44407W        W12812   9.896   8.897   0.663
44408W        W12813  25.053  11.295  13.013
44409W        W12814  19.054  43.905   0.062
44410W        W12815  28.010  16.527  11.414
44411W        W12816  21.687  22.165  11.677
44412W        W12817  22.259  10.123  12.858
44413W        W12818  38.770  19.105   2.367
44414W        W12819  13.592  16.657   0.345
44415W        W12820  40.572   7.823  10.541
44416W        W12821   6.288  22.859   4.023
44417W        W12822   4.974  14.347  10.649
44418W        W12823   1.638  17.115  11.581
44419W        W12824  28.345  40.281  13.856
44420W        W12825  18.568  38.251  13.888
44421W        W12826  21.996   3.259  11.676
44422W        W12827  25.252  30.544   0.001
44423W        W12828   1.988  29.348  12.223
44424W        W12829   1.802  40.986   4.900
44425W        W12830  11.771   8.934   2.093
44426W        W12831  39.457  26.163   1.029
44427W        W12832  28.531  26.380  10.416
44428W        W12833  32.685   6.797  14.816
44429W        W12834  40.036  15.052  11.951
44430W        W12835  16.250  26.509   2.394
44431W        W12836  39.562  37.931  10.583
44432W        W12837  25.687  24.708   2.963
44433W        W12838  26.831   7.321  11.222
44434W        W12839  20.182  43.365   1.514
44435W        W12840  19.999  36.046   1.053
44436W        W12841   9.331   5.470   4.510
44437W        W12842   1.054   3.800  13.049
44438W        W12843  22.603  27.726  11.439
44439W        W12844   9.604  35.907   1.247
44440W        W12845  32.892  36.486  14.826
44441W        W12846  35.859  36.489   0.199
44442W        W12847  37.382  36.989   2.933
44443W        W12848  17.100   0.946   4.929
44444W        W12849  27.098  40.121   2.212
44445W        W12850  19.123  18.739   4.409
44446W        W12851  23.725  20.112  13.323
44447W        W12852  17.207   3.496   0.040
44448W        W12853   4.835  18.833  10.725
44449W        W12854  35.823  28.082   3.252
44450W        W12855   1.678  21.071   2.962
44451W        W12856  26.705  23.191   9.994
44452W        W12857  17.143  15.161   4.889
44453W        W12858  43.345  15.975   0.511
44454W        W12859  44.792  40.575   2.676
44455W        W12860  18.049  37.972  14.466
44456W        W12861  12.057  25.109  13.837
44457W        W12862  42.322  11.814  12.883
44458W        W12863  20.855   6.306  14.199
44459W        W12864  44.734  15.573  13.716
44460W        W12865  24.995  17.727  10.875
44461W        W12866   1.264  34.876  11.887
44462W        W12867   3.241  40.961  14.334
44463W        W12868   4.644  44.039  12.441
44464W        W12869  27.478  42.223   4.994
44465W        W12870  41.326  43.888   0.646
44466W        W12871  14.891  15.299   0.681
44467W        W12872  28.435   7.152   3.760
44468W        W12873   3.699  30.311   2.721
44469W        W12874  43.006  18.212  14.838
44470W        W12875  41.088   9.830  10.806
44471W        W12876   1.283  26.443   0.902
44472W        W12877   3.225  33.525   3.826
44473W        W12878  20.176  13.195   4.637
44474W        W12879  30.547   6.735   0.159
44475W        W12880  30.916  40.491   3.112
44476W        W12881  34.646   1.004  12.980
44477W        W12882  38.903  27.459   4.734
44478W        W12883  33.796   2.903   0.744
44479W        W12884  41.323  10.620  12.400
44480W        W12885  34.047  25.905  12.192
44481W        W12886  38.603  17.515  13.680
44482W        W12887  37.123   6.527   0.997
44483W        W12888  37.647   7.413  11.138
44484W        W12889  13.846   8.635   0.886
44485W        W12890   5.380  19.515  14.755
44486W        W12891   6.482  19.822   4.352
44487W        W12892  23.220  29.887   1.738
44488W        W12893   9.444   2.256   2.174
44489W        W12894  22.931  30.971   2.910
44490W        W12895  34.430  17.567   3.712
44491W        W12896  27.060  10.190   0.470
44492W        W12897  21.214  30.915  13.539
44493W        W12898  20.665  33.093  12.081
44494W        W12899  16.817  35.857   1.482
44495W        W12900   7.989  39.780  12.069
44496W        W12901   1.792   9.346   3.195
44497W        W12902  11.163  15.072  12.483
44498W        W12903  30.923   0.297  14.206
44499W        W12904   0.093  20.071  13.265
44500W        W12905  26.106  40.289   3.338
44501W        W12906  30.623  31.880  14.016
44502W        W12907  26.107  18.110  13.798
44503W        W12908  25.374  13.875  13.452
44504W        W12909  37.627  11.630   1.201
44505W        W12910  17.543  34.432  11.233
44506W        W12911   1.406   9.500  14.918
44507W        W12912  14.676   0.016  10.647
44508W        W12913  23.767  15.250   0.951
44509W        W12914  38.457  36.822   1.923
44510W        W12915  33.370   0.559  10.845
44511W        W12916   1.837   7.626   0.700
44512W        W12917  44.464  32.952   4.242
44513W        W12918   5.565  42.439   4.962
44514W        W12919  44.724  28.835   1.258
44515W        W12920  35.757  39.996  12.752
44516W        W12921  41.746  37.853  12.077
44517W        W12922  30.770  17.320  11.945
44518W        W12923  22.346  26.735  11.569
44519W        W12924  16.015   8.240   2.302
44520W        W12925  30.240  12.846  13.022
44521W        W12926  13.426  17.953   1.439
44522W        W12927   5.293   1.700  12.521
44523W        W12928   4.424  39.974  12.540
44524W        W12929  37.569  35.859   4.127
44525W        W12930   6.424  44.068   2.944
44526W        W12931  23.135  23.759  12.558
44527W        W12932   7.153  41.533   2.154
44528W        W12933  14.489   3.816   1.798
44529W        W12934   6.164  15.046  12.908
44530W        W12935  14.817  41.105   2.792
44531W        W12936  43.421  26.917   0.028
44532W        W12937  36.521  43.373   1.304
44533W        W12938  10.914  41.994   0.342
44534W        W12939  17.076  10.037   4.873
44535W        W12940   8.765  41.463  14.396
44536W        W12941   2.493  34.171  13.874
44537W        W12942  26.624   6.592   2.393
44538W        W12943  30.462   6.289  13.233
44539W        W12944  11.198  39.359   3.335
44540W        W12945  19.128  30.579   3.652
44541W        W12946   0.443   5.907   4.436
44542W        W12947  27.526  18.409   3.392
44543W        W12948  36.381   9.245   2.611
44544W        W12949  34.331  20.688   0.776
44545W        W12950  43.941  20.282   3.271
44546W        W12951  18.073  23.812  10.831
44547W        W12952  34.454  41.438   3.779
44548W        W12953  34.974   1.208  13.952
44549W        W12954  36.904  31.884  13.856
44550W        W12955  24.997  18.639   0.931
44551W        W12956  15.215   0.834   1.310
44552W        W12957  36.397  12.098   0.773
44553W        W12958  27.249  38.929  10.922
44554W        W12959   0.565  20.052  10.985
44555W        W12960   7.293  17.224  14.284
44556W        W12961  44.011  33.845  14.159
44557W        W12962  18.561  36.975  14.052
44558W        W12963   8.959  27.540  14.059
44559W        W12964  18.126  33.447   1.787
44560W        W12965   8.458  32.446  11.530
44561W        W12966  22.732  26.476  10.796
44562W        W12967   9.929  23.551   5.097
44563W        W12968  15.042  23.098   2.843
44564W        W12969   9.679   9.878   0.734
44565W        W12970  19.242  16.134  13.785
44566W        W12971  28.568  43.388   2.681
44567W        W12972  29.006  32.153   2.705
44568W        W12973  12.350  35.290   0.421
44569W        W12974  20.110  20.163   1.799
44570W        W12975  39.566  31.943  11.987
44571W        W12976  24.783  35.309   4.298
44572W        W12977   8.624  10.361   0.826
44573W        W12978   4.334  27.981   1.297
44574W        W12979  26.073  12.941   0.477
44575W        W12980  25.837  23.049   3.724
44576W        W12981  28.574   8.906  11.051
44577W        W12982  21.513  27.491  14.566
44578W        W12983  35.935  30.564   1.429
44579W        W12984  10.309   5.953   1.811
44580W        W12985  20.285  37.767   5.032
44581W        W12986   0.731   4.433  12.663
44582W        W12987   3.706  34.275  12.110
44583W        W12988  17.225   9.788  12.080
44584W        W12989  27.444  19.692   4.852
44585W        W12990  14.752   9.563   2.123
44586W        W12991  15.327  13.209  12.178
44587W        W12992  10.353  38.093  14.444
44588W        W12993   8.320   7.362   3.899
44589W        W12994  30.602  14.852  11.900
44590W        W12995  20.185  41.427   0.536
44591W        W12996   7.650  30.161  14.270
44592W        W12997   1.840   1.686  10.677
44593W        W12998  15.299   8.205   1.828
44594W        W12999  41.992  11.106   3.707
44595W        W13000  10.201  42.438  13.016
44596W        W13001  21.186  41.195  12.766
44597W        W13002   4.651   6.464  13.847
44598W        W13003  21.134  33.357  14.860
44599W        W13004  28.655  40.087   0.313
44600W        W13005   3.006  14.182   3.542
44601W        W13006  19.736  44.750   1.721
44602W        W13007  32.615  28.995  14.350
44603W        W13008  41.567   0.545  12.084
44604W        W13009   4.742   6.403  12.878
44605W        W13010  17.302  37.334  10.898
44606W        W13011  31.457  20.030  14.480
44607W        W13012   5.856   5.357  14.779
44608W        W13013  20.186  37.442   3.747
44609W        W13014   5.200  32.490   2.273
44610W        W13015  40.004   5.790   2.305
44611W        W13016  43.374   9.468  14.131
44612W        W13017  10.826  10.225  10.654
44613W        W13018  21.245   4.746   4.074
44614W        W13019  29.874  42.230  14.709
44615W        W13020  38.128  40.556  12.419
44616W        W13021  25.008   8.935  12.422
44617W        W13022  38.491   4.309   4.073
44618W        W13023  13.110  34.670   1.880
44619W        W13024   2.128  21.024   4.194
44620W        W13025  34.267  11.731  11.613
44621W        W13026  32.955  20.059   1.456
44622W        W13027   3.697  15.180  11.126
44623W        W13028  31.412  10.693  13.390
44624W        W13029   9.770   1.736   1.944
44625W        W13030   7.351  39.835   1.394
44626W        W13031  30.853  15.719   0.249
44627W        W13032  13.316  31.233   3.049
44628W        W13033  28.912  25.192  11.628
44629W        W13034  34.413  44.533   1.534
44630W        W13035  17.399  38.733  11.152
44631W        W13036  41.518   3.744   4.512
44632W        W13037   6.261   6.776   4.312
44633W        W13038  17.250   8.404  13.126
44634W        W13039  39.333  39.289  12.112
44635W        W13040  32.308  39.843  13.321
44636W        W13041  21.490   6.332   4.345
44637W        W13042  19.846  10.481  11.972
44638W        W13043  10.391  43.788  10.717
44639W        W13044  43.190   8.788  13.391
44640W        W13045  12.019  19.635   1.866
44641W        W13046  34.996   7.849   1.768
44642W        W13047  16.381  12.251  12.105
44643W        W13048   9.585   1.443   4.322
44644W        W13049  30.650  15.836   2.274
44645W        W13050  18.998   7.212  13.233
44646W        W13051  12.618  23.490   4.588
44647W        W13052   6.402  16.469   0.907
44648W        W13053  10.105  29.999  11.476
44649W        W13054   1.588  23.163  12.453
44650W        W13055  13.138  27.743  13.003
44651W        W13056   0.340  43.970  12.942
44652W        W13057  38.374   0.165  13.334
44653W        W13058  26.080   9.628  13.526
44654W        W13059  33.489  17.257  12.044
44655W        W13060  11.106  30.388   2.877
44656W        W13061  23.788   9.687   3.160
44657W        W13062   6.277  26.678   5.228
44658W        W13063   2.295  11.827  14.966
44659W        W13064  39.004  22.613   1.465
44660W        W13065  29.035  28.464   2.122
44661W        W13066  39.913  41.506  10.692
44662W        W13067  10.271  31.821  14.468
44663W        W13068   2.143  11.249  11.607
44664W        W13069  29.110  18.502  13.417
44665W        W13070  42.838  23.128  13.128
44666W        W13071  37.293  39.867   0.887
44667W        W13072  23.744  17.328   0.734
44668W        W13073  42.301  27.507   0.962
44669W        W13074  28.611  42.512  10.599
44670W        W13075   7.867  29.119  11.734
44671W        W13076  39.949  25.234  12.904
44672W        W13077   9.545  25.496   3.856
44673W        W13078  26.311  27.967   0.426
44674W        W13079  11.278  40.536   4.139
44675W        W13080   7.703  42.071   1.455
44676W        W13081  15.789   9.869   0.759
44677W        W13082  16.470  37.999   3.894
44678W        W13083  23.268  24.693   4.512
44679W        W13084  16.315  36.086   2.361
44680W        W13085  34.367  32.563   4.193
44681W        W13086  40.395  19.753  11.465
44682W        W13087   6.375  24.051   1.381
44683W        W13088  32.236  35.262  14.830
44684W        W13089   9.570  33.376  13.022
44685W        W13090   9.871   8.290   2.702
44686W        W13091  16.803  33.613   1.380
44687W        W13092  10.320  37.121   1.642
44688W        W13093  11.171   6.592  14.519
44689W        W13094  44.177   2.055  13.244
44690W        W13095  23.231  22.675   4.536
44691W        W13096  26.929  42.403   5.000
44692W        W13097  37.655  26.272   1.385
44693W        W13098  21.143  28.233  13.972
44694W        W13099  12.127  40.881   4.161
44695W        W13100  12.802   8.874  11.128
44696W        W13101   6.751   4.476   3.792
44697W        W13102  28.276  42.217  12.849
44698W        W13103  36.040  36.955  10.686
44699W        W13104  31.125  18.721  11.473
44700W        W13105   3.476  21.032   0.845
44701W        W13106  27.579  13.710  13.159
44702W        W13107  34.160  19.236   2.861
44703W        W13108  41.460  29.713  13.895
44704W        W13109   5.156   3.224   3.985
44705W        W13110  42.898  25.928  13.442
44706W        W13111  10.862  36.804  13.349
44707W        W13112  42.418  15.533   0.364
44708W        W13113  42.367  28.063   3.876
44709W        W13114  17.702  12.487  11.943
44710W        W13115   8.753  28.620   2.919
44711W        W13116  11.427   1.322   3.728
44712W        W13117  30.508  22.090  11.268
44713W        W13118  24.574  28.592   4.428
44714W        W13119  37.012  20.744   0.669
44715W        W13120  41.828  16.152   3.011
44716W        W13121  34.962  36.984   2.383
44717W        W13122  27.980  28.044   4.484
44718W        W13123  20.610  43.436   2.283
44719W        W13124  19.074  37.065  13.428
44720W        W13125  34.942  31.336   1.996
44721W        W13126  43.492  40.310  12.908
44722W        W13127  24.766  29.145   0.397
44723W        W13128  13.277  35.480  13.973
44724W        W13129  26.087  17.523   2.190
44725W        W13130  14.796   5.548  12.679
44726W        W13131  12.080  44.490  11.116
44727W        W13132  35.074  42.989   2.686
44728W        W13133  24.984  39.903   5.059
44729W        W13134  35.051  43.893  11.230
44730W        W13135  23.279   9.934   0.819
44731W        W13136   7.422  24.915  11.039
44732W        W13137  17.668  18.479   1.340
44733W        W13138  38.756  30.090   4.453
44734W        W13139   9.460  18.013  11.039
44735W        W13140  28.147  17.136   0.352
44736W        W13141   2.771  10.213  10.948
44737W        W13142  42.688  13.344  10.712
44738W        W13143  23.573   1.907   3.844
44739W        W13144  15.605   3.051   0.242
44740W        W13145  29.845  17.825   1.782
44741W        W13146  38.132  32.775  11.104
44742W        W13147  19.876  17.781   3.241
44743W        W13148  12.257  21.047   3.739
44744W        W13149  23.689   0.943  13.565
44745W        W13150  29.588   0.480  12.200
44746W        W13151  27.112  14.552   4.746
44747W        W13152  38.911  33.078   4.575
44748W        W13153  40.985  22.257   2.218
44749W        W13154  40.776  21.802  14.386
44750W        W13155  26.530  16.092   4.529
44751W        W13156  11.766  19.335  10.680
44752W        W13157  15.313   7.734  12.254
44753W        W13158  34.806  41.519   2.811
44754W        W13159  11.923  39.518  11.927
44755W        W13160   2.437  17.046   1.319
44756W        W13161   6.356  23.494   5.058
44757W        W13162  17.537   6.423  13.861
44758W        W13163   3.821  19.309  12.082
44759W        W13164  15.233  10.408  13.867
44760W        W13165   3.140  43.829   0.943
44761W        W13166  32.427  12.464  13.345
44762W        W13167   9.406   3.219  14.062
44763W        W13168   1.979  31.401  12.577
44764W        W13169  14.282  44.125   2.439
44765W        W13170  40.935   4.954  11.527
44766W        W13171  34.430  27.731   4.304
44767W        W13172  19.491  22.576   4.976
44768W        W13173  31.088  16.194  11.557
44769W        W13174  16.259  16.407   0.247
44770W        W13175  18.769  39.280   1.426
44771W        W13176  32.101  11.250   3.894
44772W        W13177   4.435  27.229  14.324
44773W        W13178  25.727  36.654   1.297
44774W        W13179  30.001  19.147  10.288
44775W        W13180  13.340  33.097  13.771
44776W        W13181  17.968  36.018   3.663
44777W        W13182   5.276  32.949   3.660
44778W        W13183  25.227  15.752  13.964
44779W        W13184  40.540   5.476  12.435
44780W        W13185  27.778  28.533   4.072
44781W        W13186  43.878  32.435  14.772
44782W        W13187  32.392  38.858  13.447
44783W        W13188   1.374  38.508  11.031
44784W        W13189  16.466  14.303  11.631
44785W        W13190   6.306  12.203   1.421
44786W        W13191   7.791  11.201  14.203
44787W        W13192  27.502  20.625   0.963
44788W        W13193  26.944  33.634  12.866
44789W        W13194  37.352  30.510  12.159
44790W        W13195  37.283  15.091   1.313
44791W        W13196  14.942   7.783  11.906
44792W        W13197  33.958  33.455   0.958
44793W        W13198  13.529  28.886   0.006
44794W        W13199  16.228  35.139   5.007
44795W        W13200  33.427  11.114   3.757
44796W        W13201  24.200  38.845   1.274
44797W        W13202  38.369  16.841   0.331
44798W        W13203   6.264  26.891   2.214
44799W        W13204   9.715  22.203  12.932
44800W        W13205   7.837  38.514  13.797
44801W        W13206   0.882  36.330   2.719
44802W        W13207   1.462  16.105   2.268
44803W        W13208  35.802   5.445   0.548
44804W        W13209   1.278  39.119  12.085
44805W        W13210  37.949  17.966   3.528
44806W        W13211  25.612   1.935  14.968
44807W        W13212   5.796  43.819   2.288
44808W        W13213  41.470  19.612  14.267
44809W        W13214  41.534  12.111   2.414
44810W        W13215   3.856  36.904   1.514
44811W        W13216   4.350  34.408  10.447
44812W        W13217  38.766   7.784  12.286
44813W        W13218  24.192  30.633   2.219
44814W        W13219  30.455  39.773   3.297
44815W        W13220  26.169  31.377   3.712
44816W        W13221  18.689  10.751  14.514
44817W        W13222  40.076  17.543  12.503
44818W        W13223  14.934  34.852   1.591
44819W        W13224   0.527   0.507  11.102
44820W        W13225  32.909  39.137   0.788
44821W        W13226  38.780   2.319   4.271
44822W        W13227  20.195  41.238  13.106
44823W        W13228  23.741  30.458   4.322
44824W        W13229  36.397  11.653   4.088
44825W        W13230  13.938  38.856  14.027
44826W        W13231   7.067  44.348   4.665
44827W        W13232  28.989   5.212  11.210
44828W        W13233  20.934  33.249   1.501
44829W        W13234  38.532  28.977   1.207
44830W        W13235  33.246  33.881   4.015
44831W        W13236  13.807   6.197   3.215
44832W        W13237  18.901  14.852   0.702
44833W        W13238  28.551   2.990   2.149
44834W        W13239  14.312  39.161   1.830
44835W        W13240   9.503  39.353   2.953
44836W        W13241  12.055  18.056  13.992
44837W        W13242  33.100  23.801  14.323
44838W        W13243  14.961  15.169   4.737
44839W        W13244  10.144   9.300  12.051
44840W        W13245  13.231  13.783   1.695
44841W        W13246  36.087  29.411  10.607
44842W        W13247   4.853   7.149   5.307
44843W        W13248  34.429  25.743   0.857
44844W        W13249  36.430  18.385   2.946
44845W        W13250  16.710   2.775  14.927
44846W        W13251  22.464  40.732   3.634
44847W        W13252  42.424  16.879  11.965
44848W        W13253   7.446   2.462   3.088
44849W        W13254  32.839  41.095  13.461
44850W        W13255  37.921  36.071   9.972
44851W        W13256  19.708  14.389   4.652
44852W        W13257  33.445  15.764  14.936
44853W        W13258  39.066  43.380  13.799
44854W        W13259   5.302  29.511   1.181
44855W        W13260  30.683  14.680   2.849
44856W        W13261  41.605   7.869   4.529
44857W        W13262   0.139  36.784  11.558
44858W        W13263  39.503  13.533   1.911
44859W        W13264  42.446  41.901   3.473
44860W        W13265  19.803  32.481   4.405
44861W        W13266  43.033  36.620  12.541
44862W        W13267  11.133  19.635   2.784
44863W        W13268  37.901   5.371   1.387
44864W        W13269   9.741  41.075   3.764
44865W        W13270  42.510  12.116  13.846
44866W        W13271  25.919  28.011   1.715
44867W        W13272   7.262   7.354   2.845
44868W        W13273   3.678  10.799  10.952
44869W        W13274  41.014   2.259   1.413
44870W        W13275  25.197  17.073   2.399
44871W        W13276  27.659  25.043  11.381
44872W        W13277  27.728  32.362   4.490
44873W        W13278  11.206  14.363  11.344
44874W        W13279  18.204  31.574   9.803
44875W        W13280  17.388  10.772  14.204
44876W        W13281   3.905  42.117  14.518
44877W        W13282  26.782  29.157  11.133
44878W        W13283  11.077  25.677  14.499
44879W        W13284  41.518  30.753  14.099
44880W        W13285  10.931  32.666   4.907
44881W        W13286  17.545  12.135   3.909
44882W        W13287  42.008  21.120   0.305
44883W        W13288  15.226  36.864  10.689
44884W        W13289  31.160  36.953  14.751
44885W        W13290   8.128  36.635  13.430
44886W        W13291  10.895   3.518   4.647
44887W        W13292  24.682  16.848   1.364
44888W        W13293  39.329  15.211  14.318
44889W        W13294  25.248   0.916  14.828
44890W        W13295   8.885  30.992   3.113
44891W        W13296  38.061  15.628   1.437
44892W        W13297  33.154   8.251   2.179
44893W        W13298   9.475  13.962   0.093
44894W        W13299  43.898  38.001  12.221
44895W        W13300   6.588  33.310  13.494
44896W        W13301  22.169  18.460   2.737
44897W        W13302  13.242   0.437  14.510
44898W        W13303   8.657   2.759   2.232
44899W        W13304  10.599  25.496  13.556
44900W        W13305  34.466  44.714  12.477
44901W        W13306  31.435   3.543   1.914
44902W        W13307  22.278  20.087   1.451
44903W        W13308  28.146  39.964  12.908
44904W        W13309  41.055  23.896  14.302
44905W        W13310  40.141  31.225  11.023
44906W        W13311  36.044  13.069   0.069
44907W        W13312  33.891  18.592  10.579
44908W        W13313  12.241  26.469  13.404
44909W        W13314  10.349  19.145  11.282
44910W        W13315  39.159  12.175   0.878
44911W        W13316  24.227  39.415  10.739
44912W        W13317  19.277  11.576  11.594
44913W        W13318  12.975  25.078   1.625
44914W        W13319  28.240  32.530  11.096
44915W        W13320  42.038  12.759   1.838
44916W        W13321  29.603   4.823   0.255
44917W        W13322  33.106  27.404   3.995
44918W        W13323  24.810  16.853   0.563
44919W        W13324  37.559  29.645   3.659
44920W        W13325  36.286  22.363  13.253
44921W        W13326  38.955  31.352  10.773
44922W        W13327  43.510  12.709   0.989
44923W        W13328  21.239  31.076   3.661
44924W        W13329  23.099  42.119   2.295
44925W        W13330  31.646  32.812  11.234
44926W        W13331  36.381   1.019   2.679
44927W        W13332  30.623  14.186  14.529
44928W        W13333  38.848  44.500   3.156
44929W        W13334  32.423  26.078   2.368
44930W        W13335   8.256  24.523  11.024
44931W        W13336  19.473  21.561   1.224
44932W        W13337  22.450  17.866  11.230
44933W        W13338  29.240  41.348   2.310
44934W        W13339  34.119   3.984  14.873
44935W        W13340  15.722  25.954  12.876
44936W        W13341  24.947  27.189  11.256
44937W        W13342  37.412  25.858  13.185
44938W        W13343  40.051   6.363  13.345
44939W        W13344  43.344   7.194   2.666
44940W        W13345  26.942   2.798  10.738
44941W        W13346  38.043  12.282  11.198
44942W        W13347  36.577   5.422  14.980
44943W        W13348  12.033  15.803  14.648
44944W        W13349  11.269  30.082  11.880
44945W        W13350  12.154   6.818   2.424
44946W        W13351  37.021  26.088   4.076
44947W        W13352  13.376  27.340   0.485
44948W        W13353  28.638   4.901   3.852
44949W        W13354  12.811   7.871  13.476
44950W        W13355  18.297  41.423   0.779
44951W        W13356  33.006  37.028   4.179
44952W        W13357  26.593  43.537  13.374
44953W        W13358  32.418  17.762   3.566
44954W        W13359  16.910  42.578   9.928
44955W        W13360  16.483  30.297  14.837
44956W        W13361   4.111  18.112   4.216
44957W        W13362  40.179   7.096   0.627
44958W        W13363  31.967  12.653   1.288
44959W        W13364  36.681   8.200  11.914
44960W        W13365  25.254   4.455   3.776
44961W        W13366  39.055  30.296  12.583
44962W        W13367  30.024  21.533   3.083
44963W        W13368  39.339   0.763  14.873
44964W        W13369  29.886  22.057   0.868
44965W        W13370  15.856  37.906  11.315
44966W        W13371  19.786  44.214   4.258
44967W        W13372   0.078   7.817  13.915
44968W        W13373  12.893  13.641   3.260
44969W        W13374  25.842  28.926   0.816
44970W        W13375  37.213  34.850   4.214
44971W        W13376  29.037   1.610   1.337
44972W        W13377  40.345   3.676  13.401
44973W        W13378  33.485  21.548  10.625
44974W        W13379  30.910   1.014  14.969
44975W        W13380  12.177   7.312   4.863
44976W        W13381  19.838   8.171   4.565
44977W        W13382  29.967  12.203   4.701
44978W        W13383  28.522  11.702  14.068
44979W        W13384  17.038  14.530  12.379
44980W        W13385  43.739   4.763  13.171
44981W        W13386  41.502  17.840  12.190
44982W        W13387  44.394  16.387   4.096
44983W        W13388  43.458  38.648   0.037
44984W        W13389  40.897  43.265   3.218
44985W        W13390  36.436   7.811  14.327
44986W        W13391   2.410  21.443  12.557
44987W        W13392  21.909   9.209   2.347
44988W        W13393  33.371  38.405   1.286
44989W        W13394  24.169  23.704   3.166
44990W        W13395  33.327  36.483   3.695
44991W        W13396  36.038  27.192   2.260
44992W        W13397  36.357  21.025   2.733
44993W        W13398   0.712  21.724  11.366
44994W        W13399  23.154  26.788   2.607
44995W        W13400  30.314  10.217   2.787
44996W        W13401  18.647   3.724   3.898
44997W        W13402  11.195  29.059   0.009
44998W        W13403  27.741   0.317  12.912
44999W        W13404   0.766  43.525  11.644
45000W        W13405   8.191  35.445  10.727
45001W        W13406   1.053   9.847  10.573
45002W        W13407   7.274  44.267  12.977
45003W        W13408   3.676  11.764  11.438
45004W        W13409  36.585   0.353  14.070
45005W        W13410  30.465  34.117   0.736
45006W        W13411  39.540  23.970  10.575
45007W        W13412  19.804  19.647  12.906
45008W        W13413  40.127  39.952  12.069
45009W        W13414  20.771  11.468  11.942
45010W        W13415  29.352  44.722  12.992
45011W        W13416   5.881  19.630   2.076
45012W        W13417  26.081  21.506   2.210
45013W        W13418  27.187  28.533  10.616
45014W        W13419  26.892  16.552  12.668
45015W        W13420  22.294  32.845  11.328
45016W        W13421  10.130  35.860   3.704
45017W        W13422  18.137  35.041   4.003
45018W        W13423  20.109   2.852  12.469
45019W        W13424  31.341  35.970   1.645
45020W        W13425  39.307  32.438  10.984
45021W        W13426  31.506  14.717  13.011
45022W        W13427  30.038  33.018  11.061
45023W        W13428  27.860   7.861  11.303
45024W        W13429  24.707  33.078   2.886
45025W        W13430  43.511   9.943  14.345
45026W        W13431  11.932  13.821   3.587
45027W        W13432  19.585   8.428  14.321
45028W        W13433  39.700  43.544  10.415
45029W        W13434  40.664   7.192   3.562
45030W        W13435   2.278  37.880   4.549
45031W        W13436  36.991  39.460   3.701
45032W        W13437  13.557  13.448  12.753
45033W        W13438  23.183  20.771   2.807
45034W        W13439  22.767   7.333  10.998
45035W        W13440  24.720  13.326  11.614
45036W        W13441  21.108   6.196  13.417
45037W        W13442  31.390  42.497  14.032
45038W        W13443  28.916  12.476   0.281
45039W        W13444  39.413  14.752  10.687
45040W        W13445  30.946   3.217  14.106
45041W        W13446  34.969   7.678   3.633
45042W        W13447   3.485   8.884   0.442
45043W        W13448  19.187   5.938   3.795
45044W        W13449  17.684  29.093  14.497
45045W        W13450   9.376  20.671  13.489
45046W        W13451  13.248  19.422  12.045
45047W        W13452   6.372   6.378  11.583
45048W        W13453  19.589  32.934  13.332
45049W        W13454  35.601  27.120  12.182
45050W        W13455  42.389   4.950   1.400
45051W        W13456   9.734  17.844  13.147
45052W        W13457  16.281  32.956  11.547
45053W        W13458  24.737  37.356   2.330
45054W        W13459  34.513  30.066   3.414
45055W        W13460   7.739  20.431   1.728
45056W        W13461   5.484   7.915   2.852
45057W        W13462  10.969  22.055   0.868
45058W        W13463  28.587  18.164  10.130
45059W        W13464  37.083  13.696  14.428
45060W        W13465  11.566  42.780  13.395
45061W        W13466   9.747  16.056  11.575
45062W        W13467  38.193   1.404  10.660
45063W        W13468  29.754   6.830  13.593
45064W        W13469  13.599  10.871  13.504
45065W        W13470  15.104  12.395  12.475
45066W        W13471   6.397  26.024  13.052
45067W        W13472  12.404  42.244   2.715
45068W        W13473  31.267  44.800   2.249
45069W        W13474  41.494  30.857   3.828
45070W        W13475  28.505   9.862   4.599
45071W        W13476   3.900  34.794  13.107
45072W        W13477  18.263  38.030   0.939
45073W        W13478  12.860  24.099   0.029
45074W        W13479  13.348   3.159  13.911
45075W        W13480  35.329   5.496   0.739
45076W        W13481  37.135  33.187   0.692
45077W        W13482  31.527  40.987   2.238
45078W        W13483   0.529   8.095  13.786
45079W        W13484   7.708  13.885  11.536
45080W        W13485  36.101  44.890  12.960
45081W        W13486   2.681  33.463   0.661
45082W        W13487  38.800   2.736  12.023
45083W        W13488  36.444  32.546  13.828
45084W        W13489  32.541   2.796  11.483
45085W        W13490  16.351  13.607  11.498
45086W        W13491  44.935  17.126   4.093
45087W        W13492  16.287  12.328   4.483
45088W        W13493  38.165  23.502  13.617
45089W        W13494  25.732  22.830   1.355
45090W        W13495  36.034  36.787   1.387
45091W        W13496  24.259  10.776   3.286
45092W        W13497  11.331  41.875   3.270
45093W        W13498  17.001  30.167   4.784
45094W        W13499   3.575   5.332  14.392
45095W        W13500  29.805  33.024   1.144
45096W        W13501  33.852   8.816  11.515
45097W        W13502   6.169  17.668  12.550
45098W        W13503   4.420  42.562  13.917
45099W        W13504  35.591  15.545   1.233
45100W        W13505  41.371  16.060   3.333
45101W        W13506  42.853  19.672   4.978
45102W        W13507  34.047  39.912   3.698
45103W        W13508  20.514  38.838   1.331
45104W        W13509  42.636  28.945  11.974
45105W        W13510  10.066  34.438   3.800
45106W        W13511  33.894  32.161   0.423
45107W        W13512  23.448  11.507  11.186
45108W        W13513  19.598  15.013   2.883
45109W        W13514  18.486  32.017  13.426
45110W        W13515  14.298  27.469   2.716
45111W        W13516  44.211   4.746  11.557
45112W        W13517  13.009  33.449   1.330
45113W        W13518  17.966   9.656  11.643
45114W        W13519  25.938   3.219   2.226
45115W        W13520  41.248   3.127   3.336
45116W        W13521   8.423  11.795   0.768
45117W        W13522  14.075  10.767   4.209
45118W        W13523  12.926  43.896   0.720
45119W        W13524  23.083   6.276   2.674
45120W        W13525  27.565  22.273  14.567
45121W        W13526  20.571  36.043   2.851
45122W        W13527  33.394  22.441  14.342
45123W        W13528  27.243  35.364  12.199
45124W        W13529   0.303  26.724  13.021
45125W        W13530   2.945  28.564   2.359
45126W        W13531   3.897  39.447  12.093
45127W        W13532  44.778  39.123   2.679
45128W        W13533   4.630  33.764  10.196
45129W        W13534  22.994  32.970  11.989
45130W        W13535  43.768  15.702   0.712
45131W        W13536   0.483  16.540   0.906
45132W        W13537  33.922  42.216   1.401
45133W        W13538  12.707  27.040   3.764
45134W        W13539  10.149   2.446   2.736
45135W        W13540  17.196   3.237   2.287
45136W        W13541  28.983  26.659  10.377
45137W        W13542  42.122  39.490  14.053
45138W        W13543  44.761  19.560  10.467
45139W        W13544  17.511  35.990  14.324
45140W        W13545   8.741  13.428   3.915
45141W        W13546  14.938   2.810   4.016
45142W        W13547   2.866  34.941   0.026
45143W        W13548  25.991  12.261  14.777
45144W        W13549   3.740   0.399  10.505
45145W        W13550  17.234  39.385  14.513
45146W        W13551   3.818  24.236   0.694
45147W        W13552  20.222   8.804   5.205
45148W        W13553   9.876   9.412   0.726
45149W        W13554  19.053  21.303  14.895
45150W        W13555  22.504  31.482   0.915
45151W        W13556  19.676  34.173   0.520
45152W        W13557  20.302   8.117   4.762
45153W        W13558   7.962   7.137   2.312
45154W        W13559  29.110  10.390   0.507
45155W        W13560   7.739  38.881   3.719
45156W        W13561  22.529  10.153  14.068
45157W        W13562  31.926  43.603   3.278
45158W        W13563  33.331   8.681   1.973
45159W        W13564  38.625  40.909   2.053
45160W        W13565  43.593  12.123  10.783
45161W        W13566  22.545   0.547  14.437
45162W        W13567  30.199   4.467   1.704
45163W        W13568   3.067  40.748  11.107
45164W        W13569  44.470  18.598   0.401
45165W        W13570  33.190   2.727  12.849
45166W        W13571  23.057   4.153   2.133
45167W        W13572  21.170  28.463   3.589
45168W        W13573  40.255  35.074  14.484
45169W        W13574  22.240  23.924  12.416
45170W        W13575  20.641  44.905   1.700
45171W        W13576  28.363  24.069  11.203
45172W        W13577   2.874  16.042   3.757
45173W        W13578  40.526   8.597  12.847
45174W        W13579   6.806  31.635   1.780
45175W        W13580  16.035  19.901  12.921
45176W        W13581  43.437  43.801  10.890
45177W        W13582  39.360  34.874  13.099
45178W        W13583   1.705   8.949  14.164
45179W        W13584  27.401   0.824  13.488
45180W        W13585  39.019  18.610   2.977
45181W        W13586  44.468  33.089   1.284
45182W        W13587  18.601  43.209  11.045
45183W        W13588   4.998  40.576   4.272
45184W        W13589   4.771  23.350   2.404
45185W        W13590  37.340  24.500   4.765
45186W        W13591   3.233  15.820  13.353
45187W        W13592  40.680  33.425  12.309
45188W        W13593  29.861  14.694   0.422
45189W        W13594  43.047  19.140  10.990
45190W        W13595  38.868   0.793   0.929
45191W        W13596  30.828   6.375   4.135
45192W        W13597  10.798  29.930   0.879
45193W        W13598  32.630  36.947   2.859
45194W        W13599   6.282  12.366   3.815
45195W        W13600   9.607   4.334   4.422
45196W        W13601   0.574  36.452  12.990
45197W        W13602  20.027   0.321  11.129
45198W        W13603  10.850  35.502  10.606
45199W        W13604  19.626   0.718   0.808
45200W        W13605  33.833   0.560   0.434
45201W        W13606  34.634  26.450   3.637
45202W        W13607  32.879  40.134  12.694
45203W        W13608  34.797  21.320  10.341
45204W        W13609  38.913  26.243  12.367
45205W        W13610   8.647   6.448   0.909
45206W        W13611   9.354   5.953   3.719
45207W        W13612  22.774  14.527   0.028
45208W        W13613  25.400  16.618   1.759
45209W        W13614  23.036   8.399   3.330
45210W        W13615  27.820  44.463   2.825
45211W        W13616  18.635  13.696   3.586
45212W        W13617  14.607  43.065   2.814
45213W        W13618  11.626  22.505  12.985
45214W        W13619   1.841  26.242   3.161
45215W        W13620  25.197  28.941  13.154
45216W        W13621  37.608  30.587   1.455
45217W        W13622  10.667   7.810   2.429
45218W        W13623  27.551  38.078   3.230
45219W        W13624  43.936  11.776   2.342
45220W        W13625  42.682  44.727   2.645
45221W        W13626  44.985  21.653  12.086
45222W        W13627  13.660   8.200  11.988
45223W        W13628  32.080  43.040   2.090
45224W        W13629  13.235  41.468  12.910
45225W        W13630  24.227  36.094  11.192
45226W        W13631   1.517  28.472   4.038
45227W        W13632  42.292  30.538   1.119
45228W        W13633  20.825  26.921   1.383
45229W        W13634  35.015  22.186   2.898
45230W        W13635  18.543   9.334   4.127
45231W        W13636  30.023  35.636   2.735
45232W        W13637  44.798   4.358  12.625
45233W        W13638  42.508   7.254  10.385
45234W        W13639   5.825  14.068  12.879
45235W        W13640  18.056  34.729   3.582
45236W        W13641  38.817  30.610  12.939
45237W        W13642   2.024  32.989  11.549
45238W        W13643  10.751  35.943  12.906
45239W        W13644  28.840  36.429   0.784
45240W        W13645  15.094   2.385  11.661
45241W        W13646  10.265   5.742   2.410
45242W        W13647  22.541  36.211  12.621
45243W        W13648  35.861  44.260   1.395
45244W        W13649   7.938  10.380   3.735
45245W        W13650  16.851  28.959   1.412
45246W        W13651  32.110  23.282   0.485
45247W        W13652  41.295  36.459   1.935
45248W        W13653  40.705  19.117  13.248
45249W        W13654  39.358  18.438   1.615
45250W        W13655   1.716  34.981  14.449
45251W        W13656  36.440  22.036  13.952
45252W        W13657  30.539  37.281  11.671
45253W        W13658  26.006  17.610  10.852
45254W        W13659  41.928  30.914   1.321
45255W        W13660  37.943  14.890  13.879
45256W        W13661  13.025  13.252   2.920
45257W        W13662  27.506  32.492   0.369
45258W        W13663   8.502  28.616   1.315
45259W        W13664  39.646  40.637  13.890
45260W        W13665  31.004   4.948   0.934
45261W        W13666  24.117  35.261   1.561
45262W        W13667   0.090  38.868  11.329
45263W        W13668  35.904  31.461  11.542
45264W        W13669  20.821  38.062   1.865
45265W        W13670  20.994  38.116  12.172
45266W        W13671  10.084  21.650  14.225
45267W        W13672  12.367  35.991   0.710
45268W        W13673  24.952  37.363  13.612
45269W        W13674  39.070  10.692  13.329
45270W        W13675  37.263  11.863   4.172
45271W        W13676   2.137  20.965  12.520
45272W        W13677  14.279   2.675  13.828
45273W        W13678  20.349  37.012   4.574
45274W        W13679   9.590   9.382   4.911
45275W        W13680  36.049  19.108  11.359
45276W        W13681  27.686  35.355   1.593
45277W        W13682  29.078  10.870  11.736
45278W        W13683   9.735  10.309   4.656
45279W        W13684   7.961  38.855  12.531
45280W        W13685  31.101  26.084   0.163
45281W        W13686  37.904  13.540  12.005
45282W        W13687  20.305  27.107   2.319
45283W        W13688  27.034   3.037   4.182
45284W        W13689  38.844  34.637  10.651
45285W        W13690  25.434  10.168   3.611
45286W        W13691   5.136  38.043  11.645
45287W        W13692  34.022   8.885   1.334
45288W        W13693  23.204  13.792   4.244
45289W        W13694  10.553  44.894  12.560
45290W        W13695  40.634  40.680  14.579
45291W        W13696  25.778  18.384   3.708
45292W        W13697   9.842  33.001   1.746
45293W        W13698  42.963  30.341  14.558
45294W        W13699  29.444  24.554  13.840
45295W        W13700  44.017  40.039   0.205
45296W        W13701   6.829   3.172   1.910
45297W        W13702  19.290  17.854  12.395
45298W        W13703  23.063   2.431   1.901
45299W        W13704   0.855   0.406   2.354
45300W        W13705  38.869  40.822   4.762
45301W        W13706  32.966  29.445   2.839
45302W        W13707  32.174  37.605   3.156
45303W        W13708  20.325  42.524  12.039
45304W        W13709  40.466   7.231   1.020
45305W        W13710  15.295  11.443  12.887
45306W        W13711  39.369   9.398   3.232
45307W        W13712  22.945  31.198   0.953
45308W        W13713  19.750  19.526   0.490
45309W        W13714  27.355  28.857  13.021
45310W        W13715  42.415   6.711  13.309
45311W        W13716   6.393  43.706  12.868
45312W        W13717  31.523  15.090  11.979
45313W        W13718   4.326  28.644   0.294
45314W        W13719  36.565  18.070   0.553
45315W        W13720   7.792  43.747  14.888
45316W        W13721   2.689  38.610  12.573
45317W        W13722  42.974  38.970   1.405
45318W        W13723  24.009  33.183  11.752
45319W        W13724   7.797  18.202   1.905
45320W        W13725   8.979  41.001  14.433
45321W        W13726  27.662  12.853  10.384
45322W        W13727  39.935  22.222   4.623
45323W        W13728  25.553  26.446  11.206
45324W        W13729  20.586  27.578   2.412
45325W        W13730   8.560  19.473  11.640
45326W        W13731  17.199  42.917  11.385
45327W        W13732  12.341  14.941  10.119
45328W        W13733  41.043  41.836  14.419
45329W        W13734  10.616  14.517   3.847
45330W        W13735   3.508  32.650   3.168
45331W        W13736  18.837  20.001  13.376
45332W        W13737  35.925  35.546   2.732
45333W        W13738  21.551  10.864  12.950
45334W        W13739  44.407   7.319  13.479
45335W        W13740  30.358  14.838  10.889
45336W        W13741  36.993  27.485  13.251
45337W        W13742  30.599  44.438   2.734
45338W        W13743  40.475   3.655   4.018
45339W        W13744  26.643  43.240  14.769
45340W        W13745  23.967  29.481  12.936
45341W        W13746  40.063  19.827   2.157
45342W        W13747  39.125  14.404   4.230
45343W        W13748  28.842  21.111   0.254
45344W        W13749  19.205  39.781   0.477
45345W        W13750  30.036   1.410   3.092
45346W        W13751   3.420  22.014   1.824
45347W        W13752  44.994   3.317   2.841
45348W        W13753  38.529   4.809   3.657
45349W        W13754  40.851  37.746   2.120
45350W        W13755  11.706  19.608   0.006
45351W        W13756  13.761  14.413   2.019
45352W        W13757  10.982  34.778   3.820
45353W        W13758  31.670  18.108   4.195
45354W        W13759  35.822  33.534  11.218
45355W        W13760   3.514  16.989   1.252
45356W        W13761  30.177  11.313   2.391
45357W        W13762  10.188   1.300   0.947
45358W        W13763  39.234  14.030  14.835
45359W        W13764  16.039   8.933  13.419
45360W        W13765  38.931  15.651   1.444
45361W        W13766  24.104   8.246   2.627
45362W        W13767   0.776   8.337  11.732
45363W        W13768  43.986  16.879   1.787
45364W        W13769  21.122  22.530   3.680
45365W        W13770   5.390   4.992  11.890
45366W        W13771  24.552  22.156   4.453
45367W        W13772  39.045  40.801   2.353
45368W        W13773   0.040  28.683  11.588
45369W        W13774  38.943  43.978   3.324
45370W        W13775   4.452   1.894  13.735
45371W        W13776   4.774  10.024  10.884
45372W        W13777  22.244  25.032  12.456
45373W        W13778  16.361  22.193  12.323
45374W        W13779  15.748  15.871  14.194
45375W        W13780   7.331  27.160   0.530
45376W        W13781  34.543  16.163   4.119
45377W        W13782  32.094   3.577   3.291
45378W        W13783  42.684  33.445   3.959
45379W        W13784  36.822   8.911  12.963
45380W        W13785  37.628  22.062   3.721
45381W        W13786  11.155  38.425   0.652
45382W        W13787  38.356  18.103   0.058
45383W        W13788  40.373  24.296  14.834
45384W        W13789   1.365  40.671  12.053
45385W        W13790  16.219   6.184   0.662
45386W        W13791  25.508  11.088   2.859
45387W        W13792   1.416  32.867  10.759
45388W        W13793   9.930  39.867  14.487
45389W        W13794  32.645  43.843  13.990
45390W        W13795   0.090  36.965   0.381
45391W        W13796  34.084  34.474  11.393
45392W        W13797   9.798   6.424  13.956
45393W        W13798  21.307   4.746   1.785
45394W        W13799  43.252   2.426   1.826
45395W        W13800  36.587  29.405  10.700
45396W        W13801  36.363  13.346   3.654
45397W        W13802   1.250  39.867   4.873
45398W        W13803  15.018  34.096   0.893
45399W        W13804  36.940   2.282  12.580
45400W        W13805  23.426  36.349   0.348
45401W        W13806  21.684  40.277   1.713
45402W        W13807  34.098  17.762   3.351
45403W        W13808  34.286  27.841  14.459
45404W        W13809  40.385   3.675   3.389
45405W        W13810  36.685  18.936   0.886
45406W        W13811   6.749  37.430  14.371
45407W        W13812  23.477  34.506   2.367
45408W        W13813  33.149  22.947   3.928
45409W        W13814  35.278  25.133   2.324
45410W        W13815  16.511  24.441  12.551
45411W        W13816  17.993  24.553   3.311
45412W        W13817  26.739   8.232   0.743
45413W        W13818  40.466  37.116  11.388
45414W        W13819   0.229   9.127   2.307
45415W        W13820   5.273  38.412   0.273
45416W        W13821   5.729   1.707   3.356
45417W        W13822  42.861  33.291   0.322
45418W        W13823  40.526  40.395   2.232
45419W        W13824  22.192  15.285  11.797
45420W        W13825  19.957  25.602   1.316
45421W        W13826  14.808  16.431   1.264
45422W        W13827  39.068  16.559  13.779
45423W        W13828  42.465   2.100   0.971
45424W        W13829  17.672   7.121  11.131
45425W        W13830  19.675  33.036  11.592
45426W        W13831  23.055   1.254  14.730
45427W        W13832  21.613   6.847  14.457
45428W        W13833  21.754  38.141  10.763
45429W        W13834  25.240  20.728  11.251
45430W        W13835  12.605  36.110  12.433
45431W        W13836  31.528  24.724   2.708
45432W        W13837   9.105  25.406   0.845
45433W        W13838  16.310   9.350  11.722
45434W        W13839  22.651  29.013  13.849
45435W        W13840  11.876   2.248   1.500
45436W        W13841  32.495   2.369  14.076
45437W        W13842  15.122   0.738   3.877
45438W        W13843  18.093  14.949  11.062
45439W        W13844   1.111  37.098   3.199
45440W        W13845  26.044  39.431  11.709
45441W        W13846  20.763  29.634  12.493
45442W        W13847  40.037  10.690  13.248
45443W        W13848  24.740  14.761   3.634
45444W        W13849  38.410   4.978   1.773
45445W        W13850  17.783  37.430  13.750
45446W        W13851  32.342   4.212  10.187
45447W        W13852  27.654  25.140   0.701
45448W        W13853  44.886  24.265   2.669
45449W        W13854  36.040  12.579   0.267
45450W        W13855  31.611  19.828  11.444
45451W        W13856  40.708  35.732  13.893
45452W        W13857  44.111  35.056   4.547
45453W        W13858  24.173   7.315   3.116
45454W        W13859   1.160  28.751  12.541
45455W        W13860   1.309  26.033  14.532
45456W        W13861  32.541  36.778   4.211
45457W        W13862  12.357  37.457  12.943
45458W        W13863   5.486  24.678   1.193
45459W        W13864   2.336  20.019  12.683
45460W        W13865  12.929  34.603  12.469
45461W        W13866   2.771  11.611   4.348
45462W        W13867  14.299  35.551   2.701
45463W        W13868  12.873  10.171  12.540
45464W        W13869  11.909   8.373   2.292
45465W        W13870  10.080  23.807   3.355
45466W        W13871   4.578  26.546  10.271
45467W        W13872  28.733  13.175   4.555
45468W        W13873  41.949  40.144   1.356
45469W        W13874   0.235  43.056   3.552
45470W        W13875  24.170   5.878   2.498
45471W        W13876  41.548  10.310  10.199
45472W        W13877   1.421  12.385   1.486
45473W        W13878  36.192   9.360   2.144
45474W        W13879  40.251   5.148  13.255
45475W        W13880  39.531   1.973   1.708
45476W        W13881  23.428  41.977   3.369
45477W        W13882  29.418  28.690   5.123
45478W        W13883   3.286  14.618   3.833
45479W        W13884  31.571  37.518   1.095
45480W        W13885  44.037   0.761   4.678
45481W        W13886  20.123  14.340   2.648
45482W        W13887  36.942  41.096  13.490
45483W        W13888  36.122  11.440   3.702
45484W        W13889   3.665  29.116  12.811
45485W        W13890  15.838   7.249  13.528
45486W        W13891  18.313   5.647   3.208
45487W        W13892  25.343  40.057  11.360
45488W        W13893  41.443  18.177   4.353
45489W        W13894  23.158  30.952   1.974
45490W        W13895  44.786   9.363   9.874
45491W        W13896  37.525   8.414   2.371
45492W        W13897  13.739  39.186  12.594
45493W        W13898  10.680   8.348  13.246
45494W        W13899  10.270  41.786   3.747
45495W        W13900   2.224   5.623  13.764
45496W        W13901   1.743  24.098   3.328
45497W        W13902   7.643   0.347   3.185
45498W        W13903  15.740  22.228  10.869
45499W        W13904   1.586  19.542  12.401
45500W        W13905   1.779  37.761  13.781
45501W        W13906  17.247  24.467   3.766
45502W        W13907  27.726  29.728  11.059
45503W        W13908  16.057  22.543   1.851
45504W        W13909  37.051   2.416   2.900
45505W        W13910  25.105  12.669   1.425
45506W        W13911   5.415  38.465   1.890
45507W        W13912  10.553   2.876   3.646
45508W        W13913   6.256  14.200  13.949
45509W        W13914  13.775   7.634  13.750
45510W        W13915  40.012  43.516  13.971
45511W        W13916  15.760  16.737   0.977
45512W        W13917  23.071  39.114  11.469
45513W        W13918  19.037  18.544   2.150
45514W        W13919   9.658  22.522   4.629
45515W        W13920  31.955   6.791   3.433
45516W        W13921   1.480  23.669   3.650
45517W        W13922  19.896  31.527   2.268
45518W        W13923  22.540  28.988   1.480
45519W        W13924   5.486   9.818  10.823
45520W        W13925  25.082  20.105   3.297
45521W        W13926  27.566  16.019  13.051
45522W        W13927  13.680  25.546   2.031
45523W        W13928  14.061  32.545  10.026
45524W        W13929  17.623  38.788   0.823
45525W        W13930  12.288  44.314   2.219
45526W        W13931  30.943  29.621   1.181
45527W        W13932  20.909  28.966  13.242
45528W        W13933  26.990  43.257  13.540
45529W        W13934  42.931   0.249  13.055
45530W        W13935  31.371   6.359   4.640
45531W        W13936  43.242  38.888   2.798
45532W        W13937  36.554  12.031   3.125
45533W        W13938  27.360  24.238   2.250
45534W        W13939  14.154  42.696   3.571
45535W        W13940  25.124  11.270   0.832
45536W        W13941  40.329  37.513   3.640
45537W        W13942   2.893  44.308   0.829
45538W        W13943  40.939   5.217   2.835
45539W        W13944  35.177  27.390  12.924
45540W        W13945   5.240  42.804   4.715
45541W        W13946  19.509  15.641  14.851
45542W        W13947  28.252   7.263   2.349
45543W        W13948  34.595  24.057   1.192
45544W        W13949  42.070  10.142  13.342
45545W        W13950   1.234  32.715   1.211
45546W        W13951  29.069  28.045  10.529
45547W        W13952  21.191  24.815  12.557
45548W        W13953  44.251  12.371  12.614
45549W        W13954  28.125  14.840  14.919
45550W        W13955  12.902  39.027  11.249
45551W        W13956  23.768  11.274  14.418
45552W        W13957  42.983  33.190  12.421
45553W        W13958  32.462  29.146  11.088
45554W        W13959  10.106  12.811  13.399
45555W        W13960  25.469  25.438   3.340
45556W        W13961  39.501  37.566   4.618
45557W        W13962  32.393  33.024  13.458
45558W        W13963  10.713  15.836  10.864
45559W        W13964  40.002  31.155  12.251
45560W        W13965  17.055  24.641  11.610
45561W        W13966  37.654  12.923   1.803
45562W        W13967  32.754  11.190  14.855
45563W        W13968  20.656  29.419   1.913
45564W        W13969  27.615  32.168   2.782
45565W        W13970  28.177  41.844   0.474
45566W        W13971  12.577  31.069  14.384
45567W        W13972   8.658  21.795   1.269
45568W        W13973   8.365  16.593  14.994
45569W        W13974  39.671  41.696   0.950
45570W        W13975  12.094  12.544  10.787
45571W        W13976  23.666  39.868   2.209
45572W        W13977   1.688   4.184   0.786
45573W        W13978  30.350  33.205  11.773
45574W        W13979  20.577  27.745  14.416
45575W        W13980  43.636  34.370   4.122
45576W        W13981   0.006   1.631  11.294
45577W        W13982  38.303  22.652   0.843
45578W        W13983  11.371  38.939  10.922
45579W        W13984  30.765  39.919  14.482
45580W        W13985  28.307  34.269   2.289
45581W        W13986  30.411  20.166   1.111
45582W        W13987  44.270  37.249  11.811
45583W        W13988  31.815   1.219  13.945
45584W        W13989  39.873   8.788  14.364
45585W        W13990  32.509  13.751  13.062
45586W        W13991  33.078  13.814   0.320
45587W        W13992  29.115  40.786   1.661
45588W        W13993  43.157  37.783   1.734
45589W        W13994  19.666  41.270  11.079
45590W        W13995  28.480  15.036  10.555
45591W        W13996  36.485  21.077  13.039
45592W        W13997   0.209  13.903   2.674
45593W        W13998  19.576  26.235  14.975
45594W        W13999  40.717  18.971  14.687
45595W        W14000   1.283  41.609  10.415
45596W        W14001  39.017  12.431   2.260
45597W        W14002  32.260  12.556   3.093
45598W        W14003  34.470  17.110   0.503
45599W        W14004  36.126  30.618  13.956
45600W        W14005  39.816  35.508   4.534
45601W        W14006  24.369   4.449  11.938
45602W        W14007  20.211  35.385   4.400
45603W        W14008  41.512  34.077   3.765
45604W        W14009   3.716   6.873   3.257
45605W        W14010  37.417   1.715   2.146
45606W        W14011  44.479  42.715  10.701
45607W        W14012  37.950  21.711   2.864
45608W        W14013  16.780  15.853   1.784
45609W        W14014  26.335  32.518  10.497
45610W        W14015  23.624  25.913  13.281
45611W        W14016  19.350  14.066   0.383
45612W        W14017  13.909   3.835   3.100
45613W        W14018   1.186  34.112  10.770
45614W        W14019  31.407  24.600  11.612
45615W        W14020  21.009   7.510   5.083
45616W        W14021  28.779  44.874   1.652
45617W        W14022  28.997  35.360   2.439
45618W        W14023  18.192  31.032  10.735
45619W        W14024   7.702  10.441  10.017
45620W        W14025  10.159  27.490   0.357
45621W        W14026  11.688  27.220  14.869
45622W        W14027  40.495  43.491  13.333
45623W        W14028  16.801  44.771   4.655
45624W        W14029   0.499  43.568   0.351
45625W        W14030  29.365  10.211  12.796
45626W        W14031   0.306   0.881   0.059
45627W        W14032  38.876  16.837   2.231
45628W        W14033   0.721   6.775  11.933
45629W        W14034  35.475   9.327  13.303
45630W        W14035   7.784   9.668  12.255
45631W        W14036  18.801  43.282   2.327
45632W        W14037  37.632  29.088   0.337
45633W        W14038  15.621  13.360   2.244
45634W        W14039  31.466  21.116  11.109
45635W        W14040  43.268  43.129  10.232
45636W        W14041  20.058  22.997  11.030
45637W        W14042  37.919   4.691   0.264
45638W        W14043  28.835  43.962   0.357
45639W        W14044  24.148  16.238   0.810
45640W        W14045  18.572  43.992  11.615
45641W        W14046  21.309  28.954   0.825
45642W        W14047   7.812  35.009  11.145
45643W        W14048   7.662  16.198   2.421
45644W        W14049   6.244  42.007   4.605
45645W        W14050  33.872  39.246   3.534
45646W        W14051  22.761   6.399  12.107
45647W        W14052  13.828  34.355  13.989
45648W        W14053  41.000   5.979   3.165
45649W        W14054  20.112  34.532   0.227
45650W        W14055  18.001  27.016  12.806
45651W        W14056  25.750  18.547  10.732
45652W        W14057  36.042  27.908   2.821
45653W        W14058   6.973  38.269  14.134
45654W        W14059  16.153   5.394   1.858
45655W        W14060  19.442  35.773   4.555
45656W        W14061  43.671  36.890  11.980
45657W        W14062   6.842   6.018   3.539
45658W        W14063  38.807  41.306  14.348
45659W        W14064  43.986   8.918  13.845
45660W        W14065  33.856  15.246   3.609
45661W        W14066  39.063  13.295  14.421
45662W        W14067  33.211   7.739   1.017
45663W        W14068  20.081  16.007   3.615
45664W        W14069  31.242  39.106  12.866
45665W        W14070  40.515  15.466  13.821
45666W        W14071  16.215  15.150   1.717
45667W        W14072  13.787  12.135   3.683
45668W        W14073  44.880   9.665   3.390
45669W        W14074   9.114  18.022  14.435
45670W        W14075  28.169   3.152   1.475
45671W        W14076  43.026  20.693  14.904
45672W        W14077  25.200  24.628  14.445
45673W        W14078   5.845  39.696  11.650
45674W        W14079  35.402  18.648   3.716
45675W        W14080  23.610  39.985   4.022
45676W        W14081  44.926  26.500   2.398
45677W        W14082  27.717  21.257  10.040
45678W        W14083  24.979  13.507  13.408
45679W        W14084  29.116   9.331  14.982
45680W        W14085  41.522  20.026  12.378
45681W        W14086  19.480  16.576  14.904
45682W        W14087  13.909  16.796  13.942
45683W        W14088  19.652  11.878   4.316
45684W        W14089  35.486   5.255  11.464
45685W        W14090  29.561  31.183  10.717
45686W        W14091  35.389   7.303   0.305
45687W        W14092  18.267  28.214   0.729
45688W        W14093   1.133  25.082  12.631
45689W        W14094  15.964  36.828   1.016
45690W        W14095  25.608  40.023   1.425
45691W        W14096  32.873  13.567   3.823
45692W        W14097  31.018  12.279   0.685
45693W        W14098  12.291  33.523   1.019
45694W        W14099  38.917  21.304  14.482
45695W        W14100  33.025   7.741   3.314
45696W        W14101  35.455   0.002  12.867
45697W        W14102  31.703   7.702  12.947
45698W        W14103  21.105  31.913  13.428
45699W        W14104  18.239  12.426  12.005
45700W        W14105  20.525   9.603   1.769
45701W        W14106  24.547  12.843   1.726
45702W        W14107  27.000  23.841  11.239
45703W        W14108  19.685  25.939  11.972
45704W        W14109  42.703   1.896  14.780
45705W        W14110  36.733  31.444  10.878
45706W        W14111  23.280  34.317  11.498
45707W        W14112  25.269  36.578  12.036
45708W        W14113  38.627  21.068   4.080
45709W        W14114  40.177  12.650   4.901
45710W        W14115  35.487  32.151   4.803
45711W        W14116  44.937  35.145   3.115
45712W        W14117   7.286   0.872   1.391
45713W        W14118  35.817  23.211   1.539
45714W        W14119  19.194  17.133   1.344
45715W        W14120   3.222  16.216   4.602
45716W        W14121   9.456  42.757   0.915
45717W        W14122  20.956  14.704   0.865
45718W        W14123   6.423  28.947  10.310
45719W        W14124  36.617   2.856   4.140
45720W        W14125  33.070  39.004   2.114
45721W        W14126   1.240  28.702   3.673
45722W        W14127   9.891  18.197   9.828
45723W        W14128  20.084  40.829   3.638
45724W        W14129  27.162  43.269   4.009
45725W        W14130  18.565  39.897   3.563
45726W        W14131  44.405  15.456   4.553
45727W        W14132  43.537   2.072   2.761
45728W        W14133  25.489  24.682   4.427
45729W        W14134   9.607  41.769  14.695
45730W        W14135  31.159  20.469   0.810
45731W        W14136  24.817  36.353  12.640
45732W        W14137  26.510   9.116  12.303
45733W        W14138   2.727  37.019  10.589
45734W        W14139   2.578  12.552   4.192
45735W        W14140  23.266  12.682  10.510
45736W        W14141  43.760  31.582  12.528
45737W        W14142  41.168  34.081  12.932
45738W        W14143  24.439  36.891   3.118
45739W        W14144  20.831  12.819   0.185
45740W        W14145  36.617  33.170   3.670
45741W        W14146  39.771  32.343   1.015
45742W        W14147  12.674   8.402   3.678
45743W        W14148  31.872  13.883  14.412
45744W        W14149  34.944  24.090   0.690
45745W        W14150   7.275  31.229   0.319
45746W        W14151  14.865  23.210  13.486
45747W        W14152  40.764  21.712  10.668
45748W        W14153  42.421   8.028   4.161
45749W        W14154  11.320  20.337  11.109
45750W        W14155  42.235  36.172   0.976
45751W        W14156  16.583  31.687   1.380
45752W        W14157  23.921   1.152   1.249
45753W        W14158   2.938  39.427   1.253
45754W        W14159  36.521  20.634  13.321
45755W        W14160   9.739  16.109  14.002
45756W        W14161  38.633  18.569   4.286
45757W        W14162  13.915   0.850  12.823
45758W        W14163  34.784  25.354   1.859
45759W        W14164  42.317  16.863  13.865
45760W        W14165  42.535  23.223   1.909
45761W        W14166  18.712  39.373   3.653
45762W        W14167   6.112  19.104  12.519
45763W        W14168  33.376  41.549   4.232
45764W        W14169  25.972  37.358   1.412
45765W        W14170  24.019  17.552  14.897
45766W        W14171  42.325   0.989   4.104
45767W        W14172  37.500  29.285   3.140
45768W        W14173  36.470  16.800  10.718
45769W        W14174   0.299  23.753   0.372
45770W        W14175   2.291  44.250  14.310
45771W        W14176  14.827  15.611  14.426
45772W        W14177   5.251  28.961   1.208
45773W        W14178   5.817  14.620   2.401
45774W        W14179  39.949  40.110   2.797
45775W        W14180  18.462  38.304   2.931
45776W        W14181  17.294  19.123  10.505
45777W        W14182  19.065  43.794  13.340
45778W        W14183   6.778  39.509  10.606
45779W        W14184  22.180  35.943   0.039
45780W        W14185  44.430  35.636   3.198
45781W        W14186  41.119  19.192  10.754
45782W        W14187  25.791  32.592  10.823
45783W        W14188  23.447   8.512  11.169
45784W        W14189  31.161  23.630   4.217
45785W        W14190  21.078  12.852   2.074
45786W        W14191  27.260  13.223  13.962
45787W        W14192  24.532  17.371  13.453
45788W        W14193   7.725  42.583  10.494
45789W        W14194  14.124   0.177   3.878
45790W        W14195  18.733  27.148   2.340
45791W        W14196  28.478  17.798  12.557
45792W        W14197  44.468   0.575   1.190
45793W        W14198  10.715  21.905  12.977
45794W        W14199   5.660  17.204  11.730
45795W        W14200  30.934   8.904   0.602
45796W        W14201  27.332   8.926   1.691
45797W        W14202  32.988  38.554   0.480
45798W        W14203  42.273  26.558   1.707
45799W        W14204   3.355  20.348   2.670
45800W        W14205  40.976  20.208   2.302
45801W        W14206  16.729  26.633   3.983
45802W        W14207   3.950  37.248   1.995
45803W        W14208  20.125  17.762   4.878
45804W        W14209  15.990  18.046   4.183
45805W        W14210  36.526  19.548  10.777
45806W        W14211  31.026  19.522  14.718
45807W        W14212  23.213  30.365  10.162
45808W        W14213   0.396  39.242  14.437
45809W        W14214  34.626  33.741  10.349
45810W        W14215   1.450  24.162   4.647
45811W        W14216   9.745   7.310  10.984
45812W        W14217  15.150  20.473   1.721
45813W        W14218  31.569  10.266   1.391
45814W        W14219  24.405  15.415   0.643
45815W        W14220  29.635  29.463   4.001
45816W        W14221  36.821  18.547   0.584
45817W        W14222   4.821  27.562   4.799
45818W        W14223  23.014  31.347   0.157
45819W        W14224   5.133  40.240   2.413
45820W        W14225  36.958  43.410   2.727
45821W        W14226   5.207   7.815  12.038
45822W        W14227  24.674  16.263  14.197
45823W        W14228  18.635   5.402  12.423
45824W        W14229  37.867  18.748  12.837
45825W        W14230  14.333  40.065   0.801
45826W        W14231   5.633  24.560   4.272
45827W        W14232  28.886  32.102   5.071
45828W        W14233  43.569   2.814   1.686
45829W        W14234  23.611  39.018   0.701
45830W        W14235  34.950   7.079  10.895
45831W        W14236   9.806  26.118  12.302
45832W        W14237   8.037  42.362   0.292
45833W        W14238  41.869  44.214  14.114
45834W        W14239  42.010  13.909  11.946
45835W        W14240  30.119  13.589  12.052
45836W        W14241   3.234   0.916   1.940
45837W        W14242   4.927  30.083   2.708
45838W        W14243  13.445   6.671  12.524
45839W        W14244  13.093  16.846  13.049
45840W        W14245   3.689   0.932  13.726
45841W        W14246  32.991  25.209  14.277
45842W        W14247  38.934   3.766  12.127
45843W        W14248  31.499  13.781   3.367
45844W        W14249   3.813  15.387   2.355
45845W        W14250  11.034  43.148  14.207
45846W        W14251  41.504  13.238   1.285
45847W        W14252  15.552  42.467   4.160
45848W        W14253  22.509   1.464  13.075
45849W        W14254   5.737  16.068   4.912
45850W        W14255  37.093  28.088   0.303
45851W        W14256  37.882  34.088  13.882
45852W        W14257   8.891  41.393   4.706
45853W        W14258  43.165   9.285   0.076
45854W        W14259  22.574  41.074  12.118
45855W        W14260  13.181   1.870  12.085
45856W        W14261  12.690  32.660   1.618
45857W        W14262  40.112  26.671  14.809
45858W        W14263  29.292   3.736  14.552
45859W        W14264  29.569  22.821   2.435
45860W        W14265  35.521  37.551  14.188
45861W        W14266  12.880   7.038   0.556
45862W        W14267  37.680  43.272  10.768
45863W        W14268  35.383  34.612   4.168
45864W        W14269   2.747   8.920   4.217
45865W        W14270  29.014   9.175   4.222
45866W        W14271  34.901  35.958  11.684
45867W        W14272   4.790  33.307   4.637
45868W        W14273  21.421  27.288  12.957
45869W        W14274  31.667  17.586   4.232
45870W        W14275  35.934   1.048   2.274
45871W        W14276  44.008  37.534   2.554
45872W        W14277  31.576   5.575  14.839
45873W        W14278  24.631   7.330  10.815
45874W        W14279   0.957   6.423  14.374
45875W        W14280  10.724  17.299  11.819
45876W        W14281   4.328   2.157   4.975
45877W        W14282  40.412  34.039  10.447
45878W        W14283  41.010  15.102   2.150
45879W        W14284  15.621  32.785   0.056
45880W        W14285  41.545  16.064   1.880
45881W        W14286  19.713  22.128   5.055
45882W        W14287   4.943  44.528   0.868
45883W        W14288  39.814  31.497   0.838
45884W        W14289   4.707  23.716  10.644
45885W        W14290  15.719  19.837  14.861
45886W        W14291   8.856  11.527  12.950
45887W        W14292  41.880  40.325  11.128
45888W        W14293   9.868   7.664   1.415
45889W        W14294  29.663   4.865  11.602
45890W        W14295  21.776  13.603   4.223
45891W        W14296  26.237  22.071   3.868
45892W        W14297   3.049  42.503  12.424
45893W        W14298  11.686  20.238  13.867
45894W        W14299  14.723   1.469   3.734
45895W        W14300  36.580  39.572   4.033
45896W        W14301  13.455  15.220   2.352
45897W        W14302   4.787  11.623  13.907
45898W        W14303  22.806  29.632   3.250
45899W        W14304  41.784  19.084   0.503
45900W        W14305   5.710  21.510  10.749
45901W        W14306  21.443   9.362   2.223
45902W        W14307  32.154   1.896  13.317
45903W        W14308  29.517   0.714  13.098
45904W        W14309  25.531  40.897  12.773
45905W        W14310   1.489  27.624  14.417
45906W        W14311  38.982  41.740  11.403
45907W        W14312  40.413   8.405  11.562
45908W        W14313   8.714  42.743   0.543
45909W        W14314   5.765  24.568  11.599
45910W        W14315  31.536  20.670  11.347
45911W        W14316  15.239  18.629  12.039
45912W        W14317  21.371  37.499  12.745
45913W        W14318  37.176   8.235  12.021
45914W        W14319  30.223  11.859   1.224
45915W        W14320  16.607   3.177   1.629
45916W        W14321  41.495   3.989   1.408
45917W        W14322  25.639  32.875   3.290
45918W        W14323  17.386   1.565  13.883
45919W        W14324   2.244   0.890   3.636
45920W        W14325  27.209  21.691  13.601
45921W        W14326  35.860  43.762   0.489
45922W        W14327  35.745  39.508   0.748
45923W        W14328  14.703  35.218   4.457
45924W        W14329  22.913  42.936   0.205
45925W        W14330  30.818  25.082   3.218
45926W        W14331   5.196  41.967   3.132
45927W        W14332  25.168  15.296   4.351
45928W        W14333   1.785  18.782   3.320
45929W        W14334  44.110  44.089   0.331
45930W        W14335  38.436  23.306  11.297
45931W        W14336  26.718  24.487  10.705
45932W        W14337   8.454  44.409   2.626
45933W        W14338   8.107  23.555  10.588
45934W        W14339  35.059   9.127  13.533
45935W        W14340  38.750  29.351  13.643
45936W        W14341   7.607   9.769  12.723
45937W        W14342  41.734   0.197  12.447
45938W        W14343  18.708  17.670  10.409
45939W        W14344  32.839  22.944  14.802
45940W        W14345  16.763  42.786  13.970
45941W        W14346  21.522  42.304  10.765
45942W        W14347  26.168  44.750  13.595
45943W        W14348  27.446  10.870  11.499
45944W        W14349  15.653  23.375  12.952
45945W        W14350  33.408  40.630   4.565
45946W        W14351   7.119  44.914  11.666
45947W        W14352  23.608  42.953  11.176
45948W        W14353  27.032   9.638   3.753
45949W        W14354   0.310  19.668  11.214
45950W        W14355   9.745  31.496   3.220
45951W        W14356  27.298   9.592   3.289
45952W        W14357   3.201  32.018  13.497
45953W        W14358  43.275  30.535  13.642
45954W        W14359  37.503  28.129   4.500
45955W        W14360  31.758  14.456  10.269
45956W        W14361  17.029  32.406   9.798
45957W        W14362  37.943  35.436   3.422
45958W        W14363  25.092  15.303   0.301
45959W        W14364  42.937  21.716   3.728
45960W        W14365  41.533   1.523  13.266
45961W        W14366  11.023   6.084   0.720
45962W        W14367  18.277   0.763   4.759
45963W        W14368  31.016  38.089  12.972
45964W        W14369  39.915  16.837  14.397
45965W        W14370   3.733  18.936   4.330
45966W        W14371  11.868   0.351   3.913
45967W        W14372  27.469  15.248  14.520
45968W        W14373   1.035  44.264  11.197
45969W        W14374   1.702  19.803  11.488
45970W        W14375  12.185  14.087  13.502
45971W        W14376  11.312  38.972  13.058
45972W        W14377  32.365  20.585  13.552
45973W        W14378  16.631  25.324  14.573
45974W        W14379   0.220  41.004  13.007
45975W        W14380  37.497   2.365  10.861
45976W        W14381   2.461   8.931   3.722
45977W        W14382   7.753  19.993  11.039
45978W        W14383  20.272   4.989  12.618
45979W        W14384  44.545  23.981  13.450
45980W        W14385  24.253  24.100   2.324
45981W        W14386  39.136  26.402  14.959
45982W        W14387   5.406  44.757   1.028
45983W        W14388  22.894  27.712   1.737
45984W        W14389  44.763  11.135  13.115
45985W        W14390  11.339  30.042   0.824
45986W        W14391  36.807  23.860  13.312
45987W        W14392  40.276  22.218  11.315
45988W        W14393  44.481  37.696  11.053
45989W        W14394  16.155  42.011   3.167
45990W        W14395  29.611  36.328   4.083
45991W        W14396  40.076  44.211   0.406
45992W        W14397  44.891  41.388   3.952
45993W        W14398  40.967  33.347  13.266
45994W        W14399  33.708  33.205  14.614
45995W        W14400   6.421   6.379   5.119
45996W        W14401  18.683  32.803   1.382
45997W        W14402  33.576   7.163  11.914
45998W        W14403  43.429  11.427  12.424
45999W        W14404   0.932  34.504  13.554
46000W        W14405   4.768  25.474   3.487
46001W        W14406  30.872  18.315  14.504
46002W        W14407  43.025   5.257   1.867
46003W        W14408  28.910  42.907  10.942
46004W        W14409  15.466  16.228  10.418
46005W        W14410  33.304  29.672   2.538
46006W        W14411  43.470   7.982   2.393
46007W        W14412  22.447  27.707   0.328
46008W        W14413  34.556  23.668  12.818
46009W        W14414  13.023  21.136   1.167
46010W        W14415   6.230  24.161   4.322
46011W        W14416  17.730  34.780   3.195
46012W        W14417  42.903  19.266   0.755
46013W        W14418  38.595  23.190  13.493
46014W        W14419   0.943  41.415   2.860
46015W        W14420  19.570   7.178  12.120
46016W        W14421   7.693   3.801   4.688
46017W        W14422   8.752   3.029   1.224
46018W        W14423  16.583   0.410  14.460
46019W        W14424  33.092  39.933  13.946
46020W        W14425  29.374  12.984  12.991
46021W        W14426   6.779  22.614   0.925
46022W        W14427  34.363  22.601  13.388
46023W        W14428  43.934  42.866  14.460
46024W        W14429  42.392  30.191   1.490
46025W        W14430  28.730  16.307  12.560
46026W        W14431  36.333  26.141  13.467
46027W        W14432  20.159  23.962  12.267
46028W        W14433  41.027  32.366   3.433
46029W        W14434  40.510  31.907   0.813
46030W        W14435  31.599  20.468   1.840
46031W        W14436  40.810   1.813   1.256
46032W        W14437  44.493  28.310   2.872
46033W        W14438   7.220  36.378  13.826
46034W        W14439  29.477  35.083   4.686
46035W        W14440  24.191  29.455   4.524
46036W        W14441   8.208  13.721  13.571
46037W        W14442  32.921  37.982   3.355
46038W        W14443  33.513   8.858  10.024
46039W        W14444  40.028  14.878   2.674
46040W        W14445  23.332  26.961  11.482
46041W        W14446   4.126   2.685   1.397
46042W        W14447   1.879  32.148  11.210
46043W        W14448  11.167  35.540  13.523
46044W        W14449  15.354  30.082   4.177
46045W        W14450  19.574  11.022  14.806
46046W        W14451  23.612  38.812   2.433
46047W        W14452  31.010   9.813   4.897
46048W        W14453  44.568   7.681   0.512
46049W        W14454  15.692  35.959   3.956
46050W        W14455   3.373  43.890   0.457
46051W        W14456  24.964   4.841   1.688
46052W        W14457  22.960  18.906  14.352
46053W        W14458  17.984   1.119   1.776
46054W        W14459  16.375  30.064  13.988
46055W        W14460  39.554  39.862  11.217
46056W        W14461  24.228  14.818   3.617
46057W        W14462  29.484  41.698   4.148
46058W        W14463  37.865   4.385   1.298
46059W        W14464  10.684  17.196  14.793
46060W        W14465   6.496   3.327  11.214
46061W        W14466  15.690  18.617   0.244
46062W        W14467  40.298   7.219   0.071
46063W        W14468  12.760  39.451   3.742
46064W        W14469  36.456  12.107  13.849
46065W        W14470   7.223   5.463   0.404
46066W        W14471  14.890  19.762   1.319
46067W        W14472  12.637  34.762   1.707
46068W        W14473  44.030  20.357   1.949
46069W        W14474  23.653  23.666   2.981
46070W        W14475  22.269  30.019  14.377
46071W        W14476  22.720  15.288  13.363
46072W        W14477  31.491  33.630  12.171
46073W        W14478  21.850  22.100  10.664
46074W        W14479  10.595   5.080   0.763
46075W        W14480  44.890  13.706   1.905
46076W        W14481  32.498  35.129  11.697
46077W        W14482  41.742  15.074  13.715
46078W        W14483  16.396  38.297  11.883
46079W        W14484  31.288  33.411   0.953
46080W        W14485   6.740  33.135  11.907
46081W        W14486  32.540  41.041  14.432
46082W        W14487  23.335   2.986   4.811
46083W        W14488   1.935  12.919   3.731
46084W        W14489  19.499   6.450  13.904
46085W        W14490  11.167  38.827  14.448
46086W        W14491   1.749  20.713  13.819
46087W        W14492  25.593  15.545   0.350
46088W        W14493   4.703  22.663  12.344
46089W        W14494  25.117  23.199   3.232
46090W        W14495   8.922  31.444  10.508
46091W        W14496  36.036  32.564   4.592
46092W        W14497  22.602  13.555  14.768
46093W        W14498   9.077  31.091  12.013
46094W        W14499   4.087  13.999   0.936
46095W        W14500  18.624   8.635  14.547
46096W        W14501   3.389  43.380   0.790
46097W        W14502  27.187  27.416   4.084
46098W        W14503  27.635   2.877  14.957
46099W        W14504   0.511  19.289  10.924
46100W        W14505  10.216  39.618  12.086
46101W        W14506  42.878  31.660   3.142
46102W        W14507  30.158  29.550   0.426
46103W        W14508  39.302   5.742  14.120
46104W        W14509   2.897  40.785   0.914
46105W        W14510  25.126  21.240   0.095
46106W        W14511  27.711   0.035  14.382
46107W        W14512  33.685   3.563   5.101
46108W        W14513  43.955   2.205   0.281
46109W        W14514  25.165  36.124  14.890
46110W        W14515  40.428   7.708   4.425
46111W        W14516  18.048  33.359   0.190
46112W        W14517  26.960  39.327  10.143
46113W        W14518  31.323  11.619   3.293
46114W        W14519  22.445  30.234   4.037
46115W        W14520  21.172  10.085   3.987
46116W        W14521   8.772  43.443   2.348
46117W        W14522  42.036  10.713   0.050
46118W        W14523  15.230  28.023   0.669
46119W        W14524  11.901  22.157   3.200
46120W        W14525  21.077  20.619   0.476
46121W        W14526  25.538  15.937  10.719
46122W        W14527  26.551   8.102  11.930
46123W        W14528  18.587  41.405  10.459
46124W        W14529  36.645  23.080  11.617
46125W        W14530  36.025  41.331   3.618
46126W        W14531  16.563  33.510   1.822
46127W        W14532  31.123  34.230   3.774
46128W        W14533  15.301   1.303  13.895
46129W        W14534  41.818   3.547  11.931
46130W        W14535  29.449  42.350   0.042
46131W        W14536  25.674  21.508   1.746
46132W        W14537   4.711   2.560  14.269
46133W        W14538  13.217  23.637  11.479
46134W        W14539   5.045   4.239  12.741
46135W        W14540   5.215  27.211   1.750
46136W        W14541   9.346  31.465   1.265
46137W        W14542  28.080  15.090  10.249
46138W        W14543  26.684   5.722  14.511
46139W        W14544  44.962   9.354   4.678
46140W        W14545  12.375  27.498   3.630
46141W        W14546  18.404  19.634   1.783
46142W        W14547  35.571  23.007   4.201
46143W        W14548   7.309   0.792   3.704
46144W        W14549  32.418  10.820   0.009
46145W        W14550  30.119  10.892  12.412
46146W        W14551  26.357  15.035  11.584
46147W        W14552  21.783  18.636   1.630
46148W        W14553  22.794  25.054  14.096
46149W        W14554  27.178  26.391   4.192
46150W        W14555  40.862  20.199   4.494
46151W        W14556  40.182  26.433   2.856
46152W        W14557  38.494  31.654  11.649
46153W        W14558   2.540  11.988  10.057
46154W        W14559  11.798  32.868   3.446
46155W        W14560   3.311   3.285   4.161
46156W        W14561  32.567  20.008  10.569
46157W        W14562  20.000  20.006  14.040
46158W        W14563  41.587  14.762  13.138
46159W        W14564  29.833  15.094   2.175
46160W        W14565  29.912  43.352  10.788
46161W        W14566   3.816   4.197   3.259
46162W        W14567  20.854  19.741  14.441
46163W        W14568  17.756  42.518   4.810
46164W        W14569   2.215   3.833   4.911
46165W        W14570   6.193  27.231   3.143
46166W        W14571  35.085   3.824   2.420
46167W        W14572   2.059  37.110  12.026
46168W        W14573   7.570  28.983   3.492
46169W        W14574   0.484  18.854   1.369
46170W        W14575  10.886  35.575   3.257
46171W        W14576  36.942  25.316  13.357
46172W        W14577  37.566  39.170   3.595
46173W        W14578   7.631  33.846   1.185
46174W        W14579  36.306   4.755  10.237
46175W        W14580  19.881   3.183   0.778
46176W        W14581  25.766  32.971  14.836
46177W        W14582  19.161  27.561   1.558
46178W        W14583  16.723  12.252  11.570
46179W        W14584  36.902   2.262  13.927
46180W        W14585  20.234  16.065  11.955
46181W        W14586   9.113   7.717   2.325
46182W        W14587   6.344  32.227  12.965
46183W        W14588  40.166  25.304   1.164
46184W        W14589  35.835  12.680  14.801
46185W        W14590  23.684  36.926  11.527
46186W        W14591  41.581  22.176  10.598
46187W        W14592  16.315  35.827   0.299
46188W        W14593  27.654  23.750  13.392
46189W        W14594   8.630  15.890  12.914
46190W        W14595  27.193   5.339   4.838
46191W        W14596   7.523  11.316   3.996
46192W        W14597  37.080   8.174  13.350
46193W        W14598  28.514  16.292   3.689
46194W        W14599   2.377   7.340  14.842
46195W        W14600  33.882  36.934  11.609
46196W        W14601  12.129  28.460  12.960
46197W        W14602  21.500  41.762   2.476
46198W        W14603   5.496  15.649   2.252
46199W        W14604  19.241   0.878  14.427
46200W        W14605   1.414   5.177   3.771
46201W        W14606  28.233   1.817  10.655
46202W        W14607  12.736  39.347   1.363
46203W        W14608   8.578   3.649   2.288
46204W        W14609  38.301  10.213  14.343
46205W        W14610  31.513  40.791   0.395
46206W        W14611  38.421  22.212  12.094
46207W        W14612  22.166  10.364  12.405
46208W        W14613  43.597  43.291   3.249
46209W        W14614  15.762  20.641  11.695
46210W        W14615  35.845  36.184   4.634
46211W        W14616  37.384  16.715  10.672
46212W        W14617  23.841   2.933   1.777
46213W        W14618  26.868  42.897   0.631
46214W        W14619  23.111  28.100   4.058
46215W        W14620   8.186   2.743   2.452
46216W        W14621  16.658   3.183   3.743
46217W        W14622   2.478  26.217  12.621
46218W        W14623   8.674  26.726  12.092
46219W        W14624  36.072  10.169   0.068
46220W        W14625  27.654  16.585  13.851
46221W        W14626  21.124   1.695  13.093
46222W        W14627  14.220  41.277   3.818
46223W        W14628  29.684  29.773   0.244
46224W        W14629  31.518  33.968   3.588
46225W        W14630  22.929  25.124  10.419
46226W        W14631  14.968  30.532  13.022
46227W        W14632  43.795  22.373  13.292
46228W        W14633  35.344  21.751   3.585
46229W        W14634  25.057  26.575  10.340
46230W        W14635  31.510  32.606   3.091
46231W        W14636   1.509  30.704  13.029
46232W        W14637  11.225  28.500   5.530
46233W        W14638  12.151  23.941  10.937
46234W        W14639  25.275   7.213  13.969
46235W        W14640  32.752  33.394  12.445
46236W        W14641  17.375  29.508  13.137
46237W        W14642  22.882   1.649   0.270
46238W        W14643  22.059  30.081   2.260
46239W        W14644  19.622  14.788   1.193
46240W        W14645   3.168  31.554   2.585
46241W        W14646   7.340  14.115   1.547
46242W        W14647   3.562  27.419  10.493
46243W        W14648  24.810  23.042   0.957
46244W        W14649  11.764  24.072   4.509
46245W        W14650  24.534  26.732  14.078
46246W        W14651  10.588  42.909  12.478
46247W        W14652  18.162  33.973   1.397
46248W        W14653  26.097  16.036   3.735
46249W        W14654  21.842   2.247  12.534
46250W        W14655  20.679  14.153   1.699
46251W        W14656   6.729  33.191  12.921
46252W        W14657  40.360  10.688  11.863
46253W        W14658  14.040   2.451   4.978
46254W        W14659  13.654   9.394   0.623
46255W        W14660  27.461   0.246   4.081
46256W        W14661  44.956  33.567   2.830
46257W        W14662  44.012  17.215   4.038
46258W        W14663   4.886  35.324   1.275
46259W        W14664  39.335  40.431   1.676
46260W        W14665  25.445  17.248   4.610
46261W        W14666  22.431   4.194  11.514
46262W        W14667  11.003   7.824  14.455
46263W        W14668  34.038  25.593   1.194
46264W        W14669  24.690  41.736   3.339
46265W        W14670  26.545  24.735  11.508
46266W        W14671  30.877  35.585   2.756
46267W        W14672  39.716  12.124  11.751
46268W        W14673  41.429   4.780  12.552
46269W        W14674  42.421  26.114   1.909
46270W        W14675  16.340  25.420   4.235
46271W        W14676  12.756  31.586  10.722
46272W        W14677   5.191  22.491  12.887
46273W        W14678  15.024  40.391  11.959
46274W        W14679  13.649  26.377   4.150
46275W        W14680  12.368  42.761   4.763
46276W        W14681  23.598  14.128   1.312
46277W        W14682   6.897  31.433  13.893
46278W        W14683  30.352  30.013   2.292
46279W        W14684  43.402  14.681  13.316
46280W        W14685  35.659   3.366  11.522
46281W        W14686  30.708  27.460   3.947
46282W        W14687  38.423  34.042   4.527
46283W        W14688  16.106  13.854  14.428
46284W        W14689   6.311  11.683  11.203
46285W        W14690  31.494   7.644  11.175
46286W        W14691   6.855  15.648  13.814
46287W        W14692  10.795  35.485  12.663
46288W        W14693   6.687  24.874   0.313
46289W        W14694  37.293  10.337  13.338
46290W        W14695   9.299   6.491   4.599
46291W        W14696  19.595  30.606   2.788
46292W        W14697   1.646  43.595  11.648
46293W        W14698  32.608  21.727   3.172
46294W        W14699   0.010  37.109  13.402
46295W        W14700  31.566  36.823   0.431
46296W        W14701  32.940  17.777   1.928
46297W        W14702  26.968  28.103   2.801
46298W        W14703  22.299  11.610  11.124
46299W        W14704   1.016  36.302  11.149
46300W        W14705  42.609  35.825   1.020
46301W        W14706  17.274  29.350  11.349
46302W        W14707  38.443  32.138   0.968
46303W        W14708  30.003  11.686   4.609
46304W        W14709  26.852  32.251   3.324
46305W        W14710  35.914   9.279  14.012
46306W        W14711  13.656  41.414   3.678
46307W        W14712  36.423  34.341   0.370
46308W        W14713  27.330  41.798  12.391
46309W        W14714  26.484   3.227  14.354
46310W        W14715  34.627  28.583  14.930
46311W        W14716  36.702   2.351   1.000
46312W        W14717   7.544  36.332   4.210
46313W        W14718  13.689  26.164   0.325
46314W        W14719  21.702  10.814   4.148
46315W        W14720   5.638   6.236  12.011
46316W        W14721  16.089   9.047   5.454
46317W        W14722  11.255  24.093   4.389
46318W        W14723   5.293  16.960   0.916
46319W        W14724  15.644  25.283   3.309
46320W        W14725   4.249   2.710   3.706
46321W        W14726  26.035  19.302   4.147
46322W        W14727  23.731   3.950  13.028
46323W        W14728  25.061   4.263   4.269
46324W        W14729  14.542   3.713  11.929
46325W        W14730   3.890   3.877  11.354
46326W        W14731  12.646   4.051   3.762
46327W        W14732   9.901  40.561  12.444
46328W        W14733  34.523  41.412   3.245
46329W        W14734  18.543  30.578   4.594
46330W        W14735   6.205  29.694   3.636
46331W        W14736  43.480   8.864   0.168
46332W        W14737  33.430  15.692   2.708
46333W        W14738   7.945  14.108  11.135
46334W        W14739  30.089  30.728   3.757
46335W        W14740  36.895  34.472   3.238
46336W        W14741  15.588  17.611  13.185
46337W        W14742  35.975  26.610  13.535
46338W        W14743  22.728   5.006  11.672
46339W        W14744  29.428   0.073   2.197
46340W        W14745  37.860  20.650   0.028
46341W        W14746   3.002  13.291  12.907
46342W        W14747   1.402  37.035   0.043
46343W        W14748  28.999   1.462   1.831
46344W        W14749  29.033   1.919  14.321
46345W        W14750   9.224  12.358  12.019
46346W        W14751  29.513   4.225   2.832
46347W        W14752   4.897  24.257   0.671
46348W        W14753  39.036  16.086  14.800
46349W        W14754  21.176  44.842  11.643
46350W        W14755   6.025   4.185   0.756
46351W        W14756  24.224  43.337   0.490
46352W        W14757  15.872  23.506   2.075
46353W        W14758  21.586  32.470  11.386
46354W        W14759  20.235  18.144   3.185
46355W        W14760   1.469  30.107  12.527
46356W        W14761  10.446  41.113  11.167
46357W        W14762  15.811  19.468   1.342
46358W        W14763  23.165  39.859   4.238
46359W        W14764  39.930  27.679  12.974
46360W        W14765  36.741  34.588   4.612
46361W        W14766  20.617  27.728  12.561
46362W        W14767  25.637  38.407   0.218
46363W        W14768  19.502   8.376  12.347
46364W        W14769   8.436  30.034  12.615
46365W        W14770  15.646  26.346   3.753
46366W        W14771  39.437  21.742  10.883
46367W        W14772  44.882  30.700  13.357
46368W        W14773  33.043   4.807  10.685
46369W        W14774  29.593  19.087   4.705
46370W        W14775   7.732  30.192  10.778
46371W        W14776  18.305  37.618   1.833
46372W        W14777  29.052  15.174  13.596
46373W        W14778  32.677   7.625  10.625
46374W        W14779  24.821  24.334  14.633
46375W        W14780  17.287  12.804   4.623
46376W        W14781  30.991   3.674  12.262
46377W        W14782  11.823  39.448   1.824
46378W        W14783   4.052  21.134  13.379
46379W        W14784  37.892  22.736   1.611
46380W        W14785  11.248   1.426  13.790
46381W        W14786  22.062  30.888   2.631
46382W        W14787  21.666  23.577  11.199
46383W        W14788  21.523  20.262  13.921
46384W        W14789  25.245  25.906   0.144
46385W        W14790  22.570   1.071   1.661
46386W        W14791   3.021  32.237  13.937
46387W        W14792   8.312   5.401   4.275
46388W        W14793  40.890   4.683   2.765
46389W        W14794   5.813  15.555  10.160
46390W        W14795   4.272  36.807   4.167
46391W        W14796  42.154  35.350  11.634
46392W        W14797  30.179   5.266  11.975
46393W        W14798  17.673  21.212   1.207
46394W        W14799  20.379  32.695   3.779
46395W        W14800  29.119  13.540   4.739
46396W        W14801  44.951   2.330  13.903
46397W        W14802  32.635   8.201   2.194
46398W        W14803  34.589  25.117   2.796
46399W        W14804  21.173  32.907  10.360
46400W        W14805  13.713   0.533  13.663
46401W        W14806  26.174   9.125   3.748
46402W        W14807  27.000  41.076  12.124
46403W        W14808  13.236  13.310   1.912
46404W        W14809  25.437  11.246  13.951
46405W        W14810  22.110  25.463   0.355
46406W        W14811  40.446  22.082   2.345
46407W        W14812  38.383   1.903  10.669
46408W        W14813  14.122   7.920  13.522
46409W        W14814   2.827  18.289   3.579
46410W        W14815  16.826  23.114  12.504
46411W        W14816  16.520  42.868   1.875
46412W        W14817   0.235  31.731   0.284
46413W        W14818  42.791   9.239   2.639
46414W        W14819  12.277  23.764   2.795
46415W        W14820  10.718  23.484  12.175
46416W        W14821   5.244  24.244   1.381
46417W        W14822  16.929   5.815   4.159
46418W        W14823  44.502  36.972  12.189
46419W        W14824  13.651  12.406  13.936
46420W        W14825  26.705  43.735   0.715
46421W        W14826   1.761  18.085   0.699
46422W        W14827  26.024   5.436  13.616
46423W        W14828  39.909  37.504  11.192
46424W        W14829  22.537   7.156  12.886
46425W        W14830  41.952  15.053  11.117
46426W        W14831  29.737  42.846   0.281
46427W        W14832  36.472  21.234  11.564
46428W        W14833  39.303  23.567   2.780
46429W        W14834  10.793  43.380  12.498
46430W        W14835  13.790  22.610  12.600
46431W        W14836  39.988  23.172  12.865
46432W        W14837  32.189  11.702   0.458
46433W        W14838  41.724  39.899  14.688
46434W        W14839  16.111  44.528  14.770
46435W        W14840  29.221  38.886   4.009
46436W        W14841  15.433   6.662   2.683
46437W        W14842  40.731   3.777   2.246
46438W        W14843  25.454  24.095  13.375
46439W        W14844  20.682  42.013  14.995
46440W        W14845  14.672   0.809  12.122
46441W        W14846  34.108   2.377  11.134
46442W        W14847  11.183  37.536  10.738
46443W        W14848   4.153  29.601  10.786
46444W        W14849   8.118  11.864   5.155
46445W        W14850  31.066  18.298  14.026
46446W        W14851  32.487  25.263  14.361
46447W        W14852  17.182   6.403  13.495
46448W        W14853  27.762   7.403   0.873
46449W        W14854   6.178  37.911   2.786
46450W        W14855  13.825  24.411   3.148
46451W        W14856  28.107  12.296   2.284
46452W        W14857  26.442  28.296  14.810
46453W        W14858  22.617   3.419   0.369
46454W        W14859  14.100  35.076  12.375
46455W        W14860  37.705  28.042  12.928
46456W        W14861   1.252  25.321  14.090
46457W        W14862  21.900  40.905  10.659
46458W        W14863   0.925  34.351  14.431
46459W        W14864  41.437   8.195   1.719
46460W        W14865  16.482  18.579   3.449
46461W        W14866   1.878   0.849   3.248
46462W        W14867  31.952  11.304  10.807
46463W        W14868  11.168  34.562  13.892
46464W        W14869  44.376  37.314   2.822
46465W        W14870   3.046  33.392   1.034
46466W        W14871   5.730  19.572   4.644
46467W        W14872  22.143  41.524  14.229
46468W        W14873  39.653   6.491   3.337
46469W        W14874   2.885  22.874   1.979
46470W        W14875  40.730  22.531  14.875
46471W        W14876  37.964  29.238  10.777
46472W        W14877  39.459  14.302  12.377
46473W        W14878   4.280  42.029   0.312
46474W        W14879   1.462  14.150   2.721
46475W        W14880  37.691  35.861   4.997
46476W        W14881  23.600  27.537  12.578
46477W        W14882  10.383   5.798  10.676
46478W        W14883  36.570  19.254  12.569
46479W        W14884   4.478  24.725   3.324
46480W        W14885   6.605  29.389  12.550
46481W        W14886  24.661   1.342  13.806
46482W        W14887   5.709   4.332   4.364
46483W        W14888  28.108  16.956  11.694
46484W        W14889  15.633  16.010  13.634
46485W        W14890  22.314   0.205  14.792
46486W        W14891  42.729  33.143   0.854
46487W        W14892   2.364  31.128   3.903
46488W        W14893  10.253  36.393   3.698
46489W        W14894  30.207   1.927  13.400
46490W        W14895  11.536  40.952   3.423
46491W        W14896  30.265   3.446  13.085
46492W        W14897  19.137  42.070  11.341
46493W        W14898   6.896  16.827  12.972
46494W        W14899  22.267  43.772  13.505
46495W        W14900   2.198   6.197   3.524
46496W        W14901  27.474  13.547  10.934
46497W        W14902  26.042   2.756  10.436
46498W        W14903  37.870   2.454  13.478
46499W        W14904  37.036  23.518   4.559
46500W        W14905  29.564  28.474  13.032
46501W        W14906  16.566  13.073  11.167
46502W        W14907  25.122  42.319   0.830
46503W        W14908  16.593  35.377  10.103
46504W        W14909  32.503  23.992   3.233
46505W        W14910  15.209  43.389   4.604
46506W        W14911  37.946   2.314   2.701
46507W        W14912  26.996  34.620  14.008
46508W        W14913  22.165  10.561   0.392
46509W        W14914  30.663  38.602  11.149
46510W        W14915  16.545  12.789   2.083
46511W        W14916   7.265  25.489  13.910
46512W        W14917  40.669  20.124  13.454
46513W        W14918  25.060  41.166  13.392
46514W        W14919  38.705   1.770   4.207
46515W        W14920  29.909  24.761  10.712
46516W        W14921  16.694   3.002   2.382
46517W        W14922  22.481  39.310   1.896
46518W        W14923   5.716  24.480   0.338
46519W        W14924   3.975  32.190  13.867
46520W        W14925   5.228  10.295  11.426
46521W        W14926  10.059   1.797   1.136
46522W        W14927  10.707  19.307  13.593
46523W        W14928  43.868  39.753  11.602
46524W        W14929  36.495  13.864  14.310
46525W        W14930  35.148  21.500  12.467
46526W        W14931  35.487  15.676   3.656
46527W        W14932  37.599  16.116   2.362
46528W        W14933   8.146  16.692   0.879
46529W        W14934  33.928  23.497  14.886
46530W        W14935  10.842  38.413  13.994
46531W        W14936  11.213  22.299   1.724
46532W        W14937   1.744   5.391  13.829
46533W        W14938  22.253   6.647   3.929
46534W        W14939  43.028   6.240  10.686
46535W        W14940   1.282  31.746   2.315
46536W        W14941  12.123   7.192  12.512
46537W        W14942   6.797   0.217   1.891
46538W        W14943  23.168  38.068   0.840
46539W        W14944  25.818   2.746   0.343
46540W        W14945  40.568  44.023  11.613
46541W        W14946  29.846   1.942  12.411
46542W        W14947  40.782   6.844  13.414
46543W        W14948   6.605  16.951  11.394
46544W        W14949  25.024  34.815   1.388
46545W        W14950  42.816   7.722  12.967
46546W        W14951  20.212  20.813   0.060
46547W        W14952  30.369  29.147  11.031
46548W        W14953  37.547   6.756   1.303
46549W        W14954  31.057   6.105  11.229
46550W        W14955  30.609   4.165   1.726
46551W        W14956  12.268  29.619   0.828
46552W        W14957   6.155   7.616   4.593
46553W        W14958  43.974  19.670  11.577
46554W        W14959  37.444  32.421   0.909
46555W        W14960  30.963  35.113   3.872
46556W        W14961   1.483  29.528   1.427
46557W        W14962  32.223   8.475  14.370
46558W        W14963  15.480  28.298  15.000
46559W        W14964  27.433   3.747  11.536
46560W        W14965  20.171  26.215  13.313
46561W        W14966  14.231  27.186   0.791
46562W        W14967  11.731  11.233   2.291
46563W        W14968  16.626  42.253  13.709
46564W        W14969  38.891  13.626   3.117
46565W        W14970  21.488  21.474  14.497
46566W        W14971   0.238   0.863  12.349
46567W        W14972  40.656  34.579  13.648
46568W        W14973  36.390  34.816   4.941
46569W        W14974  36.825   3.438  14.741
46570W        W14975   0.673  41.823   2.671
46571W        W14976  43.168  43.460  14.313
46572W        W14977   4.858   3.924   4.926
46573W        W14978  27.407  17.165   1.007
46574W        W14979  31.623  29.137   2.394
46575W        W14980  20.754  32.948  14.193
46576W        W14981  11.094  23.524  12.526
46577W        W14982  27.026  13.616   0.515
46578W        W14983  30.048  33.373   4.230
46579W        W14984  21.379   7.599  11.601
46580W        W14985  27.983   1.957  12.491
46581W        W14986  30.487   3.571  11.509
46582W        W14987  30.957  18.795  13.939
46583W        W14988  20.912  26.018   2.999
46584W        W14989   0.653  22.696  14.463
46585W        W14990  18.142  15.589   0.260
46586W        W14991  34.875  17.320   0.231
46587W        W14992  43.280  27.924   0.343
46588W        W14993  20.796  33.504   4.642
46589W        W14994  24.950  15.856  11.615
46590W        W14995  18.606  23.463   2.708
46591W        W14996  33.818   5.159   2.944
46592W        W14997  43.609  21.979   3.885
46593W        W14998  36.945  19.382   0.889
46594W        W14999  35.113  32.639  11.858
46595W        W15000  36.445  42.294   2.128
46596W        W15001  21.821   3.538   3.152
46597W        W15002  44.871   5.214   4.212
46598W        W15003   9.907   0.014   2.763
46599W        W15004   1.379   5.303  13.464
46600W        W15005  22.967  22.646  14.069
46601W        W15006  11.117  44.833   4.535
46602W        W15007  23.004  17.767  12.433
46603W        W15008  15.228  18.389  14.000
46604W        W15009  19.536  24.114  11.158
46605W        W15010   8.766  12.327  11.453
46606W        W15011  23.682  21.224   1.219
46607W        W15012  13.444  44.412  14.021
46608W        W15013  25.394  36.088   2.784
46609W        W15014  37.712  23.936   0.882
46610W        W15015  33.676  16.429   1.855
46611W        W15016   3.731  16.895   4.657
46612W        W15017  18.861   4.434   2.637
46613W        W15018  44.363  35.432   2.719
46614W        W15019  17.305  28.735   2.392
46615W        W15020  38.497  31.811  14.480
46616W        W15021  25.671   7.690  14.391
46617W        W15022  41.031  24.385  14.432
46618W        W15023   2.344   2.365   4.117
46619W        W15024   6.042  21.311  13.945
46620W        W15025  24.990  43.961   3.762
46621W        W15026  32.015  32.569   2.685
46622W        W15027  14.170  35.978  10.678
46623W        W15028  25.258  43.938  13.306
46624W        W15029  13.686   7.252   2.431
46625W        W15030  43.325  34.437  13.973
46626W        W15031  12.286  43.059  10.613
46627W        W15032  31.358  15.220  13.008
46628W        W15033  16.639  43.827  11.050
46629W        W15034  35.032   2.793  11.146
46630W        W15035  16.575  24.553  10.752
46631W        W15036  12.342  23.025   3.215
46632W        W15037   7.962  44.286   0.769
46633W        W15038  12.632  20.076   3.204
46634W        W15039  35.618  21.251  12.091
46635W        W15040  25.685  18.174  11.118
46636W        W15041  16.027   4.301   2.822
46637W        W15042   7.689  29.483   3.300
46638W        W15043  36.071  34.732   3.462
46639W        W15044  27.012   6.311   3.629
46640W        W15045  34.310  17.193  12.398
46641W        W15046  12.564  30.127   0.458
46642W        W15047  37.411  37.503  13.117
46643W        W15048  31.905   0.965   1.329
46644W        W15049   8.293   1.836   1.478
46645W        W15050  23.446  16.921   0.624
46646W        W15051  36.154  29.642  12.918
46647W        W15052  23.074  28.249  13.045
46648W        W15053  17.121  26.623   1.990
46649W        W15054  29.935  34.495  11.993
46650W        W15055  44.978   5.137  10.703
46651W        W15056  24.129  37.252  13.944
46652W        W15057   6.871   7.377  11.016
46653W        W15058  44.342   4.821   4.793
46654W        W15059  27.272   8.163  14.017
46655W        W15060  13.441  12.569   2.312
46656W        W15061  24.396  19.548   2.258
46657W        W15062  34.628  39.441   3.199
46658W        W15063   2.497   9.683   4.487
46659W        W15064  11.461   1.751   4.025
46660W        W15065  27.772  22.437  11.169
46661W        W15066  31.406  26.564   4.228
46662W        W15067  15.828  44.922  11.373
46663W        W15068   2.476  14.140  14.384
46664W        W15069  39.372  18.812   0.725
46665W        W15070  38.146  11.694   0.304
46666W        W15071  16.046  11.181  10.296
46667W        W15072  44.020  28.456   2.692
46668W        W15073  22.729  18.302   0.179
46669W        W15074  15.816  39.109  14.717
46670W        W15075   9.176  28.555   3.216
46671W        W15076  21.723  35.151  12.490
46672W        W15077  16.072  42.003  13.637
46673W        W15078  31.612  11.865  11.525
46674W        W15079   7.111  12.837  11.115
46675W        W15080  40.829  22.143   0.204
46676W        W15081   1.521  29.199  11.654
46677W        W15082  11.147   4.654  14.954
46678W        W15083  30.451  43.400   1.669
46679W        W15084   4.302  21.408  12.449
46680W        W15085  36.591  16.408  14.495
46681W        W15086   1.926  13.828  13.573
46682W        W15087  39.819  22.876  10.995
46683W        W15088  41.814   5.904  14.488
46684W        W15089  33.964  21.282   3.294
46685W        W15090  34.869  44.593   4.938
46686W        W15091  37.456  41.424   3.094
46687W        W15092   7.395  40.388   4.517
46688W        W15093   8.317  15.178   1.764
46689W        W15094  18.165  38.497   0.099
46690W        W15095  38.409  34.318   0.352
46691W        W15096  43.305  12.983  11.806
46692W        W15097  27.465  43.562  12.063
46693W        W15098  28.957   0.909  11.747
46694W        W15099  34.463   5.636  14.498
46695W        W15100  26.142  26.155  11.519
46696W        W15101  40.994  37.534   1.160
46697W        W15102   3.373  42.207   1.765
46698W        W15103  29.798  34.706  11.333
46699W        W15104  12.997   6.910   1.421
46700W        W15105   4.341  36.975  13.444
46701W        W15106  31.141  35.259  11.218
46702W        W15107  32.459  25.409  12.929
46703W        W15108  17.587  33.465  14.536
46704W        W15109  22.175  34.907  12.460
46705W        W15110  25.251  16.764   4.578
46706W        W15111  14.297  32.087   3.689
46707W        W15112   8.390   0.508   3.728
46708W        W15113  26.662   8.312   1.682
46709W        W15114  40.904  43.088   0.813
46710W        W15115  18.688  25.263   0.211
46711W        W15116   4.956  40.816  11.558
46712W        W15117  27.563  28.446   4.525
46713W        W15118  16.317  24.900  13.467
46714W        W15119  25.615  20.184   0.473
46715W        W15120  37.819  41.370  13.614
46716W        W15121  36.402   0.972   4.973
46717W        W15122   0.371  34.284  12.584
46718W        W15123   0.288   1.927   0.239
46719W        W15124   3.420  43.923  13.103
46720W        W15125  22.065  31.713  10.996
46721W        W15126   3.367   2.239   4.198
46722W        W15127   5.058  28.170  11.109
46723W        W15128   9.836   1.888  12.995
46724W        W15129   7.430   1.485  14.540
46725W        W15130  40.660  22.022  13.411
46726W        W15131  34.571  40.466  12.464
46727W        W15132  15.592  34.548  13.367
46728W        W15133  43.120  12.429   1.190
46729W        W15134  30.930  14.114  12.554
46730W        W15135  39.377  31.387   0.384
46731W        W15136  12.276  23.025  14.449
46732W        W15137  39.034   1.998  14.994
46733W        W15138   2.382   1.120   0.433
46734W        W15139   2.807  20.517  11.137
46735W        W15140  43.505   9.165  13.234
46736W        W15141  32.152  20.719   4.368
46737W        W15142   5.965  29.085  13.728
46738W        W15143   5.598  16.197   0.441
46739W        W15144  33.407  19.203   2.452
46740W        W15145  31.149   8.147   2.728
46741W        W15146  16.460  17.710  12.781
46742W        W15147  37.106   1.859   3.596
46743W        W15148  36.411  21.690   1.531
46744W        W15149  30.964   1.656  12.914
46745W        W15150   5.513  23.714   4.074
46746W        W15151  31.603  31.242  11.928
46747W        W15152  26.612  15.823   3.635
46748W        W15153  15.191  38.517  14.972
46749W        W15154  12.578   4.237  12.124
46750W        W15155  28.632  37.544   0.386
46751W        W15156  28.247  32.571  11.629
46752W        W15157  31.651  20.621  14.511
46753W        W15158  32.484  40.222  11.011
46754W        W15159  22.840   3.749  13.844
46755W        W15160  24.975  19.956   2.802
46756W        W15161   3.288  27.419  12.191
46757W        W15162   5.727   2.233   3.373
46758W        W15163  38.470  20.303   0.456
46759W        W15164   3.337  37.565   2.175
46760W        W15165   6.217  40.319   0.961
46761W        W15166  30.385  28.560  13.888
46762W        W15167   7.909  38.302  12.527
46763W        W15168   5.813  22.362   1.437
46764W        W15169  20.534  31.122   0.767
46765W        W15170  28.331   5.901   1.970
46766W        W15171  12.666  18.735   1.962
46767W        W15172  19.667  39.158   1.052
46768W        W15173  21.803  25.984  12.426
46769W        W15174  44.430  34.223  12.028
46770W        W15175  39.983   9.954  12.070
46771W        W15176  12.265  19.571   1.392
46772W        W15177  12.172   6.974  12.059
46773W        W15178   9.252  14.207  13.549
46774W        W15179  14.357  38.222  11.023
46775W        W15180   9.475  40.860  14.573
46776W        W15181   9.278  42.297   3.331
46777W        W15182  43.987  33.457  11.654
46778W        W15183   5.716  27.162   0.522
46779W        W15184  28.772  19.289   4.571
46780W        W15185  44.882  43.433   3.629
46781W        W15186  21.667  38.092   0.966
46782W        W15187  22.134  41.151  13.389
46783W        W15188   6.957   7.675  10.597
46784W        W15189   5.969   6.473  13.322
46785W        W15190  30.446  23.059  11.603
46786W        W15191  36.500  30.637  12.125
46787W        W15192  19.121  42.355   4.207
46788W        W15193  25.438  13.171  13.967
46789W        W15194   4.002  10.873   4.716
46790W        W15195  19.092  40.516   4.131
46791W        W15196  12.323  38.428  12.080
46792W        W15197  33.021  13.765   3.386
46793W        W15198   4.776   3.986   0.312
46794W        W15199   9.878  40.760  14.895
46795W        W15200  42.299  36.410   3.651
46796W        W15201  14.678  18.247  12.902
46797W        W15202   1.572  24.662   2.831
46798W        W15203  11.401   5.257   2.203
46799W        W15204  26.570  30.254   2.379
46800W        W15205   6.481   6.122   3.179
46801W        W15206  36.730  29.466   4.739
46802W        W15207  34.426  12.179   0.859
46803W        W15208  19.215  34.023  13.902
46804W        W15209  30.504  23.930   2.388
46805W        W15210   0.290  17.323  14.959
46806W        W15211  14.876  38.883  12.084
46807W        W15212  12.203  22.146   4.112
46808W        W15213  17.720  40.864   3.218
46809W        W15214  12.855  38.328  14.895
46810W        W15215  19.201  34.142   0.253
46811W        W15216  33.677   2.959  10.039
46812W        W15217  17.747  19.694   1.290
46813W        W15218  39.079  39.977   1.747
46814W        W15219  43.971  43.789  11.997
46815W        W15220  29.584  22.523  11.372
46816W        W15221  17.442  26.550   4.661
46817W        W15222  10.121  30.643   3.249
46818W        W15223  36.113  33.201  10.451
46819W        W15224   8.653  13.931  12.480
46820W        W15225  26.315  29.636   3.166
46821W        W15226  37.930  41.878  13.332
46822W        W15227  34.385  37.734   4.784
46823W        W15228  25.636   4.158  14.345
46824W        W15229  36.310  10.653   0.855
46825W        W15230  36.419  25.664   2.725
46826W        W15231  44.804  25.550   2.330
46827W        W15232   8.135  10.342  10.659
46828W        W15233  32.018  10.336  12.154
46829W        W15234  30.480  26.958  12.432
46830W        W15235  29.187   8.172  13.551
46831W        W15236  12.244  10.595   1.048
46832W        W15237  33.521  39.873  13.001
46833W        W15238  23.087   8.171  12.676
46834W        W15239  33.906   3.516   0.498
46835W        W15240  41.936  32.207  12.085
46836W        W15241  23.106  14.554   2.258
46837W        W15242  44.667  23.723   4.820
46838W        W15243  29.453   8.308  10.599
46839W        W15244   4.241  17.740   4.575
46840W        W15245  23.316  25.486   1.659
46841W        W15246  43.267   0.583   4.210
46842W        W15247  10.858   4.672   0.411
46843W        W15248  33.173   1.795  10.772
46844W        W15249  23.031  29.825   2.233
46845W        W15250   4.313  13.467  12.024
46846W        W15251   4.657  44.429  11.610
46847W        W15252  21.760  24.520   4.535
46848W        W15253  27.654  31.202  13.982
46849W        W15254   7.601  26.513  11.246
46850W        W15255   8.241  29.347   2.832
46851W        W15256  30.434  11.759   3.767
46852W        W15257  24.577  44.572  11.656
46853W        W15258  28.020  13.918   0.917
46854W        W15259  28.136  26.299  11.367
46855W        W15260  30.165  33.514  14.684
46856W        W15261  35.498   1.578   2.230
46857W        W15262   4.525  22.976  13.350
46858W        W15263   2.552  24.534   1.800
46859W        W15264   8.588  22.388  13.567
46860W        W15265  33.961  42.013   3.090
46861W        W15266   4.810  44.154  14.365
46862W        W15267  26.613  17.536   3.353
46863W        W15268   1.602  11.292   4.554
46864W        W15269   4.477  10.364  14.051
46865W        W15270  11.284  40.359  12.148
46866W        W15271  28.139  24.997   0.754
46867W        W15272  27.165   2.233  14.132
46868W        W15273  12.734  22.172   4.213
46869W        W15274  20.301  27.663  11.094
46870W        W15275  27.433  44.004   3.664
46871W        W15276  18.107  10.404   0.426
46872W        W15277   7.370  33.536  14.181
46873W        W15278   3.513  27.640  13.135
46874W        W15279  29.253  15.206   1.446
46875W        W15280  20.330  12.087  11.060
46876W        W15281  11.407   6.192   3.541
46877W        W15282  31.532  43.539   3.683
46878W        W15283  35.812   5.799  13.843
46879W        W15284   7.412  26.998   3.728
46880W        W15285  20.720   7.749   3.710
46881W        W15286   0.257   5.351  14.809
46882W        W15287   6.873   4.297   4.624
46883W        W15288  35.230  19.764   0.443
46884W        W15289   8.903  28.740  14.855
46885W        W15290  29.252  35.808  12.509
46886W        W15291   8.463  22.096   4.488
46887W        W15292  11.746  43.948   1.179
46888W        W15293  24.050  36.874  14.307
46889W        W15294  37.317  23.611   1.208
46890W        W15295  22.044   7.813  14.446
46891W        W15296  22.621   3.230  13.474
46892W        W15297  40.755  43.137  13.013
46893W        W15298  30.857  14.520   4.767
46894W        W15299  19.826  33.844  14.421
46895W        W15300  32.679  41.543  10.709
46896W        W15301  30.872  13.644  13.934
46897W        W15302  26.430  30.731   2.219
46898W        W15303  27.528  39.880   2.329
46899W        W15304  11.273  30.553  10.307
46900W        W15305  13.776  19.789  14.478
46901W        W15306  32.929   0.974   1.330
46902W        W15307  41.873  11.177  13.428
46903W        W15308  33.854  21.463  11.312
46904W        W15309   1.820  30.556   1.070
46905W        W15310  24.943  39.266   2.330
46906W        W15311   8.934  35.991   2.370
46907W        W15312  13.114  32.808   3.132
46908W        W15313  12.770   3.187   2.380
46909W        W15314  30.476  11.233  14.050
46910W        W15315  17.382  17.698   2.423
46911W        W15316  11.957  24.618   0.847
46912W        W15317  34.845   0.048   4.598
46913W        W15318   9.481  36.580   1.851
46914W        W15319  44.218   0.055  12.187
46915W        W15320   9.181  34.591   1.009
46916W        W15321  24.172  24.449   4.153
46917W        W15322  43.290   2.846   4.207
46918W        W15323  11.093   1.449   2.324
46919W        W15324  39.367   2.906   3.631
46920W        W15325   8.090  37.554   0.420
46921W        W15326  23.286  28.977   1.627
46922W        W15327  42.828  21.059   3.851
46923W        W15328  25.632  41.404  14.951
46924W        W15329  27.828  23.977   0.796
46925W        W15330  15.043   3.035  14.467
46926W        W15331  40.468   8.632  11.094
46927W        W15332  18.644   9.312   1.690
46928W        W15333  38.865   7.835  11.781
46929W        W15334   5.917  16.225   1.775
46930W        W15335   6.206  38.434   0.322
46931W        W15336  28.785  31.072  13.080
46932W        W15337  20.528   8.111  11.488
46933W        W15338  14.618  19.702   2.654
46934W        W15339  20.231  15.670   2.392
46935W        W15340   9.252   3.207  11.595
46936W        W15341  34.917  17.169  11.518
46937W        W15342  13.388  25.682  13.760
46938W        W15343  11.291  23.521  13.555
46939W        W15344   9.797   0.270   4.610
46940W        W15345  21.293  40.540   0.869
46941W        W15346  31.739   4.942  12.599
46942W        W15347  34.789  20.677   3.423
46943W        W15348  17.226  18.234  13.937
46944W        W15349  34.381  35.877   3.629
46945W        W15350  25.898  36.045   2.725
46946W        W15351  24.485  19.352   3.648
46947W        W15352  21.153  25.708   1.752
46948W        W15353  20.688  19.752   1.475
46949W        W15354  26.627  19.752  13.027
46950W        W15355  32.587   9.274  12.910
46951W        W15356   6.499  36.002   3.157
46952W        W15357  40.051   2.779   3.208
46953W        W15358   9.233  14.899   0.854
46954W        W15359   1.287  21.719   4.659
46955W        W15360  13.273  16.694   3.858
46956W        W15361  32.990   4.295  12.431
46957W        W15362  14.291  11.531   1.177
46958W        W15363  36.015  10.800   1.245
46959W        W15364  19.418  23.099   1.222
46960W        W15365  29.144  36.664  14.600
46961W        W15366  25.555   0.862   2.173
46962W        W15367  21.691  41.942  13.487
46963W        W15368   3.010  13.858  13.561
46964W        W15369  14.559  42.501  11.580
46965W        W15370   3.407  32.126   0.725
46966W        W15371  44.874  30.870  14.864
46967W        W15372   3.027   1.664   1.733
46968W        W15373  16.671  31.477  11.962
46969W        W15374  13.563  16.071  13.508
46970W        W15375   2.111  20.758   0.743
46971W        W15376   6.312  32.955   0.514
46972W        W15377  32.446  10.018  12.166
46973W        W15378  24.635  20.485  13.450
46974W        W15379  11.789  28.515  10.778
46975W        W15380  28.317  43.362  13.432
46976W        W15381  43.962  33.526  10.791
46977W        W15382  37.142  14.543  12.413
46978W        W15383  35.307  28.059   3.172
46979W        W15384  19.648   8.662   4.476
46980W        W15385  24.073  39.766   2.761
46981W        W15386  32.072  39.248   3.069
46982W        W15387  42.415  37.528  14.201
46983W        W15388  20.074  36.898  13.938
46984W        W15389  38.668  22.303   2.739
46985W        W15390  40.483  22.208   3.322
46986W        W15391  37.472  11.647   4.609
46987W        W15392  27.466  11.584  13.088
46988W        W15393  30.912  15.439   4.077
46989W        W15394  18.236   3.721   0.077
46990W        W15395   5.883  43.509  10.732
46991W        W15396  20.054   4.684   3.332
46992W        W15397  33.600  32.465  12.527
46993W        W15398   5.727  33.640   1.008
46994W        W15399  38.000  26.105   2.181
46995W        W15400  43.935  33.254  12.142
46996W        W15401   6.683  37.134  14.998
46997W        W15402  22.001  26.025  11.166
46998W        W15403  14.581  20.549  12.378
46999W        W15404  34.837  42.047  11.210
47000W        W15405  17.057  31.429   1.868
47001W        W15406  11.769  22.322  12.500
47002W        W15407  24.734  10.821   3.599
47003W        W15408  28.229  35.993  10.306
47004W        W15409   8.775  19.488   5.104
47005W        W15410  12.852   4.791   1.788
47006W        W15411  14.955  14.148   4.151
47007W        W15412   3.491  30.558   2.294
47008W        W15413  17.011  40.788  10.702
47009W        W15414  17.364  32.300   5.472
47010W        W15415  29.233  16.353   2.563
47011W        W15416  12.786  10.374   3.722
47012W        W15417  39.739  35.406   5.070
47013W        W15418   2.883  17.042   4.856
47014W        W15419   1.635  11.834   1.598
47015W        W15420  39.596  34.872  12.607
47016W        W15421   1.416  14.780  14.817
47017W        W15422  29.037  40.443  14.110
47018W        W15423   9.578   2.917  12.965
47019W        W15424  21.678  35.643  12.598
47020W        W15425  38.787  34.369   1.734
47021W        W15426   5.832  41.239   1.707
47022W        W15427   2.171  16.719  13.763
47023W        W15428  29.896  37.594  12.020
47024W        W15429  21.145   2.383   4.436
47025W        W15430  17.008   3.479   1.408
47026W        W15431  26.239  22.680   3.673
47027W        W15432   5.352   1.701   2.686
47028W        W15433  10.420  41.408   4.642
47029W        W15434  41.093  11.757  10.913
47030W        W15435   2.672  38.436   0.315
47031W        W15436   8.656  22.735  10.769
47032W        W15437  29.053  42.996   5.105
47033W        W15438  42.001   1.115  11.660
47034W        W15439   7.791   1.314  11.111
47035W        W15440   8.770  20.660  12.980
47036W        W15441  16.578  27.798   2.485
47037W        W15442  18.408  22.068  13.294
47038W        W15443  31.340  33.487   2.320
47039W        W15444   4.224  39.065  10.929
47040W        W15445  31.157  25.122  12.996
47041W        W15446   7.291  18.145  10.703
47042W        W15447  35.425   1.405  13.781
47043W        W15448   0.489   3.212  13.140
47044W        W15449   8.276  29.864   2.663
47045W        W15450  44.468   6.914  13.819
47046W        W15451  43.684  18.201  11.701
47047W        W15452  23.716  44.405   4.130
47048W        W15453   1.871  30.901   3.112
47049W        W15454  30.154  10.660   4.072
47050W        W15455  25.042  29.576  13.876
47051W        W15456   9.179  33.380   1.837
47052W        W15457  30.475  31.863   2.843
47053W        W15458  18.257  18.408   4.279
47054W        W15459  30.996  38.324  10.706
47055W        W15460  38.679   4.819  11.810
47056W        W15461  27.725   0.414   3.667
47057W        W15462  30.871  23.418   2.465
47058W        W15463  34.472  34.516   2.656
47059W        W15464   4.196  28.035   4.584
47060W        W15465  26.703  11.848   0.981
47061W        W15466   3.780  32.708   1.169
47062W        W15467  26.647  41.184  11.479
47063W        W15468  37.953  32.577   0.198
47064W        W15469   4.057   2.271   3.440
47065W        W15470  40.934  12.705  10.531
47066W        W15471  12.890  21.310   2.976
47067W        W15472   7.770  24.998   5.062
47068W        W15473  36.932  38.510  14.823
47069W        W15474  42.083  25.147  10.781
47070W        W15475  29.626  33.076   4.115
47071W        W15476  34.014  18.481  11.109
47072W        W15477  23.793   1.043  11.070
47073W        W15478  42.586  32.080   1.691
47074W        W15479  22.086  20.603  13.822
47075W        W15480  41.880  40.348  13.874
47076W        W15481  41.357  17.113  10.699
47077W        W15482  44.761   6.282   9.760
47078W        W15483  27.570   0.751   4.032
47079W        W15484  35.149  20.465  12.577
47080W        W15485   2.846   4.250  13.094
47081W        W15486   8.468   7.387  11.537
47082W        W15487  21.522  20.607  11.556
47083W        W15488  22.049  16.825   1.336
47084W        W15489   9.414  12.790   1.748
47085W        W15490  27.265  38.957   0.002
47086W        W15491   4.733  14.842   4.470
47087W        W15492  14.055   4.297  12.118
47088W        W15493  11.538  31.111  13.508
47089W        W15494  23.170  14.097   3.079
47090W        W15495   0.191  39.500  11.266
47091W        W15496  41.277   4.758   4.691
47092W        W15497  10.687  13.578  14.238
47093W        W15498  23.725  35.447   0.256
47094W        W15499  44.207  16.203  12.391
47095W        W15500  43.761  28.767  11.128
47096W        W15501  37.122  40.900  13.929
47097W        W15502  34.283   4.656  11.212
47098W        W15503  13.012  30.808   3.445
47099W        W15504  15.036   5.126   4.563
47100W        W15505  21.173   1.262  12.817
47101W        W15506   8.311  36.900   3.124
47102W        W15507  25.438   6.040  14.963
47103W        W15508  20.479  35.992  12.371
47104W        W15509  26.062  36.112  10.414
47105W        W15510   7.663  43.433   2.707
47106W        W15511  15.355  23.304   3.251
47107W        W15512  44.545  31.513   3.718
47108W        W15513  27.109  13.261   1.296
47109W        W15514   3.421  38.322  12.583
47110W        W15515  36.282  37.653  12.643
47111W        W15516   1.870   8.848   1.272
47112W        W15517  28.069  40.265  12.491
47113W        W15518  26.701   4.853   2.173
47114W        W15519  32.700  29.837  13.208
47115W        W15520  36.310  13.531   0.864
47116W        W15521  43.516  20.216   4.750
47117W        W15522  19.515   7.312  14.319
47118W        W15523   5.933  32.054   2.364
47119W        W15524  25.460  39.825   1.879
47120W        W15525  24.150  21.115   2.102
47121W        W15526  15.621  21.220  14.860
47122W        W15527  44.151  26.269  12.426
47123W        W15528  29.389  11.713   1.219
47124W        W15529  24.095  33.088  12.804
47125W        W15530  30.971  10.792   3.425
47126W        W15531  39.595  44.306  14.998
47127W        W15532  38.406   7.544   9.687
47128W        W15533  23.065  39.622  11.540
47129W        W15534   7.927  31.137   4.125
47130W        W15535  12.889   1.190   1.408
47131W        W15536  10.744   9.932  12.856
47132W        W15537  36.975  21.036  10.255
47133W        W15538  19.102  19.029   2.406
47134W        W15539  41.293  39.601  13.794
47135W        W15540  42.308  29.819   3.141
47136W        W15541  39.116  39.349  11.656
47137W        W15542  37.047   1.480  13.462
47138W        W15543  34.152  38.258  13.149
47139W        W15544  14.564   9.407   5.072
47140W        W15545  33.536  26.751  14.772
47141W        W15546  33.834   9.793  13.490
47142W        W15547  23.826  10.871  12.582
47143W        W15548  42.463   1.392  11.806
47144W        W15549  41.894   2.727   3.803
47145W        W15550   8.378  33.942  11.587
47146W        W15551  26.415  41.665   3.157
47147W        W15552  31.516  18.974   1.911
47148W        W15553  32.972  40.821   0.434
47149W        W15554  38.261  30.960  12.468
47150W        W15555   0.983   8.441   3.713
47151W        W15556  41.355  27.018   0.977
47152W        W15557  38.277  39.285   1.883
47153W        W15558   4.170  23.973   4.459
47154W        W15559  24.108  37.782  14.027
47155W        W15560  38.989  28.328   4.101
47156W        W15561  39.891  18.465   2.710
47157W        W15562  23.187  18.484  11.793
47158W        W15563  43.831   6.942   0.438
47159W        W15564  16.158  12.698   1.736
47160W        W15565  44.342  15.649  11.982
47161W        W15566   0.076  15.932  13.922
47162W        W15567  31.157  19.728  13.059
47163W        W15568  35.427  29.200   2.787
47164W        W15569  14.411  42.580  12.331
47165W        W15570  19.034  22.007  11.408
47166W        W15571  19.914  39.273  13.803
47167W        W15572  40.841   6.019  14.629
47168W        W15573  26.453   2.712   2.736
47169W        W15574  31.367  10.699  14.764
47170W        W15575  36.627   8.283  14.392
47171W        W15576  10.184  35.805  13.860
47172W        W15577  28.014   1.012  14.081
47173W        W15578  44.782  37.869   1.404
47174W        W15579  23.458  34.917  13.915
47175W        W15580  28.113  10.632  14.903
47176W        W15581   3.233   8.381  12.945
47177W        W15582  26.315  16.383   0.825
47178W        W15583  41.971  12.252   1.038
47179W        W15584  38.818  18.970  11.691
47180W        W15585  20.542   2.584  14.392
47181W        W15586   2.009  25.711   1.672
47182W        W15587  23.859  32.271  10.533
47183W        W15588  31.516   8.299   4.144
47184W        W15589   5.706  15.814  13.802
47185W        W15590   2.697  17.181  14.915
47186W        W15591   6.281   1.348   0.230
47187W        W15592  11.981  16.515   9.941
47188W        W15593  32.552  37.543   1.569
47189W        W15594   9.738  24.602  12.902
47190W        W15595  16.802  22.695   4.481
47191W        W15596   0.225  41.289  11.669
47192W        W15597  42.995  41.374   4.244
47193W        W15598  37.884  27.302  14.556
47194W        W15599   7.541  12.089   1.947
47195W        W15600  14.158   3.826  10.657
47196W        W15601  44.261   7.398   3.817
47197W        W15602  27.178   9.076  14.026
47198W        W15603  21.327   5.331  12.187
47199W        W15604  23.019  33.167   0.837
47200W        W15605  21.725  29.397  14.746
47201W        W15606  41.423   2.482   3.879
47202W        W15607   6.505   3.098   0.722
47203W        W15608   7.411  19.679   0.637
47204W        W15609  21.179   6.461  12.959
47205W        W15610   0.321  21.584   2.226
47206W        W15611  14.041  37.257  11.092
47207W        W15612  20.280   2.033   4.476
47208W        W15613  18.608   5.186   1.286
47209W        W15614   9.649  36.463   2.361
47210W        W15615  33.386   0.123   2.020
47211W        W15616  20.735  14.142  12.837
47212W        W15617  23.102   5.206   4.861
47213W        W15618   9.172  42.043  14.873
47214W        W15619  18.728  22.154  13.675
47215W        W15620  40.570  28.184   5.097
47216W        W15621  37.108  24.139  11.325
47217W        W15622  41.592  27.400   1.239
47218W        W15623  42.881   9.195   5.050
47219W        W15624   2.194   4.320   0.898
47220W        W15625   5.761   4.812   2.167
47221W        W15626  22.291  10.626  14.095
47222W        W15627  37.518   2.863  13.780
47223W        W15628   1.691  12.719   2.246
47224W        W15629  18.195  11.123   2.893
47225W        W15630  17.242   6.874   3.746
47226W        W15631  17.726  40.396  12.108
47227W        W15632   0.008  12.695   4.740
47228W        W15633   2.508   5.928   3.860
47229W        W15634  43.817   9.144  14.296
47230W        W15635   7.922  11.605   1.502
47231W        W15636  17.614  14.626   4.786
47232W        W15637  26.025  17.019   2.285
47233W        W15638   4.376  23.202   3.984
47234W        W15639  40.393  14.571   0.902
47235W        W15640  13.116  33.592  11.040
47236W        W15641  26.276  44.443  10.767
47237W        W15642  17.633  19.457   3.765
47238W        W15643   7.903  23.520   2.739
47239W        W15644  25.108   8.283   3.740
47240W        W15645  17.017   2.306  13.484
47241W        W15646  27.892   0.307  10.066
47242W        W15647  22.417  41.533   4.111
47243W        W15648  31.679   4.775  11.201
47244W        W15649   2.011   2.803  13.379
47245W        W15650  42.292  10.124   2.678
47246W        W15651  34.947  29.240   3.688
47247W        W15652  13.807   9.183  11.046
47248W        W15653   8.729  42.064  12.678
47249W        W15654  18.003  28.579   0.967
47250W        W15655   6.498  29.639  10.075
47251W        W15656  13.778  18.773  12.073
47252W        W15657  26.408   4.708   0.356
47253W        W15658   1.488  25.604   0.478
47254W        W15659  39.964  29.291  12.200
47255W        W15660  24.456  19.742  11.306
47256W        W15661  13.352  13.072   0.452
47257W        W15662  26.053  13.451   0.372
47258W        W15663  23.735  10.673  11.214
47259W        W15664  38.340   6.331  13.395
47260W        W15665   4.512  26.589   2.287
47261W        W15666   3.140  12.959   3.569
47262W        W15667   2.688  24.495  14.922
47263W        W15668  18.801  26.027  11.584
47264W        W15669  14.157   9.736   4.271
47265W        W15670   1.340  13.598   3.574
47266W        W15671   9.649  15.806  14.946
47267W        W15672   2.234   8.335  13.727
47268W        W15673  17.845   1.506   3.277
47269W        W15674  15.791   4.530  10.710
47270W        W15675  37.021   6.185  11.194
47271W        W15676  43.275  27.929   2.805
47272W        W15677  28.608  34.004  11.246
47273W        W15678  18.656  11.076   4.150
47274W        W15679  11.642  23.509   0.521
47275W        W15680   6.324   2.800   3.359
47276W        W15681  23.175  30.418   1.761
47277W        W15682  32.408  39.983   1.144
47278W        W15683   3.456  25.045   0.725
47279W        W15684  34.012  41.741   0.462
47280W        W15685  37.209  18.917   0.967
47281W        W15686  34.809  20.093  13.524
47282W        W15687  41.978  34.469  14.298
47283W        W15688  21.756   8.786  14.000
47284W        W15689  14.653  19.724   0.824
47285W        W15690  27.302  36.671  13.348
47286W        W15691  17.863  21.619   2.838
47287W        W15692  10.873  35.348   2.786
47288W        W15693   9.747  31.799  10.966
47289W        W15694  11.344  22.262   4.520
47290W        W15695   9.381  16.978  12.110
47291W        W15696  38.383  41.872  14.703
47292W        W15697  40.897  31.763   0.472
47293W        W15698   5.120  17.381   2.803
47294W        W15699  10.801   8.278   2.655
47295W        W15700  23.199  31.937  10.669
47296W        W15701  15.343  40.045  12.168
47297W        W15702  39.165   8.008   4.075
47298W        W15703  30.602  38.102   3.316
47299W        W15704  29.503  15.732   0.468
47300W        W15705  10.676  43.887   1.224
47301W        W15706  29.706   5.666  10.352
47302W        W15707  21.118   2.346   4.947
47303W        W15708  12.199  39.802   0.794
47304W        W15709   4.953   3.215   1.407
47305W        W15710   1.744  11.533   3.993
47306W        W15711  43.135  26.622  14.684
47307W        W15712   9.917  31.566   2.679
47308W        W15713  22.982  33.277  10.789
47309W        W15714  13.660  34.265  14.902
47310W        W15715   7.760  29.876   2.710
47311W        W15716  27.700  36.440   3.242
47312W        W15717  22.498   3.362   1.275
47313W        W15718   9.797  43.268  13.707
47314W        W15719  24.648  35.924  11.553
47315W        W15720  33.771  43.359  12.530
47316W        W15721  42.786   2.732   2.825
47317W        W15722  43.341  36.266   1.680
47318W        W15723  24.646   8.616  12.018
47319W        W15724  19.436  15.237   2.437
47320W        W15725  38.631  27.579   0.202
47321W        W15726  44.237  21.033  13.014
47322W        W15727  26.880  11.494  11.139
47323W        W15728  44.806   5.065   1.605
47324W        W15729  21.049   5.291  11.315
47325W        W15730   0.303  29.020  13.127
47326W        W15731  34.368  32.137   4.532
47327W        W15732  20.382   3.706   0.748
47328W        W15733   1.158  33.086   1.788
47329W        W15734  15.807  21.104   3.188
47330W        W15735  29.982  31.933  10.676
47331W        W15736  42.480   0.251   4.433
47332W        W15737   4.033  41.097  13.696
47333W        W15738   1.816  35.565   1.156
47334W        W15739  16.788  15.496  12.029
47335W        W15740  17.632  24.283   0.827
47336W        W15741  14.634  23.635  11.365
47337W        W15742  10.867   3.566   1.348
47338W        W15743  27.715  19.111  12.874
47339W        W15744  17.512  36.979  14.803
47340W        W15745  34.909  31.938  12.371
47341W        W15746  30.010  38.249   1.553
47342W        W15747  36.913   6.717   4.574
47343W        W15748   3.399  18.254  11.594
47344W        W15749  39.717  31.398  12.945
47345W        W15750   7.412  44.404   1.630
47346W        W15751   6.235  21.527  12.924
47347W        W15752  22.980  41.126  11.394
47348W        W15753   4.700  13.527   0.341
47349W        W15754  32.870  16.332   3.744
47350W        W15755  28.105  39.073   1.348
47351W        W15756  18.735  25.755  14.081
47352W        W15757  36.522   0.801   0.947
47353W        W15758  16.388  29.331   4.060
47354W        W15759  43.520   0.501  14.522
47355W        W15760  13.444  20.540   2.223
47356W        W15761  44.801   5.603  10.556
47357W        W15762  24.173  15.321  14.465
47358W        W15763  36.540  33.656   2.300
47359W        W15764  24.253  21.638  13.439
47360W        W15765   9.372  18.029  12.527
47361W        W15766   5.974  34.940   0.920
47362W        W15767  38.333  30.571  14.963
47363W        W15768  43.036  26.263  10.603
47364W        W15769  44.970  38.813  10.752
47365W        W15770  29.979   7.419   3.755
47366W        W15771  17.339  37.507  12.901
47367W        W15772  38.406   1.470   2.490
47368W        W15773  12.888  30.389   4.276
47369W        W15774  14.123   4.450   2.366
47370W        W15775  20.777  43.590   0.716
47371W        W15776  30.218  24.662   1.868
47372W        W15777  16.557  43.912  14.742
47373W        W15778  19.307   9.191   2.453
47374W        W15779  31.812  16.607  12.442
47375W        W15780  15.215  20.996  11.077
47376W        W15781  37.328  23.597  10.032
47377W        W15782  37.981  36.660   1.775
47378W        W15783   4.928  31.028  10.556
47379W        W15784  22.763  27.362  11.051
47380W        W15785   4.554  17.238  10.622
47381W        W15786  18.715  20.570  10.283
47382W        W15787  40.435  11.371  14.933
47383W        W15788  28.191  39.390   0.903
47384W        W15789  26.902  25.215   0.012
47385W        W15790  39.167   6.882   2.598
47386W        W15791   9.231  42.964  14.415
47387W        W15792  43.156  32.178  14.938
47388W        W15793   6.330   2.821   2.839
47389W        W15794  28.481   3.148   2.641
47390W        W15795  32.906  18.098  12.817
47391W        W15796  25.091  28.182  11.251
47392W        W15797  38.312  36.169  11.188
47393W        W15798  44.995  39.522   2.175
47394W        W15799  11.605  14.743   1.681
47395W        W15800  39.321  17.223   0.736
47396W        W15801  39.828  10.688   3.186
47397W        W15802  17.699  43.981   3.353
47398W        W15803  31.221  35.997   2.859
47399W        W15804  31.562  14.600  12.030
47400W        W15805  27.938  38.442  10.265
47401W        W15806  15.740  43.440  14.930
47402W        W15807   7.630  23.052   0.841
47403W        W15808  19.159   6.570  14.275
47404W        W15809  13.719  21.597  13.060
47405W        W15810  41.511  40.800  12.567
47406W        W15811  42.771  19.127   4.253
47407W        W15812  27.025  41.068  14.361
47408W        W15813  22.016  19.618   4.629
47409W        W15814  44.425   3.444   0.512
47410W        W15815   5.983  21.865   0.888
47411W        W15816   7.121  44.532  14.768
47412W        W15817  40.968  19.041   4.030
47413W        W15818   0.654  23.016   0.173
47414W        W15819  34.465  20.375   4.779
47415W        W15820  44.930  30.184  13.449
47416W        W15821  39.642   7.222   3.620
47417W        W15822  28.739   4.948  14.713
47418W        W15823   4.243  12.670  14.384
47419W        W15824  41.046  17.276  11.518
47420W        W15825   7.704  20.067   0.459
47421W        W15826  17.619   0.331  13.811
47422W        W15827  23.412   9.951  11.775
47423W        W15828  39.939  10.096  12.605
47424W        W15829  19.582  43.347   1.864
47425W        W15830  39.871  35.029   4.723
47426W        W15831  33.135  16.834  14.538
47427W        W15832  13.114   6.037   0.546
47428W        W15833  37.662  24.114   4.649
47429W        W15834  25.557  43.988  11.913
47430W        W15835  38.914  43.716   1.765
47431W        W15836  37.957  35.906   4.496
47432W        W15837  33.036   8.193   0.814
47433W        W15838  34.672   3.799   2.103
47434W        W15839   9.788   3.686   2.683
47435W        W15840  43.302  15.732   1.514
47436W        W15841  35.320  12.188  11.170
47437W        W15842   0.403  13.676   0.260
47438W        W15843   8.094   6.068   1.434
47439W        W15844  34.101   9.859   3.719
47440W        W15845   4.193  29.059  14.040
47441W        W15846  41.896  40.287   1.840
47442W        W15847   8.781  39.064  14.399
47443W        W15848   7.689  21.670   3.567
47444W        W15849   6.227  31.545   3.767
47445W        W15850  32.853  44.924  14.464
47446W        W15851  42.080   5.494  10.730
47447W        W15852  34.071  17.505  13.828
47448W        W15853  11.738  26.206  10.603
47449W        W15854  43.621  36.499   3.401
47450W        W15855  42.009   8.255  13.861
47451W        W15856  42.061  40.549  11.572
47452W        W15857  42.164   6.764   1.352
47453W        W15858  36.782  24.961   4.575
47454W        W15859  11.245  11.957   0.872
47455W        W15860  34.867  40.585  12.045
47456W        W15861  18.551   4.038  11.922
47457W        W15862   6.621  37.431   3.806
47458W        W15863  37.289  12.887   4.109
47459W        W15864  24.683  25.542  14.533
47460W        W15865  22.781   2.392  14.044
47461W        W15866  10.715  32.170  12.661
47462W        W15867  40.292  15.348  11.552
47463W        W15868  14.697   6.932   4.219
47464W        W15869   7.760  19.120  12.956
47465W        W15870  23.984  22.374  10.435
47466W        W15871  18.596  34.569  12.621
47467W        W15872  24.180  39.744   0.942
47468W        W15873  14.201  15.306  10.420
47469W        W15874  27.185   0.361   0.920
47470W        W15875  40.048  35.734  11.965
47471W        W15876  44.250  11.762  14.170
47472W        W15877  26.348   7.627  13.543
47473W        W15878  19.096  18.729   0.179
47474W        W15879  14.084   3.850  14.780
47475W        W15880  33.647  23.096   2.931
47476W        W15881  25.133  30.997  14.774
47477W        W15882  35.120  34.512   2.319
47478W        W15883   3.703  24.667  11.272
47479W        W15884  22.586  39.365   2.776
47480W        W15885  24.215  42.378  10.800
47481W        W15886  11.303  36.938  12.531
47482W        W15887  28.371  20.064   3.137
47483W        W15888  21.661  10.311   4.072
47484W        W15889  29.776  12.002   4.266
47485W        W15890   5.472  17.037  13.104
47486W        W15891   1.887   6.446   1.309
47487W        W15892  10.717   0.582   1.019
47488W        W15893  13.912   2.582  13.170
47489W        W15894  25.177  25.703   0.949
47490W        W15895  15.886  25.632   3.007
47491W        W15896  39.619  20.180   0.850
47492W        W15897  43.427  37.737  10.771
47493W        W15898  27.315  36.973  12.029
47494W        W15899   4.593  34.637   0.017
47495W        W15900  14.889   0.495  10.582
47496W        W15901  15.157   9.894   0.526
47497W        W15902  40.124  32.200  14.570
47498W        W15903  10.460  23.579  10.746
47499W        W15904  18.776  18.565  12.035
47500W        W15905  41.342   4.543   3.584
47501W        W15906  21.377  29.706  14.022
47502W        W15907  17.929  21.979  13.465
47503W        W15908  31.506  17.179   1.620
47504W        W15909  38.501  35.347   4.103
47505W        W15910  18.017   0.755  13.752
47506W        W15911  37.853  27.210  11.348
47507W        W15912   5.246  17.859   2.610
47508W        W15913  11.700  30.484   0.981
47509W        W15914  15.773  38.230  10.945
47510W        W15915  11.744  41.752  11.928
47511W        W15916  28.639   7.249   0.619
47512W        W15917  32.434   2.863   0.284
47513W        W15918  31.501  41.578   3.347
47514W        W15919  15.714  30.698   1.085
47515W        W15920  18.602  23.762  14.453
47516W        W15921  29.176  34.866  12.517
47517W        W15922  10.348  20.623  11.180
47518W        W15923  20.987   9.273  14.057
47519W        W15924   9.669  29.384  11.893
47520W        W15925  22.143  30.354  11.638
47521W        W15926  37.916  33.024  12.887
47522W        W15927  18.123  31.438  11.742
47523W        W15928  18.186  32.767   2.598
47524W        W15929   7.800   5.275  12.342
47525W        W15930  26.539  34.897  11.579
47526W        W15931  32.559  41.425   3.598
47527W        W15932   9.738  35.569   2.264
47528W        W15933  36.525  27.334  11.665
47529W        W15934  24.408  42.000   3.688
47530W        W15935  13.898   9.950   5.309
47531W        W15936  22.304  33.142   0.408
47532W        W15937  21.759  11.699   1.950
47533W        W15938  41.858  11.796   0.034
47534W        W15939  37.780  18.778   0.947
47535W        W15940  39.173  19.281  11.477
47536W        W15941  39.453   5.891  11.062
47537W        W15942  11.675  35.520   3.629
47538W        W15943  42.967  28.512  12.494
47539W        W15944  13.746  40.019  10.923
47540W        W15945  35.284  29.054  13.543
47541W        W15946  23.813   6.486  11.324
47542W        W15947  31.936  38.819   2.818
47543W        W15948  28.671  21.606   0.335
47544W        W15949  19.294  26.978   4.790
47545W        W15950   1.903  36.285  12.486
47546W        W15951  10.260  42.698   2.909
47547W        W15952   4.203  20.101   2.421
47548W        W15953  36.872  15.336  12.001
47549W        W15954   4.166  33.566   1.949
47550W        W15955  25.813  39.261  14.981
47551W        W15956  14.724   1.923   4.230
47552W        W15957   6.632  25.196  10.358
47553W        W15958  35.296  10.780  12.517
47554W        W15959  16.411  33.991   3.141
47555W        W15960  18.167  18.315   0.208
47556W        W15961   1.129  25.047  13.637
47557W        W15962  32.035  42.498   0.533
47558W        W15963  20.136  41.542   1.787
47559W        W15964  21.371  41.262   2.444
47560W        W15965  40.311  41.791  14.237
47561W        W15966  24.263  38.615  13.410
47562W        W15967  21.769  10.754   2.354
47563W        W15968  40.262  43.275  12.941
47564W        W15969   0.682  21.271   2.849
47565W        W15970  19.588   0.009   2.551
47566W        W15971  28.367  37.979   0.758
47567W        W15972  18.775  20.198   0.346
47568W        W15973  10.027  37.947   3.911
47569W        W15974  17.867   7.465   1.860
47570W        W15975   9.793  10.017   1.256
47571W        W15976   7.899  26.133  11.408
47572W        W15977  20.218   7.672  13.933
47573W        W15978  35.615  29.402   1.717
47574W        W15979  37.293  21.279   0.017
47575W        W15980  28.105  42.407   2.452
47576W        W15981  30.258  40.260  11.697
47577W        W15982  15.137   9.015   0.279
47578W        W15983   5.345  24.205   3.179
47579W        W15984   6.719   2.319  10.937
47580W        W15985  28.232  39.460  12.824
47581W        W15986   6.819  16.123   4.163
47582W        W15987  21.539  27.447   1.285
47583W        W15988  30.009   3.824   3.383
47584W        W15989  20.733   5.688   2.713
47585W        W15990  28.940  23.776  14.050
47586W        W15991   1.413  16.375   0.033
47587W        W15992  19.807  19.592   1.314
47588W        W15993  13.364  20.838  11.095
47589W        W15994  33.064  25.646   2.563
47590W        W15995   4.817  38.971   3.276
47591W        W15996  38.036  15.846   4.944
47592W        W15997  10.176  37.574   1.812
47593W        W15998   9.401  21.613  10.898
47594W        W15999  40.418  43.022  10.154
47595W        W16000  37.638  19.571  14.292
47596W        W16001  42.507   1.252   3.225
47597W        W16002  29.914  16.304   4.023
47598W        W16003  16.183  23.995  14.930
47599W        W16004  42.510  21.300  12.053
47600W        W16005   6.321  38.376  11.657
47601W        W16006  33.268  33.019   3.806
47602W        W16007  29.150  36.979  12.331
47603W        W16008  11.297  36.558  13.460
47604W        W16009   7.417   4.473  10.656
47605W        W16010  10.667   4.307   3.402
47606W        W16011  35.568  27.639   1.208
47607W        W16012  19.563  28.837   1.923
47608W        W16013   0.845   1.629   2.875
47609W        W16014  40.984   8.912   1.592
47610W        W16015  13.107  41.912   2.100
47611W        W16016  11.303  33.397  12.490
47612W        W16017  35.963  26.913  14.446
47613W        W16018  36.927  39.092  13.474
47614W        W16019   5.972  37.184  11.690
47615W        W16020  14.277  10.019   4.670
47616W        W16021  18.372  36.348  13.446
47617W        W16022   5.389  20.621  12.435
47618W        W16023   5.482  15.955   2.986
47619W        W16024   4.888  16.053  14.399
47620W        W16025   5.507  23.841  13.803
47621W        W16026  27.511   2.928   3.975
47622W        W16027   2.298  35.072   4.537
47623W        W16028  20.144  21.973   1.006
47624W        W16029  12.373  26.983  11.564
47625W        W16030  44.008  20.943   0.457
47626W        W16031  22.582   2.986  12.510
47627W        W16032  33.620  27.900   3.226
47628W        W16033  25.261  30.637  13.943
47629W        W16034   5.935  20.988   0.950
47630W        W16035  34.052  28.706   3.117
47631W        W16036  18.064  18.542   2.839
47632W        W16037  44.706   0.358  11.473
47633W        W16038   7.426  13.352  12.071
47634W        W16039   5.720  36.879   3.167
47635W        W16040   6.030  39.271   2.758
47636W        W16041   3.361  21.155   1.666
47637W        W16042  17.524   6.313   5.383
47638W        W16043  11.622  27.762  14.825
47639W        W16044  18.983  35.860   3.657
47640W        W16045  31.048  27.665  12.052
47641W        W16046   6.793  12.644   3.806
47642W        W16047   3.846  38.086  12.396
47643W        W16048  19.670  26.065   1.770
47644W        W16049   7.850  15.623  14.216
47645W        W16050  11.281  43.686  14.256
47646W        W16051  19.309  40.589  10.668
47647W        W16052  32.312  33.833   1.036
47648W        W16053  25.279   7.404  12.047
47649W        W16054   2.710  29.466   2.744
47650W        W16055  11.326  26.196   4.598
47651W        W16056  12.544  39.292   0.893
47652W        W16057  10.212  22.507   1.989
47653W        W16058  18.629  38.898   2.239
47654W        W16059  15.059  41.908  14.060
47655W        W16060  30.149   2.992   0.017
47656W        W16061  31.635  32.917   2.637
47657W        W16062  10.588  10.146  10.193
47658W        W16063  39.075  42.477  14.007
47659W        W16064   4.649  39.063  10.632
47660W        W16065  39.189  31.520  11.212
47661W        W16066  39.949   1.073   2.067
47662W        W16067  25.127  12.634  14.523
47663W        W16068  31.547  27.974   2.952
47664W        W16069   2.555  16.286  12.966
47665W        W16070  32.163   2.771  14.029
47666W        W16071  18.546  27.220   0.004
47667W        W16072   2.639  19.430  11.386
47668W        W16073  29.586   9.296  13.063
47669W        W16074  35.443  14.602  11.556
47670W        W16075  17.290  14.077  12.320
47671W        W16076   9.191  35.117   2.721
47672W        W16077  27.719   1.992  11.531
47673W        W16078   4.862  27.499  12.764
47674W        W16079  29.014  25.696   3.810
47675W        W16080  44.295  43.756  14.931
47676W        W16081  38.808  17.357   2.311
47677W        W16082  38.356  36.062  12.404
47678W        W16083  10.633  33.797   3.095
47679W        W16084  11.176  38.838  12.117
47680W        W16085   4.892   3.978   1.781
47681W        W16086  29.587  30.208   1.544
47682W        W16087  14.875   4.841   4.154
47683W        W16088  32.862  36.276  12.077
47684W        W16089  21.204  30.868   2.194
47685W        W16090  27.916  35.074  14.943
47686W        W16091  19.754   9.874  14.316
47687W        W16092   3.733   2.697   3.764
47688W        W16093   4.756  14.806  14.907
47689W        W16094   1.797   9.058   4.996
47690W        W16095  21.152   9.124   4.585
47691W        W16096  22.116   7.121   3.782
47692W        W16097   0.329  15.718   1.644
47693W        W16098  27.194  32.476  13.256
47694W        W16099  36.625  17.173  12.842
47695W        W16100  37.013   3.004  13.488
47696W        W16101  42.857   6.311   2.823
47697W        W16102  10.347  16.967  11.666
47698W        W16103  29.653  43.539   4.523
47699W        W16104  43.207   4.706   0.411
47700W        W16105  34.824  34.043   2.465
47701W        W16106   9.822  17.043   0.395
47702W        W16107  40.996   0.864   0.872
47703W        W16108   1.283  35.524  10.727
47704W        W16109  36.411  21.726  14.473
47705W        W16110  27.033  20.750   4.134
47706W        W16111   0.464  34.089  14.400
47707W        W16112   8.360  12.540  14.087
47708W        W16113  23.080  31.414   1.686
47709W        W16114   7.640   7.649   0.026
47710W        W16115  19.354   2.983   1.369
47711W        W16116  34.626  19.347  11.624
47712W        W16117   2.363  30.674   3.643
47713W        W16118  26.943  14.116  12.819
47714W        W16119  24.334  41.784  11.759
47715W        W16120  13.179   9.329  14.484
47716W        W16121  34.484  40.384   1.203
47717W        W16122  17.179  20.415   4.360
47718W        W16123  28.552  14.434   1.403
47719W        W16124  34.365  30.437  12.786
47720W        W16125  30.964  41.662  14.015
47721W        W16126  41.918  35.473  14.446
47722W        W16127  40.900  36.092   1.006
47723W        W16128  31.924  42.241  14.982
47724W        W16129  26.858   7.898  12.452
47725W        W16130   1.711   3.227   3.235
47726W        W16131  27.916  20.265   3.237
47727W        W16132   8.401  20.715   2.847
47728W        W16133   1.142  32.125  11.981
47729W        W16134  37.858  40.063  10.753
47730W        W16135  27.630  25.749  12.003
47731W        W16136  29.105   2.459   0.925
47732W        W16137  13.210  25.603  12.900
47733W        W16138  26.536  31.857   3.551
47734W        W16139  28.424  16.764  14.254
47735W        W16140   5.748   7.780   0.868
47736W        W16141   7.132  32.645  12.508
47737W        W16142   2.355   0.869  12.197
47738W        W16143  29.118   5.774   4.112
47739W        W16144   5.771  38.131  13.069
47740W        W16145  37.603   6.789   0.408
47741W        W16146  40.878  25.052  13.322
47742W        W16147   0.311  23.640   4.162
47743W        W16148  37.059   2.074   9.733
47744W        W16149  14.271   6.380  13.763
47745W        W16150  15.719   5.329   4.000
47746W        W16151  42.906  12.294   2.648
47747W        W16152  11.872  18.949  11.144
47748W        W16153  26.949  30.544  12.185
47749W        W16154  22.586  43.984   1.390
47750W        W16155   9.614  37.338  11.907
47751W        W16156   8.007   8.426  12.979
47752W        W16157  37.410   3.421   0.965
47753W        W16158   4.749   4.901  10.685
47754W        W16159   3.407  28.058  14.409
47755W        W16160  23.540   6.540   2.717
47756W        W16161  31.913  31.884   0.893
47757W        W16162  19.019  21.508   3.601
47758W        W16163   8.858  41.272   0.812
47759W        W16164  17.420  44.786   3.354
47760W        W16165  28.077   7.822   0.774
47761W        W16166  30.037  31.215  12.413
47762W        W16167   4.727  35.116  14.809
47763W        W16168  30.001  13.062   4.330
47764W        W16169   0.292  16.466   3.176
47765W        W16170  24.603  37.497   0.985
47766W        W16171  17.253  15.820   3.717
47767W        W16172   6.127  40.764   1.740
47768W        W16173  21.104  40.501   1.361
47769W        W16174  30.582  37.502   3.777
47770W        W16175  19.609  36.409   1.201
47771W        W16176   3.528  13.298   3.690
47772W        W16177  42.863  18.097   9.883
47773W        W16178  31.451  10.022  10.714
47774W        W16179  35.979  26.941   4.097
47775W        W16180  17.555  21.823   0.014
47776W        W16181  25.241  20.700  12.649
47777W        W16182  20.808  30.925   4.662
47778W        W16183   3.286  38.399  11.415
47779W        W16184  25.294  37.646   4.843
47780W        W16185  21.183  19.485   3.695
47781W        W16186  35.075  33.134   2.264
47782W        W16187  40.899  26.728   1.885
47783W        W16188  10.176  15.420   1.112
47784W        W16189  44.004   8.876   2.702
47785W        W16190  12.071  31.165   3.296
47786W        W16191  35.489   0.229   2.106
47787W        W16192  41.906  31.206   2.686
47788W        W16193  17.641  24.103   2.448
47789W        W16194  29.999  22.013  10.615
47790W        W16195  17.133   4.891  10.652
47791W        W16196   1.973  42.927  10.625
47792W        W16197  37.817  41.327   4.076
47793W        W16198   8.435  20.667  10.330
47794W        W16199  28.857   8.594   3.226
47795W        W16200  19.179  22.304  14.360
47796W        W16201  18.495  43.887  14.550
47797W        W16202  30.542  44.466   4.904
47798W        W16203  21.247   2.197   0.537
47799W        W16204  37.382   6.264  10.549
47800W        W16205  42.457  14.164  11.260
47801W        W16206  37.757   9.828   0.356
47802W        W16207  23.318   2.438   1.305
47803W        W16208  36.913  27.991  12.440
47804W        W16209  11.636   7.208  10.802
47805W        W16210  25.735  25.623  11.030
47806W        W16211  14.715  19.528  14.881
47807W        W16212  26.697   2.416   3.670
47808W        W16213  36.412  16.204   4.257
47809W        W16214  33.991  32.250   1.528
47810W        W16215  13.158  12.599   0.632
47811W        W16216  15.714  34.648   4.503
47812W        W16217  43.891  31.584  12.002
47813W        W16218  33.228  28.225  11.667
47814W        W16219  40.075  36.731   1.950
47815W        W16220  20.955   1.763   0.508
47816W        W16221  23.041  44.682   0.782
47817W        W16222   7.131  44.891  12.188
47818W        W16223   1.953  26.171  11.553
47819W        W16224  20.077  35.040  13.470
47820W        W16225  42.589  21.512   2.089
47821W        W16226  37.134  16.355   4.903
47822W        W16227  26.303  40.798  14.800
47823W        W16228  23.018   9.264   3.324
47824W        W16229  19.755   5.199  11.658
47825W        W16230   1.874   5.525  10.696
47826W        W16231  10.940  24.199   0.401
47827W        W16232  26.910  19.614  14.007
47828W        W16233  32.908  24.541  14.926
47829W        W16234  16.868  36.924  13.975
47830W        W16235   5.830  35.372  11.231
47831W        W16236  25.129  18.541   4.560
47832W        W16237   3.473  17.244  10.751
47833W        W16238  22.721   1.384   4.742
47834W        W16239   4.341  38.730  13.446
47835W        W16240  12.333  38.361   2.644
47836W        W16241  19.489  22.182  11.506
47837W        W16242  34.159  25.015  11.512
47838W        W16243  12.398  34.651  12.462
47839W        W16244  38.105  13.787  14.624
47840W        W16245  17.762  44.303  14.874
47841W        W16246   0.877  26.373   2.059
47842W        W16247  25.940  43.523  12.733
47843W        W16248   9.872   3.199  13.344
47844W        W16249  21.606  32.877   4.774
47845W        W16250  11.537   4.346  10.455
47846W        W16251  42.906  41.963   4.844
47847W        W16252  21.227   1.249  14.802
47848W        W16253  33.603   7.471   0.791
47849W        W16254  39.235   4.770  13.278
47850W        W16255   5.913  33.612  14.068
47851W        W16256  35.881  26.001   3.804
47852W        W16257   9.925   6.421  10.995
47853W        W16258   7.759  15.083  14.118
47854W        W16259   3.224  28.588   2.796
47855W        W16260  23.068   2.630  14.424
47856W        W16261  40.589  30.438  11.997
47857W        W16262  36.382  44.455  14.381
47858W        W16263  15.619  10.074   1.958
47859W        W16264  33.184  44.575  11.519
47860W        W16265  24.636  42.487   1.264
47861W        W16266   7.761  21.434  12.924
47862W        W16267   7.855  18.275  10.846
47863W        W16268  19.697  25.025   4.069
47864W        W16269   3.116  10.720  14.833
47865W        W16270   4.327  19.958   2.919
47866W        W16271  13.284  41.113   2.715
47867W        W16272   0.892  20.493   4.047
47868W        W16273  40.575   3.523  11.584
47869W        W16274   3.908  27.883  14.527
47870W        W16275   2.275  18.530   2.616
47871W        W16276  28.474  33.555   0.811
47872W        W16277  12.521  20.350  13.919
47873W        W16278  29.946  32.177  14.598
47874W        W16279  40.081  44.468  14.903
47875W        W16280   7.214   2.479   1.347
47876W        W16281  34.793  19.191  14.929
47877W        W16282  32.566  20.741  13.084
47878W        W16283   6.070  43.568   1.543
47879W        W16284  19.109  20.819  12.652
47880W        W16285  16.352  12.896   2.716
47881W        W16286  44.050   2.040   2.822
47882W        W16287  17.552  13.724   0.532
47883W        W16288  18.660  40.225   3.994
47884W        W16289   5.703  43.911   0.756
47885W        W16290  41.673  10.686   3.751
47886W        W16291   7.163  12.593  13.886
47887W        W16292  18.723  13.796   4.600
47888W        W16293  10.149  42.811   3.782
47889W        W16294  16.629   4.905   4.872
47890W        W16295  35.090  43.460   1.895
47891W        W16296  15.881   6.880  12.014
47892W        W16297  33.548  31.462   1.461
47893W        W16298  33.363  38.860   0.730
47894W        W16299  37.491  22.154  14.953
47895W        W16300   7.884  19.430   3.671
47896W        W16301  16.136   9.738   1.979
47897W        W16302   8.910  19.381   2.765
47898W        W16303   1.167   8.898  10.585
47899W        W16304   1.033   6.198   1.378
47900W        W16305  24.067   7.063  12.662
47901W        W16306  19.489  37.054  13.822
47902W        W16307  21.742  23.311   1.377
47903W        W16308   3.744  44.634  10.275
47904W        W16309  39.348  17.278  12.610
47905W        W16310  20.858  43.987   1.618
47906W        W16311  32.377  10.174  10.599
47907W        W16312  14.829  36.565   4.460
47908W        W16313  38.575  18.723  13.662
47909W        W16314  32.866  31.984  12.667
47910W        W16315  27.545  16.237  13.510
47911W        W16316   1.815  19.307  14.403
47912W        W16317  29.469  10.423  13.697
47913W        W16318  42.902  18.547  13.669
47914W        W16319  42.494   5.736  10.012
47915W        W16320  23.216  40.406   1.423
47916W        W16321  38.780  43.197   0.760
47917W        W16322   7.896   3.420  11.153
47918W        W16323  14.419   0.314   1.051
47919W        W16324  29.427  16.501  14.798
47920W        W16325   3.471   2.128   0.882
47921W        W16326  15.087  34.881   2.399
47922W        W16327  12.019  34.714  14.179
47923W        W16328  34.709   6.906  11.305
47924W        W16329   0.385   1.384   2.736
47925W        W16330  37.835  17.315  14.855
47926W        W16331  16.977  23.297   1.234
47927W        W16332  13.506   1.014   0.643
47928W        W16333  13.189  38.620   1.495
47929W        W16334  19.496  42.838  12.875
47930W        W16335  13.822  41.629   1.914
47931W        W16336  15.348  39.464   3.754
47932W        W16337  42.532   9.595  11.973
47933W        W16338  35.448  13.595  14.328
47934W        W16339  20.284  15.655   3.306
47935W        W16340  44.724   2.271   1.813
47936W        W16341  28.062  27.558   4.111
47937W        W16342  17.282   7.886  12.972
47938W        W16343  19.604  30.753   3.613
47939W        W16344   2.311  10.027   1.275
47940W        W16345  35.395  35.096  13.714
47941W        W16346  13.198  11.746  12.528
47942W        W16347   7.948  19.170  13.468
47943W        W16348   0.806  28.402   2.378
47944W        W16349  42.909  22.425  11.159
47945W        W16350   7.183  17.567   0.476
47946W        W16351  43.349  23.640   4.136
47947W        W16352  23.729  44.598  11.531
47948W        W16353  14.141   9.473   2.595
47949W        W16354  17.327  12.963  14.382
47950W        W16355   2.883  30.823  14.113
47951W        W16356  11.157   6.833  13.631
47952W        W16357  23.546   6.916   1.222
47953W        W16358  10.078   1.376   4.176
47954W        W16359  42.381   0.274   0.279
47955W        W16360  34.998  20.572  13.494
47956W        W16361  17.801  19.150  13.123
47957W        W16362  42.452  44.393   4.250
47958W        W16363  13.127  31.705   2.905
47959W        W16364  15.057  22.842  12.081
47960W        W16365  37.375  44.524  11.134
47961W        W16366  32.679  40.603  13.481
47962W        W16367   9.664  28.142  12.470
47963W        W16368  17.829  36.313   4.239
47964W        W16369   0.476  24.502  14.370
47965W        W16370  13.952   7.005  13.021
47966W        W16371  36.585   6.390  12.792
47967W        W16372  11.946  22.057  14.238
47968W        W16373   0.962  21.410  13.885
47969W        W16374  11.247  10.651  13.155
47970W        W16375  20.247   9.714   2.190
47971W        W16376  42.820   5.101   3.149
47972W        W16377  34.544  31.072   0.258
47973W        W16378  23.594  35.128   3.180
47974W        W16379  39.760  21.523   1.950
47975W        W16380   3.322  13.729  13.114
47976W        W16381  36.747  36.198   1.410
47977W        W16382  25.644   5.327   0.067
47978W        W16383   1.447   2.219   1.352
47979W        W16384  34.899   5.343   0.995
47980W        W16385  36.490  43.072  11.940
47981W        W16386   4.796  30.567   2.014
47982W        W16387  44.976   7.637   4.221
47983W        W16388  42.362  26.148  14.937
47984W        W16389  41.902  31.898  13.217
47985W        W16390   9.679   4.295   3.921
47986W        W16391  32.987   5.879  14.298
47987W        W16392  18.192  23.547  14.256
47988W        W16393   7.323  28.050   0.511
47989W        W16394  34.986   3.009   3.657
47990W        W16395  28.413  43.741  12.103
47991W        W16396  32.940  27.951  14.568
47992W        W16397  27.909  30.456   0.504
47993W        W16398  29.935  22.626  12.513
47994W        W16399  11.722  15.448   5.347
47995W        W16400  25.170  20.563  14.734
47996W        W16401  41.497   5.921  11.310
47997W        W16402  25.582  13.219   1.499
47998W        W16403  33.078   9.129   4.106
47999W        W16404  29.570   5.858  12.575
48000W        W16405  11.216  32.363   0.922
48001W        W16406  19.119  13.745   1.555
48002W        W16407  34.241   1.485  12.259
48003W        W16408  29.436   2.085  11.110
48004W        W16409  37.198  12.599  11.348
48005W        W16410  25.530   4.329   0.689
48006W        W16411  37.035   6.343   0.005
48007W        W16412   8.872   2.278   1.634
48008W        W16413  44.018  39.726  13.391
48009W        W16414  20.241  13.271   4.100
48010W        W16415  38.070  26.059  12.046
48011W        W16416   9.888  15.069  13.964
48012W        W16417   8.155  20.178  13.838
48013W        W16418  22.923   4.667  10.407
48014W        W16419  28.491  20.688   4.883
48015W        W16420  42.638  27.433  14.875
48016W        W16421  25.701  44.883  12.382
48017W        W16422   1.589  26.525  11.181
48018W        W16423  32.080  15.956  14.808
48019W        W16424  17.167  42.820   1.288
48020W        W16425  38.299   1.855  12.216
48021W        W16426  30.463  14.527   2.365
48022W        W16427  43.249  19.593  13.453
48023W        W16428  38.281  18.771   4.650
48024W        W16429   3.909  31.616  14.997
48025W        W16430  18.142  28.624  11.670
48026W        W16431  17.568  38.197  11.143
48027W        W16432   0.514  17.336   1.302
48028W        W16433  36.409  10.307   2.266
48029W        W16434   5.918   9.763   4.562
48030W        W16435  42.622  10.156  12.835
48031W        W16436   7.486  37.684   4.807
48032W        W16437  25.725  39.056  13.407
48033W        W16438  18.826  25.356  11.090
48034W        W16439  24.113  26.996   1.852
48035W        W16440  22.801  36.175  10.989
48036W        W16441  29.540  10.009  10.522
48037W        W16442  22.149  33.642  12.882
48038W        W16443   3.794  34.268   0.046
48039W        W16444  10.791  38.068   1.284
48040W        W16445  20.025  10.815  14.678
48041W        W16446  39.111  34.802   0.508
48042W        W16447  42.881  17.579   4.138
48043W        W16448  31.222  28.166   3.315
48044W        W16449   7.481  20.142   2.163
48045W        W16450   2.848  12.991  11.187
48046W        W16451  39.546  20.257  13.513
48047W        W16452  26.085  11.771  10.596
48048W        W16453   8.670  44.442   3.641
48049W        W16454  29.788  39.912  14.328
48050W        W16455   4.841  32.354  14.386
48051W        W16456  18.296  32.192   0.945
48052W        W16457  18.271  39.587  12.379
48053W        W16458  41.846  21.732  12.843
48054W        W16459  21.820  19.754  12.895
48055W        W16460  25.995   5.333  14.673
48056W        W16461   7.107   4.538  11.057
48057W        W16462  34.923  17.501  13.771
48058W        W16463  39.269   5.346   4.110
48059W        W16464  43.969  44.937  14.974
48060W        W16465  16.688   3.707   2.823
48061W        W16466  23.982  14.603  12.855
48062W        W16467   4.175   3.814  13.986
48063W        W16468  10.854  19.032   0.472
48064W        W16469  10.748  29.001  14.769
48065W        W16470   6.625  41.512   2.290
48066W        W16471  20.221  33.279   1.863
48067W        W16472   4.448  39.506  13.082
48068W        W16473  35.682  16.541   3.068
48069W        W16474   8.235   1.012  10.634
48070W        W16475  21.208  14.891  14.060
48071W        W16476  44.101   3.521  13.550
48072W        W16477  40.034  34.550   2.317
48073W        W16478  21.284  24.512   4.692
48074W        W16479  36.231  32.362   3.230
48075W        W16480  38.169   2.332  13.034
48076W        W16481  29.810  41.997   1.962
48077W        W16482  24.644   2.982  12.104
48078W        W16483   1.938  27.923  11.179
48079W        W16484  33.091  35.423   1.471
48080W        W16485  25.849  25.676  11.522
48081W        W16486  10.149  28.566  12.031
48082W        W16487  10.492  41.350  10.713
48083W        W16488  30.132  34.143  12.489
48084W        W16489  14.909  39.576  13.461
48085W        W16490  15.798  34.595   4.000
48086W        W16491  29.640   1.676  12.808
48087W        W16492  26.180   2.444  11.396
48088W        W16493  24.807   2.959   0.263
48089W        W16494  28.942   0.766  11.208
48090W        W16495  19.825  19.225  13.637
48091W        W16496   6.181   9.672   3.206
48092W        W16497  12.889  37.954   0.773
48093W        W16498  34.862  23.045   2.181
48094W        W16499  26.382  43.504  10.731
48095W        W16500  31.370   2.399   2.748
48096W        W16501  30.820  16.725   3.796
48097W        W16502   1.735  37.356  11.174
48098W        W16503  21.858  12.678   1.028
48099W        W16504  22.988  33.464  12.532
48100W        W16505  39.125  31.154  13.808
48101W        W16506  26.151  26.307  14.557
48102W        W16507  29.663  41.093   3.193
48103W        W16508  28.188  20.011  11.584
48104W        W16509   9.758  11.282  11.625
48105W        W16510  39.371  32.706  11.426
48106W        W16511  12.783   2.286   2.360
48107W        W16512  18.251  29.254  12.978
48108W        W16513  32.065  18.446   2.719
48109W        W16514  26.098  20.725   4.160
48110W        W16515   9.721  12.130   1.629
48111W        W16516   6.842  36.665  14.854
48112W        W16517  23.424  13.638   2.017
48113W        W16518  19.644  30.915  13.400
48114W        W16519  19.014   2.518  11.176
48115W        W16520   6.236  30.793  12.395
48116W        W16521  33.621  41.074  10.754
48117W        W16522  19.634  19.760   4.684
48118W        W16523  26.202  30.093   4.672
48119W        W16524   9.285  19.162  12.951
48120W        W16525   1.970   0.004  11.362
48121W        W16526  39.821  19.128   0.766
48122W        W16527   3.441  28.535  13.095
48123W        W16528  14.304  35.282  14.330
48124W        W16529   2.371   6.924  14.533
48125W        W16530   0.275  26.994   4.574
48126W        W16531  35.354   1.299  14.292
48127W        W16532  18.551  23.653  10.712
48128W        W16533  11.520  10.851   3.208
48129W        W16534  29.791   4.295   1.993
48130W        W16535  26.461  10.971   0.460
48131W        W16536  29.653  12.132  13.059
48132W        W16537  35.554  25.452   2.653
48133W        W16538  33.930  39.828   1.788
48134W        W16539   6.648  33.134  14.324
48135W        W16540  23.116  34.118  11.068
48136W        W16541  27.154  17.533   1.397
48137W        W16542   0.698   1.498  11.950
48138W        W16543  44.302  12.091   4.201
48139W        W16544   2.465  34.863   0.794
48140W        W16545   4.295  41.090  11.667
48141W        W16546   7.803  10.281   2.689
48142W        W16547  14.585  35.995   2.788
48143W        W16548   8.893   6.183   4.589
48144W        W16549  31.938   9.778   2.212
48145W        W16550  41.315  10.797   1.174
48146W        W16551  32.053  39.585   1.039
48147W        W16552  22.181  15.384   3.215
48148W        W16553  15.823   0.294  10.859
48149W        W16554  44.171   1.318  10.894
48150W        W16555  42.860   8.387  14.881
48151W        W16556   3.890  11.161   4.072
48152W        W16557   5.850  44.674   4.141
48153W        W16558  29.592   0.246   2.903
48154W        W16559  13.339  33.855  10.607
48155W        W16560  30.590   8.887   2.748
48156W        W16561  42.691  36.465  13.996
48157W        W16562  34.626   4.172  12.000
48158W        W16563  32.698   2.497   0.527
48159W        W16564  12.831  23.007   4.558
48160W        W16565  24.659  28.282   3.759
48161W        W16566  29.179   9.825  12.022
48162W        W16567  19.169  33.126   4.121
48163W        W16568   0.164  42.844  14.964
48164W        W16569  22.517  43.412  11.777
48165W        W16570  22.530   1.120   3.300
48166W        W16571  36.341  15.357  12.050
48167W        W16572  30.934  21.525  14.824
48168W        W16573  22.277  26.110   3.121
48169W        W16574   6.921  13.171   1.906
48170W        W16575  26.688  11.432   3.542
48171W        W16576  23.161  33.714   2.097
48172W        W16577  23.348  13.530  11.566
48173W        W16578  27.622   2.232   1.436
48174W        W16579  14.040  38.847   5.026
48175W        W16580  12.207   3.854   2.283
48176W        W16581  41.267  40.787   2.065
48177W        W16582  34.125  36.032   2.730
48178W        W16583   3.846  27.276  12.971
48179W        W16584   3.644  29.589   3.721
48180W        W16585  33.661  39.752   3.347
48181W        W16586   4.116   1.637  12.039
48182W        W16587  21.161  39.106  11.602
48183W        W16588  28.013  41.539  10.084
48184W        W16589   6.691  28.290  11.896
48185W        W16590   0.807  33.581   9.999
48186W        W16591  12.181  37.265   3.245
48187W        W16592  21.293   4.979  13.954
48188W        W16593   6.287  16.598  11.969
48189W        W16594  34.767  22.637   2.746
48190W        W16595   2.358  24.747   0.810
48191W        W16596  32.817  14.610   3.245
48192W        W16597  40.446   4.786  11.535
48193W        W16598  40.981  29.048   4.657
48194W        W16599  38.542  22.189  13.469
48195W        W16600  30.991  28.509   1.345
48196W        W16601  38.195  42.945   2.688
48197W        W16602  25.059   5.726   4.850
48198W        W16603  41.632  32.184  14.062
48199W        W16604   3.611  18.285  12.497
48200W        W16605   7.363   5.424  13.911
48201W        W16606   9.606  17.023  14.485
48202W        W16607  13.647  32.821   3.737
48203W        W16608  19.723   8.588   3.595
48204W        W16609  36.343  37.806  13.491
48205W        W16610   7.309   5.726  13.487
48206W        W16611  19.477  38.708   3.846
48207W        W16612  23.950  20.778   2.440
48208W        W16613  19.387   8.456  12.863
48209W        W16614  34.068  16.637   1.536
48210W        W16615  24.640  16.348   0.680
48211W        W16616   7.414   8.802   0.374
48212W        W16617  38.001  26.615  10.198
48213W        W16618  42.913  36.597  13.536
48214W        W16619  35.804  25.569   3.444
48215W        W16620  42.396   7.679  10.673
48216W        W16621   0.528  40.056  12.738
48217W        W16622   6.430  35.871  11.822
48218W        W16623  18.824   9.703   3.220
48219W        W16624   5.931  34.067   0.725
48220W        W16625  10.598  41.360   1.356
48221W        W16626  14.381  15.183   1.892
48222W        W16627  42.940  14.773  13.582
48223W        W16628  21.584  33.530   2.871
48224W        W16629  42.499  26.939  13.464
48225W        W16630  35.843  27.751   0.302
48226W        W16631  25.950  24.476   4.596
48227W        W16632  27.296  35.394   1.927
48228W        W16633   7.763  22.515   2.990
48229W        W16634  28.904  31.964   4.170
48230W        W16635  25.782  41.525   1.247
48231W        W16636  40.295  13.333  13.838
48232W        W16637  27.591   7.708   4.606
48233W        W16638  34.069  23.669  14.401
48234W        W16639  43.940  35.872   4.760
48235W        W16640   5.820  18.717   4.070
48236W        W16641  39.499  37.320   1.786
48237W        W16642  25.435  12.328   4.730
48238W        W16643  12.091  35.486  13.344
48239W        W16644  40.184   3.870  11.585
48240W        W16645  33.384   8.544   0.634
48241W        W16646   3.534  12.576  12.934
48242W        W16647   2.770  29.972   2.576
48243W        W16648  29.745  13.258   0.324
48244W        W16649  12.634  17.215  13.852
48245W        W16650   7.875  24.084   0.384
48246W        W16651  32.893  15.093  11.586
48247W        W16652  17.216  36.013  11.095
48248W        W16653  14.375  31.956  13.936
48249W        W16654  21.977   6.305  12.544
48250W        W16655  33.120  26.463  14.951
48251W        W16656  40.395   6.166   1.280
48252W        W16657   1.429   3.257   3.845
48253W        W16658  10.215   0.335   1.228
48254W        W16659  27.021   7.758   2.922
48255W        W16660  36.413   3.382  10.126
48256W        W16661  33.894   0.603   4.527
48257W        W16662  41.731   1.245  12.870
48258W        W16663  42.964  11.617  13.931
48259W        W16664  43.563  44.829   3.597
48260W        W16665  29.970  39.178  12.042
48261W        W16666  31.361  36.038   0.818
48262W        W16667   1.875   5.912  12.936
48263W        W16668  43.050   4.488  14.963
48264W        W16669  36.061  31.655   0.005
48265W        W16670  15.568  28.104  11.579
48266W        W16671  38.848  24.754   2.657
48267W        W16672  29.667   6.612   2.230
48268W        W16673  16.228  24.758   3.646
48269W        W16674  32.921   8.857  14.239
48270W        W16675  29.988  38.332   0.141
48271W        W16676  34.521  43.690  10.619
48272W        W16677  29.023  18.251  11.030
48273W        W16678  17.737   2.803  10.815
48274W        W16679  39.569  44.960  14.427
48275W        W16680  42.821  38.271  10.271
48276W        W16681  22.126   3.435  13.283
48277W        W16682  11.465  15.218   1.895
48278W        W16683   4.811  30.519  12.100
48279W        W16684  42.536  33.547   1.824
48280W        W16685   0.549  26.924  10.679
48281W        W16686  40.000  17.204   3.043
48282W        W16687  34.151  34.495  13.263
48283W        W16688  38.484  27.897  11.866
48284W        W16689  19.933  20.310   4.905
48285W        W16690   5.764  34.394   2.574
48286W        W16691  33.395  11.460   2.177
48287W        W16692  39.765  17.206   4.546
48288W        W16693  37.384  28.233   5.046
48289W        W16694  40.481  32.600   3.113
48290W        W16695  29.669   4.886   2.207
48291W        W16696  13.680  18.052   4.048
48292W        W16697   3.214  13.721  14.870
48293W        W16698  37.788  23.833  13.865
48294W        W16699  38.186  28.889  12.668
48295W        W16700  16.095  26.639   4.814
48296W        W16701  32.862  16.157   4.472
48297W        W16702  32.407  31.881  13.542
48298W        W16703  38.534  34.862  13.805
48299W        W16704  42.108  10.310   3.329
48300W        W16705  35.242  16.656   3.267
48301W        W16706  33.875  44.360  10.025
48302W        W16707  13.712  22.660  11.140
48303W        W16708  36.587  26.080  14.458
48304W        W16709  44.645  44.897  11.229
48305W        W16710  16.317  16.502  14.242
48306W        W16711  44.084  15.257  13.184
48307W        W16712   8.412  16.820   2.745
48308W        W16713  16.127  15.109  13.654
48309W        W16714  41.793  20.771   4.140
48310W        W16715  18.085  31.989  10.559
48311W        W16716  30.734  26.733  11.308
48312W        W16717  27.128   8.117   4.744
48313W        W16718  39.453  44.580  10.710
48314W        W16719  40.291  15.924   4.233
48315W        W16720  26.692   8.507   3.965
48316W        W16721   1.726  27.698   3.627
48317W        W16722   4.792  35.639   2.231
48318W        W16723  41.692  19.162   2.694
48319W        W16724  22.196  36.420  14.770
48320W        W16725  25.006  25.803  10.476
48321W        W16726  20.736  30.106  11.629
48322W        W16727  18.750  16.207   3.821
48323W        W16728  24.811   8.218  13.135
48324W        W16729   0.543  34.747  13.828
48325W        W16730  29.340   5.354   4.808
48326W        W16731  43.786  43.026  10.977
48327W        W16732  14.383   6.163  11.318
48328W        W16733   0.887  32.642   2.483
48329W        W16734  22.023  35.896   3.657
48330W        W16735   6.780   5.484  11.159
48331W        W16736  42.075  22.705  10.689
48332W        W16737  26.910  38.816   4.051
48333W        W16738  22.976  18.038  14.009
48334W        W16739  25.131  12.556  10.726
48335W        W16740   6.940  33.527  11.591
48336W        W16741  15.904   4.735   0.196
48337W        W16742  39.271  26.689   1.825
48338W        W16743  23.165  26.945   0.395
48339W        W16744   6.313  35.991  14.329
48340W        W16745   3.376   8.098  11.624
48341W        W16746  36.508  30.984   0.466
48342W        W16747  34.079  11.558   3.242
48343W        W16748  36.560  32.997   2.814
48344W        W16749  14.089   4.677  13.849
48345W        W16750  42.558  10.730  12.818
48346W        W16751  14.859  18.997  12.018
48347W        W16752  35.491  41.348   3.680
48348W        W16753  31.037  35.395   1.146
48349W        W16754  27.148  19.694  12.139
48350W        W16755  27.836   3.656  11.211
48351W        W16756  11.498  37.505  14.722
48352W        W16757  25.090  23.701   0.801
48353W        W16758  32.576  14.486   3.720
48354W        W16759  15.875  15.137   4.957
48355W        W16760   8.146  37.892   3.277
48356W        W16761   2.586   2.805   4.408
48357W        W16762   3.908  43.412  11.097
48358W        W16763  27.731   6.103  11.082
48359W        W16764  39.041  25.085   1.766
48360W        W16765  16.332  17.681   1.231
48361W        W16766   5.398   2.465  10.392
48362W        W16767  40.843  21.161  11.731
48363W        W16768  31.298  32.552   3.574
48364W        W16769  35.872   1.997  12.051
48365W        W16770  17.848  35.797   3.193
48366W        W16771  38.430  39.626   2.247
48367W        W16772  25.540  16.687  10.120
48368W        W16773   6.586  35.905  11.240
48369W        W16774   6.794  28.984   3.268
48370W        W16775  22.705  12.011  13.998
48371W        W16776   7.864  28.436  14.327
48372W        W16777  44.976  24.940  14.985
48373W        W16778   7.894  18.060   2.815
48374W        W16779  36.061  13.651  12.466
48375W        W16780  26.045  39.849  12.462
48376W        W16781  42.248  39.259   0.417
48377W        W16782  38.512  11.384  11.927
48378W        W16783  31.455  19.644   0.500
48379W        W16784  13.938  42.288  11.457
48380W        W16785   6.925  37.396   2.723
48381W        W16786  30.945  12.587   3.421
48382W        W16787   6.780  19.356   2.404
48383W        W16788  32.346  36.257   4.056
48384W        W16789   1.392   6.975  12.711
48385W        W16790  11.528  25.606   2.699
48386W        W16791  38.783   7.963   4.993
48387W        W16792  21.782  19.244   0.260
48388W        W16793  31.374  26.700   1.739
48389W        W16794  25.919  20.252  11.142
48390W        W16795  17.829   1.906  13.365
48391W        W16796  41.465  30.732   4.613
48392W        W16797   6.429  20.796  11.579
48393W        W16798  44.484  30.129   0.846
48394W        W16799   2.003  14.187   2.718
48395W        W16800   0.392  24.583   4.342
48396W        W16801   7.445  11.221   1.681
48397W        W16802  37.071   7.695   3.207
48398W        W16803  43.587  39.020  14.715
48399W        W16804  12.303  36.412   2.997
48400W        W16805  13.648  41.672   4.134
48401W        W16806  26.847   3.261  10.522
48402W        W16807  18.680   2.657   0.941
48403W        W16808   4.006  29.570   2.386
48404W        W16809  21.693  21.173  11.642
48405W        W16810   8.361  40.370  13.267
48406W        W16811  16.925   6.243   0.334
48407W        W16812  14.386  26.638   4.145
48408W        W16813   6.110   7.814   3.707
48409W        W16814  31.452   4.146  11.655
48410W        W16815  30.520  43.321   2.983
48411W        W16816  18.620   7.324  13.887
48412W        W16817   3.401  30.139   1.954
48413W        W16818   6.299  30.655  10.208
48414W        W16819  21.148  25.322   0.847
48415W        W16820   9.070  21.085  13.518
48416W        W16821  11.873   1.372  14.967
48417W        W16822  29.181   5.093  14.495
48418W        W16823  24.572  21.624  10.610
48419W        W16824  33.561  23.377  10.995
48420W        W16825   7.905  14.228   0.229
48421W        W16826  14.634   6.696   4.797
48422W        W16827  32.060  43.355  10.541
48423W        W16828   2.275   7.851   3.608
48424W        W16829  10.820  10.929   0.938
48425W        W16830  42.358  14.781   1.730
48426W        W16831  19.186   7.417  14.721
48427W        W16832  24.471  10.352  14.083
48428W        W16833  19.527  39.476  11.541
48429W        W16834   5.461   1.205   2.722
48430W        W16835  18.153  17.676  11.640
48431W        W16836  20.840   8.826  12.065
48432W        W16837   2.850   5.109   5.550
48433W        W16838   5.272  37.886  13.936
48434W        W16839  24.743  44.304   4.264
48435W        W16840   9.610  24.226   1.830
48436W        W16841  23.234  15.654   3.638
48437W        W16842   7.428  44.795  11.069
48438W        W16843  13.088  10.961  13.466
48439W        W16844  42.329  27.671  14.520
48440W        W16845  13.350  38.508  11.812
48441W        W16846  13.158   0.163   3.742
48442W        W16847  13.428   1.661  13.521
48443W        W16848  26.524  16.147   4.016
48444W        W16849   1.843  33.325  14.009
48445W        W16850  22.658  21.158   0.907
48446W        W16851  26.116  22.539   2.724
48447W        W16852  11.818  25.870  12.069
48448W        W16853  41.754  24.025  11.230
48449W        W16854  38.626  33.357   3.190
48450W        W16855  36.658  22.034   1.195
48451W        W16856   5.754  38.395   1.074
48452W        W16857  39.395  10.785  12.096
48453W        W16858   3.745  37.578  10.173
48454W        W16859  22.224   9.631  11.058
48455W        W16860  44.067  44.768  13.552
48456W        W16861  26.444   4.471   4.166
48457W        W16862  40.869   3.447   1.836
48458W        W16863  28.228  23.232  13.961
48459W        W16864  14.583  44.729  10.211
48460W        W16865  24.135  15.287   1.602
48461W        W16866  16.129  17.311  12.627
48462W        W16867  24.734  13.346   4.141
48463W        W16868  44.002  24.845   1.769
48464W        W16869  34.547   0.774   2.932
48465W        W16870   4.677  40.657   0.950
48466W        W16871   0.784  26.266  12.135
48467W        W16872   8.290   3.173  14.812
48468W        W16873  28.239  32.530   4.570
48469W        W16874  11.726  21.156   3.612
48470W        W16875  38.825  39.803   1.342
48471W        W16876   9.190   5.783  10.931
48472W        W16877  11.784  33.517  14.427
48473W        W16878  34.307  44.101  13.291
48474W        W16879  20.291   4.425  14.465
48475W        W16880  28.010   8.545  14.927
48476W        W16881  14.066  11.103   4.613
48477W        W16882  18.111   8.255  12.149
48478W        W16883  43.224   7.844   4.251
48479W        W16884  26.208  30.600  14.863
48480W        W16885  39.510  17.279  11.720
48481W        W16886  31.190   3.649  13.345
48482W        W16887  21.951  20.725  11.798
48483W        W16888  35.025  31.529  13.392
48484W        W16889   3.420  21.792   0.237
48485W        W16890  32.091   7.785  14.405
48486W        W16891  41.792   7.516  14.922
48487W        W16892   7.327  24.714   1.968
48488W        W16893  41.955  37.527  14.969
48489W        W16894  22.036   8.843  11.489
48490W        W16895  31.131  35.494  13.000
48491W        W16896  11.323  38.066   3.649
48492W        W16897  35.073   1.690  14.096
48493W        W16898  26.256  13.396  14.014
48494W        W16899  11.155   3.666  13.973
48495W        W16900  40.930   4.196  12.650
48496W        W16901  42.607  36.481   3.243
48497W        W16902   6.143  19.627   3.410
48498W        W16903  27.235  23.107   3.669
48499W        W16904   5.058  10.790   4.407
48500W        W16905  36.432  10.507   3.269
48501W        W16906   3.682   1.233  12.506
48502W        W16907  36.428  33.090  11.691
48503W        W16908  39.885   0.212   1.749
48504W        W16909  44.312  34.066   0.353
48505W        W16910  40.955   4.724  12.788
48506W        W16911  41.492  14.390  14.455
48507W        W16912  31.957   4.037  13.745
48508W        W16913  41.254  25.304  12.035
48509W        W16914   6.272  15.246  11.690
48510W        W16915  13.252   0.647   2.896
48511W        W16916   4.271  21.579  11.129
48512W        W16917   4.313  31.488   2.626
48513W        W16918  10.424   5.289  13.462
48514W        W16919  21.745  24.338   4.053
48515W        W16920  24.461  24.000   1.860
48516W        W16921  38.066  28.129   0.448
48517W        W16922  39.544  37.620   0.926
48518W        W16923  32.817  20.283   4.190
48519W        W16924  23.814   8.825   2.250
48520W        W16925   5.224  33.572   0.890
48521W        W16926  18.820  24.663   0.781
48522W        W16927  32.018   4.260  13.228
48523W        W16928  12.241  31.625  13.954
48524W        W16929  24.226  18.782   4.110
48525W        W16930  39.390  37.550  13.993
48526W        W16931  44.630  35.071   4.650
48527W        W16932  24.214  34.892  14.477
48528W        W16933  40.599  28.102   1.356
48529W        W16934  38.925  44.746   0.752
48530W        W16935   4.123  35.647  12.149
48531W        W16936  33.522  13.450   2.441
48532W        W16937  33.723  29.061  10.369
48533W        W16938  32.360  41.818   1.481
48534W        W16939   1.473  15.665  12.911
48535W        W16940  22.574  20.565   4.119
48536W        W16941  26.567  11.448   4.704
48537W        W16942  27.432  36.340   3.696
48538W        W16943  10.936   8.753   3.258
48539W        W16944  11.379  19.629  13.445
48540W        W16945  38.091   7.902   1.343
48541W        W16946  22.401  42.348  14.541
48542W        W16947   8.857  38.059   0.475
48543W        W16948  40.076   8.317   3.862
48544W        W16949  20.079  29.633   4.492
48545W        W16950   2.219  32.063   1.353
48546W        W16951   9.603  29.520   3.082
48547W        W16952  42.829  41.444  14.908
48548W        W16953  26.002  27.456  12.024
48549W        W16954  14.146  21.738  12.087
48550W        W16955   4.828   2.886   2.396
48551W        W16956   9.789   9.252   3.094
48552W        W16957  42.764  17.776   3.667
48553W        W16958   0.796   6.673  13.441
48554W        W16959  24.791  40.841  10.942
48555W        W16960  26.629  31.193   2.323
48556W        W16961  27.932  29.922  14.215
48557W        W16962  38.832  44.354  14.469
48558W        W16963  36.866   4.364   5.209
48559W        W16964  15.207  26.092  13.646
48560W        W16965  31.404  16.514   2.313
48561W        W16966  15.243  16.556  14.221
48562W        W16967  33.027  27.973  13.296
48563W        W16968   8.429  12.799  11.222
48564W        W16969  10.041  42.951  14.251
48565W        W16970   4.290   9.972   3.651
48566W        W16971  41.481  39.423   4.661
48567W        W16972  41.497  19.177  12.935
48568W        W16973  26.527  42.408  12.401
48569W        W16974   1.904  34.401   1.696
48570W        W16975  16.945  11.194   0.312
48571W        W16976  30.396  16.665  14.898
48572W        W16977  42.940  14.040  11.095
48573W        W16978   6.188  22.711  11.604
48574W        W16979  12.755  30.500   2.251
48575W        W16980  16.839  13.388   4.182
48576W        W16981  14.093  44.675  11.137
48577W        W16982  34.533  10.814   0.909
48578W        W16983   9.290  31.142  12.994
48579W        W16984  16.066  35.258   2.229
48580W        W16985  41.886  41.020  10.677
48581W        W16986  28.709  24.962  11.125
48582W        W16987   1.276  38.029  10.815
48583W        W16988  29.096  10.728   2.740
48584W        W16989  39.389  13.799   3.120
48585W        W16990   6.347  40.474   4.606
48586W        W16991   9.582  42.280   0.107
48587W        W16992  20.486   9.748   2.670
48588W        W16993  19.267   7.487  10.221
48589W        W16994  28.312  35.850  11.148
48590W        W16995  36.451  26.169   0.903
48591W        W16996  13.242  40.590   2.648
48592W        W16997  19.817  28.705   3.851
48593W        W16998   3.696  44.833  13.167
48594W        W16999  17.098   3.551  11.582
48595W        W17000  31.513  40.904   5.014
48596W        W17001   8.404  42.050   0.998
48597W        W17002  42.998  25.524  11.728
48598W        W17003   2.075  23.649  11.909
48599W        W17004  33.892  35.844  12.564
48600W        W17005  27.715   8.854   0.240
48601W        W17006  24.218  41.626  13.359
48602W        W17007  31.600  12.585  12.040
48603W        W17008   9.705  17.722   2.876
48604W        W17009  26.730  40.085   0.439
48605W        W17010   6.866  30.732  10.698
48606W        W17011   1.340  26.756  11.620
48607W        W17012   8.390  35.401   4.705
48608W        W17013   9.306  36.910  11.877
48609W        W17014  25.774  26.968   0.797
48610W        W17015   4.460  23.685  13.972
48611W        W17016  16.412  32.896  13.894
48612W        W17017  17.304  19.798   2.674
48613W        W17018  21.131  26.494  13.081
48614W        W17019   0.395   0.813  10.206
48615W        W17020   8.836  40.481  13.402
48616W        W17021  27.234  27.059  13.841
48617W        W17022   9.147  32.999   3.147
48618W        W17023  14.558  36.856  14.034
48619W        W17024  10.671  14.290  12.210
48620W        W17025   1.122  44.899   1.371
48621W        W17026   9.901  44.338   2.312
48622W        W17027  17.030  40.901   2.466
48623W        W17028  13.084   5.638  11.575
48624W        W17029  40.999  17.172  14.960
48625W        W17030   4.811  12.559   0.013
48626W        W17031   6.715  11.688   3.777
48627W        W17032  21.987   4.087   2.726
48628W        W17033  39.379   7.532   4.204
48629W        W17034  13.603  17.069   2.337
48630W        W17035  34.689  35.157   1.042
48631W        W17036  12.730  29.916  13.131
48632W        W17037  34.065  43.502  14.904
48633W        W17038  18.701   6.889   0.439
48634W        W17039  16.719  43.940   0.751
48635W        W17040  23.992  33.030   4.684
48636W        W17041  23.360  27.302   4.297
48637W        W17042   1.329  17.162   0.710
48638W        W17043  27.012   7.214  10.688
48639W        W17044  18.120  25.453   3.546
48640W        W17045  41.248  39.025   3.776
48641W        W17046  38.476  26.286   2.094
48642W        W17047   9.840  21.693  12.821
48643W        W17048  10.430   4.179  11.941
48644W        W17049  25.515  31.729   4.086
48645W        W17050  14.301  39.507   3.686
48646W        W17051  16.117  35.964  11.165
48647W        W17052  18.819   0.023  13.984
48648W        W17053  10.860  19.730  13.375
48649W        W17054   0.309  32.504   2.675
48650W        W17055  25.185   7.395  12.897
48651W        W17056   0.439  21.660  14.331
48652W        W17057   9.439  28.029   1.272
48653W        W17058   7.723  28.145  11.476
48654W        W17059   5.371  39.011   3.741
48655W        W17060  14.192  43.077   4.945
48656W        W17061  37.049   8.335  14.729
48657W        W17062  23.702  19.439   2.230
48658W        W17063  42.957  43.080  14.004
48659W        W17064   4.157   4.271  11.062
48660W        W17065  30.021   7.617  13.207
48661W        W17066  36.882  37.145   2.958
48662W        W17067  31.636  31.628   4.115
48663W        W17068  10.563  23.297   2.375
48664W        W17069  11.797  31.855  13.759
48665W        W17070  43.069  10.316   3.301
48666W        W17071  11.188  25.951  12.478
48667W        W17072  33.196  24.538   3.758
48668W        W17073  42.295   2.250  12.264
48669W        W17074  13.295  28.044  14.437
48670W        W17075  40.252  31.474   4.199
48671W        W17076   8.174   6.992  13.370
48672W        W17077  18.846   2.698  13.477
48673W        W17078  42.766  17.286  12.076
48674W        W17079  22.670  31.993  10.401
48675W        W17080  22.303  21.502   4.289
48676W        W17081  24.503  31.940   0.323
48677W        W17082  37.811  31.573   1.724
48678W        W17083  37.612   0.788   0.007
48679W        W17084  40.974  30.077   0.571
48680W        W17085   6.480  26.425   2.311
48681W        W17086  10.596  28.410  11.156
48682W        W17087  36.248  19.760  11.178
48683W        W17088  20.786  44.571   0.413
48684W        W17089  29.094  19.790  11.152
48685W        W17090   9.556  27.659  12.709
48686W        W17091  14.773   7.794   2.117
48687W        W17092  37.597  24.378  12.963
48688W        W17093  37.311  40.995   2.811
48689W        W17094  43.518   8.856  12.438
48690W        W17095  14.741  18.717   1.187
48691W        W17096  17.884  43.782   1.501
48692W        W17097  40.968  32.036  14.813
48693W        W17098  35.878   1.164  11.092
48694W        W17099  17.986  18.188  13.459
48695W        W17100   8.829   1.203   1.232
48696W        W17101  35.515  39.591  14.734
48697W        W17102  28.452  17.661   1.060
48698W        W17103  30.937   5.365  13.578
48699W        W17104   3.513  10.289  10.193
48700W        W17105  38.990   1.285  12.017
48701W        W17106  30.836  29.454  13.402
48702W        W17107   7.111  43.757  13.830
48703W        W17108  44.863   9.222   1.790
48704W        W17109  19.793  43.804   3.362
48705W        W17110  30.438  30.079  10.891
48706W        W17111   6.051  29.152   1.344
48707W        W17112  18.036  22.558  12.153
48708W        W17113  18.426   0.490  11.684
48709W        W17114  38.074   7.666  14.999
48710W        W17115  18.273   0.424  12.601
48711W        W17116  23.493  38.767   0.231
48712W        W17117  25.028  43.232  14.423
48713W        W17118  20.065   0.684   0.001
48714W        W17119  33.993  31.741   4.170
48715W        W17120  30.571  40.506   2.719
48716W        W17121  36.508   0.684   1.816
48717W        W17122   0.800  16.659  14.069
48718W        W17123  31.488  30.002  12.201
48719W        W17124  16.851  36.365   1.297
48720W        W17125   3.727  14.388  14.335
48721W        W17126   2.746   5.512  13.579
48722W        W17127  42.789  43.562   2.953
48723W        W17128  38.053  19.868  11.135
48724W        W17129  42.416  32.636  10.943
48725W        W17130  37.938  27.096  13.030
48726W        W17131  15.882  40.670   5.037
48727W        W17132  31.831  37.945  10.938
48728W        W17133  18.604  12.663   3.251
48729W        W17134  32.425  19.531   0.922
48730W        W17135  10.474  41.881   2.594
48731W        W17136  24.893  36.614   1.735
48732W        W17137  13.409  42.303  14.911
48733W        W17138   0.651  40.908   3.587
48734W        W17139  39.531  39.455   3.229
48735W        W17140  34.405  14.186   0.743
48736W        W17141   5.190  30.188  12.173
48737W        W17142  36.787  38.388  13.084
48738W        W17143  20.875  40.506   3.698
48739W        W17144  14.245  34.096  11.944
48740W        W17145   8.418  20.526  12.586
48741W        W17146   0.513  17.277   0.411
48742W        W17147  25.887  37.088   0.724
48743W        W17148  34.057  27.924  12.882
48744W        W17149  27.382   0.335  13.303
48745W        W17150  25.961  22.452  13.408
48746W        W17151  19.830  38.838  10.594
48747W        W17152  16.197  37.453   0.048
48748W        W17153  24.543  38.279   4.743
48749W        W17154  19.887  14.132   9.996
48750W        W17155  29.575  25.580  11.942
48751W        W17156  42.520  31.030   2.336
48752W        W17157  40.884  17.055   1.688
48753W        W17158  33.681  34.535   0.810
48754W        W17159  44.918  14.155   1.649
48755W        W17160  43.974  33.994   3.308
48756W        W17161   6.865  14.815   2.387
48757W        W17162  18.711  14.287   1.273
48758W        W17163  27.007  24.406   1.826
48759W        W17164  24.236  24.119  14.366
48760W        W17165  36.076  39.483   3.882
48761W        W17166   0.948  39.909   4.453
48762W        W17167   2.842  19.229   2.646
48763W        W17168  19.197  36.517  10.767
48764W        W17169  17.097  31.694  11.744
48765W        W17170  33.162   5.890   1.429
48766W        W17171  12.314  23.189  12.470
48767W        W17172   1.325   4.808   2.673
48768W        W17173  40.700  26.948   3.203
48769W        W17174  28.512  17.535  12.990
48770W        W17175  12.727  44.607   5.022
48771W        W17176  35.857  41.313   1.146
48772W        W17177   3.469  24.578   4.656
48773W        W17178  39.961  23.056   0.871
48774W        W17179  41.017  43.923  14.851
48775W        W17180  11.714  11.331   3.126
48776W        W17181   6.643  34.919   1.719
48777W        W17182  22.560  20.739   2.604
48778W        W17183  42.055  23.505   0.359
48779W        W17184   8.153   2.394   0.350
48780W        W17185  19.298   9.325  14.538
48781W        W17186  27.038   9.294  11.804
48782W        W17187  20.699  12.022  14.802
48783W        W17188  24.186   3.015  11.623
48784W        W17189  16.706  24.782  12.906
48785W        W17190   6.767  12.963   0.922
48786W        W17191  26.893   3.260   4.621
48787W        W17192  17.288  29.611  12.632
48788W        W17193  33.533  43.031  10.790
48789W        W17194   5.280  21.293  13.827
48790W        W17195  34.111   0.746   0.825
48791W        W17196  18.108  41.061  11.592
48792W        W17197  41.791   1.039  14.172
48793W        W17198  31.336  36.552   0.902
48794W        W17199  18.503   0.971  11.490
48795W        W17200  34.303  21.445  11.603
48796W        W17201   9.722  43.604   0.517
48797W        W17202  33.435   2.730  14.289
48798W        W17203  40.106   4.418   4.096
48799W        W17204   8.285  15.927  12.133
48800W        W17205   9.229   3.301  13.010
48801W        W17206  13.455   1.249   9.474
48802W        W17207  18.646  42.494  11.503
48803W        W17208   8.678  11.730  11.186
48804W        W17209  41.872   4.919  12.851
48805W        W17210  26.272  29.737  14.793
48806W        W17211  42.360  35.195   4.100
48807W        W17212   9.216  14.295  10.387
48808W        W17213   3.394  36.782  11.066
48809W        W17214  17.697  20.631  14.068
48810W        W17215  40.280  30.089   1.779
48811W        W17216  43.130  10.054   0.672
48812W        W17217  11.816  25.751   3.651
48813W        W17218  28.630   0.242  12.043
48814W        W17219   8.712  43.015  14.436
48815W        W17220   6.942   0.376  12.070
48816W        W17221   0.004  16.942   1.837
48817W        W17222  43.618  44.814   4.101
48818W        W17223   3.775  20.486  14.181
48819W        W17224  27.752  41.523  11.386
48820W        W17225   3.861  22.498   0.627
48821W        W17226   6.741  39.482   0.047
48822W        W17227   9.183  37.843  12.938
48823W        W17228  11.964   9.826   3.861
48824W        W17229   9.364  16.162  13.054
48825W        W17230   9.921  25.533   0.497
48826W        W17231  38.475   3.550  11.959
48827W        W17232  40.800   6.290  13.968
48828W        W17233  29.974  42.725   4.701
48829W        W17234  12.604  18.681  14.288
48830W        W17235  31.442   5.937  10.724
48831W        W17236   1.815  14.613   0.874
48832W        W17237   8.643  27.922  11.570
48833W        W17238  22.443  14.790   3.262
48834W        W17239  36.403  41.772  11.879
48835W        W17240  13.573  24.661   3.651
48836W        W17241  27.260  21.784  10.782
48837W        W17242  18.605   7.701  14.941
48838W        W17243  30.304  31.888  11.079
48839W        W17244  23.812  15.535   4.965
48840W        W17245   1.603  40.840  13.478
48841W        W17246  18.290  11.758   3.312
48842W        W17247  43.371  11.017  13.389
48843W        W17248  15.132   9.689  10.226
48844W        W17249  25.146   7.603   2.282
48845W        W17250   0.801  37.967   3.333
48846W        W17251   0.908  34.466   1.840
48847W        W17252  29.857   9.213  12.071
48848W        W17253  35.582  30.163   1.900
48849W        W17254   0.699  23.208  10.733
48850W        W17255   7.456  42.553  10.936
48851W        W17256   6.210  25.452   3.741
48852W        W17257  39.196  34.904   2.362
48853W        W17258  31.024  39.451  10.339
48854W        W17259  12.620  14.376  12.630
48855W        W17260  28.576  42.215   5.415
48856W        W17261  10.132   4.996   2.820
48857W        W17262  29.078  21.213  14.317
48858W        W17263  13.148  33.943  14.302
48859W        W17264  21.667  23.790   3.509
48860W        W17265  36.321  22.507   5.035
48861W        W17266  15.106  35.413  11.628
48862W        W17267   1.337   0.795   3.715
48863W        W17268  27.934  14.615  10.212
48864W        W17269  32.145  14.672  13.523
48865W        W17270  18.773  30.055   4.154
48866W        W17271  19.852  28.255  10.762
48867W        W17272   9.395  37.478  14.174
48868W        W17273  12.120  16.594   0.346
48869W        W17274  37.188  36.416  12.905
48870W        W17275  35.921  12.325   0.746
48871W        W17276  32.646  26.109  11.385
48872W        W17277  39.939  33.981  10.689
48873W        W17278   6.186   4.025  12.142
48874W        W17279   5.802  25.492  13.424
48875W        W17280  28.375  38.732  10.139
48876W        W17281  27.375  37.432  11.474
48877W        W17282   4.002   7.309   4.281
48878W        W17283   7.396   9.869   2.826
48879W        W17284   7.345   1.715   1.799
48880W        W17285  27.142   0.854  10.675
48881W        W17286  42.954  15.074   1.964
48882W        W17287  42.697  42.411  12.431
48883W        W17288   0.040   3.867  13.895
48884W        W17289  42.934   2.045  13.856
48885W        W17290  23.048  26.388  14.431
48886W        W17291  13.375  18.663  12.760
48887W        W17292  17.463  24.049   1.287
48888W        W17293  14.341  11.375   0.697
48889W        W17294  44.943  25.051   2.387
48890W        W17295  44.641  13.292  12.400
48891W        W17296  36.813  23.551  13.834
48892W        W17297  36.462  35.288   4.758
48893W        W17298  35.505  37.011   1.420
48894W        W17299  29.640   7.126   2.319
48895W        W17300  24.650  36.902   0.396
48896W        W17301  10.326  20.711   1.842
48897W        W17302  20.499  43.630   1.818
48898W        W17303  13.192   6.284   1.899
48899W        W17304  14.668  28.448   2.163
48900W        W17305  17.277  13.621   4.707
48901W        W17306  31.569  15.006   0.459
48902W        W17307  37.430   3.703  10.479
48903W        W17308  10.288  14.340  11.377
48904W        W17309  39.559  32.054   0.269
48905W        W17310  40.413  25.569  12.170
48906W        W17311  15.690  27.624  11.163
48907W        W17312   9.820   8.351  12.915
48908W        W17313  12.737   5.817   1.428
48909W        W17314  10.468   2.758  12.576
48910W        W17315  33.498  18.614  11.199
48911W        W17316   0.686  31.211  12.938
48912W        W17317   6.652   6.917   3.383
48913W        W17318  12.155  11.739   2.134
48914W        W17319  42.886  31.589   2.266
48915W        W17320   3.265   2.808  10.628
48916W        W17321  10.273   4.358   1.774
48917W        W17322  14.664  39.095  11.671
48918W        W17323  10.249   7.262   4.827
48919W        W17324  28.895  13.596   0.749
48920W        W17325  33.470  21.817   3.665
48921W        W17326  17.963   8.715  12.446
48922W        W17327  17.267  18.860   0.979
48923W        W17328  24.554  10.314   1.406
48924W        W17329  10.405   4.665   4.069
48925W        W17330   9.257  19.712   5.065
48926W        W17331  16.087  30.053   0.982
48927W        W17332  32.599   4.707  11.044
48928W        W17333  37.139  30.004   0.381
48929W        W17334  23.970  21.637   2.214
48930W        W17335  24.600  31.837  12.878
48931W        W17336  37.406   3.163   1.400
48932W        W17337  13.536  30.406   0.455
48933W        W17338  31.955  21.750  11.636
48934W        W17339  35.127   9.816   2.777
48935W        W17340  36.862  19.542   4.180
48936W        W17341  17.842  17.328  10.755
48937W        W17342  26.503  17.319   1.282
48938W        W17343  44.818  15.044   0.535
48939W        W17344   9.866  16.120   3.184
48940W        W17345   4.563  24.629   1.325
48941W        W17346  16.803  32.337  14.890
48942W        W17347  37.072  35.146   0.236
48943W        W17348   6.789   6.189   2.744
48944W        W17349  34.114   2.413  13.335
48945W        W17350  11.104  41.802   3.736
48946W        W17351   0.020  41.604  12.100
48947W        W17352  34.517  15.580   0.413
48948W        W17353  14.094  17.677  10.414
48949W        W17354  43.747  37.315  11.611
48950W        W17355  38.154  23.529  10.717
48951W        W17356  23.699  10.635   1.810
48952W        W17357  35.102  37.537   4.176
48953W        W17358  10.158  40.450   4.028
48954W        W17359   2.969  34.542   3.609
48955W        W17360  28.008  37.268  13.802
48956W        W17361  44.821   5.551   4.615
48957W        W17362  11.739  40.859  11.636
48958W        W17363  18.571  16.271  10.768
48959W        W17364   2.030  15.558   1.792
48960W        W17365  18.221  38.492   0.653
48961W        W17366  26.170  42.450  14.726
48962W        W17367  19.041  37.624  13.443
48963W        W17368   6.333  24.403   4.776
48964W        W17369  20.159   6.193  11.141
48965W        W17370  13.351  44.959   1.965
48966W        W17371  11.232   6.622   2.288
48967W        W17372  30.588  13.621  10.723
48968W        W17373  35.151   0.208   1.208
48969W        W17374  28.362  33.346  13.002
48970W        W17375  25.685  40.153  14.393
48971W        W17376  24.006   7.690   1.335
48972W        W17377  29.533  18.783  13.477
48973W        W17378  35.662   0.906  14.978
48974W        W17379  41.577   7.268  14.518
48975W        W17380  40.270  31.384  11.855
48976W        W17381   6.254   7.209   4.932
48977W        W17382  11.705  18.656   4.540
48978W        W17383  40.905  24.569   1.138
48979W        W17384  21.593  36.638   1.173
48980W        W17385  35.045  14.698   0.827
48981W        W17386  12.344   7.191  12.960
48982W        W17387  26.961   9.206  13.535
48983W        W17388  40.873  33.203   1.836
48984W        W17389  26.104  17.249  13.707
48985W        W17390  27.700  31.794   4.496
48986W        W17391   8.688  38.586  13.143
48987W        W17392   6.975   8.668  12.517
48988W        W17393  17.806   3.863  12.501
48989W        W17394  35.908   0.301   4.037
48990W        W17395  19.792  21.977  12.402
48991W        W17396  15.992   1.964   3.268
48992W        W17397  20.529  26.394   2.985
48993W        W17398   7.619  27.500   0.253
48994W        W17399   7.822  19.404   2.677
48995W        W17400  32.399  21.003  10.008
48996W        W17401   4.388  19.445  11.758
48997W        W17402   5.686   9.206  11.026
48998W        W17403  10.890  27.732   3.916
48999W        W17404   6.453   4.273  13.910
49000W        W17405   6.819  41.073  10.788
49001W        W17406   0.280   8.719  10.152
49002W        W17407  43.835  32.869   0.647
49003W        W17408  20.124  42.876   1.744
49004W        W17409  27.690  31.686  13.781
49005W        W17410  36.099  21.764  13.661
49006W        W17411  36.413   8.241   0.305
49007W        W17412  10.758  15.128  11.650
49008W        W17413  16.542  18.155  12.517
49009W        W17414  27.543   0.945  14.440
49010W        W17415   6.764  30.600   3.654
49011W        W17416  24.343  12.620   0.204
49012W        W17417  14.592   6.933  11.104
49013W        W17418  21.500  21.254   4.614
49014W        W17419   2.563  12.218   0.134
49015W        W17420  39.046  19.680   1.921
49016W        W17421  16.263  25.860   3.309
49017W        W17422  12.751  16.481   3.766
49018W        W17423  20.805  44.126  14.561
49019W        W17424  42.374  23.979   0.192
49020W        W17425  24.411   3.456   2.356
49021W        W17426  13.100  44.057   1.851
49022W        W17427   6.336   6.835  10.636
49023W        W17428  36.234  15.259  13.756
49024W        W17429  37.090  44.348   2.576
49025W        W17430  39.086  21.500  14.037
49026W        W17431  12.266  11.874  11.555
49027W        W17432  31.528  38.661   1.450
49028W        W17433  26.295  10.068  12.652
49029W        W17434  36.208  38.861  10.309
49030W        W17435   0.299  20.380   3.659
49031W        W17436  33.163  29.947   3.014
49032W        W17437  35.106  19.328   3.150
49033W        W17438   1.833  18.816  13.339
49034W        W17439   2.358   4.761   1.642
49035W        W17440  16.057  33.383   1.178
49036W        W17441  43.764   6.691   1.303
49037W        W17442  22.807  18.176   2.826
49038W        W17443  33.631  33.346   1.808
49039W        W17444   1.955   3.967  13.892
49040W        W17445  43.022  39.099  13.840
49041W        W17446  41.881  30.896  10.692
49042W        W17447   2.949  22.095   0.710
49043W        W17448  12.825  42.885  12.034
49044W        W17449  38.118  38.307  12.037
49045W        W17450   5.110  11.425  11.098
49046W        W17451  29.226  16.859  13.042
49047W        W17452  22.180  31.122  13.488
49048W        W17453   4.369   1.999   0.037
49049W        W17454  11.280   0.449  14.736
49050W        W17455   2.630  31.340   2.189
49051W        W17456  35.785  44.775   0.449
49052W        W17457  34.293  40.427  14.885
49053W        W17458  39.365   9.307  13.113
49054W        W17459   0.010  25.638  11.836
49055W        W17460  36.610  36.854  13.385
49056W        W17461   8.597  10.937   2.459
49057W        W17462  18.586  36.618  11.498
49058W        W17463  28.686  16.225  13.447
49059W        W17464   8.757   4.925   2.422
49060W        W17465  32.607  11.715   0.754
49061W        W17466  29.197  36.380   1.282
49062W        W17467   3.252  16.703   3.371
49063W        W17468  36.531  14.179  10.804
49064W        W17469   0.455  21.633  11.836
49065W        W17470  15.637   4.863  11.520
49066W        W17471  25.180   3.536  10.244
49067W        W17472  23.106  12.638  12.021
49068W        W17473   9.345  11.898   0.808
49069W        W17474  12.205   6.029   0.518
49070W        W17475  34.912  28.968  12.064
49071W        W17476  32.451   7.182   1.241
49072W        W17477  31.572  15.724  12.885
49073W        W17478  32.940   1.944   2.705
49074W        W17479   9.385  31.200  11.625
49075W        W17480  18.435  36.059   4.621
49076W        W17481  33.143  25.549   1.179
49077W        W17482  43.308  27.922  13.359
49078W        W17483   2.237  15.607   3.206
49079W        W17484  42.940   0.041  11.235
49080W        W17485   9.777  20.719  11.831
49081W        W17486   3.828   0.000  14.076
49082W        W17487   3.651  25.745  13.012
49083W        W17488  35.916  24.506   2.852
49084W        W17489  18.198   4.060   4.570
49085W        W17490   0.304  30.924  11.616
49086W        W17491  10.662  31.678   1.611
49087W        W17492   7.090  43.014  12.623
49088W        W17493  37.817  24.591  13.393
49089W        W17494   4.855  12.114  14.166
49090W        W17495   4.243  37.343   3.405
49091W        W17496  23.717  44.788  10.518
49092W        W17497  40.879  43.333   1.916
49093W        W17498   5.829  32.924  12.352
49094W        W17499   4.650   8.148   4.645
49095W        W17500   7.335  15.467  12.100
49096W        W17501  27.361  42.153   1.113
49097W        W17502   7.518  29.170   0.408
49098W        W17503  24.351  20.236  11.142
49099W        W17504  44.931  22.118  12.439
49100W        W17505  36.370  41.922   1.213
49101W        W17506  20.467  14.536   0.914
49102W        W17507  21.712  29.370  13.201
49103W        W17508  43.246  16.820   3.587
49104W        W17509  29.193  14.181  13.509
49105W        W17510   7.216   2.756   2.719
49106W        W17511  19.082  44.548   2.875
49107W        W17512  37.259  20.212  13.120
49108W        W17513  13.322  36.063   0.181
49109W        W17514  44.829  35.596   2.875
49110W        W17515  35.417  17.576  14.989
49111W        W17516   4.820  16.767   0.853
49112W        W17517  43.495  41.448  14.393
49113W        W17518   3.715  11.355  13.812
49114W        W17519   7.140  44.265  13.842
49115W        W17520  17.672  23.504  14.234
49116W        W17521  21.023  11.370  10.757
49117W        W17522  18.218  22.467   1.238
49118W        W17523  10.444  29.085   0.818
49119W        W17524   1.453  33.622  12.609
49120W        W17525  18.638   5.770  14.047
49121W        W17526  22.694   8.283  13.814
49122W        W17527  27.858  31.434   0.455
49123W        W17528  33.715  24.555  12.177
49124W        W17529  34.558  38.609  13.397
49125W        W17530  10.734  16.648  14.973
49126W        W17531  36.432  44.873  11.066
49127W        W17532  20.200  22.284   2.340
49128W        W17533  11.869  40.855   2.609
49129W        W17534  40.811  32.038  12.528
49130W        W17535  21.603  37.117  14.259
49131W        W17536  10.773  14.743   3.419
49132W        W17537  19.536  35.783  11.145
49133W        W17538  14.071   9.231   4.233
49134W        W17539   4.251   3.243  12.918
49135W        W17540  25.697  26.941  11.169
49136W        W17541   4.861  24.143  14.213
49137W        W17542  11.187  27.614   3.070
49138W        W17543  40.298  19.560  11.020
49139W        W17544   6.747  18.276   2.673
49140W        W17545  25.086  29.045   3.272
49141W        W17546  15.213  11.159  13.319
49142W        W17547   4.430  29.074   1.553
49143W        W17548  13.128  28.915   3.257
49144W        W17549  17.918  39.900  12.888
49145W        W17550  37.496  44.732  11.594
49146W        W17551  37.563  20.223   4.349
49147W        W17552  19.828  10.453  10.264
49148W        W17553  17.181  12.374   1.115
49149W        W17554  21.473   9.870  14.763
49150W        W17555  25.998   5.809   0.883
49151W        W17556  19.311   8.620  13.351
49152W        W17557  15.571   3.308   0.851
49153W        W17558   4.655   3.511   1.758
49154W        W17559  10.361  22.953   1.716
49155W        W17560  10.311  30.046  11.955
49156W        W17561  21.705  40.068   4.945
49157W        W17562  35.314  41.907   1.225
49158W        W17563  23.545  40.515  12.905
49159W        W17564  29.495  28.215   2.787
49160W        W17565  33.860  30.917   3.888
49161W        W17566  43.958  31.935   4.128
49162W        W17567   1.838  31.216  11.480
49163W        W17568  35.506   8.953  13.842
49164W        W17569  24.465  42.875   3.021
49165W        W17570  40.392  42.290  12.854
49166W        W17571  44.855  34.134   0.342
49167W        W17572  43.250  24.535  11.933
49168W        W17573  33.843  33.307  11.695
49169W        W17574  13.203  21.709  11.399
49170W        W17575  18.510   3.422  11.244
49171W        W17576  25.930  34.699   3.699
49172W        W17577   5.351  42.873  12.761
49173W        W17578   9.918   9.185   3.689
49174W        W17579   7.325  15.029  13.829
49175W        W17580  43.004  19.609   4.309
49176W        W17581  28.570  43.990  12.974
49177W        W17582   5.221  28.075  14.869
49178W        W17583  25.140  34.997  13.318
49179W        W17584   9.826  18.115  10.336
49180W        W17585  33.980   6.867   2.510
49181W        W17586  44.383  30.813   4.831
49182W        W17587  39.388  13.385  12.163
49183W        W17588  17.695   4.382  14.641
49184W        W17589   4.338  28.700  13.121
49185W        W17590   4.351   3.793   1.356
49186W        W17591   9.263   9.334   2.003
49187W        W17592  15.662  31.142   1.359
49188W        W17593  29.960  21.301  13.061
49189W        W17594  34.361  18.578   4.292
49190W        W17595  17.851  38.062  11.576
49191W        W17596  28.513  30.384   3.830
49192W        W17597  41.351  20.147   1.437
49193W        W17598  43.329  34.541   3.668
49194W        W17599  30.824  40.934  12.018
49195W        W17600   0.952   5.762   1.679
49196W        W17601  27.786  37.701   9.767
49197W        W17602   5.780  27.585   3.147
49198W        W17603  41.342   8.675   1.866
49199W        W17604  27.018  31.066  11.111
49200W        W17605  28.137   9.770  12.850
49201W        W17606   1.933  17.127  12.402
49202W        W17607  17.075  33.379   1.843
49203W        W17608  24.139  32.709  11.559
49204W        W17609  19.805  32.175  11.431
49205W        W17610  12.162  15.148   0.271
49206W        W17611  25.658   8.756   2.328
49207W        W17612  18.781  24.236   0.334
49208W        W17613  14.322   9.660  10.728
49209W        W17614  23.721  30.437   2.572
49210W        W17615   1.271  41.603   3.804
49211W        W17616   7.144  11.695   0.350
49212W        W17617  23.045  31.104   3.400
49213W        W17618  17.156  15.574   0.318
49214W        W17619  26.090   4.393  14.450
49215W        W17620   7.556   3.136   2.862
49216W        W17621  39.295  35.409   2.329
49217W        W17622   3.470  25.488   1.032
49218W        W17623  14.163  43.498  10.343
49219W        W17624  35.552  13.115  10.762
49220W        W17625  21.002  26.691  11.653
49221W        W17626  10.918  20.002  11.094
49222W        W17627  28.902  40.312  10.932
49223W        W17628  32.009  28.207   2.174
49224W        W17629  40.573  38.458  13.697
49225W        W17630  16.211  26.173   4.624
49226W        W17631   0.772   7.523   5.268
49227W        W17632   6.420  13.596  12.123
49228W        W17633  19.202  24.864   1.875
49229W        W17634  15.222  26.072   4.774
49230W        W17635  12.067  10.152  12.628
49231W        W17636  29.679  15.687   3.391
49232W        W17637   8.909  43.376   4.152
49233W        W17638   1.682  34.312   2.853
49234W        W17639  31.409  25.623  10.662
49235W        W17640  23.995  16.787  11.514
49236W        W17641  43.933  41.680   3.350
49237W        W17642  37.122  15.062   4.664
49238W        W17643  26.078  35.680  11.607
49239W        W17644  35.850  27.065   3.103
49240W        W17645  27.904  10.338   0.866
49241W        W17646  41.860  11.152  11.657
49242W        W17647  17.194  44.561  13.769
49243W        W17648  36.850  13.115  14.389
49244W        W17649  15.079  20.507   3.565
49245W        W17650  23.621   5.767   4.578
49246W        W17651   2.866  14.755  12.882
49247W        W17652  29.143  26.659   1.365
49248W        W17653  38.968  36.455   3.618
49249W        W17654  16.688  23.714   3.694
49250W        W17655  34.334  36.889   4.571
49251W        W17656  17.522  27.928   2.380
49252W        W17657  42.050  44.330  12.009
49253W        W17658   7.201  37.461  11.153
49254W        W17659  10.683  31.419  11.904
49255W        W17660  17.747  31.553  10.525
49256W        W17661   6.174   4.808  12.464
49257W        W17662   0.870  11.696   4.469
49258W        W17663  22.757   9.225  12.106
49259W        W17664  29.103  20.598  10.744
49260W        W17665  16.123  40.994  10.810
49261W        W17666  26.935   7.129   1.313
49262W        W17667  37.722  10.392  12.460
49263W        W17668  39.600   7.141   1.415
49264W        W17669   8.078   6.681  12.882
49265W        W17670  35.365  44.350   2.225
49266W        W17671  23.994   9.326   1.873
49267W        W17672  36.784  31.797   2.834
49268W        W17673  32.956  33.680   4.441
49269W        W17674  28.962  38.241  10.948
49270W        W17675  15.203   2.172  13.881
49271W        W17676  28.907   5.329  13.630
49272W        W17677  33.226  35.417   2.441
49273W        W17678   8.040  32.711  14.430
49274W        W17679  43.371  44.675  14.167
49275W        W17680  39.735  37.204   1.320
49276W        W17681  12.768  43.711   1.640
49277W        W17682  44.395  41.873  10.916
49278W        W17683  14.131   7.152  11.258
49279W        W17684  10.695  19.708   4.292
49280W        W17685  26.502  37.344  10.966
49281W        W17686  19.112  29.027  14.033
49282W        W17687  33.529   4.655  14.273
49283W        W17688  40.443  27.504  14.726
49284W        W17689  40.048  30.123  13.516
49285W        W17690  28.072   6.293   4.633
49286W        W17691   3.843  33.694   3.116
49287W        W17692  28.436  32.930  14.430
49288W        W17693  33.663   2.299  13.562
49289W        W17694  30.493   9.449   4.141
49290W        W17695  27.953  13.606   2.412
49291W        W17696  11.380  10.632   1.904
49292W        W17697  27.587   6.446   1.451
49293W        W17698  17.654  30.910   3.010
49294W        W17699  12.235  17.614  12.277
49295W        W17700   3.756   1.895   1.253
49296W        W17701   9.732  38.323  13.948
49297W        W17702   4.784   1.241   3.172
49298W        W17703   5.467  36.793   2.048
49299W        W17704   2.202  42.124   1.390
49300W        W17705   4.449  26.276   3.843
49301W        W17706  19.180   7.109   5.264
49302W        W17707  43.454  28.855   2.838
49303W        W17708  33.599  42.457   3.751
49304W        W17709   2.946  39.641  10.854
49305W        W17710  25.124   4.696  13.882
49306W        W17711  28.017  26.289  10.070
49307W        W17712   2.465  11.145   4.277
49308W        W17713   6.449  12.647  12.080
49309W        W17714   1.501  25.219   3.536
49310W        W17715  42.387  17.686  10.693
49311W        W17716  25.132  19.093   0.710
49312W        W17717   2.368  17.245  11.061
49313W        W17718  40.417  21.981   2.861
49314W        W17719  32.383  42.256  12.658
49315W        W17720  25.700  13.171  10.749
49316W        W17721  10.313  26.509   2.142
49317W        W17722  19.845  43.474   0.015
49318W        W17723  10.143  16.669   1.767
49319W        W17724   2.346  16.338   1.903
49320W        W17725  28.097  36.559   1.904
49321W        W17726  34.894   0.826   2.113
49322W        W17727  29.680  14.077  10.809
49323W        W17728  37.716   6.430  14.223
49324W        W17729   8.494  37.378  13.971
49325W        W17730  38.599  21.101  12.487
49326W        W17731  33.545   3.166   2.877
49327W        W17732   6.485   9.568  13.473
49328W        W17733  28.960   5.350   4.416
49329W        W17734  27.932  30.071   4.407
49330W        W17735  40.252  39.911   1.421
49331W        W17736  24.480  15.643  12.916
49332W        W17737   4.309   2.966   1.821
49333W        W17738  33.043  26.744  13.944
49334W        W17739  30.463  23.777   4.971
49335W        W17740   9.543  36.626  13.374
49336W        W17741  19.018  18.102  10.421
49337W        W17742  16.034  43.458  11.672
49338W        W17743  31.804  12.672   0.436
49339W        W17744  36.917  17.101  13.278
49340W        W17745  24.928  10.210  14.832
49341W        W17746  30.065   5.980  12.485
49342W        W17747  17.005  22.607   9.925
49343W        W17748   0.941  16.172   1.172
49344W        W17749   5.396  36.288  13.906
49345W        W17750  21.221   8.148   3.851
49346W        W17751   4.256  13.052   2.576
49347W        W17752  42.051  11.069   2.835
49348W        W17753  23.609  29.254   3.344
49349W        W17754  27.954  27.592  14.003
49350W        W17755  13.608  16.639  13.527
49351W        W17756  43.855  23.585   3.914
49352W        W17757  14.350  44.529  12.982
49353W        W17758  35.385  40.467   0.716
49354W        W17759  40.208  26.699  11.597
49355W        W17760  18.590  28.945  13.270
49356W        W17761  41.640  43.005  13.390
49357W        W17762  39.640  33.529  13.836
49358W        W17763  40.049   1.881   3.172
49359W        W17764  33.335  36.445  12.966
49360W        W17765  14.870  37.294  14.048
49361W        W17766  20.782  26.951  12.044
49362W        W17767  17.996  10.133   1.847
49363W        W17768  39.932  18.986   2.717
49364W        W17769   7.146  39.404  13.500
49365W        W17770  40.655   6.696   3.434
49366W        W17771  39.481  22.260   4.247
49367W        W17772  34.315  30.990   0.732
49368W        W17773  23.577  44.934  13.558
49369W        W17774   7.923  38.436   0.678
49370W        W17775  32.014  30.459  11.238
49371W        W17776  14.595  14.083   3.799
49372W        W17777  26.574  11.275  14.740
49373W        W17778  29.446   8.971  12.332
49374W        W17779   6.391  14.851  13.391
49375W        W17780  36.115  20.346   1.991
49376W        W17781  23.759  39.004   1.945
49377W        W17782  12.839   7.235   3.218
49378W        W17783   4.237  18.055   0.987
49379W        W17784  31.929  26.535  10.270
49380W        W17785  11.774   7.543   4.037
49381W        W17786  13.266  22.953   3.354
49382W        W17787  23.595   9.695   3.649
49383W        W17788  21.199  22.130   3.313
49384W        W17789   4.012  19.641   4.524
49385W        W17790  27.077  17.553   3.123
49386W        W17791  11.826  33.904  13.545
49387W        W17792  43.564  34.055   2.351
49388W        W17793  19.421   8.219   4.254
49389W        W17794  18.576  39.629  14.102
49390W        W17795   7.896  25.988   2.744
49391W        W17796  24.338  32.343  10.697
49392W        W17797  24.142  29.645  11.147
49393W        W17798  14.678   4.015   2.266
49394W        W17799   3.682  39.443  14.270
49395W        W17800  34.562  38.282  13.827
49396W        W17801  13.916   9.632  12.985
49397W        W17802  38.936  37.037  13.355
49398W        W17803  20.020  21.276   1.667
49399W        W17804  21.680   1.421   1.299
49400W        W17805  30.199  32.327  11.916
49401W        W17806   1.612  38.659   0.322
49402W        W17807  42.310  24.699   4.056
49403W        W17808  42.413  33.308   2.805
49404W        W17809   2.676  32.574  14.381
49405W        W17810  40.969  21.242  12.595
49406W        W17811  11.666  10.691   0.392
49407W        W17812  16.488  34.155  14.279
49408W        W17813   7.630  38.574  11.699
49409W        W17814   9.273  42.501   1.348
49410W        W17815  28.046  44.014  13.080
49411W        W17816  22.621  40.874  11.654
49412W        W17817  42.947  21.673   0.775
49413W        W17818   0.125  32.085  11.940
49414W        W17819   3.002  36.153   2.283
49415W        W17820  39.869  17.295  12.923
49416W        W17821  18.189  29.575   3.594
49417W        W17822  33.022  13.990   2.577
49418W        W17823  23.211  17.624  14.219
49419W        W17824  37.276  28.764  10.939
49420W        W17825   1.349  11.896  11.501
49421W        W17826   7.824  42.532  12.529
49422W        W17827  15.201   5.082  10.257
49423W        W17828  10.428   3.208  14.931
49424W        W17829   7.192  31.124  13.110
49425W        W17830  24.855  44.861   0.782
49426W        W17831  35.730  40.275   0.297
49427W        W17832  10.413  17.711  12.002
49428W        W17833   1.817   7.160   1.840
49429W        W17834  41.034  23.558  10.729
49430W        W17835  37.304  27.512   0.132
49431W        W17836  43.801  35.169  14.480
49432W        W17837  42.759  35.665  11.055
49433W        W17838  37.348  36.626   3.735
49434W        W17839  17.818  29.920  11.151
49435W        W17840  36.880  38.392   4.522
49436W        W17841  13.142   2.849   3.180
49437W        W17842  41.257  23.172  11.583
49438W        W17843  10.399  27.947  10.238
49439W        W17844  29.876  25.392  11.357
49440W        W17845  25.013  26.932   1.685
49441W        W17846  17.735   6.264  14.316
49442W        W17847  31.122  32.869   0.913
49443W        W17848  21.747  30.760  10.487
49444W        W17849  19.186  43.986  13.825
49445W        W17850  24.112  15.095   4.333
49446W        W17851  17.682  19.176  10.873
49447W        W17852  38.565   0.281   4.186
49448W        W17853  32.933   0.876  12.420
49449W        W17854  31.487  34.057  10.868
49450W        W17855  22.653   7.783  11.609
49451W        W17856  30.101  42.383   1.199
49452W        W17857  43.227  42.460   2.357
49453W        W17858  26.721  14.637   5.059
49454W        W17859  31.995  32.943  14.424
49455W        W17860   5.214   9.752   1.721
49456W        W17861   1.517  44.776   1.063
49457W        W17862  36.749  35.590  13.149
49458W        W17863  30.457  37.850  10.768
49459W        W17864  31.595   9.379  12.446
49460W        W17865  13.850  33.201  12.876
49461W        W17866  32.071  34.428   3.741
49462W        W17867  12.378  15.768  14.230
49463W        W17868  15.716   7.824   2.114
49464W        W17869  24.918   8.767   4.955
49465W        W17870  11.835  10.286   2.204
49466W        W17871  13.047  12.049   1.304
49467W        W17872  15.361  21.236   1.311
49468W        W17873  25.578  26.416   2.143
49469W        W17874  19.638  44.148  12.593
49470W        W17875  13.050  19.175  12.891
49471W        W17876  33.310  41.118   3.791
49472W        W17877  41.103  20.595   0.182
49473W        W17878  21.611  40.415   4.531
49474W        W17879   5.190  39.427  13.382
49475W        W17880   1.704  29.672   0.977
49476W        W17881  24.856   0.203   4.191
49477W        W17882  37.586  14.423   5.164
49478W        W17883   6.844  43.527   4.795
49479W        W17884  39.979  20.759   3.396
49480W        W17885   3.856  14.075   3.061
49481W        W17886  42.109  17.317   0.809
49482W        W17887  17.185  12.749   2.923
49483W        W17888  25.065  19.169  10.982
49484W        W17889  39.989  37.672  11.694
49485W        W17890   7.593  44.422   4.719
49486W        W17891   9.118  39.997   1.093
49487W        W17892   5.593  26.173   0.342
49488W        W17893  25.000  37.763   3.214
49489W        W17894   4.372  36.884  10.759
49490W        W17895  28.783  25.842  13.740
49491W        W17896  41.840  35.067   1.783
49492W        W17897  15.898  29.558  11.290
49493W        W17898   7.367  26.677  11.672
49494W        W17899  32.957  17.371   3.191
49495W        W17900  11.087  31.156   4.135
49496W        W17901  29.516   5.404  12.815
49497W        W17902  16.330  29.174  13.859
49498W        W17903  23.332  34.482  14.165
49499W        W17904  34.026  23.231  11.229
49500W        W17905   9.991  16.545   1.268
49501W        W17906  15.608   4.501  14.238
49502W        W17907  32.489  17.068   1.235
49503W        W17908   3.196  14.898  10.542
49504W        W17909   6.821   2.430   2.853
49505W        W17910  19.954  20.341   3.573
49506W        W17911  24.629  16.598  13.021
49507W        W17912  41.263   6.815  12.144
49508W        W17913  15.028  13.015  12.560
49509W        W17914  33.473   8.283  10.771
49510W        W17915  34.405   2.394  11.549
49511W        W17916   4.218  40.658   1.473
49512W        W17917  44.638   1.906  13.926
49513W        W17918  36.561  19.115   4.181
49514W        W17919  34.251   6.992  14.025
49515W        W17920  13.226  43.458  10.741
49516W        W17921  10.719  11.652   3.881
49517W        W17922  14.792  22.040  13.864
49518W        W17923  17.776  42.670   3.416
49519W        W17924  32.787  36.560  12.928
49520W        W17925  34.167  22.478  12.923
49521W        W17926  18.269  29.687  11.120
49522W        W17927  25.995  17.220  11.204
49523W        W17928  16.191  23.553  12.539
49524W        W17929  25.027   7.948  11.428
49525W        W17930  12.662   1.355   0.443
49526W        W17931   6.829  25.784   1.195
49527W        W17932  29.443   6.376  11.480
49528W        W17933  41.034  30.398  10.793
49529W        W17934  12.249   0.511   0.220
49530W        W17935  37.021   4.302  11.592
49531W        W17936  10.748  36.316   3.779
49532W        W17937  21.784  38.862   0.236
49533W        W17938  39.454  28.609  10.534
49534W        W17939   2.512   0.739  14.377
49535W        W17940  11.060  37.535   0.619
49536W        W17941  17.144  33.772   2.727
49537W        W17942  22.325   4.066   3.622
49538W        W17943   6.883  30.221  10.753
49539W        W17944  10.729  16.013   2.998
49540W        W17945  34.526  14.411  11.649
49541W        W17946  40.403  35.417  11.693
49542W        W17947  17.134  40.818   1.500
49543W        W17948  30.845  24.025   2.990
49544W        W17949  32.482  42.679  11.477
49545W        W17950  42.073  28.190  13.308
49546W        W17951  23.210  22.339  12.801
49547W        W17952  23.070   8.906  13.546
49548W        W17953  20.295  30.214  11.871
49549W        W17954  18.905   1.019   0.274
49550W        W17955   3.341   3.214  14.935
49551W        W17956  44.974  18.696   2.196
49552W        W17957   7.361  42.553   1.372
49553W        W17958  39.076  27.850   0.490
49554W        W17959   7.037  14.687   5.139
49555W        W17960  21.246  37.460  11.571
49556W        W17961   3.132  31.080   1.226
49557W        W17962  35.505   2.896  14.057
49558W        W17963  26.185  40.848   2.307
49559W        W17964   9.774  26.550   2.621
49560W        W17965   7.720  25.092  13.414
49561W        W17966  26.023  40.351  14.739
49562W        W17967  12.591  20.056  11.898
49563W        W17968  34.198  10.277   4.035
49564W        W17969  42.355  29.351  14.962
49565W        W17970  23.174   6.167  13.973
49566W        W17971  10.175  21.839   3.567
49567W        W17972   4.049  20.532  12.421
49568W        W17973   5.475   7.993  14.509
49569W        W17974  23.977   8.913   5.031
49570W        W17975  27.148  22.676   2.700
49571W        W17976   5.298  17.732   4.703
49572W        W17977   9.255  37.758  14.704
49573W        W17978  20.653  34.620  12.433
49574W        W17979  23.007  37.847   3.733
49575W        W17980  37.268  30.248   3.430
49576W        W17981   3.497   8.222  14.884
49577W        W17982  34.443  29.013  12.982
49578W        W17983  22.577  37.490   0.939
49579W        W17984  24.019  30.328  14.294
49580W        W17985  42.676  38.500   2.263
49581W        W17986   8.898  22.772  13.805
49582W        W17987  32.206  30.710   0.187
49583W        W17988  18.253  40.456  12.397
49584W        W17989   3.072  13.340  13.409
49585W        W17990  20.960  26.537   4.166
49586W        W17991  24.887  44.082  12.937
49587W        W17992  26.932  11.820   3.765
49588W        W17993   6.790  16.797  13.945
49589W        W17994  24.615  10.789  13.801
49590W        W17995  27.971  23.093   2.098
49591W        W17996  14.274   4.725  12.931
49592W        W17997  41.960  42.025   2.699
49593W        W17998  26.985  24.358  11.182
49594W        W17999  26.466   8.775  12.668
49595W        W18000   5.871  12.080  11.287
49596W        W18001  38.513   9.891   1.039
49597W        W18002   2.232  29.502   1.859
49598W        W18003  22.801  20.963  12.430
49599W        W18004  40.844  19.506   0.331
49600W        W18005  11.268   9.829   3.103
49601W        W18006   3.297  43.414  10.214
49602W        W18007  18.719  24.096  13.548
49603W        W18008  22.962   7.597  14.854
49604W        W18009  35.549   3.296  13.376
49605W        W18010   5.116  13.967   2.641
49606W        W18011  28.471  17.311  11.652
49607W        W18012   0.681  32.997   2.786
49608W        W18013   5.796   0.793  13.825
49609W        W18014   0.802  44.098   2.889
49610W        W18015  37.325  21.179   4.750
49611W        W18016  16.632   5.368   4.085
49612W        W18017  25.370  39.548   4.628
49613W        W18018   4.550  12.962  11.945
49614W        W18019  23.195  32.937  11.523
49615W        W18020   6.807  16.651   1.219
49616W        W18021   4.694  24.338   2.755
49617W        W18022  19.723   3.725   4.668
49618W        W18023  15.841  13.654  13.972
49619W        W18024  34.047   4.855   0.340
49620W        W18025  20.255  37.958   3.652
49621W        W18026  34.485   5.434   3.706
49622W        W18027  29.498   3.337   1.743
49623W        W18028  21.102  35.297  14.744
49624W        W18029   6.570  29.035   1.206
49625W        W18030  29.441  14.246  14.960
49626W        W18031  22.993   6.200  12.507
49627W        W18032  27.187  11.716  13.522
49628W        W18033  22.125   1.937  11.179
49629W        W18034  41.335  24.638   1.742
49630W        W18035  43.956  31.965   2.683
49631W        W18036  42.759  44.124   1.768
49632W        W18037  30.116  25.235  12.941
49633W        W18038  21.203  30.337  11.665
49634W        W18039  19.060  22.566  12.063
49635W        W18040  15.657  22.559  12.002
49636W        W18041  43.733  27.150   3.146
49637W        W18042  43.832  37.873  10.442
49638W        W18043   2.560   9.200  14.274
49639W        W18044  44.859  31.017   0.904
49640W        W18045  17.997  20.056  14.940
49641W        W18046  21.670  20.536   3.564
49642W        W18047  42.774  20.208   3.775
49643W        W18048  44.870   6.200  14.813
49644W        W18049  32.222  19.908   0.190
49645W        W18050  11.037  37.164  13.041
49646W        W18051  34.258  38.940   4.012
49647W        W18052   2.499  19.690   5.108
49648W        W18053  35.406  34.645   1.809
49649W        W18054  15.615  19.011   3.903
49650W        W18055  39.453  22.666  12.871
49651W        W18056  31.161  14.025   4.912
49652W        W18057  18.793   1.857  13.601
49653W        W18058  25.686   7.217  11.781
49654W        W18059  37.820   1.987  13.773
49655W        W18060  32.101  10.484   4.119
49656W        W18061   7.869   2.655   2.895
49657W        W18062  28.653  14.113  12.655
49658W        W18063  27.695  42.762   4.599
49659W        W18064   4.147  36.519   0.029
49660W        W18065  23.599  20.128   2.692
49661W        W18066  16.785  41.877   4.210
49662W        W18067  19.975   8.945   0.201
49663W        W18068  22.987   0.818   4.157
49664W        W18069  32.542  41.773   3.204
49665W        W18070  16.850   8.873  13.715
49666W        W18071  29.484   6.395   3.213
49667W        W18072  32.445  12.186   1.630
49668W        W18073  36.283  34.284   1.498
49669W        W18074  14.312   4.758   0.240
49670W        W18075  43.417  43.758  12.635
49671W        W18076  21.996  30.075  14.802
49672W        W18077   8.887  23.602   3.831
49673W        W18078  10.240  40.965   4.075
49674W        W18079  42.733  16.060   1.818
49675W        W18080  34.044  44.295   2.382
49676W        W18081  10.137   4.199   2.254
49677W        W18082  31.491  19.297   2.795
49678W        W18083   2.190   7.826  14.816
49679W        W18084  18.546   3.340   2.136
49680W        W18085   9.505   2.665  12.521
49681W        W18086  42.238   0.294  11.574
49682W        W18087  22.996   2.840   1.172
49683W        W18088  18.101  20.336   4.001
49684W        W18089  23.532   2.378   0.821
49685W        W18090  25.909  43.174  11.325
49686W        W18091  28.211   3.715  10.840
49687W        W18092  36.117   7.710  12.029
49688W        W18093   6.914  32.392  12.982
49689W        W18094  11.769  14.104   0.370
49690W        W18095   6.222  12.177  12.120
49691W        W18096  16.124  12.101   2.390
49692W        W18097  43.376  20.105  11.147
49693W        W18098  13.964  19.487   0.063
49694W        W18099  16.075  25.889  10.677
49695W        W18100  36.279   3.198   3.273
49696W        W18101  21.684  40.593   3.879
49697W        W18102  35.885  39.559  12.448
49698W        W18103  34.137  41.817  13.935
49699W        W18104   4.591  15.912   1.229
49700W        W18105  38.653   4.263  12.579
49701W        W18106  26.594  19.307   2.389
49702W        W18107   4.963  15.552  12.272
49703W        W18108  22.844  43.246   3.839
49704W        W18109  30.860  35.412  12.565
49705W        W18110  20.577  16.305  10.614
49706W        W18111   3.642  36.516   0.152
49707W        W18112  16.128  17.546  11.336
49708W        W18113  24.784  25.880  14.916
49709W        W18114  29.556   0.236   0.013
49710W        W18115  42.561  42.969  11.590
49711W        W18116   3.147  32.820  14.017
49712W        W18117  40.917  37.020  13.597
49713W        W18118  34.823  32.607   0.333
49714W        W18119  22.338  17.829  13.045
49715W        W18120  24.976   6.250  13.739
49716W        W18121  31.901   8.151   3.356
49717W        W18122  31.526  24.422  11.152
49718W        W18123  24.583   3.136  13.504
49719W        W18124  36.675  25.750  13.398
49720W        W18125  36.342  14.237   2.783
49721W        W18126   0.529  24.289  11.364
49722W        W18127  40.489   8.807   4.887
49723W        W18128   3.941  40.064  12.705
49724W        W18129   7.958  17.884   4.216
49725W        W18130  43.898  36.004   3.306
49726W        W18131  39.299  32.182  11.421
49727W        W18132  26.659  10.777  14.593
49728W        W18133  42.773  14.527  11.133
49729W        W18134   2.652   7.962   2.357
49730W        W18135  29.465  27.935   3.708
49731W        W18136  38.342  24.135  12.465
49732W        W18137  35.303  31.073   0.741
49733W        W18138   2.664  10.415  14.557
49734W        W18139  24.836  28.109  11.710
49735W        W18140  32.594  19.533   2.319
49736W        W18141  30.543  15.275   1.808
49737W        W18142  34.472  29.617  14.890
49738W        W18143  37.634  30.152   3.781
49739W        W18144   2.902  35.913   1.835
49740W        W18145  13.223   8.455   3.707
49741W        W18146   2.885   8.198   3.188
49742W        W18147  29.096  16.833   2.371
49743W        W18148  29.655  14.414  13.573
49744W        W18149  42.645  12.292   1.316
49745W        W18150   6.457   1.911  10.248
49746W        W18151  42.280  16.719   0.460
49747W        W18152  44.930   9.644  11.062
49748W        W18153   7.206  36.151   1.315
49749W        W18154  39.620  27.761   3.602
49750W        W18155  25.925  14.163   3.572
49751W        W18156  42.830  39.819   3.624
49752W        W18157  31.973  38.081  12.465
49753W        W18158   8.362  13.321  11.153
49754W        W18159  15.061  26.542  13.378
49755W        W18160  21.986  44.774   3.254
49756W        W18161  19.637   4.245  12.505
49757W        W18162   8.644  22.140  11.959
49758W        W18163  14.186  33.348   2.387
49759W        W18164   0.532   7.744   0.440
49760W        W18165  30.139  35.488   3.945
49761W        W18166  36.628   7.270   2.743
49762W        W18167   8.718  24.743  13.459
49763W        W18168  43.884  17.713   4.253
49764W        W18169  21.418  33.891   3.783
49765W        W18170  27.215  31.081  12.993
49766W        W18171  40.341  16.206  13.043
49767W        W18172  11.857   4.786  10.341
49768W        W18173  38.011   3.700   0.262
49769W        W18174   5.869  19.546   5.130
49770W        W18175  17.308   9.735  10.310
49771W        W18176  17.389  11.647   3.788
49772W        W18177   2.542  23.571   1.648
49773W        W18178   6.024  22.707   2.769
49774W        W18179   0.350  29.439   1.717
49775W        W18180   1.996  24.052  11.588
49776W        W18181   9.796  29.575  10.939
49777W        W18182  17.203  13.820   4.244
49778W        W18183  30.569  39.106  11.074
49779W        W18184  40.904   6.998   3.101
49780W        W18185  37.534  12.699   4.514
49781W        W18186   8.676   5.798   4.338
49782W        W18187  11.859   0.387   3.422
49783W        W18188  43.978  32.039  12.533
49784W        W18189  20.043   6.696   0.964
49785W        W18190  35.999  21.128  11.343
49786W        W18191  12.521  43.294   2.411
49787W        W18192  41.701  33.465  12.491
49788W        W18193  32.296   7.305  13.522
49789W        W18194  42.905  38.834  11.627
49790W        W18195  44.155   8.773  11.175
49791W        W18196  33.824  10.738   1.991
49792W        W18197  26.828   8.571  12.970
49793W        W18198  30.648  42.967  12.375
49794W        W18199  36.690   7.100  10.276
49795W        W18200   3.934   3.014   4.184
49796W        W18201  19.461  24.267  14.710
49797W        W18202   5.132  31.561  13.330
49798W        W18203   6.220  23.161   2.587
49799W        W18204  30.474  35.094  12.374
49800W        W18205  23.805  24.677  12.023
49801W        W18206   7.371  38.033  14.352
49802W        W18207  39.550  30.493  12.528
49803W        W18208  26.022  43.347   2.297
49804W        W18209  34.924  23.759  14.226
49805W        W18210  12.263  24.087  13.768
49806W        W18211  10.949  29.022   0.884
49807W        W18212  11.859  43.344   4.154
49808W        W18213  10.724   7.629   1.349
49809W        W18214  43.003  25.944   1.239
49810W        W18215  16.546  31.307  14.860
49811W        W18216  43.534  20.763  10.390
49812W        W18217  25.680  28.987  14.980
49813W        W18218  23.436   4.862   4.633
49814W        W18219   0.322  17.154  11.284
49815W        W18220  29.900  37.723  14.987
49816W        W18221  28.947  22.953  11.838
49817W        W18222  23.468  24.982   1.407
49818W        W18223  24.979  39.369  13.085
49819W        W18224   2.512  33.451   1.146
49820W        W18225  40.605  28.135   4.578
49821W        W18226  14.348  43.922   0.920
49822W        W18227   4.675  23.546   3.725
49823W        W18228  38.977   3.860   3.591
49824W        W18229  38.343  15.562   2.634
49825W        W18230  24.642  43.902   2.890
49826W        W18231  20.643  33.872   0.553
49827W        W18232  25.166  18.166   1.021
49828W        W18233  30.085  10.745  11.585
49829W        W18234  35.830   8.173  12.084
49830W        W18235  10.307   9.929  11.183
49831W        W18236  28.472   8.150  12.103
49832W        W18237  28.401  35.987  13.429
49833W        W18238   8.606  31.838  11.163
49834W        W18239  14.264  32.557   0.720
49835W        W18240  42.978  22.148  12.166
49836W        W18241   0.508   6.255   1.341
49837W        W18242  14.660   5.196   1.858
49838W        W18243  30.842  13.223  12.907
49839W        W18244  16.540   2.011  14.492
49840W        W18245  39.943  22.564   3.430
49841W        W18246   3.840  13.287  14.315
49842W        W18247  24.264  42.197  12.031
49843W        W18248  23.034   3.147  14.438
49844W        W18249  44.613  20.114   4.540
49845W        W18250  37.927  12.875  12.802
49846W        W18251  32.037   8.214  12.131
49847W        W18252   8.743  44.833   4.280
49848W        W18253   1.262   6.928  13.488
49849W        W18254  14.842  13.678  14.949
49850W        W18255  29.545  33.387   1.418
49851W        W18256  44.295   0.523  12.429
49852W        W18257  22.690  22.126   3.772
49853W        W18258  31.765  23.435  11.155
49854W        W18259   8.054  21.665  14.583
49855W        W18260  33.603  35.438   4.962
49856W        W18261   4.126  20.354  12.936
49857W        W18262  23.680  28.202   0.319
49858W        W18263  17.601  23.557  11.385
49859W        W18264  18.066   9.237  14.216
49860W        W18265  30.016  14.869  14.489
49861W        W18266   3.511  30.070   1.028
49862W        W18267  14.323  19.014   3.292
49863W        W18268  37.949  35.101  14.563
49864W        W18269  11.285  24.722  14.265
49865W        W18270  25.115  31.384   0.893
49866W        W18271  33.183  11.996   4.985
49867W        W18272   0.457  37.470  13.442
49868W        W18273  27.713  41.760  13.499
49869W        W18274  19.636  22.325  13.691
49870W        W18275  26.004  23.712   0.971
49871W        W18276   3.141  18.485  10.743
49872W        W18277   0.985  30.893  11.112
49873W        W18278  39.906   8.394   0.874
49874W        W18279  11.578  17.169  11.108
49875W        W18280  25.243  30.097  13.986
49876W        W18281   0.408  39.479   1.888
49877W        W18282  43.312   1.864   0.289
49878W        W18283  13.744  18.496   2.697
49879W        W18284   4.292  19.197   2.447
49880W        W18285  15.124   4.506  14.007
49881W        W18286  30.799  41.765  14.963
49882W        W18287   9.843  28.049  12.939
49883W        W18288  10.574  23.023   3.230
49884W        W18289   2.409  36.135  13.997
49885W        W18290  28.687  34.754  11.742
49886W        W18291  38.318  37.601   3.611
49887W        W18292  22.997  36.915   4.712
49888W        W18293  37.079   4.200   0.379
49889W        W18294  28.046   0.967  14.580
49890W        W18295  43.766  36.449   0.341
49891W        W18296  27.397  11.349  11.064
49892W        W18297  13.728  15.385  11.651
49893W        W18298  34.545  13.294   1.689
49894W        W18299  22.677   1.714   4.333
49895W        W18300  33.097   0.049  12.818
49896W        W18301  19.117  19.308  12.433
49897W        W18302   6.788  23.641   3.884
49898W        W18303   4.208  43.481  13.540
49899W        W18304   9.649  22.997   2.348
49900W        W18305  21.259  28.368   2.196
49901W        W18306  12.542  15.075   1.223
49902W        W18307  44.400  11.070  12.277
49903W        W18308  17.824   5.211  10.192
49904W        W18309  35.012  44.183   0.344
49905W        W18310   1.583  35.289   0.744
49906W        W18311  34.531  15.915  12.997
49907W        W18312  19.776  14.360   0.411
49908W        W18313  17.483  10.838  13.590
49909W        W18314  37.882  20.508  13.835
49910W        W18315   5.265  37.757  10.284
49911W        W18316  12.486  26.868  14.950
49912W        W18317  26.071  31.999   1.918
49913W        W18318   5.500  18.945  14.076
49914W        W18319  36.704  36.497  13.014
49915W        W18320   6.148  43.448  14.778
49916W        W18321  32.813  21.028  14.877
49917W        W18322  42.706  28.019  14.515
49918W        W18323  39.409  18.816   0.210
49919W        W18324   7.678  14.441   2.300
49920W        W18325   8.624  33.069  12.868
49921W        W18326  27.233  27.494  13.079
49922W        W18327  26.039  13.014   3.731
49923W        W18328   7.461   8.409  12.988
49924W        W18329  43.916  10.822  10.360
49925W        W18330   2.179  44.277   0.202
49926W        W18331  18.044   6.371  13.908
49927W        W18332  24.002  34.123  14.138
49928W        W18333  29.218  27.931   1.472
49929W        W18334  29.195  22.667  14.929
49930W        W18335  30.565  32.410  12.554
49931W        W18336   7.147   5.839  11.006
49932W        W18337  19.798  18.655  12.035
49933W        W18338  39.126  43.036  13.320
49934W        W18339  18.438  27.674   2.120
49935W        W18340  44.466  24.186   3.526
49936W        W18341  37.366  29.536   0.296
49937W        W18342  44.411  13.771  12.457
49938W        W18343  10.381  43.539  11.169
49939W        W18344  27.809  29.931  13.686
49940W        W18345   2.370   2.777   1.399
49941W        W18346   3.191  38.907   2.418
49942W        W18347  23.451  26.761  11.937
49943W        W18348   5.666  23.484   2.339
49944W        W18349  23.823  25.027   2.320
49945W        W18350  32.857  31.999   4.953
49946W        W18351  41.916  35.090   2.308
49947W        W18352  30.075   7.436   0.460
49948W        W18353  21.874  40.996  13.805
49949W        W18354  22.270  10.760  13.531
49950W        W18355   6.885  21.257   3.170
49951W        W18356   7.779  22.567  10.382
49952W        W18357  33.242  24.044  13.541
49953W        W18358  37.099  15.235   2.200
49954W        W18359   1.487  44.975  11.545
49955W        W18360  26.625  39.006   1.594
49956W        W18361  33.921  13.066  10.789
49957W        W18362   9.793  33.375   3.386
49958W        W18363   9.014  18.473   4.832
49959W        W18364  29.470  13.433  13.266
49960W        W18365  26.947   7.772   3.919
49961W        W18366  41.863  10.398  14.679
49962W        W18367  32.494  39.779  14.793
49963W        W18368  34.675   6.348  14.384
49964W        W18369  12.825  11.108  14.280
49965W        W18370  22.093  20.911  14.916
49966W        W18371   4.741  43.523   3.992
49967W        W18372  27.135  33.927   2.898
49968W        W18373  27.948  36.494  12.527
49969W        W18374  43.773  37.769  13.115
49970W        W18375  27.582  24.759  14.411
49971W        W18376  41.647  27.422  11.684
49972W        W18377  17.856  34.116  10.604
49973W        W18378  40.877   6.162   2.690
49974W        W18379  10.064  22.006   0.839
49975W        W18380   8.818  11.891  12.525
49976W        W18381   5.657   8.894  12.006
49977W        W18382   2.771   2.845  10.492
49978W        W18383  38.546  10.732  13.174
49979W        W18384  11.282  28.855   2.700
49980W        W18385  22.517  39.823  12.692
49981W        W18386  10.484   5.286  12.605
49982W        W18387  24.192  14.931  11.169
49983W        W18388  24.294  17.983   3.719
49984W        W18389  13.256  19.022  12.412
49985W        W18390   8.343  37.366  14.518
49986W        W18391  29.589  29.761   1.276
49987W        W18392   4.176   7.983   4.514
49988W        W18393  35.137  17.320  11.978
49989W        W18394  36.021   3.523  13.441
49990W        W18395   5.131  24.616   5.107
49991W        W18396   5.885  28.563   4.544
49992W        W18397   4.429  36.347  14.047
49993W        W18398  22.110  36.909   3.719
49994W        W18399  28.478  41.562  10.773
49995W        W18400  12.200  40.425  13.464
49996W        W18401  36.873   2.451   2.029
49997W        W18402  34.224  15.736  11.240
49998W        W18403  26.487  13.358   1.907
49999W        W18404  35.575   2.253  13.361
50000W        W18405  32.858  10.911   4.095
50001W        W18406   6.132  18.745  10.930
50002W        W18407  36.993  24.233   3.881
50003W        W18408  14.044  35.521   2.253
50004W        W18409  35.035  39.098  10.442
50005W        W18410  41.467  10.067  14.914
50006W        W18411  36.003   8.977   4.847
50007W        W18412  30.270   8.717   1.283
50008W        W18413   6.952  33.307   2.740
50009W        W18414  29.397  14.005   0.954
50010W        W18415   5.039  26.251  14.736
50011W        W18416   8.394   2.705   2.911
50012W        W18417   8.995  13.205   3.512
50013W        W18418  36.787  12.638  10.952
50014W        W18419  20.178  36.262  13.125
50015W        W18420   4.195   7.274   2.736
50016W        W18421  24.189   6.100   3.801
50017W        W18422  44.977   0.540   1.249
50018W        W18423  27.031  20.329   0.744
50019W        W18424  19.690  10.383   0.738
50020W        W18425  35.559  12.911   0.858
50021W        W18426  34.178  27.423  13.054
50022W        W18427   6.828  31.450  14.390
50023W        W18428  43.980   3.089   1.890
50024W        W18429  11.191   4.925  11.079
50025W        W18430  25.605  23.017  10.519
50026W        W18431  30.323  43.245  13.937
50027W        W18432  24.237  43.343  12.989
50028W        W18433  42.443  15.427  12.041
50029W        W18434  15.189   8.777   4.957
50030W        W18435  14.375  10.575   0.524
50031W        W18436   7.413   1.263  11.916
50032W        W18437   7.907  33.568   4.061
50033W        W18438  22.409  40.411  11.077
50034W        W18439  13.690  36.817   4.590
50035W        W18440   7.396  44.870   0.444
50036W        W18441  19.066  41.926   0.804
50037W        W18442  36.918  21.315  12.130
50038W        W18443  42.791  24.490   3.275
50039W        W18444   6.706  42.863   1.269
50040W        W18445  19.066  24.715   4.660
50041W        W18446  29.653  16.999  11.033
50042W        W18447  42.523  33.263  12.230
50043W        W18448  39.920  41.234  14.832
50044W        W18449  26.827  34.438  11.664
50045W        W18450  31.033  30.507   3.143
50046W        W18451  32.955   8.674   3.871
50047W        W18452  25.100  43.020  12.365
50048W        W18453  14.135  22.617  14.454
50049W        W18454  26.238  34.102  13.440
50050W        W18455  39.500  17.091  11.264
50051W        W18456  23.727  13.777   0.850
50052W        W18457  36.604  11.098   0.869
50053W        W18458   8.582  28.497  12.919
50054W        W18459  25.276  25.159   4.671
50055W        W18460  24.171  37.791  11.661
50056W        W18461  39.528  38.476   4.729
50057W        W18462   0.466  18.211  12.435
50058W        W18463  29.660   9.981   2.830
50059W        W18464  32.119  41.252   4.593
50060W        W18465  15.076   9.431   1.746
50061W        W18466  13.409   5.382  14.393
50062W        W18467  16.424   0.414   1.439
50063W        W18468  44.794  27.123   0.007
50064W        W18469  35.850  14.139  12.376
50065W        W18470  13.780  12.209  12.070
50066W        W18471   3.201  24.598  11.108
50067W        W18472  24.630  25.694   1.789
50068W        W18473   2.910  17.719  13.090
50069W        W18474  15.242  20.679  12.882
50070W        W18475   7.306  28.039   3.871
50071W        W18476  33.031  23.461  14.715
50072W        W18477  12.802  25.270   3.272
50073W        W18478  30.554  29.620   3.268
50074W        W18479  44.493   3.942  11.937
50075W        W18480  23.014   0.917   3.320
50076W        W18481  20.014  44.476   1.306
50077W        W18482  17.783  18.969  12.258
50078W        W18483  11.869  16.850   5.259
50079W        W18484  38.059  32.091   3.377
50080W        W18485  33.887  32.691  13.070
50081W        W18486  40.173  43.157  11.649
50082W        W18487  32.494  19.531   0.407
50083W        W18488  25.140  27.659   2.160
50084W        W18489  12.838  43.906  14.199
50085W        W18490  22.684  31.671  11.621
50086W        W18491   8.651   1.301   2.930
50087W        W18492  12.920  44.483   3.668
50088W        W18493  37.941  32.885   4.987
50089W        W18494  44.990  41.950  14.816
50090W        W18495  12.355  20.960   4.757
50091W        W18496   1.978   1.481  14.414
50092W        W18497   5.297  21.220  13.240
50093W        W18498   6.600  25.949  12.536
50094W        W18499   5.691  28.667  14.953
50095W        W18500  28.757  33.111   0.879
50096W        W18501   8.137  21.221  11.134
50097W        W18502  22.595  18.494  10.658
50098W        W18503   6.168  30.329   5.052
50099W        W18504  37.326  14.188  14.588
50100W        W18505  35.912  37.594  11.898
50101W        W18506  18.261   0.292  11.244
50102W        W18507  11.190  26.964  12.678
50103W        W18508  41.709   6.655   2.311
50104W        W18509   3.445   2.736  13.915
50105W        W18510   8.677   8.565  10.596
50106W        W18511  35.284   6.848  13.246
50107W        W18512  13.558  36.888   1.679
50108W        W18513  25.517  29.061   2.986
50109W        W18514  41.356  16.247   1.417
50110W        W18515  17.392  41.563  11.906
50111W        W18516   1.378   3.952   1.204
50112W        W18517  34.747   8.870   3.040
50113W        W18518  13.291  44.064   0.355
50114W        W18519  41.819  37.165  13.387
50115W        W18520   0.242  14.849  12.095
50116W        W18521  42.077  11.343  10.747
50117W        W18522  39.121  23.111   1.191
50118W        W18523  36.788  33.443   5.081
50119W        W18524  30.557   6.008   2.477
50120W        W18525   3.829  37.365  13.943
50121W        W18526  10.354   2.417  11.109
50122W        W18527  11.432  21.649   2.887
50123W        W18528  17.288  39.023  12.902
50124W        W18529  39.037  39.795   0.850
50125W        W18530  11.417   2.201   1.242
50126W        W18531  10.714  27.137  12.517
50127W        W18532  19.052   3.162  12.069
50128W        W18533  20.925   8.597   4.258
50129W        W18534  11.031  24.497   4.632
50130W        W18535  40.441  17.325   0.575
50131W        W18536   7.330   6.358  13.834
50132W        W18537   4.344  19.768  10.796
50133W        W18538  16.543  28.714  14.642
50134W        W18539  24.598  31.349  11.523
50135W        W18540  16.803  24.024   0.370
50136W        W18541  21.803  10.706  13.961
50137W        W18542  35.398  15.734   2.187
50138W        W18543  40.492  27.997  14.903
50139W        W18544   4.405  20.903  12.400
50140W        W18545  38.319   1.970   2.360
50141W        W18546  11.842  26.582   0.745
50142W        W18547  32.374  13.659  14.224
50143W        W18548  13.687   9.723   4.468
50144W        W18549  28.231   3.192   3.765
50145W        W18550  21.206   2.953  13.874
50146W        W18551  32.253  42.685   4.979
50147W        W18552  34.567  31.362  12.032
50148W        W18553  30.181  22.809  14.502
50149W        W18554   2.461  21.587  14.064
50150W        W18555   1.667  31.914  12.034
50151W        W18556  26.426   7.313   3.708
50152W        W18557  10.109  42.906  14.888
50153W        W18558  12.545  11.966   1.197
50154W        W18559  26.933  35.616  12.629
50155W        W18560  27.011   0.347   0.442
50156W        W18561  34.388  12.341  14.066
50157W        W18562  21.530  44.618   4.005
50158W        W18563   9.152   8.005  13.580
50159W        W18564  20.482  29.905   0.269
50160W        W18565  25.318   1.379  11.514
50161W        W18566  25.252   8.407   4.781
50162W        W18567  38.574  26.142  11.974
50163W        W18568  17.175  40.372  14.841
50164W        W18569  14.761  42.308   2.165
50165W        W18570  17.718   2.227   2.838
50166W        W18571  24.500  34.037  13.686
50167W        W18572  14.861  14.091   0.306
50168W        W18573  20.696  24.786  10.628
50169W        W18574  44.435  22.603   0.810
50170W        W18575  11.359  42.983  11.835
50171W        W18576  11.154  40.926  14.728
50172W        W18577   6.622  10.153   0.977
50173W        W18578  12.526  29.448  12.927
50174W        W18579  37.615  16.639  12.446
50175W        W18580  38.856  31.494  14.683
50176W        W18581  26.917  25.641  11.613
50177W        W18582  41.469  28.392  12.399
50178W        W18583  36.962   1.968   1.865
50179W        W18584  24.621   2.211  11.649
50180W        W18585  40.888  43.199  12.112
50181W        W18586   3.968   6.814  11.886
50182W        W18587   7.822  37.560  12.846
50183W        W18588   3.846   4.494   2.416
50184W        W18589   6.702  30.829  11.530
50185W        W18590  15.203  26.962  12.466
50186W        W18591  36.326  42.369  12.497
50187W        W18592  28.103   2.104   1.399
50188W        W18593   5.956  12.163  12.775
50189W        W18594  30.823  38.537   9.812
50190W        W18595  38.863   6.453   3.632
50191W        W18596  35.284  44.786   4.667
50192W        W18597  42.501  36.093  11.074
50193W        W18598  35.587  39.451  11.700
50194W        W18599  16.899   0.552  13.131
50195W        W18600  10.705  26.218   2.993
50196W        W18601  31.643  36.246   3.393
50197W        W18602  10.114  33.227   2.955
50198W        W18603  44.374  21.555  11.338
50199W        W18604  39.662  12.586  10.984
50200W        W18605  32.349  32.065   1.819
50201W        W18606  34.827  29.427   1.516
50202W        W18607  31.209  34.465  12.464
50203W        W18608  22.703  21.688   4.050
50204W        W18609  11.714   4.600   2.056
50205W        W18610  40.612  34.496  11.184
50206W        W18611  11.622  42.703   4.727
50207W        W18612  34.172   5.611   4.109
50208W        W18613  25.986  21.202  12.918
50209W        W18614  17.308  18.892  13.224
50210W        W18615  44.831   1.002   4.395
50211W        W18616   5.315   4.391  12.338
50212W        W18617  34.594  42.385  13.243
50213W        W18618  14.586  15.223  11.248
50214W        W18619  36.851   5.695   3.290
50215W        W18620  11.641  28.755   0.113
50216W        W18621  26.110  31.730  14.755
50217W        W18622  27.488   6.987   1.474
50218W        W18623  18.317  42.913   1.471
50219W        W18624  25.770  15.709  14.862
50220W        W18625   6.383   3.802  11.075
50221W        W18626  18.085  18.420  12.020
50222W        W18627   5.992   0.004   2.816
50223W        W18628  41.847  26.290   0.905
50224W        W18629   1.662  34.678  14.879
50225W        W18630  19.601  34.348   2.326
50226W        W18631  11.992  37.247   4.092
50227W        W18632  22.666   0.759  13.937
50228W        W18633  14.694  36.606  14.504
50229W        W18634  28.883  28.101   1.821
50230W        W18635  41.257  41.757  12.137
50231W        W18636  39.002  42.646  11.148
50232W        W18637   8.585  41.701   3.636
50233W        W18638  28.132  12.211   1.271
50234W        W18639  19.267  11.921  14.831
50235W        W18640  35.112  15.767  13.405
50236W        W18641  41.884  42.062  12.659
50237W        W18642  11.170   4.283   4.230
50238W        W18643   6.625   5.128   1.604
50239W        W18644  34.719  19.741   0.354
50240W        W18645  35.796  10.111  13.370
50241W        W18646  18.510  24.742   5.444
50242W        W18647  10.892  36.107   1.777
50243W        W18648  36.607  15.078  14.065
50244W        W18649  39.827  15.526  13.570
50245W        W18650  10.887  14.042  14.391
50246W        W18651  22.575  38.789  10.696
50247W        W18652   2.956   4.062   9.773
50248W        W18653  18.647  39.333  12.619
50249W        W18654  38.209  37.057   0.014
50250W        W18655  30.878   4.440   0.447
50251W        W18656  30.980  30.700   2.200
50252W        W18657  34.882  14.760  14.447
50253W        W18658  15.775   5.496   3.093
50254W        W18659  44.406  23.050  12.591
50255W        W18660   3.386  24.878   3.618
50256W        W18661  40.953   2.956  13.576
50257W        W18662  35.287  32.595  12.631
50258W        W18663   6.982  23.093   1.825
50259W        W18664  24.664  38.538  10.757
50260W        W18665  26.190   0.985   1.349
50261W        W18666  31.177  22.566  14.351
50262W        W18667  35.579  36.244   3.816
50263W        W18668  25.280   7.826   4.807
50264W        W18669  20.188   4.496   4.447
50265W        W18670  18.620  30.686   0.112
50266W        W18671  19.476  34.952   4.789
50267W        W18672  30.603  19.674   4.821
50268W        W18673   7.798  35.329  13.340
50269W        W18674   6.809  41.989   2.786
50270W        W18675  24.923  41.407  12.404
50271W        W18676  24.685  41.511  14.106
50272W        W18677  30.918  13.905   3.585
50273W        W18678  15.702   0.508   4.739
50274W        W18679   6.161  43.514   4.307
50275W        W18680   3.711  35.495   4.228
50276W        W18681  28.668   1.925  11.665
50277W        W18682  14.090  29.151  12.453
50278W        W18683  16.078  19.715  14.017
50279W        W18684  19.077  44.139   4.684
50280W        W18685  10.117  11.371  10.478
50281W        W18686  32.550  12.874  13.670
50282W        W18687  13.757   9.204  14.246
50283W        W18688   5.712  35.460  13.937
50284W        W18689  21.717   3.506   2.310
50285W        W18690  11.242  22.338  11.118
50286W        W18691   6.172   4.269  14.358
50287W        W18692  24.749  18.725   3.212
50288W        W18693  31.653  44.497  12.577
50289W        W18694  17.416  13.454  14.291
50290W        W18695   6.035  43.967   0.351
50291W        W18696  34.279  29.699   0.365
50292W        W18697  35.002   5.326   3.853
50293W        W18698  44.903   5.634   3.273
50294W        W18699  42.931  44.931   2.222
50295W        W18700  18.050  43.240   4.211
50296W        W18701   7.615  13.193   4.726
50297W        W18702   5.190  41.369   0.770
50298W        W18703  25.133  35.841   2.320
50299W        W18704  43.794   7.362   0.122
50300W        W18705  27.622  41.618  10.901
50301W        W18706  43.054   0.863   0.761
50302W        W18707  17.228  21.507  10.890
50303W        W18708  21.911  19.552  12.410
50304W        W18709  41.435   6.238   0.786
50305W        W18710  37.096  18.232   4.027
50306W        W18711  21.229  41.303   3.700
50307W        W18712  34.083  16.753   2.031
50308W        W18713   7.471  18.778   0.763
50309W        W18714   8.505   5.874   3.072
50310W        W18715   7.150   7.302  14.739
50311W        W18716  38.486   8.789  11.654
50312W        W18717  17.008   7.224  11.815
50313W        W18718   5.502  23.964   3.611
50314W        W18719  20.285  15.670  11.052
50315W        W18720  23.725  39.980   0.827
50316W        W18721  15.465   9.444  11.180
50317W        W18722   2.230  28.486   0.284
50318W        W18723  37.955  27.744  11.157
50319W        W18724   3.327  38.947   2.930
50320W        W18725   2.577  42.762  11.617
50321W        W18726   6.600  37.173  12.006
50322W        W18727  15.796  26.668  14.962
50323W        W18728  34.505  22.163   2.783
50324W        W18729  41.880   9.758  11.239
50325W        W18730  10.242  33.856   4.840
50326W        W18731  32.718  28.329  10.267
50327W        W18732  44.557  32.682   1.627
50328W        W18733  37.074  12.670   3.682
50329W        W18734  37.379  31.633  13.967
50330W        W18735  18.150  41.447  10.736
50331W        W18736  43.389  32.076   3.871
50332W        W18737  23.254  22.981  14.789
50333W        W18738  41.742  22.213   0.993
50334W        W18739  12.784  13.078   2.146
50335W        W18740  44.456  14.575   3.751
50336W        W18741  39.946  37.976  10.939
50337W        W18742  17.984  30.569   1.743
50338W        W18743  20.327  30.737   5.168
50339W        W18744  34.120  23.989  14.785
50340W        W18745  17.562  10.828   5.305
50341W        W18746  30.974  40.283   0.887
50342W        W18747  20.102   1.543  10.988
50343W        W18748  28.962  44.852   0.760
50344W        W18749  31.255  27.956  13.098
50345W        W18750   3.810  31.842   0.892
50346W        W18751  32.135  13.574  13.370
50347W        W18752  33.880  29.885   0.058
50348W        W18753  32.899  40.824  11.612
50349W        W18754  27.615   4.803   4.334
50350W        W18755  13.146  20.471  12.308
50351W        W18756  18.571   2.036   2.800
50352W        W18757   0.748  21.173  12.535
50353W        W18758  29.462  26.454   5.311
50354W        W18759  18.221  22.120   5.507
50355W        W18760  22.016  34.155  12.919
50356W        W18761  28.408  30.538  10.697
50357W        W18762  11.965   4.216   2.688
50358W        W18763  13.689  22.134   4.283
50359W        W18764  42.478   7.291   4.606
50360W        W18765  32.901  39.794   1.745
50361W        W18766  11.292  38.700  11.391
50362W        W18767  19.197   4.871   2.437
50363W        W18768   0.183  41.850   2.782
50364W        W18769  42.326  40.957  10.931
50365W        W18770  35.080   1.259  11.170
50366W        W18771   3.299  16.676   4.895
50367W        W18772  41.040   6.933  10.094
50368W        W18773  26.542   7.978   4.188
50369W        W18774  19.367  44.157  13.039
50370W        W18775   7.306  37.847  12.820
50371W        W18776   8.888  12.295   2.019
50372W        W18777  16.075  10.260  10.349
50373W        W18778  16.219   1.839   2.829
50374W        W18779  38.768   4.406   2.233
50375W        W18780  16.124  38.418  10.581
50376W        W18781  13.625  13.803   4.199
50377W        W18782  42.970  13.292   1.227
50378W        W18783   5.214  32.244  11.238
50379W        W18784  15.536  31.261   5.510
50380W        W18785  30.695  34.059  13.971
50381W        W18786  24.189  41.971  13.759
50382W        W18787  31.357   0.905  10.577
50383W        W18788  35.963  35.306   0.886
50384W        W18789   3.887  16.112  14.345
50385W        W18790  37.317  44.889   3.931
50386W        W18791   0.886  34.429  11.061
50387W        W18792  13.975  30.221  13.572
50388W        W18793  33.411  30.530   4.574
50389W        W18794  37.165  34.327  13.425
50390W        W18795  42.525  20.802   1.465
50391W        W18796  34.108  11.138  14.551
50392W        W18797  23.258  40.317  13.346
50393W        W18798   4.344  23.132   2.185
50394W        W18799  17.096   1.443   0.233
50395W        W18800  27.610  44.490  11.241
50396W        W18801  35.081   9.019  12.048
50397W        W18802   6.337  31.624   9.871
50398W        W18803  36.416  20.021  12.141
50399W        W18804  10.154   7.971  14.451
50400W        W18805  19.849  18.966   4.547
50401W        W18806  36.383   1.777  13.955
50402W        W18807  44.065  10.889   3.799
50403W        W18808  43.535  42.171   0.771
50404W        W18809  34.857  42.701  14.833
50405W        W18810  27.496  38.544  14.780
50406W        W18811   2.003  27.404  12.900
50407W        W18812  27.533  18.219  13.836
50408W        W18813   2.532  13.209  11.571
50409W        W18814  44.355   9.425   1.955
50410W        W18815  16.292   7.120  13.346
50411W        W18816   5.673  19.713  12.082
50412W        W18817  42.750  23.533   2.257
50413W        W18818   9.136  38.776   3.636
50414W        W18819  23.114  17.022  13.994
50415W        W18820  28.160  38.277   0.306
50416W        W18821  10.799  40.806  11.568
50417W        W18822  12.303  32.612   2.067
50418W        W18823  43.355  21.242   2.621
50419W        W18824  34.917  44.007  10.741
50420W        W18825  32.052  21.089   1.280
50421W        W18826   1.315  27.743  12.948
50422W        W18827   9.257  29.612  13.157
50423W        W18828  11.122  44.268  11.078
50424W        W18829   3.149   1.431   2.409
50425W        W18830  30.986  10.665   4.419
50426W        W18831  21.961  23.552   3.167
50427W        W18832  34.851  32.434  12.853
50428W        W18833  39.808  28.409   2.327
50429W        W18834  33.021  13.437   2.572
50430W        W18835  44.807  42.779   2.849
50431W        W18836  12.375  38.870  13.001
50432W        W18837  34.558  17.121   1.928
50433W        W18838  37.310  20.615  10.315
50434W        W18839   4.413   8.156  14.466
50435W        W18840  41.369  42.523  11.005
50436W        W18841   8.338  35.800   0.492
50437W        W18842  35.357   7.303  10.643
50438W        W18843  35.476  19.009   0.373
50439W        W18844   6.345  22.817  10.619
50440W        W18845   4.709  14.022   0.253
50441W        W18846   6.030  42.472   3.803
50442W        W18847  30.492  21.987  10.763
50443W        W18848  14.803  35.519   2.729
50444W        W18849  30.802   6.584  12.986
50445W        W18850  21.986  42.940   4.012
50446W        W18851  32.893  15.415  11.996
50447W        W18852  20.145  25.181   4.324
50448W        W18853  42.835  17.478   3.232
50449W        W18854  30.573   5.712   0.023
50450W        W18855  28.126  12.600  10.429
50451W        W18856  14.692  22.058  12.603
50452W        W18857  26.444  32.625  13.413
50453W        W18858  41.288   0.232   0.908
50454W        W18859  20.176   7.496  11.512
50455W        W18860  31.641  38.806  14.034
50456W        W18861  16.686   7.685  11.230
50457W        W18862  30.807  41.903  14.478
50458W        W18863  44.986   3.529   3.759
50459W        W18864  38.374  18.625  12.233
50460W        W18865   1.514  13.646   1.749
50461W        W18866  26.999  17.340  11.374
50462W        W18867  14.475  22.666  11.947
50463W        W18868  21.038  42.058  11.681
50464W        W18869  27.581   9.016  14.730
50465W        W18870  16.388  35.899  10.211
50466W        W18871  42.867  30.605   3.244
50467W        W18872  28.575  22.855  13.828
50468W        W18873  16.281  16.566  12.097
50469W        W18874  25.728  11.360  11.401
50470W        W18875  43.741   4.195   0.800
50471W        W18876  24.898  28.102   4.191
50472W        W18877  33.790  39.233  12.916
50473W        W18878  33.672  13.107  14.451
50474W        W18879  20.388  26.051  14.413
50475W        W18880  43.192   3.102   2.949
50476W        W18881  17.572  28.942  11.211
50477W        W18882  32.172  33.479   1.939
50478W        W18883  22.304  15.381   9.978
50479W        W18884  17.266  42.538  14.296
50480W        W18885   6.884  44.269  11.453
50481W        W18886  42.312  14.803   2.662
50482W        W18887  41.430   2.868  10.730
50483W        W18888  44.362  11.743   1.459
50484W        W18889  34.906  40.916   3.369
50485W        W18890   5.153  27.055   4.173
50486W        W18891  44.911  20.538  12.504
50487W        W18892  15.601  41.324  12.489
50488W        W18893  16.524   5.025  13.851
50489W        W18894  37.676  40.968  13.977
50490W        W18895  36.851  31.987  13.347
50491W        W18896  20.212  14.207  12.566
50492W        W18897  22.132   6.682   2.403
50493W        W18898  31.692  17.538   1.251
50494W        W18899  33.842  33.439  10.688
50495W        W18900  15.601  33.176  11.040
50496W        W18901  12.002  12.764  13.237
50497W        W18902  23.025  15.768  11.721
50498W        W18903  41.766  32.977   3.357
50499W        W18904   3.239  30.054   4.911
50500W        W18905  16.491  42.286  11.045
50501W        W18906  12.085   2.281  13.602
50502W        W18907  42.822  41.795  11.589
50503W        W18908  20.008  15.328   0.341
50504W        W18909  36.076  12.592   2.886
50505W        W18910   5.044  17.201  14.004
50506W        W18911  25.642  15.246  13.442
50507W        W18912  35.495  35.140  12.815
50508W        W18913  30.640   9.801   1.962
50509W        W18914   5.198   5.329   1.762
50510W        W18915  31.236   3.330  11.926
50511W        W18916  17.044  40.402  12.919
50512W        W18917  40.627   1.190   2.782
50513W        W18918  29.445   6.153   2.294
50514W        W18919  19.202  36.472   0.893
50515W        W18920  25.264  40.497   3.122
50516W        W18921  24.046  16.549  11.964
50517W        W18922  31.626  18.854   4.622
50518W        W18923  13.820  20.084   3.736
50519W        W18924  40.016  18.790  14.505
50520W        W18925   2.970  42.447   3.046
50521W        W18926  40.447  31.375   3.742
50522W        W18927  18.177  39.430  13.371
50523W        W18928  33.138  35.153  14.873
50524W        W18929   5.120  42.342   0.886
50525W        W18930  34.428   5.936   1.683
50526W        W18931  41.952  37.174  14.281
50527W        W18932  32.977  32.220   4.370
50528W        W18933  25.401  17.969  13.050
50529W        W18934  28.549  15.542  14.785
50530W        W18935  14.164  15.850   2.424
50531W        W18936  16.816  17.034  12.157
50532W        W18937  21.147  35.893  10.682
50533W        W18938   0.454   2.379   4.261
50534W        W18939  22.075  32.625   3.220
50535W        W18940  31.883  35.553  12.605
50536W        W18941  24.585  24.117   4.101
50537W        W18942   8.811  39.800  14.861
50538W        W18943   3.746  30.802   2.867
50539W        W18944   9.406   8.427   4.612
50540W        W18945  32.630  19.054   3.710
50541W        W18946  10.214  22.777  11.122
50542W        W18947  16.615  37.779  10.678
50543W        W18948  23.210  19.051  10.652
50544W        W18949  17.584  11.732   4.710
50545W        W18950   9.472  18.766  14.808
50546W        W18951  20.797  29.664  10.709
50547W        W18952   7.626   8.448  11.289
50548W        W18953   7.355  41.809   2.732
50549W        W18954  41.084  23.272   4.524
50550W        W18955  24.261  18.012  10.170
50551W        W18956  39.536  10.647  13.084
50552W        W18957  41.739  38.628  14.247
50553W        W18958   0.306  33.030  14.830
50554W        W18959  32.480   9.217   4.611
50555W        W18960  42.374  41.062   3.890
50556W        W18961  11.396  37.292   3.225
50557W        W18962  30.903   6.778  13.478
50558W        W18963   8.860   3.546  12.101
50559W        W18964  42.365  33.804  13.482
50560W        W18965  10.970  12.831   1.866
50561W        W18966  33.056   7.335  12.522
50562W        W18967  13.537  13.953   5.043
50563W        W18968  19.506  43.257  12.587
50564W        W18969   4.329  14.215   1.620
50565W        W18970  20.534  22.466   0.342
50566W        W18971  33.438   4.042  12.367
50567W        W18972  17.241  14.399   5.073
50568W        W18973  20.277  28.692  12.105
50569W        W18974  16.062  31.047   4.668
50570W        W18975  39.917  36.963   0.504
50571W        W18976  41.531   4.516  11.079
50572W        W18977  16.467  31.357   4.842
50573W        W18978   8.607  24.429  11.590
50574W        W18979   3.147  18.292   3.139
50575W        W18980   2.439   7.197   0.347
50576W        W18981  30.480  26.761   1.777
50577W        W18982  27.571  31.977  12.767
50578W        W18983  12.749   0.391   3.955
50579W        W18984  39.058  34.950   1.471
50580W        W18985   1.662  23.415   1.528
50581W        W18986  22.481   9.628  12.901
50582W        W18987  18.703  32.536   0.945
50583W        W18988  19.750  38.681   3.421
50584W        W18989  34.643   0.445  14.757
50585W        W18990  20.209  34.998  11.074
50586W        W18991  42.923   5.332   2.709
50587W        W18992  17.841  21.228   4.135
50588W        W18993  39.385   3.305   0.005
50589W        W18994  28.474  11.120  12.844
50590W        W18995  37.973  24.912   1.164
50591W        W18996  42.960  15.192   0.960
50592W        W18997  30.660  42.431   2.948
50593W        W18998  30.460  42.297  13.366
50594W        W18999   1.905  23.255  11.113
50595W        W19000  40.356  43.740   0.183
50596W        W19001  35.937   4.254  13.135
50597W        W19002  37.360   3.265  14.744
50598W        W19003  20.290   1.092  14.772
50599W        W19004  15.095  29.679  14.974
50600W        W19005  39.518  33.485  10.099
50601W        W19006  24.051  23.459  10.318
50602W        W19007   4.397   7.760  13.512
50603W        W19008  23.225  39.827  13.273
50604W        W19009  20.060  21.018  13.269
50605W        W19010  24.255   2.460   3.769
50606W        W19011  37.352  36.122  12.511
50607W        W19012  22.642  43.149   2.298
50608W        W19013  11.174  39.892   3.341
50609W        W19014  22.645  41.397   3.105
50610W        W19015   8.870  38.101   1.825
50611W        W19016  15.141  38.047   0.261
50612W        W19017   6.688  27.938  11.475
50613W        W19018   2.285   2.465   4.649
50614W        W19019  37.715  37.434   3.419
50615W        W19020  22.685  21.611   3.068
50616W        W19021  26.132  40.323  10.079
50617W        W19022  30.637  36.995   0.992
50618W        W19023  21.285  18.299   0.419
50619W        W19024   8.800   1.710  13.563
50620W        W19025   5.863  17.610   0.282
50621W        W19026  41.298  41.862  11.644
50622W        W19027   1.433   4.710  12.645
50623W        W19028  17.508  16.268   2.228
50624W        W19029  25.280  44.410  13.048
50625W        W19030  20.933   5.159  10.838
50626W        W19031   3.827  12.686  13.562
50627W        W19032  39.771  18.723  12.604
50628W        W19033  38.334  31.927  11.251
50629W        W19034  16.303   5.207  11.159
50630W        W19035  15.802  28.521   0.360
50631W        W19036  32.470  34.907   4.743
50632W        W19037   3.369  13.325   3.204
50633W        W19038  12.253  32.352   1.631
50634W        W19039   7.467  26.391   0.834
50635W        W19040   0.653  32.527   4.563
50636W        W19041  35.911  40.959  11.696
50637W        W19042  31.663  41.810   0.075
50638W        W19043  14.528  41.893  13.979
50639W        W19044   8.271  28.526   0.842
50640W        W19045   8.650   4.372   0.314
50641W        W19046  42.509  11.387   1.248
50642W        W19047  37.590  43.894  12.854
50643W        W19048  19.744  42.939   0.903
50644W        W19049  30.167  35.873   1.342
50645W        W19050  21.542   4.019  11.340
50646W        W19051  32.655  31.532   4.832
50647W        W19052   4.379  17.785  14.212
50648W        W19053  18.156  26.348  13.986
50649W        W19054  23.800   0.923   0.801
50650W        W19055  31.496  12.268   4.722
50651W        W19056  19.122  32.832  10.491
50652W        W19057  12.629  15.841  11.084
50653W        W19058  36.909  12.498   2.290
50654W        W19059  28.265   9.441   0.696
50655W        W19060  10.957  18.951  12.180
50656W        W19061  43.039  22.828   4.511
50657W        W19062   7.053   9.405  11.985
50658W        W19063  15.168  22.748  10.330
50659W        W19064   7.171   1.281   3.780
50660W        W19065  34.001  39.962  11.827
50661W        W19066  37.318  14.224   3.750
50662W        W19067  34.788  37.116  14.400
50663W        W19068   3.434  14.020   4.652
50664W        W19069  27.269  18.838  11.553
50665W        W19070  44.965  42.267   3.657
50666W        W19071  11.110  39.605  11.616
50667W        W19072  12.137  35.490  12.815
50668W        W19073  40.859  11.519  11.876
50669W        W19074  40.644  43.337   2.395
50670W        W19075  17.214   7.674  13.940
50671W        W19076  10.306   5.445   1.996
50672W        W19077  19.219  27.493   3.507
50673W        W19078   9.670  42.018  12.369
50674W        W19079  32.647  28.448   2.052
50675W        W19080  44.335  39.053  14.177
50676W        W19081  35.598  19.274   3.893
50677W        W19082   0.544  35.095   4.927
50678W        W19083  11.473  15.426   3.275
50679W        W19084  34.449  21.218  13.264
50680W        W19085   9.326  28.876   1.792
50681W        W19086  27.683   7.837   1.149
50682W        W19087   1.003  27.327  11.034
50683W        W19088  20.133  34.120  13.817
50684W        W19089   8.325  13.684   1.954
50685W        W19090   7.349  37.849  10.554
50686W        W19091  36.427  33.373   3.216
50687W        W19092  14.116  28.507   4.375
50688W        W19093  41.568  39.460   2.454
50689W        W19094   3.376  38.516   3.278
50690W        W19095  14.718  19.847   5.115
50691W        W19096  24.032   4.737   0.681
50692W        W19097  36.091  25.074   1.346
50693W        W19098  29.839  31.632   0.741
50694W        W19099   1.897  39.251  10.836
50695W        W19100   1.190  28.050   0.909
50696W        W19101  40.710   2.745  12.123
50697W        W19102  42.284  10.721   4.197
50698W        W19103  19.183  15.738   3.359
50699W        W19104  23.925  21.962   1.800
50700W        W19105  12.292  25.395   4.442
50701W        W19106  25.636  16.663   2.859
50702W        W19107  38.636  14.271  10.728
50703W        W19108  27.230  36.341   1.447
50704W        W19109  21.730  30.868  13.495
50705W        W19110   4.143  34.269  12.367
50706W        W19111  13.673  12.753  10.705
50707W        W19112  29.022  20.659   2.345
50708W        W19113  15.668  10.854  10.725
50709W        W19114  21.182  20.192  14.292
50710W        W19115  14.799  17.215   3.757
50711W        W19116   3.002  28.540   3.255
50712W        W19117  33.217  12.493  14.355
50713W        W19118  23.531  13.410  12.112
50714W        W19119  13.463  16.577   2.262
50715W        W19120  11.697  15.087  10.618
50716W        W19121  13.158  12.533   1.150
50717W        W19122  26.130  18.565   1.908
50718W        W19123   8.218   6.690   2.287
50719W        W19124  41.193   0.895  12.049
50720W        W19125  34.324  31.457  14.970
50721W        W19126  30.631  28.253  14.303
50722W        W19127  35.504  35.446  10.935
50723W        W19128  30.476  28.496   1.166
50724W        W19129  19.007   4.992   3.409
50725W        W19130  21.321  39.725   3.629
50726W        W19131  13.840   0.236  11.690
50727W        W19132  38.117  32.887   1.392
50728W        W19133  33.479   1.153   2.157
50729W        W19134  19.798   6.837   3.065
50730W        W19135  43.748  34.136  14.507
50731W        W19136   9.269  12.709   4.154
50732W        W19137   1.020  17.680   2.878
50733W        W19138  18.658  31.902   3.782
50734W        W19139  10.797  31.745   3.721
50735W        W19140  27.061   8.418   2.239
50736W        W19141  36.734   0.131   0.435
50737W        W19142  32.291   1.533   1.796
50738W        W19143   5.907  40.877   0.687
50739W        W19144   5.010  35.026   2.844
50740W        W19145  30.547  42.763   2.307
50741W        W19146  37.542   0.306   0.182
50742W        W19147  15.778  22.537   3.102
50743W        W19148  11.794  37.168  12.534
50744W        W19149  22.638  41.071   3.983
50745W        W19150   9.787  41.419  11.614
50746W        W19151  19.771   1.423  12.070
50747W        W19152  13.761   0.856   3.039
50748W        W19153  17.600   1.952   3.288
50749W        W19154   5.417  39.436  11.531
50750W        W19155  36.378  40.990  12.597
50751W        W19156  17.064  33.699  12.377
50752W        W19157  38.061  21.041   2.136
50753W        W19158  11.228  39.775   2.416
50754W        W19159   9.438   3.269   4.959
50755W        W19160  42.423   4.145   0.152
50756W        W19161  38.201  30.106  10.597
50757W        W19162  44.432  12.828   3.596
50758W        W19163  23.448  12.018  11.181
50759W        W19164   4.229   1.713  13.305
50760W        W19165  38.360  24.223  11.650
50761W        W19166  16.172  34.866   4.555
50762W        W19167  21.188   6.780  14.144
50763W        W19168   9.921  12.613   1.778
50764W        W19169  11.449  14.568   4.181
50765W        W19170  14.035   3.710  11.929
50766W        W19171   3.675  33.659  13.326
50767W        W19172  41.212  27.189  11.579
50768W        W19173  28.129   3.690  12.517
50769W        W19174   6.699   4.312  14.403
50770W        W19175  24.471  23.401   1.055
50771W        W19176  10.121  23.214  14.815
50772W        W19177   8.456   0.228  14.189
50773W        W19178  39.887  10.848  11.933
50774W        W19179  20.324  26.685  13.505
50775W        W19180  37.742   4.213  13.871
50776W        W19181  17.771  25.471   3.127
50777W        W19182  20.328  15.175   3.502
50778W        W19183  27.194  22.828  11.833
50779W        W19184  31.163  17.961   0.030
50780W        W19185  30.128   2.361   3.442
50781W        W19186  40.548  14.350   1.921
50782W        W19187  33.645  33.842  12.820
50783W        W19188  15.106  20.526   0.881
50784W        W19189  39.595  32.977   4.632
50785W        W19190   8.969  18.606  11.545
50786W        W19191  39.667  38.683   1.379
50787W        W19192  26.892  11.846  14.012
50788W        W19193  22.578  32.081   1.641
50789W        W19194  44.002  28.665   0.167
50790W        W19195   1.990  41.833   4.218
50791W        W19196  34.401  35.878  11.602
50792W        W19197  16.637  32.999   2.741
50793W        W19198  43.270  27.706   1.704
50794W        W19199  41.470  18.709   1.211
50795W        W19200  15.807   3.811  10.212
50796W        W19201  12.357  34.520  13.815
50797W        W19202  22.067  14.351  13.918
50798W        W19203  11.787  33.407  11.220
50799W        W19204  29.631  19.473  12.059
50800W        W19205   6.734  38.347   1.032
50801W        W19206  16.624  16.302  11.600
50802W        W19207  35.883  40.542   0.713
50803W        W19208  32.996  25.238  11.175
50804W        W19209  23.695  16.733   3.727
50805W        W19210  15.167   8.672   2.565
50806W        W19211   2.709   6.302   1.766
50807W        W19212  30.520  39.579   1.555
50808W        W19213  40.083  25.413  14.340
50809W        W19214   8.284   4.199   0.646
50810W        W19215  24.248  36.255   5.177
50811W        W19216  26.567   3.802   0.501
50812W        W19217  18.817  41.468   0.747
50813W        W19218   2.944  36.956   0.664
50814W        W19219   4.421   9.067  11.530
50815W        W19220  34.866  23.432  12.408
50816W        W19221  44.432  33.608  13.901
50817W        W19222  28.600  29.707   2.492
50818W        W19223  38.023  38.601   0.655
50819W        W19224  40.840   9.597  12.447
50820W        W19225  26.590  39.116  12.400
50821W        W19226   6.952  31.317   4.208
50822W        W19227  14.790  27.726   0.430
50823W        W19228  34.527   4.630   0.451
50824W        W19229   2.473  22.951  13.765
50825W        W19230  14.621  15.528   3.642
50826W        W19231   2.032  32.648  11.151
50827W        W19232  15.163  11.904   3.371
50828W        W19233  32.015  24.233  11.160
50829W        W19234  12.919  44.376  13.987
50830W        W19235  16.298   9.650   2.464
50831W        W19236  21.248  25.433  13.878
50832W        W19237  24.161  41.110  13.513
50833W        W19238  38.711  14.717   1.697
50834W        W19239  35.899   7.183   1.031
50835W        W19240  11.414  27.629  12.632
50836W        W19241  10.375   8.683   0.755
50837W        W19242  24.608  35.718   2.845
50838W        W19243  24.093   1.824   3.091
50839W        W19244  31.559  21.165  12.555
50840W        W19245  44.580  35.064  13.038
50841W        W19246  28.181  16.348  10.607
50842W        W19247  37.175  21.259   2.391
50843W        W19248  16.087  18.784   4.614
50844W        W19249   6.320  16.012   4.144
50845W        W19250   3.442  10.680  12.431
50846W        W19251  19.033  28.020   0.266
50847W        W19252  18.284  10.184   4.194
50848W        W19253  30.134  11.242  14.426
50849W        W19254  23.076  34.887   1.326
50850W        W19255  43.398  22.558   0.901
50851W        W19256  10.891  17.058   0.268
50852W        W19257  13.879  23.648   0.822
50853W        W19258   3.067   7.048   2.173
50854W        W19259  16.779   0.387  11.063
50855W        W19260  37.662   6.540   0.849
50856W        W19261  27.874   0.941  11.048
50857W        W19262  11.266  13.052   1.263
50858W        W19263  29.654   4.439  11.183
50859W        W19264   2.247  11.598   4.094
50860W        W19265   4.708  23.607  12.655
50861W        W19266  29.785  13.856  14.830
50862W        W19267   8.697  11.660  12.066
50863W        W19268  20.347   0.399   1.542
50864W        W19269  13.595   1.518  11.606
50865W        W19270  12.998   3.321  13.576
50866W        W19271  18.988   2.908   4.645
50867W        W19272   5.658   9.653   2.632
50868W        W19273  35.879  17.638   4.160
50869W        W19274  19.762  31.979  12.805
50870W        W19275  29.824  21.145   4.159
50871W        W19276  24.318   6.288  12.957
50872W        W19277  19.829  18.837   2.702
50873W        W19278  39.764  32.749   4.198
50874W        W19279  11.863   7.662  14.516
50875W        W19280  41.762  23.141  11.403
50876W        W19281  33.116  14.728  11.294
50877W        W19282  19.560   4.994  12.940
50878W        W19283  41.959  10.339   4.312
50879W        W19284  44.434   0.852   3.333
50880W        W19285   5.513  42.424   3.934
50881W        W19286   7.754  38.095  10.319
50882W        W19287   2.498  39.967   1.823
50883W        W19288  23.713   3.449  12.932
50884W        W19289  22.101  36.751   1.396
50885W        W19290  32.946  11.902   2.792
50886W        W19291  29.584  37.807   4.664
50887W        W19292  14.671  28.417   3.830
50888W        W19293   3.386  43.361  12.999
50889W        W19294  43.467  22.022  14.429
50890W        W19295   4.068  19.309   1.270
50891W        W19296  14.365   1.545   4.102
50892W        W19297   0.959   2.991  13.466
50893W        W19298   2.421  33.011   3.385
50894W        W19299  31.199  18.285  13.164
50895W        W19300   0.471  38.869  10.509
50896W        W19301  18.261  36.502  12.318
50897W        W19302  19.039   6.812   3.708
50898W        W19303  44.138  15.153   3.684
50899W        W19304  18.539  36.478   0.404
50900W        W19305  24.700  25.643  11.137
50901W        W19306  42.081   9.997  14.241
50902W        W19307  31.956  29.071  11.087
50903W        W19308  17.174  12.039  11.673
50904W        W19309  42.421  23.523   2.670
50905W        W19310   3.965  13.075  12.783
50906W        W19311   6.256  27.467  13.064
50907W        W19312  19.949  12.069   2.697
50908W        W19313  44.663  22.130   5.024
50909W        W19314  14.173  32.166  14.770
50910W        W19315  10.357  36.434   2.851
50911W        W19316  17.875  38.101  14.949
50912W        W19317  27.953  34.059   1.952
50913W        W19318   3.529  35.097   2.757
50914W        W19319   8.693  35.817  12.557
50915W        W19320  40.969  13.999  13.897
50916W        W19321  33.379  30.514   2.772
50917W        W19322  16.652  24.975  13.869
50918W        W19323  18.922  21.688  12.655
50919W        W19324  33.408  43.314  12.970
50920W        W19325  30.369   1.049  12.561
50921W        W19326  35.019  12.856   2.207
50922W        W19327  17.281   2.245  12.536
50923W        W19328  15.114  17.380   2.672
50924W        W19329  28.519  15.587   5.579
50925W        W19330  15.407  32.014   2.843
50926W        W19331  27.477  19.204  13.333
50927W        W19332  18.902   1.579  11.105
50928W        W19333  29.725  39.270   3.248
50929W        W19334  38.581  35.073  10.548
50930W        W19335  31.971  38.764   0.753
50931W        W19336  35.984  28.152  10.764
50932W        W19337  32.845   4.307   1.000
50933W        W19338  41.778  16.897  12.458
50934W        W19339   0.395  32.168  11.036
50935W        W19340  13.800  30.931  12.566
50936W        W19341   4.948  37.108  10.646
50937W        W19342  25.027   1.141   5.264
50938W        W19343  42.371  40.494  11.191
50939W        W19344   9.209  12.416  12.892
50940W        W19345  39.897  20.507   2.917
50941W        W19346  39.609  42.467  14.069
50942W        W19347  11.737  26.102  13.898
50943W        W19348  33.161  26.706   2.865
50944W        W19349  30.581   0.910   4.949
50945W        W19350   3.040  16.612   2.912
50946W        W19351  17.481  19.762   0.830
50947W        W19352  26.102  32.347   3.970
50948W        W19353  31.413   3.566   3.906
50949W        W19354  39.949   3.876   1.768
50950W        W19355  34.037  36.048  14.457
50951W        W19356   8.368  21.706  14.972
50952W        W19357  41.450  34.245  13.415
50953W        W19358  41.450  18.715  13.360
50954W        W19359  39.779  42.532   0.327
50955W        W19360  28.612  29.673  14.025
50956W        W19361  14.620  21.681  11.119
50957W        W19362  28.573  27.720   1.701
50958W        W19363  30.170  31.931   4.589
50959W        W19364  23.149  34.327   3.211
50960W        W19365   8.435   8.865   2.202
50961W        W19366  24.771   4.981  14.921
50962W        W19367  11.869  41.239  10.190
50963W        W19368  42.505   0.538  12.949
50964W        W19369  18.227  24.169   2.597
50965W        W19370   0.027  21.260  10.569
50966W        W19371  10.874  24.029   4.760
50967W        W19372   3.252  23.851   3.578
50968W        W19373  18.754  37.928   0.169
50969W        W19374   5.117  34.679  14.878
50970W        W19375   0.972   7.380   2.266
50971W        W19376  35.117  16.369   0.022
50972W        W19377  19.075  28.242  14.374
50973W        W19378   3.741  17.913   4.554
50974W        W19379  26.208  16.871   1.112
50975W        W19380  27.898  38.135   2.819
50976W        W19381   8.854  29.362   0.546
50977W        W19382  27.388  28.060  11.577
50978W        W19383  26.922  19.442   1.237
50979W        W19384  44.862  29.476   1.907
50980W        W19385  14.143  16.723   1.633
50981W        W19386  39.317  13.715   3.660
50982W        W19387  31.152  34.959   1.484
50983W        W19388   1.900  30.474   4.420
50984W        W19389  17.548   1.764  10.718
50985W        W19390  28.123   4.629  11.931
50986W        W19391  21.740  10.834  10.684
50987W        W19392  18.296  16.182   2.863
50988W        W19393  33.756  35.071   4.260
50989W        W19394  34.161  34.052  11.666
50990W        W19395  43.549  11.318  10.389
50991W        W19396  32.191  14.195  10.636
50992W        W19397  37.758  12.654  10.621
50993W        W19398  26.746  43.683  10.393
50994W        W19399   5.921   6.326   4.373
50995W        W19400  12.882  33.448  12.478
50996W        W19401   7.906  23.766  11.580
50997W        W19402   2.984  38.306  12.839
50998W        W19403  39.001   0.965   0.469
50999W        W19404  19.650  28.218  13.118
51000W        W19405  39.990  34.984  13.877
51001W        W19406  44.287  43.526  14.143
51002W        W19407  33.620  42.998  12.149
51003W        W19408  31.869  18.580   1.752
51004W        W19409  22.167  37.462  13.892
51005W        W19410  14.195   4.711  11.732
51006W        W19411  39.417  30.654   1.884
51007W        W19412   8.169  13.101   0.705
51008W        W19413  39.316   6.350  14.964
51009W        W19414  20.806  41.141  14.326
51010W        W19415  33.175  40.033   0.530
51011W        W19416   3.618  39.606   2.792
51012W        W19417   3.798  34.107  10.699
51013W        W19418  27.424  25.230  10.504
51014W        W19419   6.645  29.548   0.337
51015W        W19420  17.725   1.882  14.755
51016W        W19421  14.983  29.539  11.111
51017W        W19422  44.353  37.528   3.299
51018W        W19423  18.227  19.265  12.236
51019W        W19424  15.133  19.526   0.934
51020W        W19425  33.477  14.943   4.709
51021W        W19426  39.694   1.906  11.161
51022W        W19427  14.100  12.868   1.993
51023W        W19428  17.102  33.054  14.478
51024W        W19429   0.553  41.439  14.456
51025W        W19430  17.120  33.536  14.262
51026W        W19431  43.870  39.779   3.302
51027W        W19432  36.827  20.062   0.002
51028W        W19433  41.315  43.018   2.266
51029W        W19434  28.120  22.118   2.313
51030W        W19435  30.467  37.235   4.201
51031W        W19436  43.278  34.589  13.407
51032W        W19437  16.565  16.409  12.958
51033W        W19438   7.303  23.844   0.064
51034W        W19439  42.211  42.996   3.309
51035W        W19440  19.029  34.321   9.995
51036W        W19441  18.907   5.266   2.647
51037W        W19442  14.815  16.905   1.013
51038W        W19443   5.345  33.900  11.423
51039W        W19444  39.547  15.077  12.090
51040W        W19445  23.986  15.165   2.847
51041W        W19446  37.815  36.811  12.035
51042W        W19447  42.236  13.316   4.127
51043W        W19448   2.758  13.786  11.610
51044W        W19449  26.230  42.842   0.518
51045W        W19450  23.472  16.645  13.160
51046W        W19451  32.317  21.619  13.325
51047W        W19452  31.102  12.757  12.007
51048W        W19453  11.036  23.141   4.576
51049W        W19454  12.621  12.266  10.956
51050W        W19455   3.522  25.540   0.529
51051W        W19456  29.132  33.427  10.597
51052W        W19457  22.815   1.254  14.007
51053W        W19458  11.736  29.760   4.909
51054W        W19459   4.693  29.047  13.818
51055W        W19460   9.954  35.734   4.232
51056W        W19461  29.412  34.006  10.665
51057W        W19462  27.274   5.986   0.737
51058W        W19463   4.154   9.089  10.405
51059W        W19464  22.738  40.802  11.107
51060W        W19465  25.383  37.527  12.740
51061W        W19466   7.312  17.859   0.897
51062W        W19467   7.696  29.683   1.841
51063W        W19468  37.355  15.446  14.346
51064W        W19469  21.165  27.761   4.873
51065W        W19470   6.221  28.617  13.646
51066W        W19471  27.959   6.047  14.702
51067W        W19472  37.256  44.742  14.015
51068W        W19473  22.366  33.935   2.682
51069W        W19474  14.883  35.666  13.152
51070W        W19475  41.207   6.443   2.367
51071W        W19476  37.828  22.534   0.623
51072W        W19477  31.166  41.581  11.539
51073W        W19478  28.135   2.771   2.848
51074W        W19479  12.146   7.458  14.897
51075W        W19480  39.462  11.452   0.440
51076W        W19481  18.495  24.999   2.609
51077W        W19482   9.018   1.285  14.877
51078W        W19483  26.258  40.352   9.563
51079W        W19484  42.997  33.683  11.423
51080W        W19485  39.584  16.251   2.214
51081W        W19486  38.289  36.046  10.659
51082W        W19487  26.949   4.194  10.761
51083W        W19488  22.193  16.663   0.349
51084W        W19489  29.008   0.005   3.876
51085W        W19490  23.653  25.321  11.090
51086W        W19491  25.776  15.173  12.950
51087W        W19492  31.367   6.099   3.601
51088W        W19493  31.509  26.669  10.582
51089W        W19494  15.223  19.323  14.143
51090W        W19495  41.098  38.437   1.684
51091W        W19496  35.946  31.590   0.489
51092W        W19497  29.171  35.521   4.764
51093W        W19498  13.324   4.201  12.540
51094W        W19499  39.353  11.230  12.352
51095W        W19500  31.083   6.595  11.077
51096W        W19501  44.648  15.853   0.800
51097W        W19502  35.504   9.320  14.857
51098W        W19503   2.532  28.591   4.038
51099W        W19504   3.509  20.077   3.265
51100W        W19505  39.059   3.598   3.158
51101W        W19506  21.586  37.231  11.868
51102W        W19507  21.678  41.306   1.733
51103W        W19508   6.971  37.058   3.748
51104W        W19509  15.345  43.746   2.808
51105W        W19510  18.337  18.650   1.825
51106W        W19511   9.442  36.054  11.686
51107W        W19512  20.232  19.362   5.228
51108W        W19513  14.012  14.215  14.021
51109W        W19514  29.195  26.152  13.539
51110W        W19515  33.781  13.365   0.953
51111W        W19516  35.317  10.359  13.451
51112W        W19517  39.217   2.483   4.559
51113W        W19518  24.555  38.795   4.801
51114W        W19519  42.771  44.963  14.410
51115W        W19520  15.339  25.580  13.750
51116W        W19521  11.982  24.180  14.762
51117W        W19522  16.685  25.264  13.364
51118W        W19523  17.669   8.889  14.265
51119W        W19524   8.776   6.801  12.415
51120W        W19525  38.403  23.018   1.786
51121W        W19526  23.125  16.897   3.207
51122W        W19527  33.824  19.989  13.119
51123W        W19528  14.266  38.657   1.875
51124W        W19529  20.662  26.974   4.123
51125W        W19530  30.232   9.390  13.912
51126W        W19531   6.449  38.845  12.516
51127W        W19532  35.527   7.000   0.700
51128W        W19533  26.353  15.442  11.899
51129W        W19534  39.896  19.621  11.345
51130W        W19535  35.667  28.448  11.996
51131W        W19536  33.749  15.748  11.050
51132W        W19537  20.733   6.601   4.007
51133W        W19538  12.453  27.585  12.417
51134W        W19539  40.738  37.854   4.642
51135W        W19540  20.496  28.393   4.885
51136W        W19541  16.692  36.121   0.472
51137W        W19542   5.210  43.687   0.801
51138W        W19543  10.928   1.837   2.870
51139W        W19544   4.245  24.729  14.363
51140W        W19545  37.964   1.270  11.095
51141W        W19546  28.699   9.756  10.478
51142W        W19547   0.900  39.877  13.051
51143W        W19548  31.581   1.197   2.419
51144W        W19549   7.910  17.542   4.675
51145W        W19550  12.119   9.106  14.223
51146W        W19551  26.518  16.382  10.725
51147W        W19552  11.213  13.821   4.651
51148W        W19553  21.441  22.199   1.924
51149W        W19554  19.515   5.728   0.636
51150W        W19555  14.635  15.763   0.743
51151W        W19556  39.792  23.675   2.724
51152W        W19557   0.322  44.832   4.801
51153W        W19558  20.277  24.852  10.215
51154W        W19559   8.627   2.719  13.472
51155W        W19560  18.824  29.843  12.942
51156W        W19561  36.327   8.163  14.781
51157W        W19562  29.964  23.657   0.588
51158W        W19563  13.013  43.529  13.707
51159W        W19564  40.833   4.129   2.711
51160W        W19565   6.947  35.437  13.399
51161W        W19566  16.520   3.562   1.317
51162W        W19567  41.796  12.427  13.130
51163W        W19568  31.811  27.426  12.621
51164W        W19569  24.000  31.933   1.868
51165W        W19570   0.738   4.336   3.616
51166W        W19571  35.616  29.097   1.020
51167W        W19572  41.537  23.785  12.120
51168W        W19573  24.590  31.104  13.499
51169W        W19574  33.993   2.867   4.375
51170W        W19575  41.853   9.342  10.901
51171W        W19576  24.585  20.300   3.071
51172W        W19577  15.476  36.963   0.939
51173W        W19578   0.788  29.871   0.338
51174W        W19579  34.412  31.146  13.705
51175W        W19580  39.344  11.831   4.141
51176W        W19581  33.823   5.932   0.226
51177W        W19582  14.133  20.293   0.316
51178W        W19583  16.564  22.623   0.439
51179W        W19584  21.304  41.240  14.481
51180W        W19585  11.873  17.121  13.138
51181W        W19586  36.368  34.696   1.208
51182W        W19587  14.799   0.445   0.720
51183W        W19588  36.050  42.872   0.955
51184W        W19589  32.460  26.132  13.841
51185W        W19590  21.177  25.022   4.858
51186W        W19591   0.019   1.325   3.176
51187W        W19592   7.332  16.169   4.232
51188W        W19593  34.974  13.882   2.062
51189W        W19594  15.295  30.951   1.761
51190W        W19595  10.336  32.523  12.770
51191W        W19596  34.784  16.619  10.677
51192W        W19597  23.026  23.745   0.006
51193W        W19598  10.790  28.694   3.778
51194W        W19599  36.092  13.394  11.171
51195W        W19600  36.592   4.955   4.113
51196W        W19601  35.968   1.832   4.243
51197W        W19602  29.442  31.581   0.233
51198W        W19603  25.080   7.882   0.729
51199W        W19604  40.966  41.310   3.606
51200W        W19605  20.128   2.334  14.888
51201W        W19606  14.239  41.737  14.694
51202W        W19607  27.603  37.857  12.688
51203W        W19608  20.737  36.067  10.417
51204W        W19609   4.364  30.123   2.053
51205W        W19610  10.666  25.699   2.942
51206W        W19611   4.950  44.679   3.306
51207W        W19612   3.085  37.651   1.711
51208W        W19613  19.166  34.406   1.166
51209W        W19614  42.283  17.862  11.931
51210W        W19615   9.064  39.053   4.084
51211W        W19616  44.413   2.456  14.549
51212W        W19617  22.298  10.143  11.056
51213W        W19618  40.524  40.265  14.234
51214W        W19619  15.108  18.136  12.125
51215W        W19620  38.375  38.067   0.694
51216W        W19621  21.452  43.151  10.637
51217W        W19622   4.761  35.156   1.988
51218W        W19623  40.119  24.511   0.256
51219W        W19624  36.783   9.679  13.451
51220W        W19625  32.897  32.600   1.260
51221W        W19626  27.991  30.657   0.973
51222W        W19627  39.011  37.098   2.628
51223W        W19628  40.979  29.645   3.868
51224W        W19629  12.807  17.290   2.654
51225W        W19630  27.402  35.847  14.426
51226W        W19631  17.595  38.556  14.839
51227W        W19632   6.402  28.688   5.385
51228W        W19633  25.802   3.706   0.985
51229W        W19634  35.402  34.661  13.986
51230W        W19635  23.576  31.650  11.644
51231W        W19636   8.341  33.444   1.488
51232W        W19637  25.176  10.271  12.612
51233W        W19638  17.557  10.459   4.652
51234W        W19639   6.981   2.862  12.788
51235W        W19640  12.875  34.415   3.631
51236W        W19641  25.034  35.388  12.530
51237W        W19642  24.256   8.807   4.610
51238W        W19643  13.533   2.791  12.881
51239W        W19644  35.593  24.728   2.217
51240W        W19645  10.777  32.355  14.905
51241W        W19646   0.271  29.303  11.550
51242W        W19647  18.625  35.076   0.192
51243W        W19648   4.237   2.688  12.174
51244W        W19649  33.979   1.878  13.489
51245W        W19650  26.527  24.093  11.175
51246W        W19651  34.221  13.521   0.739
51247W        W19652   9.114  24.076   3.723
51248W        W19653  43.202  29.675  13.098
51249W        W19654   5.446  41.114   3.614
51250W        W19655  30.145  39.374   4.082
51251W        W19656   3.994  22.508  10.767
51252W        W19657  18.054  42.201  13.223
51253W        W19658  23.278  25.231  13.954
51254W        W19659  25.522  37.020   4.277
51255W        W19660  23.560   4.667   3.720
51256W        W19661  17.193  24.637   4.545
51257W        W19662  19.703   1.511  14.053
51258W        W19663   4.462  25.111  11.551
51259W        W19664  30.168  25.785  14.699
51260W        W19665  19.526  30.147   2.301
51261W        W19666  25.417  38.453   2.602
51262W        W19667  38.056  36.438  10.301
51263W        W19668  38.272  26.059  11.557
51264W        W19669   8.113  34.046   3.150
51265W        W19670   5.432  16.009   0.923
51266W        W19671  23.281  44.437  12.146
51267W        W19672  25.199  28.140  13.380
51268W        W19673   0.436  18.257  14.569
51269W        W19674  10.006  43.968   1.886
51270W        W19675  44.379  11.238  14.315
51271W        W19676  13.707  18.093   4.570
51272W        W19677  40.004   6.071   3.359
51273W        W19678  34.006  31.421   1.714
51274W        W19679  39.097   6.308   1.872
51275W        W19680   8.951   1.644  14.459
51276W        W19681  44.480   2.921  14.764
51277W        W19682  13.719  25.506  10.660
51278W        W19683  15.847  14.796   1.473
51279W        W19684  17.129  19.077  14.372
51280W        W19685  20.581  25.041   0.348
51281W        W19686  17.746   5.631   0.330
51282W        W19687  23.273  19.056   0.438
51283W        W19688  12.196  11.317  13.504
51284W        W19689   0.685  43.945   4.589
51285W        W19690  11.640  35.293  13.569
51286W        W19691  39.492  10.072   0.802
51287W        W19692  20.055   2.939   0.355
51288W        W19693  26.989  21.957   0.417
51289W        W19694  10.565  32.039   4.206
51290W        W19695   7.706  43.506   4.705
51291W        W19696   2.939  24.160   0.252
51292W        W19697  16.575  33.075  14.584
51293W        W19698   7.260   1.400   0.537
51294W        W19699  33.454   6.652  11.993
51295W        W19700  42.355   9.178   1.378
51296W        W19701  17.842  27.991  13.758
51297W        W19702   2.307   0.544  12.622
51298W        W19703   4.380  21.649   3.143
51299W        W19704  22.574  22.993   3.745
51300W        W19705  23.590   8.740   3.787
51301W        W19706  17.219  43.980   0.914
51302W        W19707  15.887  23.223  13.448
51303W        W19708  16.932   5.779  10.856
51304W        W19709   1.670  25.294  11.201
51305W        W19710  19.727  43.146   1.397
51306W        W19711   3.750   4.060  13.106
51307W        W19712  21.653  18.498  10.692
51308W        W19713   6.192  20.531   0.894
51309W        W19714  33.076  19.556  14.987
51310W        W19715   9.280   9.979   1.071
51311W        W19716  34.108  39.112   3.067
51312W        W19717  41.013  37.395  11.575
51313W        W19718  34.578  17.345   2.434
51314W        W19719  21.269  39.685  13.807
51315W        W19720   5.668  31.087  14.849
51316W        W19721  23.168  37.541  13.074
51317W        W19722  36.521  36.382  12.143
51318W        W19723  19.186  20.040  12.953
51319W        W19724   5.212   0.365   2.311
51320W        W19725  21.630  36.566   4.226
51321W        W19726  38.464  29.211  10.928
51322W        W19727  22.958  30.603   5.019
51323W        W19728   9.907   4.301  11.889
51324W        W19729  24.206   2.233  11.184
51325W        W19730   5.006  38.051  13.480
51326W        W19731  40.310  10.313  10.979
51327W        W19732  38.053  38.301  11.113
51328W        W19733   3.394  41.227   1.854
51329W        W19734  28.862  41.089  14.508
51330W        W19735  39.631  34.013   2.271
51331W        W19736  21.249   4.475  13.883
51332W        W19737  22.375   1.062  13.615
51333W        W19738  13.031  11.842  13.037
51334W        W19739   7.560  20.592   1.253
51335W        W19740  15.586  37.974   1.497
51336W        W19741  10.281  22.625   2.491
51337W        W19742  35.375  19.725   2.816
51338W        W19743   2.663  31.586   2.638
51339W        W19744  31.913  18.009   1.258
51340W        W19745  30.651  37.999   4.802
51341W        W19746  15.806  21.002   1.450
51342W        W19747  31.091  37.053  13.399
51343W        W19748  18.724  37.342  11.047
51344W        W19749  26.897  32.851  11.622
51345W        W19750  13.135  41.520  12.399
51346W        W19751  24.412  19.097   3.196
51347W        W19752  33.600  15.158  13.606
51348W        W19753   5.076  13.365  14.927
51349W        W19754  15.833   9.198  11.541
51350W        W19755  34.863  37.881   3.203
51351W        W19756  38.816  16.295  11.933
51352W        W19757  30.130  42.928   4.237
51353W        W19758  27.510  34.234   3.201
51354W        W19759   2.390  20.513  12.556
51355W        W19760  43.465  29.969   4.416
51356W        W19761  30.197  18.864   3.964
51357W        W19762  15.395  40.153  11.644
51358W        W19763  31.063   5.960  14.400
51359W        W19764   2.307  42.528   2.702
51360W        W19765  18.126  12.222   0.768
51361W        W19766  37.926  11.752   0.791
51362W        W19767  31.997  19.686   0.625
51363W        W19768  19.806   8.138   0.214
51364W        W19769   6.711  44.939   2.315
51365W        W19770   7.344  36.457   1.747
51366W        W19771  16.771  28.589   3.423
51367W        W19772  35.126  42.298  10.808
51368W        W19773  38.189  16.985  11.464
51369W        W19774  15.876  17.174  13.819
51370W        W19775  11.489  41.743   2.139
51371W        W19776  30.969  40.595  13.408
51372W        W19777  42.041  30.666   0.710
51373W        W19778  29.032  10.602  10.664
51374W        W19779  24.146  37.832   1.525
51375W        W19780  31.441  18.715  10.169
51376W        W19781  23.099  40.588   4.710
51377W        W19782  18.895  41.482   1.249
51378W        W19783  22.146  25.796   4.671
51379W        W19784  43.098  41.677  13.452
51380W        W19785  41.348  16.288  12.393
51381W        W19786   5.092  14.588  11.968
51382W        W19787  33.778   0.903  12.072
51383W        W19788  43.500  27.486   2.625
51384W        W19789  43.687  16.166   0.929
51385W        W19790  28.035  19.240   3.180
51386W        W19791  18.612  26.402   4.204
51387W        W19792  44.321  14.801  12.426
51388W        W19793   3.943  29.162   0.079
51389W        W19794  35.371  16.219  11.410
51390W        W19795   0.285  16.862   1.339
51391W        W19796  17.764  21.095  11.006
51392W        W19797  22.504   8.611  11.461
51393W        W19798  26.133  27.036  11.422
51394W        W19799   5.843  30.258   2.270
51395W        W19800   2.771  13.465   4.599
51396W        W19801  37.156  40.422  12.416
51397W        W19802   4.808  16.354  13.975
51398W        W19803  33.950   8.213  13.333
51399W        W19804   3.189  41.485   4.708
51400W        W19805  37.922  31.637  10.681
51401W        W19806   5.613   3.316   4.218
51402W        W19807  38.035  10.532   3.302
51403W        W19808  37.394  35.022   2.792
51404W        W19809  24.940  10.142   4.754
51405W        W19810  39.496  36.034   1.401
51406W        W19811  28.916  40.851  12.427
51407W        W19812  36.038   7.288   4.522
51408W        W19813   1.761  33.104   4.142
51409W        W19814  30.564  44.900   0.293
51410W        W19815   9.824  26.074   4.658
51411W        W19816  42.489  16.686  12.446
51412W        W19817  21.133   4.479  10.638
51413W        W19818  10.220  42.393   2.494
51414W        W19819   9.884   6.212   0.263
51415W        W19820  11.104  34.599  11.890
51416W        W19821   8.324   5.387  12.639
51417W        W19822   0.112  18.011  11.521
51418W        W19823  11.270   7.174   3.276
51419W        W19824   9.875  19.711   0.281
51420W        W19825   4.640   1.222   0.030
51421W        W19826  24.209  15.867   0.411
51422W        W19827  34.422  23.151   1.240
51423W        W19828  15.107   7.012   0.509
51424W        W19829   3.868   4.773   3.934
51425W        W19830  30.628  26.624  10.320
51426W        W19831  28.192  15.510   4.725
51427W        W19832   5.206  16.650   2.333
51428W        W19833   6.181  33.161  14.528
51429W        W19834  30.204   7.341  14.515
51430W        W19835   9.572  31.201   2.690
51431W        W19836  17.612   9.372   1.992
51432W        W19837  44.385  37.374   3.797
51433W        W19838  32.929  14.033   1.797
51434W        W19839  27.484  22.421  13.590
51435W        W19840  28.082   3.827  13.735
51436W        W19841  33.906  23.507  13.928
51437W        W19842  19.780   9.990   4.061
51438W        W19843  19.468   2.347  13.008
51439W        W19844   5.219   4.733  12.701
51440W        W19845  40.348  30.094  13.974
51441W        W19846  23.057  14.068  11.656
51442W        W19847  21.129  34.181  10.474
51443W        W19848  42.996  13.063  14.362
51444W        W19849  42.384  35.864  13.506
51445W        W19850  31.905   0.416   3.082
51446W        W19851  28.207  39.765   1.794
51447W        W19852  14.434  12.845  13.368
51448W        W19853  23.967  40.796  13.100
51449W        W19854  35.491   6.483   0.646
51450W        W19855  25.093  25.190   0.953
51451W        W19856  15.692  44.877  14.821
51452W        W19857  31.621  11.619  10.575
51453W        W19858  16.288  18.704   1.253
51454W        W19859  18.184  33.940   5.000
51455W        W19860  19.250  43.494   2.832
51456W        W19861  24.149  13.573  11.666
51457W        W19862  13.796  34.398  12.584
51458W        W19863  23.693  14.256  11.134
51459W        W19864  39.051  37.582   2.837
51460W        W19865  32.242  14.217   0.517
51461W        W19866  15.761  23.972  10.478
51462W        W19867  14.354  12.332  11.098
51463W        W19868  19.323  23.718   3.760
51464W        W19869  40.895  37.395  14.810
51465W        W19870   1.213  23.197  14.991
51466W        W19871  44.386  42.928   0.454
51467W        W19872   1.734   5.926  13.834
51468W        W19873  28.650  36.508   3.538
51469W        W19874  17.928   8.485   0.501
51470W        W19875  19.580  21.270  14.796
51471W        W19876  27.702  27.894  14.358
51472W        W19877  24.183   8.009   2.159
51473W        W19878  41.445  44.466  13.851
51474W        W19879  20.837  43.331   3.675
51475W        W19880   0.454   2.865  14.307
51476W        W19881  35.683  16.089   2.468
51477W        W19882  36.544   6.715   1.505
51478W        W19883  18.867   7.448   3.661
51479W        W19884  21.534   2.682  12.425
51480W        W19885  34.630   5.274   1.609
51481W        W19886   3.908  39.764  10.731
51482W        W19887   6.942   4.278   1.155
51483W        W19888   3.473  36.198   3.743
51484W        W19889  25.188  37.434   0.332
51485W        W19890  12.177  19.641  10.948
51486W        W19891  11.157  21.114  11.525
51487W        W19892  42.996  10.742   1.137
51488W        W19893  37.327  43.137  13.298
51489W        W19894   8.763  31.097  10.159
51490W        W19895  18.755  35.463  12.026
51491W        W19896  42.771  40.644  12.586
51492W        W19897  35.071   4.776   4.139
51493W        W19898   2.723   5.107   9.722
51494W        W19899  30.872  25.469  11.571
51495W        W19900  38.829  44.761  13.863
51496W        W19901  12.918  40.828   3.498
51497W        W19902   1.386  18.271  12.262
51498W        W19903  19.310  27.988  13.907
51499W        W19904  25.664  22.801  11.655
51500W        W19905  34.914  10.729  13.817
51501W        W19906  19.370  34.797  10.129
51502W        W19907  24.579   9.258   3.266
51503W        W19908  24.517   6.937  11.098
51504W        W19909  11.732   3.882  10.612
51505W        W19910  19.842   6.209   3.992
51506W        W19911   6.794  35.863  13.656
51507W        W19912  36.438  29.050  14.862
51508W        W19913  26.517  18.704  12.108
51509W        W19914  17.316  34.377   1.626
51510W        W19915   4.727  37.692   1.859
51511W        W19916   0.563  20.047   0.737
51512W        W19917  20.567  21.825  10.922
51513W        W19918  34.829   3.271  11.898
51514W        W19919  19.131  31.693   0.318
51515W        W19920  31.767  21.678  14.229
51516W        W19921  32.345  30.631  14.105
51517W        W19922  24.496  11.706  14.603
51518W        W19923   6.366   9.887   2.767
51519W        W19924  29.214  21.509   2.667
51520W        W19925  43.963  42.880  12.439
51521W        W19926  32.966  10.689  14.926
51522W        W19927  10.789  44.278  11.506
51523W        W19928  30.895   7.186  13.874
51524W        W19929  10.205  37.445  13.119
51525W        W19930  11.271   4.926   2.893
51526W        W19931  28.944  25.640   0.447
51527W        W19932  35.451  28.134   1.041
51528W        W19933  34.240  17.553   2.856
51529W        W19934  15.034  39.044   3.695
51530W        W19935  13.166  11.886   4.683
51531W        W19936  29.031  41.780   2.499
51532W        W19937  22.719  42.822  11.169
51533W        W19938  13.910  40.243   3.336
51534W        W19939  23.291   2.303  11.700
51535W        W19940   9.717   7.849   2.945
51536W        W19941   9.646  27.206   0.838
51537W        W19942  27.534  23.341   4.599
51538W        W19943  23.498  26.503   0.139
51539W        W19944  15.310   8.816   1.151
51540W        W19945  25.800  32.529  14.134
51541W        W19946  36.961  21.615   0.908
51542W        W19947  23.094  11.070  10.600
51543W        W19948  24.560   0.359   1.375
51544W        W19949  35.499  21.833   2.307
51545W        W19950  20.549  15.780  12.351
51546W        W19951  21.262  13.779   1.878
51547W        W19952  36.623  26.854  13.093
51548W        W19953  34.910   1.277  14.977
51549W        W19954   2.261  34.961  14.359
51550W        W19955   9.924   1.824   2.432
51551W        W19956  35.768   5.492  12.482
51552W        W19957  21.852  41.684   2.849
51553W        W19958  42.530   7.981   0.260
51554W        W19959  35.941  37.067   4.639
51555W        W19960  24.547  25.781   3.182
51556W        W19961  19.372   8.743  10.357
51557W        W19962  16.479   2.203   2.588
51558W        W19963  44.696  40.721  13.832
51559W        W19964  17.833  34.603   0.367
51560W        W19965  10.856  24.260  12.977
51561W        W19966  32.547  29.547  14.495
51562W        W19967  28.027  25.535   4.373
51563W        W19968  15.736  27.180  11.451
51564W        W19969  36.951  16.993  10.608
51565W        W19970  42.932  20.305  12.475
51566W        W19971  13.828  21.549  10.730
51567W        W19972   0.867  29.065   0.772
51568W        W19973  41.974  24.128  12.096
51569W        W19974  42.887   3.014   3.693
51570W        W19975  44.934  18.011  14.581
51571W        W19976  14.370  42.967   1.707
51572W        W19977   9.831  33.682  13.346
51573W        W19978  16.819  44.855  11.975
51574W        W19979  13.935  44.079  14.971
51575W        W19980  36.308  34.883  13.976
51576W        W19981  37.153  31.415  12.566
51577W        W19982  18.484  11.342  10.355
51578W        W19983   7.683  25.986  13.302
51579W        W19984  35.393  37.327  11.066
51580W        W19985  42.941  42.875   2.247
51581W        W19986  16.060  19.664  11.991
51582W        W19987  22.253  26.254   4.832
51583W        W19988  32.500  23.860   2.724
51584W        W19989  33.946  37.874  10.714
51585W        W19990  31.196   7.111  11.051
51586W        W19991  38.859   1.275   4.211
51587W        W19992   0.721  26.137  11.166
51588W        W19993   1.824  28.529  13.888
51589W        W19994  19.533  15.838   1.931
51590W        W19995  18.224  23.462  12.996
51591W        W19996  22.563   1.461  14.720
51592W        W19997   5.133  34.339  11.566
51593W        W19998   1.418  17.596  12.982
51594W        W19999  21.383  40.983  10.564
51595W        W20000  10.657  32.036   1.223
51596W        W20001   3.190  22.230  12.945
51597W        W20002  38.150  11.178  14.855
51598W        W20003   7.168  20.136   0.395
51599W        W20004  22.695  43.592   2.007
51600W        W20005   5.561  29.104  13.415
51601W        W20006  24.928  20.556  13.033
51602W        W20007  22.625  40.990   2.199
51603W        W20008  21.821  27.912  10.940
51604W        W20009   3.419  40.587  12.220
51605W        W20010  44.759  21.005   2.688
51606W        W20011   7.361  27.616   0.785
51607W        W20012  17.071  21.601  14.612
51608W        W20013  25.461  17.734   1.152
51609W        W20014  19.618  24.959  14.155
51610W        W20015  20.240  32.344  13.546
51611W        W20016   1.517  34.137  12.533
51612W        W20017   9.236  20.615   1.852
51613W        W20018  23.993  19.831   2.442
51614W        W20019  42.034  25.093  12.434
51615W        W20020  17.464  12.532  12.520
51616W        W20021  21.956  22.200   2.793
51617W        W20022  18.654  34.028   0.273
51618W        W20023   2.412  23.790   4.701
51619W        W20024  35.673  36.343  11.301
51620W        W20025   8.664  21.131  10.416
51621W        W20026  43.945  20.073  12.541
51622W        W20027  27.707  44.221   2.365
51623W        W20028  40.504   6.773  13.859
51624W        W20029   8.880  37.134   4.080
51625W        W20030  14.655  34.904   3.812
51626W        W20031  11.618  35.696  13.206
51627W        W20032  12.768  19.212   3.878
51628W        W20033  13.240  41.692   4.817
51629W        W20034  31.622  40.381  11.221
51630W        W20035  16.106  17.111   4.121
51631W        W20036  23.697  15.087  14.464
51632W        W20037   7.239  29.613  12.777
51633W        W20038   5.229   6.468  10.955
51634W        W20039  25.250  11.253  11.567
51635W        W20040  36.953  38.433   0.332
51636W        W20041  26.003   6.348  13.841
51637W        W20042  28.114  33.170  10.626
51638W        W20043  34.611  34.538  10.677
51639W        W20044   3.985  40.747   3.592
51640W        W20045   9.388  27.647   1.675
51641W        W20046  36.557  37.074   4.123
51642W        W20047  32.875  21.172   1.698
51643W        W20048  23.277   0.364   4.039
51644W        W20049  10.281  39.076  13.510
51645W        W20050  19.631  22.688  10.779
51646W        W20051   8.862  19.621  10.692
51647W        W20052  17.331  16.176  13.409
51648W        W20053  32.942   7.398  13.021
51649W        W20054  41.376  13.151   3.286
51650W        W20055  17.197   3.099  14.717
51651W        W20056  10.401  37.901   0.977
51652W        W20057  37.421   9.546   4.731
51653W        W20058  12.613   5.369   1.159
51654W        W20059  23.867  24.156  11.970
51655W        W20060   9.307  32.473   0.456
51656W        W20061  11.354  27.417  13.545
51657W        W20062  13.537  19.784   1.772
51658W        W20063  37.718  25.933   1.792
51659W        W20064  33.771   8.863   2.722
51660W        W20065  14.731   7.173  13.878
51661W        W20066   3.810   1.371  13.062
51662W        W20067   6.687  19.219  11.642
51663W        W20068   9.237   3.450   3.720
51664W        W20069  15.494   6.689  11.163
51665W        W20070  10.806  17.561   0.737
51666W        W20071   5.305  20.330  10.244
51667W        W20072   8.728  24.954  11.601
51668W        W20073  28.210  11.178   3.603
51669W        W20074  43.799   2.903   4.277
51670W        W20075  16.978   5.282   4.940
51671W        W20076  18.813   8.789  14.103
51672W        W20077   2.757  23.532  14.453
51673W        W20078  44.655   7.331  10.718
51674W        W20079   8.214  34.795   2.721
51675W        W20080  27.195  12.269  11.034
51676W        W20081  41.554   1.757   5.093
51677W        W20082   2.337   1.024  13.962
51678W        W20083  27.198  24.606   3.907
51679W        W20084  39.854   0.976  11.435
51680W        W20085  19.166  26.181   3.285
51681W        W20086  34.824   7.425  11.262
51682W        W20087  38.380  10.265  12.986
51683W        W20088   8.479  21.141  11.638
51684W        W20089  33.652   8.745  14.458
51685W        W20090  29.185  14.245  10.702
51686W        W20091  15.527  32.059  14.412
51687W        W20092  39.499  21.948   4.717
51688W        W20093  26.390  31.510  13.436
51689W        W20094   0.480  17.113   1.773
51690W        W20095  32.539  13.442   1.438
51691W        W20096   7.949  36.406   4.545
51692W        W20097  15.257  26.633   0.278
51693W        W20098  11.871  31.104   2.824
51694W        W20099   5.915   3.654  12.404
51695W        W20100  25.437  18.790   2.477
51696W        W20101  40.481  12.169   2.236
51697W        W20102  14.836   6.379   0.760
51698W        W20103  37.387   4.241  14.816
51699W        W20104  31.355  32.624  10.838
51700W        W20105  23.466  33.492  10.740
51701W        W20106  23.476  28.676  11.620
51702W        W20107  36.614  27.097   4.605
51703W        W20108  16.323   8.934   3.172
51704W        W20109   5.653  41.864   1.382
51705W        W20110  27.541   2.660   1.696
51706W        W20111  23.193   6.696  12.504
51707W        W20112  29.535  41.098  13.785
51708W        W20113  11.277  33.368  14.431
51709W        W20114  42.962  12.300   2.133
51710W        W20115  44.027  38.819   4.065
51711W        W20116  34.580  26.788   0.862
51712W        W20117  11.911  23.953   2.167
51713W        W20118  23.096  41.319  13.319
51714W        W20119  19.489  16.799  11.404
51715W        W20120  29.885  38.416   3.640
51716W        W20121  22.373  44.087  14.352
51717W        W20122   8.666  37.610   4.116
51718W        W20123  10.055  10.427   4.200
51719W        W20124   5.907  18.564   3.147
51720W        W20125  38.478  19.420   0.044
51721W        W20126  18.485   1.843  11.299
51722W        W20127  19.194  28.367  14.884
51723W        W20128  28.610   6.334  14.594
51724W        W20129  33.044   0.231  10.579
51725W        W20130  19.755  23.214  13.993
51726W        W20131  10.779  42.159   0.809
51727W        W20132  14.077  42.160  13.766
51728W        W20133  21.008  10.371  13.365
51729W        W20134   1.863   2.312   4.352
51730W        W20135   1.348  36.875  14.110
51731W        W20136  25.579   1.746  12.817
51732W        W20137  28.051  27.919  13.544
51733W        W20138  16.140  19.501  11.499
51734W        W20139  42.928   4.891   2.214
51735W        W20140  16.220   4.012  11.554
51736W        W20141  33.544  34.473  10.611
51737W        W20142   2.054  37.272   3.123
51738W        W20143  24.592  26.793   4.186
51739W        W20144  31.652  35.546  13.877
51740W        W20145   5.298   4.817  14.104
51741W        W20146   9.116  11.712   3.752
51742W        W20147  32.605  21.149   1.236
51743W        W20148  29.304   6.754   0.280
51744W        W20149  40.936   5.291   1.338
51745W        W20150  44.619  16.079  13.731
51746W        W20151   2.949  33.518   1.520
51747W        W20152  36.945   7.111   2.360
51748W        W20153  30.008   1.663  10.641
51749W        W20154   2.151   8.804  10.781
51750W        W20155  26.514  43.987  10.767
51751W        W20156  39.337  31.441   3.122
51752W        W20157  44.772  12.112   3.943
51753W        W20158  41.744  31.921  10.807
51754W        W20159  41.475  35.247   5.020
51755W        W20160  44.496  32.614  10.681
51756W        W20161  40.204  40.433   1.225
51757W        W20162  39.195  11.858   1.364
51758W        W20163  42.548  11.347  11.575
51759W        W20164   2.474   4.183   0.472
51760W        W20165   3.760   7.306   1.797
51761W        W20166  37.958   9.808   1.223
51762W        W20167  37.594   2.397  13.974
51763W        W20168  13.153   3.966  10.555
51764W        W20169  36.181  30.009  11.657
51765W        W20170   1.760   3.804  14.345
51766W        W20171  37.923  13.459  13.808
51767W        W20172  43.224  41.430   4.775
51768W        W20173  43.984  14.320  12.473
51769W        W20174  24.883  43.579  10.578
51770W        W20175  41.240  24.511  13.959
51771W        W20176  26.963  17.046  12.750
51772W        W20177  14.419   6.525  12.672
51773W        W20178  41.851  33.614   2.737
51774W        W20179  14.173  22.253   0.056
51775W        W20180  43.842  25.472  11.169
51776W        W20181  23.144  11.882   0.003
51777W        W20182  20.203  35.404  14.333
51778W        W20183  16.321   1.292  12.868
51779W        W20184   3.979  20.916   2.820
51780W        W20185  26.784  13.390  13.053
51781W        W20186   6.916  14.381   3.269
51782W        W20187  41.800  29.215   1.770
51783W        W20188  11.625  43.514   1.985
51784W        W20189   2.854  43.009   1.904
51785W        W20190   7.762  37.564  10.427
51786W        W20191   0.002  41.879  13.445
51787W        W20192  33.085  11.355   4.201
51788W        W20193  11.100  13.688   0.118
51789W        W20194  42.950  28.652   4.467
51790W        W20195   5.794  40.017  14.115
51791W        W20196   0.341   6.912  12.536
51792W        W20197  42.253   9.853  13.734
51793W        W20198  40.847  17.938  13.805
51794W        W20199  15.121  24.643   0.397
51795W        W20200  28.774  34.926  14.021
51796W        W20201  16.084  28.475  14.599
51797W        W20202   1.074   8.456   1.304
51798W        W20203  12.762  15.088   0.373
51799W        W20204   5.335  12.331   1.351
51800W        W20205  16.646  42.316   0.746
51801W        W20206   0.764   0.295  12.828
51802W        W20207  37.361  15.663   2.245
51803W        W20208  36.128  41.826  13.870
51804W        W20209  20.256  22.666   1.364
51805W        W20210  42.719   0.126  13.506
51806W        W20211  42.247  23.948  11.336
51807W        W20212   1.042  21.791  10.542
51808W        W20213  41.967  19.487  13.852
51809W        W20214  19.834   7.680   2.870
51810W        W20215  37.370  36.974  11.267
51811W        W20216  29.156  17.991   1.442
51812W        W20217  43.487  20.060  14.435
51813W        W20218  12.565  25.751   4.033
51814W        W20219  37.755   1.210   4.126
51815W        W20220  11.585  28.261  14.964
51816W        W20221   0.492   1.367   4.034
51817W        W20222  28.644   8.243   0.524
51818W        W20223  43.930  18.597  14.256
51819W        W20224   9.272  18.242  14.873
51820W        W20225  10.313   2.759   4.746
51821W        W20226  24.907  10.263  12.168
51822W        W20227  13.870   7.879   0.405
51823W        W20228  11.380   4.729  13.934
51824W        W20229  19.620  16.837   1.504
51825W        W20230   1.476  41.796   4.225
51826W        W20231  40.950   2.879   3.687
51827W        W20232  16.640  10.042   2.639
51828W        W20233  13.624  36.416   1.904
51829W        W20234   5.280  34.931  11.954
51830W        W20235  21.254  27.091   2.120
51831W        W20236   1.879  34.910   1.736
51832W        W20237  37.844   2.000  11.370
51833W        W20238   1.627  10.698  11.135
51834W        W20239  33.029  30.200  11.618
51835W        W20240  18.907  25.446   4.195
51836W        W20241  34.822  39.968  11.530
51837W        W20242  29.509  39.175  12.658
51838W        W20243   4.386  43.971  11.591
51839W        W20244  18.075  13.914  11.148
51840W        W20245   7.582  34.426  13.664
51841W        W20246   0.811  44.281   2.427
51842W        W20247  24.137  21.878   0.912
51843W        W20248   2.968   3.586  13.826
51844W        W20249  10.220  21.966   0.294
51845W        W20250  22.511   5.919  10.547
51846W        W20251  10.747  21.686  11.598
51847W        W20252  36.364  44.759  13.566
51848W        W20253   8.863   9.806   1.353
51849W        W20254  38.260  32.024  14.028
51850W        W20255  24.720  19.073   0.356
51851W        W20256  14.851  15.612  10.995
51852W        W20257  33.081   1.977   2.207
51853W        W20258  29.180  38.645  11.210
51854W        W20259  38.979  14.353   0.916
51855W        W20260  12.667  20.024   1.907
51856W        W20261  16.285  22.930  14.458
51857W        W20262  11.897  33.329   4.615
51858W        W20263   4.837  24.884  11.836
51859W        W20264  19.951  42.884  10.435
51860W        W20265  11.782  27.673  10.228
51861W        W20266  12.554   1.475   2.976
51862W        W20267  25.752  33.657  14.388
51863W        W20268  29.390  10.645  12.123
51864W        W20269  17.231  31.123  11.076
51865W        W20270   4.753  19.190   2.162
51866W        W20271  34.392  33.097   1.458
51867W        W20272  19.592  18.241   0.890
51868W        W20273   1.840   3.722   4.111
51869W        W20274  15.545  22.517   0.294
51870W        W20275  25.477  13.207  12.072
51871W        W20276  39.061  31.628   1.280
51872W        W20277  17.120  14.062   2.867
51873W        W20278  29.177  14.243   3.170
51874W        W20279  11.398  28.901  11.422
51875W        W20280  38.891  38.088  12.395
51876W        W20281   2.021  43.302  14.490
51877W        W20282   5.349  19.744  13.418
51878W        W20283  28.154  35.530  14.976
51879W        W20284  17.635  36.063  12.672
51880W        W20285  37.605  40.009   4.068
51881W        W20286  42.621  28.760   1.350
51882W        W20287   8.266  14.154   3.780
51883W        W20288  13.865  40.582   1.868
51884W        W20289  33.891  27.506   2.792
51885W        W20290  25.539  19.151   4.141
51886W        W20291   6.446  25.988  14.967
51887W        W20292  39.432  27.208   0.170
51888W        W20293  15.651  11.300   5.047
51889W        W20294  43.419  11.733   4.367
51890W        W20295   8.119  27.473  10.488
51891W        W20296  36.788  18.070  13.872
51892W        W20297  28.175   8.028  13.051
51893W        W20298  33.163  28.586   3.085
51894W        W20299  22.301  37.790  14.667
51895W        W20300  37.372  22.445  12.600
51896W        W20301  37.317  44.060   0.431
51897W        W20302  40.846  17.022   0.444
51898W        W20303  26.443  35.416  14.880
51899W        W20304  25.012   4.435  10.504
51900W        W20305  34.503  25.225  13.527
51901W        W20306  17.831   6.539  10.198
51902W        W20307  44.608   9.195  13.673
51903W        W20308  24.727  20.707   0.018
51904W        W20309   0.288   1.865   1.171
51905W        W20310   6.672  30.968  14.454
51906W        W20311  11.996  15.849  13.249
51907W        W20312  43.417  26.095   0.445
51908W        W20313  15.385   2.471  10.256
51909W        W20314  13.653  29.599  12.118
51910W        W20315   9.266   6.162   4.206
51911W        W20316  16.550  26.103  11.423
51912W        W20317   8.466  37.410   4.547
51913W        W20318  20.124  30.563   0.948
51914W        W20319  13.720  17.854  12.618
51915W        W20320  23.097  37.496   0.810
51916W        W20321  29.729  30.580   1.879
51917W        W20322   1.870  20.743   0.282
51918W        W20323  12.343  35.923  13.582
51919W        W20324  40.925  37.053   0.426
51920W        W20325  20.972   4.666  11.085
51921W        W20326  43.762  36.909  14.834
51922W        W20327   7.440   1.926   4.141
51923W        W20328  40.891  17.526  11.979
51924W        W20329  39.926  27.549   4.746
51925W        W20330  41.628  23.951   1.227
51926W        W20331  32.092  32.528  14.729
51927W        W20332  40.812   4.451   3.654
51928W        W20333   3.977  28.562   2.222
51929W        W20334  26.045  36.509  14.962
51930W        W20335   8.040  26.441   1.841
51931W        W20336  16.813  11.049  11.124
51932W        W20337  40.770   1.694   0.378
51933W        W20338   3.296   2.502   4.633
51934W        W20339  26.360  22.143   0.597
51935W        W20340  31.221  24.156  13.717
51936W        W20341  12.916  18.469   3.320
51937W        W20342  22.700   4.888   2.216
51938W        W20343  14.177  22.950   3.248
51939W        W20344  40.066  15.151   1.859
51940W        W20345  12.837  13.049   0.442
51941W        W20346  33.895  35.962   4.847
51942W        W20347  10.170   8.927  14.504
51943W        W20348  13.345   3.961   1.316
51944W        W20349   3.575   4.777   0.931
51945W        W20350  31.136  17.148   5.055
51946W        W20351  39.495  23.031   3.698
51947W        W20352  36.085  32.563   0.224
51948W        W20353  11.611  20.823  11.566
51949W        W20354  17.089  14.315  11.073
51950W        W20355  43.458   5.630  12.202
51951W        W20356  15.268  35.506  10.355
51952W        W20357  24.790  44.831  13.965
51953W        W20358  22.498  38.990   1.481
51954W        W20359  27.085   6.819   4.274
51955W        W20360  26.187  19.688   3.123
51956W        W20361   8.712  34.383   0.527
51957W        W20362  34.535  11.330   0.998
51958W        W20363  20.473  26.970  13.941
51959W        W20364  22.012  22.495   3.255
51960W        W20365  43.793  12.291   1.116
51961W        W20366  37.489  33.390   0.386
51962W        W20367  37.529   0.934  10.547
51963W        W20368   1.348  15.406   4.116
51964W        W20369  29.385  26.614   4.071
51965W        W20370   7.684  17.336   1.016
51966W        W20371  24.220  27.052  11.894
51967W        W20372  18.760  25.274  14.239
51968W        W20373  12.931  31.346   4.096
51969W        W20374   8.361  33.035   0.834
51970W        W20375   4.786   5.343   4.705
51971W        W20376  25.114  43.331  12.845
51972W        W20377  13.654  17.034   4.334
51973W        W20378  39.182  33.622   1.197
51974W        W20379  20.169   3.890   2.841
51975W        W20380  18.488   1.738  10.807
51976W        W20381   6.677  12.720  13.930
51977W        W20382  10.182  24.050   2.751
51978W        W20383   3.850  42.898  12.843
51979W        W20384   4.829  18.302  14.691
51980W        W20385   8.647  28.102   4.083
51981W        W20386  16.098  41.489  13.560
51982W        W20387  43.680  42.522   2.612
51983W        W20388  10.643  30.870  13.388
51984W        W20389  16.564  14.714  13.480
51985W        W20390  11.436   3.806   4.178
51986W        W20391  34.843  39.596   0.911
51987W        W20392  32.107  20.055  11.956
51988W        W20393  22.844  41.218   4.901
51989W        W20394   4.793   1.200  12.837
51990W        W20395  34.721  32.919  13.052
51991W        W20396  27.032   3.980   0.374
51992W        W20397  12.887  43.770  14.697
51993W        W20398   6.384   9.058   0.300
51994W        W20399   5.968  28.597   3.325
51995W        W20400  20.658  23.093  11.227
51996W        W20401  22.697  22.097  14.329
51997W        W20402  20.296  29.037  11.317
51998W        W20403  33.720  21.641   2.203
51999W        W20404   3.724  20.765   3.536
52000W        W20405  20.475  12.757  12.155
52001W        W20406   0.506   9.253  14.972
52002W        W20407   5.315  42.219  12.891
52003W        W20408  26.115  26.531  12.858
52004W        W20409  37.367  29.985  11.998
52005W        W20410  32.436   2.844   3.625
52006W        W20411  11.864  16.570  10.524
52007W        W20412  27.924  10.380  14.448
52008W        W20413   7.745   2.385   1.378
52009W        W20414   9.388  43.180  12.985
52010W        W20415   0.870   7.685  13.682
52011W        W20416  20.239  14.705  12.374
52012W        W20417  15.555   8.474   4.749
52013W        W20418  29.653  34.053  11.112
52014W        W20419  24.413  43.425  14.026
52015W        W20420  15.926   0.215   5.156
52016W        W20421  42.951  33.532  11.994
52017W        W20422  30.992  34.611  12.031
52018W        W20423  14.853  43.540   2.759
52019W        W20424  25.695  17.161   2.669
52020W        W20425  30.863  33.202  14.426
52021W        W20426  14.332  19.560  13.638
52022W        W20427  39.768   1.299   3.352
52023W        W20428  17.610   4.833  14.878
52024W        W20429  30.472  14.287   1.881
52025W        W20430   4.193  13.689   0.263
52026W        W20431  19.072   4.756  11.984
52027W        W20432  42.469   8.826   4.546
52028W        W20433  10.836  28.184   3.575
52029W        W20434  34.563   9.914   1.049
52030W        W20435  20.409  43.100  11.358
52031W        W20436  31.399  27.895   0.495
52032W        W20437   4.093  20.468   0.835
52033W        W20438  18.245  24.542  14.612
52034W        W20439  19.819   3.029  13.980
52035W        W20440   7.292  43.824   4.601
52036W        W20441  16.435  12.355   3.186
52037W        W20442  13.338   9.384  13.984
52038W        W20443  39.265  13.140   2.984
52039W        W20444  16.077   8.401  11.508
52040W        W20445  34.091  29.119   0.749
52041W        W20446  21.630   4.724   0.923
52042W        W20447  27.062  23.256   3.205
52043W        W20448  36.355  17.606  13.909
52044W        W20449   9.350   6.389   0.260
52045W        W20450   7.606  15.314  14.550
52046W        W20451  31.373   3.135  11.312
52047W        W20452  26.686  31.515   3.890
52048W        W20453  34.376  23.585   1.899
52049W        W20454  34.125  31.856   2.716
52050W        W20455  21.525  21.237   1.948
52051W        W20456   6.980  24.932   4.182
52052W        W20457   0.146  35.334  14.025
52053W        W20458   0.037  39.702  14.979
52054W        W20459  20.440  16.499  14.861
52055W        W20460  38.168  25.209  14.232
52056W        W20461  39.542  17.579  11.099
52057W        W20462   3.252  22.746  12.938
52058W        W20463  39.337  32.772   2.971
52059W        W20464  38.939  29.105   4.574
52060W        W20465  11.254   2.962  10.978
52061W        W20466  40.851  15.160   2.649
52062W        W20467  20.456  43.031  13.110
52063W        W20468  29.357   9.388  11.215
52064W        W20469  19.927  17.160  14.212
52065W        W20470  44.796  36.585   1.683
52066W        W20471  13.184  13.168  14.929
52067W        W20472   5.171  13.558  10.669
52068W        W20473  32.633  23.161   3.355
52069W        W20474  30.091  29.011   0.416
52070W        W20475  16.483  29.581  14.812
52071W        W20476  31.744  17.662  12.017
52072W        W20477   7.724  11.765  12.444
52073W        W20478   8.354  32.582   3.647
52074W        W20479  23.718   0.634   1.237
52075W        W20480  30.228  24.677   2.402
52076W        W20481   4.793  22.668   1.648
52077W        W20482  29.540  18.050   2.911
52078W        W20483   1.459  18.031   1.113
52079W        W20484  42.260  14.049   2.435
52080W        W20485   2.614   5.582   5.523
52081W        W20486   8.654   7.752  12.860
52082W        W20487  43.756  11.614  12.788
52083W        W20488   7.061   9.966   1.465
52084W        W20489  27.089   0.574   4.210
52085W        W20490  39.406  20.443  11.252
52086W        W20491  22.170  20.419   2.833
52087W        W20492  20.661  31.375   2.862
52088W        W20493  23.197  32.049   0.795
52089W        W20494  10.970  44.292   1.320
52090W        W20495  44.302   1.129  13.754
52091W        W20496  44.846  32.082   3.608
52092W        W20497  44.987  21.451  13.702
52093W        W20498  30.193  38.856   4.132
52094W        W20499   8.208  28.572  11.993
52095W        W20500  25.958  44.406  12.470
52096W        W20501  32.439  29.937   3.571
52097W        W20502  32.077  14.525   0.080
52098W        W20503   9.517   4.466  11.520
52099W        W20504  11.349  18.556  14.372
52100W        W20505  28.944  19.105   1.342
52101W        W20506  13.377  27.521   3.803
52102W        W20507  28.927  26.643  12.994
52103W        W20508  41.323   0.048   3.412
52104W        W20509  19.319  16.663   2.394
52105W        W20510  22.208  21.182  11.860
52106W        W20511   4.325   1.217  11.835
52107W        W20512  11.173   0.566  12.350
52108W        W20513  21.672  30.441   3.342
52109W        W20514   6.898   7.364  11.524
52110W        W20515  15.099  24.963  10.195
52111W        W20516  32.111  18.002   3.062
52112W        W20517   4.765  38.346  11.875
52113W        W20518  38.514  44.291  10.642
52114W        W20519  10.271   5.516   3.685
52115W        W20520  32.603   7.803   0.437
52116W        W20521  23.923   2.721   3.191
52117W        W20522   6.214  28.743   9.827
52118W        W20523  20.599  29.182   1.442
52119W        W20524  40.128  25.247  14.812
52120W        W20525  32.480  12.310  11.591
52121W        W20526   2.851   1.403   4.195
52122W        W20527   4.925  24.185  10.663
52123W        W20528  14.045  16.163  11.148
52124W        W20529  26.591   9.973   0.466
52125W        W20530  24.590  43.634   2.419
52126W        W20531  22.438  35.390  11.130
52127W        W20532   0.415  26.637  13.511
52128W        W20533  39.851  28.657   2.825
52129W        W20534   1.048  13.831   1.892
52130W        W20535  44.445   6.162  13.127
52131W        W20536  19.834  37.363  14.059
52132W        W20537  21.878  29.600   2.286
52133W        W20538  24.931  44.466   3.794
52134W        W20539   3.913  42.765   3.275
52135W        W20540   1.911  20.567  12.795
52136W        W20541  24.020   9.826  12.228
52137W        W20542   4.270  42.098  11.459
52138W        W20543  28.343  17.563   0.575
52139W        W20544  23.161  30.511   1.193
52140W        W20545  44.009  20.716   2.360
52141W        W20546  28.612  36.033   0.316
52142W        W20547   3.781  34.965   2.290
52143W        W20548  28.356  36.132   3.812
52144W        W20549  24.152  17.217   4.143
52145W        W20550  25.171  22.566  14.117
52146W        W20551   5.732  24.003   2.616
52147W        W20552  38.887  32.689   3.179
52148W        W20553  12.477  42.311  14.727
52149W        W20554  22.727   9.155  13.125
52150W        W20555  36.520  39.028   2.285
52151W        W20556  12.704  26.209   4.194
52152W        W20557   4.626  17.603  13.386
52153W        W20558  10.230  22.254  14.809
52154W        W20559   9.665   2.239   2.677
52155W        W20560  35.078  21.996  11.885
52156W        W20561  12.822  10.484  13.410
52157W        W20562  41.305  16.928  11.177
52158W        W20563  42.081  19.304   3.631
52159W        W20564   3.774  35.685   3.358
52160W        W20565  39.782  28.992  14.945
52161W        W20566  44.318  28.814   3.417
52162W        W20567  42.496  39.307  11.774
52163W        W20568   4.062  42.365   2.172
52164W        W20569  34.836   4.686   3.195
52165W        W20570   7.679  21.043  12.019
52166W        W20571  21.666  27.528  12.554
52167W        W20572  38.107  31.438   3.679
52168W        W20573  32.038  27.357  13.370
52169W        W20574  42.044  39.018  14.340
52170W        W20575  29.119  21.062  11.648
52171W        W20576  15.308   1.965   2.697
52172W        W20577  15.573  18.096  14.963
52173W        W20578  28.358  18.536   0.088
52174W        W20579  29.038  44.033  14.859
52175W        W20580  31.957  22.459   0.362
52176W        W20581   5.954  15.738  13.343
52177W        W20582  34.547  22.250   4.690
52178W        W20583  29.482   0.127   4.469
52179W        W20584   6.209  41.139  11.033
52180W        W20585  36.123  35.111  14.458
52181W        W20586  11.015  38.003   4.450
52182W        W20587  18.706  34.458  14.481
52183W        W20588  41.781   2.273   3.548
52184W        W20589   2.733  23.974  14.788
52185W        W20590  41.522  32.953   3.836
52186W        W20591  44.500   4.869   3.682
52187W        W20592  44.035  38.327  13.747
52188W        W20593  18.449  41.252   1.285
52189W        W20594  32.156  18.798  13.972
52190W        W20595  35.109  14.008  14.887
52191W        W20596   5.100  31.429  11.754
52192W        W20597  32.421  22.724   3.121
52193W        W20598  37.180  41.478   4.900
52194W        W20599  10.261  44.678   2.480
52195W        W20600  17.051  28.650  14.576
52196W        W20601  11.749   4.105   2.210
52197W        W20602  26.709  41.985   3.889
52198W        W20603  24.609  39.910   3.384
52199W        W20604  38.579  10.648  12.583
52200W        W20605   5.361  17.679  13.011
52201W        W20606  30.593  44.053   4.598
52202W        W20607   8.113  11.010  11.920
52203W        W20608   3.517  10.435   3.241
52204W        W20609  15.786   4.932  11.038
52205W        W20610  30.760   3.868   0.389
52206W        W20611  38.683   2.007  11.489
52207W        W20612  11.424   9.574   3.913
52208W        W20613  16.701  30.181  12.545
52209W        W20614   4.001  42.847   2.362
52210W        W20615  20.199  24.936  10.700
52211W        W20616  27.442  24.683   4.853
52212W        W20617  19.866  44.430   0.309
52213W        W20618  24.961   3.318   0.598
52214W        W20619  29.461  32.612  10.491
52215W        W20620  25.409  42.866  10.588
52216W        W20621  10.418  24.096   1.275
52217W        W20622  29.563  20.851  13.661
52218W        W20623  20.492  32.327  10.628
52219W        W20624  22.956  16.570  13.212
52220W        W20625  36.017  44.445  12.438
52221W        W20626  20.488   0.027   3.629
52222W        W20627  14.148  24.525   1.348
52223W        W20628  32.602   1.385  11.189
52224W        W20629  24.639  16.612  14.572
52225W        W20630  15.279  22.786  14.930
52226W        W20631   5.257  22.913   0.737
52227W        W20632   6.174   5.186  14.402
52228W        W20633  29.759  21.961   3.217
52229W        W20634  27.172   5.486  11.521
52230W        W20635  16.739  19.989   0.322
52231W        W20636   4.420  27.183   3.125
52232W        W20637  29.785   2.418   3.864
52233W        W20638  11.112   7.880  13.964
52234W        W20639  43.014  18.327   0.897
52235W        W20640   6.266  10.700   1.678
52236W        W20641  13.441  31.215  13.350
52237W        W20642  21.754  17.081  14.061
52238W        W20643  24.743  25.052   3.904
52239W        W20644  23.715  27.162  10.736
52240W        W20645   2.877  38.290  13.341
52241W        W20646   2.398   0.255   4.499
52242W        W20647  25.623  12.129   1.503
52243W        W20648  33.048  37.525  11.623
52244W        W20649   7.362  44.519  13.444
52245W        W20650  43.575  35.472  10.615
52246W        W20651  22.423  26.510   1.900
52247W        W20652  23.958  26.171   0.916
52248W        W20653  43.022  35.621   0.824
52249W        W20654  22.040  30.419  12.740
52250W        W20655   0.943  26.038   3.026
52251W        W20656  26.670  40.570   3.133
52252W        W20657  14.359  33.342  12.976
52253W        W20658  33.939  12.578   2.713
52254W        W20659  13.821   7.665  14.430
52255W        W20660  38.992  37.894  14.026
52256W        W20661  18.992  37.300   1.148
52257W        W20662  16.223  31.505   1.028
52258W        W20663  44.968  31.617   4.516
52259W        W20664  38.326  10.638  14.024
52260W        W20665   3.894  16.557  13.012
52261W        W20666  17.236  38.330  13.472
52262W        W20667  24.755  29.320   9.817
52263W        W20668  18.652   7.158   4.460
52264W        W20669  19.169  36.911   1.739
52265W        W20670  23.187   6.250   1.325
52266W        W20671  32.953  22.084   1.435
52267W        W20672  19.078  21.267  12.405
52268W        W20673   9.260   2.233  14.861
52269W        W20674  33.063  24.554   4.898
52270W        W20675  24.256   9.190  13.901
52271W        W20676  30.886  30.251  13.066
52272W        W20677  29.445  21.795   0.789
52273W        W20678  21.142   7.375   9.858
52274W        W20679  43.054  28.496   1.387
52275W        W20680  44.651  16.943  12.456
52276W        W20681   4.239  33.973   3.698
52277W        W20682  16.846  24.170  11.714
52278W        W20683  37.136  26.706   0.697
52279W        W20684   4.540  14.690  14.417
52280W        W20685   9.854  37.967   3.437
52281W        W20686  35.887  42.504   3.225
52282W        W20687  36.907   4.032  13.559
52283W        W20688  43.070  16.312   0.226
52284W        W20689  12.727  14.944  12.636
52285W        W20690  10.234   2.442   1.842
52286W        W20691   0.822  19.005  14.375
52287W        W20692  40.860  42.379  13.497
52288W        W20693  43.909  38.687  13.361
52289W        W20694  35.027  43.288   4.089
52290W        W20695  20.987  37.899  14.335
52291W        W20696  25.593  29.199   4.010
52292W        W20697  37.381  29.078   4.562
52293W        W20698   0.494  13.320   1.896
52294W        W20699   4.073  14.515   0.810
52295W        W20700  12.687  34.986   4.308
52296W        W20701  27.163  38.400   1.388
52297W        W20702   0.233   5.327  10.259
52298W        W20703  24.080  13.366  14.266
52299W        W20704  43.725  31.446  14.843
52300W        W20705  17.564   1.360   1.450
52301W        W20706  29.202  35.397   3.261
52302W        W20707  23.757  14.376  12.054
52303W        W20708   9.867   5.646  11.538
52304W        W20709   3.416  12.773   4.365
52305W        W20710   1.004  12.705   0.668
52306W        W20711  34.158  17.329   1.699
52307W        W20712  41.038  40.023   3.861
52308W        W20713   3.201  39.635  14.307
52309W        W20714  39.385   1.772  12.530
52310W        W20715  18.550   6.450   2.816
52311W        W20716  23.079   1.441  11.504
52312W        W20717  35.590  13.051   1.363
52313W        W20718  30.989  26.454  12.389
52314W        W20719   3.189  28.048  13.078
52315W        W20720  22.095  30.881  11.519
52316W        W20721  36.192  23.733   3.119
52317W        W20722  18.324   9.597  12.016
52318W        W20723  42.024  22.488   0.337
52319W        W20724  16.245  41.391  14.897
52320W        W20725  10.854   4.109  11.157
52321W        W20726  33.427   8.301   4.344
52322W        W20727   9.981  32.944   0.867
52323W        W20728  13.268  10.800  14.945
52324W        W20729  34.189   8.589  11.202
52325W        W20730  21.611  16.619  12.651
52326W        W20731  17.120  42.557   3.238
52327W        W20732  35.433   8.293  12.383
52328W        W20733   6.725  29.949   4.411
52329W        W20734  33.979  30.140  14.134
52330W        W20735   7.572  18.624   1.686
52331W        W20736  30.391   9.676   1.515
52332W        W20737  39.960  28.925  13.122
52333W        W20738  38.050  37.357  14.598
52334W        W20739  12.025  44.413  10.377
52335W        W20740  18.430  11.406   5.363
52336W        W20741   5.854   0.457   3.724
52337W        W20742  14.581  23.398   4.563
52338W        W20743   3.030  40.972   3.754
52339W        W20744  17.773  22.078  13.958
52340W        W20745   9.725  42.277  13.917
52341W        W20746   0.238  15.716   0.736
52342W        W20747  30.885  24.114  14.112
52343W        W20748   8.661  43.539  10.768
52344W        W20749  14.277  15.377   4.600
52345W        W20750  21.351  20.182   3.357
52346W        W20751  36.954  25.627  11.175
52347W        W20752  20.167   7.370   1.777
52348W        W20753  42.306  39.773   1.309
52349W        W20754  44.898   0.833   4.906
52350W        W20755  14.119   8.367  10.500
52351W        W20756  33.099   0.517  13.104
52352W        W20757  40.017  36.375  13.426
52353W        W20758   1.831  15.545  14.990
52354W        W20759  41.872  32.357   2.311
52355W        W20760  16.084  14.115  13.946
52356W        W20761   9.725  13.365  13.375
52357W        W20762   3.299  18.780  11.710
52358W        W20763  14.284  22.950   1.347
52359W        W20764  41.005   4.388   3.181
52360W        W20765   5.098  11.535   4.544
52361W        W20766  25.954   5.021  11.594
52362W        W20767  24.447  23.617  13.438
52363W        W20768   2.570  10.316   5.056
52364W        W20769  25.320  17.459  13.106
52365W        W20770  23.003  42.742   3.098
52366W        W20771  14.911  38.088  14.801
52367W        W20772  44.779  39.645   2.619
52368W        W20773  30.771   3.456   3.378
52369W        W20774  16.341  33.492   3.111
52370W        W20775  32.710  34.563   3.499
52371W        W20776  19.312  25.532  13.014
52372W        W20777  26.221  16.941   4.092
52373W        W20778  13.875  20.775   0.409
52374W        W20779  37.022  36.036   4.884
52375W        W20780  30.644   9.606   1.037
52376W        W20781  37.626   5.401  13.633
52377W        W20782  26.163  19.763   4.038
52378W        W20783  31.041   8.865   3.768
52379W        W20784   6.746  19.497  11.189
52380W        W20785  14.925  11.117  11.130
52381W        W20786  29.874  11.781  13.770
52382W        W20787  12.702  27.122  13.988
52383W        W20788  11.777  26.975   1.441
52384W        W20789  18.374   1.956  13.936
52385W        W20790  28.571  43.794  14.945
52386W        W20791  12.553  11.116   1.473
52387W        W20792  26.183  16.826   0.566
52388W        W20793  28.483  44.875  14.008
52389W        W20794  43.958  35.587  14.743
52390W        W20795   6.735  39.018   0.288
52391W        W20796   7.749  20.378   2.533
52392W        W20797   3.272   3.913  13.074
52393W        W20798  24.243   7.340  13.091
52394W        W20799  21.921   5.394  12.864
52395W        W20800  11.189   0.690  14.268
52396W        W20801   6.090   7.208   1.423
52397W        W20802  10.265   7.864   2.123
52398W        W20803   6.198  25.974  12.125
52399W        W20804   0.596  41.299   3.261
52400W        W20805   7.422  20.151  14.948
52401W        W20806  15.910  40.333  12.998
52402W        W20807  14.069  42.608   4.121
52403W        W20808  26.670  44.421   1.352
52404W        W20809  31.417  23.600   3.737
52405W        W20810  22.313  38.647   3.334
52406W        W20811   4.128   5.906   9.830
52407W        W20812  39.796  13.018  14.707
52408W        W20813  26.223   6.243  13.370
52409W        W20814  12.737  12.290  13.015
52410W        W20815   8.407  41.902  11.696
52411W        W20816   8.784  37.576   1.451
52412W        W20817  38.927  24.687  10.744
52413W        W20818  32.883  31.329   0.707
52414W        W20819  29.744   7.340   5.259
52415W        W20820  43.926   6.437   0.407
52416W        W20821  19.274  39.324   1.336
52417W        W20822  14.217   9.008  14.374
52418W        W20823  27.968  19.014   5.047
52419W        W20824  26.777  36.809  13.422
52420W        W20825  12.789   3.971  10.962
52421W        W20826  23.537   7.789  12.483
52422W        W20827  16.612  16.793   2.835
52423W        W20828  32.927  38.044   4.327
52424W        W20829  42.665  12.966  11.140
52425W        W20830  14.617  22.837  11.145
52426W        W20831  42.272  44.795  14.370
52427W        W20832  44.786  32.624   2.773
52428W        W20833  34.632  23.719  10.755
52429W        W20834   7.135  21.003  13.396
52430W        W20835  16.038  34.317   0.341
52431W        W20836  33.816  35.556  14.346
52432W        W20837  17.567  13.539  12.419
52433W        W20838   5.027  32.312   4.506
52434W        W20839   1.313  13.323  14.819
52435W        W20840  42.070  22.539  14.000
52436W        W20841  24.818  40.996   0.329
52437W        W20842  18.396   9.521  14.543
52438W        W20843  29.905   6.961   0.775
52439W        W20844  15.858  43.733   2.784
52440W        W20845  24.128  40.016   4.668
52441W        W20846  32.845   0.718  10.569
52442W        W20847  33.899  31.395  13.429
52443W        W20848  28.218  22.317   5.014
52444W        W20849  36.091  25.260   2.645
52445W        W20850  36.057  43.028   3.694
52446W        W20851  37.855  15.788   3.439
52447W        W20852  24.431  20.696  13.006
52448W        W20853   6.697  31.552  11.134
52449W        W20854   7.246  12.161   0.551
52450W        W20855   8.388  14.697   4.622
52451W        W20856  27.223  39.871   1.355
52452W        W20857  13.274  38.673   9.871
52453W        W20858   5.674   7.549   3.606
52454W        W20859  42.617  36.501   2.166
52455W        W20860  43.380  22.092   4.341
52456W        W20861   0.046   4.380   0.379
52457W        W20862  30.711  40.589  13.861
52458W        W20863  20.987  17.560  13.479
52459W        W20864   1.410  37.443  12.524
52460W        W20865  25.042  43.495   0.763
52461W        W20866  41.504  20.342  11.969
52462W        W20867  19.338  17.307   0.865
52463W        W20868  26.678   3.432  13.918
52464W        W20869  32.059  25.620   3.175
52465W        W20870  25.566  19.158   1.515
52466W        W20871  43.166  30.849  12.008
52467W        W20872   4.350   8.187   0.478
52468W        W20873  26.591  10.793   4.171
52469W        W20874  13.315  16.467   1.375
52470W        W20875  21.203   4.812  14.441
52471W        W20876  11.043  33.416  13.982
52472W        W20877   1.818  22.505   0.288
52473W        W20878  38.440  36.611  14.281
52474W        W20879  30.308  15.805  10.554
52475W        W20880  14.595  34.290  13.491
52476W        W20881  24.333  33.669  11.162
52477W        W20882   0.778   6.125  14.748
52478W        W20883   8.767  25.472  11.634
52479W        W20884  38.002  26.646  13.754
52480W        W20885  37.863  33.800  12.526
52481W        W20886  29.537  40.255   2.216
52482W        W20887  32.550  24.885  13.385
52483W        W20888   7.431   8.241   4.536
52484W        W20889  41.744  11.846   3.212
52485W        W20890  37.271  19.759   1.825
52486W        W20891  34.178  11.705   0.502
52487W        W20892  27.638   9.122   2.297
52488W        W20893  34.644  20.765   0.346
52489W        W20894  34.246  40.489   2.808
52490W        W20895  24.557  13.119   2.837
52491W        W20896  14.079  36.801  11.927
52492W        W20897  28.081  14.113  10.426
52493W        W20898  34.197  14.148  10.752
52494W        W20899  22.781  42.747  14.359
52495W        W20900  19.858  20.780   1.699
52496W        W20901  22.451  32.174   3.196
52497W        W20902   5.994  22.038  12.586
52498W        W20903  15.126  12.885  11.267
52499W        W20904   6.123   7.302  13.442
52500W        W20905   5.882  40.066   0.020
52501W        W20906  44.153   5.962  11.251
52502W        W20907   0.991  13.662  11.167
52503W        W20908   5.177   8.434  13.740
52504W        W20909  18.455  40.392  11.110
52505W        W20910   8.455  15.155   4.952
52506W        W20911   1.752  26.718   0.041
52507W        W20912   9.550  40.375  10.511
52508W        W20913  25.807  13.764  12.558
52509W        W20914  18.184  18.215  14.352
52510W        W20915   8.424  16.367   3.990
52511W        W20916   4.850  13.192  12.818
52512W        W20917  35.349  20.623  14.451
52513W        W20918  22.752  34.154   0.763
52514W        W20919  12.148  20.261  11.687
52515W        W20920   2.748  16.877   3.270
52516W        W20921  27.185  41.028  14.855
52517W        W20922  25.691  22.319   1.302
52518W        W20923  26.564  26.383  13.075
52519W        W20924  39.881  23.172  13.884
52520W        W20925  23.216  31.514   3.169
52521W        W20926  28.393  31.737  11.030
52522W        W20927  10.780  16.729  10.989
52523W        W20928   9.238  27.876  12.345
52524W        W20929  21.659   3.172   0.790
52525W        W20930  27.773  39.083   2.935
52526W        W20931   0.976  42.807   5.161
52527W        W20932  14.355  23.258  13.620
52528W        W20933  44.368  15.118   0.779
52529W        W20934   2.846  29.502   3.260
52530W        W20935  15.318   0.755  14.217
52531W        W20936   0.329  10.758   3.098
52532W        W20937  17.858   1.866   4.600
52533W        W20938  11.920  38.917   5.211
52534W        W20939  28.625  19.175   2.698
52535W        W20940  42.322  18.733   1.324
52536W        W20941  44.525  23.846   1.291
52537W        W20942  34.350  25.098  11.992
52538W        W20943   7.825  35.279   1.143
52539W        W20944   5.390  22.714  10.529
52540W        W20945  32.493  18.401  14.090
52541W        W20946  26.141  35.954   2.225
52542W        W20947  17.636   9.680  14.891
52543W        W20948  22.856   8.754  11.912
52544W        W20949   0.970  17.551   1.412
52545W        W20950  13.678  39.918  13.246
52546W        W20951   0.825  21.295  11.635
52547W        W20952   8.143  23.541   1.372
52548W        W20953  26.410  19.121  10.842
52549W        W20954  33.575  20.680   4.378
52550W        W20955  17.767   4.221   2.857
52551W        W20956  12.715  18.897   4.295
52552W        W20957  38.987  38.647   0.286
52553W        W20958  30.844  39.189   1.786
52554W        W20959   2.908  23.439   3.068
52555W        W20960  43.338   3.421  13.077
52556W        W20961  33.147  20.604  14.766
52557W        W20962  32.173  29.996  11.403
52558W        W20963  40.432   5.775   3.354
52559W        W20964  42.741  24.958  12.995
52560W        W20965  26.972   8.597  14.036
52561W        W20966  29.033  21.025  14.783
52562W        W20967   0.233  30.109   1.196
52563W        W20968  20.215  43.029   4.140
52564W        W20969  43.312  14.162  13.037
52565W        W20970  39.828  15.302   3.598
52566W        W20971  36.621  13.917  11.228
52567W        W20972  19.563  20.704   3.592
52568W        W20973  17.280  33.264  12.177
52569W        W20974   1.163   7.444  12.874
52570W        W20975   3.969  42.337  10.646
52571W        W20976  28.052   1.866   0.535
52572W        W20977  15.578   7.223  12.356
52573W        W20978   1.714  21.179  13.530
52574W        W20979  37.067  17.772   2.600
52575W        W20980   4.486   8.811   1.243
52576W        W20981  44.216  31.336   1.931
52577W        W20982  15.552  33.642   4.597
52578W        W20983  16.226   3.920  13.220
52579W        W20984  40.206   5.922   2.894
52580W        W20985  13.851   8.512  12.386
52581W        W20986  29.140   2.798   2.779
52582W        W20987   6.996  38.677   3.204
52583W        W20988  44.405   2.403  12.893
52584W        W20989   4.056  40.261  14.864
52585W        W20990  36.131  12.803   0.720
52586W        W20991   3.922   3.779   4.739
52587W        W20992  15.284  34.560   0.862
52588W        W20993  38.099  36.175   0.033
52589W        W20994   1.805   3.412   0.137
52590W        W20995  39.460   4.382  14.613
52591W        W20996   4.717  15.403  10.951
52592W        W20997  33.918   9.192   1.762
52593W        W20998  28.668   6.635   3.767
52594W        W20999  21.805  35.538  13.901
52595W        W21000   2.801  35.845  11.321
52596W        W21001  39.862  33.433   4.774
52597W        W21002  24.108   0.526   0.915
52598W        W21003   9.257  40.583   3.318
52599W        W21004   0.692  31.037   4.614
52600W        W21005  30.378  37.898   0.723
52601W        W21006  41.964  31.516  14.555
52602W        W21007  26.412  21.026  14.665
52603W        W21008   3.488  12.262   3.136
52604W        W21009  13.743  28.575  12.094
52605W        W21010  37.524   6.050   2.743
52606W        W21011  15.722  24.986   0.199
52607W        W21012  21.143  19.000   2.158
52608W        W21013  40.425   5.681   4.327
52609W        W21014   5.144  24.664  10.738
52610W        W21015  24.655  37.623   1.507
52611W        W21016  29.083  17.206   0.820
52612W        W21017   2.645  12.842   3.761
52613W        W21018  40.760  23.920  10.998
52614W        W21019  42.098   4.888   3.185
52615W        W21020  17.618  26.648   2.678
52616W        W21021  36.550  37.639   5.057
52617W        W21022  12.841  21.083  14.674
52618W        W21023  18.254  22.116  11.976
52619W        W21024  20.742   2.265   2.117
52620W        W21025  31.489  27.505   2.646
52621W        W21026  28.064  23.110  10.777
52622W        W21027   2.004  24.464   3.038
52623W        W21028  28.629  27.087   2.288
52624W        W21029  21.268  20.662   3.192
52625W        W21030  11.030  17.390  10.266
52626W        W21031  41.935  12.445  12.140
52627W        W21032  26.011  41.568   0.294
52628W        W21033  17.086  42.864  11.939
52629W        W21034  42.155  12.377  11.537
52630W        W21035  11.044  25.535   4.039
52631W        W21036  26.159   0.393   3.717
52632W        W21037   4.496  22.075   1.834
52633W        W21038  42.615  35.349   1.719
52634W        W21039  18.470  18.701  11.049
52635W        W21040  40.894  11.584   0.084
52636W        W21041   0.036  39.980  12.842
52637W        W21042   1.893   7.689  12.085
52638W        W21043  43.402  35.458  13.834
52639W        W21044  43.634  40.257  10.714
52640W        W21045  18.191  44.297  11.260
52641W        W21046  12.688  33.033   1.258
52642W        W21047  28.830  25.492   1.028
52643W        W21048  29.084  42.736   4.640
52644W        W21049  15.555  14.178  12.624
52645W        W21050  39.300  37.385   2.270
52646W        W21051   6.027  11.177   1.539
52647W        W21052  38.972  17.843  13.387
52648W        W21053  39.603  14.183  13.901
52649W        W21054  15.231  19.456   2.660
52650W        W21055   4.420  15.825  14.823
52651W        W21056  20.601  39.292   1.082
52652W        W21057   9.668   4.327   3.406
52653W        W21058   0.530   1.926   0.711
52654W        W21059  43.206  33.364   2.662
52655W        W21060  44.154  42.599   3.242
52656W        W21061   1.846  22.060   4.497
52657W        W21062  25.490   5.158   2.224
52658W        W21063  35.782  40.056  13.605
52659W        W21064  44.988  31.061  12.471
52660W        W21065   1.847  27.514   2.210
52661W        W21066   6.350  10.121   4.067
52662W        W21067   1.252  12.428   2.891
52663W        W21068  44.505  24.788   1.894
52664W        W21069  23.707  37.308   1.338
52665W        W21070  12.102   5.121   4.980
52666W        W21071  19.958  21.512   1.084
52667W        W21072   4.075  23.189  14.789
52668W        W21073   1.691  33.442   0.836
52669W        W21074  28.790  10.072   1.838
52670W        W21075  24.854  39.023  10.725
52671W        W21076  34.756   4.067  11.503
52672W        W21077  29.013  43.684   1.330
52673W        W21078  34.044  43.454  10.505
52674W        W21079  34.487  18.463   3.295
52675W        W21080  11.773   2.677   0.568
52676W        W21081  37.592   5.406  14.165
52677W        W21082  22.516  40.207   1.912
52678W        W21083  19.809  25.743   0.809
52679W        W21084  28.438  40.692   1.899
52680W        W21085  16.599  41.315   3.157
52681W        W21086  21.201   0.349  12.295
52682W        W21087  37.523   0.973  12.058
52683W        W21088   5.275   2.264  11.399
52684W        W21089  42.282  21.232  14.829
52685W        W21090  25.073  13.198   1.637
52686W        W21091  39.780  29.763   4.168
52687W        W21092   7.722  34.317  14.800
52688W        W21093  35.534   1.749  13.415
52689W        W21094  15.607  11.131   0.512
52690W        W21095  25.700  16.291  10.384
52691W        W21096  26.648  20.610  10.455
52692W        W21097  24.600  10.217  12.618
52693W        W21098  17.154  38.928   1.705
52694W        W21099  30.566  20.315   3.640
52695W        W21100  38.012  20.151   0.275
52696W        W21101  11.607   7.723  13.896
52697W        W21102  30.138  13.185   3.378
52698W        W21103  10.697  42.267  11.566
52699W        W21104  23.679  33.100   1.961
52700W        W21105  31.449  16.724   2.777
52701W        W21106  21.221  30.770  11.086
52702W        W21107   2.570  41.780   4.193
52703W        W21108  44.756  43.947  10.802
52704W        W21109  40.573  12.266  13.884
52705W        W21110  40.107  16.164   2.128
52706W        W21111   7.389  23.553  12.220
52707W        W21112  37.126   4.906   4.070
52708W        W21113  18.462  33.622  14.360
52709W        W21114  35.903  19.358   2.127
52710W        W21115  38.905  18.366  12.101
52711W        W21116  33.912  41.233  12.844
52712W        W21117   0.246  23.008   2.179
52713W        W21118   6.178  39.360  10.730
52714W        W21119  41.103  15.243   5.012
52715W        W21120   7.565   6.840   3.456
52716W        W21121  33.467  13.792  10.952
52717W        W21122  24.481  13.175  14.012
52718W        W21123  39.538  23.528  10.831
52719W        W21124  10.145  29.069  12.420
52720W        W21125  30.478  25.335   1.280
52721W        W21126  21.691  20.489  13.491
52722W        W21127  27.919  35.398  11.534
52723W        W21128  40.439  12.004  10.666
52724W        W21129  42.316   8.324  12.410
52725W        W21130  28.070  37.947  10.717
52726W        W21131  26.891   2.125   2.045
52727W        W21132  19.811  31.237   0.223
52728W        W21133  14.289  13.220   0.382
52729W        W21134  41.822  13.429  13.179
52730W        W21135  41.802  18.841   1.903
52731W        W21136  23.237  42.963   1.787
52732W        W21137  21.054   8.708  14.200
52733W        W21138   6.839  30.672   4.951
52734W        W21139  23.732  44.961   4.501
52735W        W21140  23.909  15.700  11.629
52736W        W21141  33.023   4.863  14.287
52737W        W21142  32.207  44.445  11.433
52738W        W21143   9.763  37.144  13.434
52739W        W21144   5.886  29.870   5.071
52740W        W21145  39.283   4.942   4.424
52741W        W21146   2.246  39.733  14.776
52742W        W21147  34.979   8.769  11.624
52743W        W21148  44.381   3.226   2.227
52744W        W21149  15.748  22.701   4.601
52745W        W21150   4.424   2.555   3.195
52746W        W21151  27.202   7.380  14.615
52747W        W21152  18.748  35.338   2.274
52748W        W21153  26.002   0.838  12.526
52749W        W21154   3.498  41.939   2.872
52750W        W21155  29.405  40.165  12.723
52751W        W21156  21.746  27.228  12.104
52752W        W21157   0.512   7.663  14.136
52753W        W21158  22.008  35.723   1.291
52754W        W21159  26.376  14.767  14.462
52755W        W21160  23.456  34.997   0.336
52756W        W21161  44.544  35.504  13.289
52757W        W21162  16.601   1.876  10.350
52758W        W21163   2.455   4.323   3.590
52759W        W21164   2.324  23.631   3.808
52760W        W21165  14.064  28.176  13.853
52761W        W21166  29.472  37.341   3.233
52762W        W21167  34.090  22.593  10.394
52763W        W21168  12.134  40.766   0.762
52764W        W21169   8.852  14.113   1.327
52765W        W21170   1.695  41.483   2.114
52766W        W21171  20.738  41.882   1.509
52767W        W21172  26.916  24.674   4.849
52768W        W21173  33.862  27.985  11.929
52769W        W21174   7.768  20.354  14.612
52770W        W21175  38.437  26.097  14.365
52771W        W21176  44.692  10.586  13.943
52772W        W21177  12.296   8.182   0.611
52773W        W21178  43.928   8.109   3.232
52774W        W21179  42.475   8.578   3.371
52775W        W21180   1.422   1.494   4.589
52776W        W21181  33.561  30.937  14.331
52777W        W21182   1.488   3.293  11.104
52778W        W21183  21.642   5.601   1.907
52779W        W21184  21.749   2.473  13.291
52780W        W21185  41.294  20.574  10.680
52781W        W21186  15.341  39.336   1.883
52782W        W21187  20.632  36.534   0.841
52783W        W21188  12.601  29.624  10.701
52784W        W21189  13.293  33.197   0.943
52785W        W21190  16.560  27.792  12.493
52786W        W21191  11.263  34.494  13.371
52787W        W21192  19.664  35.121   0.242
52788W        W21193  33.636  30.134   1.358
52789W        W21194  37.807  43.327  14.325
52790W        W21195  40.603  20.241  11.503
52791W        W21196  19.433  32.456   4.034
52792W        W21197  24.784  44.591  12.117
52793W        W21198   1.911   8.413   0.340
52794W        W21199  42.515  28.627  11.568
52795W        W21200   4.177  17.854  13.376
52796W        W21201  38.748  34.231   3.359
52797W        W21202   3.688  14.838   3.537
52798W        W21203  32.125  30.258   3.837
52799W        W21204   4.218  41.378   2.783
52800W        W21205  44.056  25.531   1.899
52801W        W21206  31.992  34.717  14.294
52802W        W21207   2.356  40.105   3.361
52803W        W21208  35.005  24.582  10.774
52804W        W21209   9.307  35.015   4.186
52805W        W21210  32.990  29.798   1.730
52806W        W21211  43.870  26.591  11.250
52807W        W21212   8.526  44.337   4.314
52808W        W21213  14.212  14.151   3.224
52809W        W21214  23.733  30.699   0.519
52810W        W21215   9.912  41.253  14.567
52811W        W21216  36.496  22.287   0.760
52812W        W21217  24.978   5.481   0.484
52813W        W21218  44.012   3.343   2.777
52814W        W21219  26.700  42.835  11.021
52815W        W21220  19.758  25.936   2.756
52816W        W21221   3.493   5.764  13.625
52817W        W21222  35.176  10.304   4.165
52818W        W21223  42.593  14.222   4.379
52819W        W21224  11.218  36.854  11.096
52820W        W21225   6.081  34.547  12.598
52821W        W21226  12.374  14.701   0.424
52822W        W21227  10.056  12.389   1.237
52823W        W21228  23.245  41.461  12.859
52824W        W21229  34.960  16.460  14.427
52825W        W21230   0.389  16.322   2.447
52826W        W21231  25.065  21.205  11.128
52827W        W21232  35.465   7.521   0.839
52828W        W21233  36.360  11.993  10.263
52829W        W21234  10.016   1.786  10.029
52830W        W21235  27.413  14.125   3.725
52831W        W21236   9.382  44.292   2.916
52832W        W21237  30.126  44.315  12.625
52833W        W21238  33.712  36.217   3.478
52834W        W21239  36.045   6.088  10.352
52835W        W21240  32.572  38.000  14.783
52836W        W21241  38.450  17.154  12.333
52837W        W21242   5.814  22.988   2.269
52838W        W21243  41.276  34.672  14.431
52839W        W21244   5.171  39.270   4.134
52840W        W21245  15.160  37.333  14.494
52841W        W21246  31.668  17.517   2.397
52842W        W21247   9.919  27.555   3.026
52843W        W21248  28.992  11.393   3.283
52844W        W21249  38.069   5.227   4.956
52845W        W21250  35.221   2.172  14.203
52846W        W21251   9.558  15.204  14.513
52847W        W21252   9.813  26.529  10.473
52848W        W21253  36.900  29.901   2.691
52849W        W21254   0.395  34.657  11.633
52850W        W21255  37.015  42.981  14.552
52851W        W21256   0.192   2.490   1.800
52852W        W21257  35.071  41.995   0.762
52853W        W21258   7.202  32.128  12.602
52854W        W21259  27.883   4.069  12.758
52855W        W21260  43.775  22.160   1.667
52856W        W21261  11.340   4.974   0.311
52857W        W21262  38.520  33.635   0.834
52858W        W21263  23.504  33.727  12.975
52859W        W21264  28.693   9.747   0.747
52860W        W21265  14.821  17.837  13.853
52861W        W21266  10.760   1.229  13.861
52862W        W21267  30.157   3.211   4.467
52863W        W21268   1.135  28.589  14.040
52864W        W21269   2.366  30.171   2.289
52865W        W21270  14.181  29.808  13.319
52866W        W21271  18.058  30.849  13.398
52867W        W21272   0.050   1.995  14.772
52868W        W21273  17.103  16.808  13.762
52869W        W21274   8.427  43.231  12.129
52870W        W21275  15.875  30.986   2.836
52871W        W21276   9.595  35.803   2.777
52872W        W21277  39.959   5.556   3.256
52873W        W21278  38.399  20.719  12.943
52874W        W21279  20.158  24.224   4.391
52875W        W21280   6.154   1.349  12.579
52876W        W21281  18.662  13.229  14.020
52877W        W21282  35.390  31.165  14.888
52878W        W21283   9.296  28.628   4.097
52879W        W21284  44.411   7.029  10.350
52880W        W21285  29.882  38.849  12.471
52881W        W21286  15.355   5.819  12.855
52882W        W21287  30.793  44.895   3.545
52883W        W21288  36.188  39.011  14.763
52884W        W21289  35.340  30.630   4.513
52885W        W21290  42.504  21.531  11.598
52886W        W21291  32.933   6.296  13.096
52887W        W21292  34.204  30.453  13.325
52888W        W21293  21.290  36.033  13.086
52889W        W21294  12.282  28.130  10.274
52890W        W21295  32.703  44.299  11.548
52891W        W21296  26.475  25.858  13.088
52892W        W21297  26.092   1.524  11.111
52893W        W21298  23.549  44.368   1.965
52894W        W21299  31.731  13.659  11.270
52895W        W21300   7.460  13.193  11.195
52896W        W21301  23.219  26.522   1.370
52897W        W21302  13.093   7.678   4.097
52898W        W21303  30.848  14.549   3.333
52899W        W21304  38.872   0.272  11.116
52900W        W21305  39.559  12.315  10.548
52901W        W21306  18.514  25.603   4.534
52902W        W21307   3.577  24.555   1.097
52903W        W21308  13.723  23.947  13.926
52904W        W21309  34.329  18.127   0.421
52905W        W21310  16.067  33.347  12.923
52906W        W21311   8.793  16.430   3.610
52907W        W21312  40.378   5.761  11.439
52908W        W21313  29.700  12.490   0.882
52909W        W21314  14.735   8.356   0.934
52910W        W21315  30.549  39.994   1.944
52911W        W21316  22.727  27.979   1.315
52912W        W21317  12.828  36.459  14.373
52913W        W21318   4.752  41.886  14.550
52914W        W21319  40.053   0.356   1.257
52915W        W21320  41.070  13.555  14.377
52916W        W21321  22.723   8.880  14.473
52917W        W21322  36.495  11.842  13.407
52918W        W21323   1.286  43.926  14.451
52919W        W21324  23.066  35.871   2.180
52920W        W21325  39.724  19.427   4.348
52921W        W21326  15.532  20.554   4.187
52922W        W21327  19.251  10.514   4.640
52923W        W21328   3.712  17.385  14.870
52924W        W21329   3.400  21.076  10.678
52925W        W21330  14.812   6.874   0.930
52926W        W21331   6.946  35.281  14.376
52927W        W21332   3.797  18.000  11.248
52928W        W21333  17.381  29.696  13.610
52929W        W21334  16.546  19.169   4.286
52930W        W21335  34.974  18.797   4.009
52931W        W21336  25.234   0.791   1.351
52932W        W21337  39.401  42.895   0.245
52933W        W21338  43.449  34.443   0.009
52934W        W21339  25.754   0.417  11.646
52935W        W21340  38.322   8.876   3.769
52936W        W21341  10.362   5.462   2.844
52937W        W21342  22.536  39.303  10.691
52938W        W21343  30.194  29.523   1.847
52939W        W21344  25.196   9.878   0.461
52940W        W21345  27.721  36.284   0.212
52941W        W21346  39.392  12.620  13.343
52942W        W21347  27.989   1.626  12.880
52943W        W21348  27.589  21.976  13.848
52944W        W21349  31.279  27.278  10.778
52945W        W21350   5.647  18.719   4.576
52946W        W21351  12.678  29.907  14.988
52947W        W21352  24.930  26.079   2.087
52948W        W21353   1.060   6.767   4.212
52949W        W21354  31.835  38.310  11.325
52950W        W21355  33.141  40.036   2.179
52951W        W21356  26.370  24.116  13.904
52952W        W21357   0.398   4.792  12.469
52953W        W21358  18.873  28.468   2.362
52954W        W21359  33.135  25.930   1.555
52955W        W21360  22.463  35.315   2.741
52956W        W21361  42.326  23.145  13.402
52957W        W21362   2.795   8.594  13.298
52958W        W21363  12.866  16.147  13.016
52959W        W21364  21.021  25.018  10.283
52960W        W21365  34.985  32.410  13.358
52961W        W21366  32.533  13.433   2.374
52962W        W21367  13.978  10.230  11.059
52963W        W21368   7.298  21.848   4.657
52964W        W21369  18.770  21.266   3.186
52965W        W21370  34.505  44.749   2.810
52966W        W21371  42.488  16.398  11.150
52967W        W21372  40.516  40.951  13.598
52968W        W21373  39.979  43.465   3.658
52969W        W21374  31.120  44.508  13.905
52970W        W21375  20.149  18.092   4.049
52971W        W21376  11.115  23.612   0.416
52972W        W21377  34.440   7.843  13.894
52973W        W21378  30.606  42.624   4.216
52974W        W21379  26.100   5.113  11.078
52975W        W21380  39.995  44.013   4.580
52976W        W21381   3.372  40.877   0.295
52977W        W21382  14.163  44.422  13.450
52978W        W21383  39.130   8.436  11.044
52979W        W21384  33.813  33.638  14.013
52980W        W21385  37.160  26.129   1.423
52981W        W21386  28.215  40.314   0.459
52982W        W21387  30.975  19.078  12.277
52983W        W21388  20.777  13.662  14.462
52984W        W21389  18.077  39.103  12.462
52985W        W21390  20.812   3.902  13.101
52986W        W21391   9.748  43.471   2.840
52987W        W21392  13.981  40.258  11.353
52988W        W21393  44.266  13.432  13.445
52989W        W21394   4.989  29.247  12.519
52990W        W21395  40.535  23.156   3.848
52991W        W21396  26.617  39.747   3.708
52992W        W21397  38.857  21.263   2.806
52993W        W21398  13.372  21.978   3.083
52994W        W21399  43.908  29.001   1.817
52995W        W21400  15.465   1.834   2.203
52996W        W21401   3.630  25.540  12.448
52997W        W21402  30.685  19.571  13.955
52998W        W21403  44.417  35.922  13.536
52999W        W21404   7.807   1.581   2.801
53000W        W21405  28.591   9.892   3.085
53001W        W21406  19.155  42.528   1.802
53002W        W21407  15.153   6.850  13.941
53003W        W21408  43.890  29.730  14.758
53004W        W21409   8.895   9.652   4.615
53005W        W21410   2.202  28.185  12.856
53006W        W21411  21.373  15.169   3.591
53007W        W21412  40.417  31.994  11.170
53008W        W21413  19.240  29.660  13.355
53009W        W21414  18.653  44.308   3.101
53010W        W21415  10.375  22.211   1.192
53011W        W21416  30.659   8.575  13.523
53012W        W21417  22.122  27.183   4.189
53013W        W21418  15.181  28.069  12.385
53014W        W21419  15.968  14.210   4.079
53015W        W21420  20.021  39.745  11.584
53016W        W21421  15.608  36.811   3.654
53017W        W21422  14.628  30.676  11.596
53018W        W21423  27.719   4.799  13.062
53019W        W21424   1.870  20.127  12.537
53020W        W21425  14.833  41.180   0.756
53021W        W21426   1.731  32.455   3.734
53022W        W21427  31.378  41.486   2.258
53023W        W21428  43.072  21.956  11.278
53024W        W21429   1.817  10.833   2.186
53025W        W21430   4.385  19.176   4.458
53026W        W21431   5.662  34.105   0.274
53027W        W21432  41.899  34.521   3.447
53028W        W21433  29.622   8.964  14.241
53029W        W21434  17.233  22.241   2.258
53030W        W21435   5.245  26.741  11.189
53031W        W21436  42.456  15.618  10.741
53032W        W21437  31.220  21.701   1.388
53033W        W21438  44.931  20.760  11.489
53034W        W21439  32.432  13.857   1.748
53035W        W21440  43.500  36.913   0.283
53036W        W21441  13.567  15.637   1.609
53037W        W21442  32.320  42.909   3.735
53038W        W21443  30.200   4.488  11.171
53039W        W21444  18.220  14.569  13.038
53040W        W21445   3.358   3.028   0.421
53041W        W21446  15.317  11.790   1.957
53042W        W21447   4.101  20.681  11.053
53043W        W21448   5.976  34.096  12.836
53044W        W21449  37.975  11.763  11.778
53045W        W21450  37.610  43.393   1.474
53046W        W21451   8.565  26.720  11.180
53047W        W21452  16.280   6.898  12.358
53048W        W21453  11.749  27.088   2.894
53049W        W21454  38.301   3.800   2.866
53050W        W21455  31.747  21.051  12.094
53051W        W21456   9.838  35.757  12.966
53052W        W21457   5.140  27.065   4.712
53053W        W21458  30.510  21.920  13.918
53054W        W21459  39.587  27.866   4.493
53055W        W21460  30.930  17.571  11.466
53056W        W21461  37.600   7.217  12.991
53057W        W21462   4.748  22.398  13.548
53058W        W21463   3.751  12.430   1.433
53059W        W21464  25.305   6.234   1.417
53060W        W21465  20.513  17.494   4.088
53061W        W21466  10.258   7.272   3.338
53062W        W21467  28.409  27.089  14.998
53063W        W21468  23.518  32.378   4.542
53064W        W21469  22.719  39.076   4.892
53065W        W21470  13.807  40.366   0.122
53066W        W21471  41.243  12.177  11.451
53067W        W21472   7.818   7.836   1.327
53068W        W21473   8.824  32.836   1.738
53069W        W21474  23.709   3.231  11.075
53070W        W21475  44.057   6.886   1.956
53071W        W21476  37.479  21.984  11.129
53072W        W21477  19.900  36.946   0.018
53073W        W21478  11.650   0.781  12.366
53074W        W21479  29.874  38.793   3.261
53075W        W21480  30.864  35.629  13.411
53076W        W21481   2.517  12.602   0.509
53077W        W21482  30.614   2.946  10.651
53078W        W21483  40.473  24.971   1.439
53079W        W21484  19.782  15.065   0.731
53080W        W21485  28.883  26.800   0.908
53081W        W21486  28.319  34.591   3.105
53082W        W21487   9.659   7.803   4.793
53083W        W21488  31.991  15.712   3.661
53084W        W21489  39.923  39.932  12.534
53085W        W21490  38.163  17.281  11.881
53086W        W21491  43.682   8.889   3.523
53087W        W21492  43.561  19.240  10.970
53088W        W21493   2.426  32.088   2.338
53089W        W21494  44.812  17.326  12.987
53090W        W21495  13.834  18.039  14.547
53091W        W21496  21.239  41.336   3.180
53092W        W21497   7.827  32.554   3.068
53093W        W21498  21.282  29.492  14.480
53094W        W21499  39.959  43.454  13.449
53095W        W21500   7.902  19.740  14.022
53096W        W21501  41.466  17.718   3.510
53097W        W21502  36.922  40.416  12.902
53098W        W21503  44.847  14.605  14.018
53099W        W21504  10.738   3.394   5.122
53100W        W21505  44.455  34.101  14.832
53101W        W21506  27.884   2.701   4.673
53102W        W21507  26.216  32.148   2.401
53103W        W21508  28.398  23.713  11.559
53104W        W21509  34.968  25.829  12.001
53105W        W21510  34.800  12.060   4.060
53106W        W21511   4.176  25.523  11.651
53107W        W21512  39.613  41.863   3.100
53108W        W21513   8.205  25.758  11.559
53109W        W21514  43.356  41.901   4.572
53110W        W21515   3.349  12.393   0.816
53111W        W21516  41.542   8.697  14.882
53112W        W21517   3.278  18.612  11.225
53113W        W21518  16.624   5.237   1.734
53114W        W21519  15.141  30.622   4.300
53115W        W21520  44.149   4.226  11.615
53116W        W21521  35.538  40.427   1.253
53117W        W21522  30.591  36.330   3.856
53118W        W21523  40.917  42.565  14.747
53119W        W21524  39.381  44.547   0.878
53120W        W21525  29.121  11.949  13.013
53121W        W21526  44.497  36.060   1.247
53122W        W21527  32.610  10.383   3.242
53123W        W21528  30.880  30.810   5.071
53124W        W21529  37.299  22.237  13.062
53125W        W21530  25.052  34.827   0.482
53126W        W21531  37.867  30.979   2.163
53127W        W21532  28.598  15.365  11.568
53128W        W21533  31.964  42.573  12.546
53129W        W21534  40.197  19.236  13.299
53130W        W21535   4.750  18.522   0.226
53131W        W21536  14.761  31.509   3.233
53132W        W21537  24.933   8.659  14.977
53133W        W21538  12.185  35.171  12.401
53134W        W21539  24.367  38.933  10.558
53135W        W21540   7.302   4.178  14.833
53136W        W21541  36.556  42.571  11.805
53137W        W21542  30.554  14.647   3.755
53138W        W21543   4.425  25.490   1.822
53139W        W21544  21.199  10.258   3.066
53140W        W21545  11.071  27.175   3.751
53141W        W21546  43.880  41.754  14.584
53142W        W21547  31.620  11.760   0.866
53143W        W21548  32.468  30.567   4.496
53144W        W21549  22.818   1.972   1.894
53145W        W21550  23.553  14.995   0.306
53146W        W21551  32.648  27.935  10.983
53147W        W21552  32.972  18.197   3.595
53148W        W21553  39.329  38.340  12.877
53149W        W21554  15.101  37.900   1.274
53150W        W21555   5.636  38.641  13.013
53151W        W21556  41.949  37.398   1.483
53152W        W21557  10.767  17.398   2.126
53153W        W21558  27.026   6.498  14.868
53154W        W21559  41.038  44.535  13.038
53155W        W21560  38.050  15.839  11.931
53156W        W21561  39.165   2.722   1.948
53157W        W21562  18.541  41.545   3.982
53158W        W21563  41.742   6.746  12.464
53159W        W21564  33.382  19.498   0.961
53160W        W21565  37.992  44.310   3.032
53161W        W21566  11.577   2.950   3.299
53162W        W21567  32.944  39.230  10.466
53163W        W21568  39.359  10.122  11.014
53164W        W21569  38.391  10.884   1.943
53165W        W21570  13.098  18.794  11.408
53166W        W21571  42.512  18.295  12.001
53167W        W21572   5.886  29.636   1.452
53168W        W21573  24.660   7.292   2.046
53169W        W21574   0.397  25.756  11.065
53170W        W21575  18.731  16.818   3.337
53171W        W21576  15.168  18.824   4.518
53172W        W21577  28.035  25.982  14.273
53173W        W21578  10.741  42.775  10.133
53174W        W21579  27.144  32.575  11.977
53175W        W21580  35.821   1.248  14.087
53176W        W21581   0.907  26.314  14.783
53177W        W21582   9.420  25.450  14.860
53178W        W21583  38.826   6.671  12.904
53179W        W21584  25.454  18.189   5.021
53180W        W21585  16.950  43.286  11.627
53181W        W21586  21.784  37.944   1.877
53182W        W21587  16.825  17.719  12.388
53183W        W21588   0.775   8.160   4.664
53184W        W21589   9.662  43.928   1.392
53185W        W21590  37.260  10.898   0.811
53186W        W21591  14.086   8.777   3.484
53187W        W21592  20.609  24.206   2.185
53188W        W21593  22.556   8.715  10.148
53189W        W21594  44.066   7.839  11.132
53190W        W21595  19.822  28.456   3.306
53191W        W21596  39.278  15.638   2.733
53192W        W21597   2.827  25.636  11.346
53193W        W21598  30.925   3.232   1.157
53194W        W21599  18.535  19.319   0.019
53195W        W21600  40.642  13.246  14.280
53196W        W21601   0.617   0.016   1.405
53197W        W21602  32.178  25.553   4.560
53198W        W21603   8.653  14.365   3.494
53199W        W21604  37.848  35.071  12.977
53200W        W21605   1.368  33.535  14.513
53201W        W21606  40.411  41.413   0.837
53202W        W21607  29.881  44.467  14.791
53203W        W21608  19.231   2.342  11.594
53204W        W21609   3.371  39.793   0.473
53205W        W21610  38.815  17.863   4.093
53206W        W21611  39.366   0.316  13.519
53207W        W21612  23.780  26.060   3.311
53208W        W21613   4.156  38.545  11.003
53209W        W21614  17.373  29.974   0.973
53210W        W21615  25.244  21.544   0.955
53211W        W21616   4.420  12.674   2.876
53212W        W21617  31.623   7.476  12.442
53213W        W21618  26.956  21.265  13.405
53214W        W21619  35.789  38.096  12.037
53215W        W21620  16.990  25.254   1.676
53216W        W21621  19.929   4.748  11.836
53217W        W21622  39.369  24.707  11.146
53218W        W21623  42.378  23.848   0.705
53219W        W21624  31.557  40.306   0.559
53220W        W21625  41.993  35.611   4.177
53221W        W21626  14.777  36.506   1.488
53222W        W21627  28.191  26.333   0.258
53223W        W21628   3.347  17.010  14.783
53224W        W21629  23.049  23.107   3.630
53225W        W21630  43.981  15.964  14.307
53226W        W21631  11.831  37.462  12.968
53227W        W21632  36.636  28.249  14.320
53228W        W21633   7.734  13.601   2.824
53229W        W21634  27.744  10.977  11.077
53230W        W21635  36.074  36.550  13.474
53231W        W21636  26.738  29.881   2.068
53232W        W21637   9.864  26.218   3.347
53233W        W21638  23.419   5.700   3.716
53234W        W21639  19.164  11.945   3.134
53235W        W21640  14.505   1.906  11.964
53236W        W21641  37.412   9.503   3.000
53237W        W21642  18.335   6.524   0.482
53238W        W21643  27.079   2.445  13.667
53239W        W21644   0.239   3.524   3.282
53240W        W21645   1.227  26.456  13.206
53241W        W21646  11.868   4.714   2.535
53242W        W21647   1.511  15.848   0.302
53243W        W21648  26.513   9.855   2.836
53244W        W21649  22.433  28.501   4.618
53245W        W21650  39.831  43.264  14.417
53246W        W21651  35.443   2.231  12.495
53247W        W21652  43.267  18.811   0.968
53248W        W21653  39.884  44.262  10.673
53249W        W21654   8.686  25.701   5.096
53250W        W21655  18.097  40.524   1.741
53251W        W21656  18.985  33.970   0.719
53252W        W21657  41.867   3.518   4.155
53253W        W21658   1.812  18.911   0.252
53254W        W21659  15.375   4.964  12.134
53255W        W21660  21.279   5.411   0.577
53256W        W21661  23.929  11.211  11.186
53257W        W21662  44.901  27.059  14.041
53258W        W21663  19.500  33.476   1.306
53259W        W21664  22.248  44.667   4.559
53260W        W21665   1.924  21.203  14.931
53261W        W21666   6.441   7.324  13.869
53262W        W21667  12.259  12.074  10.634
53263W        W21668  41.477   9.810   4.138
53264W        W21669  38.010  19.517  13.945
53265W        W21670  19.781  40.656  10.982
53266W        W21671  33.409  16.729  11.984
53267W        W21672  18.132  40.011   1.466
53268W        W21673  13.713  22.516   1.340
53269W        W21674  29.250  27.568  10.576
53270W        W21675   3.091  27.699   2.925
53271W        W21676  35.056  12.341   2.263
53272W        W21677   2.713  15.261  12.701
53273W        W21678  43.913   0.672   3.327
53274W        W21679  10.580   9.944   1.846
53275W        W21680  42.804   6.402  12.472
53276W        W21681  28.450  24.996  11.566
53277W        W21682  25.015  18.020   2.808
53278W        W21683  18.401   2.407   2.342
53279W        W21684  17.365  20.300   2.583
53280W        W21685  27.538  44.920   2.795
53281W        W21686  15.028  21.415  12.500
53282W        W21687  31.094  12.195   1.766
53283W        W21688  24.737  20.165  13.858
53284W        W21689   4.712  17.745   2.006
53285W        W21690  17.230  38.452  10.768
53286W        W21691   6.894  39.984  11.326
53287W        W21692  41.749  41.246  12.547
53288W        W21693   6.261  39.477   4.623
53289W        W21694  13.890  26.888   1.956
53290W        W21695  25.679  24.555   2.406
53291W        W21696  39.289  21.363   9.880
53292W        W21697  10.362  16.140   0.993
53293W        W21698  44.967  25.581  13.882
53294W        W21699  23.263  28.605  12.153
53295W        W21700  44.765  11.251   2.295
53296W        W21701  16.682  12.807   3.163
53297W        W21702   1.972   4.707  11.141
53298W        W21703  27.812  31.620   1.695
53299W        W21704  24.101  22.775  12.409
53300W        W21705   6.190  15.777   3.675
53301W        W21706  43.741  31.669  11.486
53302W        W21707  29.155  20.614   1.230
53303W        W21708  40.558  25.533  13.980
53304W        W21709   0.989   4.831  12.863
53305W        W21710   2.468   4.879   4.969
53306W        W21711  21.289  10.680  13.956
53307W        W21712  11.438  39.899  14.456
53308W        W21713   2.460  29.471   0.311
53309W        W21714  35.537   0.858  14.485
53310W        W21715   6.855   7.416   4.043
53311W        W21716  14.824  17.326  12.589
53312W        W21717  28.135   4.923   4.243
53313W        W21718  38.665  40.345   3.724
53314W        W21719  10.170  35.424   0.736
53315W        W21720  24.653  44.994   2.880
53316W        W21721  32.835  28.497  12.735
53317W        W21722  12.810   9.195   0.389
53318W        W21723  15.907  38.095   1.930
53319W        W21724  23.777  19.849  14.905
53320W        W21725  29.971  32.003   1.109
53321W        W21726  19.686  33.108  12.095
53322W        W21727  22.495  25.631  13.530
53323W        W21728   1.148   9.608  12.955
53324W        W21729  14.803  39.023  13.864
53325W        W21730  26.175  25.195   1.334
53326W        W21731  29.035   3.451  12.387
53327W        W21732  29.535  26.626   0.387
53328W        W21733  21.555  19.705  10.922
53329W        W21734   4.439  38.847   4.574
53330W        W21735  25.424   6.863  12.042
53331W        W21736  28.650   5.138   0.572
53332W        W21737   7.369  31.320  11.301
53333W        W21738  41.521  37.501   1.192
53334W        W21739   3.907  36.910   0.965
53335W        W21740  36.922   6.694  11.153
53336W        W21741  15.138   8.104  14.313
53337W        W21742  44.372  38.391  12.525
53338W        W21743  17.259  35.321   2.864
53339W        W21744  19.306  27.866  14.813
53340W        W21745  30.517  32.461   4.080
53341W        W21746   4.551   5.676   5.209
53342W        W21747  15.241   9.141  12.989
53343W        W21748  35.007  17.023   4.080
53344W        W21749  44.048  26.093   1.211
53345W        W21750  43.528  18.674   3.246
53346W        W21751  16.843  13.513  11.250
53347W        W21752   4.094  13.314   1.291
53348W        W21753  33.100  19.544   1.435
53349W        W21754  31.055  32.820  11.293
53350W        W21755  15.166  39.940  12.703
53351W        W21756   7.964  24.421   0.801
53352W        W21757  19.201   8.672   4.093
53353W        W21758  38.677  42.293   4.517
53354W        W21759  44.725  44.611   0.313
53355W        W21760  20.068  37.876  12.030
53356W        W21761  42.548  26.767  12.351
53357W        W21762  23.505   1.685   1.899
53358W        W21763  25.140  10.818  13.910
53359W        W21764  10.682  19.474  14.881
53360W        W21765  37.023  41.817  14.800
53361W        W21766   3.920   6.803  12.395
53362W        W21767  16.562  18.392  11.407
53363W        W21768  29.788   2.760   4.663
53364W        W21769   7.738  17.173   2.022
53365W        W21770  41.285  10.306  10.690
53366W        W21771  12.286   7.229  10.836
53367W        W21772  11.969   0.535  12.045
53368W        W21773  36.892  20.424   3.161
53369W        W21774  39.742  36.123  12.074
53370W        W21775  22.148  16.264   0.669
53371W        W21776   9.837  14.623   3.772
53372W        W21777  23.852  21.282  13.424
53373W        W21778  17.779   3.333   4.238
53374W        W21779   4.660  13.227   2.866
53375W        W21780  19.462  20.340  13.930
53376W        W21781  31.037  10.159  14.596
53377W        W21782  24.322  32.265  12.951
53378W        W21783  20.269  18.393   3.637
53379W        W21784  11.107  29.257   1.334
53380W        W21785   9.825  37.045  10.930
53381W        W21786  44.255  16.136   2.211
53382W        W21787  12.705  27.496   4.563
53383W        W21788  14.047  44.443   1.755
53384W        W21789  32.957  35.119   1.881
53385W        W21790  17.060  35.857  12.620
53386W        W21791  16.413  18.861  12.980
53387W        W21792  29.123  20.136   0.297
53388W        W21793   0.267   6.715  13.478
53389W        W21794   3.951  43.973  11.273
53390W        W21795  19.668  29.722   3.806
53391W        W21796   5.373  34.217  10.924
53392W        W21797   9.819  28.625   2.854
53393W        W21798  14.715   8.643   1.410
53394W        W21799   2.760  37.876  11.500
53395W        W21800  34.683   9.866   3.698
53396W        W21801  36.151  13.609   2.643
53397W        W21802   2.902  41.949  14.982
53398W        W21803  30.666  19.220  10.172
53399W        W21804  29.924  33.308  12.027
53400W        W21805  44.202  24.799   2.347
53401W        W21806  18.261  11.837   5.089
53402W        W21807  39.157  20.324   1.910
53403W        W21808  22.406  10.112   0.404
53404W        W21809   5.110  44.538  13.631
53405W        W21810  36.301  28.658   0.428
53406W        W21811  14.004  39.506  11.830
53407W        W21812  37.804   7.258  10.678
53408W        W21813  15.586  37.973   4.218
53409W        W21814  36.917  29.765   1.306
53410W        W21815  29.589  38.387  10.352
53411W        W21816  42.401  25.457   2.495
53412W        W21817  39.250  36.942  11.987
53413W        W21818  44.719  22.434  10.922
53414W        W21819   9.358  21.742   4.837
53415W        W21820  12.214  13.660  12.900
53416W        W21821   3.915   9.370   1.696
53417W        W21822  39.303  15.311   4.612
53418W        W21823  14.113  42.773  11.447
53419W        W21824  26.744  10.628   2.393
53420W        W21825  10.709   7.266   4.620
53421W        W21826   5.268   1.485   3.243
53422W        W21827  15.187  40.453  13.480
53423W        W21828  35.847   9.836  12.911
53424W        W21829   7.845  10.996   2.442
53425W        W21830  29.723  31.332   2.344
53426W        W21831  12.172  28.022  12.343
53427W        W21832  10.328   6.685  10.716
53428W        W21833  16.670  29.188  14.497
53429W        W21834  17.214   3.703  13.311
53430W        W21835   3.433  27.402   1.265
53431W        W21836  34.979  44.796   0.837
53432W        W21837   4.667  37.366   0.937
53433W        W21838   2.491  39.798  11.128
53434W        W21839  44.323   2.882  11.144
53435W        W21840  40.270  22.620   4.531
53436W        W21841  33.572  38.504  14.498
53437W        W21842  39.517   3.496   1.931
53438W        W21843  36.343  18.524   0.310
53439W        W21844  22.397  13.135   3.558
53440W        W21845  34.595  14.692   3.688
53441W        W21846  36.860   2.898  10.554
53442W        W21847   5.263  40.100   1.350
53443W        W21848  37.885  26.816  14.735
53444W        W21849  19.014   0.911  11.558
53445W        W21850  19.146  26.623   3.589
53446W        W21851  44.464  26.237  14.053
53447W        W21852  37.143  41.853   0.817
53448W        W21853  35.111  14.385   0.413
53449W        W21854  39.034   7.622   0.373
53450W        W21855  24.034  24.183   4.591
53451W        W21856  33.516  14.738  13.316
53452W        W21857  19.747  11.608  14.886
53453W        W21858  12.840  35.142   0.487
53454W        W21859  41.857  26.050   3.674
53455W        W21860   8.731  16.406  13.663
53456W        W21861  37.868  16.381   0.287
53457W        W21862  14.300  16.339   0.528
53458W        W21863   6.497   3.932  13.472
53459W        W21864  16.943  30.610  14.875
53460W        W21865  17.516  29.562  12.050
53461W        W21866   4.637  38.831  13.012
53462W        W21867  28.202   8.217   2.935
53463W        W21868  19.833  18.212  14.856
53464W        W21869  12.286   2.408   1.855
53465W        W21870  33.574  42.192  11.527
53466W        W21871  29.359  20.387   3.262
53467W        W21872  38.839   2.923   9.743
53468W        W21873  10.631  13.061   3.961
53469W        W21874  22.074   8.339   4.319
53470W        W21875  31.724   3.487  11.114
53471W        W21876  27.015   8.552  11.108
53472W        W21877  28.208  40.062   1.358
53473W        W21878  33.827  20.226   4.206
53474W        W21879  30.480  18.595   3.107
53475W        W21880  17.724  42.814  14.440
53476W        W21881   9.375  42.586  11.216
53477W        W21882  33.312  35.424  14.372
53478W        W21883  39.034  42.262   1.602
53479W        W21884   7.294   9.704   0.645
53480W        W21885  41.497   2.460   1.425
53481W        W21886   8.667  18.724   2.730
53482W        W21887  17.313  42.419  12.149
53483W        W21888  37.453  40.559  14.176
53484W        W21889   4.382  27.406  13.017
53485W        W21890   2.689  33.790   1.894
53486W        W21891  16.937  34.401   4.122
53487W        W21892  25.259   3.101  13.103
53488W        W21893   3.932  41.604   2.381
53489W        W21894   6.402   7.639   4.134
53490W        W21895   7.219   5.209   3.665
53491W        W21896  25.077  24.290  11.596
53492W        W21897   6.316  19.214   0.282
53493W        W21898  26.562   6.704   0.773
53494W        W21899  20.610  13.588   2.670
53495W        W21900   9.180  44.812  10.690
53496W        W21901  27.521  19.818  11.460
53497W        W21902  31.354  20.887  10.217
53498W        W21903  11.433  25.401   3.704
53499W        W21904  32.909  35.116  10.907
53500W        W21905  18.131  36.940   0.697
53501W        W21906  41.408  44.382   2.000
53502W        W21907  34.213   0.500   0.086
53503W        W21908  13.855   5.267   4.176
53504W        W21909  27.998  23.612   3.362
53505W        W21910   9.335  23.610   1.864
53506W        W21911  23.613  17.386  12.417
53507W        W21912  23.431  23.363   0.099
53508W        W21913  18.569  34.102  12.875
53509W        W21914  19.066  24.076  12.081
53510W        W21915  11.830  19.989   2.188
53511W        W21916   0.577  23.078  13.379
53512W        W21917  33.895  37.629   4.183
53513W        W21918  35.995  45.000  10.737
53514W        W21919  33.933  30.055  13.044
53515W        W21920  10.893  32.598  12.406
53516W        W21921  10.091  26.183   4.226
53517W        W21922  43.911  33.895   4.240
53518W        W21923   6.740  36.524   2.508
53519W        W21924   3.426  42.585  11.466
53520W        W21925  35.887  43.998  13.479
53521W        W21926  28.227  44.951  11.895
53522W        W21927  41.383  39.332   3.357
53523W        W21928  20.467  17.727  12.147
53524W        W21929  14.186  26.938  13.362
53525W        W21930  22.323  32.728  14.081
53526W        W21931  20.245   8.809   9.926
53527W        W21932  10.702  19.203  14.409
53528W        W21933  18.625  16.262  13.927
53529W        W21934  11.282   3.992   2.800
53530W        W21935  10.134  29.272   2.274
53531W        W21936  38.406  26.429   1.319
53532W        W21937  21.995  37.900  14.265
53533W        W21938  43.318  15.156  13.558
53534W        W21939  22.537  35.821  14.256
53535W        W21940  14.157  35.077   2.825
53536W        W21941  14.689  10.155  12.534
53537W        W21942  13.014  10.253  14.588
53538W        W21943  36.144   9.950   1.915
53539W        W21944  37.030   6.889   2.820
53540W        W21945   6.368  24.815   0.716
53541W        W21946   6.577   4.640  11.015
53542W        W21947  35.033  41.893  11.658
53543W        W21948  24.113  44.825  11.773
53544W        W21949  32.605  26.573  14.790
53545W        W21950  29.655  21.029   4.788
53546W        W21951   8.347  38.514  10.774
53547W        W21952   0.791  12.709   0.205
53548W        W21953  33.315   9.928   4.197
53549W        W21954   8.424  25.268  12.925
53550W        W21955   5.940   8.231  14.168
53551W        W21956   9.136   2.846   3.630
53552W        W21957  22.220  40.078   2.307
53553W        W21958  20.129   7.780   1.441
53554W        W21959   2.471  35.472   3.601
53555W        W21960  33.013  30.678   1.425
53556W        W21961  19.291  36.935   2.705
53557W        W21962   4.402  15.751  11.154
53558W        W21963  34.861   2.893  12.256
53559W        W21964  36.934  26.003  14.046
53560W        W21965  13.226  15.977   5.280
53561W        W21966  32.800  11.074  12.287
53562W        W21967  34.559  37.614  14.478
53563W        W21968  32.324  17.189   2.785
53564W        W21969  21.294  43.992  14.005
53565W        W21970  29.647   5.322  14.346
53566W        W21971   2.881  15.633  13.017
53567W        W21972  32.011  19.447  12.762
53568W        W21973   6.913  39.928  14.861
53569W        W21974  27.662  21.216   2.095
53570W        W21975  29.987   7.113   4.303
53571W        W21976  15.162  14.594   2.142
53572W        W21977  13.263  19.298   0.847
53573W        W21978  34.580  11.979   0.280
53574W        W21979  23.117  26.295   2.746
53575W        W21980  29.492  25.497  12.861
53576W        W21981  32.454  22.157  13.066
53577W        W21982  13.173  23.823   0.310
53578W        W21983  29.951  20.963   2.235
53579W        W21984  29.680  15.742  11.005
53580W        W21985  15.557   7.181   4.727
53581W        W21986  31.022  40.198  13.753
53582W        W21987  18.094   7.015   4.422
53583W        W21988  24.112  26.455  12.956
53584W        W21989  16.793   8.188   2.744
53585W        W21990   7.074  20.336  13.072
53586W        W21991  32.447  37.267  14.870
53587W        W21992  29.538  16.645  13.421
53588W        W21993  27.407  43.155   1.339
53589W        W21994   6.790   3.298  10.521
53590W        W21995   0.038  27.216   3.820
53591W        W21996  30.618  34.553  11.096
53592W        W21997  18.561  27.935  10.236
53593W        W21998  37.005  29.470   1.735
53594W        W21999  44.292   9.745   4.172
53595W        W22000  31.634   4.658  11.709
53596W        W22001  37.603   9.355   1.969
53597W        W22002  35.296  32.569   4.126
53598W        W22003   0.499  41.914  14.723
53599W        W22004  18.700   6.257   4.480
53600W        W22005  34.431   9.232   1.780
53601W        W22006  41.902  27.861  11.585
53602W        W22007  11.602  10.144   0.931
53603W        W22008   5.532   1.895   0.705
53604W        W22009  32.319  36.798  12.947
53605W        W22010  15.573  34.839   2.277
53606W        W22011  22.796  24.096  11.598
53607W        W22012  36.018  44.451  13.968
53608W        W22013  22.335   2.939   2.504
53609W        W22014  23.655  23.673  12.991
53610W        W22015  31.637  29.147   0.034
53611W        W22016   9.236   4.278  14.046
53612W        W22017  20.791   2.054   4.644
53613W        W22018  44.344   3.962   3.417
53614W        W22019  22.140   0.808  14.039
53615W        W22020  35.217  42.755   5.151
53616W        W22021  40.905  34.491   3.526
53617W        W22022  29.232  16.188  11.581
53618W        W22023  44.228  11.462   0.031
53619W        W22024  21.744  24.872   4.168
53620W        W22025  31.479  23.151   0.895
53621W        W22026  43.342  36.914   4.548
53622W        W22027  15.573  24.369   0.854
53623W        W22028  41.605  19.186   0.028
53624W        W22029   4.889  37.906   3.231
53625W        W22030   7.186   8.685   2.627
53626W        W22031  43.037   6.250  12.901
53627W        W22032   1.210   9.928  13.350
53628W        W22033  17.590  18.704  11.237
53629W        W22034  38.324  23.543   1.069
53630W        W22035  19.048  38.421   0.609
53631W        W22036   9.048  16.639  11.315
53632W        W22037  26.430   0.487   1.361
53633W        W22038  35.394  34.091   4.220
53634W        W22039  29.555  14.594  14.461
53635W        W22040  38.352  33.849  12.689
53636W        W22041  34.292  13.241  11.081
53637W        W22042  31.986  40.620  12.561
53638W        W22043  42.353  35.481   3.160
53639W        W22044  12.601  12.294  14.904
53640W        W22045  12.642  18.255  11.144
53641W        W22046  29.706   2.874  13.985
53642W        W22047  31.636  39.513  14.527
53643W        W22048  29.354   2.330   0.108
53644W        W22049   5.437  37.258   2.884
53645W        W22050  24.672  44.830   0.257
53646W        W22051  13.612  17.658   3.286
53647W        W22052  16.814  11.128   1.850
53648W        W22053  39.280  41.043  14.520
53649W        W22054  23.773  25.295  12.054
53650W        W22055  40.895  36.414   3.858
53651W        W22056  23.284  23.267  12.859
53652W        W22057  35.812  20.074   4.428
53653W        W22058  30.834  20.467   3.214
53654W        W22059  39.344  20.792   2.199
53655W        W22060  18.579  18.153   0.751
53656W        W22061   6.864  44.046   1.319
53657W        W22062  24.200  21.582   2.992
53658W        W22063   6.467  44.711  14.362
53659W        W22064   1.102  29.116   1.378
53660W        W22065   5.781   5.626   3.005
53661W        W22066  38.904  37.342  10.768
53662W        W22067  36.381  21.482   3.747
53663W        W22068  15.232  22.603   4.543
53664W        W22069  19.007   4.135   3.822
53665W        W22070  11.168  30.530   0.975
53666W        W22071  24.385   5.829   3.382
53667W        W22072  29.857  19.973  11.942
53668W        W22073  11.836  28.128  13.323
53669W        W22074   8.773   8.634  13.124
53670W        W22075  29.533   1.348  10.644
53671W        W22076  16.225  20.463  14.410
53672W        W22077  41.106  21.463  12.126
53673W        W22078  26.643  40.312   2.050
53674W        W22079  43.524   9.121  14.720
53675W        W22080  21.163  30.039   2.665
53676W        W22081   2.639   9.315   2.383
53677W        W22082  36.784  37.543   3.319
53678W        W22083  21.173   2.434   2.447
53679W        W22084   1.051  10.185  11.895
53680W        W22085  25.250  31.618  11.120
53681W        W22086  18.515   5.668   3.671
53682W        W22087  28.376  24.681  14.971
53683W        W22088   0.934  22.568  12.165
53684W        W22089   6.339   3.449   4.549
53685W        W22090  23.523  32.178  12.523
53686W        W22091  14.387  34.688  12.584
53687W        W22092   0.197  33.031   0.900
53688W        W22093  21.990  22.733  11.030
53689W        W22094  29.610  20.671   4.034
53690W        W22095  37.304  17.687  12.699
53691W        W22096   6.620  10.536  12.356
53692W        W22097  44.711  11.262   4.562
53693W        W22098  15.862  30.028   3.313
53694W        W22099  16.594  41.436  13.388
53695W        W22100  44.586  42.098   4.046
53696W        W22101  33.700  20.512  12.534
53697W        W22102  42.330  44.247   4.754
53698W        W22103  10.408  40.154   2.411
53699W        W22104  30.863  28.504   0.808
53700W        W22105  42.259  25.262   1.954
53701W        W22106  20.697   0.001  11.477
53702W        W22107  15.053   5.805  10.504
53703W        W22108   7.445  10.005   4.577
53704W        W22109  20.988  13.891   4.613
53705W        W22110  18.254  11.462  12.992
53706W        W22111  30.550   9.158  12.854
53707W        W22112  34.895   5.858   0.490
53708W        W22113  28.445  20.546  12.098
53709W        W22114  44.487  33.869  14.356
53710W        W22115   4.925  29.444  11.058
53711W        W22116   7.608  22.676  13.444
53712W        W22117  25.719   6.093   2.304
53713W        W22118  32.826  42.670  14.886
53714W        W22119  44.797  42.638  11.985
53715W        W22120  30.976   9.674  10.895
53716W        W22121   1.827  18.513  10.537
53717W        W22122  32.637   9.842   1.942
53718W        W22123   9.312  26.522   0.332
53719W        W22124   8.738  42.307  14.786
53720W        W22125  38.418   0.764  14.010
53721W        W22126  32.872  40.367  10.675
53722W        W22127  40.405  39.599  11.119
53723W        W22128  42.291  12.529  14.817
53724W        W22129  12.341  27.509  11.631
53725W        W22130   0.584  29.092   1.369
53726W        W22131   6.174   1.387   4.270
53727W        W22132  42.932   9.891   1.959
53728W        W22133  42.814   4.959  12.563
53729W        W22134  41.960  43.851  11.804
53730W        W22135   1.027  31.397  11.173
53731W        W22136  24.809  34.675  10.753
53732W        W22137  27.186  26.545  12.589
53733W        W22138  34.325   4.287  13.405
53734W        W22139  41.536  38.218  13.437
53735W        W22140  43.513  35.093  12.582
53736W        W22141  15.711  44.977   2.411
53737W        W22142   1.202   7.192  11.368
53738W        W22143  38.876  38.447   4.164
53739W        W22144  13.405   5.766   3.169
53740W        W22145  21.118  24.649   1.728
53741W        W22146  19.325  19.893  11.858
53742W        W22147   8.926   8.784   0.467
53743W        W22148   5.958  30.197  14.876
53744W        W22149  15.074  25.542   4.725
53745W        W22150  28.679  40.592   2.373
53746W        W22151  44.994  30.395  12.922
53747W        W22152  28.542  37.862  12.855
53748W        W22153  42.888  41.518   5.161
53749W        W22154  15.678   7.570  11.412
53750W        W22155  12.195  28.075   2.881
53751W        W22156  34.487  31.407  14.505
53752W        W22157   3.447  20.246   4.161
53753W        W22158  21.638  33.044  12.030
53754W        W22159  33.484   7.818  14.847
53755W        W22160  27.322  22.685  11.107
53756W        W22161  18.661  38.958  11.358
53757W        W22162  19.631  12.942  10.737
53758W        W22163  25.239   9.096   1.371
53759W        W22164  18.251  13.823   0.988
53760W        W22165   8.818   9.224   2.218
53761W        W22166   7.280  19.188  10.715
53762W        W22167   8.871  37.280  10.476
53763W        W22168  23.397  35.875  14.039
53764W        W22169   2.339  37.064  13.981
53765W        W22170  31.447  16.092  11.935
53766W        W22171  28.128  21.526   4.596
53767W        W22172  44.183  28.007   4.296
53768W        W22173  38.885   9.993  10.266
53769W        W22174  16.593  38.447   0.708
53770W        W22175  33.152  41.733   0.933
53771W        W22176   9.838   0.164  12.115
53772W        W22177  15.280   1.514  11.994
53773W        W22178  40.354   9.995  10.565
53774W        W22179  33.117  38.749   1.641
53775W        W22180   1.389  17.977   3.941
53776W        W22181  19.619  22.843  14.910
53777W        W22182   3.780  36.831  12.308
53778W        W22183  36.789  42.752   0.010
53779W        W22184   4.039  39.450   3.046
53780W        W22185  38.583   0.780   1.908
53781W        W22186  35.064  29.248  14.924
53782W        W22187  30.363  17.793   0.926
53783W        W22188  25.637   9.383  13.564
53784W        W22189  34.611  37.843   1.295
53785W        W22190   8.664  40.808   0.885
53786W        W22191  30.603  23.972   1.422
53787W        W22192  20.717   2.543   3.762
53788W        W22193  35.074   6.400  13.071
53789W        W22194  36.620  12.566   0.781
53790W        W22195  44.505  35.177  11.617
53791W        W22196  10.582   6.893   4.981
53792W        W22197  34.137  34.203   3.200
53793W        W22198   3.974   6.425   3.175
53794W        W22199  17.141  21.090   5.160
53795W        W22200  31.864   1.023   3.755
53796W        W22201  42.403   3.283   0.216
53797W        W22202  22.650  28.236  11.458
53798W        W22203  30.427   0.216   1.307
53799W        W22204   1.247  28.983  12.052
53800W        W22205  19.991   0.493   2.402
53801W        W22206  26.980  13.053  14.426
53802W        W22207  44.805  32.283   4.106
53803W        W22208   6.331  25.500  12.524
53804W        W22209   9.240  20.089   1.761
53805W        W22210  26.248  41.511   4.618
53806W        W22211  41.001  16.568   2.286
53807W        W22212  36.107  30.024   0.358
53808W        W22213  15.699  40.845   2.329
53809W        W22214  40.385   9.302  12.271
53810W        W22215  19.102   6.600   1.285
53811W        W22216  25.765  27.346  12.977
53812W        W22217  25.188   5.638   4.306
53813W        W22218  33.887  16.078  11.436
53814W        W22219  12.866  37.226   2.448
53815W        W22220  34.526  38.283  11.878
53816W        W22221  34.946  42.336   0.237
53817W        W22222   1.911  30.615  14.610
53818W        W22223  16.481  42.909   0.438
53819W        W22224  43.786  40.928   3.742
53820W        W22225  27.547   6.397  13.304
53821W        W22226  43.555   3.923   3.284
53822W        W22227   6.892  29.096   1.639
53823W        W22228  26.439  30.504  14.383
53824W        W22229   0.525  20.134  12.952
53825W        W22230  25.641  29.647  10.705
53826W        W22231   9.036  14.423   0.938
53827W        W22232  17.807  31.068   1.636
53828W        W22233  35.112  21.353  11.155
53829W        W22234  12.369   1.193   1.310
53830W        W22235  37.475  21.016  11.566
53831W        W22236  21.567   7.848   4.628
53832W        W22237  40.989   0.214   3.063
53833W        W22238  25.630  42.282  11.596
53834W        W22239  25.618  35.475  14.471
53835W        W22240   5.048  11.126  13.002
53836W        W22241  29.006  10.299  13.918
53837W        W22242  39.857  28.527   3.609
53838W        W22243  20.150   4.436   1.962
53839W        W22244  10.281  27.580   1.952
53840W        W22245  42.122   3.801  10.044
53841W        W22246   3.514   3.854   4.367
53842W        W22247  38.401  37.963  12.500
53843W        W22248  21.146  19.084   3.286
53844W        W22249  12.112  12.897  11.605
53845W        W22250   9.399  29.872   2.244
53846W        W22251   1.452  13.748  12.410
53847W        W22252   3.520  34.906   3.579
53848W        W22253  18.137  15.521  12.606
53849W        W22254   6.347  16.008   5.383
53850W        W22255  19.053   4.236  11.998
53851W        W22256  43.778   4.243  10.552
53852W        W22257  36.895  35.119   2.942
53853W        W22258   5.594  14.139   2.431
53854W        W22259   6.921  43.846  10.754
53855W        W22260  44.945  42.454   2.408
53856W        W22261  34.813  17.907  11.022
53857W        W22262  43.209  21.762  10.653
53858W        W22263   6.257  37.394  13.593
53859W        W22264  33.293   1.915  10.263
53860W        W22265  41.964   5.382   3.302
53861W        W22266  27.695   6.490   2.737
53862W        W22267   8.484  31.145   0.538
53863W        W22268  31.532   6.926   4.650
53864W        W22269  41.305  37.746   4.464
53865W        W22270  11.033  34.825   0.868
53866W        W22271  37.970  29.932  13.433
53867W        W22272  18.082  42.263  12.428
53868W        W22273  35.588  38.951  13.445
53869W        W22274  37.941   5.619  10.719
53870W        W22275   2.770  14.782   0.983
53871W        W22276   6.755  24.842   1.257
53872W        W22277  15.490  39.964   2.399
53873W        W22278  44.935  30.659   2.692
53874W        W22279  21.980   3.660   3.634
53875W        W22280   7.600   7.824   3.753
53876W        W22281  15.351  21.747  14.039
53877W        W22282  37.992  12.207  13.571
53878W        W22283   9.869  10.309   0.408
53879W        W22284  25.823  28.451   3.153
53880W        W22285   8.334  34.878   3.691
53881W        W22286  20.293  25.127  12.980
53882W        W22287  16.351  43.988  12.842
53883W        W22288  33.486   4.237  10.621
53884W        W22289  15.224  40.935   4.206
53885W        W22290  42.073  41.215   3.086
53886W        W22291   1.879  40.585  12.067
53887W        W22292  23.135  31.003  10.695
53888W        W22293   8.375   9.414   4.114
53889W        W22294   2.872  25.875  13.447
53890W        W22295  24.721  11.722  13.057
53891W        W22296  16.618  37.513  13.342
53892W        W22297  38.187  23.749  11.176
53893W        W22298   5.679  36.356  11.965
53894W        W22299   8.143  19.723   2.920
53895W        W22300  14.659  39.979  14.309
53896W        W22301  34.414  31.590   1.366
53897W        W22302  36.167   2.050  14.659
53898W        W22303  34.519  18.433   0.862
53899W        W22304  15.993  22.271  10.043
53900W        W22305  37.308  39.930   3.679
53901W        W22306  43.201   0.318  11.581
53902W        W22307  30.936  20.984   3.148
53903W        W22308   8.697  42.570  12.896
53904W        W22309  31.422  18.564  11.043
53905W        W22310   4.759  19.123  11.927
53906W        W22311  17.201   7.771  11.121
53907W        W22312  10.494  44.052  11.164
53908W        W22313  25.892  26.596   4.625
53909W        W22314  19.059  30.693  11.643
53910W        W22315  38.979   4.817  10.680
53911W        W22316  13.422  32.322   2.766
53912W        W22317  21.011  42.539  12.516
53913W        W22318   5.613  37.082  14.318
53914W        W22319  19.176  40.292  13.390
53915W        W22320  43.296   5.681   2.672
53916W        W22321  15.369   5.102  13.423
53917W        W22322  13.138   8.681  13.035
53918W        W22323  36.584  36.977  10.635
53919W        W22324  24.416   2.741  14.278
53920W        W22325  37.402  26.686   1.180
53921W        W22326  36.295   1.335  14.251
53922W        W22327  22.260  19.546  14.832
53923W        W22328  44.180   1.969   4.437
53924W        W22329  14.096  32.582  11.114
53925W        W22330  18.230  30.069  14.084
53926W        W22331  40.894  37.931  12.433
53927W        W22332  34.049   0.961   1.327
53928W        W22333  15.298  24.098  11.587
53929W        W22334  37.619  26.949   2.277
53930W        W22335  31.242  36.848  13.865
53931W        W22336  33.108  13.094  12.489
53932W        W22337  17.365  34.715   2.014
53933W        W22338  31.373  34.935  12.269
53934W        W22339  31.053   8.348  11.851
53935W        W22340  21.844  14.998  12.591
53936W        W22341  10.154  42.120  11.073
53937W        W22342  39.949   9.823   0.772
53938W        W22343  18.272  21.505   1.898
53939W        W22344  29.385   6.194   0.288
53940W        W22345  38.927  33.759   3.221
53941W        W22346  27.529  28.446  14.108
53942W        W22347  25.911  12.239   1.915
53943W        W22348   6.437  11.130   2.381
53944W        W22349  34.446  19.615   3.634
53945W        W22350  14.913  19.193  11.184
53946W        W22351   1.140  41.947  13.445
53947W        W22352  16.534  27.952   4.213
53948W        W22353  36.744   5.945   1.947
53949W        W22354  37.258   4.985  10.279
53950W        W22355  28.896  31.605  13.401
53951W        W22356  15.269  40.379  10.642
53952W        W22357   5.672  42.655   3.435
53953W        W22358  14.929  26.108  12.097
53954W        W22359   2.556   3.280   2.859
53955W        W22360   1.327   1.494   2.992
53956W        W22361   3.227   0.933   0.434
53957W        W22362   3.529   5.682  11.244
53958W        W22363  23.017   3.842   4.086
53959W        W22364  42.501  19.503  14.452
53960W        W22365   5.929  13.956   1.551
53961W        W22366   6.220   1.493   3.227
53962W        W22367  26.679  12.197  11.124
53963W        W22368  34.952  41.509   1.207
53964W        W22369   4.356  35.918   2.151
53965W        W22370  20.643  24.168  12.313
53966W        W22371  25.122  41.301   2.703
53967W        W22372  27.971  39.607   3.822
53968W        W22373  37.988  25.208  11.005
53969W        W22374   4.193   8.872   1.755
53970W        W22375  29.165  36.481  11.135
53971W        W22376  40.502  17.817  11.120
53972W        W22377  17.281   6.888   1.649
53973W        W22378   7.415  18.240   1.375
53974W        W22379  27.548  25.540   1.694
53975W        W22380   4.641  13.721   2.689
53976W        W22381  10.940   3.855  14.536
53977W        W22382   8.335  39.003   3.013
53978W        W22383  37.392   5.349   4.099
53979W        W22384  11.335  11.120   0.950
53980W        W22385  28.967  17.465   1.701
53981W        W22386   4.801  29.678  11.545
53982W        W22387   6.095  20.796   2.824
53983W        W22388   9.253  15.779   1.473
53984W        W22389   2.653  21.709   4.436
53985W        W22390   0.040  20.079  12.224
53986W        W22391  35.768  23.539  13.935
53987W        W22392  31.602  17.027   9.982
53988W        W22393  29.940  16.128  10.776
53989W        W22394  12.716   1.321  11.113
53990W        W22395  32.101  25.771  13.728
53991W        W22396  43.426  16.339   3.640
53992W        W22397   4.978  10.096  10.029
53993W        W22398  26.566   0.960   1.749
53994W        W22399  23.895   9.382  11.367
53995W        W22400  11.687  32.174   0.198
53996W        W22401  13.830  40.817   1.421
53997W        W22402  19.714  11.561   4.742
53998W        W22403  20.535   1.502  14.372
53999W        W22404  29.139   9.203   1.798
54000W        W22405  34.944  37.338   1.992
54001W        W22406  16.149   7.667   3.860
54002W        W22407  23.684  17.520   1.203
54003W        W22408  40.921   0.232  14.446
54004W        W22409   1.704  44.548   1.529
54005W        W22410  10.026   4.339   4.754
54006W        W22411  39.751   7.203  14.974
54007W        W22412   9.795   3.385  12.877
54008W        W22413  40.623   9.716  14.816
54009W        W22414  22.477  18.183   1.991
54010W        W22415  27.601  44.699  10.746
54011W        W22416   4.355   4.216  13.370
54012W        W22417  23.941  27.882  11.491
54013W        W22418  20.525   0.411  11.197
54014W        W22419  26.389  13.372   3.739
54015W        W22420   8.844  27.027   0.331
54016W        W22421  13.120  26.175  13.601
54017W        W22422  44.294  43.014  11.992
54018W        W22423  32.437  44.407  10.936
54019W        W22424  44.450  14.624   2.773
54020W        W22425  32.562  43.371   3.715
54021W        W22426   4.430  31.773  10.833
54022W        W22427  42.925  28.134   2.278
54023W        W22428  23.592   4.231  10.828
54024W        W22429  12.214  40.012  14.791
54025W        W22430  20.143  19.776  11.549
54026W        W22431  21.438   1.670  14.503
54027W        W22432  36.030  24.786   2.441
54028W        W22433  17.032  35.773   0.721
54029W        W22434  25.173  33.510   4.032
54030W        W22435  18.318  27.672  11.085
54031W        W22436  14.365  32.456  12.061
54032W        W22437  25.201  29.635  10.407
54033W        W22438  25.251   9.613   1.347
54034W        W22439  30.525   9.628  11.150
54035W        W22440  44.970  36.341   1.208
54036W        W22441  27.581  31.881  11.870
54037W        W22442   2.438   8.563  11.140
54038W        W22443   9.324  15.304  11.566
54039W        W22444  33.449  40.234   3.260
54040W        W22445  17.699  20.728  13.531
54041W        W22446  20.635  17.359  11.205
54042W        W22447  22.545  11.818  14.461
54043W        W22448  35.810  20.810   2.359
54044W        W22449  14.908   6.702   2.755
54045W        W22450  15.083  13.434  13.073
54046W        W22451  24.738  33.006  12.831
54047W        W22452  30.184  18.273   0.890
54048W        W22453  41.877  35.081   1.245
54049W        W22454   1.817   0.793   2.325
54050W        W22455  31.568  43.432  10.336
54051W        W22456   2.744  34.503   2.733
54052W        W22457  36.295  43.555  12.000
54053W        W22458  11.364  33.097  14.873
54054W        W22459  25.739   8.325   4.144
54055W        W22460  12.502  40.855   3.819
54056W        W22461  16.270   8.623   3.585
54057W        W22462  42.401  43.093   1.199
54058W        W22463  15.101   3.322  13.446
54059W        W22464   9.987   5.804   2.852
54060W        W22465  34.442   1.804   1.570
54061W        W22466  28.319  38.947  15.000
54062W        W22467  25.081  31.972  12.728
54063W        W22468  34.665  18.917  14.522
54064W        W22469   8.880  41.193   2.761
54065W        W22470   9.360  20.855   4.687
54066W        W22471  41.410  40.486   0.742
54067W        W22472  35.912  27.643  10.774
54068W        W22473  14.776  34.723   4.601
54069W        W22474   7.791   0.274  13.335
54070W        W22475  27.636  15.501  12.109
54071W        W22476  44.804  21.251   4.023
54072W        W22477  22.012  41.311   4.836
54073W        W22478  36.906  14.183  14.274
54074W        W22479  10.420  33.917   1.774
54075W        W22480  39.564   9.561   2.199
54076W        W22481  28.922  12.136   1.730
54077W        W22482  41.841  32.972  12.934
54078W        W22483  32.219   8.410   2.405
54079W        W22484  36.176   2.715  11.193
54080W        W22485  40.980  13.243  10.683
54081W        W22486  19.542   9.841  10.675
54082W        W22487  41.882  24.623  14.909
54083W        W22488  30.082  43.506   2.076
54084W        W22489   4.280   6.696   3.998
54085W        W22490  25.478  24.756  11.024
54086W        W22491  10.812  44.419  14.184
54087W        W22492  12.499   4.906   1.387
54088W        W22493   5.417  16.934   2.879
54089W        W22494  33.070  41.551   3.412
54090W        W22495  16.688  25.198   0.469
54091W        W22496  15.925   5.863  14.493
54092W        W22497   0.997   4.631  11.361
54093W        W22498  35.585  36.462  14.280
54094W        W22499  23.745  22.439  11.561
54095W        W22500   0.754  10.397   1.938
54096W        W22501  29.547   1.277  11.544
54097W        W22502  42.031   8.308   3.343
54098W        W22503   6.352  42.044   3.722
54099W        W22504  44.804   4.915  11.577
54100W        W22505   6.663  32.283   4.001
54101W        W22506  13.743  20.113   0.888
54102W        W22507   8.106  22.157  14.773
54103W        W22508  44.963  37.636  13.383
54104W        W22509  23.499  12.208   0.315
54105W        W22510  39.975  34.963  13.336
54106W        W22511  29.609  18.692   0.061
54107W        W22512  43.311  25.656  14.305
54108W        W22513  39.071  22.545   0.622
54109W        W22514  35.095   0.314  11.601
54110W        W22515  38.765  21.772   0.951
54111W        W22516  39.005  41.841  10.870
54112W        W22517   5.170  23.235  11.040
54113W        W22518  36.824  40.473  14.802
54114W        W22519  44.825   8.325   2.396
54115W        W22520  18.562  28.206  14.269
54116W        W22521   6.450  31.126   0.055
54117W        W22522  22.154   1.766  10.331
54118W        W22523   0.931   7.134  14.890
54119W        W22524  42.451  40.268   1.390
54120W        W22525  16.583   7.184  11.045
54121W        W22526   0.351   2.867  11.110
54122W        W22527  36.345  37.374   4.562
54123W        W22528  16.692  10.873   2.316
54124W        W22529  18.572   7.146  12.949
54125W        W22530   5.737  26.072  14.227
54126W        W22531  25.748  26.225   2.994
54127W        W22532  15.592  37.487   0.914
54128W        W22533   3.041  44.888   1.663
54129W        W22534  10.927  37.523   3.191
54130W        W22535  41.366  38.859   0.066
54131W        W22536   5.370  22.991  11.475
54132W        W22537   7.231  40.781  10.657
54133W        W22538  38.569  41.442  13.906
54134W        W22539  38.902  13.216  10.585
54135W        W22540   1.757  43.921   4.619
54136W        W22541   8.926   4.149   5.023
54137W        W22542   9.933  15.114   4.136
54138W        W22543  12.765  11.315   3.204
54139W        W22544  43.995  22.740  14.095
54140W        W22545  35.999  41.029   0.544
54141W        W22546  14.384  34.944  11.453
54142W        W22547   8.825  38.355   0.918
54143W        W22548  33.579  33.551   3.237
54144W        W22549   0.288  28.961   2.662
54145W        W22550   5.135   9.971   4.369
54146W        W22551  30.585   2.203  12.522
54147W        W22552  10.574  22.675   1.299
54148W        W22553  23.999  27.515   2.681
54149W        W22554  10.778   5.158   2.853
54150W        W22555  43.851   0.932  11.654
54151W        W22556  10.220  36.997  11.826
54152W        W22557   0.961  26.112  12.939
54153W        W22558  41.586   2.435   2.366
54154W        W22559  15.668   5.375  13.974
54155W        W22560  19.997   7.208  14.122
54156W        W22561   6.228  16.192   4.902
54157W        W22562  17.578  42.001  10.571
54158W        W22563  12.771  33.404   3.624
54159W        W22564  22.715  35.019   4.670
54160W        W22565  15.916  43.269  13.614
54161W        W22566  31.392  10.594  11.959
54162W        W22567  38.488  43.959   4.142
54163W        W22568   0.878  25.319   5.267
54164W        W22569  29.732  41.322   3.681
54165W        W22570  31.153  29.394   0.338
54166W        W22571  13.616  34.045   1.034
54167W        W22572   6.249  39.845  12.665
54168W        W22573  38.108  17.221   2.961
54169W        W22574  15.310  41.396   5.089
54170W        W22575   0.725  28.865  14.236
54171W        W22576  40.975   1.276  10.425
54172W        W22577  18.312  43.464  10.679
54173W        W22578  20.090  21.977  11.025
54174W        W22579  23.454   6.617   1.632
54175W        W22580  43.419  42.773  10.684
54176W        W22581  21.665   0.493   1.485
54177W        W22582   3.965  14.371   1.292
54178W        W22583   8.801  12.081   1.505
54179W        W22584  10.218  43.716   2.878
54180W        W22585  22.573  24.646  13.158
54181W        W22586  29.096  23.549   3.633
54182W        W22587   4.905   0.537  13.564
54183W        W22588  16.988  43.889   4.629
54184W        W22589  44.338  43.240   1.034
54185W        W22590   8.533   4.221  12.077
54186W        W22591  18.471  13.818  13.571
54187W        W22592  22.486  26.716  12.081
54188W        W22593   9.850  44.885  13.878
54189W        W22594  10.198  26.072  12.637
54190W        W22595  40.412  27.649   4.553
54191W        W22596  33.348  30.730  10.409
54192W        W22597  42.616   8.648  12.146
54193W        W22598  43.405  40.595  11.027
54194W        W22599   8.906  22.688  13.293
54195W        W22600   5.337  16.075   3.946
54196W        W22601  22.010  23.684  14.645
54197W        W22602   4.892   0.466  11.475
54198W        W22603  17.202  23.971  12.099
54199W        W22604  20.744  31.028   3.810
54200W        W22605  29.234  24.649   0.169
54201W        W22606   5.113  33.752   1.673
54202W        W22607  30.649  14.092   3.193
54203W        W22608   8.361  24.905   4.572
54204W        W22609  42.967  34.356  13.055
54205W        W22610  44.148  31.947  11.688
54206W        W22611  15.625  44.105   4.812
54207W        W22612  39.935  29.049  14.434
54208W        W22613  14.703   7.638   3.030
54209W        W22614  22.206  39.917  12.191
54210W        W22615   2.589  28.331   4.526
54211W        W22616  27.027  35.831   1.235
54212W        W22617  44.813  14.229   4.196
54213W        W22618  15.951  25.012  11.987
54214W        W22619   0.838  26.180   0.769
54215W        W22620  10.116  29.661  13.179
54216W        W22621  32.072   1.007  11.486
54217W        W22622  14.899  17.487  12.121
54218W        W22623  35.193   9.989   3.713
54219W        W22624  36.479  31.006   4.215
54220W        W22625  15.623  27.365  13.927
54221W        W22626  33.470  12.468  10.350
54222W        W22627  22.080  32.442  11.604
54223W        W22628  13.352  21.512  10.516
54224W        W22629   8.132  38.895  14.853
54225W        W22630  41.121  43.703   4.162
54226W        W22631  18.067  17.183  14.637
54227W        W22632  20.975  13.637  12.149
54228W        W22633   7.190   2.988   2.246
54229W        W22634  20.283  29.667  13.656
54230W        W22635   3.798  33.533   0.148
54231W        W22636  37.743  22.666   2.581
54232W        W22637  22.783   4.649  10.898
54233W        W22638  11.902  31.021  13.176
54234W        W22639  38.991  27.952  11.978
54235W        W22640  41.393  13.823  13.521
54236W        W22641  29.200  27.022  12.067
54237W        W22642   1.964   5.801   1.396
54238W        W22643  12.847  31.062  10.888
54239W        W22644  31.927  11.208   3.392
54240W        W22645  11.452  15.162  12.934
54241W        W22646  34.966  38.324  12.557
54242W        W22647  39.366  13.880   2.252
54243W        W22648  41.474  30.723   2.207
54244W        W22649  19.539  33.087   2.974
54245W        W22650  21.477   3.234   4.974
54246W        W22651  16.697  15.181   3.811
54247W        W22652   7.081  37.312   0.300
54248W        W22653   1.793  26.129   2.219
54249W        W22654  35.962  32.347  13.812
54250W        W22655   6.731  30.156   4.900
54251W        W22656  35.404  31.813  12.172
54252W        W22657   8.360   0.926   2.716
54253W        W22658  41.448  40.789  10.540
54254W        W22659  29.535  26.340  14.947
54255W        W22660  43.351  27.049   2.352
54256W        W22661   1.426  38.980   2.032
54257W        W22662  13.897   9.864   3.552
54258W        W22663  13.870   9.092  12.253
54259W        W22664  10.867  44.753  12.935
54260W        W22665  26.628   4.404  11.135
54261W        W22666  32.168  36.003  12.588
54262W        W22667  22.229  22.506   4.451
54263W        W22668  30.086  28.064  10.539
54264W        W22669  21.616   1.111  14.498
54265W        W22670  11.997  35.062   2.913
54266W        W22671  37.020  27.552   2.746
54267W        W22672  29.559  44.410   5.017
54268W        W22673  16.859  42.574  12.464
54269W        W22674  40.180  26.767   9.883
54270W        W22675  31.848  12.066  12.592
54271W        W22676  12.626  12.715  11.647
54272W        W22677  15.337  27.711  13.166
54273W        W22678   0.853  44.720  14.582
54274W        W22679  31.190  15.868  14.477
54275W        W22680  43.106  25.731   2.937
54276W        W22681  26.370  33.378  13.914
54277W        W22682  33.568  42.161  14.709
54278W        W22683  41.456   8.672   1.369
54279W        W22684  40.006  11.841   1.874
54280W        W22685   8.200  29.361  11.385
54281W        W22686  29.496  39.044  12.159
54282W        W22687  32.453   0.267   2.051
54283W        W22688  30.125  17.530   0.125
54284W        W22689  18.312  35.179  14.281
54285W        W22690  34.266   8.759  12.993
54286W        W22691   8.202  38.275   2.847
54287W        W22692  20.178  11.050   1.054
54288W        W22693  17.326  26.752  13.364
54289W        W22694  17.331  41.195  14.070
54290W        W22695  18.842  19.750  10.165
54291W        W22696  21.136  27.718  14.867
54292W        W22697  16.696   1.526  12.164
54293W        W22698   7.644  36.383  13.501
54294W        W22699  29.341  17.692   0.903
54295W        W22700  40.607   8.653  11.985
54296W        W22701  38.313  33.706  11.094
54297W        W22702  11.925  41.124   3.093
54298W        W22703  32.738  35.827  12.329
54299W        W22704   9.167   3.621  14.402
54300W        W22705   1.459  31.100  11.157
54301W        W22706   4.380  38.933  11.401
54302W        W22707  37.465  12.128   1.210
54303W        W22708   5.363   4.255  14.776
54304W        W22709  39.991  35.215  11.919
54305W        W22710  35.046  22.664  11.455
54306W        W22711  43.097  23.960   3.138
54307W        W22712  25.459  28.109   2.959
54308W        W22713  20.040  20.974  12.352
54309W        W22714  41.489  11.772  11.237
54310W        W22715  15.753  29.750   1.969
54311W        W22716  11.308  27.176   1.283
54312W        W22717  40.095  28.449  11.960
54313W        W22718  37.566  37.345  14.434
54314W        W22719  10.159  20.578   2.328
54315W        W22720   0.317  13.659  13.332
54316W        W22721  25.514   0.906  11.604
54317W        W22722  20.687  28.453   3.377
54318W        W22723  36.916   6.409  10.739
54319W        W22724   5.726  37.395  11.097
54320W        W22725  37.825  42.322   0.412
54321W        W22726   3.902   3.165   2.134
54322W        W22727  19.602  41.019  10.641
54323W        W22728  23.252  20.340  14.534
54324W        W22729  26.713  41.369   2.839
54325W        W22730  41.412  43.309   4.383
54326W        W22731  29.617  17.516  14.893
54327W        W22732  43.223  17.671  13.989
54328W        W22733  19.896  27.108   2.650
54329W        W22734  40.450  19.472   2.355
54330W        W22735  21.932   0.447   3.606
54331W        W22736  35.864  38.776   1.365
54332W        W22737   8.894  16.714   0.385
54333W        W22738   2.738  15.825  14.010
54334W        W22739  23.282  32.014   2.327
54335W        W22740   0.774  14.563   2.849
54336W        W22741  10.198   6.385  14.303
54337W        W22742  29.210  35.850   1.143
54338W        W22743  42.870   1.196  11.516
54339W        W22744  38.316  28.748   1.918
54340W        W22745  33.494  20.700   1.939
54341W        W22746  16.687  20.173  14.544
54342W        W22747  38.757  26.460  13.038
54343W        W22748  21.790  16.356   1.253
54344W        W22749  21.122  18.103   3.700
54345W        W22750  10.876  19.775  12.539
54346W        W22751  36.065  40.224   4.968
54347W        W22752   0.427  34.577   3.130
54348W        W22753  13.214  18.260   1.822
54349W        W22754  24.701  29.087  13.408
54350W        W22755  33.843  26.824   1.810
54351W        W22756  32.943   2.530  13.818
54352W        W22757  26.112  43.310   0.303
54353W        W22758  10.915   1.397  14.772
54354W        W22759  44.875  14.218   0.737
54355W        W22760   7.786  30.550  11.145
54356W        W22761  26.002  35.172  11.603
54357W        W22762  40.336  24.217   5.033
54358W        W22763  18.825  12.007  13.453
54359W        W22764  33.497  18.181   1.255
54360W        W22765   1.788  34.217  12.058
54361W        W22766  14.315   1.277  13.271
54362W        W22767  39.974   2.980  13.944
54363W        W22768  35.647  12.180  12.530
54364W        W22769   1.287  35.927   1.815
54365W        W22770   6.240  11.445   3.712
54366W        W22771  42.491  35.989   3.363
54367W        W22772   1.986  20.288  14.119
54368W        W22773  20.678  14.674   1.708
54369W        W22774  31.590  13.031   4.990
54370W        W22775  25.690  37.829  11.973
54371W        W22776   5.362  23.129  13.371
54372W        W22777  35.477  13.571   4.703
54373W        W22778   3.873  39.022   2.225
54374W        W22779  17.062  28.093  13.401
54375W        W22780   0.557  44.353  12.554
54376W        W22781   8.190  29.830  12.189
54377W        W22782  18.300  40.359   2.747
54378W        W22783  40.044   4.717   2.645
54379W        W22784  30.208   3.578  11.083
54380W        W22785  30.888   0.020  12.386
54381W        W22786  40.947   3.491   0.894
54382W        W22787  38.008  30.581   0.387
54383W        W22788  11.232  25.917   3.162
54384W        W22789   0.671  12.397   3.911
54385W        W22790  37.573  21.671  10.377
54386W        W22791  24.435  18.982  13.485
54387W        W22792   4.906  35.557   2.781
54388W        W22793  11.651  10.033  11.215
54389W        W22794  40.483   2.522  10.599
54390W        W22795  41.498  29.221   4.642
54391W        W22796  32.034   3.281   1.326
54392W        W22797  18.755  36.293  11.120
54393W        W22798  39.551  21.168   0.721
54394W        W22799   2.166  32.146   4.144
54395W        W22800  34.598  29.855  11.121
54396W        W22801   0.397  16.817  13.757
54397W        W22802  20.238  28.899   1.149
54398W        W22803  41.792   5.526  11.145
54399W        W22804   3.781  17.576  13.534
54400W        W22805  23.724   8.850  12.263
54401W        W22806  29.227  25.633  13.627
54402W        W22807  10.346  33.998   3.861
54403W        W22808  23.716  21.193  10.878
54404W        W22809  32.678  24.607   3.723
54405W        W22810  26.372  34.505  12.751
54406W        W22811  39.465  13.200   1.284
54407W        W22812  16.505  35.057   3.171
54408W        W22813  28.394  18.707   2.640
54409W        W22814  40.593   3.172   2.544
54410W        W22815  28.575  32.084  13.308
54411W        W22816  34.626   9.190   4.670
54412W        W22817   8.239  37.237   2.757
54413W        W22818  37.716  37.155  14.923
54414W        W22819  17.844  27.490  12.567
54415W        W22820  33.502  27.982   4.860
54416W        W22821  39.023  33.469   0.245
54417W        W22822  21.779  23.531  10.698
54418W        W22823  24.222   3.406   1.365
54419W        W22824  28.606   6.822   0.927
54420W        W22825   3.294  29.183  13.822
54421W        W22826  16.225   3.060  11.554
54422W        W22827  12.287   4.289  12.617
54423W        W22828   4.919  18.331   4.389
54424W        W22829  20.254   6.866   1.984
54425W        W22830   8.462   9.409  14.801
54426W        W22831  36.873   0.877  14.293
54427W        W22832  12.393  40.330   3.123
54428W        W22833  44.368  11.478   9.894
54429W        W22834   8.697  36.459  13.873
54430W        W22835   3.429  17.811  14.368
54431W        W22836   0.366  18.738  14.352
54432W        W22837   1.368   5.495  12.146
54433W        W22838  40.754  18.814  11.646
54434W        W22839   3.899  28.110  10.659
54435W        W22840  21.141  37.816   0.208
54436W        W22841  34.939  34.726  10.304
54437W        W22842   8.718  37.374  12.373
54438W        W22843  30.636  22.983   1.460
54439W        W22844   4.533   5.175   5.108
54440W        W22845  21.170  20.029  11.019
54441W        W22846  35.906  25.975  14.768
54442W        W22847   0.843  13.224  10.920
54443W        W22848  11.305  24.900  13.385
54444W        W22849  40.319   0.102   2.024
54445W        W22850   5.974  38.991  12.814
54446W        W22851  42.079   2.412   3.145
54447W        W22852  41.073  36.607   1.489
54448W        W22853  17.185  27.983   5.003
54449W        W22854  41.110  15.803   3.735
54450W        W22855  19.810   3.418   9.937
54451W        W22856  44.375  24.626   3.300
54452W        W22857  38.479  13.932   3.188
54453W        W22858  37.341  28.965  13.984
54454W        W22859  29.085   1.298  12.090
54455W        W22860  33.817  28.345  10.963
54456W        W22861  41.750  37.143   2.463
54457W        W22862  27.226   3.049   2.452
54458W        W22863  14.101  20.768   0.894
54459W        W22864   9.222  18.235   3.347
54460W        W22865   5.079  42.357   2.368
54461W        W22866  21.667  18.361   2.623
54462W        W22867  29.201  31.075   3.024
54463W        W22868  24.138  29.568  14.952
54464W        W22869  37.297  29.860   2.344
54465W        W22870  17.177   6.764   9.723
54466W        W22871  38.621   8.193   4.544
54467W        W22872  24.608  27.211   1.884
54468W        W22873  35.388  36.107  13.898
54469W        W22874  28.913  38.991  11.574
54470W        W22875  33.898  19.669   2.687
54471W        W22876  37.868  37.432   1.354
54472W        W22877   1.849  23.470   3.975
54473W        W22878  13.319  40.325  12.965
54474W        W22879  36.101  38.535  12.462
54475W        W22880  43.987  44.708   0.812
54476W        W22881  17.063   6.598   5.411
54477W        W22882  21.415  33.539   0.694
54478W        W22883  43.778  43.003   2.852
54479W        W22884   6.347   2.687   0.207
54480W        W22885  43.234  43.303   2.148
54481W        W22886  10.684  36.788  11.212
54482W        W22887   4.216  23.333   0.727
54483W        W22888  17.564  20.751  12.742
54484W        W22889  15.092   9.671   3.425
54485W        W22890  40.611   4.204   4.071
54486W        W22891   7.360  39.618   0.922
54487W        W22892  32.045  42.837  11.274
54488W        W22893  18.805   5.394   1.720
54489W        W22894  15.690  32.037   2.376
54490W        W22895  23.013  42.319  14.524
54491W        W22896  42.635  11.601   3.123
54492W        W22897  18.652  26.239  13.912
54493W        W22898  44.856  39.840  11.530
54494W        W22899  15.870  31.564  11.334
54495W        W22900  18.039  26.563  10.613
54496W        W22901   2.476  37.895  10.495
54497W        W22902   4.010   6.678  13.990
54498W        W22903   7.758  28.674   2.185
54499W        W22904  10.865  12.821  10.743
54500W        W22905  18.793  32.544  10.753
54501W        W22906  37.701  44.128  10.318
54502W        W22907   6.941  15.089   1.932
54503W        W22908   1.550   7.777  13.999
54504W        W22909  38.196   8.932  12.075
54505W        W22910  11.764  27.469   0.306
54506W        W22911  15.125   4.789  11.273
54507W        W22912  20.452  19.153  13.762
54508W        W22913  41.946   7.400  10.681
54509W        W22914  14.767  27.862   2.191
54510W        W22915   1.252  14.686  10.626
54511W        W22916  10.910  32.546  11.030
54512W        W22917  22.531   2.406  13.112
54513W        W22918  14.694  16.068   0.318
54514W        W22919  27.932  26.264  12.839
54515W        W22920  21.067  30.263   3.129
54516W        W22921  10.135  36.738   4.068
54517W        W22922  33.544  17.764   0.019
54518W        W22923  29.491  44.303   3.306
54519W        W22924   9.153   4.950  14.326
54520W        W22925  19.738  32.971   1.204
54521W        W22926  18.164  14.086   2.362
54522W        W22927  18.597  44.035   0.517
54523W        W22928  13.110  10.823   0.865
54524W        W22929  26.624  42.534   3.199
54525W        W22930  14.731  30.649   0.305
54526W        W22931  19.727  24.991   1.710
54527W        W22932  29.508  21.181  10.453
54528W        W22933  35.068  18.875   1.604
54529W        W22934   4.171  24.963   4.133
54530W        W22935   2.907  23.746  13.443
54531W        W22936  43.532  40.619   0.833
54532W        W22937  39.107  24.149   2.058
54533W        W22938  31.419  32.167  13.514
54534W        W22939  25.458   2.602   4.903
54535W        W22940  37.898  28.246   4.853
54536W        W22941  39.263  21.555   0.978
54537W        W22942  30.197  37.236   3.537
54538W        W22943   9.669   4.719   2.762
54539W        W22944  21.223   9.410   9.802
54540W        W22945   8.730  24.105   4.600
54541W        W22946  39.803   2.431  11.143
54542W        W22947   7.816  37.929   2.844
54543W        W22948  20.659  32.711   3.327
54544W        W22949   5.648  33.343  12.618
54545W        W22950  38.823  43.656  12.148
54546W        W22951  33.925  12.074   0.913
54547W        W22952  40.084  42.027   2.219
54548W        W22953  30.878  32.994   4.253
54549W        W22954   2.179  29.303  14.472
54550W        W22955  17.027   4.500   0.909
54551W        W22956  44.714   1.396   1.698
54552W        W22957  14.441  28.074   1.833
54553W        W22958  14.682   8.314  13.409
54554W        W22959  12.891  11.402  13.278
54555W        W22960  24.049  12.345   0.984
54556W        W22961  24.785  43.735  13.304
54557W        W22962  42.094  20.500   2.661
54558W        W22963  28.992   1.060  14.873
54559W        W22964  36.863  39.900   2.838
54560W        W22965  30.429  22.528  12.465
54561W        W22966  22.497   6.858  11.989
54562W        W22967  20.056  37.661  14.464
54563W        W22968  10.982  12.865   4.528
54564W        W22969  32.580  21.661  10.675
54565W        W22970  33.607   5.317   3.787
54566W        W22971  21.972   9.233   3.203
54567W        W22972  37.198  21.981  11.579
54568W        W22973   1.898  17.313   3.269
54569W        W22974  19.841  28.178   0.714
54570W        W22975  43.428  41.988  14.427
54571W        W22976  36.929  37.755  12.565
54572W        W22977  18.523  12.751   2.312
54573W        W22978  37.841  36.926   1.354
54574W        W22979  16.790  44.529   4.122
54575W        W22980   1.235  12.546   2.070
54576W        W22981  34.910  41.482   0.694
54577W        W22982  24.208  44.720  11.284
54578W        W22983  10.830  25.445   1.200
54579W        W22984  13.197  30.589  13.799
54580W        W22985   6.683  18.356  11.563
54581W        W22986  35.066  31.913  10.740
54582W        W22987   1.300  15.592  11.041
54583W        W22988  41.638  40.074   0.546
54584W        W22989  39.075  15.191  14.788
54585W        W22990   9.802  12.295   3.628
54586W        W22991  33.199  26.168   2.836
54587W        W22992  43.985  17.014  14.548
54588W        W22993   4.774   0.033   0.865
54589W        W22994   6.358  16.593  12.903
54590W        W22995  37.581   2.333  12.226
54591W        W22996   5.940  34.532  11.736
54592W        W22997   8.057   2.114  11.578
54593W        W22998   0.246  26.010  14.559
54594W        W22999  26.165  23.115   1.418
54595W        W23000  11.800  37.057   0.484
54596W        W23001  24.435  21.996   1.769
54597W        W23002  33.309  19.337  13.425
54598W        W23003  18.061  33.949   1.906
54599W        W23004  36.250  10.211  14.217
54600W        W23005  33.027  19.259  10.773
54601W        W23006  39.425  35.489  11.448
54602W        W23007  10.430   0.415  10.577
54603W        W23008  16.835  10.709  11.506
54604W        W23009  21.278   4.282  14.362
54605W        W23010   4.975   2.484  12.434
54606W        W23011   2.463  33.527   0.171
54607W        W23012  11.820  27.599   4.234
54608W        W23013  43.762  24.766  10.869
54609W        W23014  34.393   3.751   1.286
54610W        W23015  18.193   3.232  11.859
54611W        W23016  25.092   1.922   2.122
54612W        W23017  10.449  24.142   3.213
54613W        W23018  28.065  44.057   3.079
54614W        W23019   5.219  26.455  13.437
54615W        W23020  42.091  11.250  12.430
54616W        W23021  36.446  33.358   0.309
54617W        W23022  29.151  21.002   2.687
54618W        W23023   4.387  11.213   1.341
54619W        W23024   8.599   3.746   0.467
54620W        W23025  44.372  17.998   3.174
54621W        W23026  19.338   3.718   5.047
54622W        W23027   4.553   3.526  14.398
54623W        W23028  37.583  34.116   0.933
54624W        W23029  34.882  13.898   4.273
54625W        W23030  30.732  25.214   3.782
54626W        W23031  28.884   2.456  14.905
54627W        W23032   3.811   5.659  14.070
54628W        W23033  22.726   4.369   4.362
54629W        W23034   0.926  37.542  10.768
54630W        W23035  41.406  11.664   0.719
54631W        W23036  29.459  21.884  12.524
54632W        W23037  12.257   7.757   3.992
54633W        W23038  11.499  14.673   0.648
54634W        W23039  25.292  23.216   0.870
54635W        W23040   3.934   9.351  12.621
54636W        W23041   2.269  42.954  11.965
54637W        W23042  27.484   9.348   3.698
54638W        W23043  28.349  44.357  10.590
54639W        W23044  43.205  38.518   3.159
54640W        W23045  43.186   8.231   2.733
54641W        W23046   2.473   9.276  13.535
54642W        W23047   9.362  11.423  10.692
54643W        W23048   8.935  38.062   2.751
54644W        W23049  28.487   3.789  13.407
54645W        W23050  26.985  20.572  11.631
54646W        W23051  21.270  26.552  14.099
54647W        W23052  28.732   4.929   2.208
54648W        W23053  21.310  21.675  13.098
54649W        W23054  19.082  17.550  12.006
54650W        W23055  44.786  26.408  10.813
54651W        W23056  17.814  21.678  10.241
54652W        W23057  36.604  28.048   4.353
54653W        W23058  19.996   9.836   2.646
54654W        W23059  39.836   0.568  14.057
54655W        W23060  20.528  10.555  11.691
54656W        W23061  14.248  30.053  10.921
54657W        W23062  44.871  10.087   1.622
54658W        W23063  30.207  42.991   3.265
54659W        W23064  24.257  17.564   3.386
54660W        W23065  28.665  35.371   4.168
54661W        W23066  22.783  26.421  12.452
54662W        W23067  35.509  21.412  14.864
54663W        W23068  40.284  22.053   0.267
54664W        W23069  34.580  41.698  11.533
54665W        W23070  41.411  30.909   5.111
54666W        W23071  20.948  23.900  11.509
54667W        W23072   7.996  26.393   4.057
54668W        W23073  29.387  24.561   1.065
54669W        W23074  24.228  15.549   2.587
54670W        W23075  28.840  16.058   4.955
54671W        W23076  42.964  10.046  12.440
54672W        W23077   2.459  10.424   3.710
54673W        W23078  19.080  44.648   4.849
54674W        W23079  29.696  26.120   0.391
54675W        W23080  44.414   9.720  11.202
54676W        W23081   7.221  12.746   1.699
54677W        W23082   9.101   2.471   0.290
54678W        W23083  33.360   8.622   2.492
54679W        W23084   1.950  44.925   1.286
54680W        W23085  21.553  15.896   1.342
54681W        W23086  24.054  12.946   4.915
54682W        W23087  24.472  23.716   2.755
54683W        W23088  34.527   9.720   0.043
54684W        W23089  10.842  14.914   2.661
54685W        W23090  28.142  41.951   1.369
54686W        W23091  15.644  20.668  10.166
54687W        W23092  42.832  13.305   4.239
54688W        W23093  22.270  29.321  10.657
54689W        W23094  25.556  14.179  12.375
54690W        W23095  10.867   8.320  12.740
54691W        W23096  31.361  22.993  14.070
54692W        W23097   9.821  10.653  14.047
54693W        W23098  31.844   9.941  13.976
54694W        W23099   5.353   4.377   4.717
54695W        W23100  26.604  23.270  13.445
54696W        W23101   5.965   0.958  12.335
54697W        W23102   2.982  24.572   1.408
54698W        W23103   8.167  23.777  12.637
54699W        W23104  43.262  29.677  14.015
54700W        W23105  29.530  33.980  12.902
54701W        W23106  14.551  25.613  13.327
54702W        W23107   2.670  44.291   0.323
54703W        W23108  18.722  34.991   3.157
54704W        W23109  24.258   1.673   4.227
54705W        W23110   9.145  12.174  14.531
54706W        W23111  26.504  41.428   0.459
54707W        W23112  30.522   4.937  13.638
54708W        W23113  33.119   6.707   3.197
54709W        W23114  30.169  23.235  14.798
54710W        W23115  10.201  40.272  13.402
54711W        W23116   5.398  44.124  11.514
54712W        W23117  40.027  30.566   1.248
54713W        W23118  28.963   7.396   4.647
54714W        W23119  41.947  21.641  14.076
54715W        W23120  23.952  29.124  14.698
54716W        W23121  20.570   8.775  14.329
54717W        W23122  13.812  15.607   0.248
54718W        W23123  15.991  39.924   0.057
54719W        W23124   6.513  21.268  12.439
54720W        W23125  18.725  44.781  14.453
54721W        W23126   9.251   6.872   4.266
54722W        W23127  10.783  31.785   4.994
54723W        W23128  23.113  13.814  12.878
54724W        W23129   4.791  19.566   3.247
54725W        W23130  36.075  10.675   2.468
54726W        W23131  43.193  42.934  12.994
54727W        W23132  41.983  28.662  10.952
54728W        W23133  31.352   3.623   0.738
54729W        W23134   4.281   7.907   2.302
54730W        W23135  38.864  23.047  14.150
54731W        W23136  33.560   0.730  12.945
54732W        W23137  29.186  23.129  14.328
54733W        W23138  32.943  33.158  11.618
54734W        W23139  43.125  36.488  11.355
54735W        W23140  14.420  15.510  13.419
54736W        W23141  18.613  25.361   4.986
54737W        W23142  12.318   2.466  10.730
54738W        W23143  26.623   3.331   0.697
54739W        W23144   4.803  40.780  12.887
54740W        W23145  18.579   2.175   1.881
54741W        W23146  29.511  28.759   1.900
54742W        W23147  20.468   9.691   0.885
54743W        W23148   6.266  40.301   1.510
54744W        W23149  37.081  31.024  14.745
54745W        W23150  20.704   1.424  11.517
54746W        W23151  31.567  23.257  14.556
54747W        W23152  26.933  23.754   3.336
54748W        W23153  39.960  30.039  14.849
54749W        W23154  26.942   9.357  12.400
54750W        W23155  20.020   3.387  12.068
54751W        W23156  30.538  27.736  14.533
54752W        W23157  33.895  12.665   0.289
54753W        W23158  28.176  34.112   3.313
54754W        W23159   5.761  40.843   4.868
54755W        W23160   4.803  21.351   4.349
54756W        W23161  20.171  41.864  14.306
54757W        W23162  11.478   1.875  13.910
54758W        W23163   5.452  16.711  14.893
54759W        W23164  26.855  29.531   4.439
54760W        W23165  15.230  23.737   0.082
54761W        W23166  40.464  34.836  14.061
54762W        W23167   1.786  27.218   3.418
54763W        W23168   7.886  36.448  14.497
54764W        W23169  38.368  24.953   0.583
54765W        W23170  31.496  14.140  11.210
54766W        W23171  41.152  36.395   4.704
54767W        W23172  37.006   6.920   3.628
54768W        W23173  23.977  38.550  14.592
54769W        W23174  28.292  39.570   9.913
54770W        W23175  21.269  11.128   2.821
54771W        W23176   5.164  13.678  11.675
54772W        W23177  39.331  17.284   4.285
54773W        W23178  44.968  21.715   4.921
54774W        W23179   4.741  41.341  13.698
54775W        W23180  40.335  21.618  13.458
54776W        W23181   2.135  44.273  11.877
54777W        W23182   1.315  27.002   1.693
54778W        W23183  17.748  27.201   3.126
54779W        W23184  36.451   2.501  13.810
54780W        W23185  16.055  17.081  11.577
54781W        W23186  37.077  44.302  13.837
54782W        W23187  29.660  38.241  12.415
54783W        W23188  28.445  42.229   4.142
54784W        W23189  21.146  22.609   4.591
54785W        W23190  35.416  34.891  11.948
54786W        W23191  35.604  28.494  10.721
54787W        W23192  13.647   9.408   1.120
54788W        W23193  29.152  15.465  11.530
54789W        W23194   7.961   9.256  14.718
54790W        W23195  15.777  33.579   2.476
54791W        W23196  43.473  17.518  12.919
54792W        W23197  36.936  22.525   1.240
54793W        W23198  28.967  14.923  12.237
54794W        W23199  24.780  44.149   2.444
54795W        W23200  28.403  38.963  11.479
54796W        W23201   2.077  35.231   2.637
54797W        W23202   3.715  39.814   3.272
54798W        W23203  36.581   4.073   0.726
54799W        W23204  11.227  18.170  10.910
54800W        W23205  20.546  42.437   4.601
54801W        W23206  15.707  37.143  10.572
54802W        W23207  18.301  28.599  14.005
54803W        W23208   7.237  24.236   3.745
54804W        W23209  31.786  31.134   1.804
54805W        W23210   4.838  32.081   4.082
54806W        W23211   2.030   1.201  10.559
54807W        W23212  36.573  37.060  14.008
54808W        W23213   4.256   3.910   3.735
54809W        W23214   5.858  11.341  11.898
54810W        W23215   1.741  26.705   0.936
54811W        W23216  22.115   1.337  11.487
54812W        W23217  38.771  17.610   1.859
54813W        W23218  27.482  42.542  11.038
54814W        W23219  24.622   3.934  13.103
54815W        W23220  38.013  37.017  12.509
54816W        W23221  44.899  20.776   3.145
54817W        W23222  40.525  10.909  14.419
54818W        W23223   2.454  26.054   2.871
54819W        W23224  31.896  20.943  14.841
54820W        W23225  24.631  17.597  11.458
54821W        W23226  11.387  41.373   3.129
54822W        W23227  28.918  40.175   3.699
54823W        W23228  12.202  18.097  13.122
54824W        W23229   5.266  29.499  11.430
54825W        W23230   6.882  33.950  14.741
54826W        W23231  22.809   8.276   2.783
54827W        W23232  16.099  30.504  11.519
54828W        W23233  27.860  11.642  10.754
54829W        W23234  16.090  27.209   2.999
54830W        W23235  22.426   0.757  12.382
54831W        W23236  38.559  30.410  14.247
54832W        W23237  21.602   5.795   0.843
54833W        W23238  40.142  36.287   4.982
54834W        W23239  24.004  16.236  11.543
54835W        W23240  26.978  32.150  12.904
54836W        W23241  32.901  37.818  10.657
54837W        W23242  15.096   9.289   5.058
54838W        W23243  27.973   8.145   3.411
54839W        W23244  17.763   8.640   4.136
54840W        W23245   9.652  12.731  14.076
54841W        W23246   4.501  32.329   4.513
54842W        W23247  27.458  26.436   3.750
54843W        W23248  16.757  40.772   1.900
54844W        W23249  41.857   9.304   3.476
54845W        W23250   1.883  38.665   3.090
54846W        W23251  44.650  19.311  14.919
54847W        W23252  16.006   9.212   2.267
54848W        W23253   6.671  43.910   3.936
54849W        W23254   0.309  13.202   3.413
54850W        W23255  28.867  20.628   3.304
54851W        W23256  33.962   4.305  11.473
54852W        W23257  16.626  15.529   0.826
54853W        W23258  42.035  19.822   3.401
54854W        W23259  25.009   9.779  10.520
54855W        W23260  34.941   0.780   4.600
54856W        W23261  21.295  10.787   3.224
54857W        W23262   7.029  21.289  14.100
54858W        W23263  25.032  31.389  13.553
54859W        W23264  16.144  11.010   3.970
54860W        W23265  41.857  30.820   0.258
54861W        W23266  34.136  11.095   1.788
54862W        W23267  21.697  38.067  13.799
54863W        W23268  35.843  32.713   3.259
54864W        W23269   3.241   5.452   1.799
54865W        W23270  10.666  33.380  12.065
54866W        W23271  17.681  38.624  10.385
54867W        W23272   4.294  31.948  14.908
54868W        W23273  16.758  41.292   4.088
54869W        W23274  19.253   2.932  13.258
54870W        W23275  32.879  37.527  11.142
54871W        W23276  29.194  39.093  14.387
54872W        W23277  10.570  12.025  10.476
54873W        W23278  44.905  26.961  11.474
54874W        W23279   5.451  24.022  12.904
54875W        W23280  35.318  26.634   4.523
54876W        W23281   1.181  42.444   4.221
54877W        W23282  39.276  38.785  13.428
54878W        W23283  14.063   2.852  11.988
54879W        W23284  15.391  34.118  11.574
54880W        W23285  39.795  18.179  13.379
54881W        W23286  42.133   3.150  12.455
54882W        W23287   9.628  12.162  14.820
54883W        W23288  23.363  28.133   3.253
54884W        W23289  11.315  25.536  13.840
54885W        W23290   4.142  41.343   0.794
54886W        W23291  24.528   4.788   0.876
54887W        W23292  23.418  42.493   3.293
54888W        W23293  33.069  28.478  13.192
54889W        W23294  22.491  19.444   0.943
54890W        W23295  30.109  28.277  14.247
54891W        W23296  43.406   7.190  13.143
54892W        W23297  15.631   4.247  13.268
54893W        W23298  28.718  38.380  11.909
54894W        W23299   3.967  39.760  10.218
54895W        W23300  26.378  12.293   2.680
54896W        W23301   1.525   1.204  14.404
54897W        W23302   7.191  12.094   0.001
54898W        W23303  23.721  42.351  10.639
54899W        W23304  27.476  42.555   1.781
54900W        W23305  29.103  37.581   4.594
54901W        W23306  33.440  20.143  13.809
54902W        W23307   9.876   7.525  11.996
54903W        W23308   9.849  12.395  12.468
54904W        W23309  19.502  39.796  14.562
54905W        W23310  30.304   0.185  10.765
54906W        W23311  25.317   5.726  12.549
54907W        W23312  12.617  34.191  12.548
54908W        W23313  17.323  34.693  10.508
54909W        W23314  37.834   2.709  12.977
54910W        W23315  26.062  21.771  14.837
54911W        W23316  26.751  41.377  11.011
54912W        W23317  37.609   0.459  14.192
54913W        W23318  40.061  44.028  13.996
54914W        W23319   0.950   4.398   4.090
54915W        W23320  44.038  35.157  12.550
54916W        W23321  21.017  34.027   3.441
54917W        W23322  34.595  37.867  12.157
54918W        W23323  34.338  29.897  11.998
54919W        W23324   7.300  31.370  11.810
54920W        W23325  15.971  11.467  12.098
54921W        W23326  39.825   2.659   3.655
54922W        W23327  15.033  44.605   2.839
54923W        W23328  39.555  34.046  13.543
54924W        W23329  16.340  20.112  14.966
54925W        W23330   3.132  13.082   4.647
54926W        W23331  21.295  20.349   0.936
54927W        W23332  11.267  39.088   3.783
54928W        W23333  33.426  29.589  14.027
54929W        W23334  38.817  32.581   4.044
54930W        W23335  23.724  31.596   2.303
54931W        W23336   8.199   7.790   4.669
54932W        W23337  33.662   7.812  13.008
54933W        W23338  32.720  36.103   2.716
54934W        W23339   5.813   0.215   3.264
54935W        W23340   2.127  22.733   9.982
54936W        W23341  10.896  27.015   0.241
54937W        W23342  17.068  29.286  11.824
54938W        W23343   3.831   9.917  14.323
54939W        W23344  28.105  32.165   0.826
54940W        W23345  20.315  19.613  10.098
54941W        W23346  11.162  35.459   0.065
54942W        W23347  12.787  24.122  13.729
54943W        W23348  15.333  16.181   1.905
54944W        W23349  16.378  11.002   4.448
54945W        W23350  20.112  34.954   0.513
54946W        W23351   3.842  44.705  12.507
54947W        W23352  29.820  17.481  11.219
54948W        W23353  21.175  35.218  14.000
54949W        W23354   4.799  33.232  14.766
54950W        W23355  29.458  27.818  12.366
54951W        W23356  27.548  23.025   1.794
54952W        W23357  30.972  39.703   1.807
54953W        W23358  38.046   0.555  11.618
54954W        W23359  32.332   2.574   2.992
54955W        W23360  18.062  22.212   4.492
54956W        W23361  39.128  30.611   2.593
54957W        W23362  44.383   3.489  11.715
54958W        W23363  31.662  22.030  11.292
54959W        W23364  42.263  15.517  14.860
54960W        W23365  25.795  28.227  14.557
54961W        W23366   4.539  42.522   1.063
54962W        W23367  12.125  17.300  12.659
54963W        W23368   7.682  31.975  12.359
54964W        W23369  24.998  41.823   2.543
54965W        W23370  18.088  40.891   3.614
54966W        W23371  29.433  18.563   2.778
54967W        W23372   6.443  33.454   2.802
54968W        W23373  26.970  12.813  14.889
54969W        W23374  19.113  20.354  11.915
54970W        W23375   2.373  27.970   0.373
54971W        W23376   4.820  16.057   0.410
54972W        W23377  21.235  33.348  14.350
54973W        W23378   2.805  13.859   2.077
54974W        W23379  21.234  44.116   1.258
54975W        W23380  32.844  11.972   1.414
54976W        W23381   0.735  39.597  13.479
54977W        W23382  22.724  23.281   0.604
54978W        W23383  29.072  41.894  11.049
54979W        W23384  13.978  27.196  11.033
54980W        W23385  43.805   4.631   1.818
54981W        W23386  34.280  24.251  12.838
54982W        W23387  23.998  13.911   1.940
54983W        W23388  39.563  22.536  10.710
54984W        W23389  35.486  24.097  13.502
54985W        W23390  37.082  27.738   3.669
54986W        W23391  21.008   9.226  11.244
54987W        W23392  17.679  42.884  10.693
54988W        W23393   7.618   2.221   0.287
54989W        W23394  12.008  36.163   0.350
54990W        W23395  27.157  31.512   1.132
54991W        W23396  15.890  34.148  13.204
54992W        W23397   1.729  34.718  12.148
54993W        W23398   1.783   0.180   0.865
54994W        W23399   0.077  16.190   0.858
54995W        W23400   3.683  23.466   2.253
54996W        W23401  42.331  32.641  12.841
54997W        W23402  23.673  30.036   4.013
54998W        W23403  16.268   6.455   3.342
54999W        W23404  17.250  32.773   2.687
55000W        W23405   4.410  41.996   4.149
55001W        W23406  23.487  21.469  11.424
55002W        W23407  16.226  35.059  14.898
55003W        W23408  40.539  44.154  12.785
55004W        W23409  10.147  14.626   1.680
55005W        W23410  13.876  20.296  11.882
55006W        W23411  18.238  21.498  11.108
55007W        W23412   1.388  10.749  10.684
55008W        W23413   6.235  18.647   1.338
55009W        W23414   0.361  11.672   2.936
55010W        W23415  37.457  41.531  12.922
55011W        W23416   1.455   0.050   4.502
55012W        W23417  10.291  13.803   3.555
55013W        W23418  16.122  32.373   3.682
55014W        W23419  30.095  40.798   3.127
55015W        W23420  30.980   4.346   2.456
55016W        W23421  32.031  36.868   0.645
55017W        W23422  37.330  30.659  13.143
55018W        W23423   1.185  44.642   4.339
55019W        W23424  18.776  18.175  13.892
55020W        W23425  23.072  26.400  13.273
55021W        W23426   6.350  13.328  14.894
55022W        W23427  16.752  25.664  13.036
55023W        W23428   8.155  21.493   5.117
55024W        W23429  31.993  31.538  14.699
55025W        W23430   8.790  22.711   4.057
55026W        W23431   6.346  27.081  12.762
55027W        W23432   6.130  15.748  11.532
55028W        W23433  15.911  29.332  13.547
55029W        W23434  16.667  32.156   3.194
55030W        W23435  29.595   1.196   3.723
55031W        W23436   8.902   6.248  11.057
55032W        W23437  12.571  13.258  10.887
55033W        W23438   2.800  21.244   3.740
55034W        W23439  40.409  42.506   3.211
55035W        W23440  17.487  39.528  10.672
55036W        W23441  34.283  10.838  10.692
55037W        W23442  23.677  37.504  13.892
55038W        W23443  19.288   4.445   1.346
55039W        W23444  38.937  14.154   3.277
55040W        W23445   2.975  32.449   0.790
55041W        W23446  28.983   0.824   2.646
55042W        W23447  16.846  38.615  11.845
55043W        W23448   6.778  42.131  11.948
55044W        W23449   9.823   9.619  11.801
55045W        W23450  30.550  43.247   2.153
55046W        W23451  27.454  35.158  11.668
55047W        W23452  16.491   6.977   3.279
55048W        W23453  40.311  43.755   2.680
55049W        W23454  16.227  29.564   0.256
55050W        W23455  26.389   7.691   4.602
55051W        W23456   7.190   6.350  12.028
55052W        W23457   5.341  20.652   1.490
55053W        W23458  24.624  35.602   3.736
55054W        W23459  17.254  28.607   1.361
55055W        W23460   9.312  17.645  11.374
55056W        W23461  19.640   4.346   3.345
55057W        W23462   8.880   9.313  10.685
55058W        W23463  19.563  30.937   4.483
55059W        W23464  33.839  37.237  14.967
55060W        W23465  10.790  15.141   1.240
55061W        W23466   8.712  14.817   0.940
55062W        W23467   3.490  34.989   0.823
55063W        W23468   7.649  35.601  14.797
55064W        W23469  31.176  17.743   4.208
55065W        W23470  34.448  43.701   1.854
55066W        W23471  15.325  20.997   0.847
55067W        W23472  35.570  24.755   3.629
55068W        W23473  41.808  30.131  12.034
55069W        W23474   5.269  14.714  12.471
55070W        W23475  11.394   0.390   3.654
55071W        W23476   4.463  23.219  12.875
55072W        W23477   5.351  18.525   4.201
55073W        W23478  44.477  11.823   2.452
55074W        W23479   1.679   7.325  12.987
55075W        W23480  16.169  14.664  10.945
55076W        W23481  18.707  19.690   0.458
55077W        W23482  27.539   3.442   2.684
55078W        W23483  20.598  41.272   2.742
55079W        W23484  20.573  10.005  12.307
55080W        W23485  23.681  21.507   1.800
55081W        W23486  31.346  39.447   3.608
55082W        W23487  30.661   9.218  12.370
55083W        W23488  38.621  38.290   9.738
55084W        W23489  29.954  40.190   3.283
55085W        W23490  16.570   9.121  13.350
55086W        W23491  24.169  27.752  13.461
55087W        W23492  33.772  38.810   2.780
55088W        W23493  28.295  36.750  14.495
55089W        W23494  32.942   8.937  13.239
55090W        W23495  33.382  31.646  14.788
55091W        W23496  21.150  39.114   0.808
55092W        W23497  15.631  12.410   0.738
55093W        W23498   6.453  43.377   1.992
55094W        W23499   4.009  42.896  14.592
55095W        W23500  37.085  10.178  10.815
55096W        W23501   2.189  43.934   3.845
55097W        W23502   9.824  41.856   2.964
55098W        W23503  14.325  40.938   1.749
55099W        W23504  36.862  25.229   2.207
55100W        W23505  11.278  21.592   2.400
55101W        W23506  26.903  26.011  14.751
55102W        W23507   5.297  26.606   0.361
55103W        W23508  15.111  10.761   3.254
55104W        W23509  30.546  44.250   1.969
55105W        W23510  18.744   0.557  11.264
55106W        W23511  13.003   6.175  11.557
55107W        W23512  34.616   5.229   2.142
55108W        W23513   7.644  24.113   1.742
55109W        W23514   1.750   6.232   3.245
55110W        W23515  30.462  16.251   0.760
55111W        W23516  39.890  18.594   1.655
55112W        W23517  31.958  26.476  10.790
55113W        W23518  13.243  40.500  12.476
55114W        W23519  41.061  35.767  11.058
55115W        W23520  10.360  35.491  12.347
55116W        W23521  41.913  12.883   0.900
55117W        W23522   6.194  18.884   1.908
55118W        W23523  33.078  38.520  14.006
55119W        W23524  13.223  21.260   4.173
55120W        W23525  37.061   8.259   0.683
55121W        W23526  11.813  23.746   0.957
55122W        W23527  26.314   6.146  10.108
55123W        W23528   9.661  13.649   1.158
55124W        W23529  17.296   5.709   1.489
55125W        W23530   9.302  42.427   3.840
55126W        W23531  25.634  32.970   1.343
55127W        W23532  37.278   0.017   1.312
55128W        W23533   6.388  27.735  11.039
55129W        W23534  35.164  16.164  14.013
55130W        W23535  25.065  35.453  13.552
55131W        W23536  37.420  16.228  12.646
55132W        W23537  18.688   4.612   1.304
55133W        W23538   3.787  23.713   4.231
55134W        W23539  22.528  42.221   2.705
55135W        W23540  26.954   8.242   3.164
55136W        W23541  19.616   1.237   3.279
55137W        W23542  36.024   3.010  13.431
55138W        W23543  37.542  31.028   1.155
55139W        W23544  27.172  14.600   0.839
55140W        W23545  27.429  26.817   2.728
55141W        W23546  40.100  36.856   1.464
55142W        W23547  31.226  16.688  11.497
55143W        W23548  25.906  44.788   0.826
55144W        W23549  18.085  11.245  13.428
55145W        W23550  27.082  44.848  10.764
55146W        W23551  16.520  30.410   4.695
55147W        W23552  27.752  43.908  12.525
55148W        W23553  43.166  26.614  14.152
55149W        W23554  40.702  35.440   4.705
55150W        W23555   5.232  38.720  10.078
55151W        W23556  23.232  40.290  12.363
55152W        W23557   8.791  11.389   0.235
55153W        W23558   9.697   6.718   1.940
55154W        W23559   6.764  11.454  13.151
55155W        W23560  11.858  44.492   3.840
55156W        W23561  15.318  24.391  12.004
55157W        W23562  40.043  26.633   3.949
55158W        W23563  12.330  39.019   0.504
55159W        W23564   1.740   8.375   4.651
55160W        W23565  15.568  25.418  11.973
55161W        W23566  26.571  39.470   4.127
55162W        W23567  21.038  32.154  10.293
55163W        W23568  31.898  39.584  10.726
55164W        W23569  16.179  18.786  11.945
55165W        W23570  39.528  29.959   2.252
55166W        W23571  40.023  33.628   0.495
55167W        W23572   6.248  33.388  12.124
55168W        W23573  13.426  38.468   4.099
55169W        W23574  39.093  10.215   4.528
55170W        W23575  36.276  29.702   4.842
55171W        W23576  13.616   5.790  13.440
55172W        W23577  12.138  41.782   3.684
55173W        W23578  15.196  42.209  14.908
55174W        W23579  41.003  38.636  12.987
55175W        W23580   7.825  31.142  14.854
55176W        W23581  42.529  26.215   0.433
55177W        W23582   4.736  40.324   4.673
55178W        W23583  26.915  18.572   0.762
55179W        W23584   4.595  23.190  14.554
55180W        W23585  29.952  44.478   4.134
55181W        W23586  25.261   0.481  12.588
55182W        W23587  28.225  24.238   1.049
55183W        W23588  33.764   5.260   4.253
55184W        W23589  30.851  42.314  14.928
55185W        W23590  26.980  16.228   4.309
55186W        W23591  29.579  24.533  11.136
55187W        W23592  14.219  17.601  11.437
55188W        W23593   3.243   9.767  12.543
55189W        W23594  39.303  25.740   0.736
55190W        W23595  41.811  23.547   1.843
55191W        W23596  40.185   8.138  10.730
55192W        W23597  44.227  27.957   0.445
55193W        W23598  12.574  39.312  11.535
55194W        W23599  13.022   8.317  14.404
55195W        W23600  14.594  43.529  11.467
55196W        W23601  21.040  41.610  14.219
55197W        W23602  16.104  13.786  10.621
55198W        W23603  21.685  43.716   4.323
55199W        W23604  10.827  44.764  10.646
55200W        W23605   4.820  42.866   1.654
55201W        W23606  24.317  24.241   5.038
55202W        W23607  37.997  22.944  12.637
55203W        W23608  30.049  20.508  12.415
55204W        W23609  38.242   5.748  11.547
55205W        W23610  40.397  17.457   3.312
55206W        W23611  42.801  29.413   3.130
55207W        W23612   9.834   1.443   1.485
55208W        W23613  42.866  20.607  14.284
55209W        W23614  34.377  22.213  10.645
55210W        W23615  41.362  38.452   0.926
55211W        W23616  15.143   3.507   1.077
55212W        W23617  15.753  24.521   1.401
55213W        W23618  41.934   2.781   0.993
55214W        W23619  33.044  25.292  12.147
55215W        W23620  33.500  16.619   3.767
55216W        W23621  35.933  35.845   2.298
55217W        W23622  37.459  34.581  10.864
55218W        W23623  15.529  35.129  13.902
55219W        W23624  17.672   5.643   1.140
55220W        W23625  18.689  33.124   4.344
55221W        W23626   5.208  30.973   4.118
55222W        W23627  33.571   0.505   2.825
55223W        W23628  16.161  29.879  10.416
55224W        W23629   8.324  13.526   0.922
55225W        W23630  15.619   0.783  14.616
55226W        W23631   7.896   2.875  11.202
55227W        W23632  34.779  26.698   4.542
55228W        W23633  23.695   7.297   3.341
55229W        W23634   7.021  18.351  13.027
55230W        W23635  41.620   5.585   0.338
55231W        W23636   4.462   7.387   3.169
55232W        W23637  33.363  32.249   3.142
55233W        W23638  31.645  29.143  12.744
55234W        W23639   6.991  39.970   0.883
55235W        W23640  13.179  28.643  12.845
55236W        W23641  33.519  23.181  14.808
55237W        W23642  19.682  22.607   1.423
55238W        W23643  18.255  41.259  12.121
55239W        W23644  18.538   1.311  13.297
55240W        W23645   9.357  25.278   1.341
55241W        W23646  28.630  39.243   4.613
55242W        W23647  32.172  20.658  14.525
55243W        W23648   8.893  20.007   0.319
55244W        W23649  22.510  31.393  12.034
55245W        W23650  18.870   1.955   3.627
55246W        W23651  22.112   4.354  13.768
55247W        W23652  28.533  20.773  10.339
55248W        W23653  30.397  25.867   1.229
55249W        W23654  39.500   2.595   2.343
55250W        W23655  26.618  44.673   4.970
55251W        W23656  10.753  21.744   2.409
55252W        W23657  17.567  42.531   2.981
55253W        W23658  19.032   4.334  13.145
55254W        W23659  28.025  25.970   2.725
55255W        W23660  42.262  15.748   4.442
55256W        W23661  35.098   9.118   2.247
55257W        W23662   3.787   1.498   1.569
55258W        W23663  19.598  42.176  12.326
55259W        W23664  43.201  36.354  13.901
55260W        W23665  40.921   9.223   2.876
55261W        W23666  26.823  29.572  14.332
55262W        W23667  29.456  30.434   0.766
55263W        W23668  35.597  27.422   2.399
55264W        W23669  43.782   6.326   2.883
55265W        W23670  31.486  11.040   3.872
55266W        W23671  11.700  44.041   3.697
55267W        W23672   1.887  22.936   4.111
55268W        W23673   7.208  32.502   2.359
55269W        W23674  19.566  34.651   3.282
55270W        W23675   2.608  31.861   4.886
55271W        W23676  43.611   1.753  11.174
55272W        W23677   0.990   0.097  12.408
55273W        W23678   0.411   1.264  10.462
55274W        W23679  37.940  42.107   1.723
55275W        W23680  17.136   2.995   0.197
55276W        W23681   6.282  38.207   0.812
55277W        W23682  16.070  15.784   2.697
55278W        W23683  12.111  44.477  14.834
55279W        W23684  12.662  39.100   4.119
55280W        W23685  21.701  24.661   2.775
55281W        W23686  35.462  16.927   2.258
55282W        W23687  32.375   3.755  13.875
55283W        W23688  41.264   3.287  10.217
55284W        W23689  14.430  34.756  14.358
55285W        W23690  24.125  30.639  13.343
55286W        W23691  37.638  35.952   1.356
55287W        W23692  11.715  15.390  13.351
55288W        W23693  36.105  38.839   3.966
55289W        W23694  20.449  28.061   2.289
55290W        W23695   5.574  15.228  10.535
55291W        W23696  39.312   4.268  12.205
55292W        W23697  37.048  13.586  12.528
55293W        W23698  24.507   2.282   0.827
55294W        W23699  38.486  36.381   4.166
55295W        W23700  43.895  37.050   3.889
55296W        W23701  42.887  25.725   2.458
55297W        W23702  32.486  33.075   1.795
55298W        W23703  31.199  14.913  13.418
55299W        W23704  21.588   8.289  12.899
55300W        W23705   8.296   0.024  12.131
55301W        W23706   7.720  13.361  11.616
55302W        W23707  38.423  36.610   4.783
55303W        W23708  41.526  34.836  13.784
55304W        W23709  36.149  42.523  10.720
55305W        W23710   6.555  19.971  11.224
55306W        W23711  37.043   9.673   0.835
55307W        W23712  35.519  32.412  11.310
55308W        W23713  29.679   6.261  12.279
55309W        W23714  43.328  25.708   4.536
55310W        W23715  32.105  20.195   3.557
55311W        W23716  42.828  27.345   4.144
55312W        W23717  29.420  29.905   4.265
55313W        W23718   6.292   7.794  14.056
55314W        W23719  32.013  32.327  12.932
55315W        W23720  44.503   1.425   1.237
55316W        W23721  26.882  44.807   1.684
55317W        W23722  37.468   6.859  10.631
55318W        W23723   6.514  23.677  10.192
55319W        W23724  28.002  31.182   1.855
55320W        W23725  14.604   1.779  14.940
55321W        W23726  26.543  23.013   2.366
55322W        W23727  17.996  31.309   1.217
55323W        W23728   2.430   9.894   3.776
55324W        W23729  26.518  27.584  14.465
55325W        W23730   3.945   9.284   0.845
55326W        W23731  21.740  29.842   1.839
55327W        W23732   8.794  15.779   1.876
55328W        W23733  37.558  44.293   1.278
55329W        W23734  22.495  38.558   2.237
55330W        W23735  14.684   0.004   2.232
55331W        W23736  16.979  30.468   2.818
55332W        W23737  13.636  42.246  10.672
55333W        W23738  32.936   8.889  13.737
55334W        W23739  28.115   8.415   1.869
55335W        W23740  17.825  24.027  11.243
55336W        W23741  17.572  38.219  12.570
55337W        W23742  35.602  16.341  13.811
55338W        W23743  20.057  15.951   5.063
55339W        W23744  11.850   0.821   2.634
55340W        W23745  35.309   3.343  13.838
55341W        W23746  40.100   8.334  14.482
55342W        W23747  34.035  24.592  11.216
55343W        W23748  33.358   3.326  12.986
55344W        W23749  44.788  41.000   2.361
55345W        W23750   3.734   5.765  12.217
55346W        W23751  14.563  12.256   2.877
55347W        W23752  27.201   7.284   2.713
55348W        W23753  42.774  24.497   4.235
55349W        W23754   3.751   8.643   3.594
55350W        W23755  13.124  23.327   4.255
55351W        W23756  20.596  16.982  14.830
55352W        W23757  31.962  29.648   4.640
55353W        W23758  17.807   3.508  12.057
55354W        W23759  33.217   7.341   3.653
55355W        W23760  21.576  43.237   4.111
55356W        W23761  40.814  22.745   2.272
55357W        W23762   6.328  13.694  10.667
55358W        W23763  27.594  15.906  14.924
55359W        W23764  30.661  15.637  10.895
55360W        W23765  16.755  30.192   3.942
55361W        W23766  44.761  39.523   3.130
55362W        W23767  29.271  39.151  11.205
55363W        W23768  31.064  41.512   4.048
55364W        W23769  31.213  11.359  10.806
55365W        W23770   6.916  28.893  14.416
55366W        W23771  25.024   0.019  12.627
55367W        W23772  14.177  34.216  10.324
55368W        W23773  34.018  18.512  13.002
55369W        W23774  43.415  12.101   3.396
55370W        W23775  26.514  17.128  11.395
55371W        W23776  16.408  37.840   4.737
55372W        W23777  14.252  42.085  12.377
55373W        W23778  15.375   7.249  13.097
55374W        W23779  12.143  31.496  11.926
55375W        W23780  29.905   2.813   0.447
55376W        W23781  34.482  11.674  11.162
55377W        W23782  30.491   6.366   0.917
55378W        W23783  11.097  17.066   1.863
55379W        W23784   0.900  13.645   0.458
55380W        W23785  12.773  20.094  11.426
55381W        W23786  31.543  19.829  13.407
55382W        W23787  30.619  13.198   4.709
55383W        W23788  42.896  39.772  13.074
55384W        W23789   4.817  10.315  10.467
55385W        W23790  28.691  37.339  11.021
55386W        W23791   8.575   6.148  10.672
55387W        W23792  13.065  28.020   3.408
55388W        W23793  30.969  12.673   4.115
55389W        W23794  30.043  29.838  10.621
55390W        W23795  12.696  41.952  13.379
55391W        W23796  33.574  22.236   0.395
55392W        W23797  21.029  20.456   2.776
55393W        W23798  36.043  30.920   2.289
55394W        W23799  26.985  31.804   4.185
55395W        W23800   1.423  22.046  10.792
55396W        W23801  13.801  29.136  14.289
55397W        W23802  15.233   3.156  13.997
55398W        W23803  31.095  26.942  11.589
55399W        W23804  18.987   5.481   3.616
55400W        W23805  22.730  19.087   2.405
55401W        W23806   1.914  19.436   0.236
55402W        W23807  19.695  33.806  13.768
55403W        W23808  14.290  35.112  10.459
55404W        W23809   3.074  39.329  13.880
55405W        W23810  33.708  12.119  12.408
55406W        W23811  32.830  33.963   2.217
55407W        W23812  21.942  41.592   0.031
55408W        W23813  13.157   2.309   0.758
55409W        W23814   5.885  40.258  12.370
55410W        W23815  36.188  34.387   1.986
55411W        W23816   5.750   3.588  13.102
55412W        W23817  26.660   7.844  10.618
55413W        W23818   6.934  21.912  10.761
55414W        W23819  25.178  26.195  10.767
55415W        W23820   1.512  28.670  12.894
55416W        W23821   2.929  26.720  14.448
55417W        W23822  42.600  44.849   1.774
55418W        W23823  18.723  12.094   2.021
55419W        W23824  40.304  35.416   0.476
55420W        W23825  34.776  24.879  13.242
55421W        W23826  38.659  41.444  12.626
55422W        W23827  42.952   0.990  13.806
55423W        W23828  12.880  44.871   4.168
55424W        W23829   3.286  18.310  13.523
55425W        W23830  13.261  26.544  13.923
55426W        W23831  13.315  39.545  14.518
55427W        W23832  25.566  10.701   4.247
55428W        W23833  39.368  43.060  11.582
55429W        W23834  24.253  21.250  14.480
55430W        W23835  19.088  11.556  13.475
55431W        W23836  42.493  13.328  11.461
55432W        W23837   6.231  41.533   0.603
55433W        W23838  32.114  13.901   4.031
55434W        W23839  22.250  14.279  12.965
55435W        W23840   9.652  32.961  14.436
55436W        W23841  19.046   2.452  14.372
55437W        W23842  29.972  32.543   1.828
55438W        W23843  20.174  24.155  11.783
55439W        W23844  32.654  36.346   4.456
55440W        W23845  43.812  40.822  11.588
55441W        W23846  24.432  43.943   4.549
55442W        W23847  39.790  17.129  14.832
55443W        W23848  24.967  29.980   1.940
55444W        W23849  14.363  36.365   4.415
55445W        W23850  43.530  12.990   2.330
55446W        W23851   8.300  15.500   1.328
55447W        W23852  27.112  40.567   1.947
55448W        W23853  20.821  15.225  14.024
55449W        W23854   3.211  16.122   2.711
55450W        W23855  41.898  33.449   4.585
55451W        W23856  10.933   2.092   0.821
55452W        W23857  10.835  32.194   4.678
55453W        W23858  36.641  41.619  10.951
55454W        W23859  12.325  13.035  12.038
55455W        W23860  16.279  26.915   4.080
55456W        W23861  13.064  23.717   2.210
55457W        W23862  27.403  12.685  11.215
55458W        W23863   2.837  23.483  14.975
55459W        W23864   8.019  26.466  13.102
55460W        W23865   4.306  25.931   2.912
55461W        W23866   7.719  23.186   3.319
55462W        W23867  18.663  42.588   5.008
55463W        W23868  21.371  15.156  14.917
55464W        W23869  32.211  31.464   4.565
55465W        W23870  11.080  12.437   3.299
55466W        W23871  21.713  24.663  12.105
55467W        W23872  23.446  39.146  10.681
55468W        W23873  25.269  17.658   1.862
55469W        W23874  17.142  35.899  10.092
55470W        W23875  29.180  15.321   0.580
55471W        W23876  26.391  36.899   3.139
55472W        W23877  20.638  35.554  10.496
55473W        W23878  38.187  26.694   3.604
55474W        W23879  42.529   0.241   3.171
55475W        W23880   1.218  44.161  14.885
55476W        W23881   4.283  13.351  11.084
55477W        W23882  11.228  11.615  10.637
55478W        W23883  31.904  44.260  14.342
55479W        W23884  34.561  40.470  13.357
55480W        W23885   7.915   1.354  12.160
55481W        W23886   6.379   0.885  14.323
55482W        W23887  44.822  22.701   2.155
55483W        W23888  39.171  14.856  11.151
55484W        W23889   6.637  23.168   4.281
55485W        W23890  39.377  21.953  14.099
55486W        W23891  26.950  16.299   2.165
55487W        W23892  34.594   4.332   1.788
55488W        W23893  16.242  34.347   2.829
55489W        W23894   2.373  33.524  14.100
55490W        W23895  44.747  22.716  13.032
55491W        W23896  25.538  25.623  10.552
55492W        W23897  33.142  30.149   2.488
55493W        W23898  40.840  17.828   0.818
55494W        W23899  23.661   4.394  12.751
55495W        W23900  39.319  10.219  13.367
55496W        W23901  28.993  17.186  11.603
55497W        W23902  37.946  14.551   1.252
55498W        W23903  42.462  36.432   2.735
55499W        W23904  21.456  41.547  12.459
55500W        W23905  31.678  14.040   4.773
55501W        W23906   7.150  44.361  12.462
55502W        W23907   2.734  12.292  14.217
55503W        W23908  35.822  39.954   2.908
55504W        W23909   7.636  16.533   3.064
55505W        W23910   1.322  41.054   2.857
55506W        W23911   3.186  10.395  14.435
55507W        W23912   1.286  18.762   3.481
55508W        W23913  16.209  19.167   1.447
55509W        W23914  31.139   1.131   0.420
55510W        W23915  35.251  14.819   2.764
55511W        W23916  14.851  34.549   2.751
55512W        W23917  14.783  43.894  12.431
55513W        W23918  22.011   2.436  11.058
55514W        W23919   9.760  32.025   2.850
55515W        W23920  28.489   2.018  11.179
55516W        W23921  44.916  26.192   4.658
55517W        W23922  43.952  29.281  11.308
55518W        W23923   7.022  20.561  12.577
55519W        W23924  32.013  18.485   3.245
55520W        W23925  29.689  29.155  14.426
55521W        W23926  43.404  26.428  11.043
55522W        W23927  17.091  44.522   3.653
55523W        W23928   6.347  37.807  14.442
55524W        W23929  22.893  35.465   1.263
55525W        W23930  34.626   1.470  11.231
55526W        W23931  33.333  39.910  11.504
55527W        W23932  25.421  29.396   4.573
55528W        W23933  28.029   7.845  12.084
55529W        W23934  10.105   3.204   0.785
55530W        W23935   7.169  12.285   4.269
55531W        W23936  18.471  18.018  13.452
55532W        W23937  23.711  12.551  13.603
55533W        W23938  26.124  26.168   4.789
55534W        W23939   6.299   3.039  13.422
55535W        W23940  37.092  27.111   4.415
55536W        W23941   6.864  13.249   2.808
55537W        W23942  13.880   7.994  10.191
55538W        W23943  15.294   7.773  12.994
55539W        W23944  14.116  19.555  11.626
55540W        W23945  18.609  33.160   4.852
55541W        W23946  20.127  11.912  11.500
55542W        W23947  14.320  36.524   2.275
55543W        W23948   6.492  33.970   1.629
55544W        W23949  11.716  17.221  12.361
55545W        W23950  25.419  23.241   1.426
55546W        W23951  34.792   3.872  12.585
55547W        W23952  43.734  17.481   2.199
55548W        W23953  39.852   4.393  14.949
55549W        W23954  18.047  16.556   1.222
55550W        W23955  28.723  21.613  14.398
55551W        W23956  30.020  13.309  11.637
55552W        W23957  38.860   2.346   2.846
55553W        W23958  23.832  25.444  14.881
55554W        W23959   9.702   0.284   1.419
55555W        W23960  28.512  42.317  14.749
55556W        W23961  13.222   4.387   3.032
55557W        W23962  38.063  37.901   2.243
55558W        W23963   3.645  28.782  11.069
55559W        W23964  22.217   8.406   3.814
55560W        W23965  36.998   7.741  12.053
55561W        W23966  12.356  18.294  12.460
55562W        W23967  19.011  28.062   4.123
55563W        W23968   2.934   5.748  12.938
55564W        W23969  25.356  28.090  12.656
55565W        W23970  12.679  28.853   0.944
55566W        W23971   6.769  24.818  14.416
55567W        W23972  36.019  34.834  14.896
55568W        W23973  15.165  17.049  12.101
55569W        W23974  17.229   4.322   3.367
55570W        W23975  13.181  29.107  12.514
55571W        W23976   7.254   7.655   2.400
55572W        W23977  21.024  44.167   4.596
55573W        W23978  26.384  11.176   3.205
55574W        W23979  24.045  34.703  11.651
55575W        W23980  15.043   4.236   0.439
55576W        W23981  33.400   3.827  12.844
55577W        W23982  11.119   7.278  10.921
55578W        W23983  35.085   2.051   3.339
55579W        W23984  35.136  39.462   3.196
55580W        W23985  19.060   2.889   0.388
55581W        W23986   3.028  27.691   1.447
55582W        W23987   8.409  28.890  11.192
55583W        W23988   4.033  36.148  12.018
55584W        W23989  19.505  23.566   2.890
55585W        W23990  26.499   7.444   0.378
55586W        W23991  33.454  18.905   3.216
55587W        W23992  42.517  37.547   4.443
55588W        W23993  31.648  18.657  14.664
55589W        W23994  33.725  43.574   1.326
55590W        W23995  44.227  28.410  14.764
55591W        W23996  42.734  16.511   4.192
55592W        W23997  25.808  18.121  11.958
55593W        W23998  41.536  19.331  11.894
55594W        W23999  22.265  17.676   1.263
55595W        W24000  28.214  32.464  13.338
55596W        W24001  37.529  33.657   1.405
55597W        W24002   5.003  24.715  14.011
55598W        W24003  35.014  28.403   4.019
55599W        W24004  24.020  33.849   0.140
55600W        W24005  27.724  23.343   3.764
55601W        W24006  41.408  19.611  13.276
55602W        W24007  13.678  24.899   3.220
55603W        W24008  17.590  44.332  11.934
55604W        W24009  23.198  29.721  10.998
55605W        W24010   1.958   1.454   4.381
55606W        W24011  32.407  42.963  10.471
55607W        W24012  38.915  32.558   4.558
55608W        W24013  36.389  17.172  13.298
55609W        W24014  36.130  38.930   4.776
55610W        W24015   3.273  18.016  10.562
55611W        W24016  33.158  29.917  11.172
55612W        W24017  32.454  40.557   4.743
55613W        W24018  15.828  25.471   4.194
55614W        W24019   0.564  17.304  14.493
55615W        W24020   5.221  20.978   3.093
55616W        W24021  26.430   0.699   2.765
55617W        W24022   2.517   3.855  13.848
55618W        W24023  19.735   5.004   5.026
55619W        W24024  41.739  10.092  12.931
55620W        W24025  25.068  11.618  14.358
55621W        W24026  29.404  20.262   2.299
55622W        W24027  35.816  26.059  13.440
55623W        W24028  40.247  44.399  11.696
55624W        W24029   0.854  26.601  11.718
55625W        W24030  42.197  28.237  10.266
55626W        W24031  40.936  15.843   4.991
55627W        W24032  25.935  10.733  11.760
55628W        W24033  19.499  22.125   2.208
55629W        W24034  35.753  20.214  13.371
55630W        W24035  28.532   2.367   1.270
55631W        W24036  42.498  20.777  14.945
55632W        W24037   8.689   8.394   1.892
55633W        W24038  39.984  15.436   2.710
55634W        W24039  34.036  43.364  14.397
55635W        W24040  37.561  19.674  13.755
55636W        W24041  36.489  17.256   0.662
55637W        W24042   6.729  34.421   1.809
55638W        W24043  13.298   3.220  12.150
55639W        W24044   1.942  10.861   4.683
55640W        W24045  23.201  43.294   0.444
55641W        W24046  25.910   7.815   4.921
55642W        W24047  41.949   2.187  13.036
55643W        W24048  14.234  28.013  10.562
55644W        W24049  25.484  35.773  13.692
55645W        W24050  41.221   3.943   2.324
55646W        W24051  22.465   5.420  10.699
55647W        W24052  32.544  38.150  13.798
55648W        W24053  21.083  37.588   2.370
55649W        W24054  28.453  33.820   4.190
55650W        W24055   3.976   4.858  11.391
55651W        W24056  20.070  31.141  14.764
55652W        W24057  42.997   8.298   3.377
55653W        W24058  12.670  38.169   2.302
55654W        W24059   1.310  29.119  13.398
55655W        W24060  35.969  13.721   4.788
55656W        W24061   7.134  39.967   4.740
55657W        W24062  15.459  35.934   4.938
55658W        W24063  29.132   5.782   4.632
55659W        W24064  20.782   3.666  14.033
55660W        W24065  10.379  27.201   1.587
55661W        W24066  34.864  36.067  10.783
55662W        W24067   8.834  35.111   0.232
55663W        W24068  34.344  33.031   3.880
55664W        W24069  32.957  33.425  13.871
55665W        W24070  35.780  26.927   2.606
55666W        W24071  27.295  34.928   0.794
55667W        W24072  36.019  31.111  11.966
55668W        W24073   0.113   8.367   3.721
55669W        W24074   5.970  42.269   1.244
55670W        W24075  32.647  40.914  12.070
55671W        W24076  19.732   5.530  12.065
55672W        W24077  22.164  14.405   1.236
55673W        W24078  44.876  39.520  13.648
55674W        W24079  10.283  17.347   5.509
55675W        W24080  22.073  27.589   4.673
55676W        W24081  21.813  41.377   2.244
55677W        W24082   8.817  10.181  14.412
55678W        W24083  11.090  42.373   3.928
55679W        W24084  37.067  14.182  10.792
55680W        W24085  42.480  42.384   1.718
55681W        W24086  10.379   3.675  10.548
55682W        W24087  35.970   2.913   1.373
55683W        W24088  23.189  36.411   2.188
55684W        W24089  23.323  23.226   4.170
55685W        W24090   2.916  32.100  11.499
55686W        W24091  12.672  32.714  13.366
55687W        W24092  33.151   4.966   0.573
55688W        W24093   7.975   5.869   0.515
55689W        W24094  37.106  13.796   2.910
55690W        W24095  38.363  38.751   1.954
55691W        W24096  30.574  25.527   2.186
55692W        W24097  11.406   9.368  10.730
55693W        W24098  30.553  30.722   3.199
55694W        W24099  24.842  24.256   4.959
55695W        W24100  20.284  17.309   0.172
55696W        W24101  44.566  12.545  10.744
55697W        W24102  33.531  44.669  12.942
55698W        W24103  24.520   2.822   0.716
55699W        W24104   4.948  35.908  13.047
55700W        W24105  33.440  18.130  14.045
55701W        W24106  12.847   7.221  12.892
55702W        W24107   1.432  25.861   0.998
55703W        W24108  19.005  14.926  12.387
55704W        W24109  27.591  42.326  14.080
55705W        W24110  27.048   3.626   2.641
55706W        W24111   1.444   8.803   4.716
55707W        W24112   8.207  41.065  11.381
55708W        W24113  32.946  41.315   4.844
55709W        W24114  18.446  25.380  13.818
55710W        W24115  27.898  42.859   2.634
55711W        W24116   1.138  28.638  10.577
55712W        W24117   5.213  31.382   2.593
55713W        W24118  10.363  19.812   0.126
55714W        W24119   7.794  40.552  10.728
55715W        W24120  25.020  33.135   2.499
55716W        W24121  23.101  14.264   1.232
55717W        W24122  38.319  32.293  14.463
55718W        W24123  29.990  44.737  13.247
55719W        W24124  42.553  14.298   4.887
55720W        W24125  11.308  41.841  13.504
55721W        W24126  42.390  30.772   3.282
55722W        W24127  26.091  31.929  12.437
55723W        W24128  27.916  27.052  14.861
55724W        W24129  20.283  31.470  13.573
55725W        W24130  23.372  11.721   0.444
55726W        W24131  15.858   4.272   2.322
55727W        W24132  23.160  27.205   2.902
55728W        W24133  25.543   7.704   3.147
55729W        W24134  22.581  20.009  12.981
55730W        W24135  44.801  11.767   4.734
55731W        W24136   9.906  28.619   3.881
55732W        W24137   1.258  22.461   2.228
55733W        W24138  24.533  14.356  10.778
55734W        W24139  34.396  10.312  10.648
55735W        W24140  21.480  27.980   4.086
55736W        W24141  26.526  24.926   3.583
55737W        W24142  11.947  30.626   1.908
55738W        W24143  30.409  25.176  13.449
55739W        W24144  26.947  15.623  10.464
55740W        W24145  26.050  15.636   0.960
55741W        W24146  20.055  22.630   3.678
55742W        W24147  37.205  22.071   1.321
55743W        W24148  26.628   2.819  13.048
55744W        W24149  28.553  25.909   2.614
55745W        W24150  28.465   3.852  14.460
55746W        W24151  24.286  10.895   0.896
55747W        W24152  22.181   5.812   2.173
55748W        W24153  33.257  42.825   3.529
55749W        W24154   6.770  33.610   0.505
55750W        W24155  35.392  41.492   0.925
55751W        W24156  38.612  13.795   2.709
55752W        W24157  34.169  40.696   2.254
55753W        W24158  36.519  33.017  13.633
55754W        W24159  21.425  28.605   4.739
55755W        W24160  20.106  11.638   3.661
55756W        W24161  29.069  43.695  13.844
55757W        W24162  29.093  38.222   1.472
55758W        W24163  36.326  23.110   0.084
55759W        W24164  31.850  33.691   2.376
55760W        W24165  26.067  17.261  11.697
55761W        W24166  33.525  33.457   3.740
55762W        W24167  13.557  22.862   0.378
55763W        W24168   6.874  23.526  13.523
55764W        W24169  31.158  28.006   1.483
55765W        W24170  21.884   5.515  13.455
55766W        W24171   3.836   0.740   4.697
55767W        W24172  39.059  12.749   2.693
55768W        W24173  21.322  34.873  11.551
55769W        W24174  37.010  12.385   0.017
55770W        W24175  26.951   7.899   1.883
55771W        W24176  37.341  43.388   2.394
55772W        W24177   9.588  11.890   3.873
55773W        W24178   7.717   6.855   0.910
55774W        W24179  20.478   8.246  14.421
55775W        W24180   6.974  37.983   1.322
55776W        W24181  38.529  39.864  11.207
55777W        W24182   1.162  24.113  10.587
55778W        W24183  37.802  28.715   2.796
55779W        W24184  29.853   6.571  13.158
55780W        W24185   4.843  16.113   4.964
55781W        W24186  23.375  32.975   3.362
55782W        W24187   6.446  14.343  14.775
55783W        W24188  33.078  16.352   2.366
55784W        W24189  42.403  14.596   0.045
55785W        W24190  22.365   6.519   0.972
55786W        W24191  44.365  26.096   2.919
55787W        W24192  21.939  36.883  12.901
55788W        W24193  42.812  24.694   3.755
55789W        W24194   7.712  15.738  11.073
55790W        W24195   5.874   8.786   2.067
55791W        W24196  20.420  18.878  11.237
55792W        W24197  25.027  29.192   1.190
55793W        W24198   3.815  38.943   1.180
55794W        W24199  33.123  32.567   4.034
55795W        W24200  11.544   0.953  11.337
55796W        W24201  12.359  36.084  11.982
55797W        W24202   3.890  19.969   0.872
55798W        W24203  14.329  18.637  12.450
55799W        W24204  20.591  17.662  12.630
55800W        W24205  40.355   8.234  14.927
55801W        W24206  22.074  32.238   1.779
55802W        W24207  31.455  38.621  11.426
55803W        W24208  24.483   2.894  12.584
55804W        W24209  29.945  35.430  13.527
55805W        W24210  17.609   8.145   4.045
55806W        W24211   1.692  37.015  11.662
55807W        W24212   5.278  35.384  13.666
55808W        W24213   4.668   0.840  14.704
55809W        W24214  26.594  44.482  14.515
55810W        W24215  12.736  10.689   1.191
55811W        W24216  16.066   6.185  12.692
55812W        W24217  13.252  18.272   0.931
55813W        W24218  39.982   4.920  12.255
55814W        W24219  42.829  32.162   2.202
55815W        W24220  36.175  43.332   1.691
55816W        W24221   1.491   5.793  14.319
55817W        W24222  14.819  24.476  11.906
55818W        W24223   9.480  26.600  10.096
55819W        W24224  18.246  37.772  12.908
55820W        W24225  35.340  38.812  14.296
55821W        W24226   7.323   7.231  10.797
55822W        W24227  23.707  27.328   3.082
55823W        W24228  10.814  38.047   3.151
55824W        W24229   2.898  22.233  12.523
55825W        W24230  20.562  34.431   0.445
55826W        W24231  38.498  30.775   0.440
55827W        W24232   4.469  31.414   4.543
55828W        W24233   4.564  42.526   4.134
55829W        W24234  29.965  23.165  11.827
55830W        W24235  26.222   1.759   3.360
55831W        W24236  24.538  18.588  13.862
55832W        W24237  33.087  38.859  12.038
55833W        W24238  29.834  41.342   0.833
55834W        W24239  37.934  38.924   3.172
55835W        W24240  37.917  23.218   1.752
55836W        W24241  39.464  22.484   0.275
55837W        W24242  21.422  16.589   0.762
55838W        W24243  42.560  36.510   1.314
55839W        W24244  20.858  37.121  14.916
55840W        W24245  40.930  36.487  13.559
55841W        W24246  29.676  22.467   3.276
55842W        W24247  30.154  38.412  12.420
55843W        W24248   3.864  19.858   2.087
55844W        W24249  18.039  24.764  12.519
55845W        W24250   8.861  19.887  11.611
55846W        W24251  31.997   6.211  14.632
55847W        W24252  29.981  30.406   2.337
55848W        W24253  36.490  34.867   3.167
55849W        W24254  16.227  32.066  13.532
55850W        W24255  39.307  37.700  14.499
55851W        W24256  12.732  13.567  12.173
55852W        W24257  28.514  39.153   2.217
55853W        W24258   3.288  20.619   3.820
55854W        W24259  19.289  21.260  11.911
55855W        W24260  21.764  32.031  11.539
55856W        W24261   4.933  44.179   3.208
55857W        W24262   4.833  26.015   3.611
55858W        W24263   6.840  26.464  12.461
55859W        W24264  20.178  36.462  10.668
55860W        W24265  27.409  33.677  11.321
55861W        W24266  21.130  30.298  12.961
55862W        W24267  15.335   9.355  13.999
55863W        W24268  16.033  41.627  12.626
55864W        W24269  41.369  10.707   1.717
55865W        W24270  24.021  24.953   4.114
55866W        W24271  27.503   9.446  11.919
55867W        W24272  37.955  32.672   4.316
55868W        W24273  16.602  21.983   4.968
55869W        W24274  13.212  17.211   4.094
55870W        W24275  16.344  26.663   1.193
55871W        W24276   3.864  44.408   1.778
55872W        W24277  36.581  40.411   2.631
55873W        W24278  17.466  18.613   2.845
55874W        W24279  31.295  38.739   9.781
55875W        W24280  41.793  14.237   4.215
55876W        W24281  24.081  42.787   4.046
55877W        W24282  28.847  20.176  14.843
55878W        W24283  24.209  12.812  13.374
55879W        W24284   4.397   4.915   1.674
55880W        W24285  23.240  32.130   3.722
55881W        W24286  37.962  33.081   3.463
55882W        W24287   0.331   2.833  12.416
55883W        W24288  10.852   4.798   2.265
55884W        W24289  19.551   8.421   4.913
55885W        W24290  12.165  34.883   0.167
55886W        W24291  37.410   1.325  11.118
55887W        W24292   1.248  37.776   3.063
55888W        W24293  42.422  29.929   0.016
55889W        W24294   4.838  12.690   1.968
55890W        W24295  26.648  31.342  14.938
55891W        W24296  29.184   1.788   0.867
55892W        W24297   7.250  34.368  12.000
55893W        W24298  34.904  19.570  12.610
55894W        W24299  16.811  16.331  14.267
55895W        W24300  25.111   5.394  14.928
55896W        W24301  14.696  11.796   3.180
55897W        W24302  35.635  42.457   4.815
55898W        W24303  33.665  17.600   3.585
55899W        W24304  19.322   4.664  12.454
55900W        W24305  34.057  41.762   4.116
55901W        W24306  39.481  19.004  12.910
55902W        W24307  11.862  15.752  14.167
55903W        W24308  31.823  35.820   0.842
55904W        W24309  20.557   9.201   5.203
55905W        W24310  17.155  22.003  10.725
55906W        W24311  40.140  40.837  11.703
55907W        W24312  28.148  11.285   2.294
55908W        W24313  38.683  28.384  12.084
55909W        W24314   5.875  12.925   1.766
55910W        W24315  13.830  43.020   4.547
55911W        W24316   3.278  18.838   2.707
55912W        W24317   9.093  29.615   3.200
55913W        W24318  42.275   4.650  14.964
55914W        W24319  15.317   2.920   1.838
55915W        W24320  12.139  41.829  10.987
55916W        W24321  37.899  36.373  12.303
55917W        W24322   5.437  16.333  11.838
55918W        W24323  22.772  38.865   1.909
55919W        W24324  35.863   4.047  12.129
55920W        W24325  36.097  21.357  12.835
55921W        W24326   1.323  31.979  10.557
55922W        W24327  11.737  33.635   5.006
55923W        W24328  13.685  24.614   0.982
55924W        W24329  44.476  14.899   3.223
55925W        W24330  26.990  40.214  14.780
55926W        W24331   4.152  37.015  14.259
55927W        W24332   9.557  30.814   4.603
55928W        W24333   8.478  12.435   1.735
55929W        W24334  34.307  10.168   2.605
55930W        W24335  28.214  28.995   3.229
55931W        W24336  19.650   7.729  11.528
55932W        W24337   6.351  25.080  14.081
55933W        W24338  11.774   5.404   0.931
55934W        W24339  16.634  35.058   4.638
55935W        W24340   5.001   4.756   1.011
55936W        W24341  26.624  38.084  10.743
55937W        W24342  27.132  20.102   4.768
55938W        W24343  24.756  35.421   3.260
55939W        W24344  21.036   8.766   5.199
55940W        W24345   0.811   7.141   1.621
55941W        W24346  33.400  37.803   4.245
55942W        W24347  22.569   8.434  10.614
55943W        W24348  39.426  32.525  12.284
55944W        W24349  24.769  44.685   2.449
55945W        W24350  12.700  19.636  12.718
55946W        W24351  15.009  10.677   2.500
55947W        W24352  11.674  26.954   4.970
55948W        W24353  20.634  36.667  11.597
55949W        W24354   7.139   8.292  11.475
55950W        W24355  38.280  20.969  14.980
55951W        W24356   8.650  44.480  11.093
55952W        W24357  32.100  15.042   0.327
55953W        W24358  14.257  32.400   5.033
55954W        W24359  35.065  14.898   0.350
55955W        W24360  36.321   8.659   1.754
55956W        W24361  26.667  20.838   1.391
55957W        W24362  43.627  25.219   1.838
55958W        W24363  44.201  36.564   2.138
55959W        W24364  33.205  44.569   0.765
55960W        W24365  37.964  25.110  12.093
55961W        W24366   8.985  23.534  10.678
55962W        W24367  12.396  43.825  11.165
55963W        W24368  14.039  27.106  14.891
55964W        W24369  28.083  39.918   0.873
55965W        W24370   0.577   2.752  11.590
55966W        W24371  15.322   1.942  11.186
55967W        W24372   5.000  41.001   1.199
55968W        W24373   2.539  24.459   3.128
55969W        W24374  38.515  35.096  13.334
55970W        W24375  24.103  43.286   4.049
55971W        W24376  19.574  29.143   0.264
55972W        W24377   9.706   1.961  13.891
55973W        W24378  10.796  13.340  10.621
55974W        W24379   8.435   8.277   2.915
55975W        W24380  16.765  24.282  12.972
55976W        W24381  33.644  11.920   2.198
55977W        W24382  18.586   2.824  12.594
55978W        W24383   9.333   2.007   4.243
55979W        W24384  25.545  39.985  12.413
55980W        W24385  42.371  19.590   3.080
55981W        W24386  13.668  12.387  11.512
55982W        W24387  33.817  20.006  12.591
55983W        W24388  38.029  43.399  13.871
55984W        W24389  34.549  12.689  12.144
55985W        W24390  35.825  19.240  13.876
55986W        W24391  10.597  34.590  14.437
55987W        W24392  30.443   8.967   2.208
55988W        W24393  29.137  38.087   2.756
55989W        W24394  19.138  21.786   2.922
55990W        W24395  39.013  11.728   0.651
55991W        W24396  34.955  40.306  10.272
55992W        W24397  41.369   1.706   0.971
55993W        W24398  16.626  39.033   4.567
55994W        W24399  40.821   8.104  13.301
55995W        W24400  12.597  27.969   3.674
55996W        W24401   1.438  22.664  12.328
55997W        W24402  16.275  35.932   4.594
55998W        W24403   7.798  26.948   0.316
55999W        W24404  42.781  12.813   1.194
56000W        W24405   0.870  12.604  13.882
56001W        W24406  12.127  20.728  11.472
56002W        W24407  29.284  27.038   0.115
56003W        W24408   8.338  26.864   4.678
56004W        W24409   8.197  18.633  12.077
56005W        W24410  42.525  26.969   1.937
56006W        W24411  35.203   7.815  13.111
56007W        W24412   4.863  34.108  14.077
56008W        W24413   2.866   5.647   1.485
56009W        W24414  29.371  15.674  12.417
56010W        W24415  40.715  18.527  13.865
56011W        W24416  32.375  24.451  13.626
56012W        W24417  20.553  24.246  11.434
56013W        W24418   8.123  38.903   4.998
56014W        W24419   8.561  19.520  14.947
56015W        W24420   8.233   5.912   4.074
56016W        W24421   3.827  32.704  11.650
56017W        W24422  10.171  11.378   1.385
56018W        W24423   6.674  16.645   4.119
56019W        W24424   3.598   0.731  11.732
56020W        W24425  41.302  31.595  11.777
56021W        W24426   4.597  23.039   4.473
56022W        W24427  43.833  25.825   2.520
56023W        W24428  19.358  13.022   0.362
56024W        W24429  23.205  22.833   2.310
56025W        W24430  44.666  21.746   3.911
56026W        W24431  13.396  20.495  14.336
56027W        W24432  19.577  11.772   2.420
56028W        W24433   4.187  34.901   0.300
56029W        W24434  27.664  22.016   3.155
56030W        W24435   7.441   6.884  14.001
56031W        W24436  15.298   6.659   0.869
56032W        W24437  18.067  30.910   0.829
56033W        W24438  40.876  30.877  10.675
56034W        W24439  38.906  10.505   4.112
56035W        W24440  12.631  10.764   0.669
56036W        W24441   7.391  42.108   3.644
56037W        W24442  39.690  40.376  13.436
56038W        W24443   5.139  21.981  11.158
56039W        W24444  31.551  38.895   3.782
56040W        W24445   9.789   7.578   4.331
56041W        W24446  30.981   4.718  13.750
56042W        W24447  29.418  36.398  11.602
56043W        W24448  21.114  28.571  14.395
56044W        W24449  15.690  36.620  10.560
56045W        W24450   7.696   0.158  12.517
56046W        W24451  30.365  23.429  10.625
56047W        W24452  31.088  38.073   3.562
56048W        W24453   5.459  10.698  11.151
56049W        W24454   0.770  26.934   1.646
56050W        W24455  24.596   6.224   3.097
56051W        W24456   6.316  14.094  13.051
56052W        W24457  37.321  33.709  13.409
56053W        W24458  18.724  22.460  14.070
56054W        W24459  15.706   9.379   0.941
56055W        W24460  31.864  32.189  12.481
56056W        W24461  16.219  10.281   3.669
56057W        W24462  10.744  36.841   3.860
56058W        W24463  10.919  22.535   3.116
56059W        W24464   6.662  42.226   0.054
56060W        W24465  17.946  21.544  14.201
56061W        W24466  24.189  44.738  10.771
56062W        W24467  24.744  21.592   0.429
56063W        W24468  44.375  19.297  10.704
56064W        W24469  36.149  11.158   2.720
56065W        W24470  42.975   3.699   1.221
56066W        W24471  37.437  24.566  10.762
56067W        W24472  33.178  12.319  10.842
56068W        W24473  41.439  30.504  11.883
56069W        W24474  42.159  28.591  14.087
56070W        W24475   7.308  42.751  13.113
56071W        W24476   9.774  30.697  14.793
56072W        W24477  22.875  37.537  12.628
56073W        W24478   7.638  24.971   3.500
56074W        W24479  19.075  18.359  11.565
56075W        W24480   4.432  27.519   0.042
56076W        W24481   4.208   5.363   1.836
56077W        W24482  37.394   4.188   1.412
56078W        W24483  23.700  15.173   1.942
56079W        W24484   4.791  29.529  13.573
56080W        W24485  18.350  31.903   4.195
56081W        W24486  27.976  11.205  12.818
56082W        W24487  16.917   0.558   1.405
56083W        W24488   8.629  13.296   4.964
56084W        W24489  14.122  30.959   2.160
56085W        W24490  31.188  40.654  11.416
56086W        W24491  41.445  12.186  12.125
56087W        W24492  10.462  38.900  10.636
56088W        W24493   3.778  20.495   3.093
56089W        W24494  35.274  40.234   2.289
56090W        W24495  42.507  23.289  12.067
56091W        W24496   0.017   9.579  12.630
56092W        W24497   0.520  11.890   3.944
56093W        W24498  36.762  35.075   4.389
56094W        W24499  32.809  11.582  12.532
56095W        W24500  19.611  42.818   1.848
56096W        W24501  39.115  15.048   1.764
56097W        W24502  27.976  25.530   0.815
56098W        W24503  34.431  20.438   1.245
56099W        W24504  13.232   0.459   4.184
56100W        W24505   3.506  18.543   3.997
56101W        W24506  41.020  15.584   1.856
56102W        W24507  18.145  43.374  11.154
56103W        W24508  18.288  28.641   0.414
56104W        W24509  14.437   9.148   3.343
56105W        W24510  10.380  12.280   4.354
56106W        W24511  14.161  21.225  14.692
56107W        W24512   0.034  13.812  11.782
56108W        W24513  35.997   3.206  11.167
56109W        W24514  22.177   5.436  11.108
56110W        W24515  13.661   6.750  11.230
56111W        W24516  32.448  28.296  10.698
56112W        W24517  38.798  32.521   0.277
56113W        W24518   0.771  44.326   3.348
56114W        W24519  15.938  40.965   0.760
56115W        W24520  42.507  16.635   4.646
56116W        W24521  10.592  35.595   0.474
56117W        W24522  31.145  18.707  10.592
56118W        W24523  22.759  30.045  10.927
56119W        W24524  18.499  39.138   4.068
56120W        W24525  29.482  22.040  10.608
56121W        W24526  26.629  20.833   2.313
56122W        W24527   6.363  22.170  11.903
56123W        W24528  35.079   3.647  11.585
56124W        W24529  14.535  35.207  12.571
56125W        W24530  33.818  22.144   2.468
56126W        W24531   6.019  30.235  12.925
56127W        W24532  33.910  22.948   4.720
56128W        W24533  28.404  25.603   1.583
56129W        W24534  16.807  34.956  11.068
56130W        W24535  43.980  28.140  13.998
56131W        W24536   6.207  36.509  11.232
56132W        W24537  29.133   0.454  11.941
56133W        W24538  12.166  14.625  13.458
56134W        W24539  23.437  32.848   4.754
56135W        W24540  27.110   4.951  12.368
56136W        W24541  12.660   5.786   0.508
56137W        W24542  31.808  36.350   0.793
56138W        W24543  22.078  32.992  14.476
56139W        W24544   1.619  20.692   0.917
56140W        W24545  17.182  10.392   0.683
56141W        W24546  23.220  41.341   1.820
56142W        W24547  40.044  18.764   0.416
56143W        W24548  21.797  42.960  10.248
56144W        W24549  34.630  28.038   3.922
56145W        W24550  18.446  19.968   3.883
56146W        W24551  31.308   4.678  13.355
56147W        W24552  30.679  32.858  12.172
56148W        W24553   1.335  36.928   0.909
56149W        W24554  21.158   0.536   4.106
56150W        W24555  21.289  11.380   4.534
56151W        W24556  29.048   1.465   3.225
56152W        W24557  18.539  26.202   0.802
56153W        W24558   0.286  42.302   4.131
56154W        W24559  22.079  18.014  12.601
56155W        W24560   0.848  36.132   3.336
56156W        W24561   4.405  35.848  13.941
56157W        W24562  16.660  32.518   0.371
56158W        W24563  34.603  33.425  12.962
56159W        W24564   9.251  43.311   1.731
56160W        W24565   0.035  21.868   1.309
56161W        W24566   4.719  26.470   0.805
56162W        W24567  38.956  13.675  10.840
56163W        W24568  15.251  38.631   2.497
56164W        W24569   5.412  38.504   2.834
56165W        W24570  16.235  34.699  12.591
56166W        W24571  33.649   3.386   2.393
56167W        W24572  14.609  25.492  12.807
56168W        W24573  37.798  17.025  13.700
56169W        W24574  10.119   5.862  11.132
56170W        W24575  42.489   8.087  11.089
56171W        W24576  11.788  10.704   3.786
56172W        W24577  13.711  15.228   4.539
56173W        W24578  13.790  34.901   0.760
56174W        W24579  32.068  37.024   0.145
56175W        W24580  40.935  11.189  11.475
56176W        W24581  12.655  18.195   3.715
56177W        W24582  34.659  27.913   2.639
56178W        W24583  31.500  16.867  10.986
56179W        W24584  29.116  30.655   0.447
56180W        W24585   7.314  11.327  14.352
56181W        W24586  44.004  21.532   1.398
56182W        W24587  41.951  30.922  11.605
56183W        W24588  27.912   4.448   4.118
56184W        W24589  31.609  13.770   1.201
56185W        W24590  22.116  28.641  12.922
56186W        W24591  13.217   7.909  10.946
56187W        W24592  30.167  38.542  13.314
56188W        W24593   2.821  14.759  14.993
56189W        W24594  35.305   2.956   2.765
56190W        W24595  38.308  23.950  13.843
56191W        W24596  44.660  23.285   0.956
56192W        W24597  23.700  37.572  14.811
56193W        W24598   4.844  25.484   0.460
56194W        W24599  42.476   2.714   2.381
56195W        W24600  43.570  19.298   2.303
56196W        W24601  29.672   3.112  10.183
56197W        W24602  25.096  44.961  10.866
56198W        W24603  25.215  32.023  13.631
56199W        W24604  18.587   4.601  12.767
56200W        W24605  27.052  37.230  11.090
56201W        W24606  39.250   2.407   3.621
56202W        W24607   2.014   4.498   3.752
56203W        W24608   8.113  22.324  11.797
56204W        W24609  19.723   8.910  14.607
56205W        W24610  19.738  43.045  13.897
56206W        W24611   0.780   3.703  14.358
56207W        W24612   3.408   0.480   4.632
56208W        W24613   2.196  23.727  12.850
56209W        W24614  12.110  36.133  12.554
56210W        W24615  37.765  13.431   1.962
56211W        W24616   8.301  40.431  10.642
56212W        W24617  20.713  24.665  12.422
56213W        W24618  40.022  33.115  11.268
56214W        W24619  35.538  16.641   0.239
56215W        W24620  27.161  44.611   4.588
56216W        W24621  15.200  26.865  11.953
56217W        W24622  12.062  16.208   2.205
56218W        W24623  39.960  18.818  10.706
56219W        W24624   6.889   0.368   2.835
56220W        W24625  10.752  24.134   4.231
56221W        W24626  18.068  10.420  10.282
56222W        W24627  38.411  21.684  14.417
56223W        W24628   9.438  24.712   1.794
56224W        W24629   6.900  15.189  14.071
56225W        W24630  25.587  42.128  13.540
56226W        W24631  43.037  38.863  14.512
56227W        W24632  39.269  43.627  12.959
56228W        W24633  41.297  40.924   3.741
56229W        W24634  38.111   7.095   3.876
56230W        W24635  38.204  25.767   2.504
56231W        W24636  33.944   5.221   2.286
56232W        W24637   6.640  19.216   0.750
56233W        W24638  14.790  14.516  13.922
56234W        W24639  21.008  34.072   2.387
56235W        W24640  12.220  15.169  10.582
56236W        W24641  27.499  42.358  11.554
56237W        W24642   9.530  36.127   5.077
56238W        W24643  19.026  33.573   4.298
56239W        W24644  11.822  12.120   1.851
56240W        W24645  29.031  22.088   4.052
56241W        W24646   4.347  34.758  12.462
56242W        W24647  11.123  23.745   2.607
56243W        W24648  16.570   8.216  11.393
56244W        W24649  33.505  25.475   3.238
56245W        W24650   9.856  18.840   1.856
56246W        W24651  24.733  29.170  13.922
56247W        W24652  43.754  16.908  13.805
56248W        W24653  10.518  28.578  14.172
56249W        W24654   0.076  22.263  13.321
56250W        W24655   8.357   1.216   4.687
56251W        W24656  39.034  39.273   0.929
56252W        W24657  15.830   0.974  11.606
56253W        W24658  21.719   0.984  12.173
56254W        W24659  21.723  10.246   3.069
56255W        W24660   8.035  19.456  11.667
56256W        W24661  37.531   9.930  12.465
56257W        W24662  28.303  40.928   5.142
56258W        W24663  42.502  26.258  12.646
56259W        W24664  29.525  23.707   2.868
56260W        W24665   5.276   8.856  11.144
56261W        W24666  28.385   6.808  14.471
56262W        W24667  27.711  25.280  14.511
56263W        W24668  38.419  42.680   3.343
56264W        W24669  37.527  31.042  12.864
56265W        W24670  25.599  22.910  14.188
56266W        W24671  34.816   7.032   2.340
56267W        W24672   5.950   8.576  11.641
56268W        W24673  19.007   7.006   2.239
56269W        W24674  40.536  42.211   4.597
56270W        W24675  31.841  25.177   4.707
56271W        W24676  40.145  42.974  13.388
56272W        W24677  10.885  17.738   4.506
56273W        W24678  39.096  21.083  12.463
56274W        W24679  35.341  16.011   1.360
56275W        W24680  43.582  34.065   4.587
56276W        W24681  41.021  29.149  13.258
56277W        W24682  32.981   9.399  12.606
56278W        W24683  14.994  24.886   2.834
56279W        W24684  15.235  17.570  11.029
56280W        W24685   5.397   6.982  13.883
56281W        W24686  28.152  10.942  13.615
56282W        W24687  19.341   2.759  10.629
56283W        W24688  43.753  16.098   2.142
56284W        W24689   6.404  15.016   1.858
56285W        W24690  43.560  32.462  13.271
56286W        W24691  12.511   8.129  10.733
56287W        W24692  43.538   5.400  13.906
56288W        W24693  30.379  16.636   5.057
56289W        W24694  43.545  36.458  11.676
56290W        W24695  41.815  20.158   0.259
56291W        W24696  20.172  18.596   4.790
56292W        W24697   2.289   0.620   0.393
56293W        W24698  38.951  36.653   4.084
56294W        W24699  33.579  19.037  12.548
56295W        W24700  29.762  12.987   1.879
56296W        W24701  36.517   9.749   0.882
56297W        W24702   1.015  19.126  12.547
56298W        W24703  12.682  26.070   1.412
56299W        W24704  30.553  39.543   2.843
56300W        W24705  33.547  24.400  11.166
56301W        W24706  39.699  18.144   2.343
56302W        W24707  20.660  26.604   3.742
56303W        W24708  28.145  11.874   5.061
56304W        W24709  29.703  12.827  12.074
56305W        W24710  40.495  12.755   0.046
56306W        W24711  16.862  42.808   0.837
56307W        W24712  36.660   4.255   1.573
56308W        W24713  42.277  39.279  12.781
56309W        W24714  11.005   6.845  11.174
56310W        W24715  17.280  25.215  14.588
56311W        W24716   4.860  18.827  14.790
56312W        W24717  32.017   2.661  12.562
56313W        W24718  12.703  36.662   2.832
56314W        W24719  37.889  11.847  12.623
56315W        W24720  15.638   7.072   3.681
56316W        W24721  41.165   8.231  14.275
56317W        W24722  10.330  40.610   4.926
56318W        W24723   7.759  44.746   0.861
56319W        W24724   3.757  25.907  14.329
56320W        W24725   9.130   0.073  14.932
56321W        W24726  26.808  35.006   0.964
56322W        W24727  13.994  24.901  11.008
56323W        W24728  43.785  15.741   1.250
56324W        W24729   9.324  14.366  11.390
56325W        W24730  16.327   7.804  12.198
56326W        W24731  30.015  43.458   3.337
56327W        W24732  44.715   9.233   0.590
56328W        W24733   7.168  19.223   1.537
56329W        W24734  20.106  20.780  14.549
56330W        W24735  36.262  39.780  10.926
56331W        W24736  29.100  19.530  11.583
56332W        W24737  41.807  36.753  10.844
56333W        W24738  16.588  37.319   1.188
56334W        W24739  21.004  37.335   2.824
56335W        W24740  14.027   5.920  11.628
56336W        W24741  25.986  36.502  10.756
56337W        W24742   1.179  39.225   2.912
56338W        W24743   7.367  38.325   3.225
56339W        W24744  26.588  23.257  11.383
56340W        W24745  34.944  25.134  12.827
56341W        W24746  30.359  40.790   3.567
56342W        W24747  27.106   1.336   4.713
56343W        W24748  18.403  41.087  13.035
56344W        W24749  23.933  33.076   1.135
56345W        W24750  31.551  26.968   0.921
56346W        W24751  28.712   6.426   2.788
56347W        W24752  17.682  15.763  12.556
56348W        W24753   3.089   1.802  11.202
56349W        W24754  38.823   9.437   2.675
56350W        W24755   7.165   5.638   1.309
56351W        W24756  34.975  34.641  14.351
56352W        W24757  21.820  24.783  13.846
56353W        W24758  33.535  10.356   3.277
56354W        W24759  32.300   7.288  10.630
56355W        W24760  12.310   1.862  14.471
56356W        W24761   0.312  31.526   4.076
56357W        W24762  32.889  28.961  12.014
56358W        W24763  35.770  36.096  14.800
56359W        W24764  22.266  16.587  14.429
56360W        W24765  26.696  31.507  11.165
56361W        W24766  19.338  36.064   3.288
56362W        W24767  15.052  20.235  13.866
56363W        W24768   4.440   2.387   2.678
56364W        W24769  16.794  24.483  12.115
56365W        W24770   4.429   9.326   1.828
56366W        W24771  34.969  43.512  13.446
56367W        W24772  12.657  41.850   2.480
56368W        W24773  29.774  40.406  11.957
56369W        W24774  16.687  15.714  10.324
56370W        W24775  25.737  14.739   1.779
56371W        W24776  29.622  32.579   2.626
56372W        W24777  35.065   8.650  12.388
56373W        W24778  20.571  24.920  11.978
56374W        W24779   3.611  33.988  11.650
56375W        W24780  38.955  11.359   4.780
56376W        W24781  41.026  16.568  12.045
56377W        W24782  31.372  36.287  12.129
56378W        W24783   5.134  40.980   1.894
56379W        W24784   6.188  39.153  11.192
56380W        W24785  43.323  15.120  12.575
56381W        W24786  31.079  37.333   1.829
56382W        W24787   8.214  27.326   4.879
56383W        W24788   8.571  42.007   4.052
56384W        W24789  39.423  30.867   0.357
56385W        W24790  11.373  18.467   3.278
56386W        W24791  10.270  20.076  12.397
56387W        W24792  15.396  11.238   1.282
56388W        W24793  35.382   8.602  11.968
56389W        W24794  21.274  44.421  14.808
56390W        W24795   0.643  43.907   3.678
56391W        W24796  33.097  43.641  14.823
56392W        W24797  33.180  37.380  10.721
56393W        W24798  29.062  13.840   2.691
56394W        W24799   1.420   6.252  14.564
56395W        W24800   6.670   5.644  14.121
56396W        W24801  44.611  33.091  14.598
56397W        W24802  18.882  10.169   1.345
56398W        W24803  44.506  40.015  14.979
56399W        W24804  25.039  35.988  10.371
56400W        W24805   0.169  30.731   0.612
56401W        W24806  27.969  18.665   0.426
56402W        W24807  29.594  39.563  12.078
56403W        W24808  14.366  33.657   1.452
56404W        W24809   6.310  28.094   0.872
56405W        W24810  42.891  11.064  13.036
56406W        W24811  19.813  22.285   3.138
56407W        W24812   6.027  17.058  12.086
56408W        W24813   4.704   9.731  11.837
56409W        W24814   8.653   7.552  11.988
56410W        W24815  32.847  33.958  13.584
56411W        W24816  28.257  22.282  11.192
56412W        W24817  15.139  15.348  11.399
56413W        W24818  33.113  12.794  12.965
56414W        W24819  35.098  35.154   0.244
56415W        W24820  15.580  28.966   0.536
56416W        W24821  41.573  25.221  10.815
56417W        W24822  24.835  21.184   2.629
56418W        W24823  13.180  12.347   4.459
56419W        W24824  32.117  25.162   0.366
56420W        W24825   9.548  29.597   4.013
56421W        W24826  10.234  42.551   1.256
56422W        W24827  36.554  44.838   4.773
56423W        W24828  17.265  36.880  14.322
56424W        W24829  34.862  33.445  12.458
56425W        W24830  14.521  38.625  14.139
56426W        W24831  25.221  34.116   0.968
56427W        W24832   3.444  40.949   2.691
56428W        W24833  42.850   1.792  13.334
56429W        W24834  14.769  39.190   4.135
56430W        W24835  31.580  32.092   3.821
56431W        W24836  43.030   4.820   2.735
56432W        W24837   0.079   2.736   1.199
56433W        W24838  37.356   5.256  10.703
56434W        W24839  30.183  39.298  14.866
56435W        W24840  17.098  20.184   1.715
56436W        W24841  17.368  12.197   4.785
56437W        W24842  25.169   2.640  12.873
56438W        W24843   5.447  11.129  14.884
56439W        W24844  18.762   7.205   4.958
56440W        W24845  39.076  22.944  12.004
56441W        W24846  35.855  20.735  14.935
56442W        W24847   9.673   8.576   1.427
56443W        W24848  27.392  17.850  13.357
56444W        W24849  19.219  36.027   0.614
56445W        W24850  22.243  39.096   0.116
56446W        W24851  42.462  26.649  14.692
56447W        W24852  40.305  28.560  12.960
56448W        W24853  43.762  38.049   0.567
56449W        W24854  34.068  17.799   0.726
56450W        W24855  21.597  25.615   3.543
56451W        W24856  23.561  30.187   3.020
56452W        W24857  32.180  35.929  13.566
56453W        W24858  42.512  13.763   4.129
56454W        W24859  31.144  10.950   1.230
56455W        W24860  21.817  33.968  14.982
56456W        W24861   7.848  20.986   0.297
56457W        W24862   0.342  32.630  14.479
56458W        W24863   3.362  42.840   4.474
56459W        W24864  19.104  10.420  11.149
56460W        W24865  19.703  24.495  11.461
56461W        W24866   4.820  28.174   2.727
56462W        W24867   0.220   9.800   3.807
56463W        W24868  11.643  23.081  10.156
56464W        W24869  27.535  17.092   2.462
56465W        W24870  10.216  33.357   4.721
56466W        W24871  19.621  35.932   1.410
56467W        W24872  26.673  44.224   0.883
56468W        W24873  19.235  23.657  14.956
56469W        W24874   5.003  12.743   1.462
56470W        W24875  28.957  41.885  10.206
56471W        W24876  27.509   7.162   1.956
56472W        W24877  39.835  14.438   4.967
56473W        W24878   2.928  31.948  13.073
56474W        W24879  11.312   6.405  14.036
56475W        W24880  43.880  15.306   0.384
56476W        W24881  41.894  33.245  11.310
56477W        W24882  36.490  10.229  13.773
56478W        W24883  17.448   9.554  11.678
56479W        W24884   5.665   6.662   2.173
56480W        W24885  17.324  38.357   1.015
56481W        W24886   3.375  24.362   3.728
56482W        W24887   9.635  39.566   1.682
56483W        W24888  22.682  44.816   1.141
56484W        W24889  17.010  21.776  13.728
56485W        W24890  26.106  21.949  14.273
56486W        W24891  13.960  17.642   1.387
56487W        W24892   7.886  37.008   3.403
56488W        W24893  32.823  34.886  13.580
56489W        W24894  18.791  31.435   0.818
56490W        W24895  15.066  24.506   0.897
56491W        W24896  43.020   1.126  13.316
56492W        W24897   4.654   9.707   9.870
56493W        W24898   8.607  14.576   1.384
56494W        W24899  23.070  41.810  14.347
56495W        W24900  27.275   2.316   0.507
56496W        W24901   8.378  21.927  11.561
56497W        W24902  24.676  41.499  13.113
56498W        W24903  38.303  35.787  12.833
56499W        W24904  25.105  30.460  11.490
56500W        W24905   8.768  22.772   2.133
56501W        W24906  28.678  36.875  12.018
56502W        W24907   1.555  11.194  13.174
56503W        W24908  32.498   8.035  11.908
56504W        W24909   8.331   7.148  14.121
56505W        W24910   5.410  29.073   1.992
56506W        W24911  27.047  31.089   3.268
56507W        W24912  37.335  44.416   3.643
56508W        W24913   2.552  36.885  12.853
56509W        W24914   0.682  32.531   3.725
56510W        W24915  39.441  31.214  11.542
56511W        W24916  44.787  14.991   1.787
56512W        W24917  30.966   0.710  12.790
56513W        W24918  25.697   3.226   4.164
56514W        W24919  25.571  17.493   0.662
56515W        W24920   6.174  21.655   1.953
56516W        W24921   4.884   5.976  10.297
56517W        W24922  34.871  33.599   0.356
56518W        W24923  28.271   8.380  13.995
56519W        W24924   9.141  12.722   2.186
56520W        W24925  38.133   9.752   0.728
56521W        W24926  22.535  25.013   1.433
56522W        W24927  38.078  19.637   0.439
56523W        W24928   5.380  35.868   1.629
56524W        W24929   8.785  19.035   3.641
56525W        W24930   5.236  29.864  11.787
56526W        W24931  27.534  37.328  13.557
56527W        W24932  28.520  44.795  14.865
56528W        W24933  15.291  15.770   3.367
56529W        W24934  18.245  28.902   1.318
56530W        W24935   3.055  44.515   2.175
56531W        W24936   3.444  37.602   1.346
56532W        W24937  22.066  29.696   4.485
56533W        W24938  24.587   5.945   4.976
56534W        W24939  14.154  15.287  10.954
56535W        W24940   5.884  24.838   2.642
56536W        W24941  21.834  20.159  12.150
56537W        W24942  16.755  29.933  11.053
56538W        W24943   4.465  33.656  14.876
56539W        W24944   6.440  42.343  12.457
56540W        W24945  14.557  30.510  13.959
56541W        W24946  17.459  33.958   4.474
56542W        W24947  14.115   8.520   3.034
56543W        W24948  31.866  41.812   1.292
56544W        W24949  18.180  19.736   0.396
56545W        W24950   9.874  31.416  14.426
56546W        W24951  14.124  24.036  11.615
56547W        W24952  19.264  35.334   0.002
56548W        W24953  32.455  22.457  11.147
56549W        W24954  11.908   4.357  11.492
56550W        W24955  35.227  37.431  10.585
56551W        W24956  35.829  30.162  13.978
56552W        W24957  29.997  41.540  14.426
56553W        W24958  26.208  19.057   2.128
56554W        W24959  10.685  40.984   4.840
56555W        W24960   0.928   6.410   3.778
56556W        W24961  28.909  35.777  14.210
56557W        W24962   7.768  31.271  11.966
56558W        W24963  12.364  12.630  12.830
56559W        W24964  44.411  17.607  12.829
56560W        W24965   2.371  17.566  11.847
56561W        W24966  37.339   4.447  12.971
56562W        W24967   8.873  31.428   0.332
56563W        W24968  37.512  34.143  10.621
56564W        W24969   7.693   6.667   2.471
56565W        W24970   7.724  39.020  11.499
56566W        W24971  34.492  13.330  14.215
56567W        W24972  15.654  41.269  13.389
56568W        W24973  18.211  18.088   2.630
56569W        W24974  19.448  34.399  13.002
56570W        W24975  18.650   7.613   0.860
56571W        W24976  35.934  42.931   1.910
56572W        W24977  39.028   4.157   4.037
56573W        W24978  17.091  25.455   2.185
56574W        W24979  15.741  35.559   5.177
56575W        W24980   1.744  42.528  14.901
56576W        W24981   0.813  33.403  10.531
56577W        W24982  31.985  24.637  14.493
56578W        W24983  26.700  29.446  14.821
56579W        W24984  22.889   5.528  11.021
56580W        W24985   4.310   2.253   0.485
56581W        W24986  36.067  12.009   0.371
56582W        W24987  22.484  19.314   4.545
56583W        W24988   7.395  26.100   2.858
56584W        W24989   6.881  24.652   2.720
56585W        W24990  15.463   1.495   1.732
56586W        W24991   3.516   3.497  10.143
56587W        W24992  42.282  41.534   1.714
56588W        W24993  22.301  30.723  13.767
56589W        W24994   2.248  25.460  13.898
56590W        W24995  25.357  19.830   4.486
56591W        W24996   0.259  43.468  13.982
56592W        W24997  25.751  20.143   4.555
56593W        W24998   6.417  38.610   4.427
56594W        W24999  23.489  10.898   4.171
56595W        W25000  22.089  26.902  12.359
56596W        W25001  44.833  27.128   4.852
56597W        W25002  30.983  26.319   2.424
56598W        W25003  35.587   7.258   3.612
56599W        W25004  24.045  32.135   4.135
56600W        W25005  22.014  31.299  10.608
56601W        W25006   2.925  33.223   5.049
56602W        W25007  19.763   8.906   4.959
56603W        W25008   9.101  32.029  12.083
56604W        W25009  27.684  10.604  10.337
56605W        W25010  19.984  10.031   3.582
56606W        W25011  24.307  36.145   1.333
56607W        W25012  21.072  28.732   3.161
56608W        W25013  29.680  31.576  11.625
56609W        W25014   9.367  27.037   0.405
56610W        W25015  36.164  37.360  11.485
56611W        W25016  11.134  42.003   1.221
56612W        W25017   0.877   2.474  13.438
56613W        W25018  30.372  28.810   2.161
56614W        W25019  19.654  15.835   4.726
56615W        W25020   0.982  17.116   4.609
56616W        W25021  11.356  23.930  13.889
56617W        W25022  34.036  23.455   0.453
56618W        W25023  18.569  44.708  14.936
56619W        W25024  37.611  33.411   0.908
56620W        W25025   7.255  22.583   0.678
56621W        W25026  35.254   8.746   3.878
56622W        W25027  16.683  19.753  14.844
56623W        W25028  11.833   0.280   1.955
56624W        W25029   8.344  14.318  10.226
56625W        W25030  35.126  12.395   3.143
56626W        W25031  11.715  39.155   4.090
56627W        W25032  18.247  41.950   1.900
56628W        W25033   3.460  14.056  14.022
56629W        W25034   7.412  15.820  14.490
56630W        W25035  33.514   4.323   4.635
56631W        W25036   4.697  30.543   2.921
56632W        W25037   1.230  40.090   2.568
56633W        W25038  43.045  29.983   1.757
56634W        W25039  16.879  42.546   0.358
56635W        W25040   1.852  44.678   0.212
56636W        W25041   1.744  13.702   1.264
56637W        W25042  18.013  36.781   4.065
56638W        W25043  11.166  15.825  14.071
56639W        W25044   9.602   4.459   1.373
56640W        W25045  14.677  30.508   4.520
56641W        W25046   7.240  27.465   5.085
56642W        W25047   5.179  23.678   2.319
56643W        W25048  38.352  32.994  14.062
56644W        W25049  38.999  20.141   4.917
56645W        W25050  41.046  29.964   3.059
56646W        W25051  19.301  10.611  12.469
56647W        W25052   7.819  37.026   4.810
56648W        W25053  13.840   4.280  12.607
56649W        W25054  44.438  27.256  13.846
56650W        W25055   1.788  35.994  14.827
56651W        W25056   4.780  44.864  13.927
56652W        W25057  42.252  16.212   0.642
56653W        W25058  41.545  22.035  13.196
56654W        W25059  14.321  22.103  14.059
56655W        W25060   9.841   4.528   0.923
56656W        W25061   6.332  36.149   1.665
56657W        W25062  23.736  24.230   0.955
56658W        W25063  42.837  43.981   3.258
56659W        W25064   8.659  18.602   4.490
56660W        W25065  41.987  34.963  14.441
56661W        W25066   6.597  18.233  14.932
56662W        W25067  32.447   2.888  12.407
56663W        W25068   5.802  23.928  11.080
56664W        W25069  28.415  35.147   0.860
56665W        W25070  26.567  12.011   5.064
56666W        W25071  41.689  21.780   4.058
56667W        W25072   3.260  24.660  12.149
56668W        W25073  14.289  16.848   2.596
56669W        W25074   4.664   8.620  14.424
56670W        W25075  38.595  25.723  14.999
56671W        W25076   7.717   2.464  12.600
56672W        W25077  21.032  29.485   1.518
56673W        W25078  17.226   5.395  10.665
56674W        W25079  15.022  40.864   3.727
56675W        W25080  15.238  34.444  14.905
56676W        W25081  35.826  43.008   3.207
56677W        W25082  36.973   6.605  12.465
56678W        W25083   9.728  42.469   3.563
56679W        W25084  22.468  41.051  14.449
56680W        W25085   3.388  30.681   3.255
56681W        W25086   0.915  31.574  12.586
56682W        W25087  12.669  20.286   1.480
56683W        W25088  24.043  35.866  10.782
56684W        W25089  13.870  44.586   3.661
56685W        W25090  34.438  16.324   0.868
56686W        W25091  22.794  31.408  14.479
56687W        W25092  40.828  19.752   3.352
56688W        W25093   5.325  24.055  14.805
56689W        W25094  24.735   1.877   4.253
56690W        W25095  26.709  21.471   0.380
56691W        W25096   8.667  37.478  10.924
56692W        W25097   0.892  25.890   4.025
56693W        W25098  14.202  24.698   3.328
56694W        W25099  28.563  35.465  14.656
56695W        W25100   2.746  19.723   3.519
56696W        W25101  28.705  33.603  12.701
56697W        W25102   9.243  32.428  13.685
56698W        W25103  14.350  35.130   0.272
56699W        W25104   2.219  39.346   0.809
56700W        W25105  15.093   3.887  14.686
56701W        W25106  11.800  37.551   2.314
56702W        W25107  17.991  18.167  11.584
56703W        W25108   5.286   0.331   4.508
56704W        W25109  10.926  15.228   1.762
56705W        W25110   4.035  11.175  13.019
56706W        W25111  15.055   0.687   0.324
56707W        W25112  38.821  34.380  11.095
56708W        W25113  38.127  16.564  11.115
56709W        W25114  16.632  24.738   2.266
56710W        W25115  38.884  13.933  10.401
56711W        W25116  26.468  28.981   1.942
56712W        W25117  24.212  31.428  14.025
56713W        W25118  33.804  21.589   0.815
56714W        W25119  37.897  32.914  13.814
56715W        W25120  20.608   4.388  13.138
56716W        W25121  29.714  11.101  11.654
56717W        W25122  13.839  43.511  11.055
56718W        W25123  32.702  34.607  10.861
56719W        W25124  33.925  41.213   0.401
56720W        W25125  39.947  20.244   3.354
56721W        W25126  34.345  23.222  14.441
56722W        W25127  23.712  38.515   2.868
56723W        W25128   6.000  24.695  14.023
56724W        W25129  31.942  26.849  13.462
56725W        W25130  20.001  31.436  14.025
56726W        W25131  11.528  12.159   3.228
56727W        W25132  33.095  31.517   3.639
56728W        W25133   0.980   2.839   0.847
56729W        W25134  33.556  18.119   3.634
56730W        W25135   7.743  13.876  13.340
56731W        W25136  38.879  35.750   0.842
56732W        W25137  17.327  26.453  11.704
56733W        W25138  13.887  37.390   1.339
56734W        W25139   9.626   3.960  12.164
56735W        W25140  21.054  31.364  14.858
56736W        W25141  14.798  35.412   0.827
56737W        W25142  35.338   3.332  11.934
56738W        W25143  28.118  29.160   2.734
56739W        W25144  44.327  41.431   2.616
56740W        W25145  15.746   7.547   3.555
56741W        W25146  37.710   3.846  11.749
56742W        W25147  24.230   1.755  12.002
56743W        W25148  29.759  26.950   2.251
56744W        W25149  28.935  11.751   2.370
56745W        W25150   8.687  22.956  11.485
56746W        W25151  37.104  39.057  14.773
56747W        W25152  37.963  18.836  11.070
56748W        W25153  15.486  36.565  11.425
56749W        W25154  18.718   4.935  14.702
56750W        W25155  23.272  36.073   4.139
56751W        W25156  11.444  12.574  13.141
56752W        W25157  43.495   1.007  14.447
56753W        W25158  40.937  29.647  12.327
56754W        W25159  10.239  15.628  13.813
56755W        W25160  29.526  13.576  14.315
56756W        W25161  21.915  31.527   4.496
56757W        W25162  23.033  11.163  11.516
56758W        W25163  16.073  10.194   0.466
56759W        W25164  29.995  40.742  11.623
56760W        W25165   3.312  22.828   5.159
56761W        W25166  27.942  16.013  11.381
56762W        W25167  16.857  21.285  12.558
56763W        W25168  31.717  23.646  14.238
56764W        W25169   1.333  24.603  14.860
56765W        W25170  32.032  15.206   2.258
56766W        W25171   3.945   2.227  13.985
56767W        W25172  23.435  14.948   2.345
56768W        W25173  19.088  18.124  11.014
56769W        W25174  23.075  39.071   0.375
56770W        W25175  10.392  44.812   2.944
56771W        W25176  44.828   0.384   2.254
56772W        W25177  35.548   2.926  12.122
56773W        W25178  41.155  24.183  11.553
56774W        W25179  35.897  15.620   2.394
56775W        W25180  25.760  28.671   1.287
56776W        W25181  23.040  19.706  10.849
56777W        W25182  16.781   4.609   2.863
56778W        W25183   9.511   6.006   2.810
56779W        W25184  16.637   2.731  10.941
56780W        W25185  21.498  35.321   1.050
56781W        W25186  21.650  41.862  13.993
56782W        W25187  18.593  30.599   3.687
56783W        W25188  30.152  37.451  14.333
56784W        W25189   0.489  12.794   2.734
56785W        W25190  41.358   6.400  10.834
56786W        W25191   2.309  16.119  11.090
56787W        W25192  27.140   7.435   1.694
56788W        W25193  14.046  21.149  12.737
56789W        W25194  39.914  13.513  14.687
56790W        W25195  43.657  25.237  10.663
56791W        W25196  19.567   4.032   3.774
56792W        W25197  21.878   5.108   2.760
56793W        W25198  22.224  37.987  10.679
56794W        W25199  33.950  11.538  13.554
56795W        W25200  42.764  21.692   3.218
56796W        W25201  11.781  38.897   4.590
56797W        W25202   6.145  19.057   3.154
56798W        W25203  20.773  27.580  13.420
56799W        W25204  38.865   7.661  10.812
56800W        W25205  14.129  41.465  11.583
56801W        W25206   9.972  40.467   4.537
56802W        W25207  13.238  22.735  14.790
56803W        W25208  10.834  38.584   3.182
56804W        W25209  17.726   8.635  10.978
56805W        W25210  29.986  20.618  13.421
56806W        W25211   4.215   1.451  11.368
56807W        W25212  20.230   5.391   4.374
56808W        W25213  26.881  16.789   1.940
56809W        W25214  30.057  11.101  13.360
56810W        W25215  36.615  32.441  13.351
56811W        W25216   8.103  23.101  14.874
56812W        W25217   5.907  29.138  14.995
56813W        W25218  21.308  40.815   4.594
56814W        W25219  12.077   6.519  11.655
56815W        W25220  28.951  24.333   1.750
56816W        W25221   2.283  27.887  12.412
56817W        W25222  42.221  20.099   4.528
56818W        W25223  17.224  23.189   4.092
56819W        W25224  12.785  44.848   2.777
56820W        W25225  38.957  43.854   3.866
56821W        W25226  27.418  20.210  10.555
56822W        W25227   3.603   7.484  13.577
56823W        W25228  44.314  29.247   4.498
56824W        W25229  17.588  41.493   1.498
56825W        W25230  22.089  13.859  10.753
56826W        W25231   7.368   4.390   3.306
56827W        W25232  27.813  12.647   1.350
56828W        W25233  38.550   2.809  13.766
56829W        W25234  10.262   2.488  12.037
56830W        W25235   3.341  37.553  12.028
56831W        W25236  30.026  22.625  13.043
56832W        W25237  42.771  11.406  12.058
56833W        W25238  17.025  27.512   2.715
56834W        W25239  35.485  21.549   4.447
56835W        W25240  32.028  35.995   0.402
56836W        W25241  12.794  38.333   0.438
56837W        W25242  10.712  39.547  12.825
56838W        W25243  36.849  12.817   1.397
56839W        W25244  18.819  36.554   2.805
56840W        W25245  26.414  40.244  13.876
56841W        W25246   4.928  40.142   0.050
56842W        W25247   9.324  44.788  12.012
56843W        W25248  19.178  33.728   2.818
56844W        W25249  32.105  39.713  11.598
56845W        W25250  31.250  39.898  10.197
56846W        W25251  34.686  25.612  12.950
56847W        W25252  25.480   8.669  12.501
56848W        W25253  38.404  36.571  14.902
56849W        W25254  22.782  10.599  13.987
56850W        W25255  42.261  39.910   2.316
56851W        W25256  36.880   4.333  14.674
56852W        W25257  32.103  14.341  14.584
56853W        W25258  11.397  34.097   1.988
56854W        W25259   1.664   5.207  10.360
56855W        W25260  14.829   9.271  11.515
56856W        W25261  32.617  35.834  12.823
56857W        W25262  27.643  42.616  10.541
56858W        W25263   7.289  21.776  13.971
56859W        W25264   4.200  12.060   0.244
56860W        W25265  24.778  14.233  14.325
56861W        W25266  20.069  24.209  11.251
56862W        W25267  13.129   5.390   2.445
56863W        W25268  36.994  25.455  12.530
56864W        W25269  44.941  10.176   3.530
56865W        W25270  18.367  35.038  11.196
56866W        W25271  36.374  43.464  11.108
56867W        W25272  43.651  41.157  12.932
56868W        W25273  11.494  17.013   3.633
56869W        W25274  23.466  31.196  11.278
56870W        W25275   9.554  10.632   3.196
56871W        W25276   2.840   6.747  14.353
56872W        W25277  32.155  21.245   2.564
56873W        W25278  10.255   3.463   2.851
56874W        W25279   5.682  28.041  12.915
56875W        W25280  15.376  34.568   2.743
56876W        W25281  34.381  31.049  11.517
56877W        W25282  10.011   0.697  13.532
56878W        W25283  44.738  39.437  10.596
56879W        W25284  41.500  40.632   3.343
56880W        W25285  13.134  23.492  11.980
56881W        W25286  24.211  33.357  10.787
56882W        W25287  25.420  14.549   0.423
56883W        W25288   2.254  44.954   4.087
56884W        W25289  17.082  27.994  12.084
56885W        W25290   3.937  32.161   4.136
56886W        W25291  35.818   7.850  11.636
56887W        W25292  16.781  39.396   4.182
56888W        W25293  11.642  14.108  10.041
56889W        W25294   7.170   7.798  11.619
56890W        W25295  16.300  27.355   0.591
56891W        W25296  14.316  11.139   2.140
56892W        W25297  23.632  18.501   3.264
56893W        W25298  34.911  18.008  13.897
56894W        W25299  44.851   3.109  12.379
56895W        W25300  28.446   6.671  13.980
56896W        W25301   9.186  31.122   4.832
56897W        W25302  15.104  24.639  11.508
56898W        W25303  27.641  10.799  13.639
56899W        W25304  12.807  20.800  13.917
56900W        W25305  40.496  17.607  10.628
56901W        W25306  20.308  22.628  14.194
56902W        W25307  42.583   7.895  13.401
56903W        W25308  16.614  10.659   1.820
56904W        W25309  42.074   5.420  14.440
56905W        W25310  13.597  30.900  13.990
56906W        W25311   6.199   2.712  10.685
56907W        W25312   3.894  14.334   3.512
56908W        W25313   3.514  17.786   1.437
56909W        W25314  41.578   7.216   2.798
56910W        W25315  27.224  44.311  11.633
56911W        W25316  30.923  21.020  13.384
56912W        W25317  25.715  11.317  14.397
56913W        W25318   5.276  32.141   0.884
56914W        W25319  12.664  19.710   3.630
56915W        W25320  41.991  28.159   1.220
56916W        W25321  32.910  30.357  12.090
56917W        W25322  16.815  39.404  13.113
56918W        W25323  15.389  35.594  13.095
56919W        W25324  23.248  35.578  12.112
56920W        W25325   5.937  44.697  14.676
56921W        W25326   9.217  16.831  10.383
56922W        W25327  39.762   3.475  13.789
56923W        W25328  32.089  28.334   1.450
56924W        W25329  24.888  14.147   2.867
56925W        W25330  39.471  28.092  10.670
56926W        W25331  11.441   8.559   2.181
56927W        W25332  18.740   4.413   3.139
56928W        W25333  17.665  43.983  10.680
56929W        W25334  25.621   2.252   0.391
56930W        W25335  41.963   2.292   1.214
56931W        W25336  39.827  31.930   3.412
56932W        W25337  42.514  11.719  14.196
56933W        W25338  36.676  30.013  11.641
56934W        W25339  13.308   1.297  13.903
56935W        W25340  10.626  35.900  10.343
56936W        W25341  27.772   8.321  13.972
56937W        W25342  27.521  41.557   5.008
56938W        W25343  24.152  28.886   1.657
56939W        W25344  16.155  37.924  14.309
56940W        W25345  42.549   3.149   2.110
56941W        W25346  18.368   8.804   5.895
56942W        W25347  21.674   0.846   3.834
56943W        W25348   7.573   9.614  14.775
56944W        W25349  33.004  26.466  11.680
56945W        W25350  41.463   0.073   3.921
56946W        W25351  39.231  41.405   1.767
56947W        W25352   9.069   0.262   4.209
56948W        W25353  22.085  27.816  12.619
56949W        W25354  23.453  17.916  12.225
56950W        W25355  44.904  12.860  14.228
56951W        W25356  34.825  16.311   0.518
56952W        W25357   2.509  10.033   0.747
56953W        W25358  39.352  10.774  12.621
56954W        W25359  37.663   2.841  14.733
56955W        W25360  20.182  26.633   3.310
56956W        W25361  34.019   3.358   3.154
56957W        W25362   4.909  31.602   1.387
56958W        W25363  28.860  34.566   2.880
56959W        W25364   4.501  10.895  14.804
56960W        W25365   2.332  27.958   3.744
56961W        W25366  37.901   0.983   1.918
56962W        W25367   7.123   3.892   3.295
56963W        W25368  23.107  44.780   3.182
56964W        W25369  22.387  22.957  11.280
56965W        W25370  23.019  13.895  14.766
56966W        W25371  17.982  44.516   0.955
56967W        W25372  38.462  16.496   2.844
56968W        W25373  42.168  16.292  14.798
56969W        W25374   5.946  37.202  10.677
56970W        W25375  13.569  38.813   2.374
56971W        W25376  29.921  27.168   3.683
56972W        W25377  39.859  29.171   1.770
56973W        W25378   6.186   7.354  14.329
56974W        W25379  21.941   2.308  11.562
56975W        W25380   5.411   0.764   1.209
56976W        W25381  42.488  20.183   0.383
56977W        W25382  25.962  42.033   1.051
56978W        W25383   2.204  35.556  13.474
56979W        W25384  40.505  26.927  11.210
56980W        W25385  33.442  19.257  14.793
56981W        W25386  24.824  29.847   0.690
56982W        W25387  36.124  35.603  12.938
56983W        W25388   3.233  13.242   1.189
56984W        W25389  13.590  26.999   3.299
56985W        W25390  20.264  31.347  12.577
56986W        W25391  26.476  40.719   3.595
56987W        W25392  43.224  19.167  11.491
56988W        W25393   7.876  30.529   4.972
56989W        W25394  18.699  10.197   0.462
56990W        W25395  12.822  19.046   0.859
56991W        W25396   9.808   6.756   1.427
56992W        W25397  38.724  43.202  14.792
56993W        W25398   0.755   2.855   0.295
56994W        W25399  14.143  39.424  10.836
56995W        W25400  11.131   9.377  14.372
56996W        W25401  32.860  29.729   3.774
56997W        W25402  27.616   4.926  14.631
56998W        W25403  33.892   6.821   1.988
56999W        W25404  32.835   8.643   0.583
57000W        W25405  33.421  16.919   4.651
57001W        W25406  32.486  28.707  11.735
57002W        W25407   2.948  29.581   0.491
57003W        W25408  37.134  44.801   3.394
57004W        W25409  32.942   3.753   1.912
57005W        W25410   6.272  28.216  11.610
57006W        W25411  31.159  42.359   1.230
57007W        W25412  26.445  35.268  11.921
57008W        W25413  32.294  31.219   5.041
57009W        W25414   1.175   5.809  14.732
57010W        W25415  19.827  42.503  12.006
57011W        W25416  39.888   7.711  14.881
57012W        W25417  34.949  28.673  11.507
57013W        W25418  19.551   8.128   2.828
57014W        W25419  16.699  27.931   1.272
57015W        W25420  27.426  20.246  14.767
57016W        W25421  41.547  15.744  11.740
57017W        W25422  16.372   4.865  12.551
57018W        W25423  42.793  29.750  10.750
57019W        W25424  22.543  31.495  11.154
57020W        W25425  15.059  43.160  14.535
57021W        W25426   4.888  38.386   9.835
57022W        W25427   3.682  41.360   1.032
57023W        W25428  31.449  24.080  11.595
57024W        W25429  20.957  38.389   0.717
57025W        W25430  40.361   1.344   3.938
57026W        W25431   0.872  43.747   1.980
57027W        W25432  16.554  22.475  14.296
57028W        W25433  22.066   2.732  12.404
57029W        W25434  32.155  41.479  10.654
57030W        W25435  10.791  20.482   1.757
57031W        W25436   3.725   7.797   0.943
57032W        W25437  40.036   0.425   4.167
57033W        W25438  39.557  30.587  11.670
57034W        W25439  37.870  18.949  14.036
57035W        W25440  29.907  42.915  11.576
57036W        W25441  14.329  14.147   0.308
57037W        W25442   7.010  12.088  13.736
57038W        W25443  23.013  33.998  13.389
57039W        W25444  22.545  41.720   1.655
57040W        W25445  36.088  25.563  12.822
57041W        W25446  20.899  25.721   3.637
57042W        W25447  16.660  20.819  12.665
57043W        W25448  11.638  39.673   4.071
57044W        W25449  11.478   8.249  12.000
57045W        W25450  11.828   1.471  11.680
57046W        W25451  36.437  34.871  11.175
57047W        W25452  43.058   6.748   1.801
57048W        W25453  21.689  37.736  12.053
57049W        W25454  18.307  41.868   4.292
57050W        W25455   1.015  22.805  13.544
57051W        W25456  18.128  28.994   2.757
57052W        W25457  18.203  11.818   4.093
57053W        W25458  30.501  31.111   0.855
57054W        W25459  37.468  16.364  14.516
57055W        W25460   0.980  10.150   3.380
57056W        W25461  34.389  12.863  13.825
57057W        W25462  44.391  18.244  10.230
57058W        W25463  22.396  27.366   0.759
57059W        W25464  21.100  20.297   1.888
57060W        W25465  25.770  12.074   4.353
57061W        W25466  29.638  29.254   0.375
57062W        W25467  14.954  35.667  11.179
57063W        W25468  18.502  37.525   0.458
57064W        W25469   0.330  30.474  13.308
57065W        W25470   4.940  14.318  14.018
57066W        W25471  31.195  18.720  14.396
57067W        W25472  38.274  12.020  14.036
57068W        W25473  40.228  14.609  11.802
57069W        W25474  24.056  35.872   2.970
57070W        W25475  26.359  29.597   4.532
57071W        W25476  28.205  14.611  13.930
57072W        W25477  10.222  32.669  10.375
57073W        W25478  44.534  18.566   4.523
57074W        W25479   7.755  16.810  14.884
57075W        W25480  21.006   5.977   2.237
57076W        W25481  39.031  11.365  14.153
57077W        W25482  11.738   3.737   2.628
57078W        W25483  23.270  31.808  13.849
57079W        W25484  30.743  35.902  11.542
57080W        W25485   5.858  17.310   4.603
57081W        W25486  29.810  19.121   3.715
57082W        W25487   0.885  28.344   3.780
57083W        W25488   6.819  17.519   2.338
57084W        W25489  30.501  29.860   1.210
57085W        W25490  15.226  22.839   2.405
57086W        W25491  18.657   0.065  11.452
57087W        W25492  21.634  31.987   0.827
57088W        W25493  42.770  24.040   3.559
57089W        W25494  27.162   7.440   2.220
57090W        W25495   4.080  38.560   2.101
57091W        W25496   2.376  16.364   2.797
57092W        W25497   9.226  34.585  14.421
57093W        W25498  42.395  43.268  14.828
57094W        W25499  29.496  43.297  12.599
57095W        W25500  29.387   0.034   0.455
57096W        W25501  15.061  37.145   1.955
57097W        W25502  36.353  29.360   4.360
57098W        W25503  39.882  24.657  10.790
57099W        W25504  25.259  16.762   3.776
57100W        W25505   5.094   5.288  10.586
57101W        W25506   3.412  15.656  11.144
57102W        W25507  22.737  32.167   3.645
57103W        W25508  18.481  22.599   3.585
57104W        W25509  10.059  29.479   3.819
57105W        W25510  30.951  41.242  10.212
57106W        W25511  44.878  24.031   0.480
57107W        W25512  21.943  21.969  13.443
57108W        W25513  32.193  39.415  13.028
57109W        W25514  23.955  15.401   0.378
57110W        W25515   3.878  32.398  11.241
57111W        W25516  27.193  42.562  12.149
57112W        W25517   2.140  14.302  11.950
57113W        W25518   2.313  10.674  12.222
57114W        W25519   4.298  11.367  13.446
57115W        W25520  40.063  35.831   0.733
57116W        W25521  22.661  18.884  13.884
57117W        W25522   8.858  13.715  12.905
57118W        W25523  12.038  14.187  14.921
57119W        W25524  42.547  26.723  12.862
57120W        W25525  38.781   7.969  14.304
57121W        W25526  38.021   1.765  10.330
57122W        W25527   9.380  13.171  12.427
57123W        W25528  30.264  22.177  13.068
57124W        W25529   5.842  19.271  12.941
57125W        W25530  41.828  17.540   1.790
57126W        W25531  10.160  24.799   4.714
57127W        W25532  21.574  36.928   1.837
57128W        W25533  33.346  14.270  13.428
57129W        W25534  11.340   5.073   4.127
57130W        W25535   5.849  42.677   4.318
57131W        W25536  17.886  19.131   4.530
57132W        W25537  15.794  44.451  10.642
57133W        W25538  32.075  23.496  11.874
57134W        W25539   2.531  16.721  14.722
57135W        W25540  27.664  34.617  14.822
57136W        W25541  35.825  41.999   3.371
57137W        W25542   3.857  35.919   1.914
57138W        W25543  16.642  20.709  14.614
57139W        W25544  32.662  32.022  14.014
57140W        W25545  31.612  11.639  14.332
57141W        W25546  15.705  35.096   0.443
57142W        W25547  27.384   0.928   4.484
57143W        W25548  23.547  36.330  11.011
57144W        W25549  44.508  12.105  14.471
57145W        W25550  43.359  12.603   3.718
57146W        W25551  15.194   2.743   4.489
57147W        W25552  21.084  26.476  12.106
57148W        W25553  31.146   4.255   3.873
57149W        W25554  17.656  31.432  11.046
57150W        W25555  36.278  36.237  14.903
57151W        W25556   2.360  22.316   1.437
57152W        W25557  14.106  26.694  12.151
57153W        W25558  38.070  11.452   4.551
57154W        W25559  37.109  33.628  14.756
57155W        W25560  32.326  34.549  14.848
57156W        W25561   6.676  35.600  12.997
57157W        W25562  18.044  44.810   1.911
57158W        W25563   8.931  20.737   2.843
57159W        W25564   8.673   3.968   1.415
57160W        W25565  17.706   6.849   3.500
57161W        W25566  26.014  41.923  10.415
57162W        W25567  16.624  13.347   3.238
57163W        W25568  34.984  37.008   4.315
57164W        W25569  19.273  25.945  13.324
57165W        W25570  17.821  32.364   1.059
57166W        W25571  30.557  13.760   1.309
57167W        W25572   0.838  36.832  14.306
57168W        W25573  34.181   1.274   0.931
57169W        W25574  10.114  33.070   0.344
57170W        W25575  31.607  35.793   2.486
57171W        W25576  10.889  39.087   2.941
57172W        W25577  34.875  22.679   5.120
57173W        W25578  11.883   4.736   3.602
57174W        W25579  33.433  37.142   2.578
57175W        W25580  35.531   5.428  12.032
57176W        W25581  39.973  35.975   1.240
57177W        W25582  31.603  27.529  13.613
57178W        W25583  30.462   1.304  12.132
57179W        W25584  43.263  35.340  12.970
57180W        W25585  32.292  28.634  10.333
57181W        W25586  39.767  22.073   0.392
57182W        W25587   0.854  44.483   3.822
57183W        W25588   0.226  27.963  14.470
57184W        W25589  11.892  14.305  14.381
57185W        W25590  32.994  43.744  10.475
57186W        W25591  12.293  21.382   2.170
57187W        W25592  16.699  32.624  11.512
57188W        W25593  30.891   7.571   1.755
57189W        W25594  13.722  31.691   0.750
57190W        W25595   3.759   4.110  14.054
57191W        W25596  21.551  37.062  11.381
57192W        W25597  18.550  30.048   3.256
57193W        W25598  34.638  14.689   1.959
57194W        W25599   0.773  39.476   0.633
57195W        W25600  42.108   9.482  14.571
57196W        W25601  21.559  29.659  12.815
57197W        W25602  35.940  25.469  11.894
57198W        W25603  44.049  15.703  11.560
57199W        W25604   2.835  17.471  14.507
57200W        W25605  21.232  40.385  12.687
57201W        W25606  27.453  21.294   2.611
57202W        W25607  30.183   0.479   2.146
57203W        W25608  16.807  44.224   5.048
57204W        W25609   9.250  21.740   0.225
57205W        W25610   3.277  32.490   1.221
57206W        W25611  29.458   4.931  12.538
57207W        W25612  37.272  10.068  14.411
57208W        W25613   9.133  19.310   1.251
57209W        W25614  41.972  34.362  11.671
57210W        W25615   7.405   6.103  11.580
57211W        W25616  14.018  17.508  12.388
57212W        W25617   6.414  11.415  14.217
57213W        W25618  18.495  16.637  12.895
57214W        W25619   3.478   4.446   3.716
57215W        W25620  30.381  22.164   2.376
57216W        W25621   4.222  38.595   0.256
57217W        W25622  28.151  20.653  10.673
57218W        W25623  33.012   9.054   3.085
57219W        W25624  36.603  13.768  12.086
57220W        W25625   0.682   1.689   4.458
57221W        W25626  13.434  27.136   1.893
57222W        W25627  12.667  37.647   2.719
57223W        W25628  36.574  40.884   2.367
57224W        W25629   6.754   9.859   4.224
57225W        W25630  40.869  12.798  11.023
57226W        W25631  38.028  24.179  12.046
57227W        W25632  17.031  34.665   2.421
57228W        W25633   3.943  23.711   1.872
57229W        W25634  26.103  21.106   0.461
57230W        W25635  26.098  24.435   2.708
57231W        W25636  26.062  23.490   4.340
57232W        W25637   3.394  26.617  14.242
57233W        W25638   5.677  20.768  12.843
57234W        W25639  41.466  29.985  13.455
57235W        W25640   9.429   6.249  11.052
57236W        W25641  30.218  19.360   0.324
57237W        W25642   7.743  35.355  13.874
57238W        W25643  11.821   1.955   3.052
57239W        W25644  10.209  38.299   2.767
57240W        W25645  34.508  24.039  12.429
57241W        W25646  15.179  12.776   3.932
57242W        W25647  14.325  42.282   2.506
57243W        W25648  28.073  32.532  13.828
57244W        W25649  30.481  38.322  12.038
57245W        W25650  38.788  31.976  14.081
57246W        W25651  11.334  38.270   4.123
57247W        W25652  21.494   1.162   0.280
57248W        W25653  12.987   2.357  11.466
57249W        W25654  17.892  29.883   0.949
57250W        W25655  16.254  28.230  12.983
57251W        W25656  26.921  14.204   3.704
57252W        W25657  24.025  41.918  10.623
57253W        W25658  38.036  30.086  11.083
57254W        W25659   6.762   5.645   1.644
57255W        W25660  37.466  24.006  11.648
57256W        W25661  13.516  39.338   3.155
57257W        W25662  26.851   1.775   0.740
57258W        W25663  19.967  43.950  14.376
57259W        W25664   5.014  38.861  13.973
57260W        W25665  29.445  35.917   0.669
57261W        W25666  12.703  23.313  10.826
57262W        W25667  18.222  19.521   3.642
57263W        W25668  43.291  20.222   2.301
57264W        W25669  43.926  40.626  13.422
57265W        W25670  43.225  40.966   4.003
57266W        W25671  28.686  39.880   1.691
57267W        W25672  43.827  22.414  12.030
57268W        W25673  32.853  33.628   1.193
57269W        W25674  37.008  15.003   0.859
57270W        W25675  40.871   1.783   2.144
57271W        W25676  18.175  36.706  13.126
57272W        W25677  13.514  22.488  12.156
57273W        W25678   6.694  34.427  14.910
57274W        W25679   5.768  13.682   0.285
57275W        W25680  40.385  35.361   2.173
57276W        W25681  36.799  27.667  12.824
57277W        W25682  30.887   7.152   0.897
57278W        W25683   6.792  44.142  14.606
57279W        W25684  24.778   4.990   0.472
57280W        W25685  15.727  11.607   2.714
57281W        W25686  26.569  20.981   4.188
57282W        W25687  21.288   4.207   4.096
57283W        W25688  44.875  32.575   0.466
57284W        W25689   3.331  27.119  13.000
57285W        W25690  23.270   5.075   3.353
57286W        W25691  42.509   9.777  12.457
57287W        W25692  44.215  22.669   2.022
57288W        W25693   0.994   4.913   0.212
57289W        W25694  28.886  34.076   4.366
57290W        W25695   6.286  42.243   2.839
57291W        W25696  42.718  38.948   1.876
57292W        W25697  11.678  29.437   3.710
57293W        W25698  20.118  12.862   3.762
57294W        W25699   0.086  21.886   2.561
57295W        W25700  34.674  21.944   3.244
57296W        W25701   7.441  16.772  11.035
57297W        W25702  21.766  22.796   1.281
57298W        W25703  27.193  15.542   2.622
57299W        W25704  18.765  36.886   1.379
57300W        W25705   6.282  10.622  14.137
57301W        W25706  34.942  26.805  11.508
57302W        W25707  12.851  13.180  14.021
57303W        W25708  34.940  24.044   4.311
57304W        W25709   0.403  18.388   2.236
57305W        W25710  17.007  12.793  12.601
57306W        W25711  31.222   2.499  13.063
57307W        W25712  11.118  42.458   0.479
57308W        W25713  40.960   9.894   1.970
57309W        W25714  23.720  20.669  12.635
57310W        W25715  18.876  19.085   4.868
57311W        W25716  28.101  21.521   3.715
57312W        W25717  43.191  26.049  11.564
57313W        W25718  41.078   2.193  11.351
57314W        W25719  11.626   7.231   3.653
57315W        W25720  21.153   9.399  11.709
57316W        W25721  36.435  16.738  14.868
57317W        W25722  28.941  18.523  11.617
57318W        W25723  42.616   5.854   1.242
57319W        W25724   1.545  42.344  14.461
57320W        W25725  28.203  25.497  14.387
57321W        W25726  40.877  17.253   3.236
57322W        W25727  29.044  41.614   5.166
57323W        W25728  14.061  29.613  10.699
57324W        W25729  30.980  41.819  12.329
57325W        W25730  33.824  42.046  13.345
57326W        W25731  42.734  28.745  12.912
57327W        W25732  27.664  20.067  13.289
57328W        W25733  11.159  23.748  12.074
57329W        W25734  25.914   3.270   3.108
57330W        W25735  17.782  27.376  13.091
57331W        W25736  17.685  41.127  12.005
57332W        W25737   7.663  43.490  10.561
57333W        W25738   8.222  19.270   4.500
57334W        W25739  32.985  24.642   1.930
57335W        W25740   2.520   6.460   3.827
57336W        W25741  20.970  42.778  14.430
57337W        W25742  11.701  40.092  12.634
57338W        W25743  24.681   9.739   3.420
57339W        W25744   1.226  31.479  10.369
57340W        W25745  20.470  22.268  11.201
57341W        W25746  28.066  22.783  12.163
57342W        W25747  31.632  41.087   3.297
57343W        W25748  33.079  25.058   4.203
57344W        W25749  26.784   5.100   3.426
57345W        W25750  44.569  34.593  14.094
57346W        W25751  33.574  31.065   1.156
57347W        W25752   8.388  21.256  13.778
57348W        W25753  36.161  35.533   1.315
57349W        W25754  23.962  29.565   0.481
57350W        W25755  35.048  23.587   4.568
57351W        W25756  31.175  35.840  12.548
57352W        W25757  41.164  37.349   4.100
57353W        W25758   9.988  37.918  13.065
57354W        W25759  41.338  24.916  11.149
57355W        W25760  28.927  13.342   2.630
57356W        W25761  21.633   8.779   0.792
57357W        W25762  24.983   8.430  11.680
57358W        W25763  41.026   1.571   4.460
57359W        W25764   4.404  38.320   3.859
57360W        W25765   9.814  26.541   0.345
57361W        W25766  12.698  39.920  12.322
57362W        W25767  23.127  36.259  14.803
57363W        W25768  37.312  27.531  12.600
57364W        W25769  43.333  30.995  13.425
57365W        W25770  39.084  19.996   1.518
57366W        W25771  39.881  41.729   0.045
57367W        W25772  30.916  15.533  13.087
57368W        W25773  34.221   8.206   2.094
57369W        W25774  18.640  10.191  13.025
57370W        W25775  30.014  40.977   0.440
57371W        W25776   8.930  36.797  10.666
57372W        W25777   6.938  42.503   3.452
57373W        W25778  16.245  38.340   4.832
57374W        W25779  14.751  13.016  12.989
57375W        W25780   1.921  24.434   2.487
57376W        W25781  23.994  34.524  12.646
57377W        W25782  29.050  40.792  13.595
57378W        W25783  40.318   3.372   9.970
57379W        W25784  28.890  33.699   1.667
57380W        W25785  10.276  32.507  13.732
57381W        W25786  26.636  18.575   1.985
57382W        W25787   5.303  34.639   3.617
57383W        W25788  37.872  29.086   4.340
57384W        W25789   0.261  35.982  13.050
57385W        W25790  20.214  23.022  13.842
57386W        W25791   0.207  18.603   1.731
57387W        W25792   4.856   4.259  14.846
57388W        W25793  12.607  35.524  13.330
57389W        W25794   0.574  15.821  13.989
57390W        W25795  27.816  23.115   2.880
57391W        W25796  11.808  36.599  14.193
57392W        W25797  37.009  37.924   0.317
57393W        W25798  41.703  44.263  11.610
57394W        W25799  38.085  43.992  11.120
57395W        W25800  26.550   3.756   2.728
57396W        W25801  44.263  27.064   1.969
57397W        W25802  24.677   9.184  10.903
57398W        W25803  29.421  10.356  10.886
57399W        W25804  27.133  33.436   1.180
57400W        W25805  39.253   5.661   2.854
57401W        W25806  19.903  27.690   1.889
57402W        W25807   7.080  23.850  11.909
57403W        W25808  41.889  33.642  10.580
57404W        W25809  27.991  23.653  13.768
57405W        W25810  29.045  39.773   0.483
57406W        W25811  13.942  27.673   3.748
57407W        W25812  27.154  18.329  11.589
57408W        W25813  33.137  33.646   4.952
57409W        W25814   6.245  35.942   0.366
57410W        W25815  30.325  15.804  14.937
57411W        W25816  10.467  29.437  14.119
57412W        W25817  20.936  15.358   1.310
57413W        W25818  42.450  44.260  12.336
57414W        W25819  31.365  26.505   0.364
57415W        W25820  29.614  26.334  12.522
57416W        W25821  24.113   0.518   3.639
57417W        W25822  12.205  37.760   4.154
57418W        W25823  14.697  14.031  12.589
57419W        W25824  20.004  41.459   4.096
57420W        W25825  38.843   1.743   0.976
57421W        W25826  40.867   6.248   4.579
57422W        W25827  29.121  25.185  10.830
57423W        W25828  26.282  14.875  12.442
57424W        W25829  23.740   2.857   4.462
57425W        W25830  10.373  30.554  12.014
57426W        W25831  33.320  43.308   2.727
57427W        W25832  33.899  19.583   3.668
57428W        W25833  11.841  16.743   4.742
57429W        W25834  22.475   3.899   2.599
57430W        W25835   9.625  14.001   4.532
57431W        W25836  11.593  30.256   2.787
57432W        W25837  18.520  23.076   3.958
57433W        W25838  37.850  28.745  10.898
57434W        W25839  12.871  10.757  12.029
57435W        W25840  22.045  34.146  13.792
57436W        W25841  43.929  40.452   3.624
57437W        W25842  38.337  39.494   4.098
57438W        W25843  30.676  19.739   4.326
57439W        W25844  31.898   8.178  13.031
57440W        W25845  39.735   6.263  11.262
57441W        W25846   0.361   2.042   3.278
57442W        W25847  27.596   5.681   0.996
57443W        W25848  42.473  13.412  14.408
57444W        W25849  37.836  43.953  11.558
57445W        W25850   6.635   7.852  11.412
57446W        W25851  13.625   5.239  12.916
57447W        W25852  42.873  23.352   2.865
57448W        W25853  33.501  35.515   3.948
57449W        W25854  16.688  10.851  10.639
57450W        W25855  25.130  34.551  13.581
57451W        W25856  40.761  11.228  10.996
57452W        W25857  14.270  15.476  11.622
57453W        W25858  20.915  41.469  14.740
57454W        W25859  31.490   4.850  13.830
57455W        W25860  15.618   1.905  14.419
57456W        W25861  30.346  23.528   0.969
57457W        W25862  39.471  32.452   4.614
57458W        W25863  17.326   3.902   1.411
57459W        W25864  33.579   0.277  10.456
57460W        W25865   3.777  12.770  14.126
57461W        W25866   1.847  38.749  10.967
57462W        W25867   2.463  38.552   3.846
57463W        W25868  39.009   8.253  10.151
57464W        W25869   4.520  18.522  11.017
57465W        W25870  36.978  40.658  10.804
57466W        W25871  31.134  31.857   0.514
57467W        W25872  34.447  36.885  12.492
57468W        W25873   0.258  11.230  12.973
57469W        W25874  13.907  11.591   3.038
57470W        W25875  38.378  25.661   1.509
57471W        W25876  40.888  19.153   2.187
57472W        W25877  16.378   1.252  13.796
57473W        W25878  24.806  24.563   3.640
57474W        W25879  28.051  40.780  12.472
57475W        W25880  36.312  10.689  13.982
57476W        W25881   6.407  23.472  14.703
57477W        W25882  41.092  22.496  11.205
57478W        W25883  28.430  23.595   4.745
57479W        W25884  30.052  13.672   1.173
57480W        W25885  27.546  27.437   0.539
57481W        W25886  16.824   3.999   1.252
57482W        W25887  33.074  34.149   3.599
57483W        W25888  37.750  44.307   0.778
57484W        W25889  16.385   6.890  11.863
57485W        W25890   6.656  20.104   0.303
57486W        W25891  30.651  29.730   1.706
57487W        W25892  42.585  20.377  10.683
57488W        W25893  22.634  23.713  13.367
57489W        W25894  22.657  10.612  11.596
57490W        W25895  31.185   5.447  11.522
57491W        W25896  44.872  17.695   2.324
57492W        W25897  32.737  41.300   3.101
57493W        W25898  38.800  24.526  14.517
57494W        W25899   4.812  36.794  11.935
57495W        W25900  43.703  41.253   1.893
57496W        W25901   8.190  23.904   2.556
57497W        W25902  13.571  13.599  14.469
57498W        W25903  19.365  25.909   0.511
57499W        W25904  19.620   8.770   2.361
57500W        W25905  22.951  31.146  12.054
57501W        W25906  28.772  22.171  13.104
57502W        W25907   5.385  18.491   1.907
57503W        W25908  41.045  38.406  12.490
57504W        W25909  24.224  24.978  12.943
57505W        W25910   2.804   6.665   1.233
57506W        W25911  18.228   9.608   0.043
57507W        W25912  30.856  14.673  10.911
57508W        W25913  35.165   4.941   2.301
57509W        W25914  12.613  22.829  12.148
57510W        W25915  44.418  44.481  14.491
57511W        W25916   3.694  23.215   1.365
57512W        W25917  39.957  27.385  14.430
57513W        W25918  17.707   4.981   3.236
57514W        W25919  22.210  32.163  11.197
57515W        W25920   6.455  26.127  11.625
57516W        W25921  28.585   3.501   2.265
57517W        W25922  26.022  13.361   4.114
57518W        W25923   3.949  41.850  13.096
57519W        W25924  11.297  20.079   4.570
57520W        W25925   5.834  26.698   1.440
57521W        W25926  33.154   2.488   3.324
57522W        W25927  43.481  13.325   1.229
57523W        W25928  40.765  44.537   2.804
57524W        W25929  26.145  35.783   4.571
57525W        W25930  29.115  38.951  10.746
57526W        W25931  42.854  39.619  12.574
57527W        W25932  33.033  35.735   0.313
57528W        W25933  36.200  28.491  12.026
57529W        W25934  15.772  32.832  11.398
57530W        W25935  18.587  26.718   0.951
57531W        W25936  14.178  38.551  10.632
57532W        W25937  13.398  16.154   3.982
57533W        W25938  14.995  36.421  11.600
57534W        W25939  30.565  15.751  11.392
57535W        W25940  30.728  20.531  14.882
57536W        W25941  28.930   0.376  12.470
57537W        W25942  38.522   2.933   1.260
57538W        W25943  25.742  29.840  13.921
57539W        W25944   7.021  22.276   1.739
57540W        W25945  43.371  24.259   0.850
57541W        W25946  14.723  21.904  14.763
57542W        W25947   6.245  38.533  12.137
57543W        W25948  31.923  13.925   0.827
57544W        W25949  29.643  42.768  12.517
57545W        W25950  32.923  28.540  14.462
57546W        W25951  28.910  37.569  11.636
57547W        W25952  44.608   3.323  10.007
57548W        W25953  37.760  26.446  10.661
57549W        W25954   7.737  22.257   1.233
57550W        W25955  11.573  21.348   4.970
57551W        W25956  25.038   2.861  11.375
57552W        W25957  32.452  42.790   4.207
57553W        W25958  14.708  23.713   0.286
57554W        W25959   2.388  19.605   1.789
57555W        W25960  37.585  38.893   0.607
57556W        W25961  17.040  22.230   4.506
57557W        W25962  15.155  16.994  12.827
57558W        W25963  39.222   5.129  11.129
57559W        W25964  38.816   7.735   1.860
57560W        W25965  10.555  24.464   4.794
57561W        W25966  19.592  38.080  12.036
57562W        W25967  33.344  36.896  14.455
57563W        W25968  39.029   7.641   2.340
57564W        W25969  13.770  23.554   4.075
57565W        W25970  29.937  13.147   2.879
57566W        W25971  11.312  24.938   1.838
57567W        W25972  37.558  22.059  14.429
57568W        W25973  13.198  37.901  11.234
57569W        W25974  39.473  22.925  14.961
57570W        W25975  26.034  26.234  10.485
57571W        W25976   0.240  37.946   3.284
57572W        W25977  32.703  11.779   3.484
57573W        W25978   0.855  12.121  10.252
57574W        W25979   1.262  37.618  11.154
57575W        W25980   6.693  25.724   1.701
57576W        W25981  42.257  41.041   0.969
57577W        W25982  22.102  19.699  14.338
57578W        W25983   4.256  37.194   1.187
57579W        W25984  28.967  28.945  11.486
57580W        W25985  19.591  17.575  12.076
57581W        W25986  14.961  28.440   0.859
57582W        W25987  29.029  29.885   3.538
57583W        W25988  17.547  27.086  12.418
57584W        W25989  44.113   0.347  13.361
57585W        W25990  33.081  44.174  14.952
57586W        W25991  24.271   8.938  11.105
57587W        W25992  36.581   5.829  13.424
57588W        W25993  35.051  32.636   4.728
57589W        W25994  21.205  33.529   2.200
57590W        W25995  16.731  39.375   3.598
57591W        W25996   9.755   0.195  13.476
57592W        W25997  23.511  38.970   1.237
57593W        W25998  25.450  31.243   4.319
57594W        W25999  29.030  19.469   2.624
57595W        W26000   6.645  27.660   1.539
57596W        W26001  17.573  19.523  13.380
57597W        W26002   4.650  38.002  14.525
57598W        W26003  24.711  11.694   4.534
57599W        W26004  44.048  41.311  14.370
57600W        W26005  25.033  14.000   0.969
57601W        W26006   0.412  39.656  13.059
57602W        W26007  22.278   6.182   1.366
57603W        W26008   3.621  11.829  11.937
57604W        W26009  35.526  43.991  11.422
57605W        W26010  28.129  21.112  10.356
57606W        W26011  30.418  35.312   2.724
57607W        W26012  12.774  17.100   4.951
57608W        W26013   4.244   4.495   3.210
57609W        W26014   9.867  21.200   1.923
57610W        W26015   2.428  29.998  10.848
57611W        W26016  12.797  16.527   1.378
57612W        W26017   5.070  36.502   2.250
57613W        W26018  34.412  13.777   1.526
57614W        W26019  23.679   7.306  11.317
57615W        W26020  40.814  12.238  14.352
57616W        W26021  36.433  27.433   1.876
57617W        W26022  27.631  14.783   3.609
57618W        W26023  17.717  18.022  11.137
57619W        W26024  11.787   2.757  11.672
57620W        W26025  24.001  43.819   1.350
57621W        W26026  19.716  10.917   0.856
57622W        W26027  15.834  24.108  11.464
57623W        W26028  29.206  21.308  11.200
57624W        W26029   0.519  27.495  11.946
57625W        W26030  29.471  33.129  10.351
57626W        W26031  44.336  10.799  11.249
57627W        W26032   0.214   8.685   5.370
57628W        W26033   9.442  31.076   1.861
57629W        W26034  25.633  25.210  12.630
57630W        W26035   4.946  13.015   4.618
57631W        W26036  32.851  44.446   0.372
57632W        W26037  29.545   2.360  12.266
57633W        W26038  41.299  34.010  11.076
57634W        W26039  24.108  12.567   1.447
57635W        W26040  41.303  32.875   2.754
57636W        W26041  39.808  10.694   0.111
57637W        W26042   5.507  37.524  14.800
57638W        W26043   2.187  37.592  12.112
57639W        W26044  42.202  36.835  14.898
57640W        W26045  11.224  19.123  13.519
57641W        W26046  10.805  35.017   2.381
57642W        W26047  10.036  30.582   2.213
57643W        W26048  13.743   4.713  12.011
57644W        W26049  15.090   3.943   4.024
57645W        W26050  15.314   4.242  14.988
57646W        W26051  29.134  10.220   1.476
57647W        W26052   8.064  19.264  10.512
57648W        W26053  20.693   8.369  13.947
57649W        W26054  32.420  40.897  12.568
57650W        W26055  38.420  21.679   4.029
57651W        W26056  33.171  17.807   0.804
57652W        W26057  15.186  26.580   5.183
57653W        W26058  30.066  18.170  13.976
57654W        W26059  19.106  26.484   0.213
57655W        W26060  28.039  33.516   4.057
57656W        W26061   1.448  41.990  11.719
57657W        W26062  43.810   5.544   2.278
57658W        W26063   5.770  26.920   2.925
57659W        W26064  10.797  33.175   3.670
57660W        W26065   2.679  28.667  11.132
57661W        W26066   6.342  21.751  14.011
57662W        W26067   1.378  12.440   4.170
57663W        W26068  36.587  25.029   0.436
57664W        W26069   7.146   6.857  14.456
57665W        W26070   6.181   0.867   0.763
57666W        W26071  26.080  41.262  12.124
57667W        W26072  29.944   3.780  13.388
57668W        W26073  36.022  27.236   0.400
57669W        W26074  34.820  13.836  11.633
57670W        W26075  19.632  30.841   0.933
57671W        W26076  34.030  28.517   2.616
57672W        W26077  30.000   1.483   3.608
57673W        W26078  44.027   8.154  11.781
57674W        W26079  13.913   3.681  11.088
57675W        W26080   2.997  41.801  13.535
57676W        W26081  29.913  29.934  12.016
57677W        W26082   7.377  33.554  13.662
57678W        W26083  23.986  25.964  12.878
57679W        W26084   2.744  19.005   4.249
57680W        W26085  34.928  29.096   5.394
57681W        W26086  39.067   2.724   4.093
57682W        W26087  20.191  17.040  11.909
57683W        W26088  19.197   2.332   3.788
57684W        W26089  26.466  28.300  14.040
57685W        W26090   6.187  23.295   4.564
57686W        W26091  28.515  40.306  11.291
57687W        W26092  20.989  40.206  13.118
57688W        W26093  37.725  36.146  10.600
57689W        W26094  30.843  39.963   1.352
57690W        W26095  30.925  30.576   3.625
57691W        W26096  30.107  17.458   4.029
57692W        W26097   8.927  16.196  12.637
57693W        W26098   1.304  31.653  11.803
57694W        W26099  12.244  42.015   2.217
57695W        W26100  42.965  43.113   3.677
57696W        W26101  31.042  35.967   1.228
57697W        W26102  32.422   1.380   4.071
57698W        W26103  19.673  41.278   1.690
57699W        W26104  10.948  41.396   4.660
57700W        W26105  13.644  34.571  11.229
57701W        W26106   6.559  29.156   9.858
57702W        W26107  39.484  10.166   4.900
57703W        W26108  37.161  39.717  14.418
57704W        W26109  39.040  16.757  11.978
57705W        W26110  35.536  14.630   3.600
57706W        W26111  24.115  25.682  13.327
57707W        W26112   9.598  23.336   4.145
57708W        W26113  26.194  39.867  14.896
57709W        W26114  25.603  12.318  10.597
57710W        W26115   4.446  25.187  10.589
57711W        W26116  34.708  34.093  12.355
57712W        W26117   6.328  13.864  13.546
57713W        W26118  41.948  30.061  14.440
57714W        W26119  28.472  23.952   2.396
57715W        W26120   2.818   2.499   1.417
57716W        W26121   1.925  34.915  12.586
57717W        W26122  44.851  12.580   3.785
57718W        W26123  23.717  42.877  12.021
57719W        W26124   0.881  44.220  10.361
57720W        W26125   5.426  40.251   4.294
57721W        W26126  43.411   2.232  13.931
57722W        W26127  38.175  43.335  10.925
57723W        W26128   3.697  27.003   3.797
57724W        W26129  40.397  41.726   1.909
57725W        W26130   6.260  24.407   3.773
57726W        W26131  21.237  27.442  10.941
57727W        W26132  25.003  12.734  11.991
57728W        W26133   1.643  33.374  11.651
57729W        W26134  40.838  32.988  10.638
57730W        W26135  17.347  34.430   1.083
57731W        W26136  42.765  44.797   3.154
57732W        W26137  25.059  21.017  13.838
57733W        W26138  15.119  25.253   3.206
57734W        W26139  44.415  44.450  11.514
57735W        W26140  43.545  19.052  12.090
57736W        W26141  18.691  22.111  12.860
57737W        W26142   8.931   0.754  10.779
57738W        W26143  10.240  36.547  12.823
57739W        W26144  32.588  15.421   4.432
57740W        W26145  32.314  34.321  11.717
57741W        W26146   7.835  19.045  11.400
57742W        W26147   0.326  38.984  14.880
57743W        W26148  37.002  33.097  12.931
57744W        W26149  41.971   9.814   4.330
57745W        W26150  26.180  40.527  14.281
57746W        W26151  15.811   7.802  12.189
57747W        W26152  21.656  41.215   2.870
57748W        W26153  23.267  40.814  11.087
57749W        W26154  35.246  33.294  13.976
57750W        W26155  11.906  31.355   5.075
57751W        W26156  14.577  35.409  10.914
57752W        W26157  32.084   1.397  13.528
57753W        W26158   9.459  24.392  11.124
57754W        W26159  37.852  14.169  13.346
57755W        W26160  39.466   8.831  11.441
57756W        W26161  37.963  10.139   1.649
57757W        W26162  16.742  18.754  11.065
57758W        W26163  13.949  20.488   2.258
57759W        W26164   2.924  30.489  13.717
57760W        W26165  24.204  19.256   1.390
57761W        W26166   3.455   2.772   4.190
57762W        W26167  43.793  23.612   4.937
57763W        W26168  19.071   5.966  11.594
57764W        W26169  29.423  32.491   1.772
57765W        W26170  35.517   6.011   3.291
57766W        W26171   1.718  12.248   4.497
57767W        W26172  26.491  40.130   0.902
57768W        W26173  23.317  13.109   2.207
57769W        W26174  27.252  28.463   4.110
57770W        W26175  15.663   5.236   4.511
57771W        W26176  34.543  41.954   3.970
57772W        W26177  42.486  15.287   1.825
57773W        W26178  30.609  44.640  13.913
57774W        W26179  37.386  44.216  11.569
57775W        W26180  35.151   6.158  11.237
57776W        W26181  44.343  14.178   3.431
57777W        W26182   5.939  21.185   4.596
57778W        W26183  41.834   3.172   4.938
57779W        W26184  43.205  44.255  13.914
57780W        W26185  32.067  44.841   4.776
57781W        W26186  39.839  27.659   1.787
57782W        W26187  21.796  34.039  12.030
57783W        W26188  16.395   3.457  14.536
57784W        W26189  40.426  18.836  13.562
57785W        W26190  33.424  11.139   1.283
57786W        W26191   5.731   1.512  11.192
57787W        W26192  39.741  32.727  11.079
57788W        W26193  10.577  33.483  12.948
57789W        W26194  40.732   1.967   4.329
57790W        W26195   2.548   9.167  12.686
57791W        W26196  12.396  38.348   1.907
57792W        W26197  36.403   8.738   4.600
57793W        W26198  39.238  26.648  12.159
57794W        W26199  34.385  35.000   4.790
57795W        W26200  36.469  34.170   3.778
57796W        W26201  29.637  40.554   3.126
57797W        W26202  21.026  34.806  12.123
57798W        W26203  33.507  14.883  14.550
57799W        W26204  41.446  41.471   1.278
57800W        W26205  12.570  33.011  11.982
57801W        W26206  13.351   0.771   3.367
57802W        W26207   5.342   2.826   3.728
57803W        W26208  12.688  29.681   1.138
57804W        W26209   2.393  23.980  11.300
57805W        W26210  30.891   2.985   3.222
57806W        W26211  11.236  23.574  14.548
57807W        W26212  36.673  29.939  10.738
57808W        W26213  19.558  36.311  12.557
57809W        W26214  14.038  37.972   2.774
57810W        W26215  12.239  32.262   3.727
57811W        W26216  30.609  39.438  14.607
57812W        W26217  29.844   6.841   1.711
57813W        W26218  43.283   8.989   4.666
57814W        W26219  37.887   8.761   4.595
57815W        W26220  38.848  28.031   0.008
57816W        W26221  33.894  28.696  11.311
57817W        W26222  20.189   8.224   1.192
57818W        W26223   9.531  10.343  14.986
57819W        W26224  29.205  44.547   3.678
57820W        W26225  24.730  33.433   0.447
57821W        W26226   9.669  16.889   2.357
57822W        W26227  17.022   7.340  12.301
57823W        W26228   4.967  31.873  12.024
57824W        W26229  10.305  34.029   0.475
57825W        W26230   9.909   3.736  10.794
57826W        W26231  24.115   4.674  13.830
57827W        W26232  37.293  12.709  11.958
57828W        W26233  17.309   2.631   4.072
57829W        W26234  30.725  28.003   3.307
57830W        W26235  35.287  41.316   4.183
57831W        W26236  26.542  13.592   2.370
57832W        W26237  16.710   6.243   3.583
57833W        W26238  17.201  19.958  11.086
57834W        W26239  12.897  11.054   0.313
57835W        W26240  41.756   8.201  11.682
57836W        W26241  44.252   3.367   5.225
57837W        W26242  22.165  30.834  10.790
57838W        W26243  36.635   7.329  14.355
57839W        W26244  39.813   1.241   0.430
57840W        W26245  42.098  11.799  13.815
57841W        W26246  20.704  28.176   3.808
57842W        W26247   8.648   9.201   0.653
57843W        W26248  38.000  20.228  14.761
57844W        W26249  22.013  22.724   2.773
57845W        W26250  10.378  32.102   1.664
57846W        W26251  16.248  33.538   3.977
57847W        W26252  44.637  39.034   3.268
57848W        W26253  18.554  39.567   2.716
57849W        W26254  20.586  26.002  13.915
57850W        W26255  44.931  31.044  13.757
57851W        W26256   9.507   1.273  14.016
57852W        W26257  10.719   6.350  14.435
57853W        W26258  21.174  36.643   5.159
57854W        W26259  10.771   3.554   0.811
57855W        W26260  32.521  15.496   3.727
57856W        W26261  31.526  24.833  14.623
57857W        W26262   0.901  44.972   0.510
57858W        W26263  36.123   3.016   1.861
57859W        W26264  10.389  24.035   4.591
57860W        W26265  33.303  35.161  12.719
57861W        W26266   0.419  32.352   1.731
57862W        W26267  41.800  11.615   3.697
57863W        W26268   7.088  39.917   1.833
57864W        W26269  18.086   3.623   0.899
57865W        W26270  17.493  26.082   3.773
57866W        W26271   9.756  26.314  14.386
57867W        W26272  13.953  32.146   0.653
57868W        W26273   4.006   2.813  13.172
57869W        W26274  27.003  16.352   0.198
57870W        W26275   9.198  12.726   0.351
57871W        W26276   0.461  25.640   4.157
57872W        W26277   8.202  11.248   2.758
57873W        W26278  42.016   6.771   1.893
57874W        W26279   1.159  10.282   0.512
57875W        W26280  32.032   5.681   2.454
57876W        W26281  27.129   4.898   3.115
57877W        W26282  23.292  13.902  11.227
57878W        W26283  14.633   3.205   1.186
57879W        W26284  44.235   6.386   0.883
57880W        W26285  23.452   5.257  12.474
57881W        W26286  28.793  24.810   3.646
57882W        W26287  15.045  31.370   2.402
57883W        W26288  10.098   4.706   0.493
57884W        W26289  24.505  41.299   4.207
57885W        W26290  10.960  38.897  10.623
57886W        W26291  11.501   7.989  14.352
57887W        W26292  11.238   0.646   4.497
57888W        W26293  11.732  24.785   4.181
57889W        W26294  17.316  41.654  10.958
57890W        W26295  41.485  30.728  11.423
57891W        W26296  11.810  44.390  12.666
57892W        W26297   2.769   3.402  12.581
57893W        W26298   6.823  44.983  13.038
57894W        W26299   2.328  18.272  14.382
57895W        W26300   8.666  36.045  12.090
57896W        W26301  43.031   3.584   3.114
57897W        W26302   4.971   2.033   1.877
57898W        W26303  13.652  36.338  13.952
57899W        W26304   9.627  27.009  10.477
57900W        W26305  39.363  40.320  14.972
57901W        W26306  28.132  26.208   1.142
57902W        W26307   1.113  16.280  11.999
57903W        W26308  33.670  11.604   1.329
57904W        W26309  23.902  43.834  12.759
57905W        W26310  30.450  23.595   3.393
57906W        W26311  36.281   5.340   4.032
57907W        W26312  11.353  25.213   0.916
57908W        W26313  34.680  43.273   3.677
57909W        W26314  42.897  39.373  12.122
57910W        W26315  31.704  14.822  13.863
57911W        W26316  14.684  22.531  10.743
57912W        W26317   4.480  15.035  11.542
57913W        W26318  16.170  29.196  10.454
57914W        W26319  16.685  40.287   4.118
57915W        W26320   4.476   6.464   0.846
57916W        W26321  39.497  27.158  14.312
57917W        W26322  17.787   9.314   1.484
57918W        W26323  24.133  37.613  11.135
57919W        W26324  21.116  19.711  11.744
57920W        W26325  16.279   3.142   4.335
57921W        W26326   8.939  30.950   1.898
57922W        W26327  13.796  29.667  14.396
57923W        W26328  17.098  38.954  11.528
57924W        W26329  43.738  25.736   0.604
57925W        W26330   5.314   3.351  10.659
57926W        W26331  21.230  24.641   9.988
57927W        W26332  22.641  10.393  12.077
57928W        W26333  33.903  24.567  12.657
57929W        W26334  21.278   6.301  11.164
57930W        W26335  34.900  25.925   4.236
57931W        W26336   0.247  25.505   3.694
57932W        W26337  40.763  13.728  10.594
57933W        W26338  30.587   9.397  11.904
57934W        W26339  43.780  10.831   4.673
57935W        W26340   4.970  25.657  12.169
57936W        W26341  14.161  21.497   4.766
57937W        W26342   3.086  31.575  12.073
57938W        W26343   9.364   9.909   4.639
57939W        W26344  37.778  15.061   1.189
57940W        W26345   9.419  44.856   0.310
57941W        W26346  33.683   8.346   2.857
57942W        W26347   1.274  42.479  10.942
57943W        W26348  33.393  21.627   4.609
57944W        W26349  20.014  35.509  12.420
57945W        W26350  15.162  43.474  10.652
57946W        W26351  32.806  32.802   3.690
57947W        W26352   3.407  27.864   1.727
57948W        W26353  26.382  19.679  14.035
57949W        W26354   4.682  31.041   4.099
57950W        W26355  18.658  13.605  11.568
57951W        W26356  40.389  12.835  11.689
57952W        W26357  30.911  26.435   4.107
57953W        W26358  41.472   6.263   3.813
57954W        W26359   1.756   9.791   2.374
57955W        W26360  44.106   0.879   0.018
57956W        W26361  40.920  33.507   0.505
57957W        W26362  29.872  22.514  10.603
57958W        W26363  24.632   0.467   3.722
57959W        W26364  41.464  25.891   4.753
57960W        W26365  40.815   5.892   3.677
57961W        W26366  25.610  33.062   4.159
57962W        W26367  38.829  27.991   0.930
57963W        W26368  26.663  34.276   0.669
57964W        W26369  43.216  20.286   2.804
57965W        W26370  15.661  31.553   3.520
57966W        W26371  38.779  26.953  11.656
57967W        W26372   7.323  17.653  10.908
57968W        W26373  19.667  36.272   0.720
57969W        W26374  13.248  40.437   3.669
57970W        W26375  12.626   4.198  13.991
57971W        W26376  25.624   3.288  11.931
57972W        W26377  39.364  32.802   2.456
57973W        W26378  27.723  24.249   1.231
57974W        W26379  44.403  17.633   1.713
57975W        W26380   2.340  23.649  14.793
57976W        W26381  10.153  31.058  10.736
57977W        W26382  35.603   9.117  11.985
57978W        W26383  20.094  26.655  13.039
57979W        W26384  22.870  36.527  11.389
57980W        W26385  40.432   4.967  13.936
57981W        W26386   8.881  14.625   2.268
57982W        W26387  39.672   8.865  13.868
57983W        W26388  21.006  10.198   2.072
57984W        W26389  27.634  28.390   3.262
57985W        W26390   8.140  43.999   2.069
57986W        W26391  39.306  11.809  11.924
57987W        W26392  34.546  31.124   4.623
57988W        W26393  32.990  11.775  12.084
57989W        W26394  41.257  11.902   0.275
57990W        W26395  22.250  38.351  14.272
57991W        W26396  21.170  22.471  13.400
57992W        W26397  28.573  21.556  11.080
57993W        W26398  35.404  28.593  14.442
57994W        W26399  23.502  29.718   0.281
57995W        W26400  16.176  37.604   1.437
57996W        W26401  37.457   1.938   1.679
57997W        W26402  32.615  35.351  13.017
57998W        W26403  37.418  10.916  11.198
57999W        W26404   8.438  10.146   1.312
58000W        W26405  10.292  24.745  14.898
58001W        W26406  14.121   2.900  14.281
58002W        W26407   8.898  34.903   2.319
58003W        W26408   3.972  31.169   4.487
58004W        W26409  41.168   3.747   5.329
58005W        W26410  24.651  39.861   1.260
58006W        W26411  19.980   7.243   0.344
58007W        W26412  15.764  41.261  13.891
58008W        W26413  12.830   0.289   4.468
58009W        W26414  38.331  42.058  12.044
58010W        W26415   2.355  26.136  13.100
58011W        W26416  36.308  37.700   3.188
58012W        W26417  33.703  28.735  12.515
58013W        W26418  17.166  21.718  12.501
58014W        W26419   7.397   3.452   3.261
58015W        W26420   8.942  34.846  12.633
58016W        W26421   0.151   1.847  13.903
58017W        W26422  39.466  27.338   4.490
58018W        W26423  32.123  30.727  12.407
58019W        W26424  19.495   3.457  12.066
58020W        W26425   9.552  33.864  14.805
58021W        W26426  33.892  15.552   5.099
58022W        W26427  22.295  11.178  12.794
58023W        W26428   5.516  21.803  12.442
58024W        W26429  34.292  10.728  13.332
58025W        W26430  35.810  25.328  11.111
58026W        W26431  23.003  13.298   4.144
58027W        W26432  21.212  43.458  13.042
58028W        W26433  17.025  39.889   9.957
58029W        W26434  41.665  16.625   1.243
58030W        W26435  14.088  26.662  12.672
58031W        W26436   5.824  35.135   1.363
58032W        W26437  31.102   2.935   4.228
58033W        W26438   2.761  28.081  13.537
58034W        W26439  26.104   6.400  11.534
58035W        W26440   1.712  15.112   1.831
58036W        W26441  23.558  28.669   2.521
58037W        W26442   4.662   9.902   4.603
58038W        W26443  31.737  21.806   1.380
58039W        W26444   0.017  40.302   4.237
58040W        W26445  42.565   2.268   4.104
58041W        W26446  10.118  33.715   3.155
58042W        W26447  33.502  26.094  10.293
58043W        W26448  32.904  20.305  11.560
58044W        W26449   6.793  14.886   3.322
58045W        W26450  12.210   5.276  14.856
58046W        W26451   1.520   0.856   2.830
58047W        W26452  26.145  25.732   2.406
58048W        W26453  14.357  31.059   1.688
58049W        W26454  41.775  17.619  11.447
58050W        W26455  36.752  32.469   3.290
58051W        W26456   4.529  10.367  14.952
58052W        W26457  32.402  38.373  12.521
58053W        W26458   8.336  22.607   4.290
58054W        W26459  16.065  21.980   5.087
58055W        W26460  22.534  10.326  13.586
58056W        W26461   6.739  10.941   1.452
58057W        W26462   4.600   3.786  14.876
58058W        W26463   3.358  19.939   1.883
58059W        W26464   5.350   9.277   3.709
58060W        W26465  42.103  20.405  10.873
58061W        W26466   3.916  14.792  13.055
58062W        W26467  20.857  20.091   3.227
58063W        W26468  14.048  37.159   1.803
58064W        W26469  42.447   2.474   1.330
58065W        W26470   2.904  36.443   4.493
58066W        W26471  13.785  43.714  11.549
58067W        W26472   2.071  36.727   0.744
58068W        W26473  25.653  18.270   4.565
58069W        W26474  43.428   2.708  12.393
58070W        W26475  39.885  16.624   3.889
58071W        W26476  25.616  32.999   0.338
58072W        W26477  23.671  33.064   0.133
58073W        W26478  31.566   4.205  12.962
58074W        W26479   8.127  38.828  11.727
58075W        W26480  15.635  21.769   1.943
58076W        W26481   0.992  39.349   0.193
58077W        W26482  25.141  30.318   2.600
58078W        W26483  43.908   2.052  13.920
58079W        W26484  10.358  22.748  14.821
58080W        W26485  41.298  43.484  14.933
58081W        W26486  38.814   8.241  14.759
58082W        W26487  24.684   3.930   5.018
58083W        W26488  43.598  19.026   3.802
58084W        W26489  22.360   9.831   4.707
58085W        W26490  19.120  43.259  14.536
58086W        W26491  13.401   7.160   0.626
58087W        W26492  37.493  28.383   2.491
58088W        W26493  42.671  26.641   4.553
58089W        W26494  30.733  35.539  14.762
58090W        W26495  41.268   0.375  12.436
58091W        W26496  36.786  24.801  14.973
58092W        W26497  34.388  40.985   3.497
58093W        W26498  29.851  42.530  11.135
58094W        W26499  21.597  18.605   2.133
58095W        W26500  19.012  22.798  14.346
58096W        W26501  19.101  42.237   2.240
58097W        W26502  12.614  38.028  12.135
58098W        W26503  11.650   9.066  13.952
58099W        W26504  28.450  35.936  14.830
58100W        W26505  13.060  39.421   4.161
58101W        W26506  34.900  27.679   3.249
58102W        W26507  34.374   8.305   0.335
58103W        W26508  39.792   6.355   0.243
58104W        W26509   6.393   7.740  13.525
58105W        W26510  43.350  30.933   4.782
58106W        W26511   0.904  12.275  14.289
58107W        W26512  13.255  26.979  11.618
58108W        W26513  32.632  38.959  14.771
58109W        W26514   5.593  42.176  14.015
58110W        W26515  40.406  23.933   3.277
58111W        W26516   5.746  38.170  10.593
58112W        W26517  19.773  37.870  11.585
58113W        W26518  27.910  33.594  11.648
58114W        W26519  36.485  35.371   0.393
58115W        W26520  32.640   7.678   1.484
58116W        W26521   7.952   8.712  13.424
58117W        W26522  25.382  32.235  14.360
58118W        W26523  40.840  28.249   1.801
58119W        W26524  24.685  39.307  11.459
58120W        W26525  35.599   6.910  11.749
58121W        W26526  24.608  37.939   4.346
58122W        W26527  43.434  18.518   3.732
58123W        W26528  18.515  34.439  10.074
58124W        W26529  31.052  16.976   4.581
58125W        W26530  41.817   8.413  12.500
58126W        W26531  17.756  28.580   0.344
58127W        W26532  29.478  38.402   0.198
58128W        W26533  14.640  42.492  10.733
58129W        W26534  40.882  19.737   4.765
58130W        W26535  27.611  35.607  11.920
58131W        W26536  11.995  40.113  13.066
58132W        W26537  31.440  37.004  10.710
58133W        W26538   3.331  18.315  14.522
58134W        W26539  42.991  43.015  10.864
58135W        W26540  38.310  17.096  14.887
58136W        W26541  17.082   0.814  13.536
58137W        W26542  10.270  14.307  11.883
58138W        W26543  32.962  12.586   4.878
58139W        W26544  31.578  37.546   2.448
58140W        W26545  25.478   6.807   4.208
58141W        W26546  14.839  17.874   0.225
58142W        W26547  41.552  42.858   5.104
58143W        W26548  18.107  20.002  10.907
58144W        W26549   5.393  22.654  14.726
58145W        W26550  37.987  11.028   3.200
58146W        W26551  40.370  37.018   1.066
58147W        W26552  23.163   1.767   4.135
58148W        W26553  37.815  27.683  14.930
58149W        W26554   1.928  34.497  14.403
58150W        W26555  26.546  24.772  13.271
58151W        W26556  13.464  42.454  12.128
58152W        W26557  31.532  13.808   3.886
58153W        W26558  19.404   3.988  12.923
58154W        W26559   6.645  26.633   1.859
58155W        W26560   8.429   8.140  13.909
58156W        W26561  27.112  15.098   2.850
58157W        W26562  30.925  37.762  11.010
58158W        W26563  24.444  24.502   4.592
58159W        W26564  11.205  23.244   0.754
58160W        W26565  39.654  43.896  13.218
58161W        W26566   5.353  18.299   4.676
58162W        W26567   1.838  41.999   2.171
58163W        W26568  28.935   6.458   0.481
58164W        W26569  24.692  30.680  12.615
58165W        W26570  32.798  28.836   3.906
58166W        W26571  14.618  41.393   4.105
58167W        W26572   9.877  32.682  14.035
58168W        W26573  35.508  30.365  12.146
58169W        W26574  12.299  43.468   9.359
58170W        W26575   7.299  17.567   2.586
58171W        W26576  13.703  31.590  11.129
58172W        W26577  32.150  33.544   0.007
58173W        W26578   9.879  22.039   3.209
58174W        W26579   5.415  17.184   2.438
58175W        W26580  40.034  39.656   0.977
58176W        W26581  34.415  28.099   2.225
58177W        W26582  17.608  32.646   1.442
58178W        W26583  23.461  10.227   0.434
58179W        W26584   7.727  34.406   1.934
58180W        W26585  42.852  21.526   0.290
58181W        W26586  18.762   7.595  14.434
58182W        W26587  15.216  37.281   2.627
58183W        W26588  12.767  17.809   2.189
58184W        W26589  18.143  38.998   1.427
58185W        W26590  38.396  33.164   4.754
58186W        W26591  30.164  28.714   4.509
58187W        W26592  10.352  28.964   2.663
58188W        W26593  22.710   2.182  13.568
58189W        W26594  37.413  35.047   0.967
58190W        W26595  14.625  39.222  12.904
58191W        W26596  10.787   0.704   1.926
58192W        W26597  27.020  29.813   4.052
58193W        W26598  31.963  22.932   0.864
58194W        W26599  13.639   1.945  11.853
58195W        W26600  27.968   5.114  10.988
58196W        W26601  18.366  40.619   9.971
58197W        W26602   0.425   0.965   4.973
58198W        W26603  13.370   1.155   2.769
58199W        W26604  10.763   1.907   2.378
58200W        W26605  32.745  11.389   3.093
58201W        W26606   2.882  14.362   2.185
58202W        W26607  41.511  29.419  14.341
58203W        W26608  40.005  34.012   2.684
58204W        W26609  18.580  27.465   4.031
58205W        W26610  23.088  11.993  13.615
58206W        W26611  41.464  43.926   0.137
58207W        W26612  17.529   9.222   1.046
58208W        W26613   6.695  33.031   3.547
58209W        W26614   6.986   5.850  11.981
58210W        W26615  37.395  17.222  10.825
58211W        W26616  24.307  32.047   0.818
58212W        W26617  43.105  34.105  12.631
58213W        W26618  14.313  41.582  10.442
58214W        W26619   8.766  22.083  12.580
58215W        W26620   0.194  27.026   1.645
58216W        W26621  22.555  18.264   1.475
58217W        W26622  35.483  21.677  14.428
58218W        W26623  14.652  33.075  13.308
58219W        W26624  22.554  14.036  14.970
58220W        W26625  26.475   9.320  14.464
58221W        W26626   4.492  11.984   1.674
58222W        W26627  34.993  34.721   3.214
58223W        W26628  12.096   3.343   2.668
58224W        W26629  28.027   8.402  13.510
58225W        W26630   6.781  23.099   3.751
58226W        W26631  32.382  41.511   5.068
58227W        W26632  39.759  43.873   2.385
58228W        W26633  20.772  41.523   3.636
58229W        W26634  43.663  12.987   4.081
58230W        W26635  43.751  27.046  13.047
58231W        W26636  11.504  38.403   2.467
58232W        W26637  12.320   1.928   2.837
58233W        W26638   0.246  34.136  11.629
58234W        W26639  24.078  36.437   3.737
58235W        W26640  42.301  11.183   3.274
58236W        W26641  26.651  39.897   2.358
58237W        W26642  44.051  17.625  14.425
58238W        W26643  23.257  42.876   3.680
58239W        W26644  19.910  29.120   0.755
58240W        W26645  44.449  21.084  12.192
58241W        W26646  29.928  17.228   1.249
58242W        W26647  19.788  15.375   2.069
58243W        W26648  27.920   0.097   4.236
58244W        W26649   3.484  33.937   4.576
58245W        W26650   7.118  42.564  11.910
58246W        W26651   4.157  12.781   1.292
58247W        W26652   2.839   1.132   1.690
58248W        W26653  27.444  34.936  12.441
58249W        W26654  37.400  42.020  13.113
58250W        W26655  38.462  44.277  13.042
58251W        W26656  42.302  24.013   3.821
58252W        W26657  37.457   0.831  14.513
58253W        W26658  41.088  35.981   4.132
58254W        W26659  10.152  18.986  14.772
58255W        W26660   7.562  30.902   3.730
58256W        W26661  11.951  31.599   2.154
58257W        W26662  12.828  14.490   0.326
58258W        W26663  17.253  39.885  11.010
58259W        W26664  36.338  19.714   1.390
58260W        W26665  43.075  28.527   3.977
58261W        W26666  20.644  28.615   2.896
58262W        W26667  39.717  35.118  14.534
58263W        W26668  24.780   9.377  11.699
58264W        W26669  11.341  35.563   4.169
58265W        W26670  12.243  37.541   4.628
58266W        W26671  43.265   3.435  13.920
58267W        W26672  29.096  42.213   4.578
58268W        W26673   1.293  43.955  11.509
58269W        W26674  18.846   1.349  13.714
58270W        W26675   9.838  21.110   3.313
58271W        W26676   4.358   0.286  14.004
58272W        W26677  17.585   0.935  13.525
58273W        W26678  27.330  44.247   0.287
58274W        W26679  14.256   2.955   1.702
58275W        W26680   8.707  42.052  14.336
58276W        W26681  32.863   0.220  14.887
58277W        W26682  32.734   0.713   0.858
58278W        W26683   5.124  38.770  12.869
58279W        W26684  40.527  42.792   2.773
58280W        W26685  15.749  11.982   1.164
58281W        W26686  37.841   3.399   1.240
58282W        W26687  12.576  37.915  13.010
58283W        W26688  11.660  40.412  13.350
58284W        W26689  29.453  27.657  11.068
58285W        W26690   0.187  24.046  12.223
58286W        W26691  37.899  15.942  10.606
58287W        W26692  27.529  28.221  13.372
58288W        W26693  35.045  18.787  12.137
58289W        W26694  38.544  10.298  14.840
58290W        W26695  29.854  10.440   2.670
58291W        W26696  21.762  40.541   0.672
58292W        W26697  44.984  38.819   1.383
58293W        W26698  31.359  13.344  12.447
58294W        W26699  31.091  26.604  12.944
58295W        W26700  30.709  27.063   3.190
58296W        W26701  27.530  36.358   2.751
58297W        W26702  44.699   2.800   0.245
58298W        W26703  22.836  29.073   1.915
58299W        W26704  38.892  12.356   4.596
58300W        W26705  35.402  20.472   3.251
58301W        W26706   1.756  41.515   4.554
58302W        W26707  42.656  34.901   5.035
58303W        W26708  19.908  24.735   2.157
58304W        W26709  16.508  26.668   4.492
58305W        W26710  38.304  17.992   4.880
58306W        W26711   0.847  15.291   3.300
58307W        W26712   2.935   0.663   3.700
58308W        W26713   9.144   0.981  11.556
58309W        W26714   2.720  26.719  13.595
58310W        W26715  27.153  19.170  12.015
58311W        W26716  11.064  26.624   3.840
58312W        W26717  28.981  14.510   4.601
58313W        W26718  21.303   7.314  12.079
58314W        W26719  32.852  26.962  11.690
58315W        W26720  24.764  13.240  13.010
58316W        W26721  13.215  14.250  11.688
58317W        W26722  21.665  13.947  14.626
58318W        W26723  23.089  10.783  11.865
58319W        W26724   7.390  11.223   2.224
58320W        W26725  12.814   3.036   1.811
58321W        W26726  34.465   6.800   0.298
58322W        W26727   6.443  38.332  12.617
58323W        W26728  14.724   1.252   1.788
58324W        W26729  35.439  39.465  12.198
58325W        W26730  18.822  28.492   3.220
58326W        W26731  42.996   3.889   2.254
58327W        W26732  37.879   9.109  12.490
58328W        W26733  25.665  16.861  14.341
58329W        W26734  18.327  40.444   3.677
58330W        W26735  24.290  29.858   2.840
58331W        W26736  33.718  36.019  12.094
58332W        W26737  32.076   6.823  12.865
58333W        W26738   7.802  20.734   2.155
58334W        W26739   9.951  42.029   3.430
58335W        W26740  13.218  15.258  10.899
58336W        W26741  13.577  12.371   0.426
58337W        W26742  35.309  16.681  13.099
58338W        W26743  38.956  34.464   2.526
58339W        W26744   7.710   0.370  11.197
58340W        W26745  26.560  29.946   1.592
58341W        W26746  19.649  34.480   0.949
58342W        W26747  11.059  38.663  12.697
58343W        W26748  39.886  34.650   3.863
58344W        W26749  25.606  33.994   1.301
58345W        W26750  23.661   4.634  11.187
58346W        W26751  37.905  22.266  11.133
58347W        W26752  18.057  14.053  11.943
58348W        W26753  17.282  20.396  13.468
58349W        W26754   2.951   0.401  14.055
58350W        W26755  14.784  31.145   0.209
58351W        W26756  44.325  15.703  14.011
58352W        W26757  40.411  17.173  12.609
58353W        W26758   2.947  23.210  13.129
58354W        W26759  24.652  17.161  12.090
58355W        W26760  33.370  31.504   0.753
58356W        W26761  36.570  30.152  14.439
58357W        W26762  41.246   4.018   3.598
58358W        W26763  43.445   7.544   5.032
58359W        W26764  30.993   3.968  11.192
58360W        W26765  23.999   4.766  12.962
58361W        W26766   8.253   0.261   4.608
58362W        W26767  28.949  26.927  11.180
58363W        W26768   6.260  36.657   1.633
58364W        W26769  36.573   7.693  11.797
58365W        W26770  40.160  26.760   0.703
58366W        W26771  28.109  25.791  11.490
58367W        W26772  19.718  21.030  14.314
58368W        W26773  30.703  21.151   4.660
58369W        W26774  15.408  19.579  14.544
58370W        W26775  34.098  23.129   2.683
58371W        W26776  12.371  30.140   2.380
58372W        W26777  34.507   6.764   3.365
58373W        W26778  20.443   7.219  14.434
58374W        W26779  34.453  20.708  13.099
58375W        W26780  34.032  26.038  13.696
58376W        W26781  41.960   8.786   3.551
58377W        W26782  35.674  32.822   2.779
58378W        W26783   6.233  17.846   1.010
58379W        W26784   9.096  43.575  11.082
58380W        W26785  16.580  26.636  10.775
58381W        W26786  32.668  32.418   2.297
58382W        W26787  13.080  33.783  11.522
58383W        W26788  15.970  40.782  13.862
58384W        W26789  34.951  26.058  12.943
58385W        W26790  25.408  31.149   0.182
58386W        W26791   0.004  23.544  12.116
58387W        W26792  14.424  10.437   1.039
58388W        W26793  29.705  11.395   2.802
58389W        W26794  28.995  39.172   3.645
58390W        W26795   0.726  43.363  14.883
58391W        W26796  11.153  40.125   3.856
58392W        W26797  42.381  37.536   1.215
58393W        W26798  20.910  27.465  12.926
58394W        W26799  27.493  19.592   2.758
58395W        W26800  19.046  33.090   2.239
58396W        W26801  37.312   8.687   0.458
58397W        W26802  11.125  28.423   1.793
58398W        W26803  27.815  33.052   0.418
58399W        W26804  43.642   8.469   2.672
58400W        W26805   6.704  36.013   1.298
58401W        W26806  20.717  15.753  11.457
58402W        W26807   4.721  42.333  14.298
58403W        W26808   7.236  29.966   2.826
58404W        W26809  15.794   7.620  13.921
58405W        W26810   1.700  25.016   1.475
58406W        W26811  33.289  16.804   1.859
58407W        W26812   4.867  29.084   4.675
58408W        W26813  39.445  36.601   3.457
58409W        W26814  18.184   1.645  14.811
58410W        W26815   3.722  21.585   1.874
58411W        W26816  44.294   6.769   3.246
58412W        W26817  17.883   1.855   3.714
58413W        W26818  10.889  12.680  14.338
58414W        W26819  11.176  14.652  14.801
58415W        W26820  12.632  29.575   4.667
58416W        W26821  35.039  38.852   4.569
58417W        W26822  40.685  35.401  10.315
58418W        W26823   7.687  29.191   2.114
58419W        W26824  17.400  24.130  13.736
58420W        W26825  44.752  18.775  13.996
58421W        W26826  21.043  37.943   1.211
58422W        W26827  31.350   7.104   4.187
58423W        W26828  11.665  36.374   2.102
58424W        W26829   2.830  28.566   0.276
58425W        W26830  24.885  33.042  13.355
58426W        W26831  27.702  13.744  12.667
58427W        W26832  31.414  13.038  14.526
58428W        W26833   1.937  32.792  13.545
58429W        W26834   4.831   8.239  14.079
58430W        W26835  21.433  23.885  11.715
58431W        W26836   6.394   4.792   1.138
58432W        W26837  11.968  18.304  13.538
58433W        W26838  36.647   1.302  10.079
58434W        W26839  14.640  12.665  12.462
58435W        W26840  41.381  35.411  13.072
58436W        W26841  41.582  40.422  11.538
58437W        W26842  41.390  16.222   3.906
58438W        W26843  38.217  27.171  11.007
58439W        W26844  31.502  43.973  12.652
58440W        W26845  11.860  17.570   0.769
58441W        W26846  12.878  33.053   5.132
58442W        W26847  29.442  12.287   0.441
58443W        W26848   0.173  34.985   2.246
58444W        W26849  39.972  29.231   4.199
58445W        W26850  42.097   4.401   2.289
58446W        W26851  21.801  12.715   0.512
58447W        W26852  19.456  27.430   1.952
58448W        W26853  17.852  35.465   0.544
58449W        W26854  38.312   0.240  10.777
58450W        W26855  12.700  11.813  10.697
58451W        W26856  29.868  10.889   0.271
58452W        W26857  41.994  17.607   4.249
58453W        W26858   9.763  26.614   4.733
58454W        W26859  44.461  14.253   0.446
58455W        W26860  14.359   3.890  14.362
58456W        W26861   0.409  26.094   0.475
58457W        W26862  22.935  36.477   0.786
58458W        W26863  10.867  35.553  11.632
58459W        W26864  24.470  26.276   2.259
58460W        W26865  24.518   4.739   3.721
58461W        W26866  12.758  41.681  12.928
58462W        W26867  26.484  33.628  14.837
58463W        W26868   8.734  13.616   1.228
58464W        W26869  28.472  31.646  14.825
58465W        W26870   1.246  25.850  14.051
58466W        W26871  23.020  35.591  11.646
58467W        W26872  26.385   0.464   3.246
58468W        W26873   5.612   0.237  11.003
58469W        W26874  42.976  32.845  12.814
58470W        W26875  18.482   7.444  12.537
58471W        W26876  19.991  29.515  11.137
58472W        W26877  42.563  11.004  12.353
58473W        W26878  12.769  44.811   0.356
58474W        W26879  37.037  29.464   2.984
58475W        W26880   7.342   3.022   4.667
58476W        W26881  28.557   5.139  12.464
58477W        W26882  38.306  42.967   3.784
58478W        W26883  25.721  26.138  14.341
58479W        W26884  39.524  23.366  11.731
58480W        W26885  12.473  27.483  11.119
58481W        W26886  18.083  43.645   3.312
58482W        W26887   1.882  31.996  14.191
58483W        W26888   9.403  41.389   4.605
58484W        W26889  27.691  27.355   1.835
58485W        W26890  14.896  31.942   2.855
58486W        W26891   9.301  14.076  14.040
58487W        W26892  14.433  29.496  11.589
58488W        W26893  18.307  20.329   1.232
58489W        W26894  32.249  20.712   3.191
58490W        W26895   4.460  33.570  11.665
58491W        W26896  29.698  15.211  12.476
58492W        W26897  13.624  34.116   2.315
58493W        W26898   8.606  11.165  11.972
58494W        W26899  35.067  16.302   0.983
58495W        W26900  27.102  40.583   2.500
58496W        W26901  39.515  29.191   0.368
58497W        W26902  19.601   9.408   4.920
58498W        W26903  40.923  42.016   0.433
58499W        W26904  33.593   4.687  11.923
58500W        W26905   9.156  18.860   0.323
58501W        W26906  36.881  35.994  10.441
58502W        W26907  14.284  21.435   3.299
58503W        W26908  23.991   6.725   1.440
58504W        W26909  39.313  21.045   2.680
58505W        W26910  28.453  31.730  13.638
58506W        W26911  23.952   7.250   0.275
58507W        W26912  16.619  17.305  14.419
58508W        W26913   0.083  16.362  12.960
58509W        W26914   8.277  16.344  11.193
58510W        W26915  16.610  30.694  12.560
58511W        W26916  32.063  30.815   0.961
58512W        W26917  40.535  15.150  11.987
58513W        W26918  39.101  44.177  14.879
58514W        W26919  21.326  32.156  13.014
58515W        W26920   2.706  42.504   0.746
58516W        W26921  40.890   6.038   0.140
58517W        W26922  31.335  11.696   1.821
58518W        W26923  27.043  25.031   2.899
58519W        W26924  44.735   6.372   1.738
58520W        W26925  41.081  20.952  12.140
58521W        W26926  32.634  12.662   0.875
58522W        W26927   3.783  28.073  13.387
58523W        W26928  22.688  44.514   4.280
58524W        W26929   2.020  11.615   3.584
58525W        W26930  29.378  34.580   3.799
58526W        W26931  34.378  37.832  10.435
58527W        W26932  28.143  10.215   3.605
58528W        W26933  40.649   2.427   3.686
58529W        W26934  19.602  41.033  12.431
58530W        W26935   6.422  44.376   0.407
58531W        W26936  16.149  34.399  13.956
58532W        W26937  39.821  24.581   2.983
58533W        W26938  24.156  21.081  12.738
58534W        W26939  38.526  37.888  10.602
58535W        W26940  34.598   9.775   2.844
58536W        W26941  11.532  33.191  12.953
58537W        W26942  27.186  11.356   2.790
58538W        W26943  17.142   6.453   2.744
58539W        W26944  36.890  44.957  10.378
58540W        W26945  27.842  33.586  13.877
58541W        W26946  16.674  25.502   0.913
58542W        W26947  26.670  16.233  13.011
58543W        W26948  34.797  28.137   3.073
58544W        W26949  18.158  40.864  14.530
58545W        W26950  15.797  20.587  12.203
58546W        W26951  12.033   4.243  13.094
58547W        W26952  24.680  26.184  11.661
58548W        W26953  20.678  27.614   3.778
58549W        W26954  35.879  29.644  12.434
58550W        W26955  25.137  17.216  13.519
58551W        W26956  18.510  32.646   0.014
58552W        W26957  27.472  39.409   1.248
58553W        W26958  39.114   1.037   4.583
58554W        W26959  32.138  23.581  14.533
58555W        W26960  11.562  22.588   1.963
58556W        W26961  19.779   6.273  13.517
58557W        W26962  28.681  17.089  11.208
58558W        W26963   0.874   3.643   1.333
58559W        W26964  10.637  43.941   0.479
58560W        W26965  42.331  42.337   0.832
58561W        W26966  15.116   1.475   2.626
58562W        W26967  29.081   4.729   3.651
58563W        W26968  37.169  26.744   2.132
58564W        W26969   4.001  33.723   1.432
58565W        W26970  26.503  26.477   1.029
58566W        W26971  17.820  43.416  14.979
58567W        W26972  19.899  26.989   4.580
58568W        W26973  23.410  33.813   2.881
58569W        W26974  39.308  20.157  14.880
58570W        W26975  23.210   3.295   0.982
58571W        W26976  25.677  43.791   0.887
58572W        W26977  12.626   1.966  13.418
58573W        W26978  13.226   4.678   2.595
58574W        W26979  36.790  36.602  13.947
58575W        W26980  37.919  26.740   1.384
58576W        W26981   8.348  30.978   1.964
58577W        W26982  42.396  31.978   1.195
58578W        W26983   7.996  21.463  13.411
58579W        W26984  27.134  34.692   3.373
58580W        W26985  13.831  12.244   0.852
58581W        W26986   5.325  16.389  12.341
58582W        W26987  11.212   5.721   2.329
58583W        W26988  25.873  32.116  14.494
58584W        W26989  20.553   5.651  13.760
58585W        W26990  20.112  33.778   2.845
58586W        W26991  20.261   6.447   3.798
58587W        W26992  16.051  16.643   2.260
58588W        W26993  22.263  33.658  12.039
58589W        W26994   9.899  43.907   0.905
58590W        W26995   5.156  10.805   3.865
58591W        W26996   1.697  16.824   3.298
58592W        W26997  35.033  43.395  11.560
58593W        W26998  36.857  23.458   1.424
58594W        W26999  10.142  40.011  14.039
58595W        W27000  20.259  24.023   0.554
58596W        W27001   7.899  38.586   4.650
58597W        W27002  25.544  26.494  12.063
58598W        W27003  43.856   8.745   0.921
58599W        W27004  27.924  43.709  13.495
58600W        W27005   3.360  44.472   1.726
58601W        W27006   6.956  19.737   4.082
58602W        W27007  42.683  43.008   4.528
58603W        W27008  18.849  40.970   4.250
58604W        W27009   7.748  13.051   2.351
58605W        W27010  31.963   8.873   3.622
58606W        W27011  20.074  43.814   4.643
58607W        W27012  20.982  31.291   4.334
58608W        W27013  34.700  33.425  10.782
58609W        W27014  15.649  35.965  12.796
58610W        W27015   6.953  17.670  14.343
58611W        W27016  11.563  22.134   2.213
58612W        W27017   1.390  18.866  10.589
58613W        W27018  39.378  27.009   0.645
58614W        W27019  44.046  41.969  14.127
58615W        W27020  17.779   2.235  14.027
58616W        W27021   7.835  43.977   4.856
58617W        W27022   4.485  42.463  11.740
58618W        W27023  41.597   5.046  11.058
58619W        W27024  20.787  19.752  13.011
58620W        W27025  37.356  19.556  12.821
58621W        W27026  27.554  17.549   1.890
58622W        W27027  22.201  42.499  13.873
58623W        W27028  34.476  21.274  13.776
58624W        W27029  15.505   8.323  13.230
58625W        W27030   6.244  31.903   0.520
58626W        W27031  23.558  40.783   0.385
58627W        W27032  12.612  42.713   1.281
58628W        W27033   2.812   1.909  11.623
58629W        W27034   2.243  44.817  11.996
58630W        W27035  14.249  43.396   4.537
58631W        W27036  16.049  13.699  11.929
58632W        W27037   8.722   1.368   0.749
58633W        W27038  11.075  39.496   2.001
58634W        W27039  33.796  10.006   2.583
58635W        W27040  19.839  36.143   3.400
58636W        W27041  11.898  11.591  11.788
58637W        W27042  26.555  12.249  11.654
58638W        W27043  15.766   2.835   0.685
58639W        W27044  22.318  20.792   1.647
58640W        W27045   2.585  44.256   2.295
58641W        W27046  31.699   2.939  14.142
58642W        W27047  42.848  16.970   3.326
58643W        W27048  16.049  19.002   0.860
58644W        W27049  33.770  17.211   4.916
58645W        W27050  32.952  40.026  11.157
58646W        W27051  43.482  43.398  11.204
58647W        W27052  29.895  14.196   3.636
58648W        W27053  42.768  21.027  12.966
58649W        W27054  34.990   6.233   4.532
58650W        W27055  28.511  38.294  14.849
58651W        W27056   0.815   4.793  11.823
58652W        W27057  28.457  34.606  13.766
58653W        W27058   7.180  21.813  11.198
58654W        W27059  36.450  26.740   4.260
58655W        W27060  36.146  22.172  14.366
58656W        W27061  21.986   5.219  11.513
58657W        W27062  33.869  24.010   2.390
58658W        W27063  24.305  41.489  10.550
58659W        W27064  18.097   4.895   2.807
58660W        W27065   5.940   6.653  12.020
58661W        W27066  28.533  39.249  10.255
58662W        W27067  32.500   0.684   1.384
58663W        W27068  13.481   7.877  12.818
58664W        W27069   9.309  17.793   2.544
58665W        W27070  24.381  23.093   0.620
58666W        W27071  25.151  41.418   3.619
58667W        W27072  40.297  17.241  14.046
58668W        W27073  20.695   7.150  11.181
58669W        W27074  32.070   7.791   4.579
58670W        W27075   0.415  41.368   2.773
58671W        W27076  31.602  14.838   3.738
58672W        W27077   8.120  14.243  12.426
58673W        W27078  19.188  27.533   0.740
58674W        W27079  36.740  28.727  10.972
58675W        W27080  17.218   4.867   1.248
58676W        W27081  30.354  23.111  13.146
58677W        W27082  22.727  27.765   3.912
58678W        W27083  25.186  16.510   2.698
58679W        W27084  26.969   3.825   1.796
58680W        W27085  37.049  42.334  14.091
58681W        W27086  26.059   4.637   3.815
58682W        W27087  14.567  20.788   1.720
58683W        W27088  27.251  34.404  12.580
58684W        W27089  20.107  42.967  12.217
58685W        W27090  26.930   8.968  11.411
58686W        W27091  41.991  41.837   2.203
58687W        W27092  27.893  34.524  10.701
58688W        W27093  19.873   4.582  13.952
58689W        W27094   8.851  13.197  13.018
58690W        W27095   1.058   9.262  13.376
58691W        W27096  36.995  42.372  11.480
58692W        W27097  10.463  37.956   0.377
58693W        W27098  43.776  20.472   0.455
58694W        W27099  13.764  28.712   0.438
58695W        W27100  19.702   2.493  13.977
58696W        W27101  39.056  22.731   3.654
58697W        W27102  15.941  32.858   3.818
58698W        W27103  14.729   4.532  11.731
58699W        W27104  31.971   1.709  12.850
58700W        W27105  19.255  21.863   0.434
58701W        W27106  26.675  38.185   1.233
58702W        W27107   6.950   2.377   0.061
58703W        W27108   4.370  20.675   1.207
58704W        W27109  31.535  17.818   3.795
58705W        W27110  18.870  28.129  10.671
58706W        W27111  21.943  39.405   0.968
58707W        W27112  21.747  14.079   1.199
58708W        W27113  10.239  32.571  11.437
58709W        W27114  43.245  20.477   0.360
58710W        W27115  18.062  10.015   9.928
58711W        W27116  35.790  35.998   3.279
58712W        W27117   6.650   6.410   0.382
58713W        W27118   8.860  33.566   2.549
58714W        W27119  15.246   0.134   3.067
58715W        W27120  36.866   4.310  13.115
58716W        W27121  43.404  26.091  13.468
58717W        W27122  28.238  36.146   1.302
58718W        W27123  44.967   0.073   4.035
58719W        W27124  26.035  22.956  11.261
58720W        W27125   5.732  21.522   0.585
58721W        W27126  24.950  31.613   1.358
58722W        W27127  17.330   7.648   0.528
58723W        W27128  36.895  39.579  12.060
58724W        W27129  22.135  41.967   3.627
58725W        W27130  39.395  17.137  13.120
58726W        W27131  19.770  20.828   2.704
58727W        W27132   1.333  19.502  14.432
58728W        W27133  10.351   6.519   2.691
58729W        W27134  25.795  36.558   4.239
58730W        W27135  21.943  23.038   0.481
58731W        W27136  11.728  30.160  13.180
58732W        W27137  10.214  22.451  11.548
58733W        W27138  30.190  44.182  14.488
58734W        W27139  11.766   3.073   1.991
58735W        W27140  37.553  27.567   2.778
58736W        W27141  33.854  29.587  14.324
58737W        W27142  27.606  40.072  11.840
58738W        W27143  29.422  38.885  11.620
58739W        W27144  10.163  42.291  11.599
58740W        W27145  44.031  33.619  13.119
58741W        W27146   9.100  15.733   1.000
58742W        W27147  13.263  26.235   3.852
58743W        W27148  29.957  12.096  14.397
58744W        W27149  19.703  23.879  14.924
58745W        W27150  29.183   2.070   4.928
58746W        W27151  25.007   0.681   2.711
58747W        W27152  43.261  17.745  14.878
58748W        W27153  34.657  30.281   4.961
58749W        W27154   9.477  19.813  13.934
58750W        W27155  18.711  14.755  14.409
58751W        W27156  29.533  23.140   1.057
58752W        W27157  11.326   0.173   3.180
58753W        W27158   3.296  36.141  12.567
58754W        W27159  28.580   5.228  11.557
58755W        W27160  34.415  16.401  12.839
58756W        W27161   6.024  17.743  10.283
58757W        W27162  38.135  39.403   3.276
58758W        W27163  30.087   6.999  12.603
58759W        W27164  11.683   8.646  13.536
58760W        W27165   1.994  19.720   4.913
58761W        W27166  30.468  39.360  13.049
58762W        W27167   6.445   5.668   0.345
58763W        W27168  43.920  11.240  12.455
58764W        W27169  17.998  43.310  11.628
58765W        W27170  11.066  26.688   1.434
58766W        W27171  18.301  21.207   2.406
58767W        W27172  26.396   5.930  10.830
58768W        W27173   2.239  42.476  10.497
58769W        W27174  39.509  27.520   0.689
58770W        W27175  44.314   9.207  13.000
58771W        W27176   1.507  23.251  13.992
58772W        W27177  25.607  37.441  10.795
58773W        W27178  24.493  26.485  14.527
58774W        W27179  31.420   1.455   4.391
58775W        W27180  32.667  33.552  14.874
58776W        W27181  25.111  20.183   2.346
58777W        W27182  29.491  29.784  11.748
58778W        W27183  23.625  13.707  12.760
58779W        W27184  22.589  31.609   0.296
58780W        W27185  12.248  39.492   3.676
58781W        W27186  36.343   9.320  14.498
58782W        W27187  22.613  28.714  14.539
58783W        W27188  18.102  11.389  11.186
58784W        W27189  12.405  17.100   2.332
58785W        W27190  25.061   4.826  11.225
58786W        W27191   6.809  24.312   1.280
58787W        W27192  37.032  44.241   1.238
58788W        W27193  25.185  40.385   1.760
58789W        W27194  22.180  30.323  12.251
58790W        W27195  20.656   9.014  12.544
58791W        W27196  11.249  13.762  14.116
58792W        W27197  14.927  15.495  13.643
58793W        W27198  21.765  20.160   2.989
58794W        W27199  28.125  27.860   2.237
58795W        W27200  17.702  12.208  12.876
58796W        W27201   3.629  15.722   3.175
58797W        W27202  34.302  13.283  12.808
58798W        W27203  28.517  43.859   4.333
58799W        W27204   6.886  26.181   2.760
58800W        W27205  13.166  15.870   4.330
58801W        W27206   7.318  19.811   4.693
58802W        W27207  10.115  10.025  12.475
58803W        W27208   6.334  17.256   3.346
58804W        W27209   0.387   8.655  10.661
58805W        W27210  33.023  24.459  11.563
58806W        W27211   1.001   6.901   2.015
58807W        W27212  43.913  18.721  11.346
58808W        W27213  37.996   0.434  13.839
58809W        W27214  32.840  35.912   2.196
58810W        W27215  15.199  17.188   4.784
58811W        W27216  37.402  22.985   3.329
58812W        W27217   4.804  28.898  12.894
58813W        W27218  17.556   5.191  11.031
58814W        W27219  21.120  28.574  12.409
58815W        W27220  44.885  32.509  13.080
58816W        W27221   4.056  10.324   3.966
58817W        W27222  42.794  43.085   2.734
58818W        W27223  31.567  26.143  10.643
58819W        W27224  36.258  36.957  14.434
58820W        W27225  13.852   8.847  10.580
58821W        W27226  17.081  26.583  10.680
58822W        W27227   5.777  31.004  12.328
58823W        W27228   9.300  11.440   0.497
58824W        W27229  14.881  24.478  14.739
58825W        W27230  36.064  16.657   0.331
58826W        W27231  38.522   4.296   2.757
58827W        W27232  29.567  40.511   1.764
58828W        W27233   9.102  13.152   4.779
58829W        W27234  22.675   0.818  11.887
58830W        W27235   0.492  38.340   3.515
58831W        W27236  31.521  42.081   3.391
58832W        W27237  29.776  35.584   1.869
58833W        W27238  44.428   0.354   3.088
58834W        W27239  30.607  11.437   4.128
58835W        W27240  41.760  44.964   1.413
58836W        W27241  40.392  10.611  13.992
58837W        W27242  26.090  34.300  11.201
58838W        W27243  10.759  17.093   3.127
58839W        W27244  36.125   2.293  13.005
58840W        W27245  29.978  33.116  12.515
58841W        W27246  27.630  18.664   1.470
58842W        W27247  30.009  18.201   2.731
58843W        W27248  20.076  17.666   4.357
58844W        W27249  36.285  14.774   2.297
58845W        W27250  20.250  34.007  10.485
58846W        W27251  31.702  31.126   0.395
58847W        W27252   3.897  17.454   0.765
58848W        W27253  16.522   1.117  12.397
58849W        W27254  33.840  32.352   2.859
58850W        W27255  21.381  36.200   0.787
58851W        W27256   7.506  37.395   3.462
58852W        W27257  22.037  21.331   3.856
58853W        W27258  22.205  37.249   1.226
58854W        W27259  39.047   4.281   1.797
58855W        W27260  16.648  40.390   0.866
58856W        W27261  37.674  31.138   3.355
58857W        W27262  15.947  36.100   4.975
58858W        W27263  41.373  38.798  14.561
58859W        W27264  25.554  38.931   2.775
58860W        W27265  25.442  12.713   5.106
58861W        W27266   3.714  18.557  12.929
58862W        W27267  27.626  10.755   0.735
58863W        W27268  31.610  33.297   4.649
58864W        W27269  16.780  10.061  13.507
58865W        W27270   2.752   4.753  11.917
58866W        W27271  35.981   7.239   0.534
58867W        W27272  27.924  25.097   3.676
58868W        W27273   6.305  16.595   1.780
58869W        W27274  42.942   6.284  14.001
58870W        W27275  32.691  17.811  11.901
58871W        W27276  11.667   3.696   3.732
58872W        W27277  40.110  28.966   3.167
58873W        W27278  21.735   9.722   3.204
58874W        W27279  15.830  14.272   0.284
58875W        W27280  41.100  33.010   2.297
58876W        W27281  22.525   2.895   0.348
58877W        W27282  38.571   2.538   2.033
58878W        W27283   2.624  18.917   1.386
58879W        W27284  28.409  19.309  11.594
58880W        W27285  19.343   9.473  13.115
58881W        W27286   2.907   8.698   3.795
58882W        W27287  17.062  22.635  12.435
58883W        W27288  25.572   4.647   2.318
58884W        W27289  38.165   6.595   5.401
58885W        W27290  25.843  26.530  13.580
58886W        W27291   2.629  26.363  12.160
58887W        W27292  13.605  30.676   3.865
58888W        W27293  35.018  11.123  14.712
58889W        W27294  20.491  39.607   4.203
58890W        W27295  25.216  43.010  13.818
58891W        W27296  33.852  16.154   1.391
58892W        W27297  11.795   8.624   5.044
58893W        W27298  38.723  38.290  14.921
58894W        W27299   2.211  21.182  11.887
58895W        W27300  30.593  23.002   4.341
58896W        W27301  33.068   2.948  14.593
58897W        W27302  12.741  27.601  11.972
58898W        W27303  34.917  44.707   0.251
58899W        W27304   2.361  13.797  10.410
58900W        W27305  11.673   3.350   2.981
58901W        W27306  17.813  14.197   4.543
58902W        W27307  40.823  17.015  11.918
58903W        W27308   5.002   3.229  11.062
58904W        W27309  30.610  19.650  11.847
58905W        W27310   0.808  38.335   1.941
58906W        W27311  16.611  25.817  13.505
58907W        W27312  34.510  38.486  12.357
58908W        W27313   6.876  16.623   1.724
58909W        W27314  19.571  19.238   0.867
58910W        W27315  18.611  15.787   0.269
58911W        W27316   7.686  41.589  10.768
58912W        W27317  25.582  31.346   2.180
58913W        W27318  25.778  38.868   0.354
58914W        W27319  18.948   5.390  14.825
58915W        W27320   7.394  32.120   4.229
58916W        W27321  18.127  30.352  13.356
58917W        W27322   2.315  38.830   1.101
58918W        W27323   5.358  44.098   2.351
58919W        W27324  18.160   5.233   2.389
58920W        W27325  20.393   3.776   1.503
58921W        W27326  19.574   4.208  13.374
58922W        W27327  18.169  25.646   4.936
58923W        W27328   7.750   4.463  14.952
58924W        W27329   3.743  25.908   3.250
58925W        W27330  39.645  19.548  14.014
58926W        W27331  11.743  43.013  11.480
58927W        W27332  23.109  13.577   0.174
58928W        W27333  21.112  20.505   3.671
58929W        W27334  42.991  37.586  13.336
58930W        W27335  40.025   9.738  12.990
58931W        W27336   3.907   9.386   4.742
58932W        W27337  33.503   6.692   2.413
58933W        W27338   5.805   9.076  11.511
58934W        W27339  13.698  24.437   2.476
58935W        W27340  15.634   0.733  12.025
58936W        W27341  16.771  17.212   1.860
58937W        W27342  24.137  32.885   0.294
58938W        W27343  29.599   7.913  13.344
58939W        W27344  16.134  38.872   2.858
58940W        W27345  17.561  16.649   1.093
58941W        W27346  16.769  30.730   3.287
58942W        W27347   1.909  16.234  14.384
58943W        W27348  38.781  18.537  12.594
58944W        W27349  18.510  43.947   3.818
58945W        W27350  28.509  24.570  13.486
58946W        W27351  21.497  11.780   0.362
58947W        W27352  11.788  17.845   3.690
58948W        W27353   0.969  45.000  11.446
58949W        W27354  44.481  35.605  11.924
58950W        W27355   9.750  33.457  12.058
58951W        W27356   4.981  35.400   4.627
58952W        W27357  12.927  26.103  12.871
58953W        W27358  12.713  15.760  13.816
58954W        W27359  11.942  42.516   2.699
58955W        W27360  33.957   9.115   3.583
58956W        W27361  14.083  31.449   3.755
58957W        W27362  27.527  37.908  11.479
58958W        W27363  39.003  13.633   1.802
58959W        W27364  36.505  34.509  10.725
58960W        W27365  39.938  21.512   0.830
58961W        W27366  37.947  37.537  13.157
58962W        W27367  15.405  12.705  11.656
58963W        W27368  35.957  26.168   2.179
58964W        W27369  22.248   8.170  12.085
58965W        W27370   2.375  28.665  14.809
58966W        W27371  13.502  30.040   2.732
58967W        W27372  37.086  17.246   0.995
58968W        W27373  19.865  42.652   4.114
58969W        W27374  31.651  18.524  11.943
58970W        W27375  11.142  39.395   1.516
58971W        W27376  16.373  36.808  13.972
58972W        W27377  30.131  39.065  13.317
58973W        W27378  38.969  16.035  11.529
58974W        W27379  40.520   8.056  12.864
58975W        W27380  17.711   6.680   1.410
58976W        W27381  20.513  44.361   1.419
58977W        W27382  31.845   1.243   3.280
58978W        W27383  16.240  38.882  10.117
58979W        W27384  39.633  21.918   0.974
58980W        W27385   3.943  26.517  13.510
58981W        W27386  28.154  44.118   2.574
58982W        W27387   1.699  13.719   2.596
58983W        W27388   8.634  10.791   0.489
58984W        W27389  19.267  42.364   2.722
58985W        W27390  35.363  12.664  12.492
58986W        W27391  33.753  12.390   3.182
58987W        W27392  15.552  14.335   1.408
58988W        W27393  34.208  24.673  12.269
58989W        W27394  36.429  15.690   4.094
58990W        W27395  30.696   8.132   3.863
58991W        W27396  14.961  29.684   4.272
58992W        W27397  29.984   3.724  11.549
58993W        W27398  33.448  25.869   4.677
58994W        W27399   6.585   9.651  12.631
58995W        W27400  23.994  34.017  13.634
58996W        W27401  22.023  11.368  11.498
58997W        W27402  38.863  15.711  10.332
58998W        W27403  12.236  37.885   2.324
58999W        W27404  12.117  32.208   5.046
59000W        W27405  41.725  16.201  11.620
59001W        W27406   1.472  19.222   3.306
59002W        W27407  43.884  24.276  10.744
59003W        W27408  26.976   4.953   0.606
59004W        W27409  25.497   3.465  12.382
59005W        W27410   6.944  38.984  13.264
59006W        W27411   4.879   2.388  10.603
59007W        W27412  44.528  12.588  13.008
59008W        W27413  17.257  39.585  11.445
59009W        W27414   7.326   4.108  12.626
59010W        W27415   0.380   6.419  14.877
59011W        W27416   2.215  12.292  14.116
59012W        W27417  11.571  32.835  12.131
59013W        W27418  36.410  38.173  12.664
59014W        W27419  13.575  20.768   0.833
59015W        W27420  12.949  12.425   2.203
59016W        W27421   5.008   8.200  14.542
59017W        W27422   6.683   8.328   0.850
59018W        W27423  35.801  10.773  14.937
59019W        W27424  33.425  31.587  10.741
59020W        W27425   6.685   2.048   0.330
59021W        W27426  37.492  19.301   1.784
59022W        W27427  13.666  18.798   3.110
59023W        W27428  39.048   6.997  11.378
59024W        W27429  12.167  22.528   1.340
59025W        W27430  21.790  40.847   4.812
59026W        W27431  25.258  22.629   0.280
59027W        W27432  18.755  31.973   0.757
59028W        W27433  17.654  11.116   2.877
59029W        W27434  24.662  23.621   4.211
59030W        W27435  33.057  38.032  11.618
59031W        W27436  37.014  23.741  11.006
59032W        W27437   5.242  34.721  12.403
59033W        W27438  28.614  14.654   9.528
59034W        W27439  14.245  33.573  13.845
59035W        W27440  28.608  42.852   4.182
59036W        W27441  34.448   4.940  10.827
59037W        W27442  11.310  36.284   3.141
59038W        W27443  27.666  13.644  13.923
59039W        W27444   5.140  14.062   2.134
59040W        W27445  23.026  17.687  11.656
59041W        W27446  13.946   8.426   0.423
59042W        W27447  17.549  12.629   1.936
59043W        W27448  20.977  30.455   1.167
59044W        W27449  43.511  12.487   4.233
59045W        W27450  22.648  41.499  10.084
59046W        W27451  11.754  36.827   4.900
59047W        W27452   1.608  39.851  11.679
59048W        W27453  31.904  43.151   2.559
59049W        W27454  26.623  42.568  11.459
59050W        W27455  39.407  20.481  13.056
59051W        W27456  31.743   8.744   0.793
59052W        W27457   4.384  41.493   0.321
59053W        W27458  35.849   8.365   2.459
59054W        W27459  20.182  11.165   3.441
59055W        W27460  15.210  30.074  11.857
59056W        W27461  42.036  14.067  10.994
59057W        W27462  40.085  26.791   2.160
59058W        W27463  15.702  29.112  10.692
59059W        W27464  26.582   0.353  12.030
59060W        W27465  25.780  17.664   1.769
59061W        W27466  30.403  28.037  11.408
59062W        W27467  34.846  11.734   3.659
59063W        W27468  18.749  42.462  12.859
59064W        W27469  30.464  31.919  13.530
59065W        W27470  33.673   7.655  12.069
59066W        W27471  15.481  39.903  14.916
59067W        W27472  27.357  16.328   0.708
59068W        W27473  28.493  19.880  12.906
59069W        W27474  40.794   5.906  11.700
59070W        W27475  35.003  27.509   1.287
59071W        W27476  41.750   5.860  10.445
59072W        W27477  18.257  10.881   2.101
59073W        W27478  40.942  16.428  12.663
59074W        W27479  31.570  40.955   2.777
59075W        W27480  11.313  43.426  12.617
59076W        W27481  33.526   8.747   1.495
59077W        W27482  40.777   9.189  14.813
59078W        W27483  15.898  22.077   1.630
59079W        W27484  18.318  31.989  11.009
59080W        W27485  11.594  44.646  13.647
59081W        W27486  34.070  20.807   2.610
59082W        W27487  29.250  34.431  13.562
59083W        W27488  16.761   8.759   2.177
59084W        W27489  34.087  40.597   3.334
59085W        W27490  32.559   6.219   1.949
59086W        W27491  10.845  14.649  12.533
59087W        W27492  30.195  26.245  11.547
59088W        W27493  18.682  35.552  11.536
59089W        W27494  25.777  13.241  13.074
59090W        W27495  32.521  17.739  11.259
59091W        W27496  23.500  39.538  14.792
59092W        W27497   9.757  15.889   2.182
59093W        W27498   9.639  27.645   2.620
59094W        W27499   4.907  17.268   1.808
59095W        W27500  35.896   9.105  13.529
59096W        W27501   1.320  11.428   3.722
59097W        W27502  13.854  23.667   3.581
59098W        W27503   4.633  13.776  11.685
59099W        W27504   1.395  37.760   4.546
59100W        W27505  19.416  21.657  11.586
59101W        W27506   3.833  12.274  12.110
59102W        W27507  30.503  36.651   3.256
59103W        W27508  31.193  16.861   9.672
59104W        W27509   0.332  35.904  11.707
59105W        W27510   2.763   5.377   3.777
59106W        W27511   2.951  28.526  13.276
59107W        W27512  20.806  32.395   4.702
59108W        W27513  43.937  23.543  14.457
59109W        W27514  44.726  28.948   4.711
59110W        W27515  38.783  42.627   2.579
59111W        W27516  39.821  17.592   4.198
59112W        W27517  40.305   2.716   4.559
59113W        W27518  16.222  16.067   2.241
59114W        W27519  24.668  12.750  14.280
59115W        W27520  32.637  29.487   1.525
59116W        W27521  29.659  37.122   0.876
59117W        W27522  16.840  36.149  13.512
59118W        W27523  22.560  26.216  10.305
59119W        W27524   2.445  34.299  10.698
59120W        W27525  44.864  21.624  12.592
59121W        W27526  38.514  13.967   0.967
59122W        W27527  22.092  15.411  14.095
59123W        W27528  22.338  38.532   0.890
59124W        W27529   1.533  28.058  10.903
59125W        W27530  29.143  34.975   3.560
59126W        W27531  22.523  20.738  11.146
59127W        W27532  18.367   7.525   3.613
59128W        W27533  39.333  17.778   4.066
59129W        W27534  38.819  42.545   0.345
59130W        W27535  16.879  10.732   3.917
59131W        W27536  24.406  25.072  13.458
59132W        W27537  25.498  12.129   3.892
59133W        W27538  41.535  23.986   1.734
59134W        W27539   6.271  15.544  14.462
59135W        W27540  44.118  29.449  11.869
59136W        W27541   5.184   3.852  10.567
59137W        W27542  12.351  17.605   4.398
59138W        W27543  28.151  11.190  10.680
59139W        W27544   4.712  13.161   4.176
59140W        W27545  10.168  40.965   4.581
59141W        W27546  27.638  40.502  12.694
59142W        W27547  24.445  22.213  12.548
59143W        W27548  28.609  20.251   0.426
59144W        W27549  13.828  25.262  14.747
59145W        W27550  40.894  24.993   0.249
59146W        W27551   7.329   5.590  11.650
59147W        W27552  24.625  34.626   3.697
59148W        W27553  14.194   9.993  13.262
59149W        W27554  38.043  17.067   1.354
59150W        W27555   3.555  38.523   2.182
59151W        W27556  12.230   5.071   3.364
59152W        W27557  13.159  17.793  13.476
59153W        W27558  35.182  14.064   3.882
59154W        W27559  12.331   5.986   1.704
59155W        W27560  29.915  12.283   1.380
59156W        W27561   6.814  33.975  12.478
59157W        W27562  35.052  37.556  14.391
59158W        W27563  33.438  32.539  14.428
59159W        W27564  34.799   9.552  12.755
59160W        W27565  19.457   6.370   1.701
59161W        W27566  15.965  29.126   0.210
59162W        W27567  18.317  36.162  14.004
59163W        W27568  11.868  40.558  14.807
59164W        W27569  44.782  26.151  13.637
59165W        W27570  30.956   1.887   1.357
59166W        W27571   7.230  22.074   2.204
59167W        W27572  14.072  22.491  13.151
59168W        W27573  19.252  25.616  11.149
59169W        W27574  34.472  20.893  14.106
59170W        W27575  19.164  25.273   2.871
59171W        W27576  41.436   1.396   2.659
59172W        W27577   4.769  35.561  10.598
59173W        W27578  21.104  28.948  10.588
59174W        W27579  44.623  44.207   2.217
59175W        W27580  28.662  39.974  13.465
59176W        W27581   8.630  26.625  14.871
59177W        W27582  32.546  38.062   1.727
59178W        W27583  20.699  24.699   0.728
59179W        W27584   0.325  15.839  12.128
59180W        W27585  42.636   0.121  12.204
59181W        W27586  28.223  33.430  12.011
59182W        W27587  20.052  10.868   2.124
59183W        W27588  43.754   6.840  11.664
59184W        W27589  44.451   5.673  10.936
59185W        W27590  12.826  26.211   0.913
59186W        W27591  11.612  26.233  12.421
59187W        W27592  35.153  16.103   1.872
59188W        W27593  20.034   4.910   0.249
59189W        W27594  12.424  42.772   3.546
59190W        W27595   7.207  22.007   0.366
59191W        W27596  23.448  38.534   4.235
59192W        W27597  22.060  35.126  11.996
59193W        W27598  37.335  38.036   0.837
59194W        W27599  15.622  43.672   4.551
59195W        W27600  30.929   1.574  11.440
59196W        W27601  20.825  36.282   2.000
59197W        W27602  21.318  15.031  12.415
59198W        W27603  11.161  14.230  10.326
59199W        W27604  33.596  21.629   4.134
59200W        W27605  13.526  10.670   2.207
59201W        W27606  41.834  43.095  14.307
59202W        W27607  39.520  19.422   1.898
59203W        W27608   3.736  42.470   0.814
59204W        W27609  30.856  35.526  10.766
59205W        W27610   7.770  17.604  11.526
59206W        W27611  12.093  30.508  13.124
59207W        W27612   7.954  44.463  13.954
59208W        W27613  38.841  32.116   1.271
59209W        W27614  11.418  16.867   4.497
59210W        W27615   4.325  18.810   0.375
59211W        W27616  25.422  34.498   1.269
59212W        W27617  26.380   4.205   0.266
59213W        W27618  33.581  28.573   2.344
59214W        W27619  44.395  26.089  10.676
59215W        W27620  17.415  36.467  12.082
59216W        W27621  37.959  25.093   0.283
59217W        W27622   5.242  33.528  12.343
59218W        W27623  17.018  38.745  12.544
59219W        W27624  32.051  23.583  13.342
59220W        W27625  28.269  11.627   4.187
59221W        W27626   1.581  31.535   2.693
59222W        W27627  21.730  24.145   3.153
59223W        W27628  37.829  35.300  11.544
59224W        W27629  42.412   6.320  10.659
59225W        W27630  15.107  43.826  13.540
59226W        W27631   3.366  23.963   4.067
59227W        W27632  37.983  23.195   3.257
59228W        W27633  12.868  14.060  12.062
59229W        W27634  21.546  19.440  10.454
59230W        W27635  34.673  15.166   1.662
59231W        W27636  26.323   1.777  11.685
59232W        W27637  41.047  18.670   2.326
59233W        W27638  30.982   5.832   1.376
59234W        W27639   8.806  32.100   0.755
59235W        W27640  25.602  21.060  12.476
59236W        W27641  39.408  40.997   4.039
59237W        W27642  24.532   3.651  13.543
59238W        W27643  42.595  34.092   2.220
59239W        W27644  16.528  24.209  10.363
59240W        W27645   8.362   7.650  14.071
59241W        W27646   4.842  41.302   1.596
59242W        W27647  31.483  12.111  14.535
59243W        W27648  18.283  22.577   2.702
59244W        W27649  25.423   9.417   3.511
59245W        W27650  25.586  13.071   3.962
59246W        W27651  28.463   2.781  13.700
59247W        W27652  43.159  28.409   0.555
59248W        W27653   9.384  14.713   2.389
59249W        W27654  21.681  40.453  10.530
59250W        W27655  43.335  19.182  14.318
59251W        W27656  33.526  39.758  14.486
59252W        W27657  10.512  11.499  12.030
59253W        W27658   8.722  15.662   2.768
59254W        W27659  41.802  11.328   3.261
59255W        W27660  34.668   8.916   2.544
59256W        W27661  19.027  26.265   2.776
59257W        W27662  43.313  30.849  12.924
59258W        W27663  14.674  22.744   3.153
59259W        W27664  31.605   2.516   3.717
59260W        W27665  15.544  44.977   0.868
59261W        W27666   4.793  13.035   0.242
59262W        W27667  35.555   2.786  13.509
59263W        W27668  13.840  39.095   0.931
59264W        W27669  16.637  44.428  12.835
59265W        W27670  12.198  22.520  14.240
59266W        W27671   2.303   5.692   4.794
59267W        W27672  10.785   5.881  14.746
59268W        W27673  17.061  27.141   2.280
59269W        W27674  20.673   5.203   1.862
59270W        W27675  35.056  19.073  12.580
59271W        W27676  44.629  15.663   2.439
59272W        W27677  41.971  14.827   3.391
59273W        W27678   6.157  21.149  13.336
59274W        W27679  36.405  42.008   4.762
59275W        W27680  43.427  41.364  12.030
59276W        W27681  27.797  32.370  13.016
59277W        W27682   3.086  30.093  12.607
59278W        W27683  23.745  31.870   4.567
59279W        W27684  42.474  20.293  12.029
59280W        W27685  10.690   3.012   3.170
59281W        W27686  24.007   4.396  12.343
59282W        W27687  20.224  11.541   4.914
59283W        W27688   0.419   0.638  11.892
59284W        W27689   7.777   1.002   3.791
59285W        W27690  31.491  32.471  12.694
59286W        W27691   5.226   7.122  12.638
59287W        W27692  28.532  28.743  11.673
59288W        W27693  23.252  28.537   4.313
59289W        W27694   3.823  26.091  12.666
59290W        W27695  14.852  21.684  14.285
59291W        W27696   0.421  42.572   2.138
59292W        W27697  20.378  39.287   3.797
59293W        W27698  24.213  13.972  12.007
59294W        W27699   9.654  42.791   0.127
59295W        W27700  27.863  25.552   2.463
59296W        W27701  28.005  20.950   0.821
59297W        W27702  15.235  44.094   2.288
59298W        W27703  17.584  20.286   0.839
59299W        W27704   1.150  12.400   3.726
59300W        W27705  32.146   8.394   3.764
59301W        W27706  12.128   2.279  11.216
59302W        W27707  13.615  35.300  14.834
59303W        W27708   7.223  30.382   0.131
59304W        W27709  11.902  23.175   3.552
59305W        W27710  31.470  29.456  10.602
59306W        W27711   1.856   9.728  14.729
59307W        W27712   4.858  24.599  13.540
59308W        W27713  20.139   3.376   2.624
59309W        W27714  43.376   2.421  12.963
59310W        W27715  30.712   3.952   2.203
59311W        W27716  15.987  20.199   2.610
59312W        W27717  11.898  17.762  14.715
59313W        W27718  21.047   9.268   5.068
59314W        W27719  38.339  42.423  14.554
59315W        W27720  44.822  20.046  13.793
59316W        W27721  36.351   7.406   1.214
59317W        W27722   5.990  27.207   3.864
59318W        W27723  29.929  38.868  11.552
59319W        W27724  14.342  12.390   1.442
59320W        W27725  37.667  44.882  13.048
59321W        W27726  19.700  20.737   2.191
59322W        W27727  26.592  10.006  12.109
59323W        W27728  26.580  13.136  12.660
59324W        W27729   5.278  30.386   1.832
59325W        W27730  19.663  10.022  14.790
59326W        W27731  27.639  23.805   2.185
59327W        W27732  28.244  29.851  11.078
59328W        W27733  17.315   8.404  10.760
59329W        W27734  28.477  43.368  12.443
59330W        W27735  39.522  32.713  10.606
59331W        W27736  13.895  43.949  10.280
59332W        W27737  39.895  19.430   1.219
59333W        W27738  21.638  20.553   2.123
59334W        W27739  10.115  43.683  14.954
59335W        W27740  12.564  33.813  11.590
59336W        W27741  12.740  33.133  14.848
59337W        W27742  33.083  26.418  10.315
59338W        W27743  40.564   0.207   1.211
59339W        W27744  13.688  28.590   3.615
59340W        W27745  27.310  31.569   1.620
59341W        W27746  35.361   1.638   1.254
59342W        W27747  25.950   0.594   2.432
59343W        W27748  28.244   5.850  12.708
59344W        W27749   5.913  40.851  13.848
59345W        W27750  19.572  11.619  13.321
59346W        W27751  21.808   1.931  12.104
59347W        W27752  35.824   9.701   2.246
59348W        W27753  12.331  16.475  10.317
59349W        W27754  38.316  21.815   1.250
59350W        W27755  39.500   7.839   2.301
59351W        W27756   0.980  33.397  12.517
59352W        W27757  16.282  35.581  14.821
59353W        W27758  16.540  21.685   2.135
59354W        W27759  14.020  16.307  13.543
59355W        W27760  28.400  32.122  11.343
59356W        W27761  42.414  24.279   1.613
59357W        W27762  16.587   1.691  12.645
59358W        W27763  34.713  40.934   3.886
59359W        W27764   9.622  41.554   2.147
59360W        W27765  25.557  12.702  10.970
59361W        W27766  12.802   1.771  14.747
59362W        W27767  30.100  34.563   0.399
59363W        W27768  31.806   9.444  14.849
59364W        W27769  27.069  15.554   3.624
59365W        W27770  42.489   8.746  12.659
59366W        W27771  13.563  41.935   3.691
59367W        W27772  20.732  24.100   9.984
59368W        W27773  13.876  22.187  14.285
59369W        W27774   6.849   4.741  10.166
59370W        W27775  32.172  14.568  12.556
59371W        W27776  35.831  20.226  14.742
59372W        W27777   0.870   8.978  13.810
59373W        W27778  24.174   3.938  14.313
59374W        W27779  16.583  43.027  12.560
59375W        W27780  18.496  20.095  13.801
59376W        W27781  44.122  17.028  13.391
59377W        W27782  31.711  38.998  14.502
59378W        W27783  36.170  35.546   3.703
59379W        W27784  31.128  23.301  12.157
59380W        W27785  14.154  37.457  11.544
59381W        W27786  40.005   6.982  13.873
59382W        W27787  42.212  38.474   3.240
59383W        W27788  28.847  16.119   9.962
59384W        W27789   3.702  36.123  10.226
59385W        W27790  23.530  16.302   3.958
59386W        W27791  19.527  38.376  14.804
59387W        W27792  38.351  21.312   0.368
59388W        W27793   7.743  25.659  10.679
59389W        W27794   0.474  34.602  14.314
59390W        W27795  19.176  44.759   0.424
59391W        W27796   5.848  22.742  13.002
59392W        W27797   6.049  41.261   4.136
59393W        W27798  10.961  26.641   0.915
59394W        W27799   8.724  18.803  14.423
59395W        W27800  26.364   6.633  10.359
59396W        W27801   5.786  42.995  10.632
59397W        W27802  18.986  10.762  12.871
59398W        W27803  33.463  16.105   0.322
59399W        W27804  20.867  19.946   2.245
59400W        W27805   2.413  24.157   3.774
59401W        W27806  21.660  41.980  12.032
59402W        W27807  28.234   0.388   2.906
59403W        W27808   8.144   8.913  13.888
59404W        W27809  22.301   5.293  14.340
59405W        W27810  26.946  11.876  10.828
59406W        W27811  20.563  33.129   4.024
59407W        W27812  14.766  26.958   1.879
59408W        W27813  11.361  40.326  12.941
59409W        W27814   8.782  43.695  11.479
59410W        W27815   0.729   4.299  11.649
59411W        W27816  15.716  39.525   3.336
59412W        W27817  38.438  20.987   2.631
59413W        W27818  43.747   8.650  14.425
59414W        W27819   5.927  19.162  11.177
59415W        W27820   4.332  32.787  10.568
59416W        W27821  32.523  22.698   2.151
59417W        W27822  36.461  30.492   4.224
59418W        W27823   3.761  27.749   3.714
59419W        W27824   0.426  21.954  13.488
59420W        W27825  12.724  13.696  14.082
59421W        W27826  23.690  36.768   2.751
59422W        W27827  42.181  29.544   1.737
59423W        W27828  27.302  30.950   4.930
59424W        W27829   6.766  30.954  13.400
59425W        W27830   5.199   6.164  13.015
59426W        W27831  10.151  19.784  13.141
59427W        W27832  44.435  21.917   4.576
59428W        W27833  44.052  15.218  12.142
59429W        W27834   5.657  14.890  13.874
59430W        W27835  10.425  40.619  10.332
59431W        W27836  37.830  31.014   4.362
59432W        W27837  30.432   3.893  12.922
59433W        W27838  12.202  43.707  11.619
59434W        W27839   2.953   7.610  12.001
59435W        W27840   8.773  18.072   4.539
59436W        W27841  41.474  20.411   2.314
59437W        W27842  24.637  22.108  11.262
59438W        W27843  11.292   3.447   0.313
59439W        W27844   7.735  16.729   1.655
59440W        W27845  36.610  23.073   1.965
59441W        W27846  13.805  33.340   4.114
59442W        W27847  22.687  15.014  14.764
59443W        W27848  23.622  24.741   0.929
59444W        W27849  25.241   0.870   3.686
59445W        W27850  24.174  26.421  13.858
59446W        W27851  18.561  20.281  11.016
59447W        W27852   6.948  13.378   1.430
59448W        W27853   7.979   0.445  12.179
59449W        W27854  36.835  28.081   1.259
59450W        W27855  15.084  17.677  13.431
59451W        W27856   8.582  29.557  14.270
59452W        W27857  17.284  39.252  13.350
59453W        W27858  33.300  24.360  11.972
59454W        W27859  40.554   7.336  12.593
59455W        W27860  10.385  30.999   4.859
59456W        W27861  29.560  37.069  11.022
59457W        W27862  14.164  31.547   1.460
59458W        W27863  22.577  32.336   5.105
59459W        W27864  26.485   0.079  13.323
59460W        W27865   0.498  25.102   4.308
59461W        W27866  16.770  27.496  12.855
59462W        W27867   2.819  15.548  13.554
59463W        W27868  35.274  20.953  14.849
59464W        W27869  41.522   6.077  10.024
59465W        W27870  24.936  11.351  13.923
59466W        W27871  43.274   4.916   0.900
59467W        W27872   0.247  18.073   0.939
59468W        W27873   6.344  27.914   3.759
59469W        W27874   6.661  16.885   0.777
59470W        W27875  28.430  39.016  13.440
59471W        W27876  26.108  31.210   2.341
59472W        W27877  10.752   0.848   3.259
59473W        W27878  24.767  35.463  11.975
59474W        W27879  29.739   8.412   2.693
59475W        W27880  14.280  24.629  13.332
59476W        W27881  41.765  41.068   1.237
59477W        W27882   6.640  24.567   4.387
59478W        W27883  35.461   1.716  12.465
59479W        W27884   6.602  18.787   4.249
59480W        W27885  41.003  43.314   1.266
59481W        W27886   1.185   1.801  13.845
59482W        W27887  39.621  24.039   4.435
59483W        W27888   1.953  43.313   0.495
59484W        W27889  27.275   0.939  11.988
59485W        W27890  21.159  43.630  11.485
59486W        W27891  40.692  11.107   3.087
59487W        W27892  10.367  39.809  13.612
59488W        W27893  21.539   2.504  14.754
59489W        W27894  20.075   3.481   0.364
59490W        W27895  19.914   4.152  12.989
59491W        W27896  11.519  42.812  11.041
59492W        W27897  43.920  12.120   3.244
59493W        W27898  43.522  34.867   1.857
59494W        W27899   8.085   0.734   0.883
59495W        W27900  20.621  27.642  10.654
59496W        W27901   1.989  25.725  10.735
59497W        W27902  38.211  35.281   1.748
59498W        W27903  37.893  25.698  12.405
59499W        W27904   0.388  19.614  14.135
59500W        W27905   0.419  31.392  14.311
59501W        W27906  40.855  20.677   3.380
59502W        W27907  40.797   3.396  11.134
59503W        W27908   2.671  21.226  13.537
59504W        W27909  28.280   7.446  11.283
59505W        W27910  32.174  30.590   3.149
59506W        W27911  21.781  10.284  12.863
59507W        W27912  27.156   2.883   1.400
59508W        W27913  29.471  28.072   0.999
59509W        W27914  29.941   2.004  14.894
59510W        W27915  22.663  17.582   4.703
59511W        W27916   6.234  10.157  11.125
59512W        W27917   7.246  38.747  12.040
59513W        W27918  39.535  10.614  13.624
59514W        W27919   8.700  20.553   2.377
59515W        W27920  31.700  22.468  12.052
59516W        W27921  32.335  27.379  10.427
59517W        W27922  27.138  31.231  13.484
59518W        W27923   3.757  18.679   1.399
59519W        W27924   7.452  35.990  12.675
59520W        W27925   9.359  33.552   2.298
59521W        W27926  18.870  24.053  11.168
59522W        W27927   8.718   3.485  14.983
59523W        W27928  27.083  25.457   1.949
59524W        W27929  31.290  25.697   4.387
59525W        W27930  32.842  35.900   4.671
59526W        W27931   3.853  16.682   4.197
59527W        W27932  15.062   7.307  12.107
59528W        W27933   4.443  19.586  12.673
59529W        W27934  15.650  13.532   1.748
59530W        W27935  31.625  12.240   4.209
59531W        W27936   5.067  41.221  11.952
59532W        W27937   4.810  14.529   0.333
59533W        W27938  42.826  29.870   4.122
59534W        W27939  21.047  22.734  14.763
59535W        W27940  13.158  28.180   4.281
59536W        W27941  37.874  12.311  14.411
59537W        W27942  16.749   7.186  13.100
59538W        W27943  18.180   5.162   3.268
59539W        W27944  31.413  10.827   2.606
59540W        W27945  20.395  25.887   3.740
59541W        W27946  14.894   3.357   3.026
59542W        W27947   8.513  33.963   2.361
59543W        W27948  29.271  39.874  14.150
59544W        W27949  31.615  43.348  13.415
59545W        W27950   3.246  41.213  14.797
59546W        W27951   4.689  19.213  14.437
59547W        W27952  32.644  26.379   3.661
59548W        W27953   6.626  44.503   2.749
59549W        W27954   8.613   7.746   3.665
59550W        W27955  16.145   1.445   3.505
59551W        W27956  33.041  33.338   2.362
59552W        W27957  42.340  16.854   4.170
59553W        W27958  12.923  13.575   2.297
59554W        W27959  18.317   2.912   1.216
59555W        W27960  13.371  18.235  13.600
59556W        W27961  11.829  44.145   0.717
59557W        W27962  22.739  26.377   4.983
59558W        W27963   1.864  16.865  11.952
59559W        W27964  40.733  27.184  12.987
59560W        W27965  16.533  29.555   1.263
59561W        W27966  29.409  37.598   4.094
59562W        W27967  23.502  20.774  14.516
59563W        W27968  15.810  29.595   3.953
59564W        W27969  10.900   4.736   3.200
59565W        W27970   5.722  41.367   0.729
59566W        W27971  43.914   0.248   3.045
59567W        W27972  29.602  30.926  12.531
59568W        W27973  43.309  31.907   2.282
59569W        W27974  26.803  10.180  11.253
59570W        W27975  11.496  37.984  11.269
59571W        W27976  15.971   2.640   1.135
59572W        W27977  22.032  42.315  11.629
59573W        W27978  35.058  10.790  14.310
59574W        W27979  10.337   3.443  11.032
59575W        W27980  13.996  38.236   4.154
59576W        W27981  20.896  10.054   3.449
59577W        W27982   6.816  23.287  11.512
59578W        W27983  36.016  13.249   4.050
59579W        W27984  12.254  29.596  14.060
59580W        W27985  22.255  26.486   0.336
59581W        W27986  17.601  35.979  10.775
59582W        W27987   6.477  30.510  13.883
59583W        W27988  10.153  14.316  14.481
59584W        W27989  13.815  22.103  11.957
59585W        W27990  28.874  20.712  14.386
59586W        W27991  21.528  22.365  12.546
59587W        W27992   7.061  38.436   3.679
59588W        W27993  31.220   2.332   0.131
59589W        W27994  16.824  34.686  10.394
59590W        W27995  40.954   2.666  10.744
59591W        W27996  41.476  19.628  14.783
59592W        W27997  27.495   3.249   0.306
59593W        W27998  34.532   5.322  11.162
59594W        W27999  19.704  16.809  13.251
59595W        W28000   7.404  43.529  11.800
59596W        W28001   3.997  21.008  10.671
59597W        W28002  39.886  29.475  11.685
59598W        W28003  36.343  39.855  13.531
59599W        W28004   4.816   3.416   2.256
59600W        W28005  41.438  11.787   2.799
59601W        W28006   0.546  30.102   0.732
59602W        W28007  41.749  16.588   2.724
59603W        W28008   2.944  25.847   2.966
59604W        W28009  25.094  10.406   4.328
59605W        W28010  12.726  29.331   0.759
59606W        W28011  23.478  44.301   3.682
59607W        W28012  12.437  15.321  13.844
59608W        W28013  36.196  41.914   2.456
59609W        W28014  14.196   6.358   4.723
59610W        W28015   7.389  37.924  11.049
59611W        W28016  13.311   3.433   9.914
59612W        W28017  38.614  16.954   2.642
59613W        W28018  10.069   4.432  13.938
59614W        W28019  19.635  23.235   0.779
59615W        W28020   0.758  37.062  10.830
59616W        W28021   0.990  37.311   4.102
59617W        W28022  13.753  13.583   3.757
59618W        W28023  32.151   0.458  11.196
59619W        W28024  35.989  24.605   3.380
59620W        W28025  10.392  36.369  14.487
59621W        W28026  44.502  12.808  11.594
59622W        W28027  12.269  24.017   4.581
59623W        W28028  21.302   1.990   3.190
59624W        W28029  32.184  10.604   1.317
59625W        W28030   5.428  27.966  12.468
59626W        W28031  40.351   1.077  11.239
59627W        W28032  34.661  14.187   0.284
59628W        W28033   1.701  23.081  10.678
59629W        W28034  42.771  16.646  11.625
59630W        W28035  28.899  35.894   1.920
59631W        W28036  42.233  17.035  14.386
59632W        W28037   4.188  20.327   0.360
59633W        W28038  25.546   7.484   3.608
59634W        W28039  22.389  19.270   1.485
59635W        W28040  22.104  27.080  11.083
59636W        W28041  32.096  34.504  13.356
59637W        W28042  19.752  42.032  14.587
59638W        W28043  42.352  31.665   4.713
59639W        W28044   6.970   7.177  13.875
59640W        W28045  29.850  21.647  11.647
59641W        W28046  15.864  15.073  12.745
59642W        W28047  27.278  36.185  11.142
59643W        W28048  16.282  20.621  14.975
59644W        W28049  41.961   6.866   4.544
59645W        W28050  25.714   6.847   0.524
59646W        W28051  39.849  10.147   0.384
59647W        W28052   0.339  22.032   1.773
59648W        W28053   8.492  35.860  10.869
59649W        W28054  44.527  42.379   1.703
59650W        W28055  10.705  15.499  11.270
59651W        W28056  34.038  12.114  10.434
59652W        W28057  33.957  25.658   0.343
59653W        W28058   1.881  41.275   3.107
59654W        W28059   5.876  19.239  12.073
59655W        W28060  26.905  25.071  11.929
59656W        W28061  15.760  20.299  10.965
59657W        W28062  32.663  28.019   0.872
59658W        W28063  36.374  34.823   1.726
59659W        W28064  17.219  32.057  14.927
59660W        W28065   0.214  20.773  10.627
59661W        W28066   0.789  44.745   1.005
59662W        W28067  39.047  24.553   1.683
59663W        W28068  28.990  21.074   3.560
59664W        W28069  22.797  30.041  13.510
59665W        W28070  25.540  27.620  10.778
59666W        W28071   8.971   8.733   2.292
59667W        W28072  43.878  22.004   1.180
59668W        W28073  21.596  36.503  11.421
59669W        W28074  29.494   0.899   1.289
59670W        W28075  16.496  16.374   3.636
59671W        W28076  41.587  15.827  11.236
59672W        W28077   2.242  35.589  14.986
59673W        W28078  12.089  43.959  13.955
59674W        W28079  44.230   3.815   0.206
59675W        W28080  15.167  11.658   4.930
59676W        W28081  21.232  37.849  13.870
59677W        W28082   8.145  32.209   3.314
59678W        W28083  28.465   4.701  11.557
59679W        W28084  21.277  37.808   4.937
59680W        W28085  14.629   6.700  14.028
59681W        W28086  11.241  37.434   1.851
59682W        W28087  19.809  41.916   4.832
59683W        W28088  39.500  28.187  12.860
59684W        W28089   8.867  17.239   4.109
59685W        W28090  10.747  34.519   2.534
59686W        W28091  29.622  18.788   1.895
59687W        W28092  40.324   6.093   4.615
59688W        W28093  41.597  20.647   2.770
59689W        W28094  29.452  35.888  11.778
59690W        W28095   1.256  32.003  14.059
59691W        W28096  44.596  40.243   5.188
59692W        W28097  31.196  44.388  11.206
59693W        W28098  36.224  18.454  12.539
59694W        W28099  42.044  32.415  14.416
59695W        W28100  29.660  25.041  11.054
59696W        W28101  28.900  34.830  13.533
59697W        W28102  24.760  33.427   1.277
59698W        W28103   5.770  11.778  13.663
59699W        W28104  43.874  41.602   2.844
59700W        W28105  11.565  19.621   4.462
59701W        W28106   2.541   5.216   1.413
59702W        W28107  40.553  29.673  11.542
59703W        W28108  26.772  25.035  12.913
59704W        W28109   1.865  43.788  12.074
59705W        W28110  24.108  18.696   3.276
59706W        W28111  21.706  17.102  12.445
59707W        W28112   2.828  36.879   4.753
59708W        W28113   4.134  20.574  14.914
59709W        W28114   2.471  22.097  14.291
59710W        W28115  24.552   9.142   0.975
59711W        W28116  36.265   6.428   3.696
59712W        W28117  10.076   8.777   1.162
59713W        W28118  23.475  43.055  12.437
59714W        W28119  44.574  43.872   0.345
59715W        W28120  34.352  27.617  12.589
59716W        W28121  22.514  26.529   4.497
59717W        W28122  10.236  44.211   2.722
59718W        W28123  18.120  33.195  11.457
59719W        W28124  44.782  25.511   1.456
59720W        W28125  32.371  19.354   3.324
59721W        W28126  22.637  34.669  12.511
59722W        W28127  35.912  41.477  11.648
59723W        W28128  42.692  31.933  12.520
59724W        W28129  11.417   6.364   0.924
59725W        W28130   7.272   2.245   2.633
59726W        W28131  41.006  39.291   2.248
59727W        W28132  33.932  12.347  14.877
59728W        W28133  19.232  42.517  12.572
59729W        W28134   9.752  15.558  11.396
59730W        W28135   6.198  30.293  12.448
59731W        W28136  39.529  27.443   2.139
59732W        W28137  30.356  14.166  11.544
59733W        W28138  40.518   6.211   0.786
59734W        W28139  12.517  26.832   4.236
59735W        W28140  20.426  23.970  10.375
59736W        W28141  25.095  21.202  12.549
59737W        W28142   8.260  28.779  14.446
59738W        W28143  32.327  10.824   1.760
59739W        W28144   2.068  43.282  11.576
59740W        W28145  26.558   4.759   3.724
59741W        W28146  30.546  44.662  11.923
59742W        W28147  29.688  41.582   2.403
59743W        W28148  27.279  23.390  11.156
59744W        W28149  41.607  34.696  11.609
59745W        W28150  18.136  37.250   4.248
59746W        W28151  35.059  32.592  14.298
59747W        W28152   4.378  18.997   3.950
59748W        W28153  22.246  25.624  10.963
59749W        W28154  13.809  21.221   3.428
59750W        W28155  19.349   9.258  10.217
59751W        W28156  40.450  13.825  12.059
59752W        W28157  21.066   3.560   5.117
59753W        W28158  31.060  14.171   0.936
59754W        W28159  24.381   0.410  13.111
59755W        W28160  21.586  21.788   2.843
59756W        W28161  12.246  10.706  10.939
59757W        W28162  13.947  37.445  12.026
59758W        W28163  42.063  17.188  11.507
59759W        W28164  40.590  28.807  12.559
59760W        W28165  32.656  24.753   0.328
59761W        W28166  35.270   3.143  14.760
59762W        W28167   6.945  35.582   1.164
59763W        W28168  28.597  12.152  14.338
59764W        W28169  13.318  39.071   1.773
59765W        W28170  11.368   8.718   4.280
59766W        W28171   0.718  34.283  11.521
59767W        W28172   2.873  21.055   0.202
59768W        W28173  18.129  33.097   4.550
59769W        W28174   1.842  38.997   0.693
59770W        W28175  41.672   3.961  13.165
59771W        W28176  20.067  25.587  14.926
59772W        W28177  39.295  42.386   0.424
59773W        W28178  18.848  10.198  13.523
59774W        W28179  32.902   3.789   2.908
59775W        W28180   7.659   7.269  12.084
59776W        W28181  13.722   4.872   3.790
59777W        W28182  20.480   9.240   3.347
59778W        W28183  38.336  37.390  12.317
59779W        W28184  11.108  16.157   2.662
59780W        W28185  19.776  12.327   3.131
59781W        W28186  32.315   0.191   1.539
59782W        W28187   7.173  42.030  12.540
59783W        W28188  19.107   7.822   0.716
59784W        W28189  41.099  22.535  14.007
59785W        W28190  33.386  10.605   3.712
59786W        W28191  15.811  10.702  12.520
59787W        W28192  21.661  15.322  14.499
59788W        W28193   9.086  44.142  10.209
59789W        W28194  42.874  40.428   5.036
59790W        W28195   8.283  17.676  13.046
59791W        W28196  17.156  32.950  12.553
59792W        W28197  28.609  40.535  13.462
59793W        W28198  26.686  36.539   2.368
59794W        W28199  41.389  41.455  11.339
59795W        W28200  13.740   7.130  14.327
59796W        W28201  33.052  12.918   2.649
59797W        W28202  26.596  12.329  12.655
59798W        W28203   2.974   7.326  11.503
59799W        W28204  25.831   8.839  11.584
59800W        W28205   1.673  43.211   4.078
59801W        W28206  25.315   4.792  12.489
59802W        W28207  32.332   5.394   4.009
59803W        W28208  13.840   3.430  13.967
59804W        W28209  39.867  37.553   4.980
59805W        W28210   2.380  30.652   3.114
59806W        W28211  12.559  33.980   4.652
59807W        W28212  44.269  16.862  10.680
59808W        W28213  39.353   3.114   2.288
59809W        W28214  30.598  17.253   0.113
59810W        W28215  34.933  33.469   3.283
59811W        W28216  19.273  18.530   1.688
59812W        W28217  17.063  25.823  12.321
59813W        W28218  13.365  39.588   2.725
59814W        W28219   0.814  22.594   2.635
59815W        W28220  22.977  28.227  13.576
59816W        W28221  42.667  39.366   1.258
59817W        W28222   2.898  39.362   3.225
59818W        W28223   6.756   1.556   0.296
59819W        W28224   9.659   4.281  13.075
59820W        W28225  18.739  22.665  11.133
59821W        W28226  19.749  11.746   1.934
59822W        W28227  29.664  31.077  13.458
59823W        W28228  42.935  29.486  10.309
59824W        W28229  36.461  28.897   4.520
59825W        W28230  24.011   0.306  14.971
59826W        W28231   7.214   0.467  11.087
59827W        W28232  31.059  19.575  12.076
59828W        W28233  35.844  22.172  10.536
59829W        W28234  24.672  37.899  11.546
59830W        W28235   9.558  16.226   3.581
59831W        W28236   5.669  26.997   4.246
59832W        W28237  25.965   6.975   1.366
59833W        W28238   2.295  43.141  12.460
59834W        W28239  43.423  28.040   4.615
59835W        W28240   2.854  27.653   2.461
59836W        W28241  25.185   7.492  11.206
59837W        W28242  38.911  32.946   2.715
59838W        W28243   5.362   2.508   4.874
59839W        W28244  30.616  17.619  13.400
59840W        W28245  33.129   9.573   3.790
59841W        W28246   6.032  11.198   0.337
59842W        W28247  27.289  20.150  12.353
59843W        W28248  27.153   9.224   2.953
59844W        W28249  26.116  22.053  11.150
59845W        W28250  40.196   4.465   1.117
59846W        W28251  30.286  40.979   5.423
59847W        W28252   2.733  23.040  10.758
59848W        W28253  13.490  13.798   0.374
59849W        W28254  29.265  14.111  11.534
59850W        W28255  38.779  15.048  13.470
59851W        W28256  36.420  19.140   3.660
59852W        W28257  18.077  40.061   3.417
59853W        W28258  42.782  31.862  14.716
59854W        W28259  19.144  24.597  13.498
59855W        W28260  28.414   3.329  14.384
59856W        W28261  19.065   4.944   1.502
59857W        W28262   3.921  43.286   3.158
59858W        W28263  28.072   3.020   2.360
59859W        W28264  42.797   0.636  13.420
59860W        W28265  25.953  17.288   1.321
59861W        W28266  27.003  16.522   5.083
59862W        W28267  41.145  23.418  12.115
59863W        W28268  34.206  42.793   2.729
59864W        W28269  34.149   3.436  14.538
59865W        W28270  24.639   7.620   0.785
59866W        W28271   9.194  35.627   0.944
59867W        W28272   0.729  21.196   5.074
59868W        W28273  35.258  18.130  11.667
59869W        W28274  33.206   0.491  12.601
59870W        W28275  22.275  15.301   2.158
59871W        W28276   6.387  14.763   1.169
59872W        W28277  27.950  36.421  11.661
59873W        W28278  38.065  44.032  14.877
59874W        W28279   7.028  41.835  11.558
59875W        W28280   6.622   9.116  12.044
59876W        W28281  24.276  22.991  12.900
59877W        W28282  17.603   7.914   1.735
59878W        W28283  20.937  31.389   1.089
59879W        W28284  26.344   5.400   0.982
59880W        W28285  35.970   6.066   3.034
59881W        W28286  42.875  11.751   1.238
59882W        W28287  22.333  37.485  10.719
59883W        W28288  14.593  13.200   1.302
59884W        W28289   0.133  17.044  11.743
59885W        W28290  38.989  18.332   3.952
59886W        W28291  15.343   3.384  12.985
59887W        W28292  30.631  24.398   2.197
59888W        W28293  22.341  20.993   4.287
59889W        W28294  32.529  38.807   4.107
59890W        W28295  41.231  28.290   0.436
59891W        W28296  24.119  20.162  14.556
59892W        W28297  11.198  14.279   3.756
59893W        W28298  16.578  14.723   4.605
59894W        W28299  14.817  36.361   2.503
59895W        W28300  39.354  11.733  12.424
59896W        W28301  29.642   2.869   3.690
59897W        W28302  33.035  41.993   3.132
59898W        W28303  18.080  43.415  13.839
59899W        W28304   7.061  34.535  13.475
59900W        W28305  20.181  23.544   3.444
59901W        W28306  18.678   2.284  11.495
59902W        W28307  32.201  31.096   0.528
59903W        W28308  25.547  27.400  13.433
59904W        W28309  34.330  14.146   4.865
59905W        W28310   3.459  33.967   4.043
59906W        W28311  11.562  18.541  11.020
59907W        W28312  31.308   7.796  10.720
59908W        W28313  30.959   0.853   2.199
59909W        W28314  16.205  35.860   3.736
59910W        W28315  37.901  18.063   2.850
59911W        W28316  36.754  20.259  13.056
59912W        W28317  25.574  25.290   3.843
59913W        W28318  36.466  23.554  11.424
59914W        W28319   3.870   3.861   1.587
59915W        W28320  40.781   2.204   0.334
59916W        W28321  37.424  21.813   0.718
59917W        W28322  10.901  13.581   5.006
59918W        W28323  17.882   2.844   3.591
59919W        W28324  16.504  13.128   4.927
59920W        W28325  43.437  38.006  14.461
59921W        W28326   3.281  12.194  12.022
59922W        W28327  20.297  31.072   0.275
59923W        W28328  13.553  39.524   0.930
59924W        W28329   4.625  16.159  12.804
59925W        W28330  16.668  29.691  14.337
59926W        W28331  20.645  13.208   4.414
59927W        W28332  14.594  39.987   1.933
59928W        W28333  28.564   5.233   3.070
59929W        W28334  19.609   3.658  13.302
59930W        W28335  20.690  30.659   4.187
59931W        W28336  13.211  26.693   4.975
59932W        W28337   6.987  12.327  11.228
59933W        W28338  33.433  42.016  11.065
59934W        W28339  14.638  29.258   4.235
59935W        W28340  34.840  22.530  12.411
59936W        W28341  28.697  13.816   1.946
59937W        W28342  25.687   4.288  13.334
59938W        W28343   1.893  33.630  13.277
59939W        W28344  42.779  19.817   2.198
59940W        W28345  37.477  28.894   1.253
59941W        W28346  17.017  43.399   3.303
59942W        W28347   4.846  43.862   4.468
59943W        W28348  25.506  44.565   1.998
59944W        W28349  39.905   8.438  13.033
59945W        W28350  25.271  29.166  14.116
59946W        W28351  21.740  33.494   1.079
59947W        W28352  33.045  37.115   3.633
59948W        W28353   5.123  18.234  12.312
59949W        W28354  30.069  37.480  11.526
59950W        W28355  26.960  21.577   2.304
59951W        W28356   1.346  39.644  12.966
59952W        W28357  12.178  41.470  12.679
59953W        W28358  36.966  36.167   0.500
59954W        W28359  44.367  15.259   2.254
59955W        W28360  41.837  29.895   3.401
59956W        W28361  23.750  14.165   5.136
59957W        W28362  15.207   4.382  14.513
59958W        W28363  10.206   5.382  10.934
59959W        W28364  12.372  33.443   4.412
59960W        W28365  39.587  44.698  11.899
59961W        W28366  19.846  25.939   0.298
59962W        W28367  19.479   0.115   2.059
59963W        W28368  29.156   1.966   1.754
59964W        W28369  17.983  37.200  14.855
59965W        W28370  36.544  42.755   1.843
59966W        W28371   8.149  35.453  14.790
59967W        W28372  41.345  20.434   3.249
59968W        W28373   6.710  14.580   1.941
59969W        W28374  29.473   4.447   2.367
59970W        W28375  42.893  27.040  12.605
59971W        W28376   3.302  21.573  12.155
59972W        W28377   0.261  27.528  13.426
59973W        W28378  15.788  20.746  12.703
59974W        W28379  25.232   1.974   4.160
59975W        W28380  30.044  30.475   1.445
59976W        W28381  11.791   6.216  13.946
59977W        W28382  34.630  36.471  12.737
59978W        W28383  23.312  18.561   4.968
59979W        W28384  40.384  17.650  12.083
59980W        W28385  19.058   5.804   0.401
59981W        W28386  11.775   7.934   4.380
59982W        W28387  34.923  43.114  12.009
59983W        W28388  29.959  19.334  14.439
59984W        W28389  29.037  28.207   5.035
59985W        W28390  30.385   0.376   0.419
59986W        W28391  23.172  19.225  12.376
59987W        W28392   1.311  35.964   2.634
59988W        W28393  33.199  26.532   3.723
59989W        W28394   6.831  34.481  10.740
59990W        W28395  38.548  30.160   2.403
59991W        W28396  10.514  31.251  11.076
59992W        W28397  19.269  15.505   4.840
59993W        W28398  32.533  41.361   1.290
59994W        W28399  10.866  32.921  14.035
59995W        W28400  34.738  11.522  10.388
59996W        W28401  23.521  40.487   0.856
59997W        W28402  28.624  28.133   1.371
59998W        W28403   9.416  12.078  11.610
59999W        W28404  18.754   9.146   1.211
60000W        W28405  34.336  38.281   4.675
60001W        W28406  19.073  11.928   1.685
60002W        W28407  19.697   8.299  13.266
60003W        W28408  33.910   6.819  11.703
60004W        W28409  22.308  23.993  11.564
60005W        W28410  20.340  12.358  11.874
60006W        W28411   7.137  36.374  12.515
60007W        W28412  21.737  43.424  12.395
60008W        W28413   7.805  31.749  14.099
60009W        W28414  26.531  21.222  13.712
60010W        W28415  29.120   5.819  13.325
60011W        W28416  15.543  42.774   2.734
60012W        W28417  28.137  43.075   4.652
60013W        W28418  23.593  38.600  10.756
60014W        W28419  13.816  15.607  14.376
60015W        W28420  26.558  12.495  10.279
60016W        W28421  13.714  28.784   3.121
60017W        W28422  27.026  22.993  11.386
60018W        W28423  15.755  38.559  14.270
60019W        W28424  15.793  26.338  10.839
60020W        W28425  36.741  30.447   2.672
60021W        W28426  34.278  33.553  11.045
60022W        W28427  25.768   3.282   3.611
60023W        W28428   8.125  22.958  13.086
60024W        W28429   7.550   6.652  11.084
60025W        W28430  15.190  39.507  13.890
60026W        W28431   4.306  33.010   3.304
60027W        W28432  42.379  15.754   2.039
60028W        W28433  25.082  34.435  12.562
60029W        W28434  18.133  17.066   1.202
60030W        W28435  13.813   9.859   2.733
60031W        W28436   9.879  19.853   2.685
60032W        W28437   1.155  42.423  10.455
60033W        W28438  34.604  29.174   4.130
60034W        W28439   9.861   8.623   1.927
60035W        W28440  27.902  36.389  13.840
60036W        W28441  11.343  37.475  12.072
60037W        W28442  19.733   6.082  10.621
60038W        W28443   8.865  37.393   2.326
60039W        W28444  31.532  16.613  11.899
60040W        W28445   1.434  12.396  11.623
60041W        W28446  26.185  16.824  10.979
60042W        W28447  19.040  10.192   3.504
60043W        W28448  39.996   4.868  12.768
60044W        W28449  16.193  15.143   1.197
60045W        W28450  23.690  23.684   2.469
60046W        W28451  27.470  32.812   3.410
60047W        W28452   8.701  18.266   4.065
60048W        W28453  28.460   0.852  11.913
60049W        W28454  24.107   7.225   2.103
60050W        W28455  11.953  17.109   0.463
60051W        W28456  20.818  15.791   0.375
60052W        W28457  24.818  38.979   1.915
60053W        W28458  22.379  15.860   9.744
60054W        W28459  21.962  17.911   4.149
60055W        W28460   0.817  30.775   9.525
60056W        W28461  18.630  38.699   3.799
60057W        W28462  19.346  10.761  10.282
60058W        W28463   1.841  22.408   4.104
60059W        W28464  25.621  21.629  10.677
60060W        W28465  20.913  39.218  12.974
60061W        W28466  38.984  35.060  10.918
60062W        W28467  29.966   9.685   0.315
60063W        W28468  41.368   4.404  14.454
60064W        W28469  19.788  28.204  13.952
60065W        W28470  28.553   2.531  11.026
60066W        W28471  26.630   7.575  12.098
60067W        W28472  29.498  12.105  11.408
60068W        W28473   2.473  15.317   1.844
60069W        W28474  34.911  28.698  13.376
60070W        W28475   8.938  40.830   2.407
60071W        W28476   9.446  16.781  11.618
60072W        W28477  34.544  32.347   2.311
60073W        W28478  21.506  12.709   4.200
60074W        W28479  34.139  43.225   3.861
60075W        W28480  15.167  21.103   0.329
60076W        W28481  18.206   4.982   0.350
60077W        W28482  10.814  28.519  14.570
60078W        W28483   8.065   1.697   3.242
60079W        W28484  35.626  11.426  11.612
60080W        W28485  39.198  38.302  10.672
60081W        W28486  34.977  16.622   2.570
60082W        W28487   1.705  41.240   2.590
60083W        W28488   6.732  12.516  11.632
60084W        W28489  21.662  28.442   4.214
60085W        W28490  35.294   7.890  11.653
60086W        W28491  37.902  18.272   0.783
60087W        W28492   7.715   2.092   2.820
60088W        W28493  29.783   3.336   3.562
60089W        W28494  43.009  11.263   4.432
60090W        W28495  38.816   8.745   3.907
60091W        W28496   5.337  17.627  13.973
60092W        W28497  29.970  19.122  12.398
60093W        W28498  23.473  35.915   0.034
60094W        W28499  36.473  12.360  13.360
60095W        W28500  27.675   1.339   4.577
60096W        W28501   1.233  24.781  13.055
60097W        W28502  35.173  30.046  11.626
60098W        W28503  33.692   7.205   4.714
60099W        W28504  15.552  15.693   1.786
60100W        W28505  14.308  42.752  14.913
60101W        W28506  38.026  13.537   0.087
60102W        W28507   2.135  44.350   1.782
60103W        W28508  31.409  41.488  10.203
60104W        W28509  11.591  24.551  11.673
60105W        W28510  10.979  36.394  11.052
60106W        W28511  21.114  32.986  10.857
60107W        W28512  41.785  44.989  10.795
60108W        W28513  40.104   3.699   0.350
60109W        W28514   3.972  32.867   2.302
60110W        W28515  18.362  20.301  14.678
60111W        W28516  44.326  14.387   4.330
60112W        W28517  33.027  36.612  13.374
60113W        W28518  19.105  15.778  12.062
60114W        W28519  24.146   8.176  11.613
60115W        W28520  24.026   2.755  11.161
60116W        W28521  43.800   4.276  12.938
60117W        W28522  30.827  22.397   5.055
60118W        W28523   4.757  18.822   4.255
60119W        W28524   3.116   5.103  11.995
60120W        W28525   8.719  21.732  12.983
60121W        W28526  18.719  26.708   2.000
60122W        W28527  33.340   0.477   3.870
60123W        W28528  39.952  24.716  12.030
60124W        W28529  21.067  42.979   0.901
60125W        W28530  14.641  12.151  12.540
60126W        W28531  36.122  28.171   0.507
60127W        W28532   7.665  20.199  13.642
60128W        W28533  28.478  23.419  10.676
60129W        W28534  44.362  25.021   3.618
60130W        W28535  39.340  42.358   2.968
60131W        W28536  43.852  16.596   2.211
60132W        W28537  39.090  13.439   2.261
60133W        W28538   5.846  24.946   4.564
60134W        W28539  27.965  12.673  14.932
60135W        W28540   9.668  35.639   3.769
60136W        W28541  44.513  39.493  14.365
60137W        W28542  11.341  21.017   0.366
60138W        W28543  32.999  30.709  11.653
60139W        W28544  11.613  20.803   2.329
60140W        W28545  27.735  14.999  11.894
60141W        W28546  27.206  33.329  14.363
60142W        W28547  31.585  20.021   0.831
60143W        W28548  22.805  15.688   3.337
60144W        W28549  23.173  11.372  12.841
60145W        W28550   8.745  11.196  13.786
60146W        W28551  32.580  19.071   0.680
60147W        W28552  23.634  37.015  12.429
60148W        W28553  42.088  44.813   1.789
60149W        W28554   0.747  16.829   3.304
60150W        W28555  35.337   5.701  11.172
60151W        W28556  44.999  30.141   1.716
60152W        W28557   4.885  17.023   4.519
60153W        W28558  14.109   8.869  12.649
60154W        W28559  38.575  38.021   2.466
60155W        W28560  27.037  42.468  14.932
60156W        W28561   1.896  23.965   3.824
60157W        W28562  24.786  32.387   0.215
60158W        W28563  11.417   7.853  11.658
60159W        W28564   3.630  18.047   3.184
60160W        W28565  10.568  29.859   0.403
60161W        W28566   0.162   9.653   1.674
60162W        W28567  23.245   5.911   0.948
60163W        W28568  33.071  41.533   2.167
60164W        W28569  20.794  19.090  13.393
60165W        W28570  24.765  38.763   0.134
60166W        W28571  32.340  11.728   3.115
60167W        W28572  42.722   9.559  13.723
60168W        W28573  18.593  14.596  12.469
60169W        W28574  26.201  36.977  10.699
60170W        W28575  28.177   1.401   0.338
60171W        W28576  18.750  40.604   2.814
60172W        W28577   9.397  12.585  11.594
60173W        W28578  26.084  36.505  12.692
60174W        W28579  35.417  37.865  11.760
60175W        W28580  17.671  38.290  13.196
60176W        W28581  13.326   9.800   0.310
60177W        W28582  31.483  17.792   0.399
60178W        W28583  29.513  19.768   3.686
60179W        W28584  20.245  22.075  12.142
60180W        W28585  10.713  15.708   3.771
60181W        W28586  21.594  24.420  14.958
60182W        W28587  20.744  44.219   4.020
60183W        W28588  15.918  10.910  11.172
60184W        W28589  12.901  33.931  12.191
60185W        W28590  18.879  21.365  14.003
60186W        W28591  15.186  23.795  12.584
60187W        W28592  18.072  22.108   0.734
60188W        W28593  18.102   2.387  12.992
60189W        W28594  20.705  38.035  13.901
60190W        W28595  14.689   4.676   4.606
60191W        W28596  39.035   3.791  10.768
60192W        W28597  37.695  30.169  10.478
60193W        W28598  12.915  40.735   1.784
60194W        W28599   8.708   7.464   2.056
60195W        W28600  17.479  31.816  13.644
60196W        W28601  40.100  19.118  12.412
60197W        W28602  10.303  13.503  14.942
60198W        W28603  31.868  15.106   4.086
60199W        W28604  19.266   4.377   2.975
60200W        W28605  14.614   3.842  14.942
60201W        W28606  20.793  11.502  14.828
60202W        W28607  43.283   0.245   0.477
60203W        W28608   2.160  15.186  11.992
60204W        W28609   1.324  30.648  12.552
60205W        W28610  15.499  25.036   2.859
60206W        W28611  41.174   5.689   2.747
60207W        W28612  25.200  25.008   4.148
60208W        W28613   5.636  43.299  13.584
60209W        W28614   7.379  38.935  13.539
60210W        W28615   4.665  14.178  14.439
60211W        W28616  21.217   3.701   0.451
60212W        W28617  42.799  25.869  14.249
60213W        W28618  44.579  20.129  12.015
60214W        W28619  33.099  38.603  12.512
60215W        W28620  17.394  30.974  10.079
60216W        W28621  15.750  43.977   2.344
60217W        W28622  32.080  13.864   3.156
60218W        W28623  21.804  44.715  12.296
60219W        W28624  39.329  44.009   1.591
60220W        W28625  23.968  18.001  13.569
60221W        W28626  20.036  34.941   3.479
60222W        W28627  31.437  23.627   1.185
60223W        W28628  10.451   0.347   3.166
60224W        W28629  16.273  26.243  11.008
60225W        W28630  12.839  20.918   4.363
60226W        W28631   8.806   6.175  14.000
60227W        W28632  44.569   7.041  14.805
60228W        W28633  33.980  11.857  12.969
60229W        W28634  23.741  14.251   4.057
60230W        W28635  32.955  20.819  10.666
60231W        W28636  30.346  40.834   1.442
60232W        W28637   7.753  10.133   3.184
60233W        W28638  24.527  42.350   2.460
60234W        W28639  30.100  34.050   0.358
60235W        W28640  40.351  25.237   4.140
60236W        W28641  34.490  16.568   3.818
60237W        W28642  14.014   4.304   4.192
60238W        W28643  17.448  33.345  11.671
60239W        W28644  15.350  44.816  14.448
60240W        W28645   3.349   9.919  14.528
60241W        W28646  34.534  29.587  13.555
60242W        W28647  37.462  11.136   1.235
60243W        W28648  40.107  38.758   3.139
60244W        W28649  16.546   7.284  11.556
60245W        W28650  10.188  44.052   4.191
60246W        W28651  34.661   7.253   3.513
60247W        W28652   4.913  18.427  13.469
60248W        W28653   2.254  38.859  11.910
60249W        W28654  10.194  25.026   2.700
60250W        W28655  17.619   4.809   4.696
60251W        W28656  20.713  11.812   0.779
60252W        W28657  41.779  32.884  13.464
60253W        W28658  28.689   1.953  13.073
60254W        W28659  23.808  29.906   2.663
60255W        W28660  42.714  29.471   2.608
60256W        W28661   4.634  20.579   0.215
60257W        W28662   0.407  28.137   2.216
60258W        W28663  32.408  26.892   4.541
60259W        W28664  36.464  30.074   3.943
60260W        W28665  38.911  23.747  14.941
60261W        W28666  25.444  31.207  14.421
60262W        W28667  19.295  19.098  14.341
60263W        W28668  37.100  21.619   4.536
60264W        W28669  31.083   5.432  13.057
60265W        W28670  28.810   0.957   1.839
60266W        W28671  34.838   3.296  11.137
60267W        W28672   7.853   8.276   1.055
60268W        W28673  21.956   9.123   1.035
60269W        W28674  11.670  19.270   3.367
60270W        W28675   4.327   0.992   3.124
60271W        W28676  33.555  33.939   3.573
60272W        W28677  11.599  12.327   0.341
60273W        W28678  41.369  42.873   0.609
60274W        W28679   7.312  15.739  13.061
60275W        W28680  24.145   4.445  14.323
60276W        W28681  40.741   0.262  12.037
60277W        W28682   2.847   7.852  11.563
60278W        W28683  28.832  13.640   4.271
60279W        W28684  40.785  28.965  14.637
60280W        W28685  38.112  40.580  11.523
60281W        W28686  36.631  11.085   1.687
60282W        W28687  17.560   4.677  11.046
60283W        W28688  40.241  35.969   3.771
60284W        W28689  34.424   7.969  13.407
60285W        W28690  12.428  22.038   1.274
60286W        W28691   0.284  35.855   1.887
60287W        W28692  37.446   7.860  11.320
60288W        W28693   7.912  43.485  11.591
60289W        W28694  27.986  16.986   1.290
60290W        W28695   3.859  34.041  11.200
60291W        W28696  22.171  30.251  13.929
60292W        W28697  25.233  38.488  11.594
60293W        W28698  17.667  42.498   1.917
60294W        W28699  38.614  28.475   0.984
60295W        W28700  41.931  24.924  14.482
60296W        W28701  18.296  15.724  11.255
60297W        W28702  28.661  11.372  12.390
60298W        W28703  29.172   3.313  14.810
60299W        W28704  44.730  36.534   2.353
60300W        W28705   7.716  27.005   1.339
60301W        W28706  39.352   4.643  10.999
60302W        W28707   1.262  15.330   2.712
60303W        W28708  14.060  12.061  11.550
60304W        W28709   5.587  43.395  11.656
60305W        W28710   0.449   4.433   1.274
60306W        W28711  17.575  16.775  12.437
60307W        W28712   1.837  12.595   3.242
60308W        W28713  36.603  11.140   4.772
60309W        W28714   7.181  24.236   2.858
60310W        W28715  13.728   2.919  10.725
60311W        W28716   9.511  37.998  13.318
60312W        W28717  42.215  37.539  12.490
60313W        W28718  34.461  26.140   4.434
60314W        W28719  25.222  37.815  10.683
60315W        W28720   3.960  28.588   4.137
60316W        W28721  36.628  25.195   1.418
60317W        W28722  40.184  42.415  14.345
60318W        W28723  17.750  20.193   2.229
60319W        W28724  10.875  44.992   4.975
60320W        W28725  24.219  31.284  11.959
60321W        W28726   0.450  38.689   1.179
60322W        W28727   1.000  13.961  11.618
60323W        W28728  15.310  15.681  12.338
60324W        W28729   8.888   6.653  11.730
60325W        W28730  33.464   2.734  12.409
60326W        W28731  28.515  25.185  14.130
60327W        W28732  22.165  19.180  14.485
60328W        W28733  37.430  11.166   2.340
60329W        W28734  38.477  27.239  13.028
60330W        W28735  20.098  29.777  14.947
60331W        W28736  44.815  26.318   4.139
60332W        W28737  35.974  33.097  11.449
60333W        W28738   2.835  41.320  13.634
60334W        W28739   5.808   0.464   1.438
60335W        W28740  18.436  21.921  11.511
60336W        W28741  16.055  32.998  14.871
60337W        W28742   7.488  23.836  10.302
60338W        W28743  30.865  39.831   5.432
60339W        W28744  36.386  15.426  13.079
60340W        W28745  39.783  15.887   1.859
60341W        W28746  30.646  41.460   2.790
60342W        W28747  25.286  18.591   1.984
60343W        W28748  27.467  23.775  10.781
60344W        W28749  37.425   0.331  14.685
60345W        W28750  11.564  24.937  11.262
60346W        W28751  44.421  29.956   2.795
60347W        W28752  17.790  31.984   1.861
60348W        W28753  11.956  12.609  14.954
60349W        W28754  31.955  12.895   4.160
60350W        W28755  43.001  20.684   1.664
60351W        W28756  29.103  20.106   3.650
60352W        W28757  31.064  21.010  12.484
60353W        W28758   6.107  12.691  11.207
60354W        W28759  41.487  19.618  13.768
60355W        W28760  15.296   6.256  14.561
60356W        W28761  36.030  34.024   4.050
60357W        W28762  43.430  28.436  14.246
60358W        W28763  35.137  33.291   0.017
60359W        W28764  32.903   9.356  14.406
60360W        W28765  20.774  37.914   3.624
60361W        W28766  34.984   1.762   0.922
60362W        W28767  32.954  23.494  12.847
60363W        W28768   2.755  38.033   4.907
60364W        W28769  44.561  37.917  11.551
60365W        W28770  33.160   9.772  10.947
60366W        W28771  31.955  16.701  12.953
60367W        W28772  34.320  14.407  11.181
60368W        W28773  41.398  43.520   3.381
60369W        W28774  44.028  15.307   1.377
60370W        W28775   5.298  31.417   1.120
60371W        W28776  21.446  41.435   4.148
60372W        W28777   1.828  34.096   1.258
60373W        W28778  27.082  42.305   1.532
60374W        W28779  11.384  34.471   3.716
60375W        W28780   8.909  26.945   3.706
60376W        W28781  32.009  17.152  14.430
60377W        W28782   7.222  23.176  11.202
60378W        W28783  44.191  31.583   3.368
60379W        W28784   0.514  17.232  10.820
60380W        W28785  25.185  15.434   1.229
60381W        W28786  42.151  32.126   1.945
60382W        W28787   4.493   7.720   0.282
60383W        W28788   8.150  27.633  14.422
60384W        W28789  27.259  25.684  11.208
60385W        W28790  33.219  24.698  14.302
60386W        W28791  44.267  39.143   5.070
60387W        W28792  44.033  10.455  12.006
60388W        W28793  44.732   5.385  10.110
60389W        W28794  43.932  44.050  12.927
60390W        W28795  26.141  21.245   4.073
60391W        W28796  40.829  16.809  11.461
60392W        W28797  26.643  33.842  14.395
60393W        W28798  33.118  40.791   4.163
60394W        W28799   2.920  18.489   0.398
60395W        W28800  24.007   8.044  12.446
60396W        W28801   1.715  13.712  14.030
60397W        W28802  29.018  25.200   4.780
60398W        W28803  13.892   4.804  13.315
60399W        W28804  12.959  19.074   4.746
60400W        W28805  28.144   2.694  11.804
60401W        W28806  32.941  10.116   0.910
60402W        W28807  14.211   0.715   1.341
60403W        W28808  10.271  20.261   4.791
60404W        W28809   8.115   9.116  10.251
60405W        W28810  15.459   9.227   3.223
60406W        W28811  10.596  17.405  12.939
60407W        W28812  23.277  21.650  14.888
60408W        W28813   4.706  15.038   0.404
60409W        W28814  21.107  15.252  14.476
60410W        W28815   9.308  16.802  14.878
60411W        W28816  41.459  44.541   1.484
60412W        W28817  38.904   7.193  14.797
60413W        W28818  37.887  35.372  12.436
60414W        W28819  29.478  19.202  13.779
60415W        W28820  39.306   8.362   3.146
60416W        W28821  42.392  30.431  13.299
60417W        W28822  43.321  13.142   0.782
60418W        W28823  28.057  43.445  11.352
60419W        W28824  24.270   5.879   4.277
60420W        W28825   6.888  17.073   3.343
60421W        W28826  14.724  42.880  14.057
60422W        W28827  19.017  43.955   3.721
60423W        W28828   7.350   8.274  14.312
60424W        W28829   6.564  14.727  11.067
60425W        W28830   1.285  25.715  12.856
60426W        W28831  33.109  34.654   2.717
60427W        W28832   8.972   3.470  10.743
60428W        W28833  28.889  37.861  10.370
60429W        W28834  29.061  18.784   5.418
60430W        W28835  41.891   6.091   4.071
60431W        W28836  18.829  22.157   0.360
60432W        W28837  19.273   8.827  13.807
60433W        W28838  18.368  44.453   0.337
60434W        W28839  14.167  25.507   3.607
60435W        W28840  30.619   2.526   3.626
60436W        W28841   7.620  42.988  12.595
60437W        W28842  33.408   5.250   2.295
60438W        W28843   9.275  17.492   4.875
60439W        W28844  16.831  41.353   2.693
60440W        W28845  13.124   6.871  11.180
60441W        W28846  36.673  17.614  13.458
60442W        W28847  31.108  24.437  14.509
60443W        W28848  40.169  14.182   5.263
60444W        W28849  24.754  44.492   1.310
60445W        W28850  23.173  40.880   3.113
60446W        W28851   3.844  10.744  12.115
60447W        W28852  18.037  11.694  12.534
60448W        W28853  43.562  44.910  13.675
60449W        W28854  27.666  44.247  14.835
60450W        W28855  30.249  41.917   0.996
60451W        W28856  34.350  23.565   2.855
60452W        W28857  26.924  40.173  13.785
60453W        W28858  20.100   7.827   2.423
60454W        W28859  30.476  24.026  14.993
60455W        W28860  24.612  27.404   0.920
60456W        W28861  27.517  18.767  14.616
60457W        W28862  32.641  22.258  12.162
60458W        W28863   0.178  33.111  13.570
60459W        W28864  19.509  18.000  14.479
60460W        W28865  12.943  37.409  14.790
60461W        W28866  21.949   0.897   0.425
60462W        W28867  38.398  16.869  14.438
60463W        W28868  33.621   9.686   3.757
60464W        W28869  11.476  40.898   2.923
60465W        W28870   9.239  12.403  14.076
60466W        W28871  36.120  15.797  13.740
60467W        W28872  41.321  18.268   0.957
60468W        W28873  35.681  30.066  11.625
60469W        W28874  11.733   6.236   0.512
60470W        W28875  39.362   6.475   4.554
60471W        W28876  19.706  24.464   1.758
60472W        W28877  27.915  16.678   1.739
60473W        W28878   0.634  33.055  14.390
60474W        W28879  25.239  28.076   3.779
60475W        W28880   3.333  19.529  12.065
60476W        W28881  14.743   3.749   2.705
60477W        W28882   6.338  25.040   1.734
60478W        W28883   4.687  26.523  12.204
60479W        W28884   3.088   0.706  11.713
60480W        W28885  10.076  44.414   1.657
60481W        W28886  10.516  10.552   3.278
60482W        W28887  36.050  17.175   4.362
60483W        W28888  34.094   7.264   1.762
60484W        W28889  29.463  16.369  13.870
60485W        W28890  38.242  44.806  12.480
60486W        W28891   8.140   9.265   4.534
60487W        W28892  37.743  43.362   2.067
60488W        W28893   7.633  24.794  11.705
60489W        W28894  33.792  40.643   0.531
60490W        W28895  16.514  25.590  11.582
60491W        W28896  21.077   8.635   3.779
60492W        W28897  19.225  44.377  11.073
60493W        W28898  28.043  41.339   0.336
60494W        W28899  13.312   1.915   0.452
60495W        W28900   3.026  37.320  14.862
60496W        W28901  40.983  30.457   2.920
60497W        W28902  35.011  18.808   0.202
60498W        W28903  35.335  24.857  12.544
60499W        W28904  32.361  27.150  11.566
60500W        W28905   6.143  40.348  12.811
60501W        W28906  43.312  10.334   4.116
60502W        W28907  44.027  31.138  11.139
60503W        W28908  37.887  44.808  13.988
60504W        W28909  30.357  20.303   3.136
60505W        W28910   9.851  21.996   2.332
60506W        W28911   4.622   7.240  13.478
60507W        W28912  25.168  44.391   1.025
60508W        W28913   0.372  25.953   4.573
60509W        W28914   3.330   3.024   3.721
60510W        W28915  14.301  25.579  11.500
60511W        W28916  43.865  25.202  13.637
60512W        W28917   9.076  27.948  11.847
60513W        W28918  26.649  11.875  12.401
60514W        W28919  26.153  29.943   2.427
60515W        W28920  33.926  24.704   3.345
60516W        W28921  14.658  33.394  11.462
60517W        W28922  17.117  39.002  12.101
60518W        W28923  25.563  20.819  13.804
60519W        W28924  37.422  42.504   1.753
60520W        W28925  18.516  26.449  10.390
60521W        W28926  33.347  39.305   3.494
60522W        W28927   5.465   4.312  10.603
60523W        W28928  22.936  39.030  10.410
60524W        W28929  39.824  27.148   2.841
60525W        W28930  22.060  26.171  14.551
60526W        W28931  25.267  32.281  11.958
60527W        W28932  35.472  25.597   2.157
60528W        W28933   3.781  28.690   3.677
60529W        W28934  22.301  14.716  14.925
60530W        W28935  30.046  34.302   4.310
60531W        W28936  43.245  43.553  11.657
60532W        W28937  24.108   1.863  13.396
60533W        W28938  21.274  37.801   1.926
60534W        W28939   5.377  18.081   3.766
60535W        W28940  34.074  42.426   3.566
60536W        W28941   5.276  20.110   3.921
60537W        W28942   0.554  10.772  14.904
60538W        W28943  32.604  33.403  11.927
60539W        W28944   3.376  29.325  12.416
60540W        W28945  33.143  15.670   3.164
60541W        W28946  27.464   6.872  13.506
60542W        W28947  20.577  16.060   3.891
60543W        W28948  39.512  34.507   2.314
60544W        W28949   4.202  44.316  12.474
60545W        W28950  44.100  15.701  12.450
60546W        W28951   4.346  32.882  12.369
60547W        W28952  43.190  38.951  12.068
60548W        W28953   6.160   3.650   2.417
60549W        W28954  24.471  37.479   4.627
60550W        W28955   4.483   8.196  10.947
60551W        W28956  24.767   8.095   4.110
60552W        W28957  41.513  14.073  11.882
60553W        W28958  11.041  43.827  12.437
60554W        W28959  28.063  38.646   2.850
60555W        W28960  15.977  27.207  11.001
60556W        W28961  22.260   8.846   0.351
60557W        W28962   8.365  25.651  13.495
60558W        W28963  42.347  13.787   3.642
60559W        W28964  12.280  33.583   4.899
60560W        W28965  16.180   7.258   1.090
60561W        W28966  13.626  25.439   4.845
60562W        W28967  42.419  38.908   1.438
60563W        W28968  43.947  12.662   2.471
60564W        W28969  26.775  23.351   3.614
60565W        W28970  28.504   9.433   1.935
60566W        W28971  36.351  14.752   3.143
60567W        W28972  29.062   8.430  14.011
60568W        W28973   1.464  33.826  13.522
60569W        W28974  28.526   3.649  13.975
60570W        W28975  32.451  43.253  13.151
60571W        W28976   9.529   4.278  10.633
60572W        W28977   5.812   3.307   3.205
60573W        W28978  43.293  21.730  12.908
60574W        W28979  29.329  37.971  13.371
60575W        W28980  43.602  37.654  14.828
60576W        W28981  25.774  39.742  14.108
60577W        W28982  31.438  25.154  13.773
60578W        W28983  40.729  44.754   1.438
60579W        W28984  27.861   5.257   0.880
60580W        W28985  14.217  19.520  14.565
60581W        W28986  11.603  40.440   2.753
60582W        W28987  35.378  31.152   3.717
60583W        W28988  34.673  40.748   0.067
60584W        W28989  37.709  37.947  12.097
60585W        W28990  17.201  30.453  14.463
60586W        W28991  21.916  14.542  11.360
60587W        W28992   4.352  13.036   0.851
60588W        W28993  27.901  30.971   1.380
60589W        W28994   1.840  44.183   4.185
60590W        W28995  39.428  33.094  12.958
60591W        W28996   1.947  12.105   3.397
60592W        W28997  39.456  37.741  11.041
60593W        W28998  26.666  38.265  14.397
60594W        W28999  37.045  41.358  11.139
60595W        W29000  17.844  33.963  14.666
60596W        W29001  44.885   4.713   3.093
60597W        W29002  23.509   3.188  12.511
60598W        W29003  19.727  41.381  12.855
60599W        W29004  26.946  35.866  13.244
60600W        W29005  42.832  14.563   1.814
60601W        W29006  27.742   4.277   1.601
60602W        W29007  14.750  15.607   4.551
60603W        W29008  43.929   9.927  14.808
60604W        W29009   4.816  13.424  11.987
60605W        W29010  18.952  11.697   1.230
60606W        W29011  15.581  37.043  14.599
60607W        W29012  39.459  10.317   3.269
60608W        W29013  19.059  16.611   2.830
60609W        W29014   4.902  18.045  11.884
60610W        W29015  31.479  34.444  13.048
60611W        W29016  27.669  22.655   2.732
60612W        W29017  10.401  35.240   2.123
60613W        W29018  36.313   7.167   4.064
60614W        W29019   2.918   8.928  10.268
60615W        W29020  39.822  44.660   0.331
60616W        W29021   6.185  19.607  10.367
60617W        W29022  37.760  17.076   3.307
60618W        W29023  20.125  26.504   1.161
60619W        W29024  17.100  22.388   3.528
60620W        W29025  12.345  16.836  10.691
60621W        W29026  22.926  11.679   1.282
60622W        W29027  22.513  30.021  14.844
60623W        W29028  24.174  13.826  14.962
60624W        W29029  16.106   0.530  11.876
60625W        W29030  33.539   2.157   2.409
60626W        W29031  29.509  26.388  13.950
60627W        W29032   9.265  38.480  14.964
60628W        W29033  13.152  34.586  11.132
60629W        W29034  44.035   6.300  14.928
60630W        W29035  32.087  15.211   3.615
60631W        W29036  41.613  19.616   3.627
60632W        W29037  24.004  27.690  14.800
60633W        W29038  41.306  29.662  12.988
60634W        W29039   1.150  17.580  12.097
60635W        W29040  44.935  27.957  12.507
60636W        W29041  13.692  34.888   2.723
60637W        W29042   9.843  34.748   3.427
60638W        W29043  40.836  19.263   1.205
60639W        W29044  19.501   9.899   0.821
60640W        W29045  16.735  13.962  10.973
60641W        W29046   9.302   6.461   3.790
60642W        W29047  44.556   4.733   1.223
60643W        W29048  22.450   9.800  14.985
60644W        W29049  14.845  38.232   0.674
60645W        W29050  18.944  34.689  13.456
60646W        W29051  40.356  31.396  13.583
60647W        W29052  16.087  12.874  12.541
60648W        W29053  15.986  20.436   3.875
60649W        W29054  13.928  28.109  13.017
60650W        W29055  25.674   1.040   1.134
60651W        W29056  14.733  18.240   1.425
60652W        W29057  29.737   5.758  12.116
60653W        W29058  31.571  17.303   3.066
60654W        W29059  35.618  39.043   2.657
60655W        W29060  19.961  37.480   2.859
60656W        W29061  34.565  38.439  14.826
60657W        W29062  13.130  34.366   3.189
60658W        W29063   9.114  40.990  14.934
60659W        W29064  19.153  15.176   4.433
60660W        W29065  37.373   2.295  13.530
60661W        W29066  37.969  32.946   2.444
60662W        W29067   0.417  38.345   0.204
60663W        W29068  30.821  11.741  13.210
60664W        W29069  23.713  37.364   0.332
60665W        W29070  34.605  24.827  10.553
60666W        W29071  43.070   8.173  12.991
60667W        W29072  41.068  20.174  11.746
60668W        W29073  25.845   9.130   2.637
60669W        W29074   9.005  10.148  12.949
60670W        W29075  27.705  20.960  13.820
60671W        W29076  43.923  10.706  11.556
60672W        W29077  32.503   9.146   0.689
60673W        W29078  34.932  42.744  13.870
60674W        W29079  20.602   9.345  10.535
60675W        W29080  10.276  26.453  14.456
60676W        W29081  14.790  32.409   2.653
60677W        W29082  43.535  24.950  11.994
60678W        W29083   8.806  24.621   4.660
60679W        W29084  24.066  22.251   3.570
60680W        W29085  10.610  26.818   3.649
60681W        W29086  40.192  37.314  12.029
60682W        W29087  12.859   3.844   4.569
60683W        W29088  34.016  21.553   1.290
60684W        W29089  28.774  44.271   3.753
60685W        W29090  17.617  11.362   2.410
60686W        W29091  28.874  38.678  14.309
60687W        W29092  27.691  16.199   1.703
60688W        W29093  43.078  28.982   3.184
60689W        W29094  14.694  22.543   1.194
60690W        W29095  25.022   1.793  10.655
60691W        W29096  43.806  35.062   4.125
60692W        W29097  20.343  24.623   4.092
60693W        W29098  12.567  10.269  10.782
60694W        W29099  10.683  19.174   2.375
60695W        W29100  38.656   7.428   5.057
60696W        W29101   7.564  35.955   2.792
60697W        W29102  43.037  42.729  11.592
60698W        W29103  28.549   5.485  11.118
60699W        W29104  10.831   9.611  13.989
60700W        W29105  17.453   8.205   0.437
60701W        W29106  35.806  34.305   0.424
60702W        W29107  36.998  41.974  13.723
60703W        W29108  30.164   9.944  12.988
60704W        W29109  34.649  17.841   2.688
60705W        W29110  11.263  43.937  12.883
60706W        W29111  21.966   4.653  11.892
60707W        W29112  35.492  14.325  13.793
60708W        W29113  43.050  12.075   1.593
60709W        W29114  32.860   4.900   1.962
60710W        W29115  34.356  32.258  13.578
60711W        W29116  33.027   1.128   3.397
60712W        W29117  19.759  15.670   4.221
60713W        W29118   2.533  24.521  12.637
60714W        W29119   9.020  25.799  14.861
60715W        W29120  14.201   0.697  13.784
60716W        W29121   2.287  30.683   4.703
60717W        W29122   7.320  16.086   1.485
60718W        W29123  11.902  29.178   4.110
60719W        W29124  13.166  31.089   4.521
60720W        W29125  26.431  37.132  12.859
60721W        W29126  15.635  35.840  11.016
60722W        W29127  14.707  27.071  14.148
60723W        W29128   0.981  19.217   0.767
60724W        W29129  33.330  24.046   0.299
60725W        W29130  29.335  25.105  11.892
60726W        W29131  44.750  10.879  13.540
60727W        W29132   3.296  40.590   4.535
60728W        W29133  33.153   8.714  11.011
60729W        W29134   8.202  42.106  14.475
60730W        W29135   3.924  21.942   0.395
60731W        W29136  43.266  14.946   0.430
60732W        W29137  33.003  21.040  11.119
60733W        W29138   0.358  35.632   4.253
60734W        W29139   9.448   9.960  12.800
60735W        W29140   0.707  33.146   4.163
60736W        W29141   2.744  38.535   4.672
60737W        W29142  32.364  37.421  14.315
60738W        W29143   4.425   1.395  10.902
60739W        W29144  24.943  26.956  12.675
60740W        W29145  26.597  12.417   3.126
60741W        W29146  36.043  21.787   3.183
60742W        W29147   0.758  23.143  12.100
60743W        W29148  32.466  12.880   4.584
60744W        W29149  35.153  13.163  12.528
60745W        W29150   6.448  25.665   4.147
60746W        W29151   1.195   9.102   2.462
60747W        W29152  30.697  26.614   3.666
60748W        W29153  33.373  34.532   1.835
60749W        W29154  38.401   0.942   1.061
60750W        W29155  12.263   8.848   4.829
60751W        W29156  24.172  43.036   3.572
60752W        W29157  18.464  11.238   3.328
60753W        W29158  42.337  16.249   2.846
60754W        W29159  11.470  31.630  13.365
60755W        W29160  28.490   8.414  13.292
60756W        W29161  29.544  42.422   1.882
60757W        W29162  25.723  42.922  13.944
60758W        W29163  23.240  26.266  13.747
60759W        W29164  31.709  38.044  14.029
60760W        W29165   9.734  41.535   3.372
60761W        W29166  12.780  18.048   0.848
60762W        W29167  40.831  41.061   1.729
60763W        W29168  37.882  43.520  14.801
60764W        W29169   9.321  43.669  12.096
60765W        W29170  28.979   5.258   3.406
60766W        W29171  42.792  19.759  14.818
60767W        W29172  14.337  14.098  13.004
60768W        W29173  20.147  11.137  10.774
60769W        W29174  12.270  42.889  13.903
60770W        W29175  42.403  13.816   4.642
60771W        W29176  39.263  21.689   1.887
60772W        W29177  33.607  40.286  14.377
60773W        W29178  24.039  31.423   2.741
60774W        W29179  22.545  20.823   2.095
60775W        W29180  36.899  17.709   5.079
60776W        W29181  17.993  15.057   3.765
60777W        W29182  30.199  29.700   3.686
60778W        W29183  32.987   7.451  14.239
60779W        W29184  44.443  24.346   0.376
60780W        W29185  14.245   6.822   4.490
60781W        W29186  23.134  43.786   0.656
60782W        W29187   9.654  30.963  10.009
60783W        W29188  34.570  30.112  12.433
60784W        W29189   0.481  13.779  14.665
60785W        W29190  31.246  40.507  12.978
60786W        W29191  25.036  41.868  11.180
60787W        W29192  41.659   8.196  11.062
60788W        W29193   4.341  37.983   5.136
60789W        W29194  41.525  39.141   2.907
60790W        W29195  34.844  29.450  14.503
60791W        W29196  35.460  18.459  12.907
60792W        W29197  37.291  10.207   2.880
60793W        W29198  26.724   3.938   2.269
60794W        W29199  32.051  16.558   0.218
60795W        W29200   9.227  23.862  13.413
60796W        W29201  16.631  37.000  12.042
60797W        W29202  15.111  19.980   3.683
60798W        W29203  29.481   3.487  11.504
60799W        W29204  16.835  25.731   1.774
60800W        W29205  30.718   1.229   1.903
60801W        W29206  40.357  11.815   4.033
60802W        W29207  42.891   4.990   3.631
60803W        W29208   4.408  17.247   4.538
60804W        W29209  36.336  41.463  12.295
60805W        W29210   2.199  19.666  10.659
60806W        W29211   6.982  36.235  11.215
60807W        W29212  32.728  34.489  11.385
60808W        W29213  37.337   4.789   5.072
60809W        W29214  29.676   9.394  12.542
60810W        W29215  39.439  16.762  11.650
60811W        W29216  17.736  19.686  10.724
60812W        W29217  33.530  19.406   0.368
60813W        W29218   4.966  33.356  10.162
60814W        W29219  23.746  15.361   2.425
60815W        W29220   6.217  30.334   0.440
60816W        W29221  39.407  32.038  12.480
60817W        W29222  41.369  33.595  12.887
60818W        W29223   3.747  17.934   0.766
60819W        W29224  31.868  25.409  14.916
60820W        W29225   7.161  17.427   3.066
60821W        W29226  39.129  32.492  13.057
60822W        W29227  44.588  17.081   0.531
60823W        W29228  14.020  33.512  13.319
60824W        W29229  38.061  20.228  14.243
60825W        W29230  11.189   3.843  12.481
60826W        W29231   8.837  44.364  10.638
60827W        W29232  18.700  41.381  13.939
60828W        W29233  11.932   9.122  13.519
60829W        W29234  18.880  31.996  10.978
60830W        W29235  36.831  10.748  13.520
60831W        W29236   2.339  13.673  10.913
60832W        W29237  44.387  14.743  11.509
60833W        W29238  17.603  14.316  11.975
60834W        W29239  14.378  43.888  10.041
60835W        W29240  16.278  15.993   1.672
60836W        W29241  19.681  39.527  12.377
60837W        W29242  19.938  30.915  11.163
60838W        W29243  12.091  22.166  12.137
60839W        W29244   0.976  28.494  14.519
60840W        W29245  41.065  24.029   0.971
60841W        W29246  11.790  38.618   3.241
60842W        W29247   5.769  19.236  14.960
60843W        W29248  20.008  33.453   1.324
60844W        W29249  24.653  39.263  11.975
60845W        W29250  34.598  39.277  11.875
60846W        W29251  11.609  15.664  11.041
60847W        W29252  25.589  22.621   2.849
60848W        W29253   2.939  39.963   1.350
60849W        W29254  31.141   2.927  12.795
60850W        W29255   8.048  24.638   4.233
60851W        W29256  21.528  10.863   3.669
60852W        W29257   3.661  32.908   1.905
60853W        W29258  22.810  10.272  11.198
60854W        W29259  16.293   1.471   4.016
60855W        W29260  39.156   4.866  11.599
60856W        W29261  23.733  27.147  11.744
60857W        W29262  12.695  22.284   0.429
60858W        W29263  28.662  10.299   0.017
60859W        W29264  18.702  18.754  11.541
60860W        W29265  20.740  10.186  14.613
60861W        W29266  24.456  17.104   3.689
60862W        W29267  28.341   3.838   0.426
60863W        W29268  43.126  40.801   0.138
60864W        W29269  28.021  26.056  13.746
60865W        W29270  29.402   7.623   0.670
60866W        W29271  11.611  18.693  13.508
60867W        W29272  16.189  33.798   2.715
60868W        W29273  14.159  33.356   3.298
60869W        W29274  37.799  24.510   2.685
60870W        W29275  42.598  15.083  14.963
60871W        W29276  27.458   0.024  11.111
60872W        W29277  32.067  38.984   0.297
60873W        W29278  32.768  20.738   3.238
60874W        W29279   8.151   4.903   4.575
60875W        W29280  35.010  13.553   3.903
60876W        W29281  24.995  31.497   2.723
60877W        W29282  13.050   8.121  14.904
60878W        W29283  35.042   7.230   0.733
60879W        W29284  19.634  31.428   4.717
60880W        W29285  15.731  25.971   4.072
60881W        W29286   3.673  31.003   2.052
60882W        W29287  31.995  33.964   1.947
60883W        W29288  41.767  23.720   2.815
60884W        W29289   8.284   8.305  13.426
60885W        W29290  36.028   4.220   3.470
60886W        W29291  12.227  35.130   3.405
60887W        W29292  28.024  16.482   3.589
60888W        W29293  34.854  42.505  12.428
60889W        W29294  22.536  21.247   4.762
60890W        W29295  31.600  33.448   2.785
60891W        W29296  27.190  15.119   0.786
60892W        W29297  13.617  41.315  10.706
60893W        W29298  18.206  33.924  13.818
60894W        W29299  11.359  18.852  13.933
60895W        W29300   8.017  32.892   3.887
60896W        W29301   2.275   6.479  14.293
60897W        W29302  44.503  16.247  14.742
60898W        W29303  17.467  23.751  13.193
60899W        W29304   8.973   5.382   2.421
60900W        W29305  36.071   3.160  14.322
60901W        W29306  15.640  32.114   3.293
60902W        W29307   8.217  15.725   2.732
60903W        W29308  15.396  20.701   1.305
60904W        W29309  35.431  28.585  13.391
60905W        W29310  23.227   3.784  12.933
60906W        W29311  16.014  25.176   2.793
60907W        W29312   1.428   0.292   1.209
60908W        W29313  41.229  25.546   5.067
60909W        W29314  39.003  21.047   4.506
60910W        W29315  25.855  29.627  13.421
60911W        W29316   2.011  11.379  10.716
60912W        W29317  11.264  34.479   2.772
60913W        W29318  16.535   8.415   0.447
60914W        W29319   7.627  30.241   1.861
60915W        W29320  14.060   6.854   3.228
60916W        W29321  26.164  23.752  14.491
60917W        W29322  35.681  43.340   1.547
60918W        W29323   7.848  38.513  10.809
60919W        W29324  12.443  25.621   0.335
60920W        W29325  19.046  32.189   3.611
60921W        W29326   1.363  42.135  13.012
60922W        W29327  18.250  42.513   2.660
60923W        W29328  27.458  23.765  14.360
60924W        W29329   4.891  21.582  14.497
60925W        W29330   5.950  26.843  13.553
60926W        W29331  38.660  22.263   0.782
60927W        W29332   3.226  42.390  11.899
60928W        W29333  22.504  13.767   4.852
60929W        W29334  21.907  38.158   4.186
60930W        W29335   1.869  29.180  14.080
60931W        W29336  23.266  35.055   0.861
60932W        W29337  31.675  12.056   3.670
60933W        W29338  36.386  40.474  12.918
60934W        W29339  16.279  33.055   0.811
60935W        W29340   7.223  33.862   2.456
60936W        W29341  32.036  28.908  14.786
60937W        W29342  27.704  41.829   0.268
60938W        W29343  27.474  26.226  11.096
60939W        W29344  13.331  14.786  11.170
60940W        W29345  26.238  25.555  11.110
60941W        W29346  22.003  26.125  14.046
60942W        W29347  27.355  22.115   0.012
60943W        W29348  37.508  24.405   3.090
60944W        W29349  30.415  13.154  10.910
60945W        W29350  10.675  10.164  14.284
60946W        W29351  20.557  43.123   1.866
60947W        W29352  17.659   7.592   1.351
60948W        W29353   4.294  32.658  11.074
60949W        W29354   6.149  36.062  10.989
60950W        W29355  44.368  33.574   1.107
60951W        W29356  24.521  31.326  12.838
60952W        W29357   7.152  40.467  11.940
60953W        W29358  19.224  19.042  12.853
60954W        W29359  28.826   0.306  13.344
60955W        W29360  36.773   7.329  14.848
60956W        W29361  38.565  24.100  11.203
60957W        W29362   1.369   9.437  12.483
60958W        W29363  44.771  28.622  10.574
60959W        W29364   0.098   0.280  14.469
60960W        W29365   5.390  21.038  11.480
60961W        W29366  31.759  13.224   1.926
60962W        W29367  37.014   9.207   1.150
60963W        W29368  37.155  12.127  11.599
60964W        W29369  36.545  42.756  10.480
60965W        W29370  34.327  33.487   4.138
60966W        W29371   3.718   7.993  11.254
60967W        W29372   9.354  19.855   1.293
60968W        W29373  41.224  27.511   2.209
60969W        W29374  18.337  16.416   3.340
60970W        W29375  33.024  29.410  13.310
60971W        W29376   7.107  33.972  14.122
60972W        W29377  27.414  20.147   1.327
60973W        W29378  40.271  17.332   4.466
60974W        W29379  28.930  24.680   4.798
60975W        W29380   9.229  37.464  11.571
60976W        W29381  34.731  43.380   1.009
60977W        W29382   2.279  27.222  14.783
60978W        W29383  10.282  24.762  12.020
60979W        W29384   6.110  32.443  12.090
60980W        W29385  33.096  11.866  13.500
60981W        W29386  35.014  41.783   1.650
60982W        W29387  43.017  35.841   2.612
60983W        W29388  29.560  38.367   1.772
60984W        W29389  34.386  28.989   4.586
60985W        W29390  25.588  20.284  13.916
60986W        W29391  37.371   5.798  12.812
60987W        W29392   4.359  10.724   5.026
60988W        W29393  15.747  15.921   3.670
60989W        W29394   5.366  20.797   0.283
60990W        W29395  19.069  17.797   4.078
60991W        W29396  41.924  28.643  10.434
60992W        W29397  14.501   1.239   0.024
60993W        W29398   1.732  37.826  10.939
60994W        W29399  41.265   0.489   3.652
60995W        W29400  28.472  15.105   3.142
60996W        W29401   6.879  13.144  12.925
60997W        W29402  17.596  37.240   5.012
60998W        W29403  11.841  25.641  14.785
60999W        W29404  15.315  21.482  14.494
61000W        W29405   5.331  17.311   5.020
61001W        W29406  38.363  13.523   0.508
61002W        W29407  26.075  32.666   1.271
61003W        W29408  33.982  28.138   4.699
61004W        W29409  40.001  13.622   0.999
61005W        W29410  15.584  20.276  12.584
61006W        W29411  29.673  22.573  11.901
61007W        W29412  30.681  32.663   0.040
61008W        W29413   0.787  29.886  14.478
61009W        W29414   4.958  37.630   4.138
61010W        W29415  16.044  31.153  11.586
61011W        W29416  19.611  14.644  11.614
61012W        W29417  28.036  29.682  10.611
61013W        W29418  44.427  11.955  12.356
61014W        W29419  33.532  21.586   2.682
61015W        W29420  38.933  29.021   3.301
61016W        W29421   5.674  24.595  10.655
61017W        W29422  27.497   1.791  12.449
61018W        W29423   0.119  41.148   1.396
61019W        W29424   5.716  31.967   2.842
61020W        W29425  30.910  12.657  13.603
61021W        W29426  23.607  28.191   4.264
61022W        W29427  19.983  16.608  12.840
61023W        W29428  11.409  36.797   2.309
61024W        W29429   4.412  21.081  11.012
61025W        W29430  23.903   3.213   4.098
61026W        W29431   3.769  15.246  13.323
61027W        W29432  22.078  14.251  14.860
61028W        W29433  17.585   6.312  12.170
61029W        W29434   7.607  18.648   4.542
61030W        W29435  27.513  43.223  13.879
61031W        W29436  15.368  11.957  12.937
61032W        W29437   4.861  43.052   4.248
61033W        W29438  12.235  17.871   2.879
61034W        W29439  37.859  10.515  14.323
61035W        W29440  25.447  28.794  11.935
61036W        W29441  28.887  24.277  13.331
61037W        W29442   7.394  34.438   4.168
61038W        W29443  31.220  35.542   3.746
61039W        W29444  43.248  22.660   4.097
61040W        W29445   2.153  17.199  10.030
61041W        W29446  19.103  15.071  11.160
61042W        W29447  44.878   4.354  11.182
61043W        W29448  10.167  15.764  12.827
61044W        W29449   3.349  36.798   1.892
61045W        W29450  28.727  11.352  10.535
61046W        W29451  28.228  21.477  14.320
61047W        W29452   2.259   5.389   9.748
61048W        W29453  13.809   1.440   3.701
61049W        W29454  41.340  17.799  11.195
61050W        W29455  32.998  35.667   3.767
61051W        W29456   4.014   8.883  13.261
61052W        W29457  20.286  24.149  13.137
61053W        W29458  41.888   4.129  13.920
61054W        W29459  19.825   4.917   0.743
61055W        W29460  33.578  33.917   0.370
61056W        W29461  18.963  12.388   2.977
61057W        W29462  36.067  11.767  13.964
61058W        W29463   0.361  20.164  11.456
61059W        W29464  32.306  41.023  14.918
61060W        W29465  15.198  30.521  13.494
61061W        W29466  34.566  35.212  13.878
61062W        W29467  38.382  20.291  13.819
61063W        W29468  34.959  33.469   0.847
61064W        W29469  35.792  41.098   1.939
61065W        W29470  43.934  18.290   3.180
61066W        W29471   8.366  15.221   0.890
61067W        W29472  33.411   3.381  13.964
61068W        W29473  24.502   9.943  14.882
61069W        W29474  28.722  15.343   0.312
61070W        W29475  40.986  10.718   0.737
61071W        W29476  32.881   2.289  12.826
61072W        W29477   3.845  34.612  10.515
61073W        W29478   9.674  29.693  13.436
61074W        W29479   9.486   4.972  11.572
61075W        W29480   0.816  20.527  12.240
61076W        W29481   2.727   2.954   4.885
61077W        W29482  20.068  11.475   4.355
61078W        W29483  26.167  10.659  13.996
61079W        W29484   1.489  27.623   4.087
61080W        W29485  35.539   7.772  14.867
61081W        W29486  15.447  35.296   1.487
61082W        W29487  35.579  17.998   0.265
61083W        W29488  20.191   2.960   1.847
61084W        W29489  34.905   5.333  13.879
61085W        W29490  30.748  18.421   1.722
61086W        W29491   4.257  40.939   3.205
61087W        W29492  18.607  17.586   4.199
61088W        W29493  30.403   3.847   5.048
61089W        W29494   2.755  32.011  10.820
61090W        W29495  22.583  42.680   4.701
61091W        W29496  40.457  28.929   0.718
61092W        W29497  32.353   4.833   1.120
61093W        W29498  40.830   5.723   4.662
61094W        W29499  30.501   8.296  12.664
61095W        W29500  12.891  39.452   2.875
61096W        W29501  25.377  25.445  11.369
61097W        W29502   3.780  39.584  12.626
61098W        W29503  24.504   8.939  14.844
61099W        W29504  22.160   1.679   1.269
61100W        W29505  13.321  24.399   3.179
61101W        W29506  18.578  43.737   2.411
61102W        W29507  11.807  12.126  13.821
61103W        W29508  38.534  12.644  11.639
61104W        W29509  14.208  23.293   1.738
61105W        W29510   8.559  37.130   1.279
61106W        W29511  19.545  42.449   3.134
61107W        W29512  38.529  35.111   0.701
61108W        W29513   4.285  41.386  12.474
61109W        W29514  10.842  38.385   4.122
61110W        W29515  20.796   7.927   4.197
61111W        W29516  24.556  38.047  13.872
61112W        W29517  10.138  11.716   2.225
61113W        W29518  35.237  40.873   3.820
61114W        W29519  21.081  19.656  13.436
61115W        W29520  28.866   4.249  11.568
61116W        W29521  28.182  30.537   1.446
61117W        W29522  16.608  15.771   2.751
61118W        W29523  27.677   7.423   0.358
61119W        W29524  28.653  43.407   5.084
61120W        W29525  37.229  15.853  14.681
61121W        W29526  30.695  32.343  12.060
61122W        W29527  34.603  17.527   4.605
61123W        W29528  21.022   7.268   4.157
61124W        W29529  39.902   1.471  11.564
61125W        W29530  41.777  10.231   2.426
61126W        W29531   2.971   8.705   0.504
61127W        W29532   2.426  33.555  11.135
61128W        W29533   0.280  30.572  12.519
61129W        W29534  35.632   3.727  13.752
61130W        W29535  35.953  25.666   1.950
61131W        W29536  36.629  21.757  12.041
61132W        W29537  15.108  21.624  14.982
61133W        W29538  15.771  14.544  12.991
61134W        W29539  42.968  35.413   1.316
61135W        W29540  24.137  43.030   4.515
61136W        W29541  21.080  16.075   4.131
61137W        W29542  34.981  28.000   4.843
61138W        W29543  14.209  28.532   1.964
61139W        W29544  43.300  30.341  11.123
61140W        W29545  32.911  39.555  10.870
61141W        W29546  41.578   6.414  14.425
61142W        W29547  40.244  12.049  13.487
61143W        W29548  18.275  40.857   2.816
61144W        W29549  20.649  14.387  12.371
61145W        W29550   2.521   9.259  10.376
61146W        W29551  23.874   8.140   4.495
61147W        W29552  23.062  19.644   0.373
61148W        W29553  41.627  40.386  14.835
61149W        W29554   9.807  28.027   4.569
61150W        W29555  24.454  37.111  12.860
61151W        W29556  41.466   3.222   2.740
61152W        W29557  18.993  42.929  12.792
61153W        W29558  21.968  12.303   3.866
61154W        W29559   1.759  12.165  11.253
61155W        W29560   0.048   9.414   0.199
61156W        W29561  27.259  11.864  14.901
61157W        W29562  39.241  44.392  13.529
61158W        W29563  41.299  16.119  10.917
61159W        W29564   6.383  15.684   2.375
61160W        W29565  10.519   6.226   1.394
61161W        W29566  17.141   7.908  13.468
61162W        W29567   6.289  36.013  13.806
61163W        W29568  33.520  26.050   4.200
61164W        W29569  27.149   3.978  12.657
61165W        W29570  44.925  37.710   3.845
61166W        W29571  11.186   9.226   4.292
61167W        W29572  13.147  38.551  12.821
61168W        W29573   9.168  30.133   4.144
61169W        W29574  28.209  41.989  11.907
61170W        W29575  29.179  20.980  12.507
61171W        W29576  10.111  18.798  13.062
61172W        W29577  27.613  27.463  12.441
61173W        W29578  40.573  28.888  13.459
61174W        W29579  30.912  11.264   3.209
61175W        W29580  34.150  10.173   4.526
61176W        W29581   9.430  41.043  13.568
61177W        W29582  44.448  25.239   1.139
61178W        W29583  40.448  18.606  10.715
61179W        W29584  20.054  26.923   0.257
61180W        W29585   8.258  32.502  13.410
61181W        W29586  23.007   3.690   2.422
61182W        W29587  33.136   1.728   1.708
61183W        W29588  16.944   9.734   3.606
61184W        W29589  38.410  14.851   4.935
61185W        W29590  30.116   8.376   0.562
61186W        W29591  41.795   5.929   3.591
61187W        W29592  35.719   1.837  14.854
61188W        W29593   4.467   3.662   4.106
61189W        W29594  25.654  23.959  14.362
61190W        W29595  32.470  37.025   1.434
61191W        W29596  17.314   7.373  11.420
61192W        W29597  24.792  34.129  10.750
61193W        W29598   6.316   8.139   4.081
61194W        W29599  28.434  26.924  14.425
61195W        W29600  41.501   2.505  12.665
61196W        W29601  41.739   8.145  13.406
61197W        W29602  35.917  32.465  10.680
61198W        W29603  39.751  21.049   0.092
61199W        W29604  21.450  19.679   3.288
61200W        W29605  15.898   6.761   1.835
61201W        W29606  11.178  27.731  14.492
61202W        W29607   0.918  23.761   0.920
61203W        W29608  44.588  34.739  12.105
61204W        W29609  28.493   1.345   2.012
61205W        W29610  37.948   8.779   2.834
61206W        W29611  11.421  33.632   4.081
61207W        W29612  36.399   4.670   5.090
61208W        W29613  25.024  25.816  11.535
61209W        W29614   0.961  11.200   1.066
61210W        W29615  43.624  22.001   4.786
61211W        W29616  37.418   6.094   0.958
61212W        W29617  26.501   3.691  11.307
61213W        W29618  30.885   1.915  11.011
61214W        W29619  37.460  16.757   4.391
61215W        W29620   8.965  19.874  13.942
61216W        W29621   8.511   8.790   3.154
61217W        W29622  15.822   9.919  12.071
61218W        W29623  11.089   9.405   2.023
61219W        W29624  12.298   5.959   3.262
61220W        W29625  12.244  11.246   2.324
61221W        W29626   0.913   2.247  13.917
61222W        W29627   9.486  28.136   9.895
61223W        W29628  41.310  37.320   0.745
61224W        W29629   3.456  10.198   0.718
61225W        W29630  40.530  12.263   3.745
61226W        W29631   0.589   1.506   0.393
61227W        W29632  25.317  28.579   3.215
61228W        W29633   7.628  42.577   4.888
61229W        W29634  27.725  10.917  11.948
61230W        W29635  35.050  33.084  12.115
61231W        W29636  35.316  24.107  13.002
61232W        W29637   7.646  40.615   1.423
61233W        W29638  18.790  41.586   3.530
61234W        W29639  27.682  14.181  10.099
61235W        W29640  11.194   2.310  11.646
61236W        W29641  35.275   0.339   4.582
61237W        W29642   4.332  37.466   3.899
61238W        W29643   0.369  32.617   1.264
61239W        W29644  14.798  30.328   2.229
61240W        W29645   4.948  42.427   1.386
61241W        W29646   0.905  10.238   1.468
61242W        W29647  15.764  25.885   3.454
61243W        W29648  35.652   4.368  10.631
61244W        W29649  20.735  40.595  11.383
61245W        W29650  31.003  24.724   4.150
61246W        W29651  16.038  13.206  11.274
61247W        W29652  25.933  33.062  14.319
61248W        W29653  26.549  21.020   0.153
61249W        W29654   9.605  14.593   1.523
61250W        W29655  21.611   1.453  13.072
61251W        W29656  18.350  11.111  14.747
61252W        W29657  12.893   5.029   4.977
61253W        W29658  34.045  30.922  10.695
61254W        W29659  12.790  16.347  11.214
61255W        W29660   4.786  10.371   0.425
61256W        W29661  17.887   9.091  13.103
61257W        W29662   4.229  31.602  14.541
61258W        W29663  17.717  40.366  13.647
61259W        W29664  15.571  13.406   0.716
61260W        W29665  34.412  37.770  13.011
61261W        W29666   1.892  15.360  12.854
61262W        W29667   6.203  14.341   5.037
61263W        W29668  37.379  17.573  14.910
61264W        W29669  16.874  14.281  10.593
61265W        W29670   7.693  14.117   1.188
61266W        W29671  16.925  11.315  10.704
61267W        W29672  35.983  25.095   3.583
61268W        W29673  37.635  13.064  13.958
61269W        W29674  24.741   6.540  10.847
61270W        W29675  25.974   1.808  14.307
61271W        W29676   3.926   2.777   3.297
61272W        W29677  38.097  43.307  11.600
61273W        W29678  32.340  19.768  14.044
61274W        W29679  23.945   1.338  13.346
61275W        W29680  27.668   0.709  10.633
61276W        W29681   1.695  28.628   1.702
61277W        W29682  18.708  34.459   2.457
61278W        W29683  10.700   7.397  10.554
61279W        W29684  31.143  44.476   1.167
61280W        W29685  31.057   6.894   1.310
61281W        W29686  41.551  18.508  10.693
61282W        W29687  44.417  13.295   5.055
61283W        W29688   0.221  38.177   1.439
61284W        W29689  26.165   3.282  11.139
61285W        W29690  30.054   2.794   0.960
61286W        W29691  21.317  40.309  14.539
61287W        W29692  17.127   4.010  12.859
61288W        W29693  20.747  23.373   1.811
61289W        W29694  35.894  10.302   1.093
61290W        W29695  28.216  36.370  13.004
61291W        W29696  28.783  11.347  11.866
61292W        W29697   1.496  25.917   1.562
61293W        W29698   4.169   4.239  12.871
61294W        W29699   3.354  21.094   4.013
61295W        W29700   2.516  28.915  11.562
61296W        W29701   1.285  22.211  11.978
61297W        W29702  15.082  10.606  14.767
61298W        W29703  20.679  41.045  13.360
61299W        W29704   3.169  13.530   1.959
61300W        W29705  35.421  29.874   1.470
61301W        W29706  28.441   9.590  11.854
61302W        W29707   9.149  39.074   3.209
61303W        W29708  17.109   2.255  12.050
61304W        W29709  30.713   4.779  10.744
61305W        W29710  40.589  15.574  11.151
61306W        W29711  32.437  19.083   4.645
61307W        W29712   6.739   2.937   2.538
61308W        W29713  13.634   0.797  14.649
61309W        W29714  31.906  24.663  11.424
61310W        W29715  33.133  31.917  11.899
61311W        W29716  41.412   4.703  12.015
61312W        W29717   7.347  32.067   2.110
61313W        W29718   0.201   3.692   4.220
61314W        W29719  31.405  18.245   1.314
61315W        W29720   1.240  14.332  13.631
61316W        W29721   9.363  34.828   1.448
61317W        W29722  39.577  10.768   2.725
61318W        W29723  21.738   4.731  13.797
61319W        W29724  15.103  16.363   0.307
61320W        W29725  22.920  35.059   2.834
61321W        W29726  20.247  41.355   2.313
61322W        W29727  16.734  15.548  11.188
61323W        W29728  16.189  19.616  14.947
61324W        W29729   6.955  44.192   1.813
61325W        W29730  37.028  21.757  11.043
61326W        W29731  44.353  17.750   4.493
61327W        W29732  23.038  22.498   0.909
61328W        W29733  20.758   8.501  12.474
61329W        W29734  39.478  14.992   1.399
61330W        W29735   9.813  19.716  13.531
61331W        W29736  12.215  39.854   2.865
61332W        W29737  12.567  18.063  14.939
61333W        W29738  36.368  32.966   1.470
61334W        W29739   3.870  19.233   3.366
61335W        W29740  19.514  37.433   4.682
61336W        W29741  10.381  35.616  11.448
61337W        W29742  44.462   9.708  14.367
61338W        W29743  40.922  22.208   1.509
61339W        W29744  14.726  11.649  13.964
61340W        W29745  16.069  32.116  14.455
61341W        W29746  17.723   7.483  14.866
61342W        W29747  43.212  38.555   1.204
61343W        W29748  22.539  34.304   2.297
61344W        W29749   0.664   2.345   2.142
61345W        W29750   4.774  23.650   1.990
61346W        W29751  22.540  13.029   4.060
61347W        W29752  30.394   6.857   1.690
61348W        W29753  33.619  28.897   3.341
61349W        W29754  29.907  29.100   4.272
61350W        W29755  20.252  37.828   0.433
61351W        W29756  32.511  11.950   2.094
61352W        W29757  23.066  33.940   0.375
61353W        W29758  38.290  12.784   4.173
61354W        W29759  41.396   9.253   2.669
61355W        W29760  35.506  12.053   2.294
61356W        W29761   2.685   5.217  11.702
61357W        W29762   4.450  24.037   2.001
61358W        W29763   4.209  38.137   1.034
61359W        W29764  24.437  18.679   2.266
61360W        W29765   9.724  23.812   2.737
61361W        W29766  16.528   0.373  12.823
61362W        W29767   9.472  33.146   0.850
61363W        W29768   0.479  29.622   2.759
61364W        W29769  15.162   0.757   3.342
61365W        W29770   5.344  24.786   4.649
61366W        W29771  33.534   5.008  13.362
61367W        W29772  44.851  42.001   0.427
61368W        W29773  21.111  23.069   3.865
61369W        W29774  36.395  35.968  10.663
61370W        W29775  29.725  16.270   4.526
61371W        W29776   7.896  34.581   3.355
61372W        W29777  38.004   2.643   3.266
61373W        W29778  44.305  40.826   3.696
61374W        W29779   8.334  30.807   4.085
61375W        W29780  34.019  26.682   2.288
61376W        W29781  12.134  30.073   1.905
61377W        W29782  29.453  12.363   4.473
61378W        W29783  41.314   3.798  13.541
61379W        W29784   3.948  13.129  13.286
61380W        W29785  29.065  44.974  12.144
61381W        W29786  37.604  38.964   4.818
61382W        W29787  29.511  39.404   0.447
61383W        W29788   1.957  36.530  11.595
61384W        W29789  23.218  22.372  12.098
61385W        W29790  41.733  11.792  14.323
61386W        W29791   0.541   2.285   1.363
61387W        W29792  44.249  24.775  14.877
61388W        W29793  18.059   0.109  14.585
61389W        W29794  35.819   6.118   2.533
61390W        W29795  28.145  43.897  10.679
61391W        W29796  17.824  26.927  13.320
61392W        W29797  24.802   8.312   1.255
61393W        W29798  36.310   9.435  10.791
61394W        W29799  38.588  38.522   3.714
61395W        W29800   4.759  25.960   0.665
61396W        W29801  30.448  16.338   2.274
61397W        W29802  29.723  19.561  12.549
61398W        W29803  22.033   2.153   2.738
61399W        W29804  24.381  14.822  11.631
61400W        W29805  27.714  37.351  10.166
61401W        W29806   7.835   2.900  14.996
61402W        W29807  29.844  24.114  10.999
61403W        W29808  25.510  43.305  12.518
61404W        W29809   6.769  40.117   2.215
61405W        W29810   1.839  14.875  11.448
61406W        W29811  24.000  38.800  11.841
61407W        W29812  44.774  15.547  14.226
61408W        W29813  37.628  40.903   2.387
61409W        W29814  18.285  41.374   3.598
61410W        W29815  18.013   9.737  10.369
61411W        W29816   8.181  38.910   4.023
61412W        W29817  11.404  20.078  10.671
61413W        W29818  39.961   6.276   3.830
61414W        W29819  20.789  20.261   0.182
61415W        W29820  23.460  15.229   2.814
61416W        W29821  13.024  31.341  14.631
61417W        W29822   3.415  28.829   1.416
61418W        W29823   0.980  38.821  11.169
61419W        W29824   2.640  22.643   2.786
61420W        W29825  11.358  34.557   1.186
61421W        W29826  12.941  19.674   4.073
61422W        W29827  35.330  20.566   0.793
61423W        W29828  29.561  13.770   3.801
61424W        W29829   2.817  26.842  12.137
61425W        W29830   7.134   7.324   1.992
61426W        W29831   1.825  31.883  10.730
61427W        W29832  26.512  15.532   0.342
61428W        W29833  35.380   0.718  10.551
61429W        W29834  36.235  22.309  11.417
61430W        W29835  27.823   8.865  11.452
61431W        W29836  24.042  14.853  13.301
61432W        W29837  34.579  10.356   4.784
61433W        W29838  23.272  38.137  12.032
61434W        W29839  36.626  35.675   4.442
61435W        W29840  38.572  34.592  14.272
61436W        W29841  29.193  24.556  14.295
61437W        W29842  22.417   4.768   4.510
61438W        W29843  21.157  19.947   4.973
61439W        W29844   4.396   0.746   2.177
61440W        W29845  44.896   8.431  10.724
61441W        W29846  15.568  12.104   0.216
61442W        W29847  31.391   0.413   3.054
61443W        W29848  14.399  37.620  10.665
61444W        W29849  14.638   7.699  11.505
61445W        W29850  16.487  26.117   1.636
61446W        W29851  33.322  43.846   1.532
61447W        W29852  15.452  25.020   3.729
61448W        W29853  34.976   9.947   1.939
61449W        W29854  19.226  35.852  12.856
61450W        W29855  22.124  41.241   1.470
61451W        W29856  10.392   8.168   0.794
61452W        W29857  39.404   1.530   4.593
61453W        W29858  19.172  12.279  13.158
61454W        W29859  20.822  29.967   0.741
61455W        W29860  21.246  14.242  12.921
61456W        W29861  22.566   2.977  11.721
61457W        W29862  37.304  27.377   2.341
61458W        W29863  20.816  42.952   2.304
61459W        W29864  37.560  44.308  13.985
61460W        W29865  19.282  11.157  14.014
61461W        W29866  11.385   7.908  12.537
61462W        W29867  32.529   2.871  13.314
61463W        W29868  27.818  42.907   1.167
61464W        W29869  22.115  11.559   4.175
61465W        W29870  10.950  15.804   9.758
61466W        W29871  16.229  34.534  13.464
61467W        W29872   7.466   4.989  13.062
61468W        W29873  13.219  16.223   0.852
61469W        W29874  11.161  11.320  13.826
61470W        W29875  17.769  41.444   0.715
61471W        W29876  29.585  13.760   2.830
61472W        W29877   7.722   5.453   0.741
61473W        W29878  21.284   5.962  12.973
61474W        W29879  32.146  42.548  12.035
61475W        W29880   0.163   2.471  14.495
61476W        W29881   3.912   2.953  11.811
61477W        W29882  13.760   6.016   1.826
61478W        W29883  41.626  37.493   0.364
61479W        W29884   6.529   4.663   4.802
61480W        W29885  22.579   3.482  11.902
61481W        W29886  13.894   6.247  14.126
61482W        W29887   1.939  20.413   3.511
61483W        W29888  21.115  13.163  12.913
61484W        W29889  36.375  38.649  12.879
61485W        W29890  41.629  36.040   4.101
61486W        W29891   7.365  10.608   3.904
61487W        W29892  34.847  22.690   4.575
61488W        W29893   7.937  11.875  13.360
61489W        W29894  19.056  20.310   1.710
61490W        W29895  11.125  39.579  10.756
61491W        W29896  14.608  12.699   1.107
61492W        W29897  19.957  44.822  11.031
61493W        W29898   9.149  28.007   1.940
61494W        W29899  33.962  35.855  13.067
61495W        W29900  21.617   3.409  12.053
61496W        W29901  12.819  20.613  10.687
61497W        W29902  42.211  44.797   3.158
61498W        W29903   1.854  18.760   2.793
61499W        W29904  44.765  19.725  12.971
61500W        W29905  24.956  24.883   0.476
61501W        W29906  18.905  31.457   2.210
61502W        W29907  40.104  43.953  13.473
61503W        W29908  17.458  16.811   0.613
61504W        W29909  25.118  22.886  12.755
61505W        W29910  23.168   7.283  12.204
61506W        W29911  39.338   3.001   0.957
61507W        W29912   8.180   3.955  10.808
61508W        W29913  11.625  37.683  12.466
61509W        W29914  28.133  40.588  14.557
61510W        W29915   3.238   5.343  13.429
61511W        W29916  26.624   9.005  11.814
61512W        W29917  35.094  40.379  12.458
61513W        W29918  41.141  40.053  12.074
61514W        W29919  27.056   8.224   3.690
61515W        W29920  33.114  21.819  10.873
61516W        W29921  35.828  25.710   0.366
61517W        W29922  25.052  23.969   1.237
61518W        W29923  16.805  40.010   2.296
61519W        W29924  15.118   5.933  12.406
61520W        W29925  23.954  28.131  12.871
61521W        W29926   0.705   6.210  11.188
61522W        W29927  20.836   0.301  13.894
61523W        W29928  39.445  44.970   2.800
61524W        W29929  21.536  40.801  12.810
61525W        W29930   4.217  20.090  12.004
61526W        W29931   5.786  30.017  13.948
61527W        W29932   1.351  16.723   3.688
61528W        W29933  40.744  27.160  14.971
61529W        W29934  23.151  28.934   4.015
61530W        W29935  41.684   2.825  14.595
61531W        W29936  28.547  20.122   1.834
61532W        W29937   9.911  34.838  14.522
61533W        W29938  14.808   7.150  14.391
61534W        W29939  21.706  22.071   3.245
61535W        W29940  20.195  10.069   4.428
61536W        W29941  32.835  36.832   4.698
61537W        W29942  27.135  11.148  14.681
61538W        W29943  43.751  37.859  11.727
61539W        W29944  44.549  25.467  12.002
61540W        W29945   0.092   7.123   4.155
61541W        W29946  25.244  44.470   2.432
61542W        W29947  11.948  33.599   3.224
61543W        W29948  41.378   4.731   1.954
61544W        W29949  18.976  32.547  14.796
61545W        W29950  13.079   4.265  13.048
61546W        W29951  32.576   5.696  14.581
61547W        W29952   1.448  26.913  13.348
61548W        W29953  44.383  23.793   2.144
61549W        W29954  15.706  41.563  14.430
61550W        W29955  26.235  40.811   1.465
61551W        W29956  26.220  44.272  14.813
61552W        W29957   6.363  39.418   1.851
61553W        W29958  36.385  13.371   4.747
61554W        W29959  17.102  21.066  12.957
61555W        W29960   5.714  24.431   2.898
61556W        W29961   8.094  16.617  14.526
61557W        W29962   5.365  12.097   3.815
61558W        W29963  23.464  10.832  12.206
61559W        W29964   0.650  39.189   2.866
61560W        W29965  37.016  41.064  11.786
61561W        W29966  32.221  34.506   4.440
61562W        W29967   9.935  15.725  12.365
61563W        W29968  41.249  27.245  14.848
61564W        W29969  10.295  24.695  13.961
61565W        W29970  21.134  38.106   2.359
61566W        W29971   3.203  43.154  13.483
61567W        W29972  34.312  43.195   1.428
61568W        W29973  16.050  18.790   2.679
61569W        W29974  32.956  18.046  13.351
61570W        W29975  15.628  12.864   3.181
61571W        W29976   0.542  36.168   0.029
61572W        W29977  12.269   9.311  12.619
61573W        W29978  28.411  42.905   0.793
61574W        W29979   5.814   2.941   0.886
61575W        W29980  16.003  43.491   3.232
61576W        W29981  44.766  42.824   1.795
61577W        W29982  28.391   7.413  13.356
61578W        W29983  40.983  43.193   4.103
61579W        W29984   2.970   0.236   0.015
61580W        W29985  24.511  43.370   4.334
61581W        W29986  23.721   5.656   1.745
61582W        W29987  25.760  34.364   4.545
61583W        W29988  44.003  31.859   4.633
61584W        W29989  38.597  16.170  10.313
61585W        W29990   7.890  29.377  12.193
61586W        W29991  37.529  25.088   3.604
61587W        W29992  15.661  18.736  11.725
61588W        W29993  19.517   8.182  14.783
61589W        W29994  41.488  14.848  10.851
61590W        W29995   1.769  24.100  12.046
61591W        W29996  30.273  27.592  10.715
61592W        W29997   8.663  33.491   0.220
61593W        W29998  22.099   0.069  13.543
61594W        W29999  31.113  12.446  11.560
61595W        W30000  29.905  18.661  14.062
61596W        W30001   3.704  35.027   1.758
61597W        W30002  24.066   5.188  13.857
61598W        W30003  38.413  20.460  14.968
61599W        W30004  21.075  43.293   3.207
61600W        W30005  29.516   7.926  14.366
61601W        W30006  13.929   2.094   0.921
61602W        W30007  26.135  26.728  12.384
61603W        W30008  32.447  33.845  14.319
61604W        W30009  38.467   0.208  13.859
61605W        W30010  23.565  13.158  14.991
61606W        W30011  26.010  39.500  11.177
61607W        W30012  18.623  22.719   2.162
61608W        W30013  43.951   9.951  12.072
61609W        W30014   6.205   7.935  13.039
61610W        W30015  43.374  13.603   3.612
61611W        W30016  39.973   8.884  11.191
61612W        W30017  23.674   9.414  12.157
61613W        W30018   9.835  34.861  13.183
61614W        W30019  25.157  41.966   4.616
61615W        W30020  24.622  10.840   1.533
61616W        W30021  33.023  18.535  14.047
61617W        W30022  37.722  18.574   2.845
61618W        W30023  33.338  10.316  14.897
61619W        W30024  18.917  38.507  11.584
61620W        W30025  25.936  32.361   0.878
61621W        W30026  20.174  23.887   9.926
61622W        W30027  33.395  24.217  14.398
61623W        W30028  44.825  12.122  12.867
61624W        W30029  36.117   7.099   2.786
61625W        W30030  16.694   1.097   0.780
61626W        W30031  17.816  15.237  13.464
61627W        W30032  18.262  13.388   4.346
61628W        W30033   4.317  16.651   4.461
61629W        W30034  28.714  15.333   1.264
61630W        W30035  38.548  12.660   3.754
61631W        W30036   2.723  10.258  10.411
61632W        W30037   0.363   3.180   3.694
61633W        W30038  24.575  18.879   4.515
61634W        W30039   8.213   8.959  13.040
61635W        W30040   1.327  39.582   3.295
61636W        W30041  12.224   8.608  14.368
61637W        W30042  13.140  36.502  13.961
61638W        W30043  14.682  39.610  11.620
61639W        W30044  33.593  39.429   2.123
61640W        W30045  20.343  43.319  14.979
61641W        W30046  15.342  31.084   5.029
61642W        W30047  37.497  30.652   1.967
61643W        W30048  21.430  23.515  12.692
61644W        W30049  13.034  20.578   1.886
61645W        W30050   8.247  28.591  12.505
61646W        W30051  25.095  29.103  12.170
61647W        W30052  21.538  13.549   4.681
61648W        W30053  11.699   4.394   0.910
61649W        W30054   7.400  38.346   0.124
61650W        W30055   7.212  39.135   0.864
61651W        W30056   6.227  44.082  12.454
61652W        W30057  38.621  33.033   1.310
61653W        W30058  26.596   8.267  10.927
61654W        W30059  25.062  18.734  13.844
61655W        W30060  34.943  18.856   3.034
61656W        W30061  15.542  44.436   1.432
61657W        W30062  12.474  42.539  12.387
61658W        W30063  17.583  37.386   0.657
61659W        W30064  17.312   3.407  12.024
61660W        W30065  29.631  15.071  14.212
61661W        W30066  33.077  19.718  12.149
61662W        W30067  19.231  17.864   0.790
61663W        W30068  22.153   6.637   2.935
61664W        W30069  31.246  34.568  10.755
61665W        W30070  42.493   7.398  13.340
61666W        W30071  30.103  17.986   2.231
61667W        W30072  36.792  32.094  12.010
61668W        W30073  33.382  18.142   4.584
61669W        W30074   0.180  35.857  14.120
61670W        W30075  23.504  31.445   2.750
61671W        W30076  24.324  12.068   3.346
61672W        W30077   2.916  39.566  12.529
61673W        W30078  39.869  13.746  12.983
61674W        W30079  15.591  14.132  14.832
61675W        W30080  10.113   5.034   3.598
61676W        W30081  30.396  42.104   1.526
61677W        W30082  15.211   2.745   0.369
61678W        W30083   9.187  42.927   4.032
61679W        W30084  42.321  27.999   0.834
61680W        W30085  44.735   1.790  12.123
61681W        W30086  18.483  27.957  12.464
61682W        W30087  17.057  13.705   0.465
61683W        W30088  37.886  13.653   3.279
61684W        W30089   2.916  20.935  10.851
61685W        W30090  36.435   1.888   4.509
61686W        W30091  24.443  24.265   0.008
61687W        W30092  34.238  43.673   1.270
61688W        W30093  34.177   7.825  12.987
61689W        W30094   7.728   2.701   0.477
61690W        W30095  40.881  33.172  14.256
61691W        W30096  26.942  10.292   2.777
61692W        W30097   0.129  12.201   4.657
61693W        W30098   4.724  40.270  12.898
61694W        W30099  24.512  40.387  11.099
61695W        W30100  24.181  37.589  14.509
61696W        W30101  20.736  26.104   2.517
61697W        W30102  22.930  14.680   0.939
61698W        W30103  25.686  35.354  10.734
61699W        W30104   9.679  18.785   0.322
61700W        W30105  24.604  15.110  12.075
61701W        W30106  36.755  43.264  14.929
61702W        W30107  22.576  12.024   1.491
61703W        W30108   8.223  25.543   3.821
61704W        W30109  18.581  36.589   1.768
61705W        W30110   6.220  32.003   4.120
61706W        W30111  17.588  29.176   2.687
61707W        W30112  35.147  35.191  10.679
61708W        W30113  11.390  30.581   3.301
61709W        W30114  27.561  13.665   1.221
61710W        W30115  40.964   0.696   1.747
61711W        W30116  12.773   9.603   4.331
61712W        W30117   7.736   0.052  14.534
61713W        W30118  39.496  34.046   1.217
61714W        W30119   7.950  18.193  13.599
61715W        W30120   7.882  18.565   4.059
61716W        W30121   7.904  27.191   2.827
61717W        W30122  26.933   2.261  10.600
61718W        W30123  21.314   7.709   4.177
61719W        W30124  37.196   1.009  13.540
61720W        W30125  21.790  10.389   3.587
61721W        W30126   0.795   2.255   3.053
61722W        W30127  34.541  16.603   1.289
61723W        W30128  35.489  43.290  14.406
61724W        W30129  20.210  43.835  14.849
61725W        W30130  11.379  34.103  13.794
61726W        W30131  36.387  20.114   2.383
61727W        W30132  12.364   5.092   0.369
61728W        W30133  16.683   8.432  13.928
61729W        W30134  18.142  33.622  11.159
61730W        W30135  32.389  38.063   3.363
61731W        W30136  31.571  15.665  10.011
61732W        W30137  15.294   1.656  10.672
61733W        W30138  35.470  37.047   3.309
61734W        W30139  33.632  38.037  12.049
61735W        W30140  30.103   8.837   3.837
61736W        W30141  35.054  22.058   2.405
61737W        W30142  12.586   7.320   2.277
61738W        W30143  38.900  21.253   3.685
61739W        W30144  31.458  38.384  14.288
61740W        W30145  21.201  34.769   4.618
61741W        W30146  15.356   2.805  11.547
61742W        W30147  42.152  20.360   1.780
61743W        W30148  28.427  37.655  11.487
61744W        W30149   6.141  24.220   1.800
61745W        W30150  44.918   7.247   5.064
61746W        W30151  42.148   7.813  11.529
61747W        W30152  13.242  37.589   4.029
61748W        W30153   2.614  35.849  13.592
61749W        W30154  24.764  43.914  14.239
61750W        W30155   6.908  13.708  10.708
61751W        W30156  33.125  15.699   4.490
61752W        W30157   7.241  43.513   3.190
61753W        W30158   2.747  30.752  11.677
61754W        W30159  44.352  21.301   3.766
61755W        W30160  40.968  35.537  13.349
61756W        W30161  20.871  33.451   0.718
61757W        W30162   0.809  43.989   1.489
61758W        W30163  15.036  10.885  11.566
61759W        W30164  43.510  15.676   1.993
61760W        W30165  21.563  40.122  10.915
61761W        W30166  37.582  12.193  10.454
61762W        W30167  35.669   7.798   1.297
61763W        W30168  35.981  35.609  11.026
61764W        W30169  29.020   3.879  14.972
61765W        W30170  41.980  32.482   3.233
61766W        W30171   4.162  42.783   0.800
61767W        W30172   5.363  28.059   1.415
61768W        W30173  37.039  22.166   4.443
61769W        W30174  22.842  18.407  14.375
61770W        W30175  25.206  19.950  13.890
61771W        W30176   6.925  29.571  11.892
61772W        W30177   4.320   9.080  14.493
61773W        W30178  36.459   5.991   1.125
61774W        W30179  22.681  30.581   0.979
61775W        W30180   2.357  27.621  11.973
61776W        W30181   1.461  29.026  10.753
61777W        W30182  31.138  28.905  10.695
61778W        W30183   6.764  26.686  11.989
61779W        W30184   0.593   3.384   4.118
61780W        W30185  29.975   7.188   4.829
61781W        W30186  36.115  17.540   2.614
61782W        W30187  39.870  27.965   3.202
61783W        W30188  26.597  43.005   0.213
61784W        W30189  12.462  13.269   4.465
61785W        W30190   8.212  17.052  14.813
61786W        W30191  25.490  21.826   1.352
61787W        W30192  18.183  10.660  11.666
61788W        W30193  12.306  31.479  12.516
61789W        W30194  26.380  36.046   0.812
61790W        W30195  27.490  21.234  11.633
61791W        W30196  26.652  30.432  12.598
61792W        W30197  40.955  13.293  11.186
61793W        W30198  38.897  36.723  12.929
61794W        W30199  12.642  36.508   1.879
61795W        W30200  16.297  42.970  12.962
61796W        W30201  23.287  21.235  14.540
61797W        W30202  42.244  34.029  10.685
61798W        W30203  18.262  29.431   4.086
61799W        W30204  11.613  44.246   2.953
61800W        W30205  17.470  28.735  10.758
61801W        W30206  38.539   4.480   1.747
61802W        W30207  14.140  24.276  13.825
61803W        W30208  36.644  25.103  14.571
61804W        W30209  20.214  23.273  11.463
61805W        W30210  20.272  10.595   4.522
61806W        W30211  33.998  15.049  12.981
61807W        W30212  30.754  30.882   0.468
61808W        W30213  36.379  37.766  11.693
61809W        W30214   2.949  36.760  13.181
61810W        W30215  13.092  43.808  12.911
61811W        W30216  30.461  38.379   2.874
61812W        W30217  34.558  44.441  13.579
61813W        W30218  32.661  40.442   1.252
61814W        W30219  11.098  21.046   0.824
61815W        W30220  36.787  34.134  14.704
61816W        W30221  23.717   8.247  10.812
61817W        W30222  44.527  24.140   0.851
61818W        W30223  37.035  24.006  13.859
61819W        W30224   9.232  40.026  12.578
61820W        W30225  16.661  37.345   2.221
61821W        W30226   0.243  15.956   3.374
61822W        W30227  31.657  17.314   0.633
61823W        W30228  19.482  19.286  11.640
61824W        W30229   9.325   2.510   1.718
61825W        W30230  22.280  29.920  13.550
61826W        W30231  16.980   5.384  12.084
61827W        W30232   5.930  27.736  13.895
61828W        W30233  42.517  16.593  14.489
61829W        W30234  27.932  29.297   4.827
61830W        W30235   9.367  30.596   1.282
61831W        W30236  19.555  28.024  14.370
61832W        W30237  26.174  36.354   1.275
61833W        W30238  12.143  36.050  10.506
61834W        W30239   0.330  36.891  10.614
61835W        W30240  14.339  17.157  12.637
61836W        W30241   3.929   8.196  14.103
61837W        W30242  31.610  21.993   0.371
61838W        W30243  19.758  44.455   3.671
61839W        W30244  24.249  15.163  12.942
61840W        W30245  44.324   3.000   1.220
61841W        W30246  24.682  35.192  11.083
61842W        W30247  28.527  43.429   4.595
61843W        W30248  17.529  33.990   3.627
61844W        W30249  26.143  18.783   2.961
61845W        W30250  31.663  14.780   1.904
61846W        W30251   0.016   6.966   0.754
61847W        W30252   4.612  19.631   3.719
61848W        W30253  41.774  21.066  13.965
61849W        W30254  24.187  28.641  11.866
61850W        W30255  11.326  32.937  11.672
61851W        W30256  38.189   7.293  14.373
61852W        W30257  30.906   0.421   3.283
61853W        W30258   9.674  31.940   1.397
61854W        W30259   0.346  38.344   2.693
61855W        W30260  24.522  39.062  14.279
61856W        W30261   3.735  17.897  10.309
61857W        W30262  24.286  19.285   0.523
61858W        W30263  27.926  20.840   1.789
61859W        W30264   2.505   5.174  13.893
61860W        W30265  36.273   0.471   2.246
61861W        W30266  16.039  21.511  11.609
61862W        W30267  27.505  11.402   3.190
61863W        W30268  29.219  30.598   1.866
61864W        W30269  36.540   7.872  13.392
61865W        W30270  10.883   7.731  11.619
61866W        W30271   7.901  16.961   0.349
61867W        W30272  29.155   4.787  13.836
61868W        W30273  39.137  20.600  13.474
61869W        W30274  29.059  17.818   2.245
61870W        W30275  35.348   1.495  12.920
61871W        W30276  22.412  39.940  10.314
61872W        W30277  42.355  17.364  13.874
61873W        W30278  42.306  10.208   1.652
61874W        W30279   8.771  43.261  14.894
61875W        W30280  41.342  17.636  11.737
61876W        W30281  16.511  16.502  14.743
61877W        W30282  28.197  36.935  14.967
61878W        W30283   8.013   3.882  14.394
61879W        W30284  12.894   6.133   3.735
61880W        W30285  11.325  32.081  13.614
61881W        W30286   2.870   0.485  10.461
61882W        W30287  38.473  30.628  13.349
61883W        W30288  39.375  44.330  14.469
61884W        W30289   6.352  34.807   4.143
61885W        W30290  18.653   4.230  14.255
61886W        W30291  14.722  42.037  12.594
61887W        W30292   2.528   2.432  12.546
61888W        W30293  29.817  39.966   3.740
61889W        W30294  10.752  26.104  11.317
61890W        W30295  10.871  38.962   1.391
61891W        W30296  18.922  43.451   0.944
61892W        W30297   3.357   9.705  10.508
61893W        W30298  15.178  12.753   2.924
61894W        W30299  34.306  22.063   0.028
61895W        W30300  14.801  26.020   3.728
61896W        W30301  11.298   2.496   0.791
61897W        W30302  13.804  43.287  14.472
61898W        W30303  15.150  30.007   1.642
61899W        W30304  11.802  42.882  12.100
61900W        W30305  42.021  38.199   1.912
61901W        W30306  43.291  26.711   3.860
61902W        W30307  18.536   8.303  12.935
61903W        W30308  32.256   4.669  13.033
61904W        W30309  44.738  39.209  12.397
61905W        W30310  23.727   4.901  13.417
61906W        W30311  42.196  11.677   3.377
61907W        W30312  22.565  31.242  14.050
61908W        W30313  36.159  16.674  14.409
61909W        W30314  26.140  33.862   4.189
61910W        W30315   4.356   9.550  10.581
61911W        W30316  34.605  42.220  11.651
61912W        W30317   8.477   4.190   3.084
61913W        W30318  11.364  24.119  13.010
61914W        W30319  17.529  28.252   4.061
61915W        W30320  26.654  28.092   2.353
61916W        W30321  30.604   8.334   1.434
61917W        W30322  30.364  31.706   0.853
61918W        W30323  44.113  33.314   4.134
61919W        W30324  18.823   1.713  12.573
61920W        W30325  42.280   2.270   4.528
61921W        W30326  28.847  25.836   1.796
61922W        W30327  19.509   8.989  13.071
61923W        W30328  15.559  30.947  10.329
61924W        W30329  15.172   0.288   3.593
61925W        W30330  34.160   5.471   2.683
61926W        W30331  22.049  37.140   1.745
61927W        W30332  30.907   1.044  13.669
61928W        W30333  36.901   2.391  14.998
61929W        W30334  26.849  38.888   4.931
61930W        W30335  41.810  21.286  13.105
61931W        W30336  39.456  33.671   0.738
61932W        W30337  16.071   1.897  14.021
61933W        W30338  29.564  19.149   0.347
61934W        W30339  36.889   9.878  14.758
61935W        W30340  40.945  33.587   1.000
61936W        W30341  40.845  16.104  12.166
61937W        W30342  42.852   4.705  10.701
61938W        W30343  22.006  27.268   1.464
61939W        W30344  37.975  36.595   0.351
61940W        W30345  19.396  33.004  12.853
61941W        W30346  10.390  40.917  14.520
61942W        W30347  12.182   1.551   0.362
61943W        W30348  42.948   2.835   1.937
61944W        W30349  19.566  30.733  11.561
61945W        W30350  10.865   8.251   3.163
61946W        W30351  40.520  38.874  14.484
61947W        W30352  11.601  15.518   1.178
61948W        W30353  42.628  28.557   2.481
61949W        W30354  22.048  42.282  10.674
61950W        W30355   0.565  16.794   4.822
61951W        W30356  22.973  12.110   0.444
61952W        W30357  31.848  20.676   4.765
61953W        W30358   3.396  43.416  11.107
61954W        W30359  12.887  16.042   1.278
61955W        W30360  30.082  27.429   4.156
61956W        W30361  23.478  35.506   4.695
61957W        W30362  43.572  35.373   1.862
61958W        W30363  40.856  15.305   3.706
61959W        W30364  20.715   7.228   3.682
61960W        W30365  37.375  12.384  13.344
61961W        W30366  12.117  32.537   0.720
61962W        W30367  19.484   7.377   0.420
61963W        W30368  44.253  39.413  12.444
61964W        W30369  30.807   3.324   0.667
61965W        W30370   0.244  36.410   2.401
61966W        W30371  23.062  19.524   3.632
61967W        W30372  18.700   6.716   4.764
61968W        W30373  31.682  43.559  14.820
61969W        W30374  17.117   1.691  11.934
61970W        W30375  11.258  23.569   4.355
61971W        W30376  12.464  42.663  13.004
61972W        W30377  42.497  17.508  14.365
61973W        W30378  30.386  34.014   2.190
61974W        W30379  39.970  34.175   4.156
61975W        W30380  14.779  13.738   4.749
61976W        W30381   7.570  23.639   0.469
61977W        W30382  32.268  26.384   4.411
61978W        W30383  20.292  20.530  10.555
61979W        W30384  20.266  32.606   0.981
61980W        W30385  37.430   9.027   4.771
61981W        W30386  24.191  15.300  11.820
61982W        W30387   6.057  13.770  14.857
61983W        W30388  13.171  44.379  13.522
61984W        W30389  11.759  23.046   1.727
61985W        W30390  20.968   8.139  13.485
61986W        W30391  22.227  36.022  11.681
61987W        W30392  41.906  30.367  12.932
61988W        W30393  17.620  14.201  11.102
61989W        W30394  28.919  21.769   4.441
61990W        W30395   3.348  33.377   1.838
61991W        W30396  28.663  21.324   1.980
61992W        W30397  11.408  35.079   3.781
61993W        W30398  14.016   1.198  11.575
61994W        W30399   5.952   1.072  10.980
61995W        W30400  22.793  42.773  13.544
61996W        W30401  16.687  39.571   2.583
61997W        W30402   9.308  30.815   2.873
61998W        W30403  20.815  23.030   3.371
61999W        W30404  41.903  27.138   4.273
62000W        W30405  14.854  20.193  11.041
62001W        W30406  42.866  30.273  10.778
62002W        W30407  22.085  32.288   0.272
62003W        W30408  21.647  11.325   4.173
62004W        W30409   2.433  40.057   2.861
62005W        W30410  26.911  26.638  14.357
62006W        W30411  28.895  19.092  12.426
62007W        W30412  29.364  37.084  10.498
62008W        W30413  44.955  19.263   0.900
62009W        W30414  10.517  22.989   4.508
62010W        W30415  24.054   1.964   0.855
62011W        W30416   8.858   3.949   0.914
62012W        W30417  18.219   0.474   3.751
62013W        W30418  25.528   7.162   3.192
62014W        W30419  14.486  10.777   3.340
62015W        W30420  41.380   8.200   4.859
62016W        W30421  29.439  28.480   3.229
62017W        W30422  19.542  36.406   1.712
62018W        W30423   1.473  34.498   2.369
62019W        W30424  30.958  26.959  12.606
62020W        W30425  23.352  28.612   0.942
62021W        W30426   4.101  23.829   0.863
62022W        W30427   6.665  17.325   0.367
62023W        W30428  41.438   7.004   3.246
62024W        W30429   5.759  31.613   1.896
62025W        W30430  16.729   0.006   1.407
62026W        W30431  10.234  23.808   0.708
62027W        W30432  36.510   3.029   1.287
62028W        W30433  33.481   4.495  11.473
62029W        W30434  12.914  10.476  11.595
62030W        W30435  40.836   0.627  12.389
62031W        W30436  44.303  31.858  12.174
62032W        W30437  27.175   4.675   9.977
62033W        W30438  27.540  12.409   0.949
62034W        W30439  37.970   7.727   4.488
62035W        W30440  21.927  36.076   0.448
62036W        W30441  12.113  18.048  12.039
62037W        W30442  15.334   4.941  12.640
62038W        W30443   4.923   7.271   4.818
62039W        W30444  28.266  42.467  13.283
62040W        W30445   0.760  31.607   2.322
62041W        W30446  14.751  22.204  14.343
62042W        W30447   9.813  24.560   3.901
62043W        W30448  29.050   8.747  10.961
62044W        W30449   9.984  23.874   1.416
62045W        W30450  41.730  15.350   0.906
62046W        W30451   1.933   2.164  11.960
62047W        W30452  40.450   4.247   0.723
62048W        W30453  36.389  36.135  11.737
62049W        W30454  13.291  15.706  11.668
62050W        W30455  10.972  20.132   4.139
62051W        W30456  28.978  36.955  12.836
62052W        W30457  21.431  36.725  11.922
62053W        W30458  23.258  24.729  10.559
62054W        W30459  27.486  13.727  14.385
62055W        W30460  22.667  35.336  14.381
62056W        W30461  31.696  25.926  13.441
62057W        W30462  30.631  38.119  12.474
62058W        W30463  31.865  40.866  13.407
62059W        W30464   8.312  20.538   0.920
62060W        W30465  25.194   4.408  13.449
62061W        W30466  29.053  12.181  11.702
62062W        W30467  43.985  33.883   1.401
62063W        W30468  31.772  24.938   1.716
62064W        W30469  38.905   5.239   0.035
62065W        W30470   0.152  33.675   2.365
62066W        W30471   0.801  37.935  13.369
62067W        W30472  32.480  21.016   2.873
62068W        W30473  44.875  12.349  13.333
62069W        W30474   1.644  15.264  11.193
62070W        W30475  11.478  42.476   0.071
62071W        W30476  22.092   3.634  12.048
62072W        W30477  31.011  28.691   4.575
62073W        W30478  25.558  13.875  10.614
62074W        W30479   9.276  36.198   2.708
62075W        W30480  31.883  22.504   2.404
62076W        W30481  32.640  21.836   0.542
62077W        W30482  35.772  42.437   0.915
62078W        W30483   1.194  33.076   2.725
62079W        W30484   4.153  35.170   4.906
62080W        W30485  27.642   0.817   1.358
62081W        W30486  34.555  35.537   0.047
62082W        W30487  33.507  16.279  11.713
62083W        W30488  19.212  38.977  14.339
62084W        W30489  37.386  10.842  12.058
62085W        W30490   4.814   8.383   1.866
62086W        W30491  39.462  38.327   2.636
62087W        W30492  34.074  40.852  13.845
62088W        W30493  33.510  18.955  10.790
62089W        W30494  11.790  31.433  11.472
62090W        W30495  29.628  36.094   3.150
62091W        W30496  27.730  21.765   2.698
62092W        W30497  29.092  12.893  10.996
62093W        W30498  13.494  25.116   1.734
62094W        W30499  13.758   3.382  13.063
62095W        W30500  40.606   9.706   3.057
62096W        W30501   6.750  38.545  12.986
62097W        W30502  31.046  32.726  11.858
62098W        W30503  37.025  28.066   4.662
62099W        W30504  30.177  36.314   3.556
62100W        W30505  26.650   9.397   1.455
62101W        W30506  37.115   3.207   3.548
62102W        W30507  29.245  17.542  13.870
62103W        W30508  33.601  33.033  10.375
62104W        W30509  26.509  16.035  14.015
62105W        W30510   4.624  27.626  12.326
62106W        W30511  34.349   3.187  12.124
62107W        W30512   6.338  22.641  13.790
62108W        W30513  24.908  20.249   3.789
62109W        W30514  38.941  16.532   1.294
62110W        W30515  17.364  38.477  11.590
62111W        W30516  19.508  16.238   0.346
62112W        W30517   2.928   6.622  12.656
62113W        W30518   2.797  22.769  11.224
62114W        W30519  35.100  28.655  12.438
62115W        W30520  34.119  34.913   3.951
62116W        W30521  37.466  15.092  13.954
62117W        W30522  40.105  43.267   4.111
62118W        W30523  41.949  44.924  11.382
62119W        W30524   9.274   7.834   4.326
62120W        W30525   4.682  27.363   3.953
62121W        W30526   9.659  15.084  11.234
62122W        W30527  35.593  34.654   0.775
62123W        W30528  18.352  31.098  12.639
62124W        W30529  32.655  43.698   1.785
62125W        W30530  17.294  25.955  11.877
62126W        W30531  25.380  43.396  10.639
62127W        W30532   3.228   9.848   4.416
62128W        W30533  31.003   2.251   0.962
62129W        W30534  32.458   7.178  11.534
62130W        W30535  31.706  25.565   1.025
62131W        W30536   8.399  25.576   0.377
62132W        W30537  35.332   5.769  12.547
62133W        W30538   5.753  43.274  11.165
62134W        W30539  36.365  30.079  14.908
62135W        W30540   5.507   9.201   0.879
62136W        W30541  11.860   5.655  13.921
62137W        W30542  11.946  15.599  12.390
62138W        W30543  13.730   5.879   4.051
62139W        W30544  10.112  14.371  10.890
62140W        W30545  18.011  43.902   3.782
62141W        W30546  23.301  33.099  13.736
62142W        W30547   6.750  42.371   1.060
62143W        W30548   5.482  13.586  13.608
62144W        W30549  22.411  42.130   1.340
62145W        W30550  21.646  38.829  12.323
62146W        W30551  36.553  31.854  11.525
62147W        W30552   6.482   1.276   0.687
62148W        W30553  37.943  18.069   1.290
62149W        W30554  18.713  19.620   1.279
62150W        W30555   2.747  17.501   1.369
62151W        W30556  44.966  30.562   3.637
62152W        W30557   2.421  27.142   0.772
62153W        W30558  13.530  36.490   0.415
62154W        W30559   3.361  23.999   0.823
62155W        W30560  21.016  17.815   0.275
62156W        W30561  20.354  29.207   4.383
62157W        W30562   9.601  21.142  13.593
62158W        W30563  30.084   9.639  10.820
62159W        W30564  31.581   2.129  13.034
62160W        W30565  35.539  39.348   2.243
62161W        W30566  22.122  11.655  12.015
62162W        W30567  17.262  16.073  12.519
62163W        W30568  35.314  24.070  14.425
62164W        W30569  43.553   0.877   0.908
62165W        W30570   2.423   0.323  10.699
62166W        W30571  24.016   7.527  12.431
62167W        W30572   4.325  28.178  14.385
62168W        W30573  35.371   4.743   3.720
62169W        W30574  14.959  31.539  11.474
62170W        W30575  31.605   5.247   2.597
62171W        W30576  29.147  42.058  14.730
62172W        W30577  33.030  10.826  13.117
62173W        W30578  21.852  33.938   2.665
62174W        W30579  22.478  42.392  13.450
62175W        W30580  26.181  44.347   0.743
62176W        W30581  16.702  23.821   2.793
62177W        W30582  19.845  34.960  11.467
62178W        W30583  29.105  36.442   3.284
62179W        W30584   8.178  27.651  12.893
62180W        W30585   9.677  29.715   3.540
62181W        W30586  18.970  36.008   4.608
62182W        W30587  23.680  38.116   0.680
62183W        W30588  17.035  36.391  10.246
62184W        W30589  22.960  38.451  13.048
62185W        W30590  34.597   9.620   1.464
62186W        W30591  34.042  17.276   3.274
62187W        W30592  33.382   5.833   3.804
62188W        W30593   0.310  24.277   2.948
62189W        W30594  27.442   1.775  14.302
62190W        W30595   1.331  24.618  12.501
62191W        W30596  12.314  40.304  12.034
62192W        W30597   0.321  27.614   2.200
62193W        W30598  33.881  40.728   1.830
62194W        W30599  34.186  41.411  11.008
62195W        W30600  22.726  12.797   3.330
62196W        W30601  41.955  22.277  10.941
62197W        W30602  26.634   1.346  14.014
62198W        W30603  24.754  20.732   2.869
62199W        W30604   0.995  39.420  13.896
62200W        W30605   1.264  12.513   0.248
62201W        W30606  26.417  36.855  14.863
62202W        W30607   0.209  43.847   4.388
62203W        W30608  30.397   2.809   2.357
62204W        W30609  25.241  13.567   0.677
62205W        W30610   9.582   5.244   3.470
62206W        W30611  18.334  25.182  12.461
62207W        W30612  29.189  37.414  12.620
62208W        W30613  40.447  11.119  13.935
62209W        W30614   9.014  26.075   3.347
62210W        W30615   6.933  43.486  12.028
62211W        W30616  29.602   8.096   0.808
62212W        W30617   0.333  22.568   2.398
62213W        W30618   9.801  42.900   2.775
62214W        W30619   3.305  29.119  11.929
62215W        W30620  42.728   4.792   0.202
62216W        W30621   7.204  17.627  11.898
62217W        W30622   3.234   3.237   1.369
62218W        W30623  25.473  38.324  13.786
62219W        W30624  23.939  21.160   2.790
62220W        W30625  30.136   6.913  14.790
62221W        W30626  16.594  17.342  13.098
62222W        W30627   8.847  29.734  11.955
62223W        W30628   1.737  31.872  12.537
62224W        W30629  32.995  25.453   1.679
62225W        W30630  18.760   8.663   0.960
62226W        W30631  10.450  18.076  13.507
62227W        W30632  14.657  19.187   1.879
62228W        W30633  12.754  14.489  11.782
62229W        W30634  14.154  29.983  14.620
62230W        W30635  37.381  20.522  10.841
62231W        W30636  11.664  43.785  11.591
62232W        W30637  11.915  34.112   1.806
62233W        W30638  13.754  43.539   4.565
62234W        W30639  40.402  41.356  13.932
62235W        W30640  13.441  34.090  12.825
62236W        W30641  34.880  17.836   3.753
62237W        W30642   9.689  26.975   5.084
62238W        W30643  13.925  10.226   4.317
62239W        W30644  35.936  40.012   0.698
62240W        W30645   6.011   4.752  11.213
62241W        W30646  19.522  39.207   3.677
62242W        W30647  29.106  30.177  11.180
62243W        W30648   1.176  41.080   3.811
62244W        W30649  37.974  22.467  11.602
62245W        W30650  30.860   3.305   1.665
62246W        W30651  17.693   8.902   1.807
62247W        W30652  15.257   7.949  14.809
62248W        W30653   2.379  43.189  10.343
62249W        W30654  15.210  38.313  10.597
62250W        W30655   2.648   6.456  13.934
62251W        W30656  16.011  25.931  14.343
62252W        W30657  32.501  16.226   0.671
62253W        W30658  44.397  25.053  12.871
62254W        W30659  12.726  39.940   2.907
62255W        W30660  39.965  13.521   2.789
62256W        W30661  18.483   6.699   4.299
62257W        W30662  16.179  33.070  13.440
62258W        W30663  10.552   2.537  14.913
62259W        W30664  42.850   8.667   3.716
62260W        W30665   1.917  37.973  11.906
62261W        W30666  42.785  22.555  12.956
62262W        W30667   1.452  30.630  14.363
62263W        W30668  37.580   3.490   3.553
62264W        W30669  21.654  23.779   2.779
62265W        W30670  32.484  41.818  12.419
62266W        W30671  30.258  16.015  12.618
62267W        W30672   1.146  37.987  14.798
62268W        W30673   2.157  10.300   0.474
62269W        W30674  10.560   8.583   1.240
62270W        W30675  41.563  30.202  14.093
62271W        W30676  15.338   2.831  14.855
62272W        W30677  18.110  20.503   0.788
62273W        W30678   6.135   6.858  11.597
62274W        W30679  37.101   9.902  13.116
62275W        W30680   1.409  25.945   3.369
62276W        W30681   1.907  14.612  14.805
62277W        W30682   0.015  37.643  13.896
62278W        W30683  35.067  26.658   4.968
62279W        W30684  14.801  10.604   0.237
62280W        W30685  36.856  14.265   2.826
62281W        W30686  37.373  20.627   3.161
62282W        W30687  41.298  22.697  12.468
62283W        W30688  21.789  17.358   0.367
62284W        W30689   4.947  26.963  11.555
62285W        W30690   1.410  37.473   0.959
62286W        W30691  24.767   9.402   1.366
62287W        W30692  28.282  34.543  13.288
62288W        W30693   1.486  23.046  13.507
62289W        W30694  16.067   5.534  13.090
62290W        W30695  11.024  17.183  14.351
62291W        W30696  42.035  18.377   3.192
62292W        W30697  20.717   8.715   0.719
62293W        W30698  39.645  29.498   0.957
62294W        W30699  19.386  38.430   4.257
62295W        W30700  21.956  13.895   2.115
62296W        W30701  24.915   3.478   5.034
62297W        W30702  31.018  31.311   3.458
62298W        W30703  34.927   5.863  13.927
62299W        W30704  29.562  27.736   1.868
62300W        W30705  18.393  32.539  12.262
62301W        W30706  18.829  27.839   4.998
62302W        W30707  15.009  35.495   4.119
62303W        W30708  12.387  39.301  12.016
62304W        W30709   4.024   5.685   3.850
62305W        W30710  38.075   6.963   4.500
62306W        W30711  20.057   7.756   3.335
62307W        W30712  27.056  18.004  13.733
62308W        W30713  22.523  21.518  12.166
62309W        W30714  35.283   4.585  13.733
62310W        W30715   7.943  36.500   0.924
62311W        W30716  38.398   1.305   2.984
62312W        W30717  32.338  10.425   4.580
62313W        W30718   9.146  38.363  11.110
62314W        W30719  11.326   6.220  12.939
62315W        W30720  10.349   8.254   2.950
62316W        W30721  15.795   4.733   4.356
62317W        W30722   1.981  18.488   4.720
62318W        W30723  19.867  43.519  14.077
62319W        W30724  32.210   7.995  11.489
62320W        W30725   3.123  27.464  10.743
62321W        W30726  19.521  30.374   4.513
62322W        W30727  17.625  38.839   3.670
62323W        W30728  13.991  36.109   3.470
62324W        W30729  25.111  31.160   2.319
62325W        W30730  34.543   9.905  13.807
62326W        W30731  34.258  43.647  11.845
62327W        W30732  39.113  43.941  11.193
62328W        W30733  28.555  27.529   3.896
62329W        W30734  38.663  42.250  11.026
62330W        W30735   4.186  19.852  13.047
62331W        W30736  14.520   2.380  14.741
62332W        W30737  28.521  13.776   3.872
62333W        W30738  43.712  18.096   3.912
62334W        W30739  30.102  25.558  12.064
62335W        W30740  12.692   2.211  14.465
62336W        W30741  11.352  31.778  11.542
62337W        W30742   6.638  37.357   2.252
62338W        W30743  28.783  19.964  10.253
62339W        W30744   6.525  31.806  13.936
62340W        W30745  21.865  27.091  11.555
62341W        W30746  33.422  12.279   4.604
62342W        W30747   1.354  44.852   3.906
62343W        W30748  15.192  37.378  11.768
62344W        W30749  31.181  15.885  10.311
62345W        W30750  12.428  42.031  14.080
62346W        W30751   8.342  22.740   3.767
62347W        W30752  26.723  34.463   0.122
62348W        W30753  16.751  29.187   0.951
62349W        W30754   9.176  39.583   3.286
62350W        W30755   4.259  40.154  13.832
62351W        W30756  12.198  36.788   1.848
62352W        W30757  13.846  30.339   4.164
62353W        W30758  37.264  37.389  14.908
62354W        W30759  23.544  27.070  13.956
62355W        W30760  31.548  10.702   3.083
62356W        W30761  34.604  22.660   4.095
62357W        W30762  31.448  11.186  12.807
62358W        W30763  11.822  43.557   0.861
62359W        W30764  25.168   9.431  12.699
62360W        W30765  17.726  27.699   0.511
62361W        W30766  15.004  19.536  12.051
62362W        W30767  28.627   3.441  10.972
62363W        W30768  22.200   5.292  13.810
62364W        W30769  12.847  35.726  13.747
62365W        W30770  18.894  41.260   5.051
62366W        W30771   0.524  16.245  11.136
62367W        W30772   4.724  22.310   1.273
62368W        W30773  15.153   2.324   2.167
62369W        W30774  26.731  21.127  12.286
62370W        W30775  44.418  17.251  13.783
62371W        W30776  42.135  44.658  10.995
62372W        W30777  22.122  30.721  13.170
62373W        W30778  21.785  17.471   2.561
62374W        W30779  42.246  32.416   1.485
62375W        W30780  40.248  18.425  13.306
62376W        W30781   5.776  28.733  14.041
62377W        W30782  34.922  25.508  12.438
62378W        W30783  20.513  41.239  10.744
62379W        W30784  15.692  35.320  14.347
62380W        W30785  30.625  31.016   3.641
62381W        W30786  23.766   0.870  14.073
62382W        W30787  29.065  35.626  12.954
62383W        W30788  23.055  28.750  13.674
62384W        W30789  34.076   7.192   4.187
62385W        W30790   7.797   5.975  10.297
62386W        W30791   6.250  30.629   3.702
62387W        W30792  19.783  35.704  11.981
62388W        W30793  20.721  14.674  14.103
62389W        W30794  39.106   5.565  12.406
62390W        W30795  34.896  19.291  12.068
62391W        W30796  10.918  28.592  12.503
62392W        W30797  40.363   0.731  14.038
62393W        W30798   4.807  11.080  12.087
62394W        W30799  23.149   6.707   4.341
62395W        W30800  39.162  26.067   0.365
62396W        W30801  15.235   0.471   1.762
62397W        W30802   1.913   3.741  12.876
62398W        W30803  32.927   5.058  12.629
62399W        W30804  26.029  39.338  12.757
62400W        W30805   8.954  33.824   2.130
62401W        W30806  32.984  14.218  11.530
62402W        W30807  15.997  15.366  12.336
62403W        W30808   8.706  23.153  10.481
62404W        W30809  37.446  36.611  12.404
62405W        W30810  20.610  21.958  14.636
62406W        W30811  12.113   2.904  14.885
62407W        W30812  32.304  40.450  14.040
62408W        W30813  34.053  43.522   4.261
62409W        W30814   1.230  32.639  12.907
62410W        W30815   4.303  44.853   4.619
62411W        W30816  36.148  31.379  14.047
62412W        W30817  10.985  18.103  13.455
62413W        W30818   9.127  32.274   3.537
62414W        W30819  20.233   1.490  12.399
62415W        W30820   4.908   6.147   4.170
62416W        W30821  27.475  34.560  14.318
62417W        W30822  20.170  29.588   1.800
62418W        W30823   1.641  26.501   4.117
62419W        W30824   3.296  29.475  12.910
62420W        W30825  19.011   5.265  12.075
62421W        W30826  23.954  11.109   4.262
62422W        W30827  36.329  28.240  13.893
62423W        W30828  41.009  18.862  14.260
62424W        W30829   6.697   9.829  13.874
62425W        W30830  31.700  16.664   4.068
62426W        W30831   3.480  26.369  13.769
62427W        W30832  28.829  40.320  12.234
62428W        W30833   8.976   2.270   3.049
62429W        W30834  23.748  37.612  10.776
62430W        W30835  23.169  17.630   4.822
62431W        W30836   1.458  40.148  12.082
62432W        W30837   8.612  33.886  13.941
62433W        W30838  19.290  30.917   4.034
62434W        W30839  40.747  11.303   1.794
62435W        W30840   0.242  42.956  10.296
62436W        W30841  43.879  33.190   2.116
62437W        W30842  16.637  39.076   2.759
62438W        W30843  34.645  20.373  13.955
62439W        W30844  37.005  18.062   1.771
62440W        W30845  12.378  25.441  11.424
62441W        W30846   0.447  42.297   3.258
62442W        W30847  15.714  42.647   4.619
62443W        W30848  17.824  36.441   1.232
62444W        W30849  28.936   7.059   3.885
62445W        W30850  21.485  44.362  12.508
62446W        W30851  32.494  32.137   5.316
62447W        W30852  14.521  35.874   0.795
62448W        W30853  31.565  34.964  11.380
62449W        W30854  38.832  16.057   1.140
62450W        W30855  25.677  21.613   2.747
62451W        W30856  22.654  29.173   0.999
62452W        W30857   3.488   6.817   2.405
62453W        W30858  19.460  31.101  11.193
62454W        W30859  37.496  30.406  11.686
62455W        W30860  24.350  36.377  12.432
62456W        W30861  25.026  10.629  10.600
62457W        W30862  15.533  33.899   2.151
62458W        W30863  15.295  16.721  13.260
62459W        W30864   0.977  15.155  10.591
62460W        W30865  10.692   0.988   0.683
62461W        W30866  34.502  26.549   2.135
62462W        W30867  20.445  44.948  11.008
62463W        W30868  40.488  30.468  14.901
62464W        W30869  11.111  42.891   1.246
62465W        W30870  19.532  22.712   0.915
62466W        W30871  43.312   7.338  11.091
62467W        W30872   6.430  12.629   1.123
62468W        W30873  36.416  16.612  13.945
62469W        W30874  41.610  21.141  11.237
62470W        W30875  13.307  41.142   4.961
62471W        W30876  36.518  12.731  14.262
62472W        W30877  16.785  26.921  14.810
62473W        W30878  25.484  35.782  12.447
62474W        W30879  35.946  33.829   0.739
62475W        W30880  33.527  43.279   1.747
62476W        W30881  30.047  35.866   2.265
62477W        W30882   6.072  22.128   0.031
62478W        W30883  25.257   4.838   3.155
62479W        W30884   6.939  32.657   1.898
62480W        W30885  33.207  42.393  13.128
62481W        W30886  28.966   6.118   1.335
62482W        W30887  43.874  23.580  12.990
62483W        W30888  13.919   3.082  14.782
62484W        W30889  11.592  10.314  14.393
62485W        W30890   6.616   3.852   3.254
62486W        W30891  15.390  37.361   3.792
62487W        W30892  42.170  23.965  12.595
62488W        W30893   7.231  29.967  11.513
62489W        W30894   1.558  12.265  14.889
62490W        W30895  22.110  40.350   3.738
62491W        W30896  26.880  24.027  13.130
62492W        W30897  32.554  18.415  14.887
62493W        W30898  27.092   3.417  12.626
62494W        W30899  21.616  35.952   2.908
62495W        W30900  29.778  32.183   4.319
62496W        W30901  15.941  39.836   2.222
62497W        W30902  16.509  30.776  13.503
62498W        W30903  38.838  40.423  11.988
62499W        W30904  15.044  18.764  10.924
62500W        W30905   5.403  32.400  13.917
62501W        W30906  38.613  23.021  11.691
62502W        W30907  17.683  44.506   2.164
62503W        W30908   3.702  17.100   3.288
62504W        W30909  19.463  43.856  14.247
62505W        W30910  21.196  40.387  12.158
62506W        W30911  36.065  37.807   1.378
62507W        W30912  19.173  21.436  11.191
62508W        W30913  20.196   8.931   2.895
62509W        W30914  24.872  11.370   3.373
62510W        W30915  24.788  12.304   3.233
62511W        W30916  24.141   4.006   3.197
62512W        W30917  30.339  11.845  11.187
62513W        W30918  12.305  19.778   2.297
62514W        W30919   0.220  42.232  14.370
62515W        W30920  36.849  14.084  12.468
62516W        W30921  34.025  31.115   0.229
62517W        W30922  18.971  18.820  12.447
62518W        W30923  24.034  12.093  12.838
62519W        W30924   5.213  21.633   4.521
62520W        W30925   3.466  39.655  13.843
62521W        W30926  28.328   1.873  12.096
62522W        W30927   3.533  27.264   3.293
62523W        W30928   3.237  40.266  12.563
62524W        W30929  21.042  25.643  12.420
62525W        W30930  10.818  31.608  10.869
62526W        W30931   5.251  33.983  13.463
62527W        W30932  21.153  18.522   4.029
62528W        W30933  26.511   7.357  10.779
62529W        W30934  34.330  23.306  13.140
62530W        W30935  34.851  17.002  13.726
62531W        W30936   5.907  17.846   3.718
62532W        W30937  43.049  13.557   1.673
62533W        W30938   3.811  44.808  11.586
62534W        W30939  11.739  30.966   3.707
62535W        W30940  11.883   4.910   1.684
62536W        W30941  24.991  37.010  14.000
62537W        W30942  13.281  36.870  14.337
62538W        W30943  35.791  10.151  11.528
62539W        W30944  13.933  43.566   0.846
62540W        W30945  44.480  39.218  11.934
62541W        W30946  36.943  12.090  13.338
62542W        W30947  29.232  30.430   4.161
62543W        W30948  21.587  22.605   5.007
62544W        W30949  28.154  10.799  11.687
62545W        W30950  32.118  37.101  13.350
62546W        W30951   9.200  14.606   9.662
62547W        W30952  14.558  14.050   2.853
62548W        W30953  23.603  16.524   1.479
62549W        W30954  33.790   3.782  11.579
62550W        W30955  25.246  24.564  12.030
62551W        W30956   7.695  31.908   3.833
62552W        W30957  11.232  10.422   0.360
62553W        W30958  31.491   2.736   0.654
62554W        W30959   1.544  39.387  13.865
62555W        W30960   1.711  34.444  12.991
62556W        W30961   9.711   8.116   4.338
62557W        W30962  28.524  24.751   4.073
62558W        W30963  30.858  32.163   4.345
62559W        W30964  24.277  30.355   3.611
62560W        W30965  26.086  26.851  10.428
62561W        W30966   1.338  18.491  14.565
62562W        W30967   1.651  10.178  13.465
62563W        W30968  36.896   6.434   9.865
62564W        W30969  44.791  39.955   3.432
62565W        W30970  43.465  13.750  12.003
62566W        W30971  42.970  40.264  11.631
62567W        W30972  20.203   7.245  12.017
62568W        W30973  37.538  32.414   4.126
62569W        W30974   9.209  26.735   4.106
62570W        W30975  20.232  12.143   0.008
62571W        W30976  35.322  33.507  11.470
62572W        W30977  42.290  17.064   4.830
62573W        W30978  44.605  20.205   0.491
62574W        W30979  12.205  43.869   2.989
62575W        W30980  19.618  12.844   3.053
62576W        W30981  28.773  37.450  14.343
62577W        W30982  31.934  22.535  14.833
62578W        W30983  35.535  16.605  12.645
62579W        W30984   0.737  23.946   0.174
62580W        W30985  40.383  17.251  11.149
62581W        W30986  41.396  27.991  11.469
62582W        W30987  22.596  18.089   4.619
62583W        W30988  23.515  15.658   1.833
62584W        W30989  22.373  43.486   2.774
62585W        W30990  34.829  14.116  12.464
62586W        W30991   8.019  24.591   3.423
62587W        W30992  34.702   7.809  12.969
62588W        W30993  31.140  12.961   3.715
62589W        W30994  10.150  10.929   1.152
62590W        W30995  15.563  12.909   0.541
62591W        W30996  24.518  19.621   1.754
62592W        W30997  32.331  20.244  14.799
62593W        W30998   2.831  36.959   2.770
62594W        W30999  29.584  12.849   2.666
62595W        W31000   4.432  19.615  13.511
62596W        W31001   4.616  11.401  10.294
62597W        W31002  22.154  41.278   3.701
62598W        W31003  26.946  37.664   0.268
62599W        W31004  17.012  23.305  13.852
62600W        W31005  33.510   9.179   3.816
62601W        W31006  44.405  35.332  11.135
62602W        W31007   4.371  35.764  12.623
62603W        W31008  38.405  43.785  12.447
62604W        W31009  44.489   1.705  13.471
62605W        W31010  41.732  20.455  14.779
62606W        W31011  15.692  37.396  14.961
62607W        W31012  44.534  37.279  14.802
62608W        W31013  34.963  26.234   4.643
62609W        W31014  26.972  12.645   0.381
62610W        W31015  34.722  31.985  14.074
62611W        W31016   6.102   8.646  13.843
62612W        W31017   2.985  39.339   4.237
62613W        W31018  26.153  34.640   1.791
62614W        W31019  35.524   8.004  11.218
62615W        W31020  22.956  21.476  11.318
62616W        W31021  27.734   1.486  11.662
62617W        W31022  11.790  35.838   4.747
62618W        W31023   1.955  11.701  11.129
62619W        W31024   3.277   0.261  14.435
62620W        W31025  26.864  44.356  10.760
62621W        W31026   1.776  11.737   2.588
62622W        W31027  23.981  39.520   0.046
62623W        W31028  30.161  19.814   4.386
62624W        W31029  28.360  30.493   0.220
62625W        W31030  39.620   9.124   0.998
62626W        W31031   4.434  36.914   0.223
62627W        W31032  16.631  22.102  10.664
62628W        W31033  12.115  26.271  10.993
62629W        W31034  34.839  24.444  12.447
62630W        W31035  33.855   2.198  12.477
62631W        W31036  30.976   5.168   0.034
62632W        W31037  28.937   1.480   4.310
62633W        W31038  23.267  14.363  14.856
62634W        W31039  26.127  42.331  10.701
62635W        W31040  14.182   6.986  12.561
62636W        W31041  28.672  33.807   0.392
62637W        W31042  11.273  21.142   2.137
62638W        W31043  42.240  17.151  12.377
62639W        W31044   5.113  38.914   2.858
62640W        W31045  34.916  39.872  12.532
62641W        W31046  11.766  42.592   2.188
62642W        W31047   9.916  23.697  13.997
62643W        W31048  44.891  28.593   2.112
62644W        W31049  20.301  31.788   1.585
62645W        W31050  37.800   2.356   1.725
62646W        W31051  25.177  11.600  12.602
62647W        W31052  39.633  29.514  14.977
62648W        W31053  15.766   4.781   4.901
62649W        W31054  35.917   6.592  10.593
62650W        W31055   8.456  32.590  12.901
62651W        W31056   1.955  16.734  11.439
62652W        W31057  22.038  20.888   2.647
62653W        W31058  20.227  22.895  12.453
62654W        W31059  32.174  18.606  11.960
62655W        W31060  28.983  20.634   0.406
62656W        W31061  19.475  19.705  13.309
62657W        W31062  23.990  23.132  12.015
62658W        W31063  27.916  26.639  11.695
62659W        W31064   6.568  13.840   0.027
62660W        W31065   3.941  36.457   4.498
62661W        W31066  42.340  32.854   4.041
62662W        W31067  15.271  28.710   4.613
62663W        W31068  30.167   9.767   4.853
62664W        W31069  41.328  28.481   0.904
62665W        W31070  38.269  29.192   4.014
62666W        W31071  43.989  23.083   3.192
62667W        W31072  26.658  12.200   1.338
62668W        W31073  28.622   3.950  11.114
62669W        W31074  33.521  22.663  14.791
62670W        W31075  27.967   0.814   2.776
62671W        W31076   2.222   1.487   2.688
62672W        W31077  12.625  27.454  14.913
62673W        W31078  24.077   8.370   3.134
62674W        W31079   5.300  19.830  10.393
62675W        W31080  27.655  20.694   0.048
62676W        W31081  12.667  36.410   0.839
62677W        W31082  32.025   2.302  13.833
62678W        W31083  41.061  26.760   0.031
62679W        W31084   7.576  16.252   3.784
62680W        W31085  20.701  17.626  11.692
62681W        W31086  41.556   8.430   4.416
62682W        W31087  31.844  35.056  12.506
62683W        W31088  10.114  23.941  12.527
62684W        W31089  44.154  41.416   1.714
62685W        W31090  29.596  13.653  10.534
62686W        W31091  35.416  25.216  13.513
62687W        W31092  24.179   1.725  11.135
62688W        W31093  21.262  31.392  11.569
62689W        W31094   9.937  23.519   3.774
62690W        W31095  20.527   7.680   4.611
62691W        W31096  29.457  23.177  11.111
62692W        W31097  35.321  28.960   1.428
62693W        W31098  30.819  16.330  10.196
62694W        W31099  20.837  17.796   1.170
62695W        W31100  15.284   2.668   3.629
62696W        W31101  10.111  21.147  10.623
62697W        W31102  35.567  17.599  13.481
62698W        W31103  16.076  40.875   2.724
62699W        W31104   9.809   7.461  13.816
62700W        W31105   5.686  23.475   0.477
62701W        W31106  38.994  33.391   0.754
62702W        W31107  21.711  25.588   3.047
62703W        W31108  12.548  39.625   2.514
62704W        W31109  22.300  38.886   2.766
62705W        W31110  19.509  19.669   4.190
62706W        W31111  37.619  18.418   3.619
62707W        W31112   3.804  22.751   3.948
62708W        W31113   5.423  37.290  10.658
62709W        W31114  11.843  43.090  13.037
62710W        W31115  30.772  22.191   3.343
62711W        W31116  13.914  28.453   2.771
62712W        W31117  39.854  24.102  14.045
62713W        W31118  37.401  17.194  14.088
62714W        W31119  40.506  27.888   2.887
62715W        W31120  16.357  13.665  13.094
62716W        W31121  26.063  13.169  12.655
62717W        W31122  19.549  39.368   2.288
62718W        W31123  10.077  27.100  12.041
62719W        W31124  22.719  13.877  14.341
62720W        W31125  42.722   2.782  13.518
62721W        W31126   2.398  27.915  11.435
62722W        W31127  18.804  28.490  13.071
62723W        W31128  37.155  11.251   3.610
62724W        W31129  11.726   0.168  10.396
62725W        W31130  14.781  34.808  13.506
62726W        W31131  29.976  23.188   0.788
62727W        W31132  42.971  31.321  11.139
62728W        W31133   1.747  25.566  12.672
62729W        W31134  17.231  44.771  14.412
62730W        W31135   7.456  30.471  11.538
62731W        W31136  32.017  26.625  11.293
62732W        W31137  42.479  34.944   4.553
62733W        W31138  19.406  21.181  10.713
62734W        W31139  16.282  41.805  11.144
62735W        W31140  17.196  40.089  11.477
62736W        W31141  23.340  35.756   1.321
62737W        W31142  16.668  17.309   3.354
62738W        W31143  28.641   8.408  11.141
62739W        W31144  37.872  12.597   3.267
62740W        W31145  16.944  33.481   3.997
62741W        W31146  25.669  26.678   4.186
62742W        W31147   6.058  17.677  14.321
62743W        W31148   0.951  34.996  11.461
62744W        W31149   5.702  38.482  12.129
62745W        W31150  12.264  44.404   0.800
62746W        W31151  31.200  18.160   2.558
62747W        W31152  16.840  36.600   2.782
62748W        W31153   8.203  43.946  13.348
62749W        W31154  23.635  34.992  10.867
62750W        W31155  36.499  23.788   4.450
62751W        W31156  14.272  30.332   4.866
62752W        W31157   4.555   4.284   1.488
62753W        W31158  31.009  28.178  12.100
62754W        W31159  37.607  36.383   4.125
62755W        W31160  11.426  34.943  11.125
62756W        W31161  29.150  21.634   1.265
62757W        W31162  14.418  30.451  11.184
62758W        W31163  27.070   0.278   1.920
62759W        W31164  13.319  18.702  13.786
62760W        W31165  24.122  38.333   1.387
62761W        W31166  13.157  29.127   0.952
62762W        W31167  43.955  10.394   3.790
62763W        W31168  39.081  16.984  10.395
62764W        W31169  10.276   3.370  13.642
62765W        W31170   9.877  13.639   0.245
62766W        W31171  12.844  44.306   0.411
62767W        W31172  28.966  39.991  11.557
62768W        W31173   5.466  21.101   3.662
62769W        W31174  33.872  39.283   2.613
62770W        W31175   2.084  27.526   1.742
62771W        W31176  22.208   3.204   4.569
62772W        W31177   6.443   0.833   0.308
62773W        W31178  28.956  30.404  10.751
62774W        W31179  10.760   7.887  14.906
62775W        W31180  32.582  39.391  12.553
62776W        W31181  35.589  10.797   2.748
62777W        W31182  29.956  24.713   2.842
62778W        W31183  42.991  24.353  12.372
62779W        W31184   5.988  20.085  13.977
62780W        W31185  34.999  18.309   3.881
62781W        W31186  21.469  34.648  10.617
62782W        W31187  28.670  21.709  12.544
62783W        W31188   3.591  40.657  11.118
62784W        W31189  26.150  30.593  12.568
62785W        W31190  14.745   7.129  10.657
62786W        W31191   4.932  20.147  10.835
62787W        W31192  12.195  13.435   0.828
62788W        W31193  28.730   7.675   1.372
62789W        W31194  22.541   0.920  10.517
62790W        W31195  13.376  17.277   2.755
62791W        W31196  26.766  38.760  14.276
62792W        W31197   0.865  33.559  11.025
62793W        W31198   4.682  33.968  14.526
62794W        W31199   6.057   5.755   0.033
62795W        W31200   7.165   2.807   1.747
62796W        W31201  13.866   0.785  14.187
62797W        W31202  25.413  29.102  11.523
62798W        W31203  27.473  21.506   4.025
62799W        W31204   8.958  34.261  14.114
62800W        W31205  44.955  22.105   4.544
62801W        W31206  22.115  38.813  13.004
62802W        W31207   4.280  32.855   1.333
62803W        W31208  14.544  34.638   1.275
62804W        W31209   3.852  13.157  13.790
62805W        W31210   1.943  43.378  13.002
62806W        W31211  44.044  17.177   3.516
62807W        W31212  32.177   3.629  10.745
62808W        W31213  34.491  25.581   2.575
62809W        W31214  31.900  18.458  10.194
62810W        W31215   9.919  20.323   1.209
62811W        W31216  42.288  17.726   0.133
62812W        W31217  26.388  40.758  13.823
62813W        W31218  26.765   2.450  11.444
62814W        W31219  26.153  26.258   3.316
62815W        W31220   6.163  27.598   2.775
62816W        W31221  13.037  39.288   3.345
62817W        W31222  11.390  38.488  13.809
62818W        W31223   3.674   7.820   4.531
62819W        W31224  31.981   0.500   3.734
62820W        W31225   0.876   5.422  14.140
62821W        W31226  42.763  29.704  13.842
62822W        W31227  15.231  43.941  11.571
62823W        W31228   8.817  42.703   2.776
62824W        W31229  40.865  10.621   3.106
62825W        W31230  18.534  29.985   0.549
62826W        W31231  39.151  14.297  10.682
62827W        W31232  14.595  34.599  13.059
62828W        W31233  15.563  29.210  14.055
62829W        W31234   4.765  42.787  10.402
62830W        W31235  44.922  30.152  11.598
62831W        W31236   2.733  11.352   0.334
62832W        W31237  28.607   1.414   2.510
62833W        W31238  42.036  20.181  12.304
62834W        W31239  44.297  24.196  14.896
62835W        W31240  22.421   3.376  11.418
62836W        W31241  18.305  25.557  10.226
62837W        W31242  33.415  23.053   4.419
62838W        W31243   4.293   5.135  10.801
62839W        W31244   7.483  15.739   4.525
62840W        W31245  42.737  15.689  13.431
62841W        W31246  26.715   5.151   1.766
62842W        W31247  15.825  19.996   2.157
62843W        W31248  23.253  38.025  11.524
62844W        W31249  37.631  23.079   2.888
62845W        W31250  38.393  35.845  11.922
62846W        W31251  29.983  14.616   2.208
62847W        W31252  23.261  23.130  13.849
62848W        W31253  33.085  10.590   3.212
62849W        W31254   9.878  15.588   3.144
62850W        W31255  31.993  27.651  11.693
62851W        W31256  19.559  31.574  11.053
62852W        W31257  18.285  30.585  12.066
62853W        W31258  35.944  12.406  12.038
62854W        W31259   7.736  32.472  11.145
62855W        W31260  42.780  40.113  13.953
62856W        W31261  40.840  43.429  13.963
62857W        W31262  38.648  34.876  11.700
62858W        W31263  31.416  40.269   4.249
62859W        W31264  16.238  39.420   2.848
62860W        W31265  30.694  30.617   0.931
62861W        W31266  38.392   7.225   3.353
62862W        W31267  36.582  29.103   0.348
62863W        W31268   7.423   8.842  10.776
62864W        W31269   4.269  12.162  14.354
62865W        W31270  31.207   5.925  11.668
62866W        W31271  41.340  35.404  12.554
62867W        W31272  14.373   2.955   0.179
62868W        W31273  40.794  22.804   1.749
62869W        W31274  12.003   7.782   2.289
62870W        W31275  17.080   3.326   2.811
62871W        W31276  44.478   8.625  12.906
62872W        W31277   1.390  41.532  14.979
62873W        W31278   0.939   6.299  12.031
62874W        W31279  13.754  32.388  12.432
62875W        W31280  27.535  15.860   9.942
62876W        W31281  39.471  39.206  13.694
62877W        W31282  25.419  32.506  11.181
62878W        W31283  43.815   4.084   3.746
62879W        W31284  43.525  19.839   0.858
62880W        W31285  27.595  35.067   1.190
62881W        W31286   2.619  25.541   1.498
62882W        W31287  37.925  31.597  12.025
62883W        W31288  16.497  39.792   0.022
62884W        W31289  21.532  35.864   3.820
62885W        W31290  20.450  31.005   1.640
62886W        W31291   2.255   1.326  11.891
62887W        W31292  30.503   6.756   3.079
62888W        W31293  17.827  26.480   3.670
62889W        W31294   8.908   4.586  13.743
62890W        W31295  31.376  32.719  13.605
62891W        W31296  23.955  27.513   3.712
62892W        W31297   0.721   0.374   1.862
62893W        W31298  13.029  36.987  13.879
62894W        W31299  15.486  30.924   0.685
62895W        W31300  15.722  20.088  11.992
62896W        W31301  11.604  35.092  14.943
62897W        W31302  44.394  20.466   0.877
62898W        W31303   0.570  20.202   1.620
62899W        W31304  22.548  13.516   3.884
62900W        W31305  12.409  28.227   1.839
62901W        W31306  29.053  16.050   2.170
62902W        W31307  14.327  27.078   1.336
62903W        W31308  22.003  33.414   4.324
62904W        W31309   7.585   3.522   4.117
62905W        W31310  31.136  41.490  10.655
62906W        W31311  10.256  41.135   5.085
62907W        W31312   4.024  27.492   3.341
62908W        W31313   9.909   6.220   2.084
62909W        W31314  10.559  30.622   4.515
62910W        W31315  22.557  14.845  14.271
62911W        W31316  29.128   8.127   3.244
62912W        W31317   1.572  28.667  13.403
62913W        W31318  36.856  20.762   2.231
62914W        W31319  27.994  30.338   3.430
62915W        W31320  15.650  42.782  13.726
62916W        W31321  10.992  33.026  10.723
62917W        W31322   7.440  42.308  12.213
62918W        W31323  28.673  12.650   0.759
62919W        W31324  16.658  14.379  13.101
62920W        W31325  34.656   2.851  14.045
62921W        W31326  36.055  17.932  12.518
62922W        W31327  11.852  25.596  13.927
62923W        W31328   9.334  19.817  10.713
62924W        W31329   7.325  25.690   1.391
62925W        W31330  11.808  44.953  12.814
62926W        W31331   1.904  33.801  13.804
62927W        W31332  25.186  24.307   2.259
62928W        W31333   5.544  14.424   1.994
62929W        W31334  24.609   3.992  14.982
62930W        W31335  37.551  27.840   4.043
62931W        W31336  38.971  18.080   1.736
62932W        W31337  40.827   6.595  10.470
62933W        W31338  34.482  21.179   1.809
62934W        W31339  10.150   6.441   1.686
62935W        W31340  13.332  39.903   2.274
62936W        W31341   3.995  14.820  10.904
62937W        W31342  21.084   4.485   4.519
62938W        W31343  37.551   9.745  12.931
62939W        W31344  18.034  43.823  14.789
62940W        W31345   1.900  13.730   2.120
62941W        W31346  14.800   0.983   2.221
62942W        W31347   0.776  40.338   0.419
62943W        W31348  30.153  16.133  13.804
62944W        W31349  39.298  31.654  12.806
62945W        W31350  44.839  41.484   2.671
62946W        W31351  12.708  22.799   0.516
62947W        W31352  16.798  36.302  14.988
62948W        W31353  15.237  33.119  12.129
62949W        W31354  26.248  14.677   0.884
62950W        W31355   8.195   5.370   3.774
62951W        W31356  33.371  44.838  14.399
62952W        W31357   3.371  41.891  11.938
62953W        W31358   9.602  27.211   2.357
62954W        W31359  24.690   9.353  12.549
62955W        W31360  27.614  15.408   0.820
62956W        W31361   8.325  39.224  12.669
62957W        W31362  30.151  37.879  14.023
62958W        W31363  34.605  17.070   4.400
62959W        W31364  24.292  44.612  14.041
62960W        W31365  41.637  22.294  12.347
62961W        W31366  38.882  24.366   4.990
62962W        W31367  36.245   6.538   3.204
62963W        W31368   7.277  31.822   1.634
62964W        W31369  32.130   9.174  12.627
62965W        W31370   6.483   2.943  14.282
62966W        W31371   2.057  10.262   4.039
62967W        W31372  11.153  43.370  12.129
62968W        W31373  13.764  39.021  11.213
62969W        W31374  44.556  39.053   0.975
62970W        W31375  15.242   6.210  13.152
62971W        W31376  34.692  12.452   0.495
62972W        W31377  40.782  36.689  11.246
62973W        W31378  23.712  36.884  13.422
62974W        W31379  43.583  29.529  12.691
62975W        W31380   7.187  10.453  10.811
62976W        W31381  14.785  26.652   0.522
62977W        W31382  41.890  44.546   2.193
62978W        W31383  40.941  42.593   0.736
62979W        W31384  36.833   6.257  13.678
62980W        W31385   0.421  41.910   4.489
62981W        W31386  17.639  34.360  13.386
62982W        W31387  44.501  14.346  13.668
62983W        W31388  38.849  11.591  14.584
62984W        W31389   4.892  16.769   2.735
62985W        W31390   3.432  16.321  11.631
62986W        W31391  12.125  22.107  10.758
62987W        W31392  32.394  43.981  11.263
62988W        W31393  40.142  12.795  10.953
62989W        W31394   5.219  27.665  11.645
62990W        W31395  19.225   9.483   4.522
62991W        W31396  42.553  23.621  13.391
62992W        W31397  29.634  36.673  12.471
62993W        W31398  40.371   5.866  13.386
62994W        W31399  29.033  14.275   1.238
62995W        W31400  16.105   5.374  14.287
62996W        W31401  30.654   6.428  11.943
62997W        W31402   1.682   2.486  11.630
62998W        W31403  29.929  32.050  11.594
62999W        W31404   4.976  38.522   1.603
63000W        W31405  20.592  42.529  12.838
63001W        W31406  39.978   1.074  14.042
63002W        W31407  15.369   8.770   3.463
63003W        W31408  33.958  26.167  11.252
63004W        W31409  35.623  42.484  10.725
63005W        W31410  23.222   0.406  12.538
63006W        W31411   3.677  20.633  12.793
63007W        W31412   9.539  23.786  13.016
63008W        W31413  37.334  19.370   4.011
63009W        W31414   7.156   6.973  11.238
63010W        W31415  19.252  32.338  10.704
63011W        W31416  12.971  19.209  11.051
63012W        W31417   3.502  43.367   4.893
63013W        W31418  30.751   9.750  12.244
63014W        W31419   6.411  43.266  13.202
63015W        W31420  26.488  27.112   4.092
63016W        W31421  39.558  26.460   4.031
63017W        W31422  37.833  19.692   1.852
63018W        W31423  25.503   4.244  10.662
63019W        W31424  26.914  34.914   2.880
63020W        W31425   1.413  16.090  11.023
63021W        W31426  20.543  20.814   3.625
63022W        W31427  24.581  44.100  11.952
63023W        W31428  24.043   7.659   4.558
63024W        W31429  34.956  25.184  14.181
63025W        W31430  12.038  33.508  13.820
63026W        W31431  16.252  38.790  11.895
63027W        W31432  44.952  40.990  13.464
63028W        W31433  35.851  11.283  13.145
63029W        W31434  41.539  18.572   3.272
63030W        W31435  22.472  27.599   2.394
63031W        W31436   8.172  19.672  12.984
63032W        W31437   2.758  23.078   4.467
63033W        W31438   8.577  33.404  10.822
63034W        W31439  23.239   0.806  13.310
63035W        W31440  25.763  25.492  12.199
63036W        W31441  37.451  38.839   1.515
63037W        W31442   1.122  39.930   0.711
63038W        W31443  13.117  16.846  13.565
63039W        W31444   9.605  40.371   2.588
63040W        W31445  19.325   3.775   0.961
63041W        W31446  31.661  28.962  10.675
63042W        W31447  21.141  31.826   1.476
63043W        W31448   3.548   1.622   0.794
63044W        W31449  37.860   6.397  11.093
63045W        W31450  43.891  14.121  10.748
63046W        W31451   5.746  32.138  11.615
63047W        W31452  44.590  26.601   0.056
63048W        W31453   5.299  43.842   3.347
63049W        W31454   1.034   6.717   0.776
63050W        W31455  10.478  29.189  11.455
63051W        W31456  10.864  43.156   0.851
63052W        W31457  24.190  28.189   0.489
63053W        W31458  12.287  39.431  13.621
63054W        W31459  12.330   2.783  13.894
63055W        W31460   5.767   9.293   3.374
63056W        W31461   1.840  42.300   1.727
63057W        W31462   7.496  19.330  12.550
63058W        W31463  10.870   5.483   4.751
63059W        W31464  25.583   8.779   3.263
63060W        W31465  23.705  21.928  10.658
63061W        W31466   5.421  26.026   1.696
63062W        W31467  22.991  16.802  14.785
63063W        W31468  29.184  30.487   1.378
63064W        W31469   9.845  15.304  14.950
63065W        W31470  11.368  36.386  12.488
63066W        W31471  10.068  25.444  14.472
63067W        W31472   7.856  37.962  10.800
63068W        W31473  34.512  37.566   4.004
63069W        W31474  40.473  43.538   3.370
63070W        W31475  30.511  27.977  13.888
63071W        W31476   3.770  18.805  10.673
63072W        W31477  11.125  44.913   3.593
63073W        W31478  21.689  31.643   4.057
63074W        W31479  23.659  40.952   3.265
63075W        W31480  21.858  27.953   1.887
63076W        W31481   7.519  37.259  12.473
63077W        W31482   2.013  28.662   0.764
63078W        W31483  33.573  35.476  12.988
63079W        W31484   3.452   4.963   3.701
63080W        W31485  13.844  17.244  11.425
63081W        W31486  40.854   0.073   4.552
63082W        W31487  33.295   9.779   1.290
63083W        W31488   1.444   4.920   1.688
63084W        W31489  27.853  16.994  11.239
63085W        W31490  28.390  21.173   5.048
63086W        W31491  12.070   4.341   4.587
63087W        W31492  40.391  26.624   0.252
63088W        W31493  16.140   5.340   4.274
63089W        W31494   3.937  34.366  11.622
63090W        W31495  17.582  31.890  14.576
63091W        W31496   6.804  12.413   0.236
63092W        W31497  29.995   8.406   4.137
63093W        W31498  26.343  35.197   1.765
63094W        W31499  23.666   0.340   2.696
63095W        W31500  32.944  23.753   1.953
63096W        W31501  20.651  18.609  14.487
63097W        W31502   2.192  32.507  13.185
63098W        W31503   5.280  17.984   1.778
63099W        W31504  14.436  12.882  11.207
63100W        W31505  42.908  15.331  12.226
63101W        W31506   3.271  15.501  12.000
63102W        W31507  13.362  35.127   0.485
63103W        W31508  44.201  24.537   3.782
63104W        W31509  35.690  35.745   3.723
63105W        W31510  34.939  13.748   3.444
63106W        W31511  20.912  44.919  12.816
63107W        W31512   7.212  13.735   3.683
63108W        W31513  38.307  36.458  13.788
63109W        W31514  23.511  29.029  14.969
63110W        W31515   4.104  16.123  12.828
63111W        W31516  24.494   0.534  12.164
63112W        W31517  36.848   7.753   1.871
63113W        W31518  44.503  29.801   1.669
63114W        W31519   5.243  16.050   2.496
63115W        W31520  24.545  14.338  11.637
63116W        W31521   4.103  18.364   2.341
63117W        W31522  14.704  35.894   3.785
63118W        W31523  28.066  26.025   1.630
63119W        W31524  11.467  25.463   3.195
63120W        W31525   2.150  33.146  12.047
63121W        W31526  14.023  36.751   2.658
63122W        W31527  24.598  21.872  11.719
63123W        W31528  24.853  32.616  12.003
63124W        W31529   2.343  41.594   5.402
63125W        W31530   8.894  22.491  12.291
63126W        W31531  31.131   0.225   0.961
63127W        W31532  11.397  11.265  11.535
63128W        W31533  19.829  16.834   2.543
63129W        W31534  18.675   7.455   3.163
63130W        W31535  25.237  34.397   4.421
63131W        W31536  44.431  37.881   0.345
63132W        W31537  40.588   5.448   3.750
63133W        W31538  21.340   1.804  10.627
63134W        W31539  29.886  16.695  14.944
63135W        W31540   2.469  18.071   2.486
63136W        W31541  23.735  24.153   2.267
63137W        W31542  23.321  40.959  14.859
63138W        W31543   2.030  12.685  13.039
63139W        W31544  28.200  36.347   0.412
63140W        W31545  37.361   3.901   3.794
63141W        W31546   7.413  31.566   1.176
63142W        W31547  34.433  16.086   3.598
63143W        W31548   3.289   0.439  10.743
63144W        W31549  23.514  22.676   0.714
63145W        W31550  35.050  44.801  11.675
63146W        W31551   2.046  38.024   0.874
63147W        W31552  10.823  44.792  11.624
63148W        W31553  39.517  39.847  12.873
63149W        W31554  24.018  16.346   0.328
63150W        W31555  23.520   8.434   1.267
63151W        W31556   1.222   3.967   0.646
63152W        W31557  42.914  38.337  11.463
63153W        W31558   5.368  17.625  11.641
63154W        W31559  26.770  16.559   4.630
63155W        W31560  32.127  44.508  12.329
63156W        W31561  16.262  24.168  13.073
63157W        W31562  27.568  10.733  14.143
63158W        W31563  16.307  15.565   4.488
63159W        W31564  15.130  37.799  10.726
63160W        W31565  28.608  25.791  11.977
63161W        W31566  38.384  34.594   4.601
63162W        W31567  25.150  36.392   1.221
63163W        W31568  12.335  33.529  10.572
63164W        W31569  35.625  39.488  11.185
63165W        W31570  39.336  20.009  13.962
63166W        W31571  43.132  17.630  11.172
63167W        W31572  41.250   4.474  14.981
63168W        W31573  33.056   3.106   4.075
63169W        W31574  17.173  40.747   4.659
63170W        W31575  14.125  41.322  10.831
63171W        W31576   6.286  31.584   1.834
63172W        W31577  25.538  34.044   0.178
63173W        W31578  16.393  13.594  10.995
63174W        W31579   1.503  39.184   0.310
63175W        W31580  31.974  31.482   3.178
63176W        W31581  21.104  38.282  13.505
63177W        W31582   5.876  17.171  14.338
63178W        W31583  44.538  34.365   2.480
63179W        W31584  15.731  29.983  10.670
63180W        W31585  38.937  12.324   1.337
63181W        W31586   2.669  15.497   2.748
63182W        W31587  29.775  28.372  13.847
63183W        W31588   7.713   4.379  12.060
63184W        W31589  38.072   6.321   3.220
63185W        W31590   1.811   3.668  11.156
63186W        W31591  15.881  28.874  13.796
63187W        W31592   6.725  10.719   1.913
63188W        W31593  38.341  40.785  11.101
63189W        W31594   4.901  10.246   5.128
63190W        W31595  16.451  11.518  12.389
63191W        W31596   3.767   5.840  11.698
63192W        W31597  13.279   5.797   3.720
63193W        W31598  13.737  26.768   2.861
63194W        W31599  20.973  22.723  10.990
63195W        W31600  43.515  32.491   4.534
63196W        W31601   8.954  35.775   4.211
63197W        W31602   9.562   0.818   4.637
63198W        W31603  31.580   2.411  10.608
63199W        W31604  21.059   3.449  10.439
63200W        W31605  17.820  38.307   0.919
63201W        W31606  19.555  24.041   3.141
63202W        W31607  31.462   1.606  12.962
63203W        W31608  23.872  28.377  13.754
63204W        W31609  40.506   1.364   1.389
63205W        W31610  30.177  31.050   3.367
63206W        W31611  44.516  25.956   4.399
63207W        W31612  16.813   1.798  13.511
63208W        W31613  17.367  12.829   1.000
63209W        W31614  15.349  27.691  10.750
63210W        W31615  29.656  37.431  12.858
63211W        W31616  21.543   1.936  12.874
63212W        W31617  38.456  32.614  12.552
63213W        W31618  10.161  26.976  13.798
63214W        W31619  31.473  19.952   1.806
63215W        W31620  25.413  20.185   3.677
63216W        W31621   3.620  36.430   0.755
63217W        W31622  35.873   2.389   1.483
63218W        W31623  37.831   8.698  14.244
63219W        W31624  42.970  37.058   3.882
63220W        W31625  13.196  13.602  13.919
63221W        W31626   8.645  33.709   1.187
63222W        W31627  40.315  31.697   0.397
63223W        W31628  33.489   6.344   4.177
63224W        W31629  39.968   8.886   0.694
63225W        W31630  15.399   3.478  11.214
63226W        W31631  27.049   2.928  13.545
63227W        W31632  33.486  28.792   4.457
63228W        W31633  31.423   2.600  12.119
63229W        W31634  29.694  44.032   0.689
63230W        W31635   8.355  16.727   3.607
63231W        W31636   9.891  22.084  14.451
63232W        W31637  42.380  36.874  11.403
63233W        W31638   5.733  17.870   9.857
63234W        W31639  20.176  41.753   4.493
63235W        W31640  14.356  16.323   4.170
63236W        W31641  38.427  41.957   2.865
63237W        W31642  22.058   1.319  13.933
63238W        W31643  18.716  19.157  12.142
63239W        W31644  14.830  24.078   0.694
63240W        W31645  44.381  29.804   4.527
63241W        W31646  22.140  31.983   4.450
63242W        W31647   7.702  43.000  14.459
63243W        W31648  23.197  37.170   1.337
63244W        W31649  26.152  13.667  14.480
63245W        W31650   7.220  28.693  11.080
63246W        W31651   8.897  30.494   1.653
63247W        W31652   0.899  12.281  10.754
63248W        W31653  36.818  10.238   2.661
63249W        W31654  33.086  13.576   4.284
63250W        W31655  19.014  36.971   3.161
63251W        W31656  31.517  10.546   4.077
63252W        W31657  34.644  15.710   3.905
63253W        W31658  26.937   1.984  11.128
63254W        W31659  12.349  28.228   0.129
63255W        W31660  23.528  29.187   0.484
63256W        W31661  13.413  42.451  12.648
63257W        W31662   1.141  31.739   0.532
63258W        W31663  19.484   4.913  13.818
63259W        W31664  27.051  37.414   2.109
63260W        W31665   8.149  29.285  14.347
63261W        W31666  11.628  21.997  12.027
63262W        W31667  34.863  32.478  12.329
63263W        W31668  35.909  34.383  10.640
63264W        W31669  41.024  40.327   4.597
63265W        W31670  27.824  33.502   0.162
63266W        W31671  15.378  21.574   0.920
63267W        W31672  11.660  30.420  10.636
63268W        W31673  32.053  14.399   0.984
63269W        W31674   7.207  17.213  11.187
63270W        W31675   4.451  43.204  11.890
63271W        W31676  42.259  28.488  12.906
63272W        W31677  31.506  29.045  13.571
63273W        W31678  29.480  25.184   1.892
63274W        W31679  35.886  43.788  11.737
63275W        W31680  25.741  42.780  11.601
63276W        W31681  38.961  10.121   5.036
63277W        W31682  18.264  30.355   0.864
63278W        W31683  12.419  15.726   4.425
63279W        W31684  24.439  11.464   1.001
63280W        W31685  29.244   7.817  10.676
63281W        W31686  16.063  38.196   4.172
63282W        W31687   1.056  10.863  13.903
63283W        W31688  40.945  10.170  11.655
63284W        W31689  36.268  43.715  12.505
63285W        W31690  35.135   2.825  11.845
63286W        W31691  31.051   2.759  14.900
63287W        W31692  17.300  34.492   3.238
63288W        W31693   0.984   3.124  10.396
63289W        W31694  24.568   8.067   1.690
63290W        W31695   0.449   6.949  14.792
63291W        W31696  11.803  44.925   5.032
63292W        W31697  30.551  11.134  12.236
63293W        W31698   5.249  23.156   2.230
63294W        W31699  28.349   2.315   2.702
63295W        W31700   0.679  12.134   1.860
63296W        W31701  18.840   8.670  12.132
63297W        W31702  23.320  28.442  14.552
63298W        W31703  13.149  17.337  14.495
63299W        W31704   1.239   9.353   4.929
63300W        W31705   1.569  23.602  11.992
63301W        W31706  25.117   7.103   9.780
63302W        W31707  40.961   4.992   0.903
63303W        W31708  31.701   3.376  14.464
63304W        W31709  44.682  36.083   4.281
63305W        W31710  34.329  24.212  11.962
63306W        W31711   2.406  26.817   4.538
63307W        W31712  44.037   5.048   3.596
63308W        W31713  25.966  18.609  12.124
63309W        W31714   2.703  30.268  12.972
63310W        W31715  14.411  41.328   4.640
63311W        W31716   1.799  28.503   1.210
63312W        W31717  14.579   2.184   5.220
63313W        W31718  21.717  27.559   0.032
63314W        W31719   5.203  15.663  10.652
63315W        W31720   3.965  31.979   4.621
63316W        W31721  16.024   0.672   0.290
63317W        W31722  35.351  38.362  11.910
63318W        W31723  14.190  40.784   0.190
63319W        W31724   3.817  37.025  13.547
63320W        W31725  29.198  22.702   1.013
63321W        W31726  20.586  37.843   2.293
63322W        W31727   8.888  23.410  12.364
63323W        W31728   9.202  16.890   2.616
63324W        W31729  43.768  21.839   3.385
63325W        W31730  22.583   1.209  12.209
63326W        W31731  29.974  17.853  11.591
63327W        W31732  24.690   1.349   1.003
63328W        W31733  37.903  24.449  11.599
63329W        W31734  21.627   9.722  13.315
63330W        W31735  15.710   1.934   3.691
63331W        W31736   0.006   6.169   1.296
63332W        W31737  13.801  23.737   1.824
63333W        W31738   5.336  44.813   4.517
63334W        W31739   0.465  12.709  11.603
63335W        W31740   3.109  11.819   1.731
63336W        W31741  13.634  28.478   4.580
63337W        W31742  35.545  44.740   1.905
63338W        W31743  32.205  15.636  14.419
63339W        W31744   7.417  32.614   3.379
63340W        W31745  40.468  44.890  12.313
63341W        W31746  24.660  39.506  14.028
63342W        W31747  37.840  26.683  12.750
63343W        W31748  20.614  19.232  12.927
63344W        W31749  44.347  43.428   3.703
63345W        W31750   2.280  28.402  12.404
63346W        W31751   7.112  26.562   1.660
63347W        W31752  36.461  19.410  13.080
63348W        W31753  26.782  19.585   1.709
63349W        W31754  39.109  12.449  12.899
63350W        W31755  37.877  35.200   2.298
63351W        W31756  31.104  30.635   4.633
63352W        W31757  18.965  18.074  12.016
63353W        W31758  30.191  27.032   3.221
63354W        W31759   6.755  11.199   1.001
63355W        W31760  18.381  16.437   0.848
63356W        W31761  30.962  35.673  14.302
63357W        W31762  27.399   8.625   2.991
63358W        W31763  36.480   9.591  11.245
63359W        W31764  43.772  18.114  13.504
63360W        W31765  33.502  13.571   3.374
63361W        W31766  41.065  15.101   4.156
63362W        W31767  12.217  23.598  11.650
63363W        W31768   7.198  21.676   0.918
63364W        W31769  21.032  12.225   0.917
63365W        W31770   7.861   1.091   2.609
63366W        W31771  40.343  23.445  13.791
63367W        W31772  20.721  41.957   0.493
63368W        W31773  13.656  34.576   1.157
63369W        W31774  27.517   9.309   0.364
63370W        W31775  33.449  40.781  11.143
63371W        W31776  32.311  23.471  11.199
63372W        W31777  42.898  11.311   2.391
63373W        W31778  13.212  13.634  12.369
63374W        W31779  43.504  14.394   3.982
63375W        W31780   4.366   8.694  11.159
63376W        W31781   2.935  22.744  12.517
63377W        W31782  20.032  29.196  13.675
63378W        W31783  41.879  25.440  14.496
63379W        W31784  34.972  18.571   2.017
63380W        W31785   3.435  18.280   1.326
63381W        W31786   2.762   1.698  14.340
63382W        W31787  22.549  39.755   1.646
63383W        W31788  43.479  13.648  10.970
63384W        W31789  41.952  23.435   1.255
63385W        W31790  11.589  39.370  12.892
63386W        W31791   7.806  15.634  12.846
63387W        W31792  26.153  34.082  10.581
63388W        W31793  32.771   3.006  12.040
63389W        W31794  15.479  31.438  10.178
63390W        W31795  14.640  15.838  14.850
63391W        W31796   5.231  26.155   4.530
63392W        W31797   4.169  24.747  10.760
63393W        W31798  27.907  32.069   4.119
63394W        W31799   3.734   5.537  13.103
63395W        W31800  35.896   8.680  11.972
63396W        W31801  31.975   6.254  12.005
63397W        W31802  11.106   7.675   0.929
63398W        W31803  38.496  24.190  14.281
63399W        W31804   7.001  29.705   3.958
63400W        W31805  41.323  29.020   0.267
63401W        W31806  19.333  17.094  13.040
63402W        W31807   5.910  23.886   0.115
63403W        W31808  25.157  35.865   1.221
63404W        W31809   7.952   8.346   4.593
63405W        W31810  12.331  31.664   5.029
63406W        W31811   3.479  24.011   1.880
63407W        W31812  32.077  26.670   2.288
63408W        W31813  10.364   8.505   4.922
63409W        W31814   5.799   0.404   0.414
63410W        W31815  25.474  44.979   3.144
63411W        W31816  32.553   8.913   5.025
63412W        W31817   8.782  10.923  14.946
63413W        W31818  21.751  36.358   3.785
63414W        W31819  44.796   4.799  13.667
63415W        W31820  26.700  40.786   2.220
63416W        W31821  18.260  23.879  10.337
63417W        W31822  20.097  16.557  12.011
63418W        W31823   1.276   4.856   0.682
63419W        W31824  19.728   5.948   1.601
63420W        W31825  23.114  44.628   1.865
63421W        W31826   1.049   5.219   2.803
63422W        W31827  28.556   7.898  11.208
63423W        W31828  11.843  33.686  14.926
63424W        W31829   9.129  24.086  12.942
63425W        W31830  26.209  24.532  12.957
63426W        W31831  30.022  36.261  14.939
63427W        W31832  40.397  33.412  13.312
63428W        W31833  41.588  16.313  13.927
63429W        W31834  19.330  39.994   0.009
63430W        W31835   7.902   9.765   2.815
63431W        W31836   0.097  30.851   4.036
63432W        W31837  30.271  22.137   0.527
63433W        W31838   8.209  16.026   1.388
63434W        W31839  39.028   0.746  11.176
63435W        W31840  14.128  21.724  13.485
63436W        W31841  36.980  17.231   0.486
63437W        W31842   4.721  38.731   0.334
63438W        W31843  29.935  11.515  11.106
63439W        W31844  36.765  41.979   3.329
63440W        W31845   9.795  18.636   1.376
63441W        W31846  25.139  13.028   4.223
63442W        W31847  36.163  42.565   0.141
63443W        W31848  38.540   6.167  12.145
63444W        W31849  27.779  40.999  12.843
63445W        W31850  26.460  37.898   0.847
63446W        W31851  22.475  42.555  11.548
63447W        W31852   6.844  37.330   1.748
63448W        W31853  37.804  30.588  12.962
63449W        W31854  25.110   3.754  12.128
63450W        W31855   6.200  34.968  11.945
63451W        W31856   5.716  38.887   1.924
63452W        W31857  22.643  16.158  13.241
63453W        W31858  38.329  15.842   3.682
63454W        W31859  24.554  28.964  10.863
63455W        W31860  37.464  22.124  10.630
63456W        W31861  33.869  31.899  14.882
63457W        W31862  36.581  20.568  14.332
63458W        W31863  44.832  39.833   1.275
63459W        W31864  37.562  13.219  10.666
63460W        W31865   6.281  42.894   2.171
63461W        W31866  27.077  18.442   3.646
63462W        W31867   9.347  23.407  11.043
63463W        W31868   8.255  31.899  11.555
63464W        W31869  30.748   1.828  12.134
63465W        W31870  19.646  36.321  14.353
63466W        W31871  44.453  34.602  11.626
63467W        W31872   2.115   4.291   1.824
63468W        W31873  38.093  29.918  12.490
63469W        W31874  36.859  10.307  12.853
63470W        W31875   7.415  36.526  11.178
63471W        W31876  39.041  37.815  10.693
63472W        W31877  44.899   2.717   3.362
63473W        W31878   3.762  14.594  14.828
63474W        W31879  18.723  40.881  14.119
63475W        W31880  34.670  25.143   3.703
63476W        W31881  28.412   2.790   4.706
63477W        W31882  28.262  34.031  12.407
63478W        W31883  23.730  25.158   4.536
63479W        W31884  44.505  22.940  14.120
63480W        W31885  32.343  19.455  12.390
63481W        W31886   4.233   7.812  11.178
63482W        W31887  25.802   6.409  12.018
63483W        W31888  10.690  11.721   2.402
63484W        W31889  24.263  27.995   5.009
63485W        W31890   4.674  20.684  12.818
63486W        W31891  22.428  23.773   3.242
63487W        W31892  27.003   7.184   4.667
63488W        W31893  26.918   1.838   4.856
63489W        W31894  21.246   9.772   1.276
63490W        W31895  25.987  22.388  12.511
63491W        W31896   5.413  43.255  13.108
63492W        W31897  18.330  11.344   3.827
63493W        W31898   4.196  40.267   2.423
63494W        W31899  39.439   0.888   2.865
63495W        W31900  28.524  37.641   3.278
63496W        W31901  36.827   8.614   4.208
63497W        W31902   3.743  26.577   0.916
63498W        W31903  26.248  14.128   3.089
63499W        W31904  25.518  42.504  12.963
63500W        W31905  34.787  26.022  12.456
63501W        W31906   2.219  30.981  11.198
63502W        W31907   4.988   5.799  10.759
63503W        W31908  30.699  38.908  13.819
63504W        W31909  24.642  44.427   2.884
63505W        W31910  43.258  31.037   0.392
63506W        W31911  44.034  32.386   4.521
63507W        W31912  39.930  14.514  12.490
63508W        W31913   6.206  13.362  13.512
63509W        W31914  15.807   2.180   2.801
63510W        W31915  26.160  20.733  13.068
63511W        W31916  15.390  20.630   0.442
63512W        W31917  23.453  21.868   1.518
63513W        W31918  18.062  38.321  14.093
63514W        W31919   6.932  31.961  13.613
63515W        W31920  20.956   7.236  14.328
63516W        W31921   7.799  24.829  14.982
63517W        W31922  36.263  33.371   0.799
63518W        W31923  27.976  31.579   2.205
63519W        W31924  35.148  36.124  14.387
63520W        W31925  20.793   4.691   1.837
63521W        W31926  24.991  19.549   1.953
63522W        W31927  24.563  21.196   3.503
63523W        W31928  44.478  44.807   0.747
63524W        W31929  44.785   2.161  14.354
63525W        W31930  25.751  30.513   3.856
63526W        W31931  27.965   3.773   1.644
63527W        W31932  21.181  24.075   5.709
63528W        W31933  24.871  37.099  13.158
63529W        W31934  10.878   4.316  13.345
63530W        W31935   7.797  33.562  11.157
63531W        W31936  40.512  20.001   2.347
63532W        W31937   0.112  39.458  12.674
63533W        W31938  20.624   0.279  13.051
63534W        W31939  38.816  22.228  13.006
63535W        W31940  28.850   4.301  12.422
63536W        W31941  16.850  35.028   2.775
63537W        W31942  31.542  38.461  12.369
63538W        W31943  10.373  17.593  12.503
63539W        W31944   3.312  11.947   3.648
63540W        W31945   1.193   2.443  11.612
63541W        W31946  42.737  21.370  12.503
63542W        W31947  19.765  28.135   3.720
63543W        W31948  36.307  28.982  10.795
63544W        W31949  29.031   8.819  14.863
63545W        W31950  40.722  38.472  10.704
63546W        W31951  18.298  34.230   2.699
63547W        W31952  13.309  20.048  13.643
63548W        W31953  41.806  44.615  14.440
63549W        W31954  39.044  22.110  13.462
63550W        W31955  41.492  14.760   4.066
63551W        W31956  23.789  35.434  12.164
63552W        W31957  33.153   0.894   4.196
63553W        W31958  23.992  30.208  13.580
63554W        W31959  21.990  10.874   1.890
63555W        W31960  13.572  38.838   3.774
63556W        W31961   1.195  14.506  11.932
63557W        W31962  41.304  30.965  13.555
63558W        W31963  10.122  22.062  10.527
63559W        W31964  42.005  28.466   4.664
63560W        W31965  36.948   6.268  13.134
63561W        W31966  42.744  40.331   1.830
63562W        W31967  21.669   3.679   0.885
63563W        W31968  37.487  14.652  14.383
63564W        W31969  28.920  28.969  12.002
63565W        W31970  30.462  40.435   4.685
63566W        W31971  31.050   8.288  10.836
63567W        W31972  40.802  15.341  11.558
63568W        W31973  38.134  14.174  10.800
63569W        W31974  22.467  19.990  14.974
63570W        W31975  21.160  41.035   0.910
63571W        W31976  21.616  28.542  12.636
63572W        W31977  37.593  12.189   3.933
63573W        W31978  40.821  19.600  12.537
63574W        W31979   3.703  26.641   4.267
63575W        W31980  24.289  26.558   2.734
63576W        W31981  43.951  18.771  12.316
63577W        W31982  44.001  33.584   1.826
63578W        W31983  18.348   2.808  11.618
63579W        W31984  32.519   8.902  12.443
63580W        W31985  33.537  43.354   0.857
63581W        W31986  34.344  32.069   1.165
63582W        W31987  44.394   3.815  10.899
63583W        W31988  17.755  13.867   3.115
63584W        W31989  14.101  40.044  12.087
63585W        W31990  37.935   8.629  14.741
63586W        W31991  31.912  19.016  14.397
63587W        W31992  28.215  12.384   4.656
63588W        W31993  30.674  16.864  12.805
63589W        W31994  32.361  29.786   2.363
63590W        W31995   7.597  23.088  14.864
63591W        W31996  32.493  36.437  14.448
63592W        W31997  10.053  14.836   0.358
63593W        W31998   6.200   4.090   0.269
63594W        W31999  33.078  16.186   3.265
63595W        W32000  36.138  44.728  11.538
63596W        W32001  10.864  10.956  13.005
63597W        W32002   7.433   2.260   4.544
63598W        W32003  17.338  20.600  14.464
63599W        W32004  26.162   6.240   4.732
63600W        W32005  38.224  15.877  11.021
63601W        W32006  30.009  24.245   3.047
63602W        W32007  22.089   6.240   3.693
63603W        W32008   2.317  28.926  12.428
63604W        W32009   2.417  35.285  11.572
63605W        W32010   1.283  44.026   1.690
63606W        W32011  44.170  18.058   3.645
63607W        W32012  33.297  21.175   4.222
63608W        W32013   8.085  32.089  12.021
63609W        W32014  23.890  28.071   3.355
63610W        W32015  14.818  37.244  12.564
63611W        W32016  21.423  36.186  14.402
63612W        W32017  22.978  35.498   0.737
63613W        W32018   7.505  21.572   0.510
63614W        W32019   0.234   3.263  12.697
63615W        W32020  38.341  37.980  14.711
63616W        W32021  29.222  44.717   1.364
63617W        W32022   6.259  33.125  13.121
63618W        W32023  19.124  21.631  10.719
63619W        W32024  21.516  44.562   3.194
63620W        W32025   7.777  24.528   2.167
63621W        W32026  40.493  13.532  13.395
63622W        W32027  44.689   8.122  14.787
63623W        W32028  44.420   8.327  10.475
63624W        W32029  25.543  14.708  13.026
63625W        W32030  22.322   6.248   3.233
63626W        W32031  20.981   3.817   3.607
63627W        W32032   6.300  19.678   2.933
63628W        W32033  38.390  19.377   4.086
63629W        W32034  14.559   7.292  13.393
63630W        W32035  39.839  35.985   4.718
63631W        W32036  11.396  20.129   0.882
63632W        W32037  43.500  37.989  13.495
63633W        W32038  43.006  34.124  14.909
63634W        W32039  14.637  22.033   0.256
63635W        W32040  31.914  28.129  13.775
63636W        W32041  13.759  25.716  12.882
63637W        W32042  14.824  25.958  12.888
63638W        W32043  41.329  31.339   0.773
63639W        W32044  10.294   9.795  12.066
63640W        W32045  43.485  14.845  11.377
63641W        W32046  35.964   4.304   2.360
63642W        W32047  24.438  36.282   1.829
63643W        W32048  12.953  24.251  13.269
63644W        W32049   6.164  18.658  13.358
63645W        W32050  17.062  27.433  11.535
63646W        W32051  14.653   2.530   3.100
63647W        W32052  37.863  31.046  14.298
63648W        W32053   0.801  13.386  14.440
63649W        W32054   1.390  36.618  10.929
63650W        W32055  14.145   2.385  14.355
63651W        W32056  43.446  42.001  12.669
63652W        W32057  21.265  14.860   4.450
63653W        W32058   5.351  27.520   3.445
63654W        W32059   5.341  19.576   1.174
63655W        W32060  32.178  20.713  14.021
63656W        W32061   9.706   8.437  10.747
63657W        W32062  32.519   6.364   0.866
63658W        W32063   5.875  38.433   2.178
63659W        W32064   3.202  40.040  13.483
63660W        W32065   8.283  23.110  10.797
63661W        W32066   7.703  44.244  14.893
63662W        W32067  11.841  34.447   1.374
63663W        W32068  20.623  13.202   0.460
63664W        W32069  38.524  21.657  11.366
63665W        W32070  30.235  34.891  11.121
63666W        W32071  18.301  29.037  11.974
63667W        W32072  18.165  41.429   1.691
63668W        W32073  35.789  14.255   1.854
63669W        W32074  33.035  41.294   1.698
63670W        W32075  36.986  36.152  13.789
63671W        W32076  34.442  44.208   1.951
63672W        W32077   8.703  12.198  10.550
63673W        W32078   1.420  35.464  14.346
63674W        W32079  24.310  28.998   1.145
63675W        W32080  16.676   5.811   1.284
63676W        W32081  18.177   9.105   1.760
63677W        W32082   8.672  39.908  11.594
63678W        W32083   0.899   9.514   4.544
63679W        W32084   4.405  18.588  14.853
63680W        W32085  30.634  21.045  10.407
63681W        W32086  41.763  21.516   1.480
63682W        W32087  15.572  44.805  10.954
63683W        W32088  37.384  14.619  12.905
63684W        W32089  12.826   3.244  12.360
63685W        W32090  21.582  43.267   1.296
63686W        W32091  43.661  24.199   1.297
63687W        W32092   4.147  20.965   3.773
63688W        W32093  26.028  11.143   4.828
63689W        W32094  13.275  18.162  13.100
63690W        W32095  25.423  27.143   1.352
63691W        W32096  34.361  35.560  12.433
63692W        W32097  21.830  25.542  14.338
63693W        W32098  44.280  18.840   2.683
63694W        W32099  11.108  24.777  10.772
63695W        W32100  21.685  28.954  12.927
63696W        W32101  15.183   1.265   4.640
63697W        W32102  31.205   6.638   2.808
63698W        W32103  21.581  27.661   3.692
63699W        W32104  43.413   6.633   0.428
63700W        W32105  25.325  23.269  12.446
63701W        W32106  20.625  34.870  12.890
63702W        W32107  32.497  16.467  10.743
63703W        W32108  38.125  44.695   3.559
63704W        W32109   7.890  30.679  13.606
63705W        W32110   7.225  33.051   0.985
63706W        W32111   5.834  44.779  11.101
63707W        W32112  10.249  33.657   2.659
63708W        W32113  32.472  32.221   3.265
63709W        W32114  34.522   1.438   2.288
63710W        W32115  26.499  29.967  14.299
63711W        W32116   6.513  32.471   4.940
63712W        W32117   3.656  29.091   3.397
63713W        W32118  21.179   2.841   3.667
63714W        W32119   1.777   6.869   0.125
63715W        W32120  41.820  34.132  10.384
63716W        W32121  26.202  21.834   3.233
63717W        W32122  16.115  39.436   4.331
63718W        W32123  21.526  31.485   0.032
63719W        W32124  16.303  23.751  11.010
63720W        W32125  22.216  22.017   3.317
63721W        W32126  12.770  13.165   4.876
63722W        W32127   7.404   9.037   5.029
63723W        W32128  21.681  33.898  14.131
63724W        W32129  11.439   4.710   3.332
63725W        W32130  16.117  36.153   4.171
63726W        W32131  37.060  30.100  14.382
63727W        W32132  35.568  20.926  10.625
63728W        W32133  14.079  24.122   2.690
63729W        W32134  21.345   7.128   2.722
63730W        W32135  17.724  25.567  12.905
63731W        W32136  22.106   1.198   1.484
63732W        W32137  39.827  26.567   1.765
63733W        W32138  44.086  29.847   4.958
63734W        W32139  30.075  39.886   4.200
63735W        W32140  34.649  33.954  10.813
63736W        W32141  15.247  38.073  12.539
63737W        W32142  21.944  30.700  11.981
63738W        W32143  16.614   2.966   4.702
63739W        W32144  43.362  37.924   3.316
63740W        W32145  20.246   2.743   3.890
63741W        W32146  18.564   8.311   2.740
63742W        W32147  31.597  38.050   4.965
63743W        W32148   2.265   8.884   1.976
63744W        W32149  31.970  29.862  12.458
63745W        W32150  34.645  35.694   0.994
63746W        W32151   2.333  36.787   3.893
63747W        W32152  27.128  32.085  11.710
63748W        W32153   9.191  37.285  10.899
63749W        W32154  30.481  41.725  11.160
63750W        W32155  15.883  34.902  13.611
63751W        W32156  35.497  37.406  13.201
63752W        W32157   0.204  35.031  14.453
63753W        W32158  12.916  15.634  10.620
63754W        W32159  31.763   5.179  11.503
63755W        W32160  38.878  34.566  12.626
63756W        W32161   5.928  18.363   4.870
63757W        W32162  21.240  25.547   4.470
63758W        W32163  43.735  27.149  12.555
63759W        W32164  35.093  34.188  10.917
63760W        W32165  40.821   7.884   1.630
63761W        W32166  40.232  43.332  14.761
63762W        W32167   0.014  15.544  12.416
63763W        W32168  12.178  12.254   3.195
63764W        W32169   0.359   7.697  11.114
63765W        W32170  31.146  11.903  14.176
63766W        W32171  23.826   7.804  14.428
63767W        W32172  13.885  11.274   1.005
63768W        W32173  24.380   7.242  12.174
63769W        W32174  14.283  13.055   3.268
63770W        W32175  14.601   1.243  14.523
63771W        W32176  37.606  25.202  14.900
63772W        W32177  20.980  26.048  12.865
63773W        W32178  30.991  43.321   3.196
63774W        W32179  41.533  30.382  12.393
63775W        W32180  17.510  38.773  13.314
63776W        W32181  14.232  19.138   3.855
63777W        W32182  37.541  35.601   4.588
63778W        W32183  10.177  34.013  11.678
63779W        W32184   2.987  11.778  13.829
63780W        W32185  17.815  42.476  12.042
63781W        W32186   7.100   5.107   1.375
63782W        W32187   2.201  33.149  14.929
63783W        W32188  25.574  10.838   3.323
63784W        W32189  12.732  16.111   2.185
63785W        W32190  29.184  29.262  12.336
63786W        W32191  29.085  44.432  12.138
63787W        W32192  33.232  17.798   3.356
63788W        W32193  32.330  19.738  10.177
63789W        W32194   5.162  44.360  10.710
63790W        W32195  20.157  17.771  14.867
63791W        W32196  10.491  26.295  14.896
63792W        W32197  11.334  37.830   3.165
63793W        W32198  37.528  28.811   2.222
63794W        W32199  30.626   9.340  14.289
63795W        W32200  38.651  23.791   3.286
63796W        W32201  39.481  43.264  12.066
63797W        W32202  16.354  31.060   2.637
63798W        W32203  33.442   8.028  11.629
63799W        W32204  34.613   8.388   3.260
63800W        W32205  21.562  39.039   1.128
63801W        W32206  33.375  41.291  13.940
63802W        W32207  43.905  19.711   2.360
63803W        W32208  15.158  25.821   1.797
63804W        W32209  10.604   5.835   3.911
63805W        W32210  40.037  21.234   4.278
63806W        W32211   5.662  23.509  14.277
63807W        W32212  26.724  26.915   3.692
63808W        W32213  35.067  12.769  13.553
63809W        W32214  31.339  19.537  14.296
63810W        W32215  13.629  12.559   2.813
63811W        W32216  29.946  36.138   2.714
63812W        W32217  19.295  28.880   4.674
63813W        W32218   6.979  37.750   2.188
63814W        W32219  29.175   3.789  14.039
63815W        W32220  11.706   1.662   0.512
63816W        W32221  28.912  10.363  12.960
63817W        W32222  15.434  29.118  13.563
63818W        W32223  41.587  13.231   2.286
63819W        W32224   1.717  17.607   3.801
63820W        W32225  44.564  29.720  12.202
63821W        W32226  43.827   4.532   4.571
63822W        W32227   4.025  30.138   4.618
63823W        W32228  16.625   3.923  14.511
63824W        W32229  11.899  39.994  12.163
63825W        W32230  29.638  18.710  14.542
63826W        W32231  31.211   7.345  14.248
63827W        W32232  43.439  24.031  13.961
63828W        W32233   2.237   9.037  11.236
63829W        W32234  19.104  25.090  12.885
63830W        W32235  41.372  18.816  11.072
63831W        W32236  28.412  13.233   2.685
63832W        W32237   4.189  22.818  14.323
63833W        W32238  39.095   0.909   1.851
63834W        W32239  26.199  10.545   0.639
63835W        W32240  29.580  26.084   4.040
63836W        W32241  22.322  22.531   2.397
63837W        W32242  37.848  33.265  13.389
63838W        W32243  25.483  42.109  14.312
63839W        W32244  13.224  41.997   0.267
63840W        W32245  22.035  21.112  13.581
63841W        W32246  24.642  27.245  11.666
63842W        W32247  25.586   8.988  13.904
63843W        W32248   8.211  37.915  13.116
63844W        W32249  20.563   5.517  10.627
63845W        W32250  39.058   8.410   4.742
63846W        W32251  33.197  12.125   2.346
63847W        W32252  15.307  31.459   9.700
63848W        W32253  41.049  32.081   4.957
63849W        W32254  10.140  19.725   2.039
63850W        W32255  31.647  33.074  13.841
63851W        W32256   4.448  10.908  14.287
63852W        W32257  23.294   2.817   2.865
63853W        W32258  29.550  39.959  11.707
63854W        W32259  13.211   3.825   1.777
63855W        W32260  42.197  18.521   1.923
63856W        W32261   6.371   8.342   2.848
63857W        W32262  24.325  20.219  11.969
63858W        W32263  10.139   9.390   4.154
63859W        W32264  14.176   5.657  12.069
63860W        W32265   1.112   0.459   4.571
63861W        W32266  27.998   3.015  10.541
63862W        W32267   7.594  23.579   2.311
63863W        W32268  40.537   0.452   3.006
63864W        W32269  16.682  11.382   4.638
63865W        W32270  10.343  42.894   0.356
63866W        W32271  10.591  29.456  13.069
63867W        W32272  32.895   2.168  10.498
63868W        W32273  27.673  39.019   2.439
63869W        W32274  24.171  39.139  13.418
63870W        W32275  18.307  21.266  14.432
63871W        W32276  36.818  36.124  10.938
63872W        W32277   6.192  33.957   3.644
63873W        W32278  34.619  40.834   1.430
63874W        W32279  14.828  10.160  14.795
63875W        W32280  24.192  19.843  13.065
63876W        W32281  42.380  29.064   0.403
63877W        W32282  24.016  36.777  14.835
63878W        W32283  23.569  44.825   1.691
63879W        W32284  19.880   3.005   1.270
63880W        W32285  28.019  39.092   3.784
63881W        W32286  15.150  40.875  11.838
63882W        W32287  11.857  15.831  11.481
63883W        W32288   3.823  33.311   1.654
63884W        W32289  22.967  17.818  11.160
63885W        W32290  44.602  31.338  12.801
63886W        W32291  40.550   0.910   3.727
63887W        W32292  13.034  20.039   1.172
63888W        W32293  35.153  42.370   2.833
63889W        W32294  21.802  28.148  11.967
63890W        W32295  36.971   1.173   4.535
63891W        W32296   6.768  13.236  14.574
63892W        W32297  18.586  42.873  13.105
63893W        W32298  10.272   2.817  11.633
63894W        W32299  40.844  35.947  14.995
63895W        W32300  10.849  36.099   3.236
63896W        W32301  36.590  26.010  11.178
63897W        W32302  18.830   8.428  11.664
63898W        W32303   3.347  18.678  14.128
63899W        W32304  29.107  14.163   4.121
63900W        W32305  26.051  37.854  14.797
63901W        W32306  33.200   5.381  13.499
63902W        W32307  17.606  37.674  11.144
63903W        W32308  18.261  32.431  13.208
63904W        W32309  29.984   2.434  14.478
63905W        W32310  37.208  15.655   0.471
63906W        W32311  12.865  29.669  14.526
63907W        W32312  20.800   3.255  13.692
63908W        W32313  32.939  10.990  13.596
63909W        W32314  30.403   6.944   2.612
63910W        W32315   4.473  18.207   4.585
63911W        W32316  36.761  36.576  14.875
63912W        W32317   6.810  44.967  14.055
63913W        W32318  28.967   8.441   4.562
63914W        W32319  29.111  25.942   4.257
63915W        W32320   4.308  21.373   0.332
63916W        W32321   7.476  24.946  12.932
63917W        W32322  35.765  10.628  13.449
63918W        W32323  11.731  42.513   1.135
63919W        W32324  32.408  42.937   2.896
63920W        W32325   6.779   6.162   1.709
63921W        W32326  34.431  25.305  10.674
63922W        W32327  29.506  16.315   1.140
63923W        W32328  31.377  11.803   4.050
63924W        W32329  19.274  32.673   0.689
63925W        W32330   8.810   4.827  10.790
63926W        W32331  34.534  12.392  10.915
63927W        W32332  37.397  43.707  11.530
63928W        W32333   9.592  24.094  13.792
63929W        W32334   7.152  33.069  11.537
63930W        W32335  23.655  18.668   1.731
63931W        W32336  21.291  31.117   4.706
63932W        W32337  34.470   8.795   2.076
63933W        W32338  10.142  31.728  11.934
63934W        W32339   3.733  12.319   2.665
63935W        W32340  14.620  34.693   0.336
63936W        W32341   2.393  10.251   9.975
63937W        W32342  27.754  44.425   3.751
63938W        W32343  10.832   2.145   4.501
63939W        W32344   8.640   9.868   4.204
63940W        W32345  27.939  39.461   2.298
63941W        W32346  18.270  41.602  14.082
63942W        W32347  22.598  11.263   0.778
63943W        W32348   3.675   8.514  11.536
63944W        W32349  12.002  30.531   5.443
63945W        W32350  38.065  25.442   3.769
63946W        W32351   5.323   2.259  13.955
63947W        W32352  41.007  25.085   3.778
63948W        W32353  44.872  21.312   2.285
63949W        W32354  25.957  40.931   2.781
63950W        W32355  19.651  24.312  12.935
63951W        W32356  13.697   7.917  11.551
63952W        W32357  31.401  14.583   2.315
63953W        W32358  27.527   6.797  11.507
63954W        W32359  10.884  39.109  12.501
63955W        W32360  38.430  24.122   0.335
63956W        W32361   8.674  33.492   1.874
63957W        W32362  22.022   4.464  12.351
63958W        W32363  27.069  39.281   3.244
63959W        W32364  37.457   9.712  14.041
63960W        W32365   5.877  31.445  10.410
63961W        W32366  35.438  40.985   4.703
63962W        W32367  40.101   3.122   1.327
63963W        W32368  39.346  44.873   0.351
63964W        W32369   4.375  35.576   2.830
63965W        W32370  30.379  35.009   1.848
63966W        W32371  13.179  31.871  14.730
63967W        W32372  18.942  35.848  14.624
63968W        W32373  12.229  11.275   3.225
63969W        W32374   2.735  27.971  14.540
63970W        W32375  44.843  36.614  14.481
63971W        W32376  17.368   6.906  13.664
63972W        W32377  43.528  33.941  14.016
63973W        W32378  33.540  31.333   0.280
63974W        W32379  23.211  11.783  14.092
63975W        W32380  18.269   6.147   0.838
63976W        W32381  33.020  38.961  12.893
63977W        W32382  17.913  11.579  11.652
63978W        W32383  14.679  21.391  14.713
63979W        W32384  31.890  17.979   2.595
63980W        W32385  13.055   8.190  12.760
63981W        W32386   4.312  39.245  13.540
63982W        W32387   4.003   3.415  11.045
63983W        W32388  15.078  28.546   1.378
63984W        W32389  14.255  20.021  14.435
63985W        W32390  15.850   8.893   3.318
63986W        W32391  41.409  37.395   1.679
63987W        W32392  20.864  36.985   4.551
63988W        W32393  39.441  30.675  13.454
63989W        W32394  35.100  32.373   1.198
63990W        W32395  38.195  27.501  12.111
63991W        W32396  13.283   1.428   1.174
63992W        W32397  28.744  25.949   0.789
63993W        W32398  22.321  44.456   2.844
63994W        W32399  26.066  26.561  11.212
63995W        W32400  33.987  12.641   1.770
63996W        W32401  39.374  25.465  13.451
63997W        W32402   1.948  31.875   2.892
63998W        W32403  21.672  27.981  10.141
63999W        W32404  33.065  26.745  11.233
64000W        W32405  30.844  28.629   3.385
64001W        W32406  29.093  11.586   4.494
64002W        W32407  17.354   3.685  11.148
64003W        W32408   1.495  36.679   4.376
64004W        W32409   9.296   9.917  10.699
64005W        W32410  36.062   5.649  10.657
64006W        W32411  28.585  27.084   1.219
64007W        W32412  33.311   6.625  12.943
64008W        W32413  13.699  16.399   3.627
64009W        W32414  24.395  11.335   4.361
64010W        W32415  39.912   7.426  14.138
64011W        W32416  19.319  44.503  13.906
64012W        W32417  11.323  42.380   2.007
64013W        W32418  12.873  28.648  11.627
64014W        W32419  40.027   2.183  12.026
64015W        W32420   6.380  17.605   0.011
64016W        W32421  37.643  23.857  12.966
64017W        W32422  19.344  43.008  11.359
64018W        W32423  41.717  35.657   3.752
64019W        W32424  42.732  11.841   2.293
64020W        W32425  20.601   5.746   0.629
64021W        W32426  21.071  17.610   3.194
64022W        W32427  11.951  31.042  14.816
64023W        W32428  11.790  16.199  14.469
64024W        W32429  32.346   5.745   0.882
64025W        W32430  39.555   5.462   4.519
64026W        W32431  44.332  10.919   2.324
64027W        W32432   0.984  44.877  14.096
64028W        W32433  31.539  15.826   3.408
64029W        W32434   9.904  12.652  10.991
64030W        W32435   5.988  12.660   0.338
64031W        W32436   0.870   1.835   3.374
64032W        W32437  12.797  34.223   1.930
64033W        W32438   5.756  27.625   4.579
64034W        W32439   0.699  22.162  14.852
64035W        W32440  15.577   8.805  11.850
64036W        W32441  33.082  41.785   2.635
64037W        W32442  21.926  31.841   3.597
64038W        W32443  21.369  42.417   1.775
64039W        W32444  10.708  41.706   1.014
64040W        W32445   1.269  16.355   2.710
64041W        W32446  43.438  44.968  10.661
64042W        W32447  26.509  13.142  13.615
64043W        W32448  34.678  27.199  12.546
64044W        W32449  14.334  11.453   3.358
64045W        W32450  11.805  29.681  12.383
64046W        W32451   3.247  18.757   1.327
64047W        W32452  16.687  10.372   2.244
64048W        W32453   4.425  26.461  14.867
64049W        W32454  23.113  27.119  11.928
64050W        W32455  24.923  38.553   4.467
64051W        W32456   3.701  13.226  12.375
64052W        W32457  44.202   0.495  11.491
64053W        W32458  41.232  25.970  12.507
64054W        W32459  28.213  17.840   2.308
64055W        W32460  19.336  42.077  13.845
64056W        W32461  16.271  17.330   1.952
64057W        W32462  16.858  13.869  13.096
64058W        W32463  17.228  15.769  12.089
64059W        W32464  32.850  20.808  13.506
64060W        W32465   2.349   5.526   2.211
64061W        W32466   5.226  36.319  12.686
64062W        W32467  44.784  22.523  10.011
64063W        W32468  10.787  26.691   3.192
64064W        W32469   0.859   1.725  12.954
64065W        W32470  32.061  35.722  12.164
64066W        W32471   4.271   7.971  13.042
64067W        W32472  27.988   8.921  10.201
64068W        W32473  17.291  14.958  12.452
64069W        W32474  38.491   2.266  14.865
64070W        W32475  23.787  25.512  12.964
64071W        W32476   4.098   4.669   5.561
64072W        W32477   5.450   4.824  13.175
64073W        W32478  44.307  40.050  11.658
64074W        W32479   7.670  26.472  13.478
64075W        W32480  27.981  31.624   3.898
64076W        W32481  37.033   9.616  14.325
64077W        W32482  33.716   0.289   2.378
64078W        W32483  30.092  29.198  11.452
64079W        W32484  22.062  23.843   1.810
64080W        W32485  42.854  42.559   2.711
64081W        W32486  19.419  26.048  14.531
64082W        W32487  32.153   4.423   0.357
64083W        W32488   4.411   9.100  13.522
64084W        W32489   4.880  20.729   1.250
64085W        W32490  25.206  11.706   1.823
64086W        W32491  38.066   9.539  14.381
64087W        W32492  37.152   0.860  10.879
64088W        W32493  11.597  12.654  12.402
64089W        W32494  12.677  21.395  13.703
64090W        W32495  23.750  44.784  11.046
64091W        W32496  40.354  18.725   2.861
64092W        W32497  35.560   2.235  10.656
64093W        W32498   3.758  31.972   1.842
64094W        W32499  37.170  42.505  13.090
64095W        W32500  13.091   6.450  12.026
64096W        W32501   5.208  12.685  10.857
64097W        W32502   0.746  25.566   3.624
64098W        W32503  21.560  20.336   4.418
64099W        W32504  27.355  41.777  11.564
64100W        W32505   6.717  44.763   0.088
64101W        W32506   0.844  28.064   0.503
64102W        W32507  32.008  29.238   2.810
64103W        W32508  20.065  14.061   0.813
64104W        W32509  25.709  42.278   3.058
64105W        W32510  27.587  35.361   0.715
64106W        W32511  36.252  31.193  13.382
64107W        W32512  42.785  43.374  13.050
64108W        W32513  21.812  39.142   4.182
64109W        W32514  17.340  31.794   3.654
64110W        W32515   5.234  36.085  11.192
64111W        W32516  27.882   6.226   1.853
64112W        W32517  24.545  13.704  12.954
64113W        W32518   8.336  17.477  12.569
64114W        W32519  13.335  32.823   2.272
64115W        W32520  20.008   4.684  12.974
64116W        W32521   8.194  33.230  14.500
64117W        W32522  35.586  42.290  11.601
64118W        W32523  38.248   4.946   0.616
64119W        W32524  23.580   8.336  12.503
64120W        W32525  11.163  33.446   0.373
64121W        W32526  17.056  42.909   1.875
64122W        W32527  21.268  21.697   1.871
64123W        W32528   0.500   3.213  13.649
64124W        W32529   4.300   4.974   4.694
64125W        W32530  42.180  28.133   0.343
64126W        W32531  36.961  39.893  13.982
64127W        W32532  22.254  32.237  10.176
64128W        W32533  16.489  23.761   4.646
64129W        W32534   5.488  30.974   1.341
64130W        W32535  31.564  17.135  12.591
64131W        W32536  22.463   8.251  11.092
64132W        W32537  41.297  29.075  14.717
64133W        W32538   5.611  38.346   4.151
64134W        W32539  37.448  34.178  11.198
64135W        W32540   9.339  39.312  11.182
64136W        W32541  14.258  19.692  13.117
64137W        W32542  11.887  30.699   3.234
64138W        W32543  25.013  28.562  11.969
64139W        W32544  14.799   2.354  12.070
64140W        W32545  10.844  17.787  11.073
64141W        W32546  31.383  43.265  13.896
64142W        W32547  44.758  35.516   0.828
64143W        W32548  11.291  23.784   0.861
64144W        W32549  35.421  29.874  12.055
64145W        W32550  34.135  38.004   3.857
64146W        W32551  26.596  35.479   3.344
64147W        W32552  30.455   4.631  12.427
64148W        W32553   6.197   3.409   1.620
64149W        W32554  31.022  44.777   0.688
64150W        W32555  14.302   2.402  11.971
64151W        W32556  22.969  31.695   1.107
64152W        W32557  40.407  33.114  10.926
64153W        W32558  38.076  34.869  13.438
64154W        W32559  19.701  17.551  10.618
64155W        W32560  13.846  36.862   1.231
64156W        W32561  35.389  16.192  12.366
64157W        W32562  40.850  15.174   3.190
64158W        W32563  32.910  29.341  12.435
64159W        W32564  13.845  38.444   2.819
64160W        W32565  25.440  26.828   3.240
64161W        W32566  24.589  24.426   0.966
64162W        W32567  43.444  15.996  12.809
64163W        W32568  34.626  36.909  14.836
64164W        W32569  38.606  37.305   2.900
64165W        W32570  11.663  44.831   0.816
64166W        W32571  30.885   4.814   2.718
64167W        W32572  33.010  29.576   4.506
64168W        W32573  38.575  16.671  12.180
64169W        W32574   3.709  16.385   4.613
64170W        W32575  42.922  11.711  11.550
64171W        W32576  32.029  18.320  13.824
64172W        W32577  30.033  30.449   0.215
64173W        W32578  12.820   2.506   1.849
64174W        W32579  40.920  19.681   2.223
64175W        W32580  18.853   5.512  11.547
64176W        W32581  13.583  22.558  14.458
64177W        W32582  29.963  44.250   0.299
64178W        W32583  36.956  16.792   4.656
64179W        W32584   7.317  39.716  11.474
64180W        W32585  18.315  18.101   1.726
64181W        W32586  39.064   8.830  13.001
64182W        W32587  34.977  37.829   0.283
64183W        W32588  43.091  43.227   3.187
64184W        W32589   4.634  12.359  13.356
64185W        W32590  12.511  34.016   1.045
64186W        W32591  35.839  16.696  13.054
64187W        W32592  16.086  44.057  14.544
64188W        W32593  35.912  15.076  11.982
64189W        W32594  14.744  22.906  14.991
64190W        W32595  42.463   3.982   1.254
64191W        W32596  36.907  20.503  14.743
64192W        W32597  35.626  32.397   2.210
64193W        W32598  10.078   1.964  12.542
64194W        W32599   5.548  28.974  14.435
64195W        W32600  19.753  35.673   3.208
64196W        W32601  28.536   4.725  10.662
64197W        W32602  11.386  32.581   4.137
64198W        W32603  38.795   1.915  10.973
64199W        W32604  34.476  38.625   0.813
64200W        W32605  19.587   5.528  12.957
64201W        W32606  27.026   5.407   2.102
64202W        W32607  38.711  25.202  12.531
64203W        W32608   0.968  39.036   4.738
64204W        W32609  29.000  29.432  14.267
64205W        W32610  18.508  21.633   1.411
64206W        W32611   8.918  24.684   3.420
64207W        W32612  44.814  27.629   0.899
64208W        W32613   8.795  29.084  13.058
64209W        W32614  37.881  42.074   1.206
64210W        W32615  19.697   3.608   2.863
64211W        W32616  30.761  22.885   0.374
64212W        W32617   3.872  38.888  11.265
64213W        W32618  36.035  41.242  11.220
64214W        W32619  41.494  37.416   3.703
64215W        W32620  12.809  13.338   0.870
64216W        W32621   5.898  14.833   1.942
64217W        W32622   5.108  14.291  13.238
64218W        W32623  16.392   0.952  14.949
64219W        W32624   0.237  43.485   1.258
64220W        W32625  17.255  12.290  12.107
64221W        W32626   0.009  35.869  12.548
64222W        W32627   0.331  23.906  11.736
64223W        W32628  36.555  44.225   4.120
64224W        W32629   0.873  18.072  14.052
64225W        W32630  18.124  19.660  11.574
64226W        W32631  21.635  38.291   2.229
64227W        W32632  32.353  32.818   0.490
64228W        W32633  43.778  14.324  12.952
64229W        W32634   2.173   5.794   4.291
64230W        W32635  20.704  43.479  13.013
64231W        W32636  33.008  42.219   0.077
64232W        W32637   2.362   2.248   1.324
64233W        W32638  10.380  25.240  10.173
64234W        W32639  19.149   3.231  10.658
64235W        W32640  28.191   6.312  14.297
64236W        W32641  32.164   8.810  11.881
64237W        W32642  25.565  43.985  11.164
64238W        W32643   1.464  22.178   4.816
64239W        W32644   8.210  41.272  13.464
64240W        W32645   2.037  11.126  12.125
64241W        W32646   7.264  36.967   0.688
64242W        W32647  30.672  32.625   4.559
64243W        W32648   0.519   9.224  13.498
64244W        W32649  28.554  23.570   1.394
64245W        W32650  11.472  44.696   3.179
64246W        W32651   5.744   7.548   2.598
64247W        W32652  43.007  23.568   4.915
64248W        W32653  38.982  36.398  10.685
64249W        W32654   3.939  13.831  14.561
64250W        W32655   8.112  17.218   0.743
64251W        W32656  39.934  40.809  11.247
64252W        W32657  15.610   8.993   4.741
64253W        W32658   2.764  24.004   4.364
64254W        W32659  44.381  15.895  10.494
64255W        W32660  38.884   6.712  14.983
64256W        W32661   9.130  18.355   4.335
64257W        W32662  30.219  15.117   1.358
64258W        W32663  18.861  25.244  12.417
64259W        W32664   4.190  42.326  12.133
64260W        W32665  16.796  32.484   2.763
64261W        W32666  32.063  21.820  12.919
64262W        W32667  33.586  21.846  13.077
64263W        W32668  18.825  18.357   1.157
64264W        W32669  25.887  10.480  11.046
64265W        W32670  18.186  12.594  14.147
64266W        W32671  40.218  35.386   4.844
64267W        W32672  12.793  20.583   3.270
64268W        W32673  16.589   1.287   0.307
64269W        W32674  26.759  15.356  11.579
64270W        W32675  27.162   6.674  13.086
64271W        W32676  39.931   9.405  11.209
64272W        W32677  18.608  16.863   1.078
64273W        W32678   4.211  44.340   1.374
64274W        W32679  37.402   0.077   3.050
64275W        W32680   5.858  24.065  12.563
64276W        W32681  16.807  11.215  13.944
64277W        W32682   9.443   3.873   4.149
64278W        W32683  43.575  21.132  12.219
64279W        W32684  28.674  41.043   2.736
64280W        W32685  34.853  15.905   1.213
64281W        W32686  25.421  44.310  10.325
64282W        W32687  30.205   1.229  13.006
64283W        W32688  39.513  42.450   1.469
64284W        W32689  28.472  40.796   0.852
64285W        W32690   1.916  27.031  13.523
64286W        W32691  15.556  23.012   2.826
64287W        W32692  37.345  34.205   3.590
64288W        W32693   2.332  44.376  13.796
64289W        W32694  23.256  39.038   1.869
64290W        W32695  26.289  14.237  10.199
64291W        W32696  27.077  19.792  10.647
64292W        W32697  28.521  23.057  14.537
64293W        W32698  38.295   4.834  12.966
64294W        W32699  40.033  16.807   0.259
64295W        W32700   2.823  15.494  14.395
64296W        W32701  17.221  39.362   1.369
64297W        W32702  40.195  35.879  13.829
64298W        W32703  27.483   4.774  11.539
64299W        W32704   4.383  28.483   4.384
64300W        W32705  13.406  37.256  13.587
64301W        W32706  38.771  35.488  12.710
64302W        W32707   9.571   2.907   3.892
64303W        W32708   4.381  31.459   3.186
64304W        W32709  12.184  30.434   0.223
64305W        W32710  38.577  11.199   1.347
64306W        W32711   5.192   8.708   4.390
64307W        W32712   0.251   4.762   2.150
64308W        W32713   8.320  29.057  12.190
64309W        W32714  11.959   8.171  11.085
64310W        W32715  36.632  26.847  14.007
64311W        W32716  37.479   6.218  11.433
64312W        W32717  11.812   0.498   1.488
64313W        W32718  37.358   9.922   3.316
64314W        W32719   1.191  30.070   2.684
64315W        W32720  38.992  29.252   1.228
64316W        W32721   9.246  44.968  13.403
64317W        W32722  14.909  35.105   4.931
64318W        W32723   6.859  28.551  13.462
64319W        W32724   1.849   1.581   3.875
64320W        W32725  18.344  17.191  10.674
64321W        W32726   0.387  19.586   4.095
64322W        W32727  22.036  23.240  11.042
64323W        W32728   7.890  19.006  11.905
64324W        W32729  30.427   8.801   0.370
64325W        W32730  29.095  37.522   1.380
64326W        W32731  19.356  17.636   1.259
64327W        W32732  18.972  24.502   3.187
64328W        W32733  11.691  24.596  14.860
64329W        W32734  29.809  20.573   3.065
64330W        W32735  44.124  44.662   1.648
64331W        W32736  41.994  11.598   2.823
64332W        W32737  36.977  36.503   1.754
64333W        W32738  37.198  37.253  12.725
64334W        W32739   4.225  30.034  11.961
64335W        W32740  32.551  36.558   2.536
64336W        W32741  40.800   2.215   1.899
64337W        W32742   9.669  44.657  13.417
64338W        W32743  30.884   2.484   0.510
64339W        W32744   2.256  27.448   3.706
64340W        W32745  10.178  11.891   1.292
64341W        W32746   3.753  40.931   0.646
64342W        W32747   1.950  31.244   1.743
64343W        W32748  18.638  11.143  12.850
64344W        W32749  20.235   7.016  13.696
64345W        W32750  10.244  43.446  11.666
64346W        W32751  34.286  21.210  10.357
64347W        W32752  41.879  41.336   0.788
64348W        W32753   5.593  22.061   4.579
64349W        W32754  25.534  32.948  10.544
64350W        W32755  29.812  29.902   2.335
64351W        W32756   0.718  43.054  11.885
64352W        W32757  21.779   9.201   0.012
64353W        W32758  35.467  20.951  14.028
64354W        W32759   5.245  39.717   2.456
64355W        W32760  35.736   3.316   4.150
64356W        W32761  14.569  44.429   4.196
64357W        W32762   3.388   9.176  13.959
64358W        W32763  12.226  22.173   1.721
64359W        W32764  18.324  40.350  11.905
64360W        W32765  41.316   0.182   2.651
64361W        W32766  25.587  10.369  10.608
64362W        W32767   5.878  11.505  11.409
64363W        W32768  18.468  12.406   2.820
64364W        W32769  26.524  14.381  12.929
64365W        W32770  26.019  19.570   0.949
64366W        W32771   6.055  11.504   4.957
64367W        W32772  21.554  11.245  13.334
64368W        W32773  27.647   2.210   4.529
64369W        W32774  17.696   6.596  13.404
64370W        W32775   9.451  39.894   2.137
64371W        W32776   4.659  11.621   0.890
64372W        W32777  26.510  15.105   4.602
64373W        W32778  21.755  26.742   3.732
64374W        W32779  37.629  41.470  12.425
64375W        W32780   4.411  21.304  10.551
64376W        W32781  38.346  35.108   3.656
64377W        W32782   9.347  41.747   0.819
64378W        W32783  15.153  25.993  11.452
64379W        W32784  32.543  37.961   1.204
64380W        W32785  42.995   2.598  12.630
64381W        W32786  37.957  21.649   3.745
64382W        W32787  19.984   0.875   2.776
64383W        W32788  10.707  44.842   0.298
64384W        W32789   6.731  15.835   0.193
64385W        W32790   6.455  23.698   2.519
64386W        W32791   5.687   7.387  12.518
64387W        W32792  37.753   5.253  10.382
64388W        W32793   8.387  36.782  11.254
64389W        W32794  40.256  22.804   1.708
64390W        W32795   4.420   5.797  14.303
64391W        W32796  16.820   1.911   4.612
64392W        W32797   2.717  13.064   4.954
64393W        W32798  25.558  13.712  13.004
64394W        W32799   8.604   8.093   0.927
64395W        W32800  14.718  25.341   2.895
64396W        W32801  30.052  43.776  13.790
64397W        W32802  18.699  15.570   3.122
64398W        W32803  23.955  17.213   3.673
64399W        W32804  20.537  40.591   0.415
64400W        W32805  41.376  14.384   2.704
64401W        W32806  16.518  15.682   1.323
64402W        W32807  38.608  23.624  10.428
64403W        W32808   1.532  10.189   4.148
64404W        W32809   4.021  13.333  14.875
64405W        W32810   9.942  20.193  12.925
64406W        W32811   7.168  26.759  11.149
64407W        W32812  33.632  32.863  12.192
64408W        W32813  24.448  27.164   1.389
64409W        W32814  43.062  40.294  14.335
64410W        W32815  29.839   6.114  10.571
64411W        W32816  12.808  43.328   3.255
64412W        W32817  14.827   2.003   0.321
64413W        W32818  34.402   3.635   3.778
64414W        W32819   1.703  14.259  10.985
64415W        W32820   9.237  26.386   5.074
64416W        W32821  27.056  19.324   2.635
64417W        W32822   9.432  42.411  13.486
64418W        W32823  35.628  10.303  14.839
64419W        W32824  12.489   4.594   0.372
64420W        W32825  42.536  44.916  13.949
64421W        W32826  42.329  30.938   4.556
64422W        W32827  12.537  13.526  14.532
64423W        W32828  27.406  19.497   4.363
64424W        W32829   9.560  36.459   4.128
64425W        W32830  31.965  27.703   2.849
64426W        W32831  42.513  12.289   4.243
64427W        W32832  31.667  23.730  14.757
64428W        W32833  44.998   1.798  10.786
64429W        W32834  41.319  14.668  14.981
64430W        W32835   3.749   8.418  13.332
64431W        W32836   8.397   6.807   3.152
64432W        W32837  22.280   1.712   4.729
64433W        W32838  15.790  15.861  12.232
64434W        W32839   6.880  26.458   3.219
64435W        W32840  15.319  11.257   3.278
64436W        W32841  29.863  43.371  14.126
64437W        W32842  21.686  22.477  13.507
64438W        W32843  28.721  42.430   1.714
64439W        W32844  21.506  11.399  11.448
64440W        W32845  14.056  17.648   0.851
64441W        W32846  29.042   6.252  13.015
64442W        W32847  37.001   7.262  13.935
64443W        W32848  28.485  18.794  11.608
64444W        W32849  11.591   7.476   2.357
64445W        W32850  12.035   9.308   4.644
64446W        W32851  20.083  27.471   3.681
64447W        W32852  32.794  21.499  11.118
64448W        W32853  12.585  20.549  11.664
64449W        W32854  39.517  34.025  14.900
64450W        W32855  37.941  44.293  10.744
64451W        W32856   2.818   4.146   3.295
64452W        W32857  36.806  30.504  11.413
64453W        W32858   3.833  34.351  14.029
64454W        W32859  38.907   0.466  14.003
64455W        W32860  12.515   8.240   0.162
64456W        W32861  33.512  41.764   3.230
64457W        W32862  14.249  39.608   4.594
64458W        W32863  27.660  31.414   1.241
64459W        W32864  27.555  22.272   4.482
64460W        W32865  21.432   0.738  12.521
64461W        W32866  10.722  36.902  11.726
64462W        W32867  44.903  12.121   1.183
64463W        W32868  16.206  16.709  10.732
64464W        W32869  11.743  44.307  11.562
64465W        W32870  34.926  34.331   4.192
64466W        W32871  14.787  43.317  11.045
64467W        W32872  25.760   4.383   1.605
64468W        W32873  18.783  32.077   0.233
64469W        W32874   4.669  34.913   1.507
64470W        W32875  29.049  42.504   3.071
64471W        W32876   4.433  44.901  10.733
64472W        W32877  23.135  26.989  14.478
64473W        W32878   3.599  37.976  11.261
64474W        W32879   3.654  42.049   2.347
64475W        W32880  20.665  23.814   5.478
64476W        W32881  41.113  44.778   1.806
64477W        W32882   3.991  10.214   0.841
64478W        W32883  19.481  26.921  13.205
64479W        W32884  42.777  21.116   2.427
64480W        W32885   8.215   6.413  11.612
64481W        W32886  36.281   4.813  11.131
64482W        W32887  32.373  34.910   3.685
64483W        W32888  14.178  24.162   5.083
64484W        W32889  27.102  30.111   0.341
64485W        W32890  15.809  37.341   2.839
64486W        W32891  23.751  28.069   1.718
64487W        W32892   6.489  26.325   0.949
64488W        W32893  10.199  14.804   2.158
64489W        W32894  21.895  14.649  12.968
64490W        W32895  19.216  25.262  13.892
64491W        W32896   8.444  31.871  14.582
64492W        W32897  25.535  41.837  10.254
64493W        W32898  14.822  43.963   4.151
64494W        W32899  36.486   1.974   0.476
64495W        W32900  25.592  13.741  12.031
64496W        W32901  40.918  24.181   0.504
64497W        W32902  42.194  26.576   4.709
64498W        W32903  32.699  38.895   1.327
64499W        W32904  32.093   2.087  14.322
64500W        W32905  24.280  27.740   0.221
64501W        W32906  30.205  19.316   1.671
64502W        W32907  39.383  11.247   2.725
64503W        W32908  37.322  42.614   0.473
64504W        W32909   7.214  33.360  11.990
64505W        W32910  16.886   9.926  14.404
64506W        W32911  17.749   5.818   4.470
64507W        W32912  32.505  16.177   1.180
64508W        W32913  31.387   8.642  10.626
64509W        W32914  38.902  32.369   3.594
64510W        W32915  25.418  23.409  14.305
64511W        W32916  43.787  31.954  13.567
64512W        W32917  35.340  20.869   1.214
64513W        W32918  24.732  12.633  13.274
64514W        W32919  21.211  25.008  11.255
64515W        W32920  33.354   7.027  11.465
64516W        W32921  15.939  21.629   4.222
64517W        W32922   6.394   8.669  13.363
64518W        W32923  10.767   5.606   2.561
64519W        W32924  28.675   3.162  13.969
64520W        W32925  27.436   5.513  11.979
64521W        W32926   8.206  18.176   0.919
64522W        W32927  31.665  32.167   0.380
64523W        W32928  44.144   5.448   2.652
64524W        W32929   9.198  23.140   2.082
64525W        W32930  41.216  34.960  12.788
64526W        W32931  28.627   0.462  12.883
64527W        W32932   0.701  33.441   3.746
64528W        W32933  17.030  33.504  13.265
64529W        W32934   7.717  32.470  14.780
64530W        W32935  13.508  25.060   0.723
64531W        W32936  25.951  30.670  14.398
64532W        W32937  24.202  24.137   0.763
64533W        W32938  20.575  29.573  12.984
64534W        W32939  23.746  19.165  12.956
64535W        W32940  10.452  19.096  12.193
64536W        W32941   4.431  12.273   2.106
64537W        W32942   1.663   5.776  14.842
64538W        W32943  14.630   0.359  12.388
64539W        W32944  37.030  26.177   3.163
64540W        W32945  42.286   8.459   2.271
64541W        W32946  22.917  30.458   2.755
64542W        W32947  41.378  38.768  12.407
64543W        W32948   9.034  10.654   3.245
64544W        W32949  24.488   1.725  11.550
64545W        W32950  44.543   6.955   2.819
64546W        W32951  41.986  14.209  11.491
64547W        W32952  40.006  22.985  12.374
64548W        W32953   6.390  42.972  14.888
64549W        W32954   2.857  13.167   0.781
64550W        W32955  17.010  15.181  14.212
64551W        W32956   8.379  25.772   2.800
64552W        W32957  39.380  38.755   2.305
64553W        W32958  14.127   9.445   1.310
64554W        W32959  25.064   8.027  12.353
64555W        W32960  36.394  13.790   4.424
64556W        W32961  16.772  24.827   2.921
64557W        W32962  27.551  30.928  13.555
64558W        W32963  11.243  41.587   0.312
64559W        W32964  36.368  12.721  12.301
64560W        W32965   1.108  28.010   3.205
64561W        W32966  36.339  24.139   2.878
64562W        W32967  26.209  12.671  12.590
64563W        W32968  35.541   5.596  14.979
64564W        W32969   2.565  34.061  11.152
64565W        W32970  32.514  29.578   1.027
64566W        W32971  10.639   2.027  13.529
64567W        W32972  27.616  44.262  13.902
64568W        W32973  42.420   9.787   0.095
64569W        W32974  14.321  13.354   5.066
64570W        W32975  36.610  31.872   0.602
64571W        W32976  39.837  30.648   0.650
64572W        W32977  31.369  14.482   0.438
64573W        W32978   4.327  14.660  11.245
64574W        W32979  21.668   8.814   3.189
64575W        W32980  39.909   0.534  12.377
64576W        W32981   8.334  40.857  10.935
64577W        W32982  40.094  14.029  10.504
64578W        W32983  37.386  38.741  14.403
64579W        W32984  39.315  38.719   4.325
64580W        W32985   9.491  19.223   1.920
64581W        W32986  27.747  35.380  12.407
64582W        W32987  27.552  15.231  10.958
64583W        W32988  10.877  32.458   4.237
64584W        W32989   6.594  28.481  13.985
64585W        W32990  17.783   0.945  14.572
64586W        W32991   6.713   4.135   4.166
64587W        W32992  21.718   2.263   0.765
64588W        W32993  22.654  43.733   3.821
64589W        W32994  25.711  36.560   0.372
64590W        W32995  34.581  16.103  11.234
64591W        W32996   5.894  43.777  12.705
64592W        W32997   7.378   9.344  12.972
64593W        W32998  18.699  35.953  12.686
64594W        W32999  32.777  22.164  12.648
64595W        W33000   6.350  41.259  13.236
64596W        W33001   7.732  25.122   0.491
64597W        W33002   6.983  31.836   4.093
64598W        W33003  24.570   9.547  11.270
64599W        W33004  41.295   5.264  13.469
64600W        W33005  34.104   7.353   2.676
64601W        W33006   8.407  24.663   3.781
64602W        W33007  11.664  24.083  11.012
64603W        W33008  18.933  22.877   3.521
64604W        W33009  14.202  10.916  14.571
64605W        W33010   5.192   4.962  10.965
64606W        W33011  33.662   9.895   4.632
64607W        W33012  26.627  29.106  13.826
64608W        W33013  21.174   9.501  13.123
64609W        W33014  15.414  19.625  13.491
64610W        W33015  14.540   4.220   4.305
64611W        W33016  21.529  21.660  12.028
64612W        W33017  21.967  44.248  11.538
64613W        W33018  36.563   1.731  14.447
64614W        W33019   9.734  13.155  12.892
64615W        W33020  33.007  12.692  10.547
64616W        W33021  11.624   5.797   3.819
64617W        W33022  12.739  26.579  13.641
64618W        W33023  15.301  20.776  11.517
64619W        W33024  15.645   4.336  13.770
64620W        W33025   8.806  15.262  12.366
64621W        W33026  15.253  13.873   4.950
64622W        W33027  21.092  20.379  10.635
64623W        W33028   3.384  36.660   1.368
64624W        W33029  38.769  15.832   2.800
64625W        W33030  43.424  37.129   1.242
64626W        W33031  43.974  19.733   4.218
64627W        W33032  13.136  12.684  10.720
64628W        W33033  34.993  15.221   2.981
64629W        W33034  24.438  17.898  13.339
64630W        W33035  32.690  10.643   1.439
64631W        W33036  18.714  20.721  11.807
64632W        W33037  20.604  23.886  11.891
64633W        W33038   2.440  21.282  14.974
64634W        W33039  44.940   6.502  11.386
64635W        W33040  22.758  39.612   3.236
64636W        W33041  36.528  31.104   2.276
64637W        W33042  26.823  10.962   0.069
64638W        W33043  17.003  13.697  12.128
64639W        W33044  27.678  38.378   5.053
64640W        W33045  32.955  44.801   4.697
64641W        W33046   7.691  10.832  13.863
64642W        W33047   5.521  31.624  12.014
64643W        W33048   9.882  26.814   2.178
64644W        W33049   6.495  13.256   3.226
64645W        W33050   8.687  19.287  14.059
64646W        W33051  12.271  20.744  14.805
64647W        W33052   4.291  43.734   2.699
64648W        W33053  35.353  34.040   2.415
64649W        W33054  25.685  22.098   3.833
64650W        W33055  20.231  32.996  12.331
64651W        W33056  31.823  14.826   3.217
64652W        W33057  32.145   6.718  14.762
64653W        W33058  14.234  10.749  11.877
64654W        W33059  41.211  17.272  14.016
64655W        W33060   5.456   6.327   1.299
64656W        W33061  30.697  11.293   2.251
64657W        W33062  23.790  43.956  14.476
64658W        W33063  23.493   9.333   0.198
64659W        W33064  16.975   5.339   1.287
64660W        W33065  11.326  40.462   4.639
64661W        W33066  34.907  10.938   1.657
64662W        W33067  19.252   5.614  11.231
64663W        W33068   6.412  40.138  10.285
64664W        W33069  32.015  13.838  12.113
64665W        W33070  31.654  38.460   4.120
64666W        W33071  41.000   6.498   0.921
64667W        W33072  39.557  23.636  13.304
64668W        W33073  19.618  18.378   2.777
64669W        W33074  23.124   1.948   1.143
64670W        W33075  43.233  39.488   4.946
64671W        W33076  43.526   5.835  13.559
64672W        W33077  10.248  10.160   4.618
64673W        W33078  36.347  30.594   3.201
64674W        W33079  31.215  20.359  14.147
64675W        W33080  33.247   1.744   3.965
64676W        W33081  40.119  14.569  10.503
64677W        W33082  44.813  12.590  11.223
64678W        W33083  30.775   8.720   4.558
64679W        W33084  14.201  18.636   4.684
64680W        W33085  28.575  21.295   3.761
64681W        W33086  30.641  40.314   3.687
64682W        W33087  34.199   5.415   1.868
64683W        W33088  37.773  35.514  10.629
64684W        W33089   6.453  15.630  11.002
64685W        W33090  43.906   9.868  11.189
64686W        W33091  41.770  40.516   2.715
64687W        W33092  39.084  26.137  12.829
64688W        W33093   1.045  31.405   3.691
64689W        W33094   3.103  18.560   2.253
64690W        W33095   1.942   3.802   1.685
64691W        W33096  11.754  41.240   4.263
64692W        W33097  29.885  12.330  12.576
64693W        W33098   1.270  11.738   2.367
64694W        W33099  43.079  40.006   0.522
64695W        W33100  24.713  14.618   0.979
64696W        W33101  14.243  28.018   1.317
64697W        W33102  18.784  34.667   0.461
64698W        W33103  33.934  43.257  11.009
64699W        W33104  11.234   9.916   0.244
64700W        W33105   7.236  30.133  13.455
64701W        W33106  38.492  12.439  11.016
64702W        W33107   5.701  32.039  14.561
64703W        W33108  34.876  32.038  14.869
64704W        W33109  44.972   1.481  13.601
64705W        W33110  16.592   8.796   2.739
64706W        W33111  28.824  27.099   0.344
64707W        W33112  32.609  31.336   0.277
64708W        W33113  39.434  39.245  14.225
64709W        W33114  23.783  32.640   2.210
64710W        W33115  34.168  35.180   0.385
64711W        W33116  41.986  20.306   3.189
64712W        W33117  43.294  23.740   0.830
64713W        W33118  39.680  32.536   3.273
64714W        W33119   5.903   6.178   2.349
64715W        W33120   8.937  16.803  13.954
64716W        W33121  41.176   2.858   4.169
64717W        W33122  16.334  39.377   4.817
64718W        W33123  11.769  23.236  13.494
64719W        W33124  14.662  12.420  10.683
64720W        W33125  27.557  18.716   3.795
64721W        W33126   9.601   2.183  12.603
64722W        W33127   9.635  17.237  14.949
64723W        W33128  30.405  19.193   5.002
64724W        W33129  28.178   0.897  10.612
64725W        W33130   0.452  42.442  13.954
64726W        W33131  41.300  41.856  13.004
64727W        W33132  30.992  32.477  12.830
64728W        W33133  43.761  19.627  13.361
64729W        W33134  26.360  17.963   3.410
64730W        W33135  26.648  30.508  13.441
64731W        W33136  19.061   4.317  11.077
64732W        W33137   9.354  33.308  13.980
64733W        W33138   5.481   6.291   4.723
64734W        W33139  11.114   4.916   3.669
64735W        W33140  12.199  29.584   2.871
64736W        W33141  14.882  20.679   0.445
64737W        W33142  23.235  10.699  13.759
64738W        W33143  33.336   5.961   4.495
64739W        W33144   2.101  34.783  13.045
64740W        W33145   9.785   9.920  13.302
64741W        W33146  21.267  27.731  13.173
64742W        W33147  17.929  24.705   0.896
64743W        W33148  37.395   5.024  13.889
64744W        W33149  36.381  12.227   2.674
64745W        W33150  18.034  15.718   2.802
64746W        W33151  22.224  31.855   0.549
64747W        W33152  31.133  28.669  12.064
64748W        W33153  10.426  27.685   0.909
64749W        W33154  30.140  12.977  14.407
64750W        W33155  40.943  38.859   4.535
64751W        W33156  31.032  13.723   4.063
64752W        W33157  24.050  37.944   0.985
64753W        W33158  11.568  35.880   0.342
64754W        W33159  12.831  29.439   4.105
64755W        W33160  15.337  18.389  11.128
64756W        W33161  43.525  18.758  11.664
64757W        W33162  15.258  15.022  11.843
64758W        W33163  37.625  15.013   3.068
64759W        W33164  26.014  35.881   1.460
64760W        W33165   7.095  10.426  12.165
64761W        W33166  28.341  31.380  14.384
64762W        W33167   8.355  26.484  14.444
64763W        W33168   4.745  24.029   0.234
64764W        W33169  37.594  12.886  11.578
64765W        W33170  17.463  23.077   1.276
64766W        W33171  36.535  12.750   2.733
64767W        W33172   4.224   0.501   3.402
64768W        W33173  28.799  27.464   2.865
64769W        W33174  14.651   5.119  12.943
64770W        W33175  44.903  40.440   3.245
64771W        W33176  14.504  18.663  14.331
64772W        W33177  13.637   3.238  10.299
64773W        W33178  37.402  42.779   3.096
64774W        W33179  16.789  29.090  13.033
64775W        W33180   5.613  42.849  12.338
64776W        W33181  40.859  20.492   0.626
64777W        W33182   3.638   5.755   4.169
64778W        W33183  32.952  10.869  10.663
64779W        W33184  19.192  11.067  11.627
64780W        W33185   9.105  33.772  13.977
64781W        W33186  38.768  22.120   0.302
64782W        W33187  34.660  31.905   2.653
64783W        W33188  10.906  40.951   1.363
64784W        W33189  10.481  20.220  10.899
64785W        W33190  22.244   9.627   2.267
64786W        W33191  43.358  41.523   2.171
64787W        W33192  31.056   6.720  12.045
64788W        W33193  18.238  21.351   0.367
64789W        W33194  30.706  33.871   3.841
64790W        W33195  11.556  41.357  13.359
64791W        W33196  11.688   2.510   3.672
64792W        W33197  39.028  25.900  12.021
64793W        W33198  42.240  29.067  11.640
64794W        W33199  39.484   1.252  14.741
64795W        W33200  13.173  43.342  12.681
64796W        W33201  29.154  25.593   1.434
64797W        W33202   4.751  24.605  14.438
64798W        W33203  41.268  13.901  10.580
64799W        W33204  29.145  35.960   0.206
64800W        W33205  38.905  37.441  10.269
64801W        W33206  11.725  44.567  13.151
64802W        W33207  23.718  24.498  14.009
64803W        W33208  29.051  31.001  12.636
64804W        W33209  13.853   4.147   5.490
64805W        W33210   9.213  11.706   5.108
64806W        W33211  39.199  42.287   4.523
64807W        W33212  22.770  12.881  11.711
64808W        W33213  32.927  26.157   3.309
64809W        W33214  14.240  25.871  13.018
64810W        W33215   1.873   4.739  14.488
64811W        W33216  25.459  18.680  12.102
64812W        W33217  15.041  38.037   3.041
64813W        W33218  34.525  19.015   4.091
64814W        W33219  16.036   2.266   1.687
64815W        W33220   1.881  25.158   0.011
64816W        W33221  13.203  41.998  12.934
64817W        W33222  12.183  26.107   1.397
64818W        W33223  41.270   6.843  12.649
64819W        W33224  23.096  10.377   3.738
64820W        W33225  44.892  42.007   4.563
64821W        W33226  36.861  12.868  14.939
64822W        W33227   6.316  30.012   2.436
64823W        W33228  28.120   4.563   1.246
64824W        W33229  18.152  19.722  14.025
64825W        W33230  32.827  38.155  14.260
64826W        W33231   5.240  15.809   4.773
64827W        W33232  35.134  12.662  14.404
64828W        W33233  11.847  20.794   9.692
64829W        W33234  16.352  31.905   3.658
64830W        W33235  16.512  18.754  13.868
64831W        W33236  18.578  42.508   1.291
64832W        W33237  26.469   8.542  14.013
64833W        W33238   9.186  37.467  12.583
64834W        W33239  14.126  31.525  13.871
64835W        W33240  23.742   9.298   4.050
64836W        W33241  39.484  11.734   0.915
64837W        W33242  43.760   0.714  11.132
64838W        W33243  20.165   9.620  13.047
64839W        W33244  29.729  35.488  14.363
64840W        W33245  24.857   3.853  11.657
64841W        W33246   7.475  14.042   2.035
64842W        W33247  15.283  33.939   1.317
64843W        W33248  14.347   5.825   4.772
64844W        W33249  23.560  39.316   3.254
64845W        W33250  25.343  21.699  11.963
64846W        W33251  21.126  32.895  14.558
64847W        W33252  10.900  26.265  14.024
64848W        W33253  43.940  44.591  10.579
64849W        W33254  26.551  35.889  14.733
64850W        W33255  10.098  10.724  10.686
64851W        W33256  19.505  15.886  11.506
64852W        W33257  44.248  15.660   2.794
64853W        W33258  13.079  30.484  12.888
64854W        W33259   0.915  34.910   4.338
64855W        W33260  31.786  16.040  11.062
64856W        W33261  25.544  28.194   0.390
64857W        W33262  13.331  13.748  14.890
64858W        W33263  28.132  25.051   4.528
64859W        W33264   9.584  23.516   2.331
64860W        W33265  30.457  27.168   2.751
64861W        W33266  43.612  25.727  13.781
64862W        W33267   2.843  41.355   3.167
64863W        W33268  41.701  38.302  11.112
64864W        W33269   7.683   5.445   3.711
64865W        W33270  13.493  42.198  11.680
64866W        W33271  39.838   9.203   0.047
64867W        W33272  38.107  23.564  14.191
64868W        W33273  16.689  20.487  14.142
64869W        W33274   7.801  39.563   1.324
64870W        W33275  20.660  13.908  13.330
64871W        W33276  10.308  15.752  11.987
64872W        W33277  13.571  23.054  14.300
64873W        W33278   3.444  14.190   0.044
64874W        W33279  38.057   6.389   1.842
64875W        W33280  24.357  40.842   0.707
64876W        W33281  28.622  18.773   0.453
64877W        W33282  39.004  31.875   3.673
64878W        W33283  38.042  38.814  11.061
64879W        W33284  23.242  27.846  13.344
64880W        W33285  40.455  28.062  12.007
64881W        W33286  31.744  36.000   2.947
64882W        W33287  28.710  43.869   4.833
64883W        W33288  27.641   8.174   1.748
64884W        W33289   4.138  26.401  12.979
64885W        W33290  26.204   0.691  14.816
64886W        W33291  15.061  28.064  11.424
64887W        W33292  20.398  27.505   1.937
64888W        W33293   3.528   9.955   2.958
64889W        W33294  44.827  40.857  10.865
64890W        W33295  21.915  25.687  10.571
64891W        W33296   1.072  38.087   1.048
64892W        W33297  33.808  28.374  13.020
64893W        W33298  23.062   1.302   4.371
64894W        W33299   1.312  41.779  12.652
64895W        W33300   4.028   0.979  12.797
64896W        W33301  37.407  35.508  14.823
64897W        W33302  16.617  15.199   4.868
64898W        W33303  39.318  23.423  14.885
64899W        W33304   4.009   5.087   2.619
64900W        W33305  12.157  32.932   0.344
64901W        W33306  30.940  29.431  11.519
64902W        W33307   9.776  11.629   0.006
64903W        W33308  27.120  33.124  11.991
64904W        W33309  11.346  40.389  14.316
64905W        W33310   8.281  23.818   1.827
64906W        W33311   0.039  35.927  11.274
64907W        W33312  27.441  16.167   2.195
64908W        W33313  32.441  40.384  12.683
64909W        W33314  33.866  12.914  13.814
64910W        W33315   6.715   2.655  11.930
64911W        W33316  42.867  12.517   0.766
64912W        W33317  37.448  26.981   0.338
64913W        W33318  39.020  35.897  12.507
64914W        W33319  15.526  15.687   4.099
64915W        W33320  18.112  29.791   1.437
64916W        W33321   1.849   5.860   0.326
64917W        W33322  25.153  19.241  14.142
64918W        W33323  20.505   3.454  12.193
64919W        W33324  17.745   6.190  14.848
64920W        W33325  17.649  36.418  13.077
64921W        W33326  13.551  15.099   4.033
64922W        W33327   1.611  33.888   4.554
64923W        W33328  38.237  23.667  12.157
64924W        W33329  22.061  17.597   2.995
64925W        W33330  34.962  35.166  14.290
64926W        W33331  14.246  19.064  12.818
64927W        W33332  28.393  34.363  11.565
64928W        W33333  20.662  31.825   1.236
64929W        W33334   5.361  24.761   3.245
64930W        W33335  33.108  16.287  14.591
64931W        W33336  13.079  22.970   0.210
64932W        W33337  43.902  20.649   4.747
64933W        W33338  25.037   7.958  10.479
64934W        W33339  18.034   6.721  14.291
64935W        W33340  16.307  37.145  11.217
64936W        W33341  11.435  11.137  12.901
64937W        W33342  17.074  16.925   3.609
64938W        W33343  26.558  14.790  12.000
64939W        W33344  12.196  24.592   0.032
64940W        W33345  44.803  36.051   0.791
64941W        W33346  22.988  17.222  14.453
64942W        W33347  43.968  23.534   2.877
64943W        W33348  35.833  11.742   3.404
64944W        W33349   2.371  37.108  12.433
64945W        W33350  31.008  36.271  11.280
64946W        W33351   7.294  43.006   2.287
64947W        W33352  20.323  31.943  12.960
64948W        W33353  12.114  22.987   2.283
64949W        W33354  25.028  28.670   0.415
64950W        W33355   7.303  28.761  12.881
64951W        W33356  30.230   8.409   0.057
64952W        W33357  42.771  38.659   2.759
64953W        W33358   8.921  18.987   4.820
64954W        W33359  37.264  19.874  11.256
64955W        W33360  13.825  36.347   2.396
64956W        W33361  23.201  15.667   0.218
64957W        W33362  17.675  39.473   4.080
64958W        W33363  16.084   1.660  14.481
64959W        W33364  44.748   9.511  13.056
64960W        W33365  25.135  23.115   4.636
64961W        W33366   2.059  16.750   1.035
64962W        W33367  24.718  34.402   4.168
64963W        W33368  38.862   6.785   1.838
64964W        W33369  25.755   0.765  12.042
64965W        W33370  27.827  24.579  13.966
64966W        W33371   7.024  10.688  12.632
64967W        W33372  15.131  31.521   3.726
64968W        W33373  26.103  43.289   4.513
64969W        W33374  15.545  26.570   2.963
64970W        W33375  25.656  17.298  13.460
64971W        W33376   6.795  19.105  13.979
64972W        W33377   2.955  37.872   2.359
64973W        W33378   8.402  30.649  11.981
64974W        W33379   0.757  44.804   3.084
64975W        W33380   0.009   5.676  13.555
64976W        W33381  18.789  21.734   9.814
64977W        W33382   1.348  16.713  11.780
64978W        W33383   1.618   6.795  13.832
64979W        W33384  41.327   1.830  14.976
64980W        W33385   5.480  23.601   0.001
64981W        W33386  22.015  38.576   2.431
64982W        W33387  36.608  44.364   9.936
64983W        W33388  38.052  44.372   4.081
64984W        W33389  18.311  35.952  13.072
64985W        W33390   0.959  17.524  10.806
64986W        W33391  30.985  17.104   5.563
64987W        W33392  42.851   4.786   1.208
64988W        W33393  24.953  40.604   2.413
64989W        W33394  44.865  25.467  10.449
64990W        W33395  19.006  30.936   2.359
64991W        W33396  19.140  30.837   1.150
64992W        W33397  37.443  18.087  14.960
64993W        W33398  40.054  39.941  11.196
64994W        W33399  26.195  13.308  14.883
64995W        W33400   5.468   0.814  12.382
64996W        W33401  38.957  44.008   2.192
64997W        W33402  28.246  44.995   3.245
64998W        W33403   3.742  16.577   3.357
64999W        W33404  31.165  27.553   4.193
65000W        W33405  44.870  40.617   0.195
65001W        W33406   7.945  29.455   1.426
65002W        W33407  34.912   2.505   0.393
65003W        W33408   4.232  38.021  11.925
65004W        W33409   3.822  14.485  12.661
65005W        W33410  30.925  18.511   3.813
65006W        W33411   0.868  21.478  12.107
65007W        W33412   7.317  15.659  13.589
65008W        W33413  30.441  32.059  11.553
65009W        W33414  39.000   1.277   1.183
65010W        W33415   6.367   7.313  11.512
65011W        W33416  26.399  28.088  12.716
65012W        W33417  34.656  20.610  12.609
65013W        W33418  30.227   3.323  12.130
65014W        W33419  29.232  29.103   0.737
65015W        W33420  39.198   8.843  11.958
65016W        W33421  38.535  12.761   4.631
65017W        W33422   3.723  22.988  11.891
65018W        W33423   0.930  34.512   2.390
65019W        W33424  17.553   4.024   2.385
65020W        W33425   8.271  24.143  12.987
65021W        W33426  15.855   7.342  14.393
65022W        W33427  35.163   4.032   0.787
65023W        W33428  27.239  30.375   2.709
65024W        W33429  12.575  33.649  13.763
65025W        W33430  33.202  11.625   3.137
65026W        W33431  16.169  37.396  13.588
65027W        W33432  18.098  11.884  11.115
65028W        W33433   6.401  28.331   2.237
65029W        W33434  18.582  32.194  14.771
65030W        W33435  26.441  16.289  11.575
65031W        W33436  37.568  39.199   2.939
65032W        W33437  33.447  21.238   3.230
65033W        W33438  38.610  17.288   5.048
65034W        W33439   1.369  41.265   4.798
65035W        W33440   8.724  42.401  13.943
65036W        W33441  25.631  16.597  13.891
65037W        W33442   8.939   1.537  10.295
65038W        W33443  32.899  12.963   1.257
65039W        W33444   8.396  30.227   0.391
65040W        W33445  14.628   9.328  14.423
65041W        W33446  30.560  27.653  11.728
65042W        W33447   1.999  28.188  10.710
65043W        W33448  15.783  22.011  13.916
65044W        W33449   0.124  31.472  11.033
65045W        W33450  30.864  22.670  10.320
65046W        W33451  27.860  25.549  14.010
65047W        W33452   2.933  41.944   4.531
65048W        W33453  22.994  41.735  12.504
65049W        W33454  11.839  19.439  12.081
65050W        W33455   7.434  22.782  12.952
65051W        W33456  20.460   1.452   1.906
65052W        W33457  33.949  32.846   4.179
65053W        W33458  30.295   1.421   2.096
65054W        W33459  36.359   8.004  10.913
65055W        W33460  15.724  11.513   1.779
65056W        W33461  16.500  10.546  12.104
65057W        W33462  25.504  18.068  10.225
65058W        W33463  20.247  31.711   3.456
65059W        W33464  17.057  15.219  14.728
65060W        W33465  24.709  18.310  11.380
65061W        W33466  18.393  21.494   2.819
65062W        W33467   7.639   0.807  11.444
65063W        W33468   2.834  26.385  13.188
65064W        W33469  11.254  28.346   0.403
65065W        W33470  39.291  26.568  10.811
65066W        W33471   4.981  21.028   3.543
65067W        W33472  12.671  24.533  12.924
65068W        W33473   8.368  31.876  12.388
65069W        W33474  27.196  43.037  12.383
65070W        W33475   9.332  16.809   1.253
65071W        W33476   8.653  43.719   0.471
65072W        W33477  28.224  41.530  13.864
65073W        W33478  11.780  18.021   1.273
65074W        W33479  30.211  44.705  12.309
65075W        W33480  18.121   8.632  12.939
65076W        W33481  10.418  36.180   1.971
65077W        W33482  11.222  23.446   2.100
65078W        W33483  32.589  20.737   4.125
65079W        W33484  14.096  16.754   0.240
65080W        W33485  20.235  11.241   2.446
65081W        W33486  27.424  37.811   1.787
65082W        W33487   1.460   2.861   4.222
65083W        W33488  33.521  10.823  10.565
65084W        W33489   1.814  15.776   1.347
65085W        W33490  36.101  33.370   1.289
65086W        W33491  42.958  39.744   4.527
65087W        W33492  19.417   4.296  14.084
65088W        W33493  16.484  18.738   2.962
65089W        W33494   3.828  35.023   3.164
65090W        W33495  35.082  31.135  11.130
65091W        W33496  33.806  14.207  14.073
65092W        W33497   3.212  17.645  10.915
65093W        W33498  30.062   9.891  13.946
65094W        W33499  14.897   3.807   3.287
65095W        W33500   7.408  16.266   0.964
65096W        W33501  14.616  31.530   2.175
65097W        W33502  13.120  44.284  10.226
65098W        W33503  37.523  33.215   4.916
65099W        W33504  26.075  43.482   4.036
65100W        W33505  41.412  34.576   3.655
65101W        W33506  29.706  13.954  13.968
65102W        W33507  24.644  38.948   3.806
65103W        W33508   2.807  19.302   0.808
65104W        W33509  18.615   4.090  12.907
65105W        W33510  34.029  40.847   4.464
65106W        W33511  26.690   6.740   0.256
65107W        W33512  27.721  21.607   1.762
65108W        W33513  10.639  15.038   0.281
65109W        W33514   5.980   3.818   4.341
65110W        W33515  32.781  15.051  12.974
65111W        W33516  29.617  23.921  12.359
65112W        W33517  37.916   9.529   3.312
65113W        W33518   0.315   6.841   3.331
65114W        W33519  24.168  18.819   0.321
65115W        W33520  38.103   7.607   3.855
65116W        W33521  27.377   9.894  14.801
65117W        W33522  18.950  27.056  13.967
65118W        W33523   4.609  20.162  12.914
65119W        W33524  30.891   4.240  11.596
65120W        W33525  19.279  11.992  11.240
65121W        W33526  17.054  32.609  13.321
65122W        W33527   7.614  32.882  12.822
65123W        W33528  34.215  13.214   3.657
65124W        W33529   8.292   5.170   3.300
65125W        W33530  16.231  21.280  12.066
65126W        W33531  12.137  29.714  11.975
65127W        W33532  43.777  26.493  13.592
65128W        W33533  44.309  35.160  12.123
65129W        W33534   7.891  26.102   4.771
65130W        W33535  24.151  38.184   0.450
65131W        W33536  21.776  10.393  12.036
65132W        W33537   2.888  44.723   1.202
65133W        W33538  39.195  12.255   2.831
65134W        W33539   9.141   7.621  14.945
65135W        W33540  11.258  13.728  14.620
65136W        W33541  14.061   5.957   2.331
65137W        W33542   1.430  19.205   0.394
65138W        W33543  23.537   4.738   1.610
65139W        W33544  40.347   1.988   0.498
65140W        W33545  29.736  27.706  10.635
65141W        W33546  24.710   8.450  13.585
65142W        W33547  31.563   7.814  13.495
65143W        W33548  44.554   3.671  13.794
65144W        W33549  38.867  31.863   0.800
65145W        W33550  21.166  18.988   3.811
65146W        W33551   3.012  23.823   1.698
65147W        W33552  28.813  15.672  10.274
65148W        W33553  24.662  34.613  14.886
65149W        W33554  14.283   0.530   0.551
65150W        W33555  44.513  27.175  14.378
65151W        W33556  32.878  18.629   3.886
65152W        W33557  26.920  28.949  11.586
65153W        W33558  43.808  27.704   2.266
65154W        W33559  12.169   3.859   0.023
65155W        W33560  12.367  22.493  12.467
65156W        W33561  24.378   4.866  11.640
65157W        W33562  43.976  42.027   0.999
65158W        W33563   0.359  27.723   3.168
65159W        W33564   2.445  14.967  11.129
65160W        W33565  38.938   4.388  11.555
65161W        W33566  32.993  13.267   3.227
65162W        W33567  23.457  19.534  12.682
65163W        W33568  39.829  32.113   2.413
65164W        W33569  28.148   6.725   3.683
65165W        W33570  10.647  14.364  10.271
65166W        W33571  43.396   5.983   3.108
65167W        W33572  17.520  14.831  13.271
65168W        W33573  35.866  24.926   1.787
65169W        W33574  26.163  30.557   0.421
65170W        W33575   9.765  42.564   4.071
65171W        W33576   3.862   2.057  10.726
65172W        W33577  18.737   2.321  13.831
65173W        W33578  34.428  27.705   0.434
65174W        W33579  35.092   6.142  10.728
65175W        W33580   3.353   4.347  13.339
65176W        W33581   2.308  33.866  13.488
65177W        W33582  29.517   2.960  11.546
65178W        W33583  14.194  25.215   4.079
65179W        W33584  37.582  28.951  14.437
65180W        W33585  34.950   1.928   1.425
65181W        W33586  19.292  28.448   1.555
65182W        W33587   9.540  35.653   4.880
65183W        W33588   2.641   3.470   1.989
65184W        W33589  13.122  26.137   2.870
65185W        W33590  28.561  38.136   3.129
65186W        W33591  38.332  28.123   2.944
65187W        W33592  11.305   4.303  11.366
65188W        W33593  24.125  22.405   2.668
65189W        W33594   5.776  35.610   4.232
65190W        W33595  24.290  20.219   0.502
65191W        W33596  21.658  39.217  10.378
65192W        W33597  13.241   5.259   0.902
65193W        W33598  17.038   3.215  13.434
65194W        W33599  10.159  40.752   3.606
65195W        W33600   8.455  32.358   2.318
65196W        W33601  21.208   3.623  11.219
65197W        W33602  13.345   7.151   3.216
65198W        W33603  27.607  17.502   0.671
65199W        W33604  41.115  26.967   0.515
65200W        W33605  27.619   9.058   2.817
65201W        W33606   9.670   6.366  12.650
65202W        W33607  15.846   3.887   1.499
65203W        W33608  40.855  39.403  13.978
65204W        W33609  34.155   8.275  13.807
65205W        W33610  19.196  44.653  13.036
65206W        W33611  19.044  41.507   3.050
65207W        W33612  38.100  27.248   4.596
65208W        W33613  11.756   3.411   4.292
65209W        W33614  12.082   6.753  13.053
65210W        W33615  30.619   3.500   2.503
65211W        W33616  41.993  32.723  10.658
65212W        W33617  35.430  34.911   3.393
65213W        W33618  31.914  30.309  12.206
65214W        W33619  33.885  39.755   1.262
65215W        W33620  19.950  11.812   1.463
65216W        W33621  32.435  38.542   0.383
65217W        W33622  38.814  20.046   3.361
65218W        W33623   1.479  32.943   3.708
65219W        W33624  13.694  17.340  14.693
65220W        W33625  31.057  24.613  12.925
65221W        W33626  40.854  16.544   2.806
65222W        W33627  12.681   5.653   3.679
65223W        W33628  24.467  35.012  13.911
65224W        W33629  21.936  35.537  14.795
65225W        W33630  11.779   7.870  12.886
65226W        W33631   3.973  22.474  14.703
65227W        W33632  17.269  28.180   4.507
65228W        W33633  28.322  15.722  11.162
65229W        W33634  31.558  13.485  14.274
65230W        W33635   7.821  27.195  12.407
65231W        W33636  27.116  39.553   3.668
65232W        W33637  31.012  21.217   1.281
65233W        W33638  16.813  39.751   0.430
65234W        W33639  28.382  42.253  11.505
65235W        W33640  44.121  23.970   3.195
65236W        W33641  37.086   8.303   5.015
65237W        W33642  18.573  28.638  14.576
65238W        W33643  16.080  23.685  12.024
65239W        W33644   1.921   1.960   0.342
65240W        W33645  20.114  31.590   0.937
65241W        W33646  15.811  30.424   0.660
65242W        W33647  34.134  24.433   2.557
65243W        W33648  22.264  27.023   2.850
65244W        W33649   4.299  10.774  12.814
65245W        W33650  17.668   1.175  11.555
65246W        W33651  21.269  19.168   0.319
65247W        W33652  31.588  11.328  12.314
65248W        W33653   5.321  29.055   3.025
65249W        W33654  41.937   7.934  10.514
65250W        W33655  16.016   5.764   0.387
65251W        W33656  42.521   7.193  12.114
65252W        W33657  41.000   8.156  12.376
65253W        W33658   1.918  37.364  14.112
65254W        W33659   5.050  40.116  14.552
65255W        W33660  27.090  15.068   3.363
65256W        W33661  25.183  30.156   0.452
65257W        W33662  22.607  10.945   2.494
65258W        W33663  38.177  42.015  14.249
65259W        W33664  11.875  16.618  14.753
65260W        W33665  28.743  21.645   2.780
65261W        W33666  22.022  37.139   4.935
65262W        W33667   2.747   4.938  14.890
65263W        W33668  18.768  29.085  14.832
65264W        W33669  30.021  22.749  11.512
65265W        W33670  14.683  24.981   2.428
65266W        W33671  41.065  23.535   3.312
65267W        W33672  41.997  38.863  13.852
65268W        W33673  27.739  17.543  13.959
65269W        W33674  19.616   9.180   3.616
65270W        W33675  41.521  14.848   0.490
65271W        W33676  12.230   8.616  12.967
65272W        W33677   9.754   5.152  10.788
65273W        W33678  39.302   8.923  13.460
65274W        W33679  18.563  11.211   0.470
65275W        W33680  18.796  16.577   4.198
65276W        W33681   8.084   6.886   2.744
65277W        W33682  34.031  15.571   0.642
65278W        W33683  32.440   1.219   2.194
65279W        W33684  14.580   4.199  12.096
65280W        W33685  41.764  23.222  13.257
65281W        W33686  34.076  41.208   2.242
65282W        W33687   5.915  44.251  14.927
65283W        W33688  34.315  31.988   0.647
65284W        W33689  28.124  43.508  14.717
65285W        W33690  22.409   5.310  12.718
65286W        W33691   7.437   7.242   0.698
65287W        W33692   9.580  13.765  10.648
65288W        W33693   3.190   7.876  11.183
65289W        W33694  39.281   2.922  11.935
65290W        W33695  20.559   4.219   0.735
65291W        W33696   1.861  16.094  10.767
65292W        W33697  31.917  42.806   2.912
65293W        W33698  40.010  27.986  12.212
65294W        W33699  34.580  36.407   1.421
65295W        W33700   2.151  38.553   0.343
65296W        W33701   8.780  26.244  11.142
65297W        W33702  24.910   4.721   4.076
65298W        W33703  24.742  35.130  12.991
65299W        W33704  42.765  39.480   4.123
65300W        W33705  23.168   7.151  13.692
65301W        W33706   2.776  22.313   3.706
65302W        W33707  28.687  31.031   3.100
65303W        W33708  30.036  43.814  11.040
65304W        W33709  42.729   6.975   4.112
65305W        W33710  36.927  16.456   2.573
65306W        W33711  39.799  27.860  13.447
65307W        W33712  31.374  43.008   0.079
65308W        W33713  32.116   1.255  14.961
65309W        W33714   3.494  21.614  13.879
65310W        W33715  27.009   5.184   3.909
65311W        W33716  23.258  27.585   2.106
65312W        W33717  16.109  33.105  14.322
65313W        W33718  44.009  25.632  14.972
65314W        W33719  15.437  35.800  11.750
65315W        W33720  26.241   1.920   4.310
65316W        W33721  30.586   8.169  13.190
65317W        W33722   1.290   1.047  12.534
65318W        W33723   2.950  27.341   3.261
65319W        W33724   8.326   9.361   2.347
65320W        W33725  20.679   9.297   4.711
65321W        W33726  12.672  17.719  10.581
65322W        W33727  12.311  25.402  10.916
65323W        W33728  12.120  29.828  14.518
65324W        W33729  22.676  18.437   0.667
65325W        W33730  25.163  31.961  10.541
65326W        W33731  27.706  12.212  13.001
65327W        W33732  18.125  35.497   4.422
65328W        W33733   3.824  31.669  12.639
65329W        W33734  40.681   9.701   2.562
65330W        W33735  42.561  40.337   2.322
65331W        W33736  41.768  28.255  11.211
65332W        W33737   1.397  15.783  13.804
65333W        W33738  13.818  36.115  14.412
65334W        W33739   6.734  32.561  11.129
65335W        W33740   4.590   0.200  11.119
65336W        W33741  25.001  16.317   1.353
65337W        W33742   2.955  12.412  12.489
65338W        W33743   1.874  11.093   3.733
65339W        W33744  32.198  24.146   1.531
65340W        W33745  13.042  11.638   2.264
65341W        W33746  11.792  17.088   0.956
65342W        W33747   7.534  43.018  10.227
65343W        W33748  13.056   4.992   1.346
65344W        W33749  12.733  28.918   4.065
65345W        W33750  42.759   1.511  11.120
65346W        W33751  29.061  11.181   1.335
65347W        W33752  41.429   8.190   1.185
65348W        W33753   5.232  35.577  11.040
65349W        W33754  17.735  40.794  12.427
65350W        W33755  43.247  26.576  13.627
65351W        W33756  43.466   7.200   4.556
65352W        W33757   6.360  39.034   2.192
65353W        W33758  25.372   8.867  14.792
65354W        W33759  18.838  14.150   3.757
65355W        W33760  27.634  31.947   3.666
65356W        W33761  25.683   2.326   4.072
65357W        W33762  41.066  14.400  12.539
65358W        W33763  33.882  34.974  12.093
65359W        W33764   4.758  19.790  11.698
65360W        W33765  20.067   2.395  10.445
65361W        W33766  22.481   4.448   1.304
65362W        W33767  17.506  37.832   3.696
65363W        W33768  35.782   8.262  14.893
65364W        W33769   2.316  36.096  14.861
65365W        W33770  36.565  39.520   2.159
65366W        W33771   4.935   6.856  10.652
65367W        W33772   8.359  15.047  14.962
65368W        W33773  26.091  33.106   3.199
65369W        W33774  30.030  39.260   0.358
65370W        W33775   9.394  16.766   0.394
65371W        W33776  29.133  32.583   2.376
65372W        W33777  11.255   6.943  12.188
65373W        W33778  29.391  12.375   1.772
65374W        W33779  16.204   1.401  11.952
65375W        W33780  32.039  12.116  11.426
65376W        W33781  44.780   3.884   0.747
65377W        W33782   5.483  25.204   2.998
65378W        W33783  29.846  35.601  11.571
65379W        W33784   1.913  38.947   2.184
65380W        W33785  27.898   4.414   3.086
65381W        W33786  12.873  24.756  13.374
65382W        W33787   4.918  27.345  10.981
65383W        W33788  14.679  38.447   1.655
65384W        W33789  24.151  20.075   3.256
65385W        W33790  12.015  30.779   0.656
65386W        W33791  29.066   9.315  13.030
65387W        W33792  29.621   5.897   2.882
65388W        W33793  25.546  11.262   0.489
65389W        W33794  10.390  23.748   4.162
65390W        W33795  38.464  12.908  12.082
65391W        W33796  37.319  38.398  13.017
65392W        W33797  44.457  11.314   5.006
65393W        W33798   4.156  39.025  12.188
65394W        W33799  28.373  25.558   2.292
65395W        W33800  10.628   0.815  11.500
65396W        W33801   7.572  38.383   3.708
65397W        W33802   7.149  18.216  14.017
65398W        W33803  14.100  41.775   1.191
65399W        W33804  19.847  28.951  12.008
65400W        W33805  42.359  43.335  12.118
65401W        W33806  44.895  44.228   4.188
65402W        W33807  29.155  21.766   0.323
65403W        W33808  34.041  22.428   4.754
65404W        W33809  16.800  20.386   0.003
65405W        W33810  37.006  27.169  12.856
65406W        W33811  41.897   6.330   1.462
65407W        W33812   2.191  40.571  13.364
65408W        W33813  32.759   1.558  14.076
65409W        W33814  21.622  35.628   4.258
65410W        W33815  27.370  28.710  14.980
65411W        W33816  27.962  16.753  13.458
65412W        W33817  35.097   4.925  10.274
65413W        W33818  27.235  29.357  13.011
65414W        W33819  20.026  20.331  14.981
65415W        W33820  43.015  34.424  10.863
65416W        W33821  18.040  18.945  11.137
65417W        W33822   3.569  26.046   1.849
65418W        W33823  28.733  32.306   3.624
65419W        W33824   4.143   8.631  10.672
65420W        W33825  16.689   7.402   4.044
65421W        W33826  25.393  33.338  11.637
65422W        W33827  23.019  28.661   2.589
65423W        W33828  22.272  21.157  14.502
65424W        W33829  44.007  18.655   4.616
65425W        W33830   0.023  25.552  11.326
65426W        W33831  26.122  32.462  11.666
65427W        W33832  21.055   6.754   0.657
65428W        W33833  16.242   1.471   2.035
65429W        W33834   1.751  17.542  11.258
65430W        W33835  43.803   1.762  13.476
65431W        W33836  21.022  26.484   3.224
65432W        W33837  10.906  13.880   4.227
65433W        W33838  44.984  21.320  14.354
65434W        W33839   2.450  39.321  12.048
65435W        W33840  21.567   4.687  12.513
65436W        W33841  38.310  15.175  11.364
65437W        W33842  14.178  23.592  10.664
65438W        W33843   3.849  15.349   3.584
65439W        W33844  25.314  36.552  11.127
65440W        W33845  17.227  30.566  13.272
65441W        W33846  27.054  35.895  10.562
65442W        W33847  25.229  32.034   1.285
65443W        W33848   8.237  21.829   3.605
65444W        W33849  27.361   1.680  12.930
65445W        W33850  36.704  11.641  11.233
65446W        W33851  32.016   2.658  10.749
65447W        W33852  29.110  41.169  13.216
65448W        W33853  27.636  20.770   3.707
65449W        W33854  17.547   9.111   2.429
65450W        W33855  28.630  10.790  14.771
65451W        W33856  43.546  14.004   2.233
65452W        W33857  40.921   2.064   9.774
65453W        W33858  25.042  25.072  12.616
65454W        W33859  26.545  19.147   0.263
65455W        W33860  26.917  22.708   3.190
65456W        W33861   7.741  34.582  12.868
65457W        W33862  12.766   9.867   2.790
65458W        W33863  26.487  11.604  14.313
65459W        W33864  12.816  40.111   3.385
65460W        W33865  42.265  11.753   4.717
65461W        W33866  43.345   3.873   0.884
65462W        W33867   4.043  41.892  13.595
65463W        W33868  38.552  23.736  11.571
65464W        W33869   9.760  36.908  11.626
65465W        W33870  24.610  18.568   0.173
65466W        W33871  32.168  16.180   2.929
65467W        W33872  29.508  37.504  10.207
65468W        W33873  20.758   1.392  12.516
65469W        W33874  22.740   9.258   3.755
65470W        W33875  37.912  33.948  11.292
65471W        W33876  20.052   0.292   3.342
65472W        W33877  13.278   3.924   2.270
65473W        W33878  15.636   1.965   0.364
65474W        W33879   5.963  38.027   1.381
65475W        W33880   3.944   6.128   3.591
65476W        W33881  10.829   9.640  12.412
65477W        W33882  24.868  40.350  12.081
65478W        W33883  19.700  11.212  11.041
65479W        W33884  25.706  10.352   3.218
65480W        W33885  17.186  28.611  14.082
65481W        W33886   7.641   9.813   4.103
65482W        W33887   5.183  35.267  10.546
65483W        W33888  18.928  22.750   4.027
65484W        W33889  13.532  23.635   3.123
65485W        W33890  17.304  15.167  12.928
65486W        W33891  12.659  35.974   1.140
65487W        W33892  10.406   1.291   3.568
65488W        W33893   1.218  21.192   1.646
65489W        W33894  14.104  26.212   4.172
65490W        W33895  21.816  32.968   0.152
65491W        W33896  29.642  22.271   4.624
65492W        W33897  33.354   2.808   1.668
65493W        W33898   0.375  22.719   4.371
65494W        W33899  29.398  23.608   0.713
65495W        W33900  27.213  16.084  10.278
65496W        W33901  33.668  29.165   4.157
65497W        W33902   9.455   3.967  13.438
65498W        W33903  34.993  29.751  14.899
65499W        W33904   6.085  38.687   0.767
65500W        W33905  17.197   9.113  11.527
65501W        W33906  17.850  32.499   5.515
65502W        W33907  17.152  33.021   3.233
65503W        W33908  42.446   3.827  13.924
65504W        W33909  44.064  24.055  12.049
65505W        W33910  33.363   3.857   3.702
65506W        W33911  41.031  24.953   1.453
65507W        W33912   1.979  28.055   2.828
65508W        W33913  17.802   5.979   9.775
65509W        W33914  27.895  19.650  14.040
65510W        W33915   4.912  21.520   2.638
65511W        W33916   3.272  21.933   1.073
65512W        W33917  10.529   1.941  10.063
65513W        W33918  44.384  12.249  11.110
65514W        W33919   4.429  25.601  11.196
65515W        W33920  30.850  21.163   4.172
65516W        W33921  14.694  19.863  12.908
65517W        W33922  41.091  20.731   2.408
65518W        W33923   0.161  14.507  13.045
65519W        W33924  39.463  23.542   3.648
65520W        W33925  33.024  23.570   1.464
65521W        W33926  35.500  14.252  10.702
65522W        W33927   0.868  37.351   0.239
65523W        W33928  12.314  27.784   2.115
65524W        W33929  13.293  44.579   0.427
65525W        W33930  18.031  42.336   3.103
65526W        W33931   8.791  38.459  13.782
65527W        W33932   4.628  11.424  11.175
65528W        W33933  21.675  19.741  14.041
65529W        W33934  16.199  25.895   4.195
65530W        W33935  30.063   6.400   1.866
65531W        W33936  20.722  29.916   2.906
65532W        W33937   5.945  25.521   2.357
65533W        W33938   3.788  29.060   4.265
65534W        W33939  31.363   7.329   0.152
65535W        W33940   4.858  13.783   1.200
65536W        W33941  15.140   1.725  13.625
65537W        W33942  21.456  14.146   2.743
65538W        W33943  34.885  23.192  10.646
65539W        W33944  22.224  26.256   2.341
65540W        W33945  41.523  25.456  13.928
65541W        W33946   4.861  37.828  14.967
65542W        W33947  34.978  14.587   2.348
65543W        W33948  37.511   8.873  14.964
65544W        W33949   8.808  35.636   0.289
65545W        W33950   0.640  17.515  12.018
65546W        W33951  24.433  26.050   2.744
65547W        W33952  36.564  41.424  10.043
65548W        W33953  29.358  28.623  10.813
65549W        W33954  11.213  26.313  12.068
65550W        W33955  24.536  35.359  13.468
65551W        W33956  36.350  23.169   2.401
65552W        W33957  20.780  21.615   3.130
65553W        W33958  16.215  41.445   0.919
65554W        W33959  41.745  20.781   3.261
65555W        W33960  33.544  30.891   3.160
65556W        W33961  26.923  40.703  13.894
65557W        W33962   8.945  41.208  10.692
65558W        W33963  37.309  21.068   1.491
65559W        W33964  18.279  24.448  12.898
65560W        W33965  12.121  28.579   2.720
65561W        W33966   9.844  36.079   3.275
65562W        W33967   7.165  33.872  12.096
65563W        W33968  36.374   1.282  11.092
65564W        W33969  18.845  13.341   2.810
65565W        W33970   8.776   7.854   1.375
65566W        W33971  37.025  40.617   5.126
65567W        W33972  10.779  10.615  14.500
65568W        W33973  23.228  21.902  11.281
65569W        W33974  31.950  20.214  14.359
65570W        W33975  36.028   6.168   4.053
65571W        W33976  27.379  37.017   0.943
65572W        W33977  29.455  34.881  14.958
65573W        W33978  35.355  10.778   4.906
65574W        W33979  40.115  16.782  11.113
65575W        W33980  44.182   3.497   1.343
65576W        W33981   8.731   8.431   4.081
65577W        W33982   4.250  21.265  14.377
65578W        W33983  15.649  23.676  13.374
65579W        W33984  36.466   2.736  11.876
65580W        W33985  36.791   4.795   2.771
65581W        W33986   0.684   2.400  14.502
65582W        W33987  28.479   4.359  14.338
65583W        W33988  18.120   7.328  13.130
65584W        W33989   4.925   2.504   1.683
65585W        W33990  17.898  23.529  12.311
65586W        W33991  20.813  31.162  12.783
65587W        W33992   4.921  31.015   4.544
65588W        W33993  28.325  10.803   2.348
65589W        W33994  15.669  18.935  12.882
65590W        W33995  37.555   6.782  14.868
65591W        W33996  36.749  27.888  13.971
65592W        W33997  24.708  34.638  12.883
65593W        W33998  31.032   5.686  13.967
65594W        W33999  29.577   9.870  11.034
65595W        W34000  13.834  38.057   3.237
65596W        W34001  39.417  27.042   1.163
65597W        W34002  27.543  40.838  13.268
65598W        W34003  36.939  30.465   0.478
65599W        W34004  31.499   8.296   0.134
65600W        W34005  10.914  19.120  11.266
65601W        W34006  43.333  33.798   0.777
65602W        W34007  23.962  29.134   0.201
65603W        W34008  16.304  30.749   5.046
65604W        W34009  32.066  42.581   1.471
65605W        W34010  31.159  23.580  14.736
65606W        W34011  39.654  31.855   1.349
65607W        W34012   3.807   7.784  11.953
65608W        W34013  10.161  44.442  11.206
65609W        W34014   2.233  30.553  11.544
65610W        W34015  41.849  15.241  12.448
65611W        W34016  26.366  35.175   0.789
65612W        W34017  16.250  33.738   1.477
65613W        W34018  44.528  30.129  13.995
65614W        W34019  44.943  38.428  12.931
65615W        W34020  23.704   2.835   0.536
65616W        W34021   8.255  27.966   3.126
65617W        W34022   0.454   8.924   4.973
65618W        W34023   9.316  23.638  11.568
65619W        W34024   0.339  35.117   1.287
65620W        W34025   8.917  13.806  14.254
65621W        W34026  33.857   8.364   0.453
65622W        W34027  33.400  22.209  11.448
65623W        W34028   1.799  19.458   1.193
65624W        W34029  32.418  42.225  11.203
65625W        W34030  35.862  33.105  14.563
65626W        W34031  41.970  29.913   1.414
65627W        W34032  35.541   9.565   1.289
65628W        W34033  25.003   6.891  14.767
65629W        W34034  40.568  26.626  12.469
65630W        W34035  18.465  20.103   2.545
65631W        W34036  26.691  33.305  14.459
65632W        W34037  35.034   8.684   0.456
65633W        W34038  22.734  36.372  13.064
65634W        W34039   5.955   9.937  10.606
65635W        W34040  11.720  22.727   3.721
65636W        W34041  34.016  37.010   1.944
65637W        W34042  17.566  26.706  10.764
65638W        W34043  29.465   8.458  12.381
65639W        W34044  41.314  39.680   4.209
65640W        W34045   6.640  39.631   2.229
65641W        W34046  14.895   1.786   0.925
65642W        W34047  13.006  22.470  12.179
65643W        W34048  13.586  35.397  11.622
65644W        W34049  37.276  11.362   4.135
65645W        W34050  35.867   2.714  10.298
65646W        W34051  26.003  11.593   1.469
65647W        W34052   2.205   7.755  11.498
65648W        W34053   1.507  22.706   4.834
65649W        W34054  22.764  13.295  10.958
65650W        W34055   5.685  23.584   1.807
65651W        W34056  37.779   5.858   1.759
65652W        W34057  35.904   2.769   0.434
65653W        W34058  13.146   5.502   1.341
65654W        W34059  38.658   4.683   0.909
65655W        W34060  29.969  40.389   4.234
65656W        W34061   1.197  32.481   4.553
65657W        W34062  18.753  29.846  13.454
65658W        W34063   4.270  16.537  13.915
65659W        W34064   3.439  24.636  13.862
65660W        W34065  21.556   7.869   2.198
65661W        W34066  31.943  25.215   2.133
65662W        W34067  40.346  32.209  10.261
65663W        W34068  13.138  17.554   3.115
65664W        W34069   1.269  20.336  14.871
65665W        W34070  38.037  12.217  10.704
65666W        W34071  20.291  44.476  10.764
65667W        W34072  19.383  27.864   2.751
65668W        W34073  10.296  36.942   3.602
65669W        W34074  16.046  30.023  14.971
65670W        W34075   7.286  29.003   3.907
65671W        W34076  32.646  42.759  11.957
65672W        W34077  15.511  26.163   9.878
65673W        W34078  12.287  41.842  14.939
65674W        W34079   7.128   9.188  14.251
65675W        W34080   9.055  10.698   2.364
65676W        W34081  37.043   5.894  10.762
65677W        W34082  40.095  43.307   0.266
65678W        W34083  38.493  15.821   1.646
65679W        W34084  18.832   6.419  11.511
65680W        W34085  13.268  10.711  10.919
65681W        W34086  30.343  21.685  11.513
65682W        W34087  23.659   8.689  14.344
65683W        W34088  39.012   9.137   4.150
65684W        W34089   9.547  13.730   0.643
65685W        W34090  37.460  17.033  14.596
65686W        W34091  25.033   5.226   4.636
65687W        W34092  21.221  40.469   4.152
65688W        W34093  28.863  39.439   5.454
65689W        W34094  36.964   6.946  10.702
65690W        W34095   5.244   8.891   2.763
65691W        W34096  15.171   5.420  12.037
65692W        W34097  20.081  16.671   1.314
65693W        W34098  17.675  33.888   4.938
65694W        W34099  40.066   4.952  11.211
65695W        W34100  31.119  38.374   1.605
65696W        W34101  33.969  26.330   1.733
65697W        W34102   9.832   5.252   1.967
65698W        W34103  31.882  22.001   2.284
65699W        W34104  24.919  10.191  14.301
65700W        W34105  18.968  30.025  12.071
65701W        W34106  29.059  18.417   4.238
65702W        W34107  15.260  37.374  10.425
65703W        W34108  41.895  29.090   2.716
65704W        W34109   3.111   6.210  14.953
65705W        W34110  14.749  38.909   1.910
65706W        W34111   9.228  19.328  10.472
65707W        W34112  32.660  32.606  13.344
65708W        W34113  12.249  28.465   3.268
65709W        W34114  37.481   2.797  11.196
65710W        W34115  25.130  43.450   3.098
65711W        W34116  28.978   7.457   0.949
65712W        W34117  44.348  12.095  13.110
65713W        W34118  24.762   9.656   0.238
65714W        W34119  32.964  36.027  11.324
65715W        W34120  27.599  10.753  14.651
65716W        W34121  24.807  38.249  14.308
65717W        W34122  17.018  29.659  12.177
65718W        W34123  39.883   1.544  12.607
65719W        W34124  29.912  31.451  10.458
65720W        W34125  36.531  43.520   4.211
65721W        W34126  43.353   7.554  14.846
65722W        W34127  16.690   3.277   5.133
65723W        W34128   5.873   0.518   2.853
65724W        W34129  24.544  25.037  10.458
65725W        W34130   4.138  34.862   3.914
65726W        W34131  18.741  11.631   5.025
65727W        W34132  27.154  28.158   4.556
65728W        W34133  37.860  41.967  12.319
65729W        W34134  41.645   1.783  14.313
65730W        W34135  28.696  36.775  14.819
65731W        W34136  25.164  11.163   3.727
65732W        W34137  25.777  43.659  11.566
65733W        W34138  31.979   6.285  14.113
65734W        W34139  41.811   2.640  13.574
65735W        W34140   5.794  19.772   3.048
65736W        W34141   0.990  43.284   1.775
65737W        W34142  40.599  41.483   1.500
65738W        W34143  15.969  31.061  14.882
65739W        W34144  32.659  24.067   4.679
65740W        W34145  23.670  31.830   0.746
65741W        W34146   9.918   6.260   2.606
65742W        W34147   0.386  19.995   4.489
65743W        W34148  16.306   8.716   0.898
65744W        W34149  32.469  24.218   4.194
65745W        W34150  10.078  41.058  12.875
65746W        W34151  32.990  30.878   0.945
65747W        W34152  26.623  35.130   2.508
65748W        W34153  13.848  19.370   1.743
65749W        W34154  44.385  28.981   0.030
65750W        W34155  26.978   9.176  14.491
65751W        W34156   9.109  20.247   2.244
65752W        W34157  22.319  31.994  14.866
65753W        W34158  44.017  20.836  13.975
65754W        W34159   2.407  20.627   4.388
65755W        W34160  41.310  33.057  12.013
65756W        W34161   2.710   7.626  11.131
65757W        W34162  22.912  43.856  14.753
65758W        W34163  23.916  25.751   1.261
65759W        W34164  21.688  11.854   3.962
65760W        W34165  21.706  14.646  10.699
65761W        W34166  44.029  32.478  11.633
65762W        W34167  33.341  14.581   3.211
65763W        W34168  31.965   4.212   4.141
65764W        W34169  23.162   2.493  13.516
65765W        W34170   0.834  19.726  12.908
65766W        W34171  15.630   8.405   1.094
65767W        W34172  43.349  30.011   0.358
65768W        W34173  15.746  16.082  12.715
65769W        W34174   4.505  40.929  14.929
65770W        W34175  39.522  33.938   3.922
65771W        W34176  44.834  25.476   3.307
65772W        W34177  35.659   9.242   3.459
65773W        W34178  17.182   6.264   0.782
65774W        W34179  33.868  14.293   0.434
65775W        W34180   3.414   4.931   4.735
65776W        W34181  30.632  12.045   0.955
65777W        W34182  31.942  10.788  10.766
65778W        W34183  16.377  32.068   0.477
65779W        W34184  10.958  13.735  11.391
65780W        W34185  14.293  19.698   4.363
65781W        W34186   2.920  27.196  13.529
65782W        W34187   4.152  18.343  13.545
65783W        W34188  19.257  33.847   3.316
65784W        W34189  36.434   3.459  12.940
65785W        W34190  44.818  29.518  11.044
65786W        W34191  39.617  41.493   1.422
65787W        W34192   8.875  24.097   3.138
65788W        W34193  32.499  41.843  12.988
65789W        W34194  16.611  40.888   2.805
65790W        W34195  21.973  21.126  13.076
65791W        W34196  10.434  39.973  14.497
65792W        W34197  20.005  30.601  13.091
65793W        W34198  20.750  23.610  11.116
65794W        W34199  18.167  35.794  11.546
65795W        W34200  13.232  42.424  11.266
65796W        W34201  11.729  26.422   0.285
65797W        W34202  33.185  41.050   2.337
65798W        W34203  25.390  42.484   0.280
65799W        W34204  25.461   0.226  13.494
65800W        W34205  35.637  22.171  14.474
65801W        W34206  37.430  36.487   2.790
65802W        W34207   2.242  29.498  13.464
65803W        W34208  13.811  18.669   1.210
65804W        W34209   4.665  43.600   0.545
65805W        W34210  29.583  40.581   0.415
65806W        W34211   7.753  14.407  11.529
65807W        W34212  28.070   5.180   2.852
65808W        W34213  30.086   3.953   1.729
65809W        W34214   6.039  28.913  13.254
65810W        W34215  39.296  11.989  11.457
65811W        W34216  12.821  32.011  11.987
65812W        W34217  15.792  43.220   3.712
65813W        W34218   6.215  36.006   5.067
65814W        W34219  40.274   7.711  14.347
65815W        W34220  25.286  10.646  12.264
65816W        W34221  38.347  23.312  12.552
65817W        W34222  38.073  12.877  14.345
65818W        W34223  18.720  41.972   1.212
65819W        W34224  23.718  20.445   4.622
65820W        W34225   6.029  22.144   1.855
65821W        W34226  32.540  16.487  11.997
65822W        W34227  12.970  24.878  11.941
65823W        W34228  34.787  23.536  13.260
65824W        W34229   9.756   2.970  11.604
65825W        W34230  29.592  31.250   1.158
65826W        W34231  20.825  39.429  12.060
65827W        W34232  18.591  32.851   2.266
65828W        W34233  18.794   7.922   1.980
65829W        W34234  15.690  23.606   4.027
65830W        W34235  17.956  38.853   0.408
65831W        W34236  37.848  36.555  14.053
65832W        W34237  21.215  15.737   0.742
65833W        W34238   9.138  18.824  11.101
65834W        W34239  12.949   3.295   3.706
65835W        W34240  29.405  27.098   3.847
65836W        W34241  24.464  36.405  13.509
65837W        W34242  20.906  37.558   5.292
65838W        W34243  34.470  25.237   0.960
65839W        W34244  12.716  28.514   0.409
65840W        W34245  18.664  29.621  10.801
65841W        W34246  12.616   6.236   0.261
65842W        W34247  19.183  22.222  13.433
65843W        W34248  22.212   0.236   3.241
65844W        W34249  25.191   0.630   0.277
65845W        W34250  11.830   6.957  11.622
65846W        W34251  41.323  28.642  13.015
65847W        W34252  14.777   3.396  14.711
65848W        W34253  18.430   9.280   2.192
65849W        W34254   8.599  38.922  11.565
65850W        W34255  10.260  14.101   1.650
65851W        W34256  14.480  39.063  14.734
65852W        W34257  19.440  38.501  14.248
65853W        W34258  44.726  42.970   4.285
65854W        W34259  37.118  20.110   4.580
65855W        W34260  31.087   2.291   3.628
65856W        W34261  17.622  26.082  11.421
65857W        W34262  16.629  27.259   0.197
65858W        W34263  12.350  44.368  12.495
65859W        W34264  24.848  42.378   4.483
65860W        W34265  29.036  37.878   3.209
65861W        W34266  27.426  13.347   1.723
65862W        W34267   1.494   1.937   2.740
65863W        W34268   7.770  28.284   0.698
65864W        W34269  39.439  17.028  12.150
65865W        W34270   5.347  25.166  13.875
65866W        W34271  30.005  32.187  12.372
65867W        W34272  30.266  25.173   3.556
65868W        W34273  40.083   8.029   3.440
65869W        W34274  38.501  11.683   3.756
65870W        W34275  38.371  32.369   0.510
65871W        W34276   6.744  36.970  11.569
65872W        W34277  13.555  17.274   3.724
65873W        W34278  13.773  35.462   3.616
65874W        W34279   1.359  24.660   4.759
65875W        W34280  40.060  20.104  13.477
65876W        W34281   6.506  34.526  13.550
65877W        W34282  39.389  21.094  12.037
65878W        W34283   7.127  29.939   1.492
65879W        W34284  19.689   3.859  14.221
65880W        W34285  10.708   7.150   1.124
65881W        W34286  14.571  44.801  12.008
65882W        W34287  15.111  42.397   0.858
65883W        W34288  29.052  16.230   0.741
65884W        W34289   3.375  29.446   0.200
65885W        W34290  34.387   6.769   2.188
65886W        W34291   9.110  17.971   4.922
65887W        W34292   6.280  28.878  14.093
65888W        W34293  11.142  16.520   1.858
65889W        W34294  33.644  15.807   4.510
65890W        W34295   1.972   3.381  14.643
65891W        W34296  37.951  39.499   3.757
65892W        W34297  20.251   7.156   0.802
65893W        W34298  25.224  10.960   2.280
65894W        W34299  23.144  26.410   3.469
65895W        W34300  13.318  32.280   5.049
65896W        W34301   7.170  21.627   4.200
65897W        W34302   0.497   5.141   0.229
65898W        W34303  20.554  33.521  12.343
65899W        W34304  29.504  35.349  13.100
65900W        W34305  36.254  19.294  10.399
65901W        W34306   4.397   5.883   3.554
65902W        W34307  38.486  36.516  10.587
65903W        W34308  33.172  29.117   3.194
65904W        W34309  27.444  11.666   3.762
65905W        W34310  10.570  14.117  12.674
65906W        W34311  15.012  32.896  14.008
65907W        W34312  25.651   7.774  12.087
65908W        W34313  11.334  21.213  14.136
65909W        W34314  26.152  10.695   1.135
65910W        W34315  43.482  21.311   1.244
65911W        W34316  34.578  10.679   3.352
65912W        W34317   6.401   4.499  10.351
65913W        W34318  16.443   7.910   0.510
65914W        W34319  36.164   1.992  11.631
65915W        W34320  27.572  13.611   3.705
65916W        W34321  33.938  42.534  11.528
65917W        W34322  23.061  39.078  14.371
65918W        W34323   7.700  12.614  13.827
65919W        W34324  16.596   1.252   3.682
65920W        W34325   9.877  28.269  10.736
65921W        W34326  23.766  22.298  13.732
65922W        W34327   5.263  18.023  14.772
65923W        W34328   7.232  38.400   1.196
65924W        W34329   2.267  41.273  11.466
65925W        W34330  28.174   4.901   0.336
65926W        W34331  20.043   0.003  12.493
65927W        W34332  21.135  31.866  14.916
65928W        W34333  36.177  17.259  12.018
65929W        W34334  20.205  21.694  13.914
65930W        W34335  35.046  19.278  14.466
65931W        W34336  32.057  22.427   3.768
65932W        W34337   4.390   6.195   3.990
65933W        W34338  39.892   2.891  14.483
65934W        W34339   8.707   2.531   1.218
65935W        W34340  39.649  42.960  12.450
65936W        W34341  44.479  16.569  11.167
65937W        W34342  37.978   8.138   0.721
65938W        W34343  38.773  12.816  12.812
65939W        W34344  30.600  17.760  14.993
65940W        W34345  24.156  36.051  11.686
65941W        W34346  15.286  18.646   2.204
65942W        W34347  13.298  30.456   5.283
65943W        W34348  42.829  41.775   0.442
65944W        W34349  19.780  17.674  11.538
65945W        W34350  18.602   4.336   1.791
65946W        W34351   6.432  44.849   1.889
65947W        W34352  17.293  31.397   2.335
65948W        W34353  18.195  14.414   4.279
65949W        W34354   1.716  39.068   3.361
65950W        W34355  26.387  23.621  11.083
65951W        W34356   7.215  36.149   4.617
65952W        W34357  41.458   5.207  14.992
65953W        W34358  35.888   2.292   3.465
65954W        W34359  21.698  35.780   0.836
65955W        W34360  44.811  37.390   1.229
65956W        W34361  30.602  30.391  12.181
65957W        W34362  21.086   1.495   3.304
65958W        W34363  41.666  36.522   3.255
65959W        W34364  42.300   5.236  13.565
65960W        W34365  31.031  10.675   3.908
65961W        W34366  32.668   1.343  14.969
65962W        W34367  23.826  26.636   4.589
65963W        W34368  28.445   2.393   4.361
65964W        W34369  33.196  31.119  12.983
65965W        W34370   5.538  11.096   1.760
65966W        W34371  41.216  15.628   4.610
65967W        W34372  20.800  30.975  11.435
65968W        W34373  42.896  38.079   0.265
65969W        W34374  22.113   5.079   3.596
65970W        W34375   0.012  33.878   1.639
65971W        W34376  32.904  14.547   4.122
65972W        W34377   5.831  13.510  12.363
65973W        W34378  30.169  12.701   2.915
65974W        W34379   7.753  20.526   0.082
65975W        W34380  11.863  35.141   1.865
65976W        W34381  40.567  18.064  12.934
65977W        W34382  27.012  34.029  10.587
65978W        W34383  23.237  17.285   0.944
65979W        W34384  14.382  22.252  11.184
65980W        W34385  17.687  33.236  13.055
65981W        W34386  25.703   9.374   1.268
65982W        W34387  10.222   6.258   3.112
65983W        W34388   2.152  10.725  13.609
65984W        W34389  19.650  23.131  13.053
65985W        W34390  30.128  35.327  13.990
65986W        W34391  41.710  13.884   0.018
65987W        W34392  19.263  25.087  13.376
65988W        W34393   0.501  26.536  12.505
65989W        W34394  14.803  37.965   3.549
65990W        W34395  43.735  18.652   4.156
65991W        W34396  14.177  22.414   5.079
65992W        W34397   2.706  17.732   4.679
65993W        W34398  37.053  36.915  13.104
65994W        W34399  39.787  38.734   2.723
65995W        W34400   1.344  25.500   3.083
65996W        W34401  37.269   9.888  13.601
65997W        W34402  30.652  43.910   2.684
65998W        W34403   5.763  36.466  14.269
65999W        W34404  22.534   3.153   4.115
66000W        W34405  30.448  33.419   3.905
66001W        W34406  19.333  17.891   3.641
66002W        W34407  31.219  11.288   4.731
66003W        W34408  36.512  24.437  10.705
66004W        W34409  38.405  26.034  12.454
66005W        W34410  17.653   0.754  14.107
66006W        W34411  40.967   3.073  14.072
66007W        W34412  31.993  39.535   0.389
66008W        W34413   0.520   1.024   3.094
66009W        W34414  32.370  27.769  13.368
66010W        W34415  41.066  12.869  12.441
66011W        W34416   9.702  36.914   4.329
66012W        W34417   1.407  18.140  12.978
66013W        W34418  31.868  31.182  12.382
66014W        W34419  14.291  37.876  14.381
66015W        W34420  17.042   2.265   1.477
66016W        W34421   0.509  24.239   1.416
66017W        W34422   9.335  21.401   3.839
66018W        W34423  13.670  25.747  11.117
66019W        W34424  37.038   5.860   2.813
66020W        W34425  15.194  32.599   0.792
66021W        W34426   3.394   0.239  11.647
66022W        W34427  14.580  42.261   0.839
66023W        W34428  16.789  42.026  12.854
66024W        W34429  24.592  21.243  10.952
66025W        W34430   3.865   5.216   4.620
66026W        W34431  28.551  11.702  14.598
66027W        W34432  10.622   0.010   2.226
66028W        W34433   0.542  17.696   2.679
66029W        W34434  38.964  18.074  11.667
66030W        W34435  40.529  35.504   0.003
66031W        W34436  10.919  37.730  13.568
66032W        W34437   5.725  44.837  12.515
66033W        W34438  26.440  42.367   4.689
66034W        W34439  26.503  12.349  14.851
66035W        W34440   6.430  21.552   1.501
66036W        W34441  36.059  41.019   2.381
66037W        W34442  28.660  40.614  14.500
66038W        W34443  27.926   9.849   0.296
66039W        W34444  13.579  38.267   2.373
66040W        W34445   8.364  20.188   4.146
66041W        W34446  33.920  16.312   0.430
66042W        W34447   3.593  32.006  12.321
66043W        W34448  27.261  11.201  13.399
66044W        W34449   2.439  19.064   2.928
66045W        W34450   8.212  40.394  14.402
66046W        W34451  40.596   0.556   2.115
66047W        W34452  13.797   9.610  13.922
66048W        W34453  13.793  26.390   1.865
66049W        W34454  34.355  23.527  12.389
66050W        W34455  41.488  10.354   4.099
66051W        W34456  23.257   6.787  13.346
66052W        W34457  35.077  29.078   3.211
66053W        W34458  36.955  15.686   3.330
66054W        W34459  11.749  41.066   4.779
66055W        W34460   1.822  30.912   2.100
66056W        W34461   0.603  36.483   4.156
66057W        W34462  33.014  17.277  14.317
66058W        W34463   5.821  34.969  14.110
66059W        W34464  24.682  26.291   4.104
66060W        W34465  21.283  16.155  14.785
66061W        W34466  22.252  12.846  14.804
66062W        W34467   8.314   8.029  14.422
66063W        W34468  34.207   2.193  13.818
66064W        W34469  12.200   9.421   4.160
66065W        W34470  23.110  28.412   3.629
66066W        W34471   8.763  39.970   1.478
66067W        W34472  22.128  23.738  11.050
66068W        W34473  43.986  24.041   3.704
66069W        W34474  40.292   5.482   2.618
66070W        W34475  32.056  42.012   4.091
66071W        W34476  17.062  27.105  13.056
66072W        W34477  34.393  44.796   4.620
66073W        W34478  31.903   1.874   1.827
66074W        W34479  11.523   6.933  11.214
66075W        W34480  14.479   9.216  10.943
66076W        W34481  14.315  33.408  12.093
66077W        W34482   0.228  42.893   4.056
66078W        W34483  10.256  25.053  13.576
66079W        W34484  36.378   9.096  11.241
66080W        W34485  44.288  39.747   2.677
66081W        W34486  34.044  18.076   1.229
66082W        W34487   2.133  11.343   4.664
66083W        W34488  24.520  15.391  10.727
66084W        W34489  28.024   3.192  12.588
66085W        W34490  12.649   5.215  11.514
66086W        W34491   7.743   5.939   3.761
66087W        W34492  27.610  38.120  11.962
66088W        W34493   2.942  11.074   4.421
66089W        W34494  35.965  34.203   3.566
66090W        W34495  16.284   0.313  12.357
66091W        W34496  37.001  21.283  13.018
66092W        W34497  33.327  34.857  13.618
66093W        W34498  28.043   2.289  10.771
66094W        W34499   6.893  28.104  13.764
66095W        W34500  43.070   9.880  14.595
66096W        W34501  19.298  27.605  12.599
66097W        W34502   0.375  19.717  12.067
66098W        W34503  15.248  22.237  12.688
66099W        W34504  23.050  31.989   2.791
66100W        W34505  41.091  14.575   0.428
66101W        W34506  30.734   4.911   1.813
66102W        W34507  10.145  39.473   1.162
66103W        W34508  44.474   3.344  14.470
66104W        W34509  25.848  32.678  12.038
66105W        W34510  18.265  16.977  13.215
66106W        W34511  16.631  32.161  13.169
66107W        W34512  20.826  18.840  11.926
66108W        W34513  12.510   1.903  13.959
66109W        W34514   6.930  18.786  11.470
66110W        W34515  35.130  22.644   3.143
66111W        W34516   0.404  22.757   2.899
66112W        W34517   6.636  22.171  13.822
66113W        W34518  23.930  17.007   4.573
66114W        W34519  13.271  17.876  11.671
66115W        W34520  38.440  21.038   1.748
66116W        W34521   7.311   2.671   4.287
66117W        W34522  38.564  30.130  10.989
66118W        W34523  21.838  36.372   2.609
66119W        W34524  27.551  39.092   3.391
66120W        W34525  19.648  38.924  14.056
66121W        W34526   0.254  39.452   0.812
66122W        W34527  16.943  43.334  11.110
66123W        W34528  36.072  16.229  14.034
66124W        W34529  21.373   1.829   1.441
66125W        W34530  29.127   4.818  10.418
66126W        W34531   8.412  33.407  11.661
66127W        W34532  11.279  28.058   3.843
66128W        W34533   4.356  23.328  10.630
66129W        W34534  16.656  28.592   4.640
66130W        W34535  14.913   3.433  11.025
66131W        W34536  23.755  31.596  11.173
66132W        W34537  16.226   8.673  14.497
66133W        W34538  36.318  35.866   1.732
66134W        W34539  32.753   8.398  14.426
66135W        W34540  28.689  39.331  10.761
66136W        W34541   2.177  26.365   9.994
66137W        W34542  12.637  29.555   2.582
66138W        W34543  37.016  44.459   0.325
66139W        W34544  17.650  20.468   4.553
66140W        W34545  32.662  11.634  14.394
66141W        W34546  16.692   3.663  13.506
66142W        W34547  42.736  44.744  13.109
66143W        W34548  20.007  10.805   2.669
66144W        W34549  41.311  19.190   1.409
66145W        W34550  36.442  25.197   4.915
66146W        W34551  19.731  24.023   2.122
66147W        W34552   6.895  32.251   2.755
66148W        W34553  38.315  42.407  10.637
66149W        W34554  32.533  39.997  13.776
66150W        W34555  40.016  14.026  14.781
66151W        W34556   3.343  44.170  13.607
66152W        W34557  38.624   2.188   0.769
66153W        W34558  19.631  33.809  11.332
66154W        W34559  42.305  39.057  14.917
66155W        W34560  13.690  37.593  13.337
66156W        W34561  35.084  19.609   3.924
66157W        W34562  38.253   3.363  14.085
66158W        W34563  11.396  26.215  12.982
66159W        W34564  43.433  30.529  14.577
66160W        W34565   8.897  42.461  12.412
66161W        W34566  32.096  41.489  13.094
66162W        W34567  31.593  16.291   4.776
66163W        W34568  41.095  18.853  12.968
66164W        W34569   7.735  21.051  10.439
66165W        W34570  36.659  32.922  14.637
66166W        W34571   4.860  41.548  11.127
66167W        W34572  29.616  25.034  13.802
66168W        W34573   7.131   3.278  11.481
66169W        W34574  43.060   3.061  12.351
66170W        W34575   0.386   5.207  11.111
66171W        W34576   0.382   7.729  13.451
66172W        W34577  25.545  23.163  12.912
66173W        W34578   3.035  19.443   4.260
66174W        W34579  30.335   9.270   3.667
66175W        W34580  15.979  44.292  12.055
66176W        W34581  38.912  16.776  14.495
66177W        W34582  43.262  41.184  14.793
66178W        W34583  32.287  24.150   5.065
66179W        W34584  36.519  28.527  12.453
66180W        W34585  16.283  21.232  13.834
66181W        W34586  18.723  24.557  14.797
66182W        W34587   7.849  26.422  14.555
66183W        W34588  18.773  24.262  13.051
66184W        W34589  30.896  19.182  11.762
66185W        W34590  25.941  38.312  11.966
66186W        W34591  44.899   6.205  12.846
66187W        W34592  31.471  40.143   1.022
66188W        W34593  44.000  15.252  12.672
66189W        W34594  39.001   5.878   4.802
66190W        W34595  36.857  13.581   4.760
66191W        W34596  39.451  18.976  11.080
66192W        W34597  44.693  40.222  12.518
66193W        W34598  24.490   7.119   3.828
66194W        W34599  38.772  20.879   1.364
66195W        W34600  28.162  24.195   0.464
66196W        W34601  19.586  32.529  12.902
66197W        W34602  21.818  20.826   1.700
66198W        W34603   0.368  28.647  11.198
66199W        W34604   3.367  18.186   3.622
66200W        W34605  33.635  20.210   1.927
66201W        W34606  42.688   5.964  13.157
66202W        W34607  36.667  30.526  14.035
66203W        W34608  38.982  18.683  14.895
66204W        W34609  30.390   7.368   4.072
66205W        W34610  41.309   9.043   0.617
66206W        W34611  21.831  17.693  13.117
66207W        W34612  32.832  38.164  12.389
66208W        W34613  36.379   2.041   1.341
66209W        W34614   7.372  19.071  14.395
66210W        W34615  19.984  30.032   0.385
66211W        W34616  24.058   7.693  10.741
66212W        W34617   3.796  16.565  14.548
66213W        W34618  26.574  13.768  14.741
66214W        W34619  14.274  22.557   2.257
66215W        W34620  17.102  27.539   0.181
66216W        W34621  34.029  23.217  12.143
66217W        W34622  21.713   3.003   3.213
66218W        W34623  39.786  31.903   2.898
66219W        W34624  30.028  22.624   4.572
66220W        W34625  36.702  28.604   1.285
66221W        W34626  32.834  14.983   2.632
66222W        W34627  17.608  24.718   0.470
66223W        W34628  23.056   3.706  11.897
66224W        W34629  32.701  15.551  14.260
66225W        W34630   6.070  28.013  10.741
66226W        W34631  13.550   9.952   4.906
66227W        W34632  38.916  27.057   0.899
66228W        W34633  12.906   5.885   3.267
66229W        W34634   3.035   8.377  10.700
66230W        W34635  26.113  34.559  14.401
66231W        W34636  29.003  41.753   3.377
66232W        W34637  27.221  40.303   4.185
66233W        W34638  19.003  25.729   3.728
66234W        W34639  38.966  32.380  12.559
66235W        W34640   4.269  19.077   0.845
66236W        W34641  24.745   4.682  13.482
66237W        W34642  20.996  43.373   1.867
66238W        W34643  15.864  35.889  14.930
66239W        W34644  14.471   2.820  10.693
66240W        W34645  33.623   2.686   0.298
66241W        W34646   4.219   9.737   0.766
66242W        W34647  22.572  44.005   2.764
66243W        W34648  17.820  12.782  10.631
66244W        W34649  12.383  24.539   0.535
66245W        W34650  23.035  25.728   1.206
66246W        W34651  18.408  37.727  11.149
66247W        W34652  40.404  16.056   1.323
66248W        W34653  15.580   9.026   5.246
66249W        W34654  11.373  36.346   2.615
66250W        W34655  43.468  44.250  14.987
66251W        W34656  12.115  31.155   2.377
66252W        W34657  38.804  25.644   0.825
66253W        W34658  37.466  41.748  12.005
66254W        W34659  37.463  41.951  10.107
66255W        W34660  38.745   9.800   0.040
66256W        W34661  20.807  18.619  11.459
66257W        W34662  10.839   2.982  14.743
66258W        W34663  31.165   1.787  11.848
66259W        W34664   9.278  23.609   2.879
66260W        W34665  36.331  20.363  11.759
66261W        W34666  23.897   8.363   0.229
66262W        W34667  30.205  41.948   0.395
66263W        W34668  38.978   7.649  11.314
66264W        W34669  14.052  39.927   0.006
66265W        W34670   8.107  37.169  11.090
66266W        W34671  37.153  24.171   2.448
66267W        W34672  18.367  35.491   0.434
66268W        W34673  42.847  28.445  11.180
66269W        W34674  40.776  34.707   1.755
66270W        W34675  22.605   1.311  11.696
66271W        W34676  26.486  14.237  14.516
66272W        W34677  12.214  36.786  11.027
66273W        W34678  32.386  26.660  13.732
66274W        W34679  12.560  26.806  12.384
66275W        W34680  10.760  14.160   4.646
66276W        W34681  34.078  17.288  11.330
66277W        W34682   9.373  40.337  11.415
66278W        W34683   7.751  10.081  11.935
66279W        W34684  34.790   8.035  11.587
66280W        W34685  17.351   5.263   0.920
66281W        W34686  36.262   1.536  14.805
66282W        W34687   0.702  13.980   2.258
66283W        W34688  39.532  16.242  12.496
66284W        W34689  18.776   8.127  14.293
66285W        W34690  25.898   1.313  12.870
66286W        W34691   6.213  10.712  13.054
66287W        W34692   7.627  26.515   3.716
66288W        W34693   9.421  20.778   0.369
66289W        W34694  43.448   3.163   2.502
66290W        W34695  44.443  38.609  13.936
66291W        W34696  37.416  31.608  12.128
66292W        W34697   7.057  30.057  12.939
66293W        W34698  40.278  25.601  10.933
66294W        W34699  11.270   2.202   3.777
66295W        W34700  22.332   1.905  13.333
66296W        W34701  25.141  22.169  13.788
66297W        W34702  29.145  33.433  13.514
66298W        W34703  39.810   4.281   3.652
66299W        W34704  19.569  37.085   4.313
66300W        W34705  25.280  20.224   4.823
66301W        W34706   5.575  22.130  14.953
66302W        W34707   3.193  15.839   3.402
66303W        W34708  38.360  41.883   0.289
66304W        W34709  12.643  25.129  13.830
66305W        W34710  11.420  25.947  14.872
66306W        W34711  23.134  31.006  14.359
66307W        W34712  30.559   7.272   3.020
66308W        W34713   3.276  20.546   3.306
66309W        W34714  32.120   5.279  14.361
66310W        W34715  40.581   8.568   1.699
66311W        W34716  22.498   4.286  13.414
66312W        W34717  19.940  35.451  13.771
66313W        W34718  35.081  31.092   4.554
66314W        W34719  36.678  38.000   2.224
66315W        W34720   9.948   1.512  13.876
66316W        W34721   1.253  31.618   3.136
66317W        W34722   5.257  40.631  13.154
66318W        W34723   3.476  33.625  11.322
66319W        W34724  20.470  26.521  10.212
66320W        W34725   8.878   7.915   3.229
66321W        W34726  18.734  17.151  10.285
66322W        W34727  17.758  26.596  12.579
66323W        W34728  14.767  18.158   2.920
66324W        W34729   5.516   4.341   2.130
66325W        W34730  29.871  18.331   1.907
66326W        W34731   1.009  25.970  11.589
66327W        W34732  39.564  14.620  13.500
66328W        W34733  44.002   5.424   4.780
66329W        W34734  15.220  40.796   1.501
66330W        W34735   7.819  23.384  12.527
66331W        W34736  25.716  33.304   1.915
66332W        W34737  15.499  23.194  14.303
66333W        W34738  44.794  34.264  12.668
66334W        W34739   9.276  12.759   3.644
66335W        W34740  43.651  44.851  12.135
66336W        W34741  18.798  44.227   4.128
66337W        W34742   7.081  36.618  14.275
66338W        W34743   2.934   8.019   4.975
66339W        W34744  36.874  29.331  14.874
66340W        W34745  22.385   1.711  10.780
66341W        W34746  25.415  35.595  14.940
66342W        W34747  17.934  26.105  12.493
66343W        W34748  36.543  44.306  11.460
66344W        W34749  25.886  22.165   2.977
66345W        W34750  23.136  38.388   4.621
66346W        W34751  42.986  36.156   4.410
66347W        W34752   6.480   5.777  12.147
66348W        W34753   4.811  27.667   2.723
66349W        W34754  12.994  12.642   4.065
66350W        W34755   9.984  26.263   0.761
66351W        W34756  38.793  17.179   0.766
66352W        W34757  14.445  43.445   1.103
66353W        W34758  22.809  42.315  11.200
66354W        W34759  34.900   2.204  14.974
66355W        W34760   2.380  14.562   2.248
66356W        W34761  35.867  21.182   4.003
66357W        W34762  40.386   5.006   3.628
66358W        W34763   6.231  31.600  11.328
66359W        W34764   4.645  38.026   4.292
66360W        W34765  26.098  19.470  10.606
66361W        W34766  12.052  38.439  12.912
66362W        W34767  24.602  34.605   4.617
66363W        W34768  20.746  33.544  13.323
66364W        W34769   1.892  19.034   4.628
66365W        W34770  24.577  39.977   3.916
66366W        W34771   7.877   7.340   1.477
66367W        W34772  15.847  10.403   0.061
66368W        W34773   0.561  13.303  12.209
66369W        W34774  34.715  13.222   3.638
66370W        W34775  39.612  40.779  11.673
66371W        W34776  42.999  10.809   2.597
66372W        W34777  41.841  25.228  11.263
66373W        W34778  20.504  21.636  12.260
66374W        W34779  21.455  20.119  14.848
66375W        W34780   2.995   6.385   3.647
66376W        W34781  34.606  30.082   2.360
66377W        W34782  12.964  37.128  13.351
66378W        W34783  23.935  27.108   1.373
66379W        W34784  13.889  16.063   2.805
66380W        W34785  18.262  16.083   3.737
66381W        W34786   3.292  41.617   3.242
66382W        W34787  33.403  19.753  12.893
66383W        W34788  43.246  17.131  14.286
66384W        W34789  17.078   9.239   2.216
66385W        W34790   2.257  24.187  14.888
66386W        W34791  20.059  27.938   0.290
66387W        W34792   2.497  11.279   2.139
66388W        W34793  17.595  22.327   0.752
66389W        W34794   7.911  34.136   0.302
66390W        W34795  30.068  11.612   4.115
66391W        W34796  27.813  37.008   2.734
66392W        W34797  11.651  40.199   1.855
66393W        W34798  32.582  41.460   0.780
66394W        W34799   0.191  32.064  13.115
66395W        W34800   0.744   3.139  11.278
66396W        W34801  10.627  12.559  12.170
66397W        W34802  31.839  26.947   1.873
66398W        W34803  26.933   5.816  10.728
66399W        W34804  12.868   6.734  10.729
66400W        W34805  32.475  11.287   0.304
66401W        W34806   1.001   6.168   3.293
66402W        W34807  32.444  18.313  12.632
66403W        W34808  13.170  11.750  14.053
66404W        W34809  40.312  34.412   1.812
66405W        W34810  12.860  16.784   0.068
66406W        W34811   1.567  36.140   2.235
66407W        W34812  12.257  32.676  13.750
66408W        W34813   5.815  17.203   1.615
66409W        W34814  22.564  18.749   3.238
66410W        W34815  18.562   5.938  11.543
66411W        W34816  31.111  42.293   2.638
66412W        W34817  15.576  22.001   0.278
66413W        W34818  40.877  34.056   3.795
66414W        W34819  20.534  38.355  14.904
66415W        W34820  16.958  20.162  13.812
66416W        W34821  14.598  35.576   0.371
66417W        W34822  37.566  26.002  12.118
66418W        W34823  42.169  10.605   3.721
66419W        W34824  33.638  21.689   0.336
66420W        W34825  35.326   8.470   0.062
66421W        W34826   5.746   2.010  11.403
66422W        W34827  40.328  40.875   2.530
66423W        W34828   2.005  36.942  13.035
66424W        W34829  18.574  43.163  12.483
66425W        W34830  34.989   4.105  14.425
66426W        W34831  36.029  17.140  10.689
66427W        W34832  44.302  39.831   2.171
66428W        W34833  24.510  40.481   0.044
66429W        W34834  40.919  23.427   1.046
66430W        W34835  15.318   2.305  12.141
66431W        W34836  25.504  43.284   3.809
66432W        W34837  29.866  31.690  12.561
66433W        W34838  25.470  23.168   2.829
66434W        W34839  27.418   9.195  12.904
66435W        W34840   5.729  13.025  12.273
66436W        W34841  15.043  37.846   5.039
66437W        W34842  37.094  33.516   3.692
66438W        W34843  11.434  24.984   3.380
66439W        W34844  38.882  29.931   0.668
66440W        W34845  36.033  15.115  10.672
66441W        W34846  20.476   8.019  13.581
66442W        W34847  12.844  36.420   1.348
66443W        W34848  18.495  17.118  14.286
66444W        W34849  16.489  41.578  12.882
66445W        W34850  14.172  12.220   0.409
66446W        W34851  32.899  21.768   4.903
66447W        W34852  19.046   7.302   0.669
66448W        W34853  11.086  32.893   4.431
66449W        W34854  20.481  41.570   4.067
66450W        W34855  20.514   0.849   2.674
66451W        W34856  29.641  38.895   0.331
66452W        W34857   3.376  11.216  10.880
66453W        W34858  19.851   6.774  11.885
66454W        W34859  27.646  35.024  14.471
66455W        W34860  21.598   9.112  12.410
66456W        W34861   8.833  16.972   3.573
66457W        W34862   1.994  25.552   0.341
66458W        W34863  34.597  31.076   3.181
66459W        W34864   3.924  19.678  12.642
66460W        W34865  10.146  34.608  11.420
66461W        W34866  33.965   7.703  13.431
66462W        W34867  42.579  12.739   4.945
66463W        W34868  19.637  36.306   2.196
66464W        W34869  28.076  33.873  14.258
66465W        W34870  39.811  27.086  13.890
66466W        W34871   3.279  36.274  11.071
66467W        W34872  16.939  11.841  13.431
66468W        W34873   6.340  43.937  14.930
66469W        W34874  34.571  30.111  14.756
66470W        W34875   9.020  42.981   4.527
66471W        W34876  11.294  21.308   1.633
66472W        W34877  41.673  34.008  13.002
66473W        W34878  44.356  13.838   5.041
66474W        W34879  21.746  38.642   4.113
66475W        W34880  12.810   4.189   0.258
66476W        W34881  18.708  17.034  13.509
66477W        W34882   4.994   2.337  13.560
66478W        W34883   5.656  11.128  12.392
66479W        W34884   2.888  28.868  10.721
66480W        W34885   6.170   6.193   3.613
66481W        W34886  26.707   3.027   3.327
66482W        W34887   5.145  37.458   0.200
66483W        W34888  10.188   3.319   4.204
66484W        W34889  27.637  30.514   1.352
66485W        W34890  22.433  21.887   0.084
66486W        W34891  21.911  12.197   1.824
66487W        W34892  37.085   5.312  11.132
66488W        W34893  43.715  17.679  11.828
66489W        W34894  38.537  44.918  12.075
66490W        W34895  25.714  14.670   0.855
66491W        W34896  16.808  19.725  10.836
66492W        W34897  11.733  19.224  13.423
66493W        W34898   6.275  19.234  13.410
66494W        W34899  38.004  44.729  14.508
66495W        W34900  15.956   2.966   9.741
66496W        W34901  44.207  43.332  12.411
66497W        W34902   3.693  12.266  11.624
66498W        W34903  26.738  15.406   0.809
66499W        W34904   7.328  28.174  14.065
66500W        W34905   0.017  18.707   4.663
66501W        W34906  40.588  32.063  13.597
66502W        W34907  29.711  24.587  14.285
66503W        W34908  38.325   7.622   1.708
66504W        W34909  37.926   2.802  11.958
66505W        W34910  13.176  41.976   3.336
66506W        W34911   1.480  18.652   2.420
66507W        W34912  27.750  26.949   0.726
66508W        W34913  13.601  39.081  13.434
66509W        W34914  13.757  16.172   0.910
66510W        W34915  37.472  42.036   1.925
66511W        W34916  44.917  27.818   0.290
66512W        W34917   7.270  17.095   1.256
66513W        W34918  17.789  24.546  11.201
66514W        W34919   5.274  34.765  10.656
66515W        W34920  20.035  39.493  12.935
66516W        W34921  32.711  25.991   1.865
66517W        W34922  20.991   9.254   3.141
66518W        W34923  12.541  28.738  11.215
66519W        W34924  41.525   0.394   4.822
66520W        W34925  26.994  31.943   1.438
66521W        W34926  43.222  40.752  14.524
66522W        W34927  18.217  14.913   1.834
66523W        W34928  12.305   1.412  11.891
66524W        W34929  19.375  38.910  14.886
66525W        W34930  44.430   8.335  10.986
66526W        W34931  40.120  29.641  10.769
66527W        W34932  34.084   7.483  13.901
66528W        W34933  35.506  41.410   2.248
66529W        W34934   1.312   4.401  10.908
66530W        W34935   5.625  41.549   2.643
66531W        W34936   6.310  25.720  11.164
66532W        W34937  28.901   0.226  11.016
66533W        W34938   7.309  38.577   4.109
66534W        W34939   2.929  35.047  10.713
66535W        W34940  44.313  17.940   2.221
66536W        W34941  35.084  40.159  11.133
66537W        W34942  22.506  11.076  13.969
66538W        W34943   8.649  11.898   3.841
66539W        W34944   2.973  12.306   1.647
66540W        W34945  17.623  38.748   2.791
66541W        W34946  35.458  33.952  11.236
66542W        W34947  28.503  33.517  10.512
66543W        W34948  43.826  10.269   0.219
66544W        W34949  17.544  19.095   2.334
66545W        W34950  35.287  15.473  13.967
66546W        W34951  19.030   7.930   3.272
66547W        W34952  33.107   5.265  11.541
66548W        W34953   4.157  10.644   0.614
66549W        W34954  19.870  20.779   0.918
66550W        W34955  10.257  16.240   0.476
66551W        W34956  29.505   0.578   0.406
66552W        W34957  43.262  26.159  14.416
66553W        W34958  34.895  11.229  13.248
66554W        W34959  33.556  23.665  14.524
66555W        W34960  31.609  12.081  11.999
66556W        W34961   0.327  15.382   0.314
66557W        W34962  11.600  26.181   4.123
66558W        W34963  23.283  11.101  14.532
66559W        W34964   0.980  11.805  10.984
66560W        W34965  21.436  25.442  10.622
66561W        W34966  15.240  16.010   2.385
66562W        W34967  42.442  12.226   0.832
66563W        W34968  14.957  34.588  14.430
66564W        W34969  40.502   2.874  13.825
66565W        W34970   4.195  43.804  12.624
66566W        W34971   5.670   6.954   1.257
66567W        W34972  33.037   3.026  14.070
66568W        W34973  25.621  18.674   5.066
66569W        W34974  11.153  30.739  13.425
66570W        W34975  35.513  37.851  11.062
66571W        W34976  15.549  17.195  11.779
66572W        W34977   7.781  31.951   0.412
66573W        W34978  30.151  33.623  12.363
66574W        W34979  37.882  22.446  12.529
66575W        W34980  39.205  31.535  14.260
66576W        W34981  29.641  13.347  11.990
66577W        W34982  35.237  35.084  12.382
66578W        W34983  25.876   4.936   4.209
66579W        W34984  12.453  30.595   1.066
66580W        W34985  42.016  20.609   3.688
66581W        W34986   0.392  32.944   3.656
66582W        W34987  16.887  33.072   3.687
66583W        W34988   3.750  15.979  11.396
66584W        W34989  25.168  38.364  10.721
66585W        W34990  39.066  42.388  12.141
66586W        W34991   3.691  33.338   3.698
66587W        W34992  18.374  23.954  12.979
66588W        W34993  16.609  15.066  13.861
66589W        W34994  21.972  37.540   2.576
66590W        W34995  32.460  40.820   0.385
66591W        W34996  21.520  40.800   2.619
66592W        W34997  16.822  44.393  14.518
66593W        W34998   5.539  10.723   3.500
66594W        W34999  12.737  37.946   1.787
66595W        W35000  14.029   4.064   1.714
66596W        W35001  16.701   4.261  11.971
66597W        W35002  26.330  39.339  14.918
66598W        W35003   2.267  36.247   0.714
66599W        W35004  22.668  27.151   3.683
66600W        W35005  29.476  44.082   2.387
66601W        W35006   1.878  20.285  11.539
66602W        W35007  16.040  37.993  12.859
66603W        W35008  42.345  18.500  12.439
66604W        W35009  16.069   2.131   1.179
66605W        W35010  29.098  14.616  11.451
66606W        W35011  42.374  24.527   2.674
66607W        W35012   1.246  40.556   3.747
66608W        W35013   6.061  35.097  12.475
66609W        W35014  39.212  10.179  11.986
66610W        W35015  10.081  10.251   3.267
66611W        W35016   6.226  13.794  12.571
66612W        W35017  28.184  27.244  13.046
66613W        W35018  42.770  16.608   3.686
66614W        W35019  43.521  28.433  11.510
66615W        W35020   3.548  29.239  11.259
66616W        W35021  36.125   6.686   4.114
66617W        W35022   6.473   2.772   5.181
66618W        W35023  35.870  28.945   4.551
66619W        W35024  44.223  23.582   4.614
66620W        W35025   7.979  12.873  14.182
66621W        W35026  17.745  23.553  12.802
66622W        W35027  21.130   4.298  14.852
66623W        W35028  38.381  33.928   3.119
66624W        W35029  24.317  16.790  11.125
66625W        W35030  38.173   7.373   4.810
66626W        W35031  19.291  21.183   2.789
66627W        W35032  32.130   4.706  10.729
66628W        W35033  27.245  23.666   2.483
66629W        W35034  35.394   6.107  13.914
66630W        W35035   4.721  19.271   0.747
66631W        W35036  31.097   4.355   1.872
66632W        W35037   6.921  18.058  10.279
66633W        W35038  11.279  37.077  13.494
66634W        W35039   8.841  27.621  14.952
66635W        W35040  10.896  22.561   0.924
66636W        W35041  32.937  22.699  14.363
66637W        W35042  37.326  40.560  11.184
66638W        W35043  43.736  40.160  12.484
66639W        W35044   9.753  27.235  12.470
66640W        W35045  10.453  35.914   4.115
66641W        W35046  36.310  26.964   2.661
66642W        W35047  11.683  34.802  13.432
66643W        W35048  32.990  23.996  12.115
66644W        W35049  15.505   3.766   1.887
66645W        W35050  10.893  31.104   1.955
66646W        W35051  40.543  36.577  10.796
66647W        W35052  38.030  39.417  13.474
66648W        W35053  20.805  15.584  10.990
66649W        W35054  41.770  34.353  13.829
66650W        W35055  31.550  23.084  11.939
66651W        W35056  16.283  15.614   3.138
66652W        W35057  29.561   1.696  14.677
66653W        W35058  13.783   5.381  14.795
66654W        W35059   8.283  15.567   0.046
66655W        W35060  21.289   9.398  13.620
66656W        W35061  16.643   2.928  11.818
66657W        W35062  34.252  23.425  11.653
66658W        W35063  28.337  34.080  14.928
66659W        W35064   3.910  27.964  12.451
66660W        W35065  28.878   8.954  13.930
66661W        W35066  10.076  40.377  10.675
66662W        W35067  26.188   5.485   4.167
66663W        W35068  11.829   5.124  12.407
66664W        W35069   8.279  25.214  14.755
66665W        W35070  20.271  10.321  11.070
66666W        W35071   6.369   1.779  13.992
66667W        W35072   0.465  39.378   2.397
66668W        W35073  40.060   2.923  11.323
66669W        W35074  12.759  25.139  10.728
66670W        W35075  32.662  29.411  12.894
66671W        W35076   8.738   2.955  14.950
66672W        W35077  26.987  16.127  14.290
66673W        W35078  42.974   4.604   3.269
66674W        W35079   1.935  21.064   2.103
66675W        W35080   2.782   4.986   2.296
66676W        W35081   1.768  27.451  13.803
66677W        W35082   7.941   0.520   1.372
66678W        W35083  12.437  10.118  12.260
66679W        W35084  21.747  36.162  14.816
66680W        W35085  19.051  41.031  10.757
66681W        W35086  21.548  39.784   1.780
66682W        W35087  22.172  31.596  13.336
66683W        W35088  33.007  16.854  12.642
66684W        W35089   1.041  22.984   3.961
66685W        W35090  41.084  16.376  13.911
66686W        W35091  13.837  13.826  14.861
66687W        W35092  33.466  35.003   0.985
66688W        W35093  19.625  29.199   3.829
66689W        W35094  10.369  42.066   2.131
66690W        W35095  30.989  18.659   3.328
66691W        W35096   4.486   1.966   0.933
66692W        W35097  14.537  33.270   0.299
66693W        W35098   9.257  44.486  11.581
66694W        W35099  41.857   3.747  14.553
66695W        W35100   1.906  37.450   1.863
66696W        W35101  33.426  33.991  13.318
66697W        W35102  37.592  29.137  11.126
66698W        W35103  38.458   8.621   1.862
66699W        W35104  21.184  21.106  13.774
66700W        W35105  10.952   1.890   4.073
66701W        W35106   8.827  31.362  12.964
66702W        W35107   5.412  31.682  12.918
66703W        W35108  16.115  35.417   1.684
66704W        W35109  14.806  25.026  14.644
66705W        W35110   5.948  14.294  14.866
66706W        W35111  12.108  10.081   1.147
66707W        W35112  28.481  27.931  14.895
66708W        W35113  10.259  42.557  14.540
66709W        W35114  10.890  44.398  11.988
66710W        W35115  12.684  36.868   0.517
66711W        W35116  42.997  10.014  11.927
66712W        W35117  12.692  24.979   2.859
66713W        W35118  16.766   2.997   4.199
66714W        W35119  17.229  23.843  11.072
66715W        W35120  15.613  19.279  10.564
66716W        W35121  40.073  32.047   3.862
66717W        W35122   4.732  29.989  11.971
66718W        W35123  16.443  40.944   0.918
66719W        W35124  22.695  21.581  13.577
66720W        W35125  28.030  21.153   1.375
66721W        W35126  33.332  31.610  12.482
66722W        W35127   1.233  38.135  13.131
66723W        W35128   7.646   7.883   0.810
66724W        W35129  44.997   7.588  12.463
66725W        W35130   3.860  22.017  10.690
66726W        W35131  22.160  10.109   3.867
66727W        W35132  29.184  43.779   4.616
66728W        W35133   3.823  23.949   2.337
66729W        W35134  40.577  34.987  14.921
66730W        W35135  21.587  23.732   5.583
66731W        W35136  12.586  26.727   3.334
66732W        W35137  41.879  14.279  14.068
66733W        W35138  42.761  27.575  12.532
66734W        W35139  44.991  40.638   4.637
66735W        W35140  39.347  10.632   4.677
66736W        W35141   2.232  34.558  12.159
66737W        W35142  18.834  18.845   1.736
66738W        W35143  21.500  35.403   0.054
66739W        W35144  17.261  20.686   1.763
66740W        W35145  43.301   1.342   1.989
66741W        W35146  41.883   4.941   4.752
66742W        W35147  35.712  12.962  12.897
66743W        W35148  38.462  30.473   3.280
66744W        W35149  20.337  32.882  11.356
66745W        W35150  42.255  13.219  14.893
66746W        W35151  17.521  35.497  14.188
66747W        W35152  17.653  12.582   2.820
66748W        W35153  24.101  37.644   0.546
66749W        W35154  29.669  42.273  12.377
66750W        W35155   3.407  35.900   1.644
66751W        W35156  16.679  30.278  13.069
66752W        W35157  39.049  14.607  13.427
66753W        W35158  13.904  23.468  13.769
66754W        W35159  26.359  33.135  13.449
66755W        W35160  38.823  33.789  13.973
66756W        W35161  26.072  13.845  14.982
66757W        W35162   0.365  22.122  13.983
66758W        W35163  35.524  39.785  13.203
66759W        W35164   4.971  24.040   3.623
66760W        W35165  13.655  11.744   0.960
66761W        W35166  32.365  40.506  12.205
66762W        W35167  25.579  14.410  14.392
66763W        W35168  11.650  14.802   1.140
66764W        W35169  13.510  44.416  14.940
66765W        W35170  43.943  27.513   1.818
66766W        W35171  25.485  10.369   1.449
66767W        W35172  42.875  20.796  10.748
66768W        W35173   2.975  11.835   0.318
66769W        W35174  36.976  16.785   1.288
66770W        W35175  11.796  40.905   1.413
66771W        W35176  14.224  11.718   5.288
66772W        W35177  37.076  24.202  14.334
66773W        W35178  18.612  37.118   0.827
66774W        W35179  14.746  17.212  13.074
66775W        W35180  29.062  25.482  14.970
66776W        W35181  13.981  34.162   0.275
66777W        W35182  30.622  33.997   1.238
66778W        W35183  40.302  10.181   0.685
66779W        W35184  20.482   6.706  11.076
66780W        W35185   6.538  28.178  10.619
66781W        W35186  30.267  34.607  11.560
66782W        W35187   2.903  25.509  14.911
66783W        W35188  37.306  13.197   4.585
66784W        W35189  37.119   6.820   0.254
66785W        W35190  31.893  35.379   0.516
66786W        W35191  23.845  38.404   0.071
66787W        W35192   3.372  28.473  14.036
66788W        W35193  39.602  30.543   4.730
66789W        W35194  11.275   7.681   4.155
66790W        W35195  15.665  26.749  11.152
66791W        W35196  27.484  19.288   2.318
66792W        W35197  16.187  15.803  12.584
66793W        W35198  23.466  36.239  12.639
66794W        W35199  11.162  22.208  12.016
66795W        W35200  35.530  41.265  11.351
66796W        W35201  31.029  13.617   2.612
66797W        W35202  43.699  44.318  10.186
66798W        W35203  22.806  12.632  12.464
66799W        W35204  30.179  31.739   3.636
66800W        W35205  35.701  29.141  11.544
66801W        W35206  34.506  22.242   1.016
66802W        W35207  15.450   3.894   9.826
66803W        W35208  41.485   4.622  10.129
66804W        W35209  12.853  20.992  13.427
66805W        W35210  17.822   8.229  10.687
66806W        W35211  39.503  36.070  12.523
66807W        W35212  27.117  20.131  11.384
66808W        W35213  38.782   5.301   2.192
66809W        W35214  31.685  44.592   1.218
66810W        W35215   0.773  11.921  13.302
66811W        W35216   9.850  28.563   3.360
66812W        W35217  18.236  31.428   3.316
66813W        W35218  21.010   6.936  12.971
66814W        W35219  42.247   1.618  11.005
66815W        W35220  38.370   2.258   2.997
66816W        W35221  31.208  37.852   2.729
66817W        W35222  24.036  22.668   0.194
66818W        W35223   4.462   9.215  12.548
66819W        W35224   9.788  31.644  11.481
66820W        W35225  26.693  27.607  13.563
66821W        W35226  10.800   1.508   3.244
66822W        W35227  39.461   9.135   1.925
66823W        W35228  42.853  20.821   3.203
66824W        W35229  11.337  26.614   0.562
66825W        W35230  11.236  29.579  14.961
66826W        W35231  42.458   6.061  11.478
66827W        W35232  44.225  39.872  14.146
66828W        W35233  19.795  17.173  11.228
66829W        W35234   1.957  14.857  12.706
66830W        W35235  13.940  42.833  13.637
66831W        W35236   6.477   9.221  10.554
66832W        W35237  39.268  14.749   3.844
66833W        W35238   6.477   8.749   1.736
66834W        W35239  31.980  42.638   2.411
66835W        W35240  19.224  42.891  13.803
66836W        W35241   0.325   4.282  14.931
66837W        W35242  22.705   5.489   9.909
66838W        W35243   6.468   5.853   3.840
66839W        W35244  38.976  23.027   3.203
66840W        W35245  38.621  14.354   2.339
66841W        W35246  14.201   4.520   4.607
66842W        W35247  44.738  42.055  14.341
66843W        W35248  36.926  22.975  13.410
66844W        W35249  31.163  17.209  13.917
66845W        W35250  27.202  44.025  14.832
66846W        W35251  14.708  13.404   0.832
66847W        W35252  30.601  30.889   2.704
66848W        W35253  22.790  24.118  13.059
66849W        W35254   2.433   6.413   0.956
66850W        W35255   2.856  35.622  11.806
66851W        W35256   8.070  41.459   0.505
66852W        W35257  42.037   2.482  14.765
66853W        W35258  26.646  25.673  14.418
66854W        W35259  25.941  12.159   0.877
66855W        W35260   1.360  14.621  11.464
66856W        W35261  16.730  13.430   0.768
66857W        W35262  15.322  19.351   0.053
66858W        W35263  15.345  27.242  13.461
66859W        W35264  28.298   6.506   1.938
66860W        W35265  19.798  43.859   0.894
66861W        W35266  27.174  19.554  12.974
66862W        W35267  24.090  28.514   3.081
66863W        W35268   2.778   3.726   3.577
66864W        W35269   1.836  15.207   4.043
66865W        W35270  18.261   0.343  13.109
66866W        W35271  21.488   9.333   0.869
66867W        W35272  28.061  21.747  11.934
66868W        W35273   5.748  34.373   3.630
66869W        W35274  22.199   2.909  13.377
66870W        W35275  27.459  29.483   0.470
66871W        W35276  36.135  27.667  11.671
66872W        W35277  36.798  20.184  13.564
66873W        W35278  36.932  31.430  12.007
66874W        W35279  17.325  17.283   2.762
66875W        W35280  32.704   7.424  11.116
66876W        W35281   0.034   7.922   0.455
66877W        W35282  10.852   4.247  11.648
66878W        W35283  23.451   9.968  12.799
66879W        W35284  32.381   7.859  12.371
66880W        W35285  10.081  42.848  12.414
66881W        W35286  33.012   0.243  11.092
66882W        W35287  23.056  23.833   4.068
66883W        W35288  39.602   8.343   4.075
66884W        W35289  22.531   1.960   0.512
66885W        W35290  28.689  37.198  12.471
66886W        W35291  13.558   5.368   3.751
66887W        W35292  12.553  35.202  12.840
66888W        W35293  36.307  38.854  12.084
66889W        W35294  21.595  12.962   3.246
66890W        W35295  35.108   4.312   0.299
66891W        W35296   5.279  41.390  12.444
66892W        W35297  17.329  40.397  12.458
66893W        W35298  32.607  31.351   1.431
66894W        W35299   2.867   2.240   0.449
66895W        W35300  15.099  14.362  12.572
66896W        W35301  37.304  38.082  13.477
66897W        W35302  29.507  36.796   4.315
66898W        W35303  22.627  14.812   0.472
66899W        W35304  28.933  24.013   4.075
66900W        W35305  34.460  11.168  13.562
66901W        W35306  25.099  21.453  10.656
66902W        W35307   5.928  39.961  13.634
66903W        W35308  30.584   8.238   0.428
66904W        W35309  11.547  11.737   2.832
66905W        W35310  31.518  36.447  11.248
66906W        W35311   3.894  28.655  12.823
66907W        W35312  21.457   8.974   2.599
66908W        W35313  39.088   3.221   1.833
66909W        W35314  36.362  16.224   0.375
66910W        W35315  43.443  28.547   0.981
66911W        W35316  33.561  33.516  13.228
66912W        W35317   5.295  26.961   1.250
66913W        W35318   3.438  28.436   1.027
66914W        W35319   5.833  15.964   4.001
66915W        W35320  18.644  11.936   2.910
66916W        W35321  33.899  10.434  10.690
66917W        W35322  22.072  40.420   4.767
66918W        W35323  21.402  40.473  13.201
66919W        W35324  29.658  38.557   0.752
66920W        W35325  38.396  33.090   2.758
66921W        W35326   9.975  11.641   3.544
66922W        W35327   8.528  35.024   0.996
66923W        W35328  34.341  41.989  13.484
66924W        W35329  18.217  17.107  12.542
66925W        W35330  13.326  19.193   3.159
66926W        W35331  11.766  19.197   0.324
66927W        W35332  37.655  16.823   1.044
66928W        W35333  29.956  24.124  14.990
66929W        W35334  27.459  37.364   2.641
66930W        W35335  26.195   2.248  12.575
66931W        W35336   9.163   3.706   1.298
66932W        W35337  30.565   6.823   1.169
66933W        W35338  32.347  18.037   0.355
66934W        W35339  39.032  23.790   3.743
66935W        W35340   6.094   5.264   0.337
66936W        W35341  43.030   7.816   0.272
66937W        W35342  11.342  33.615  14.874
66938W        W35343  12.179   1.770  13.601
66939W        W35344  19.353   5.898  12.045
66940W        W35345  31.369  22.069   2.211
66941W        W35346  14.770  38.461  11.812
66942W        W35347  22.026  18.824   0.441
66943W        W35348  13.190  37.693  13.359
66944W        W35349  29.868  22.690   2.841
66945W        W35350  17.714  19.965   4.622
66946W        W35351  30.643   1.732   1.809
66947W        W35352  23.773  27.050  11.250
66948W        W35353   0.438  19.095   0.906
66949W        W35354  33.480   1.465   0.881
66950W        W35355  26.232  28.010  14.437
66951W        W35356  39.135  19.229  10.751
66952W        W35357  40.804   9.122   4.283
66953W        W35358  34.639  33.948  14.024
66954W        W35359  11.929  33.477   4.117
66955W        W35360  24.707  43.283  10.986
66956W        W35361  23.557  20.651  12.152
66957W        W35362  28.471  10.782  10.677
66958W        W35363  28.921  25.502  14.095
66959W        W35364  30.935  15.705   1.825
66960W        W35365  28.685   2.131   4.740
66961W        W35366  38.956  10.921   4.467
66962W        W35367  37.451  42.882  12.854
66963W        W35368  22.282  40.649  14.950
66964W        W35369  43.178  13.272   2.641
66965W        W35370  15.679  25.289  14.720
66966W        W35371  14.118   2.991  13.400
66967W        W35372   5.305  26.086  11.160
66968W        W35373   7.184   6.830   0.855
66969W        W35374   2.659  43.952   1.888
66970W        W35375  24.907  30.154   4.582
66971W        W35376  28.445  27.078   2.829
66972W        W35377  10.062  27.025  11.111
66973W        W35378  23.405  29.113   1.127
66974W        W35379  11.123  14.176  10.852
66975W        W35380   3.869  43.619   3.547
66976W        W35381  10.049  41.154   3.189
66977W        W35382  10.155  41.839  11.881
66978W        W35383  24.228  20.335  13.815
66979W        W35384   5.845  20.674   2.281
66980W        W35385  13.348  12.833   4.407
66981W        W35386  22.375  35.900  11.180
66982W        W35387  20.194  31.596   2.923
66983W        W35388   4.420  25.170   4.545
66984W        W35389  27.437  41.886  14.806
66985W        W35390  13.748  31.622  13.418
66986W        W35391  24.058   4.721  14.783
66987W        W35392  42.306  30.508   0.311
66988W        W35393  37.464  15.199   4.100
66989W        W35394  39.770  33.114   2.338
66990W        W35395  23.214  37.565   1.715
66991W        W35396   3.965  35.609   4.679
66992W        W35397  31.187  21.299   4.532
66993W        W35398  20.313  26.733  12.124
66994W        W35399  16.733  37.905   4.329
66995W        W35400  25.985  16.014  11.538
66996W        W35401  26.717   0.928   1.252
66997W        W35402  28.639   8.635  14.265
66998W        W35403  44.789   1.187  14.510
66999W        W35404  40.014  11.677  14.894
67000W        W35405  15.581  17.058   2.925
67001W        W35406  10.106  19.193  10.821
67002W        W35407  38.983  29.780   1.180
67003W        W35408   8.131  39.611  11.086
67004W        W35409   8.530   8.910   4.100
67005W        W35410  44.692  20.322  12.950
67006W        W35411  25.528   5.979   4.553
67007W        W35412  43.202   2.803  11.931
67008W        W35413  18.704  28.743   4.491
67009W        W35414  35.091  40.687   0.369
67010W        W35415  34.286   3.911   1.767
67011W        W35416  32.421  34.573   1.438
67012W        W35417   8.425  15.408  11.107
67013W        W35418  36.673  13.201  12.416
67014W        W35419  35.543  21.031   1.924
67015W        W35420  34.368  16.694  13.732
67016W        W35421  38.907  29.218   2.718
67017W        W35422   8.708  19.006   0.587
67018W        W35423  41.488  15.801   0.760
67019W        W35424  32.556  24.565   4.876
67020W        W35425  22.753  27.896  12.843
67021W        W35426   3.549  37.318   5.030
67022W        W35427  15.311  39.439   4.728
67023W        W35428  30.126  43.042  13.500
67024W        W35429   1.211  28.880   4.594
67025W        W35430  37.648   0.231  11.590
67026W        W35431  35.463  34.197  11.685
67027W        W35432  12.528  43.726  13.834
67028W        W35433  29.414   6.372  13.361
67029W        W35434  22.575  44.249   3.809
67030W        W35435  37.849  27.200   0.089
67031W        W35436  18.932  40.145   0.845
67032W        W35437  42.052  12.838  10.582
67033W        W35438   9.895  21.979  13.352
67034W        W35439  37.402  25.600  10.573
67035W        W35440  37.346  23.348  11.168
67036W        W35441  19.285  15.778   0.485
67037W        W35442   3.956  18.779  13.349
67038W        W35443  17.645  28.723  13.238
67039W        W35444  22.736  33.596  13.921
67040W        W35445  24.613   1.241  12.635
67041W        W35446   4.184   7.106  11.543
67042W        W35447  43.948  20.609  13.482
67043W        W35448  11.709  15.909   0.859
67044W        W35449  17.348  14.181  11.533
67045W        W35450   9.608  43.727   4.688
67046W        W35451   6.094  16.499  14.401
67047W        W35452  11.611  19.109  14.824
67048W        W35453   1.438  26.245  11.576
67049W        W35454   2.892  34.536  10.769
67050W        W35455  29.957  21.475   2.191
67051W        W35456  39.503  19.237   2.613
67052W        W35457  44.906  24.173   4.716
67053W        W35458  20.676  24.440  11.878
67054W        W35459  43.814   4.509  14.906
67055W        W35460  36.089  43.370  11.539
67056W        W35461   5.225   7.630  14.837
67057W        W35462   5.391  10.872   2.304
67058W        W35463  11.842  35.884   2.154
67059W        W35464   7.855  25.107  11.340
67060W        W35465  38.816  11.829  10.733
67061W        W35466  14.050  13.327  14.855
67062W        W35467  32.965  12.839  11.966
67063W        W35468  43.989   3.798   3.025
67064W        W35469  19.201  41.327  12.570
67065W        W35470  31.595   8.940  14.858
67066W        W35471   9.367  24.906   3.218
67067W        W35472   1.025  14.563   0.054
67068W        W35473  18.072   5.445  14.440
67069W        W35474  13.589   2.728   0.058
67070W        W35475  17.316  12.906  10.684
67071W        W35476  13.374  41.063  12.512
67072W        W35477  17.745   6.748  11.926
67073W        W35478  29.475  33.793  11.509
67074W        W35479  39.926  35.955   2.575
67075W        W35480   2.670  14.701   1.836
67076W        W35481   3.056   2.797  13.492
67077W        W35482  41.780   5.340   2.275
67078W        W35483  19.586   1.526  11.139
67079W        W35484  37.063  10.315  14.975
67080W        W35485   9.928  17.873   3.706
67081W        W35486  32.403  10.110   2.861
67082W        W35487  35.722  30.753  14.858
67083W        W35488  23.248   7.276   2.906
67084W        W35489  30.225  41.286   3.055
67085W        W35490   8.399  31.569   4.604
67086W        W35491  15.318  14.354   0.241
67087W        W35492  18.083  25.259  13.423
67088W        W35493  37.110   5.312  14.984
67089W        W35494  41.616   8.806  12.212
67090W        W35495  31.973  15.042  11.663
67091W        W35496   3.025  15.754   0.758
67092W        W35497   1.512  21.050   3.633
67093W        W35498  34.140  23.190   3.209
67094W        W35499   6.456  24.544  11.133
67095W        W35500  28.293  39.397  12.110
67096W        W35501  17.685  33.388  11.226
67097W        W35502  40.881  23.963  13.514
67098W        W35503  44.517  39.456   3.686
67099W        W35504  17.457  15.234  13.944
67100W        W35505  26.240  38.365  12.420
67101W        W35506  28.122  19.330  11.165
67102W        W35507  18.009  25.152   1.226
67103W        W35508  18.062  24.704  11.617
67104W        W35509  17.818  25.782   2.597
67105W        W35510  40.562  21.205   4.225
67106W        W35511  24.240   6.325   2.235
67107W        W35512  22.143  35.949  14.541
67108W        W35513  31.490  28.733   1.432
67109W        W35514  41.125  20.665   1.446
67110W        W35515  21.573   1.465  11.482
67111W        W35516   2.345  43.846  13.688
67112W        W35517  30.507  22.078   1.016
67113W        W35518  26.054  12.737  11.132
67114W        W35519   3.947  34.640   3.472
67115W        W35520  29.285  17.791  11.128
67116W        W35521  18.265  12.594   4.757
67117W        W35522  43.840  27.184   2.235
67118W        W35523   8.688  23.556   0.467
67119W        W35524  41.037   5.813  14.012
67120W        W35525   4.263  40.695   4.606
67121W        W35526  39.868  34.858   0.991
67122W        W35527   9.238  23.376   4.553
67123W        W35528  36.842  22.638   4.319
67124W        W35529   5.211   2.972  14.111
67125W        W35530  44.981  10.859   2.716
67126W        W35531  19.691  14.014   2.736
67127W        W35532   8.721  32.653   0.875
67128W        W35533  20.598  13.059   0.958
67129W        W35534  24.165  12.567   2.252
67130W        W35535  13.496  30.954   3.443
67131W        W35536  10.851   1.328   5.839
67132W        W35537  37.094  35.890   4.380
67133W        W35538  23.780   7.278  14.368
67134W        W35539  27.933  39.852   3.167
67135W        W35540  30.982   3.139   4.715
67136W        W35541  26.534  24.554   1.250
67137W        W35542  21.663   7.306  12.822
67138W        W35543  37.575  26.289  12.960
67139W        W35544  39.847  12.385  13.401
67140W        W35545  29.973  33.987  10.722
67141W        W35546  41.037  15.689  14.311
67142W        W35547  40.841  26.083  11.615
67143W        W35548  29.622  38.845   4.561
67144W        W35549  16.512   7.213   1.500
67145W        W35550  11.383  24.113   4.912
67146W        W35551  14.793  28.201   2.592
67147W        W35552  19.510  24.815   4.981
67148W        W35553  11.755  33.465  13.312
67149W        W35554  37.860   9.291   2.845
67150W        W35555  11.116  24.306   0.888
67151W        W35556  43.781  22.781  12.386
67152W        W35557  25.480  44.020   2.421
67153W        W35558  26.626  43.832  13.823
67154W        W35559   2.022  41.577  14.547
67155W        W35560  39.655  28.314  12.382
67156W        W35561  11.620  39.930   3.602
67157W        W35562   1.217  26.989  12.563
67158W        W35563   8.977  26.287   1.694
67159W        W35564   2.456  16.116  12.080
67160W        W35565  11.074  18.519  12.422
67161W        W35566   8.875  40.673  13.911
67162W        W35567   7.458  12.085  11.158
67163W        W35568  26.523  36.511  10.672
67164W        W35569  24.716  15.255  14.312
67165W        W35570  27.235  30.518   4.563
67166W        W35571  16.792   6.778  12.775
67167W        W35572  13.905  29.264   2.923
67168W        W35573  19.508   4.894   0.340
67169W        W35574  41.416  35.547  14.542
67170W        W35575   3.261   9.799   1.017
67171W        W35576  38.568   1.068   4.608
67172W        W35577  17.102  29.604  10.565
67173W        W35578  30.120  38.000   4.599
67174W        W35579  43.800  13.525   4.221
67175W        W35580  43.960  24.174   0.292
67176W        W35581  29.037  18.931  10.240
67177W        W35582  20.034  41.387   0.054
67178W        W35583  40.510   2.581  11.664
67179W        W35584   8.323   3.328   1.247
67180W        W35585  27.664  19.101   0.389
67181W        W35586  43.328  42.226  14.908
67182W        W35587  14.437  15.288  12.169
67183W        W35588  17.846   6.408  12.623
67184W        W35589  42.942  15.830  12.965
67185W        W35590  31.066  36.337  12.567
67186W        W35591   3.494   5.460  10.733
67187W        W35592  40.183  30.672   0.274
67188W        W35593  38.962   5.304  14.000
67189W        W35594  40.332  41.837  13.134
67190W        W35595  41.903  29.403  13.918
67191W        W35596  31.191  14.555   2.848
67192W        W35597  31.016  30.465  14.412
67193W        W35598   3.024  12.760  13.007
67194W        W35599  11.122  29.476  12.190
67195W        W35600  37.422  15.636  10.580
67196W        W35601  19.822  27.014  10.534
67197W        W35602  26.554  34.322  14.248
67198W        W35603  20.173  13.836   2.794
67199W        W35604  18.235   5.747  13.286
67200W        W35605  15.051  31.617  14.953
67201W        W35606  33.364  18.417  14.456
67202W        W35607  19.679  17.384  13.611
67203W        W35608  20.287  11.232   3.930
67204W        W35609  20.147  23.778  12.771
67205W        W35610   7.862  43.267  12.072
67206W        W35611  31.517  43.399  11.844
67207W        W35612  37.332  11.575   2.650
67208W        W35613  33.169  41.288  11.588
67209W        W35614  27.501  35.439   3.718
67210W        W35615  34.427  41.163  12.695
67211W        W35616   1.810  44.549  13.934
67212W        W35617  36.354  27.515  12.637
67213W        W35618  37.445  34.519  12.180
67214W        W35619  31.390  25.530  11.550
67215W        W35620  20.486  34.567  10.910
67216W        W35621  39.041  13.909   4.091
67217W        W35622   5.308  27.246  11.320
67218W        W35623  25.176  18.527   1.463
67219W        W35624   7.211   1.121  14.216
67220W        W35625   0.040  42.485  12.817
67221W        W35626  13.577  30.519  13.008
67222W        W35627  41.869  43.201   4.101
67223W        W35628   7.450  35.410  12.013
67224W        W35629  12.698  21.652  12.206
67225W        W35630  39.405  24.728   3.265
67226W        W35631  17.511  43.235   4.195
67227W        W35632  10.424  17.689   3.637
67228W        W35633  44.386  10.434  11.618
67229W        W35634  14.631  26.423   4.530
67230W        W35635  27.385  44.954  10.358
67231W        W35636  17.976  36.969   4.692
67232W        W35637  16.451   0.156   5.030
67233W        W35638  25.753  32.571   4.266
67234W        W35639  25.789  24.634   0.040
67235W        W35640  42.380   0.153  14.746
67236W        W35641  17.130   3.835  14.220
67237W        W35642  10.287   1.680   3.243
67238W        W35643  13.064  26.784   1.770
67239W        W35644  16.230   3.990   3.208
67240W        W35645  23.613  13.296  14.497
67241W        W35646  21.095  42.838   3.589
67242W        W35647  10.869  15.353  14.902
67243W        W35648  14.208  32.137  12.471
67244W        W35649  44.999  43.557   4.788
67245W        W35650  29.547  10.209  14.178
67246W        W35651  18.591  14.862  11.175
67247W        W35652   7.348  30.214   3.278
67248W        W35653  20.096   9.193   3.896
67249W        W35654  15.613  22.730  14.525
67250W        W35655  22.472  12.810  12.130
67251W        W35656  21.643  21.687  11.510
67252W        W35657  16.200  13.193  10.763
67253W        W35658   0.627  32.242   4.129
67254W        W35659  14.690  14.720   2.310
67255W        W35660  16.418   4.471  11.603
67256W        W35661   1.713  23.457  14.415
67257W        W35662  30.688  30.393  13.570
67258W        W35663  13.274  11.452  11.630
67259W        W35664  27.951  31.817  10.139
67260W        W35665   5.352   2.318   0.385
67261W        W35666  28.638  11.486  13.550
67262W        W35667  25.997   3.759   3.554
67263W        W35668  37.485  26.481  13.515
67264W        W35669  26.042  23.908   2.732
67265W        W35670  25.032   9.779   2.780
67266W        W35671  38.957  33.472   2.776
67267W        W35672  19.034  36.852  13.913
67268W        W35673  36.798  19.265  13.468
67269W        W35674  16.627  14.843   1.872
67270W        W35675  17.922  21.495   9.782
67271W        W35676  34.102  44.091  13.824
67272W        W35677  18.140  44.916   0.455
67273W        W35678  19.162  29.453   4.061
67274W        W35679  15.014   3.812  12.911
67275W        W35680  44.617  11.669   4.214
67276W        W35681  42.381   7.202  10.880
67277W        W35682  11.976   3.417  12.439
67278W        W35683  44.371  23.542   4.113
67279W        W35684  19.073  33.078   3.603
67280W        W35685  11.601  13.235   2.890
67281W        W35686   2.362  24.189  13.013
67282W        W35687  27.643   3.396  14.824
67283W        W35688  44.432  17.434  11.555
67284W        W35689  21.235  40.577  14.993
67285W        W35690   3.447  33.116  13.534
67286W        W35691  31.748  40.566  13.015
67287W        W35692  38.873   9.810  14.499
67288W        W35693  13.957  12.665  11.936
67289W        W35694  33.174  13.691   2.153
67290W        W35695  21.397  30.396  14.774
67291W        W35696   7.821  10.687  14.841
67292W        W35697  27.649   1.671   3.209
67293W        W35698  34.451   9.391  10.673
67294W        W35699  12.756   9.741  12.138
67295W        W35700   5.894  25.185   0.864
67296W        W35701  34.499  15.356   4.759
67297W        W35702   9.478  16.708  12.529
67298W        W35703  16.108   9.829   1.485
67299W        W35704  18.832  25.737  12.965
67300W        W35705  19.530  17.805   1.798
67301W        W35706   6.860  17.774   2.804
67302W        W35707  35.976   0.783  11.448
67303W        W35708   3.704  20.327   2.267
67304W        W35709   2.349   1.908  12.972
67305W        W35710  25.452  23.626   3.727
67306W        W35711  14.478   8.233   2.255
67307W        W35712  12.668  24.638  11.554
67308W        W35713  12.356  10.379   2.151
67309W        W35714  22.230  37.099   2.711
67310W        W35715   1.399  22.784   4.321
67311W        W35716   1.961  25.028  12.091
67312W        W35717  12.128  10.652  12.517
67313W        W35718  34.344  10.737   2.872
67314W        W35719   9.243  40.042  10.790
67315W        W35720  11.946   1.037  14.101
67316W        W35721  35.720  23.349   1.032
67317W        W35722  15.084   2.776  12.034
67318W        W35723  29.393  33.037  14.761
67319W        W35724  34.910   9.863   4.149
67320W        W35725  42.723  28.491   3.009
67321W        W35726  20.242  28.504   2.130
67322W        W35727  24.350   2.649   1.182
67323W        W35728   3.480  29.830  11.085
67324W        W35729  10.767  18.114  12.316
67325W        W35730  23.707  29.129   1.880
67326W        W35731  33.673  26.514  12.905
67327W        W35732  16.664   6.980  10.560
67328W        W35733   0.504  16.746  11.001
67329W        W35734  39.061  25.204   4.684
67330W        W35735  37.024  31.041  12.964
67331W        W35736  35.464  29.212   4.350
67332W        W35737  33.724  17.086   1.835
67333W        W35738   8.837   5.293   4.336
67334W        W35739  20.520  37.558   2.778
67335W        W35740  41.910  11.790  10.962
67336W        W35741  12.816  43.990  13.497
67337W        W35742  31.148  25.711  11.966
67338W        W35743   8.711  19.933   4.697
67339W        W35744  44.513   5.446   3.005
67340W        W35745   4.779  39.304   2.872
67341W        W35746  23.331  14.616  12.600
67342W        W35747   4.395  17.089   0.462
67343W        W35748  37.172  19.652  14.088
67344W        W35749  34.044  21.014   3.754
67345W        W35750  30.957  30.380  10.909
67346W        W35751   1.217  16.988   4.151
67347W        W35752   3.029  36.400   3.637
67348W        W35753  30.736  40.361  11.443
67349W        W35754  20.046  10.392  11.515
67350W        W35755   1.855  37.098   4.285
67351W        W35756  39.438   3.940  13.046
67352W        W35757  28.017  12.815   3.119
67353W        W35758  43.401  39.481   1.965
67354W        W35759  16.223  14.745   3.386
67355W        W35760  40.963  36.864   4.170
67356W        W35761  18.454   4.225   2.342
67357W        W35762  34.945  25.664  10.964
67358W        W35763  15.046   8.213  13.006
67359W        W35764  30.208  38.477  14.667
67360W        W35765  18.566   4.121   3.537
67361W        W35766  39.640  25.941   2.039
67362W        W35767  42.993  32.735   3.262
67363W        W35768  15.068  26.742  14.357
67364W        W35769   9.256  24.944  12.052
67365W        W35770   0.446  14.703  13.485
67366W        W35771   4.681  30.551   3.856
67367W        W35772  10.647  41.404   0.032
67368W        W35773  40.912  39.091  12.081
67369W        W35774  37.797  25.451   4.221
67370W        W35775  15.523  19.732  12.637
67371W        W35776  19.736  27.083  14.733
67372W        W35777  12.674   6.803   2.374
67373W        W35778  30.883  25.961   3.245
67374W        W35779  19.857  44.232   1.741
67375W        W35780   6.953  12.097  12.470
67376W        W35781  41.487  32.433   3.695
67377W        W35782  17.495  40.659  12.860
67378W        W35783   2.209  24.807  11.597
67379W        W35784  44.675  41.281   1.663
67380W        W35785  44.368  13.483   0.400
67381W        W35786  27.906  19.511  11.580
67382W        W35787   2.810   1.502  14.816
67383W        W35788   1.679  35.156  11.884
67384W        W35789   4.216  20.248  14.485
67385W        W35790  11.714  32.648   0.410
67386W        W35791  29.656   4.950   4.891
67387W        W35792  28.432  41.326   0.843
67388W        W35793  42.694  17.751  14.796
67389W        W35794  32.660  13.933   1.281
67390W        W35795  41.328  10.881   4.083
67391W        W35796  21.514  12.832  13.894
67392W        W35797   5.880  22.202  11.634
67393W        W35798  44.949  31.942  11.080
67394W        W35799   5.899   8.311   4.325
67395W        W35800  35.876   0.823   0.439
67396W        W35801  39.878  37.485  10.686
67397W        W35802  21.489   0.120   3.252
67398W        W35803  42.785  11.887  14.627
67399W        W35804   8.623  24.197   1.719
67400W        W35805  42.232  27.376  13.473
67401W        W35806   6.998  10.244   0.103
67402W        W35807  26.919  32.300   4.092
67403W        W35808  27.985  31.644  10.672
67404W        W35809  40.583  17.440  10.131
67405W        W35810  28.973   8.490   9.827
67406W        W35811   6.921   8.990  10.752
67407W        W35812  23.481  27.927  12.894
67408W        W35813  27.055  29.894  13.980
67409W        W35814   1.361  23.656  12.453
67410W        W35815  11.345   5.463  14.356
67411W        W35816  12.124  18.791  13.433
67412W        W35817  43.396  20.745   2.977
67413W        W35818  28.400  26.457   4.103
67414W        W35819  37.577  40.942  14.826
67415W        W35820  15.232  14.757   4.887
67416W        W35821  19.475  14.653  14.824
67417W        W35822   3.353  40.105  12.057
67418W        W35823  38.379  44.751  14.152
67419W        W35824  13.037  39.962   3.847
67420W        W35825  32.938  25.195  12.888
67421W        W35826  25.063  20.218  13.436
67422W        W35827   2.065   6.903   2.242
67423W        W35828  30.137  39.000   3.652
67424W        W35829  17.268  32.278  12.964
67425W        W35830  16.665  36.582  11.632
67426W        W35831  19.995  37.126   2.196
67427W        W35832  14.522   8.277  14.911
67428W        W35833  26.369  37.362  11.502
67429W        W35834  20.446  11.856  11.909
67430W        W35835   3.877  21.100   1.790
67431W        W35836   5.813  41.465   3.701
67432W        W35837  22.811  37.793   4.241
67433W        W35838  38.848  27.577  13.601
67434W        W35839  37.040  24.629   4.255
67435W        W35840  38.126   0.773  11.156
67436W        W35841  34.335  35.507  10.628
67437W        W35842  18.318  35.437  12.966
67438W        W35843  37.113  19.206  10.716
67439W        W35844   0.999  19.235  10.698
67440W        W35845  16.336  17.401  13.960
67441W        W35846  33.325   5.867  11.020
67442W        W35847  10.362   6.739  13.950
67443W        W35848  22.186   6.675   1.457
67444W        W35849  41.271  24.760   3.284
67445W        W35850  20.993  12.893  13.925
67446W        W35851  33.561  17.363  11.543
67447W        W35852  12.743   4.677  10.427
67448W        W35853  12.955  24.023   3.743
67449W        W35854  42.377  22.618  13.298
67450W        W35855   1.023  29.154   2.838
67451W        W35856  36.170   5.533  13.238
67452W        W35857  27.438   6.672  13.993
67453W        W35858   1.783  43.095   1.402
67454W        W35859  33.137   5.903   2.693
67455W        W35860  36.644   5.080  12.501
67456W        W35861  32.341  21.186  14.728
67457W        W35862  11.286  34.947   4.663
67458W        W35863  26.536  30.579   4.079
67459W        W35864  36.657  22.309   3.428
67460W        W35865  29.596  11.906  10.583
67461W        W35866  16.626  36.641   0.368
67462W        W35867  30.325  15.055   3.305
67463W        W35868  33.959  26.061   4.621
67464W        W35869  42.035  23.752   4.183
67465W        W35870  43.310  25.118  14.359
67466W        W35871  38.216   0.498   1.217
67467W        W35872  14.239  18.270  12.053
67468W        W35873  21.282  16.376   1.355
67469W        W35874   5.095  20.030  13.064
67470W        W35875  13.153  17.147   0.983
67471W        W35876   3.878   5.115  10.514
67472W        W35877  11.810  43.884   1.684
67473W        W35878   3.483  15.532   0.757
67474W        W35879   8.982   5.776   1.030
67475W        W35880  34.516  15.257  12.186
67476W        W35881   7.990  44.585   2.736
67477W        W35882  33.175  13.165   1.639
67478W        W35883   0.838  29.992   2.327
67479W        W35884   2.667  43.468  14.807
67480W        W35885  10.214   4.846  12.553
67481W        W35886   6.649   9.983   2.340
67482W        W35887  15.453  44.529  14.037
67483W        W35888   8.668  25.668  14.476
67484W        W35889  30.233  16.154   2.712
67485W        W35890  39.743  36.537   0.279
67486W        W35891  36.295  39.927   3.716
67487W        W35892  12.703   6.661   4.571
67488W        W35893  37.894   6.424  14.703
67489W        W35894   4.091  35.082   2.706
67490W        W35895  19.378   4.685   0.840
67491W        W35896  13.369  43.535  11.218
67492W        W35897  22.648  35.406   0.324
67493W        W35898  30.891  13.719  12.906
67494W        W35899  27.798  16.141  10.917
67495W        W35900  15.753  10.432   4.606
67496W        W35901  28.691  30.667   1.325
67497W        W35902  31.004  38.234  11.205
67498W        W35903  14.744  12.848   4.196
67499W        W35904  18.022   0.769  11.459
67500W        W35905   9.216  41.434  12.836
67501W        W35906  38.397   5.250   1.297
67502W        W35907  10.847  13.522   0.541
67503W        W35908  43.580  29.078  12.062
67504W        W35909  15.635  14.778   3.283
67505W        W35910   3.621  35.822  12.130
67506W        W35911   9.859  13.253   4.085
67507W        W35912  31.730  15.018  13.385
67508W        W35913  27.647  25.987  13.327
67509W        W35914  41.900  16.618  13.671
67510W        W35915  11.783  33.899  14.054
67511W        W35916  28.164  41.781   4.571
67512W        W35917  15.426   8.211   9.868
67513W        W35918  38.945  17.060   1.312
67514W        W35919  25.130  33.098   0.489
67515W        W35920  11.126  42.822  14.763
67516W        W35921  13.790   1.975   3.761
67517W        W35922  17.128   9.837  14.846
67518W        W35923  32.402  25.695  11.614
67519W        W35924  10.845  34.517   4.265
67520W        W35925  25.877  13.492   3.620
67521W        W35926  37.103  10.562  14.518
67522W        W35927   7.399  25.985   4.941
67523W        W35928  13.129  37.525  11.604
67524W        W35929  37.803  10.369   4.588
67525W        W35930  17.093  22.689   3.118
67526W        W35931  21.771   2.863   4.681
67527W        W35932  25.227  39.227  13.516
67528W        W35933  37.123  32.529   3.834
67529W        W35934  25.151  19.509   1.468
67530W        W35935  44.409   1.830  11.596
67531W        W35936  39.826   6.526  13.778
67532W        W35937  26.683  42.205  13.154
67533W        W35938  43.959  22.385   4.636
67534W        W35939  25.883  20.869   3.255
67535W        W35940  15.283  23.121  11.640
67536W        W35941  42.017  34.559   1.164
67537W        W35942  24.227  40.367   1.875
67538W        W35943  43.473  21.717   0.911
67539W        W35944  15.709  15.354  14.376
67540W        W35945  39.327  22.159  13.013
67541W        W35946  14.037   7.333   4.546
67542W        W35947  13.862  11.650   3.536
67543W        W35948   9.903  19.981  14.808
67544W        W35949  23.435  27.560  13.952
67545W        W35950  21.256  41.448   1.982
67546W        W35951   6.359  39.322  13.916
67547W        W35952  38.368   3.835  13.355
67548W        W35953  14.642  16.713   3.836
67549W        W35954   8.941  27.521  11.617
67550W        W35955  26.217   2.841   3.188
67551W        W35956  28.766  29.070   4.926
67552W        W35957   7.326  21.146   1.812
67553W        W35958  26.991  10.758   1.656
67554W        W35959  37.120  41.006   3.304
67555W        W35960  38.556  19.813   0.455
67556W        W35961  43.681   5.759  13.041
67557W        W35962  31.976  12.576   3.710
67558W        W35963  39.422  35.089  12.183
67559W        W35964  17.781   8.955   3.736
67560W        W35965  20.183  30.560  14.063
67561W        W35966   0.584   8.842  13.081
67562W        W35967  12.668  17.761   1.260
67563W        W35968  29.104  42.228  13.117
67564W        W35969  11.231  17.316  13.889
67565W        W35970   0.549  30.643   3.677
67566W        W35971  34.590  40.088   4.437
67567W        W35972  40.815  38.887  13.417
67568W        W35973  21.421  34.394   0.971
67569W        W35974  24.228  16.555   4.586
67570W        W35975  12.582  19.131   1.292
67571W        W35976   5.152  12.064  10.489
67572W        W35977   4.682  16.599   2.270
67573W        W35978  42.435   1.980  13.062
67574W        W35979  26.565  22.751  11.456
67575W        W35980   1.683   8.128   0.872
67576W        W35981  32.163   4.178  10.687
67577W        W35982   3.523   6.131   4.484
67578W        W35983  36.831  27.994   3.161
67579W        W35984  41.743  29.042  10.710
67580W        W35985   0.792  40.874  12.123
67581W        W35986  44.828   1.341   3.674
67582W        W35987  27.167  38.303   2.893
67583W        W35988  29.015  29.332  10.645
67584W        W35989  31.946   9.154  12.164
67585W        W35990  20.468  27.882   4.174
67586W        W35991   0.317  18.175  11.082
67587W        W35992  33.643   6.166   1.427
67588W        W35993   7.434  14.362  10.291
67589W        W35994   9.815   2.025  10.438
67590W        W35995  34.043  40.490  13.413
67591W        W35996  35.613  40.776   0.306
67592W        W35997   5.251  23.155  14.788
67593W        W35998  33.878  19.665  10.693
67594W        W35999   7.768  12.869   3.694
67595W        W36000  31.160  30.176   2.750
67596W        W36001   2.977   3.677   3.083
67597W        W36002  25.243  39.589  12.180
67598W        W36003   3.180  38.457   1.208
67599W        W36004  20.979   5.926  13.837
67600W        W36005  44.548  11.432   0.788
67601W        W36006  29.495   8.179   2.292
67602W        W36007  38.811  28.667   3.691
67603W        W36008  11.991  30.408   9.742
67604W        W36009  11.564  43.404   2.982
67605W        W36010  42.233  26.639   4.215
67606W        W36011  23.664   7.970   2.678
67607W        W36012   2.429  35.477  12.069
67608W        W36013  39.825  43.719  12.117
67609W        W36014   9.670   6.385  14.843
67610W        W36015  14.510  44.990  11.126
67611W        W36016  32.061  28.586   0.220
67612W        W36017   8.937   3.203  11.179
67613W        W36018  19.482  12.820  12.015
67614W        W36019   9.474  36.512   4.640
67615W        W36020  17.049  18.617  10.636
67616W        W36021   0.434  12.849  12.534
67617W        W36022  41.095  14.855  11.647
67618W        W36023   2.496  27.560  14.309
67619W        W36024  15.820  26.726   2.211
67620W        W36025  28.080  33.728   1.566
67621W        W36026   4.933  12.102  11.964
67622W        W36027   7.507  20.062   1.355
67623W        W36028  32.408   8.075   1.743
67624W        W36029  14.806  25.067  12.581
67625W        W36030  34.793  23.455   3.108
67626W        W36031  42.530  18.189  13.037
67627W        W36032   6.101  37.331   2.295
67628W        W36033  10.698  37.097  14.350
67629W        W36034  10.443  42.329   4.696
67630W        W36035  32.245  23.158   3.708
67631W        W36036  17.236   9.178  13.849
67632W        W36037   9.890  16.057  13.156
67633W        W36038   1.327  41.725   1.403
67634W        W36039  41.537  40.270  14.335
67635W        W36040  37.432   6.880  12.452
67636W        W36041  21.456  24.097   4.421
67637W        W36042   6.874  19.167   0.296
67638W        W36043  32.517  39.524   2.877
67639W        W36044  28.778   9.451  13.983
67640W        W36045   5.198   6.465  13.933
67641W        W36046   5.406  11.249   3.733
67642W        W36047  22.136   9.849  13.514
67643W        W36048   5.873  33.202   1.250
67644W        W36049  18.508   1.006   5.157
67645W        W36050  13.276  27.843   0.347
67646W        W36051   1.786  43.190  12.000
67647W        W36052  26.302  13.757   3.426
67648W        W36053   5.801  13.765   1.068
67649W        W36054  33.911  23.177   4.275
67650W        W36055   3.124  20.717  12.560
67651W        W36056  38.960  41.125   1.238
67652W        W36057  44.136  39.474   4.640
67653W        W36058   6.603  37.011   1.397
67654W        W36059   8.669  42.179  10.947
67655W        W36060  17.027  19.004   2.399
67656W        W36061  44.280  31.353   0.390
67657W        W36062   6.669  12.263   4.137
67658W        W36063  30.582  35.979  14.484
67659W        W36064  27.193  20.006   3.732
67660W        W36065  33.628   8.222  12.472
67661W        W36066  36.597  15.163   2.914
67662W        W36067   5.963  32.422   2.729
67663W        W36068  15.742  17.492   3.805
67664W        W36069  34.940  22.499   0.494
67665W        W36070  10.653  14.227  13.506
67666W        W36071   3.297  17.673   3.799
67667W        W36072  24.959   4.339  11.015
67668W        W36073  23.124  42.358  13.454
67669W        W36074  22.335  33.490  14.437
67670W        W36075  20.083  34.889  10.587
67671W        W36076  19.642  25.993   3.241
67672W        W36077  20.101  39.488   1.012
67673W        W36078  44.902  13.972  13.459
67674W        W36079  25.728   2.893  13.010
67675W        W36080  29.681  38.952  13.968
67676W        W36081  19.682  38.018   0.714
67677W        W36082  28.050  19.530   4.946
67678W        W36083  33.542  31.971   1.619
67679W        W36084   0.111  35.000  11.040
67680W        W36085  33.746  22.666   1.714
67681W        W36086   7.919  27.643  13.874
67682W        W36087  26.608   9.704   4.662
67683W        W36088  21.607  35.790   2.428
67684W        W36089   9.425   4.707   4.129
67685W        W36090   1.949   6.919  14.214
67686W        W36091  32.913   7.954   1.840
67687W        W36092   8.421  23.495   0.904
67688W        W36093  39.365  44.051   1.090
67689W        W36094  38.012   8.020  13.293
67690W        W36095  35.426  28.626   0.857
67691W        W36096   0.892  31.668  12.084
67692W        W36097  44.860  11.591  12.899
67693W        W36098  24.492  24.775  11.174
67694W        W36099  12.173  42.341  12.751
67695W        W36100  32.139  21.288  11.538
67696W        W36101  30.981  42.520   2.131
67697W        W36102  33.545  33.544   2.267
67698W        W36103  38.913  30.500   3.560
67699W        W36104  16.588  37.432  12.447
67700W        W36105  44.066  22.212   3.168
67701W        W36106   1.477  17.226   3.570
67702W        W36107  22.298  25.864  12.338
67703W        W36108  29.900  21.954   2.324
67704W        W36109  32.198  12.761   2.289
67705W        W36110  25.447   2.240   4.540
67706W        W36111  22.124  28.980   3.705
67707W        W36112   2.739   4.362  11.600
67708W        W36113  33.038  34.431   4.037
67709W        W36114  17.022  14.160  11.906
67710W        W36115  26.395   1.911   4.839
67711W        W36116  40.721  43.381  10.429
67712W        W36117  17.957  12.661  12.366
67713W        W36118  10.700   2.511  13.414
67714W        W36119  35.554  36.886   0.025
67715W        W36120  22.789  44.054   5.109
67716W        W36121  38.972   1.026  11.579
67717W        W36122  41.248  40.674   4.226
67718W        W36123  34.123  24.480  10.701
67719W        W36124  29.867   9.696  13.349
67720W        W36125   6.875  20.359  14.351
67721W        W36126  40.249  35.982   1.760
67722W        W36127  37.953   7.859  11.158
67723W        W36128   9.777  44.211   4.641
67724W        W36129   8.679  25.105  12.525
67725W        W36130  41.924   0.041   3.591
67726W        W36131   0.427  13.016   4.698
67727W        W36132  39.100  16.263   0.751
67728W        W36133  24.754  20.757   3.770
67729W        W36134  37.462   8.368  12.561
67730W        W36135  41.304  39.910   4.685
67731W        W36136   2.815  24.776  10.830
67732W        W36137  27.642   0.541  14.778
67733W        W36138  38.721  40.745   3.385
67734W        W36139  39.283  17.388  14.997
67735W        W36140  22.668  34.883   2.416
67736W        W36141   6.867   4.462  10.609
67737W        W36142  34.615  33.594   4.540
67738W        W36143  40.930  39.016  14.792
67739W        W36144  21.635   9.819   4.150
67740W        W36145  37.429  39.008   4.088
67741W        W36146   6.638   7.222  11.957
67742W        W36147  36.029   3.645  12.485
67743W        W36148  25.799   3.070   0.752
67744W        W36149  11.632  13.165   4.244
67745W        W36150  23.313   8.840   3.352
67746W        W36151  35.667  11.157   4.629
67747W        W36152  22.674  29.807  11.757
67748W        W36153  19.990  15.706   1.155
67749W        W36154  17.585  41.314  11.269
67750W        W36155  36.847  39.047  12.140
67751W        W36156  21.038  38.344  12.655
67752W        W36157  24.206  10.846  13.417
67753W        W36158  16.117  17.816   3.711
67754W        W36159  24.638   0.688   4.208
67755W        W36160  43.450   2.126   5.031
67756W        W36161  22.165   6.820  12.416
67757W        W36162  15.300  36.952   0.460
67758W        W36163  19.054  29.977  10.595
67759W        W36164   7.693  37.417   9.857
67760W        W36165  29.276  29.352   1.280
67761W        W36166  17.556   5.222   1.396
67762W        W36167  17.035  22.052   2.716
67763W        W36168   0.948  12.159   2.316
67764W        W36169  20.712  27.188  12.550
67765W        W36170  16.529  41.294  10.657
67766W        W36171  25.177  11.072   1.344
67767W        W36172  24.461  33.886  11.602
67768W        W36173   2.456  18.151  11.241
67769W        W36174  42.406   6.929   0.374
67770W        W36175  41.835  26.580  10.892
67771W        W36176   9.740  44.078  14.941
67772W        W36177  12.907   3.368  11.841
67773W        W36178  14.669  21.808  13.416
67774W        W36179  22.001  35.116   2.004
67775W        W36180  36.018  19.577  11.602
67776W        W36181   2.014  39.852  12.409
67777W        W36182   9.497  43.906  10.956
67778W        W36183  34.448  44.924   1.882
67779W        W36184  34.635  29.456  12.035
67780W        W36185  40.410   6.789   2.976
67781W        W36186  13.921  32.328   1.530
67782W        W36187  27.072  36.399  10.706
67783W        W36188   4.306  20.931  13.973
67784W        W36189  43.805  13.334   0.726
67785W        W36190  42.046  37.386  13.830
67786W        W36191   3.082  10.399   4.948
67787W        W36192  23.775  38.800  13.413
67788W        W36193   7.222   1.042  13.315
67789W        W36194   8.638  13.298  11.580
67790W        W36195  17.887  36.845   2.003
67791W        W36196   3.390  43.011   1.437
67792W        W36197  41.579  16.309  14.814
67793W        W36198   9.559  39.889   0.792
67794W        W36199  10.592   4.264   2.913
67795W        W36200  43.408   4.306  11.083
67796W        W36201  17.071  15.825   4.197
67797W        W36202  32.225  16.376  13.874
67798W        W36203   7.335  30.935  12.093
67799W        W36204  34.010  41.971   4.586
67800W        W36205  37.750  34.846   4.246
67801W        W36206   3.244  39.284  11.094
67802W        W36207  35.899  14.662  12.293
67803W        W36208  12.219  29.206  11.871
67804W        W36209  13.256  15.245  12.449
67805W        W36210  34.476  11.006   1.401
67806W        W36211  12.452  13.250   1.255
67807W        W36212   4.365  35.380   0.203
67808W        W36213  28.526  16.118  12.127
67809W        W36214  41.409  17.730   1.552
67810W        W36215  29.189  11.185   2.473
67811W        W36216   0.811  14.231   4.722
67812W        W36217   5.348  16.447   1.679
67813W        W36218  34.473  39.979   0.069
67814W        W36219  33.629   0.462  12.321
67815W        W36220  12.367  29.648   1.620
67816W        W36221   6.144  11.288   1.010
67817W        W36222   5.781  27.971  14.393
67818W        W36223  12.295   1.182   3.316
67819W        W36224  43.876  14.923  11.713
67820W        W36225  37.636  25.943  14.502
67821W        W36226  20.598  14.323  11.473
67822W        W36227  30.503   6.712  11.511
67823W        W36228  32.326  41.302  12.113
67824W        W36229  23.226  31.034   4.898
67825W        W36230  21.515  24.407  11.672
67826W        W36231  23.657   5.713  14.461
67827W        W36232  18.632   7.397   0.373
67828W        W36233   1.748   8.693  14.932
67829W        W36234  25.638  36.562   2.669
67830W        W36235  29.489  23.138   0.525
67831W        W36236  10.719  28.377   5.625
67832W        W36237  21.026   1.909   3.644
67833W        W36238  41.901  17.066   1.977
67834W        W36239  23.723   9.917   2.275
67835W        W36240  10.249  29.970   3.732
67836W        W36241   3.504  11.113  14.911
67837W        W36242  28.528  36.803  11.114
67838W        W36243  27.867  14.165   3.537
67839W        W36244  33.555  10.252  13.476
67840W        W36245   3.227  38.093   1.953
67841W        W36246   7.185  12.902   4.081
67842W        W36247  26.146  27.607   3.553
67843W        W36248  12.019  26.527  12.388
67844W        W36249  30.896   3.761  11.759
67845W        W36250   2.861  25.761  14.452
67846W        W36251  23.056  10.952   4.509
67847W        W36252   2.460  26.391  14.062
67848W        W36253  20.156  35.012  13.998
67849W        W36254   7.958   1.296  10.268
67850W        W36255  22.930  16.696   9.850
67851W        W36256  39.952  13.346   4.065
67852W        W36257  15.803  33.320  11.528
67853W        W36258   4.395  43.975   0.212
67854W        W36259   2.011  26.477   4.514
67855W        W36260  27.930  22.038  11.539
67856W        W36261  30.489  30.564  10.678
67857W        W36262  43.903  10.381  11.141
67858W        W36263  34.546  10.973  10.266
67859W        W36264  40.946   7.942   1.118
67860W        W36265  33.805  17.588   2.038
67861W        W36266  36.850  21.184   2.795
67862W        W36267  42.574  28.926   3.239
67863W        W36268  24.137   1.705   5.089
67864W        W36269  17.395   6.806  10.190
67865W        W36270  27.647  18.552  12.168
67866W        W36271  31.676  35.380   1.554
67867W        W36272  40.704  25.640  12.617
67868W        W36273  40.068  17.516   3.734
67869W        W36274  38.662  44.722   3.671
67870W        W36275   2.286  22.190  12.026
67871W        W36276  39.766  16.185  11.780
67872W        W36277   0.019  12.962  11.585
67873W        W36278  15.666  30.817  11.596
67874W        W36279  37.941   2.023   3.798
67875W        W36280  44.292  23.672   0.847
67876W        W36281  28.889  20.123   3.184
67877W        W36282  25.538  13.670   2.763
67878W        W36283   2.894  16.345  12.057
67879W        W36284  18.085   3.755   4.144
67880W        W36285   9.135  43.199  13.545
67881W        W36286  41.543  23.590   0.439
67882W        W36287  40.453   8.178   2.646
67883W        W36288   1.964  40.370  11.553
67884W        W36289  18.386  11.704  11.509
67885W        W36290  30.050  26.513   2.301
67886W        W36291  14.753  24.076  12.804
67887W        W36292  38.363   9.345  12.987
67888W        W36293  22.963  10.875   0.865
67889W        W36294  22.217  19.235  13.357
67890W        W36295  43.557  22.654   2.837
67891W        W36296  43.347  19.819   5.066
67892W        W36297  30.099  32.651   0.862
67893W        W36298  35.188   3.485   1.343
67894W        W36299  37.837  13.800   2.352
67895W        W36300   2.935  33.690   0.269
67896W        W36301  21.113  18.085   4.287
67897W        W36302  12.886  18.830   2.461
67898W        W36303  27.004  33.424  11.535
67899W        W36304  12.348  40.054   1.412
67900W        W36305  44.874  10.278  12.473
67901W        W36306  43.082  38.359  14.842
67902W        W36307  44.388  28.401   1.416
67903W        W36308  12.706  35.543   0.809
67904W        W36309  33.679  40.912   4.934
67905W        W36310  25.136  17.743   0.733
67906W        W36311  12.536   3.530  13.554
67907W        W36312  37.461  35.005  13.891
67908W        W36313  32.565   2.329   2.171
67909W        W36314   7.233  19.520  12.081
67910W        W36315  33.266  30.015   4.272
67911W        W36316   7.619  31.544   0.102
67912W        W36317  33.124   4.276   2.840
67913W        W36318  25.058  43.274  11.917
67914W        W36319  34.595   0.523  14.237
67915W        W36320  43.984   0.831  14.503
67916W        W36321   0.669   8.177   0.718
67917W        W36322  13.216  23.384   1.175
67918W        W36323  15.374  10.782   4.618
67919W        W36324  22.810  16.126   4.577
67920W        W36325   1.001  30.729   4.301
67921W        W36326  32.772  12.706  14.506
67922W        W36327  42.224   1.753   0.672
67923W        W36328  23.379  42.158  11.791
67924W        W36329  31.117   6.252   1.685
67925W        W36330   0.425  35.244  13.589
67926W        W36331  19.144  15.610  13.608
67927W        W36332  29.413  35.565   1.512
67928W        W36333  15.875  31.133   5.129
67929W        W36334  24.197  22.538   3.168
67930W        W36335  34.884  27.692   1.759
67931W        W36336   7.884   4.497   0.895
67932W        W36337  21.187  21.961   3.818
67933W        W36338   1.252  33.035  11.617
67934W        W36339  26.037  25.661  13.342
67935W        W36340  25.409   1.455   4.215
67936W        W36341  36.775  39.281  11.654
67937W        W36342  43.906  42.022  11.058
67938W        W36343  32.071  26.391  14.847
67939W        W36344  20.328   5.999  14.723
67940W        W36345  28.886  32.869   1.322
67941W        W36346  26.156   7.368   1.681
67942W        W36347  28.195  28.193  10.197
67943W        W36348  36.215  28.470  14.533
67944W        W36349  44.594   1.221  13.355
67945W        W36350  10.202  30.299   5.455
67946W        W36351  16.569  13.070  12.636
67947W        W36352  32.151  28.008   3.268
67948W        W36353  27.206   6.732   0.289
67949W        W36354   4.909  29.985   0.705
67950W        W36355  42.148  10.722  12.500
67951W        W36356   1.303  17.098  13.019
67952W        W36357   0.723   9.433   0.816
67953W        W36358  39.247  24.521   3.704
67954W        W36359  36.358   1.512  11.572
67955W        W36360  42.351  29.487  13.143
67956W        W36361  13.317  19.465  10.765
67957W        W36362   4.777   9.096  14.250
67958W        W36363  32.873  35.167  14.418
67959W        W36364  26.414  11.697  11.984
67960W        W36365  11.730  20.471   4.149
67961W        W36366  26.424  17.312  10.937
67962W        W36367  12.626   8.765   2.169
67963W        W36368  14.370  31.070  13.850
67964W        W36369  15.669  17.581   1.995
67965W        W36370  27.478  20.706   2.015
67966W        W36371  32.078  12.358   1.933
67967W        W36372  21.278  43.900   0.750
67968W        W36373   0.930  39.213  14.710
67969W        W36374  32.064  26.033   4.784
67970W        W36375   2.820  10.584  12.831
67971W        W36376   5.448   5.620   0.668
67972W        W36377   4.483   8.250   4.157
67973W        W36378  25.061  13.147   3.190
67974W        W36379  11.654  31.285  11.945
67975W        W36380  11.627  14.292  11.063
67976W        W36381  24.519  39.572  14.530
67977W        W36382  13.714  37.848  14.963
67978W        W36383  29.062  33.519   0.704
67979W        W36384   7.692  12.317  11.571
67980W        W36385   1.990  31.070  13.795
67981W        W36386  17.725  31.813  12.633
67982W        W36387  14.735  25.503   0.706
67983W        W36388   5.800   6.864  12.486
67984W        W36389  42.124  33.915   2.327
67985W        W36390  10.636  13.210   4.790
67986W        W36391  20.508  32.888   0.576
67987W        W36392  37.435  27.145  14.781
67988W        W36393   4.710   6.850   1.842
67989W        W36394   8.976  30.335   5.528
67990W        W36395  18.575  27.571  11.539
67991W        W36396  37.338  37.505  13.991
67992W        W36397   2.916  35.547   3.222
67993W        W36398  40.924  13.006  12.901
67994W        W36399  19.004  34.884  14.783
67995W        W36400   2.186  31.308  13.094
67996W        W36401  19.594  19.942  14.323
67997W        W36402  19.277   6.768  13.325
67998W        W36403  20.201  19.892   3.627
67999W        W36404  16.264  16.104   1.102
68000W        W36405   5.066  35.106  11.019
68001W        W36406  16.270   0.246  11.117
68002W        W36407  17.588  34.519   3.653
68003W        W36408  22.591   3.409  14.521
68004W        W36409  34.747   4.912   5.050
68005W        W36410   5.643   3.840   3.354
68006W        W36411  22.215  19.937   2.648
68007W        W36412  20.524  17.524   4.628
68008W        W36413  12.315  30.603  10.089
68009W        W36414  24.164  30.043  12.495
68010W        W36415  26.499  25.398   3.769
68011W        W36416  43.378  29.201   0.105
68012W        W36417  39.115  37.947  14.962
68013W        W36418   8.179   3.202  12.893
68014W        W36419  20.841  31.813  13.879
68015W        W36420  24.721  37.559  12.935
68016W        W36421  34.672  14.367  10.781
68017W        W36422  23.731   7.920  13.929
68018W        W36423  19.727   1.545   0.275
68019W        W36424  16.307  21.013   3.142
68020W        W36425  13.109  10.622   3.296
68021W        W36426   9.920  21.152   4.158
68022W        W36427  10.297  25.996   2.128
68023W        W36428  16.295  44.759  11.279
68024W        W36429   7.844  17.759  11.062
68025W        W36430  29.161  39.372   0.027
68026W        W36431  13.283   9.846  14.792
68027W        W36432  26.894   0.260   5.289
68028W        W36433  33.161  16.019   4.070
68029W        W36434  37.825  41.784   0.343
68030W        W36435  16.656  36.053   2.811
68031W        W36436  17.519  23.342  14.766
68032W        W36437  43.226  28.306  11.981
68033W        W36438   1.195   1.325  12.000
68034W        W36439   1.908   2.696  11.213
68035W        W36440   6.637  33.423  11.186
68036W        W36441   0.198   2.835  11.926
68037W        W36442  16.747  29.888  13.431
68038W        W36443   0.887  20.272   3.030
68039W        W36444  12.150  33.892   4.344
68040W        W36445   3.322  17.797  13.382
68041W        W36446  26.180  44.876  12.547
68042W        W36447   1.552  40.814   1.347
68043W        W36448   5.836   7.426   3.098
68044W        W36449   2.057  29.955   3.630
68045W        W36450  38.135  32.468  12.935
68046W        W36451  28.651   2.703   2.865
68047W        W36452  20.435  18.792  12.598
68048W        W36453  24.618   3.160   1.985
68049W        W36454  19.071  19.286   3.897
68050W        W36455  10.032  30.551   4.627
68051W        W36456   0.541  39.490  14.928
68052W        W36457  21.457  33.928   1.269
68053W        W36458  21.222  19.849  10.531
68054W        W36459  20.867  17.568  10.801
68055W        W36460   5.279  17.294  12.690
68056W        W36461  12.343  40.362   4.608
68057W        W36462  34.603  39.054   2.829
68058W        W36463  33.075   7.486   1.957
68059W        W36464  44.450  29.442  12.631
68060W        W36465  28.219  35.093   2.747
68061W        W36466  10.915  29.369  13.523
68062W        W36467  24.280  18.807   1.779
68063W        W36468   8.232  32.528  14.892
68064W        W36469  35.816   0.915   3.674
68065W        W36470  30.094  15.961   2.251
68066W        W36471   5.837  14.875  11.570
68067W        W36472   7.698  36.928  13.430
68068W        W36473  13.305  14.526   3.142
68069W        W36474  30.351  42.474  13.847
68070W        W36475  39.435  16.731   4.148
68071W        W36476  40.370  11.394  14.350
68072W        W36477  28.007   2.978   4.228
68073W        W36478   3.735   9.349   0.349
68074W        W36479  11.397   0.920  14.971
68075W        W36480  18.403  17.528   0.458
68076W        W36481   9.196  25.198  11.599
68077W        W36482  19.676  27.945  12.089
68078W        W36483  39.448  42.872  11.102
68079W        W36484  40.449  39.729  12.444
68080W        W36485  23.510   3.957  11.975
68081W        W36486  34.603  24.262  10.624
68082W        W36487  11.333   0.207   4.814
68083W        W36488  20.737  23.598   1.344
68084W        W36489  14.267  16.649  14.758
68085W        W36490  31.467  44.149  13.956
68086W        W36491  19.778  44.375   5.137
68087W        W36492  24.527  25.957   3.678
68088W        W36493  41.455  13.412  11.281
68089W        W36494  19.021  35.942  11.889
68090W        W36495  43.705   8.684   4.498
68091W        W36496  33.625   8.224   3.889
68092W        W36497   6.771  23.017  13.513
68093W        W36498  11.676  29.753  10.019
68094W        W36499  32.194  37.616  13.361
68095W        W36500   7.276   1.205  12.843
68096W        W36501  11.764  34.681   3.984
68097W        W36502  24.395   3.242   4.226
68098W        W36503   9.741  21.624  14.995
68099W        W36504  27.493  25.065   3.132
68100W        W36505  22.598   3.778   2.115
68101W        W36506  21.012  22.649   2.651
68102W        W36507  16.840  13.891   0.023
68103W        W36508  30.903  21.137   0.259
68104W        W36509  13.340  41.771  14.807
68105W        W36510  36.484  19.369  11.618
68106W        W36511  20.151  32.824   4.210
68107W        W36512   2.298   3.053   1.863
68108W        W36513  40.138  42.953   3.701
68109W        W36514   0.923  26.565   3.346
68110W        W36515   0.815  32.179  13.830
68111W        W36516  40.028  38.163  11.938
68112W        W36517  29.534  38.093   4.231
68113W        W36518  23.273  37.949   2.787
68114W        W36519  31.044  32.108   3.381
68115W        W36520  33.527  26.722  13.348
68116W        W36521  11.825  13.163  11.955
68117W        W36522   8.135   3.089  10.803
68118W        W36523  23.769  21.503   0.223
68119W        W36524  24.556  28.384  12.091
68120W        W36525  44.465  35.114  13.949
68121W        W36526   3.460  30.112  13.592
68122W        W36527   4.650   3.004   0.384
68123W        W36528  37.225  36.338  14.905
68124W        W36529   7.283  11.200   0.276
68125W        W36530  43.980  28.471   1.721
68126W        W36531   9.362  15.825  11.201
68127W        W36532  33.406  27.036  12.937
68128W        W36533  23.113  27.250   1.679
68129W        W36534   0.210  38.572  11.740
68130W        W36535  26.562  41.929   0.313
68131W        W36536  12.307  17.829   0.871
68132W        W36537  30.182  16.580   4.407
68133W        W36538  21.710   6.373   4.839
68134W        W36539   9.714  38.527   2.658
68135W        W36540  40.481  29.107  13.007
68136W        W36541  15.633  21.774   3.826
68137W        W36542  37.539  32.865  12.578
68138W        W36543   0.777  35.407  12.325
68139W        W36544   2.242  18.839  10.664
68140W        W36545  22.744  14.393  12.959
68141W        W36546  41.722  29.058  11.595
68142W        W36547  16.144   2.295  11.484
68143W        W36548  41.096  34.401   0.791
68144W        W36549  44.287  22.628   3.416
68145W        W36550  33.993  34.966   3.442
68146W        W36551  39.422  18.750  10.630
68147W        W36552  20.162  27.135   0.801
68148W        W36553  31.010   9.829   3.358
68149W        W36554   6.819  19.504   1.270
68150W        W36555  40.759  43.899  12.079
68151W        W36556  19.946  15.254   2.567
68152W        W36557  19.526  36.460  11.659
68153W        W36558  11.637   6.222  14.990
68154W        W36559  11.966  21.687   2.899
68155W        W36560  13.172  23.293   2.983
68156W        W36561   0.905  27.273   2.391
68157W        W36562  21.584  19.887   4.675
68158W        W36563  41.040  34.579   0.305
68159W        W36564  21.782  29.388  11.541
68160W        W36565  22.980  12.778   4.261
68161W        W36566  24.465  37.481   2.792
68162W        W36567  44.465  41.052  12.561
68163W        W36568  32.670   6.493   3.237
68164W        W36569   1.458  16.881  10.779
68165W        W36570  21.977  29.564   3.606
68166W        W36571  23.983  41.742   2.164
68167W        W36572  25.794   2.606  12.571
68168W        W36573  43.811   3.612   0.852
68169W        W36574  12.298   7.292  13.889
68170W        W36575  43.304   7.741   3.723
68171W        W36576  29.957  37.046   0.225
68172W        W36577  17.563  36.339   0.100
68173W        W36578  31.445  18.325   3.759
68174W        W36579  12.222  29.625  14.966
68175W        W36580  38.737  42.994   4.140
68176W        W36581  17.077  42.815  14.962
68177W        W36582   6.909  35.938  11.645
68178W        W36583   9.792  11.383  13.395
68179W        W36584  31.712  25.097  11.689
68180W        W36585  30.345  35.849  13.615
68181W        W36586  12.656  15.897  10.208
68182W        W36587   8.773  17.193   1.877
68183W        W36588  40.964  18.426   4.091
68184W        W36589  23.658  38.015  13.841
68185W        W36590  12.597   4.275   4.640
68186W        W36591  14.210  39.859  11.106
68187W        W36592  20.702  35.160   1.795
68188W        W36593  27.924   4.067   0.190
68189W        W36594   9.221  39.284  13.051
68190W        W36595  15.360   9.840  10.676
68191W        W36596  28.019  31.538  12.877
68192W        W36597  33.000   5.459   0.567
68193W        W36598  29.236  16.207   1.712
68194W        W36599   7.867  38.849  13.382
68195W        W36600   5.446  42.395   4.472
68196W        W36601  27.058  34.901   4.253
68197W        W36602  24.912  37.499   3.675
68198W        W36603   7.973   6.838  12.008
68199W        W36604  21.383  39.956   4.492
68200W        W36605   4.241  18.668   4.440
68201W        W36606  15.293  30.411   2.431
68202W        W36607  24.312   8.831   3.209
68203W        W36608  43.526   2.961  10.764
68204W        W36609  12.873  35.056  13.234
68205W        W36610  38.339  38.939   0.373
68206W        W36611  18.898  36.900  14.441
68207W        W36612   9.684  40.332  13.324
68208W        W36613  25.561   0.986   3.229
68209W        W36614  43.975  31.926  13.066
68210W        W36615  42.229  23.575   2.171
68211W        W36616  19.782  37.782   3.745
68212W        W36617   0.678  28.597  13.790
68213W        W36618   7.895  26.433  12.569
68214W        W36619  23.573  43.372   1.855
68215W        W36620  40.745   8.817   2.610
68216W        W36621   6.764  24.531  13.515
68217W        W36622   5.207  16.832   4.868
68218W        W36623  33.536  31.004   2.652
68219W        W36624  29.734   9.047  11.110
68220W        W36625  43.984  32.584  10.730
68221W        W36626  26.704   0.580   4.944
68222W        W36627  33.782   7.909  13.851
68223W        W36628  44.474   6.443  14.070
68224W        W36629  35.056  14.012  10.801
68225W        W36630   6.305  34.951  13.322
68226W        W36631  24.263   0.890   4.582
68227W        W36632  40.405  18.000  14.746
68228W        W36633  38.383  37.139   4.692
68229W        W36634  44.143  34.656   4.101
68230W        W36635  28.945  16.174  10.457
68231W        W36636  44.010   3.060  13.359
68232W        W36637  35.896  38.080  13.531
68233W        W36638  12.416  36.941   2.483
68234W        W36639   5.693  28.924  11.029
68235W        W36640  43.031  20.789   0.753
68236W        W36641  23.176   1.445   3.066
68237W        W36642  44.536  32.460   3.189
68238W        W36643  14.001  15.824  13.361
68239W        W36644  10.726  24.955   1.388
68240W        W36645  10.379  28.886   4.424
68241W        W36646  34.933   3.490  12.901
68242W        W36647  40.486  13.785   1.912
68243W        W36648  27.504  23.488  13.823
68244W        W36649  35.672  10.273   4.045
68245W        W36650   9.206   6.247  11.514
68246W        W36651  38.719  13.130   1.820
68247W        W36652  42.766  41.013   0.876
68248W        W36653   9.375  27.176  12.853
68249W        W36654  25.423  33.902  13.334
68250W        W36655  32.382  10.276   3.731
68251W        W36656  20.271  11.844  12.586
68252W        W36657  19.817   2.748  14.423
68253W        W36658  10.320  12.161  12.510
68254W        W36659  33.537  17.225   2.332
68255W        W36660  14.398  24.100   0.444
68256W        W36661  17.708  36.427  14.089
68257W        W36662  40.860  23.417  13.518
68258W        W36663  30.398  20.228   4.158
68259W        W36664  18.562  30.674  10.759
68260W        W36665  31.355  26.438   4.748
68261W        W36666   8.755  10.695  13.616
68262W        W36667  40.202  16.804   1.199
68263W        W36668  13.348  28.605  11.423
68264W        W36669   6.241  33.887  10.545
68265W        W36670  12.289   9.011  14.735
68266W        W36671  12.130   6.478   3.331
68267W        W36672   5.482  19.582   2.574
68268W        W36673  24.292  16.892   5.001
68269W        W36674  23.480  14.894  14.004
68270W        W36675  12.315  21.767   2.522
68271W        W36676   3.903  43.537   4.083
68272W        W36677  34.100  37.302  13.092
68273W        W36678  17.280  22.715  13.619
68274W        W36679  32.562   1.032   3.205
68275W        W36680  14.551  38.542  12.322
68276W        W36681  44.882  27.685  10.792
68277W        W36682  33.125  37.284  12.074
68278W        W36683  20.895  37.776  13.481
68279W        W36684  40.781   5.978  12.215
68280W        W36685  21.942  36.896   0.910
68281W        W36686  34.554  39.306  12.784
68282W        W36687  10.427  31.766  11.174
68283W        W36688  33.852  12.619  11.492
68284W        W36689  17.497  25.319   2.511
68285W        W36690  19.742  40.368  10.538
68286W        W36691  17.099  17.448  14.974
68287W        W36692  44.915  19.663   1.214
68288W        W36693  11.036  33.831  11.576
68289W        W36694  14.267  14.604  12.887
68290W        W36695  23.762   7.835   0.375
68291W        W36696   7.368  36.137  11.577
68292W        W36697  44.927  19.600   1.733
68293W        W36698   0.709  10.611   4.058
68294W        W36699  24.027  39.847  10.509
68295W        W36700  11.749  14.053   4.586
68296W        W36701  28.493   7.661   3.671
68297W        W36702  15.179  10.686  10.618
68298W        W36703   7.301  11.422   3.178
68299W        W36704   2.040   4.609  13.401
68300W        W36705   7.912   7.758  10.961
68301W        W36706   3.287  25.000   4.101
68302W        W36707  24.680   7.069   0.807
68303W        W36708   3.596  38.263  13.964
68304W        W36709  28.443  36.033   4.838
68305W        W36710  34.061  15.776   3.258
68306W        W36711  27.263  39.776   4.166
68307W        W36712  16.360  14.699   1.444
68308W        W36713   5.337  11.343  12.034
68309W        W36714  20.272  33.010   1.406
68310W        W36715  21.508  22.579   3.285
68311W        W36716   3.689  42.784  12.367
68312W        W36717  34.959  12.057  14.916
68313W        W36718  31.035  14.887   0.447
68314W        W36719  16.765   5.468   0.803
68315W        W36720  11.981   8.665  13.939
68316W        W36721  19.203  32.644  13.526
68317W        W36722  26.097  24.611   0.974
68318W        W36723  41.181  40.366  10.660
68319W        W36724  39.807   8.884  13.346
68320W        W36725  16.287   5.472  13.830
68321W        W36726  33.214  18.168  11.171
68322W        W36727  26.619   6.247  11.481
68323W        W36728   9.261  43.573   1.275
68324W        W36729  37.878   7.214   3.429
68325W        W36730   1.341   8.474   4.321
68326W        W36731  20.061  44.033   3.823
68327W        W36732   9.175  11.426  13.956
68328W        W36733  40.355  16.686   2.866
68329W        W36734  11.374  44.437   3.615
68330W        W36735   2.799  30.447   2.818
68331W        W36736  22.463  30.552  14.699
68332W        W36737  10.180  27.047   3.478
68333W        W36738  35.023  30.246  14.935
68334W        W36739  10.556  40.965  11.987
68335W        W36740   7.105  13.160   4.530
68336W        W36741  27.000  27.520  12.092
68337W        W36742  19.023  38.450  13.028
68338W        W36743  44.397  37.740   4.157
68339W        W36744   3.754  32.214   1.354
68340W        W36745  19.456  11.687   1.400
68341W        W36746  32.684   5.754   2.369
68342W        W36747  23.462  17.281   2.370
68343W        W36748  35.876  10.184   3.021
68344W        W36749   8.828   8.400  14.077
68345W        W36750  12.788   2.235  10.825
68346W        W36751  43.289  30.708   2.957
68347W        W36752   3.019  26.545   0.398
68348W        W36753  28.178  31.417   1.337
68349W        W36754  24.190   3.196  12.899
68350W        W36755  30.369  36.700   2.286
68351W        W36756  33.786  25.018  12.369
68352W        W36757  21.568  33.515   0.111
68353W        W36758  17.006  35.674   1.934
68354W        W36759  29.509   4.424  13.002
68355W        W36760  36.129  20.819  14.473
68356W        W36761  16.557  21.208  13.022
68357W        W36762  23.985  17.518   4.563
68358W        W36763  41.933  42.504  12.115
68359W        W36764  39.370  12.322  14.508
68360W        W36765  35.299  19.344   4.705
68361W        W36766  33.097  10.280  11.102
68362W        W36767  20.511  22.976   4.426
68363W        W36768   0.895  37.581  13.824
68364W        W36769  12.525  14.648  11.362
68365W        W36770  18.573  31.613  11.240
68366W        W36771  38.220  41.741   2.444
68367W        W36772  28.401  32.415   2.017
68368W        W36773  20.771  35.429   3.650
68369W        W36774  12.928  29.021  13.107
68370W        W36775   1.682  32.604  11.526
68371W        W36776  13.402   2.470  13.267
68372W        W36777  44.585  11.773   2.953
68373W        W36778   7.142   9.519   3.181
68374W        W36779  23.691   3.688   4.121
68375W        W36780  38.897  43.510  13.321
68376W        W36781  22.659   5.639   2.607
68377W        W36782  23.318   0.677   0.335
68378W        W36783   1.111  26.132   1.262
68379W        W36784  22.137  30.831   0.408
68380W        W36785  34.069  23.917   0.686
68381W        W36786  10.210  18.291   3.638
68382W        W36787  38.373  33.246   4.224
68383W        W36788  28.870  42.230  13.914
68384W        W36789  12.762  14.657  13.049
68385W        W36790  41.532   5.371  11.552
68386W        W36791  35.481  37.924  13.271
68387W        W36792  18.116  11.290   0.731
68388W        W36793  17.645   0.440  14.531
68389W        W36794  28.088  26.552  13.954
68390W        W36795  35.067  41.010   9.908
68391W        W36796  15.708  33.351  13.594
68392W        W36797  21.140  23.723   5.305
68393W        W36798  18.699  10.108   2.371
68394W        W36799  33.720  36.416  11.687
68395W        W36800   1.367  25.081   0.056
68396W        W36801  30.605  24.206  11.598
68397W        W36802   4.235  42.401  13.453
68398W        W36803  36.185  36.350   0.643
68399W        W36804  39.172  43.533  11.517
68400W        W36805  30.033   9.817   1.875
68401W        W36806  42.246  25.598  12.428
68402W        W36807  32.438  18.037   1.201
68403W        W36808   9.233  30.885  10.294
68404W        W36809  31.189   7.251   3.685
68405W        W36810  30.240   9.201  11.103
68406W        W36811  17.561  32.025   4.578
68407W        W36812   7.812  17.560   2.690
68408W        W36813  32.551   7.596   1.988
68409W        W36814  37.531  36.867   0.294
68410W        W36815  12.686   0.822   0.448
68411W        W36816   9.173  35.392  14.930
68412W        W36817  34.371   2.296  14.749
68413W        W36818  22.217  23.984   2.284
68414W        W36819   4.180  19.810   0.371
68415W        W36820  29.345  25.719   1.909
68416W        W36821  35.347  10.865   0.521
68417W        W36822   8.710  41.927  12.180
68418W        W36823  43.226  27.742   3.605
68419W        W36824   8.646  17.585  10.734
68420W        W36825  28.931  43.953  13.396
68421W        W36826  42.432  22.091  13.477
68422W        W36827  31.922  12.604  13.397
68423W        W36828   1.242   1.925   3.765
68424W        W36829  26.076  29.893   4.183
68425W        W36830  15.818  14.218  13.525
68426W        W36831  12.040  24.045   4.082
68427W        W36832  38.357  16.283   3.387
68428W        W36833  33.471  33.067   3.315
68429W        W36834  31.974  44.000  12.146
68430W        W36835  41.039  14.143   1.688
68431W        W36836  30.938  20.779  12.034
68432W        W36837  31.382  22.681  11.217
68433W        W36838  30.121  44.658   2.760
68434W        W36839   8.125  33.573   1.939
68435W        W36840  22.437  39.031  10.239
68436W        W36841   4.800  36.615  10.608
68437W        W36842  39.934  21.190   1.567
68438W        W36843  16.646   6.288   1.553
68439W        W36844  35.279   9.594   2.180
68440W        W36845  24.991  11.215   1.858
68441W        W36846  12.568  32.469   2.493
68442W        W36847  11.421  14.825  14.374
68443W        W36848   6.372  24.136   2.250
68444W        W36849  24.194   2.747  12.064
68445W        W36850  38.259  39.516   0.738
68446W        W36851  31.541   5.442  10.642
68447W        W36852  17.108  17.630  10.437
68448W        W36853  35.053   5.476   2.306
68449W        W36854  18.341  33.096  14.837
68450W        W36855   4.136  27.547   0.479
68451W        W36856  42.179  29.602  12.688
68452W        W36857  15.078   7.105  11.146
68453W        W36858  16.049  28.441   3.644
68454W        W36859  34.513  44.265  14.052
68455W        W36860  15.177  24.027   2.772
68456W        W36861  35.044   9.687   1.211
68457W        W36862  36.020  19.228   3.152
68458W        W36863  40.527  25.644  14.491
68459W        W36864   9.067  26.324  14.918
68460W        W36865   2.982  30.098   0.383
68461W        W36866   3.867  25.044   3.716
68462W        W36867  35.995   6.482  14.828
68463W        W36868  32.482  40.519   2.581
68464W        W36869  35.084  29.444  12.908
68465W        W36870   5.898  25.364   0.005
68466W        W36871  24.173   4.357   1.184
68467W        W36872  12.085   5.202   1.305
68468W        W36873  10.587  14.630  11.076
68469W        W36874  39.947  21.029  10.933
68470W        W36875  28.974   2.941   0.937
68471W        W36876  35.627   1.747   0.393
68472W        W36877  17.737  22.766  11.787
68473W        W36878  23.495  44.746  14.384
68474W        W36879  26.194  32.409   4.482
68475W        W36880  13.622  17.939   0.819
68476W        W36881  37.353  34.751  11.331
68477W        W36882  21.754  21.118   5.072
68478W        W36883  16.162  24.783   3.117
68479W        W36884  14.773  36.196  12.534
68480W        W36885  35.295  44.277  10.992
68481W        W36886   0.980  16.104  13.772
68482W        W36887  14.869  23.605   1.889
68483W        W36888  28.610  37.756   9.896
68484W        W36889  43.954   1.484  12.470
68485W        W36890  28.135   2.381  11.274
68486W        W36891  13.559   1.423   0.311
68487W        W36892  20.267   7.976   4.279
68488W        W36893  24.238  43.853  14.735
68489W        W36894   8.677  21.496   3.632
68490W        W36895  31.374  35.523  10.817
68491W        W36896  15.317   7.828  13.906
68492W        W36897  18.191  10.352   0.933
68493W        W36898  17.818   5.265  13.081
68494W        W36899  33.502   3.173   0.423
68495W        W36900  30.453  11.826   3.065
68496W        W36901  21.836  21.254  12.589
68497W        W36902  23.858  31.559   1.365
68498W        W36903  43.343  40.999   2.195
68499W        W36904  33.204  19.441  14.368
68500W        W36905  26.056  15.866  12.424
68501W        W36906  39.242  29.081   1.731
68502W        W36907  23.276  19.829  13.337
68503W        W36908  32.646  19.563   4.601
68504W        W36909  44.953  13.730  12.360
68505W        W36910  11.616  34.113   1.010
68506W        W36911  41.374  37.965   0.308
68507W        W36912   7.848  23.220  11.581
68508W        W36913  37.406  24.249   1.778
68509W        W36914  26.108   5.237  12.440
68510W        W36915  38.211  18.885   4.128
68511W        W36916  40.187  41.265   1.734
68512W        W36917  14.185  15.237  12.669
68513W        W36918  21.980  16.818  12.116
68514W        W36919  15.756   6.190  11.419
68515W        W36920  29.656  21.312   3.438
68516W        W36921  39.430  11.617   3.667
68517W        W36922  22.191  13.129  14.369
68518W        W36923  43.223  33.315   0.884
68519W        W36924  34.859  11.650   4.574
68520W        W36925  20.248  39.536  14.626
68521W        W36926  31.624  23.630   2.838
68522W        W36927   9.951  27.380  10.213
68523W        W36928  32.656   4.883  11.546
68524W        W36929  44.426  21.631  14.308
68525W        W36930  37.526  42.959   4.868
68526W        W36931   9.672  21.700   4.143
68527W        W36932  44.882  35.479  11.052
68528W        W36933  10.100  35.880   2.873
68529W        W36934  41.049  10.340   1.094
68530W        W36935  10.410  34.815  11.017
68531W        W36936  41.399  25.683  14.357
68532W        W36937  29.632  22.467   1.197
68533W        W36938  28.508   8.558  12.445
68534W        W36939  25.179  31.644   4.954
68535W        W36940  14.061  12.653   1.071
68536W        W36941  35.558  30.480  13.170
68537W        W36942  44.786  17.234   5.087
68538W        W36943  16.552  40.462   3.092
68539W        W36944  16.256  11.174   2.016
68540W        W36945  42.433  39.997  13.083
68541W        W36946   7.260  13.316  14.778
68542W        W36947  29.121  23.306  13.838
68543W        W36948  11.535   1.676   2.279
68544W        W36949   8.741  35.307  12.582
68545W        W36950  19.022  35.892  11.329
68546W        W36951  24.770  41.219  10.550
68547W        W36952  35.887  31.507   3.048
68548W        W36953   5.705  16.146  14.416
68549W        W36954  18.604  17.716  11.883
68550W        W36955  20.143  44.603  13.536
68551W        W36956  19.693  39.931   0.373
68552W        W36957  10.497  40.031  11.991
68553W        W36958  16.079  12.435  14.400
68554W        W36959  32.008  41.372  11.152
68555W        W36960   0.781   9.213   3.239
68556W        W36961  28.503  37.257  14.727
68557W        W36962  10.644  33.143   0.294
68558W        W36963  28.405   3.840   1.936
68559W        W36964  21.692  12.146   4.844
68560W        W36965  36.266  43.327   4.605
68561W        W36966  33.659  31.857   5.075
68562W        W36967   1.802  25.748  14.502
68563W        W36968  23.078  41.938   3.779
68564W        W36969  26.141   9.718  14.372
68565W        W36970  29.548  29.395  12.674
68566W        W36971  38.291  39.353   2.784
68567W        W36972  44.389  13.730   3.137
68568W        W36973  21.574   6.123   1.847
68569W        W36974  20.019  12.574  14.074
68570W        W36975  18.216  44.364   2.832
68571W        W36976   0.527   4.072   4.109
68572W        W36977  33.157  14.172  10.650
68573W        W36978  34.558  15.272  10.612
68574W        W36979   0.388   1.927  11.493
68575W        W36980  18.825  23.493  12.577
68576W        W36981  36.835  30.000   4.770
68577W        W36982  37.529  32.929   2.166
68578W        W36983  12.863  42.973  13.015
68579W        W36984  19.390  25.222  12.448
68580W        W36985  14.248  40.482   1.506
68581W        W36986  42.409  27.448   2.579
68582W        W36987  27.657  27.595   2.289
68583W        W36988  25.172  39.853   1.110
68584W        W36989  17.029  18.069   2.274
68585W        W36990  33.459  11.493  11.145
68586W        W36991  30.652  19.081   0.208
68587W        W36992  22.576  33.108  11.673
68588W        W36993  37.922   0.458  14.786
68589W        W36994  14.751   0.714   1.782
68590W        W36995   6.604  33.404   4.883
68591W        W36996  32.990   5.318  13.988
68592W        W36997  15.688  37.051  12.043
68593W        W36998  42.909  13.686   0.390
68594W        W36999  28.004  38.707   9.790
68595W        W37000  42.957  40.358   1.357
68596W        W37001  29.803  39.180   4.918
68597W        W37002  32.585  27.851  10.469
68598W        W37003   5.644   5.847  14.734
68599W        W37004  40.836  18.299  11.611
68600W        W37005  42.062  18.025  10.486
68601W        W37006   2.145  41.402   1.784
68602W        W37007  28.752  12.759  11.937
68603W        W37008  28.059  44.220   0.869
68604W        W37009  29.718  44.571   3.689
68605W        W37010   5.757  19.178   2.352
68606W        W37011   3.798  30.254  14.938
68607W        W37012  18.501  20.746   4.727
68608W        W37013  14.335   5.763   0.052
68609W        W37014  17.397  39.342  11.866
68610W        W37015  16.171  27.098   4.556
68611W        W37016  12.334   2.275  13.084
68612W        W37017   5.696   1.283  13.995
68613W        W37018  42.108  42.124  13.589
68614W        W37019  15.218  29.087  13.090
68615W        W37020  39.839  17.623  13.327
68616W        W37021  41.767  29.877  13.023
68617W        W37022  32.680  13.397  12.431
68618W        W37023  32.194   8.276  12.617
68619W        W37024  32.586  43.722  12.962
68620W        W37025   8.889  44.226   2.817
68621W        W37026  41.274   6.950   2.478
68622W        W37027  14.813  30.198  13.615
68623W        W37028   2.603  39.580   2.743
68624W        W37029  21.631  23.553   1.866
68625W        W37030  19.107  15.205   2.930
68626W        W37031  28.645  42.470   4.551
68627W        W37032  27.151  33.382  12.453
68628W        W37033  10.459  12.569  10.451
68629W        W37034  35.272  44.038   3.659
68630W        W37035   1.760  42.018  13.842
68631W        W37036  14.740  31.342  12.600
68632W        W37037  37.444  34.103  12.525
68633W        W37038  44.820  29.187   2.747
68634W        W37039  29.528  35.083   2.211
68635W        W37040  17.283  23.799   0.287
68636W        W37041  20.002   7.676   4.605
68637W        W37042  13.904  31.450  12.434
68638W        W37043  36.922  19.066  11.584
68639W        W37044  43.909  36.552  13.407
68640W        W37045  14.031  12.965  10.368
68641W        W37046  11.721   1.567  13.031
68642W        W37047  27.047  11.619   3.231
68643W        W37048   0.274  31.349   3.215
68644W        W37049  35.439  22.350  13.135
68645W        W37050  41.329  25.681  10.759
68646W        W37051  18.472  42.926   2.866
68647W        W37052  12.257  42.138   4.081
68648W        W37053   9.758  24.578   2.200
68649W        W37054  27.233  10.631  12.914
68650W        W37055  35.527  31.876  11.268
68651W        W37056  11.141  17.295   4.569
68652W        W37057  25.657  30.873   2.404
68653W        W37058   5.747  24.212   1.015
68654W        W37059  21.811  16.878  10.780
68655W        W37060   2.830  19.319  12.134
68656W        W37061  42.819  24.917  14.306
68657W        W37062  13.295   2.719   3.668
68658W        W37063  30.193   3.234   3.949
68659W        W37064  34.460   3.415  13.438
68660W        W37065   9.208  35.443   3.921
68661W        W37066  25.858  40.071   5.431
68662W        W37067  29.992  38.351   2.065
68663W        W37068  28.625  39.554   0.256
68664W        W37069  22.439  18.071   2.490
68665W        W37070  44.824   8.246   1.868
68666W        W37071  27.464  21.688   2.257
68667W        W37072   8.644   5.071   3.728
68668W        W37073  37.332  33.408   4.164
68669W        W37074   6.940  10.964   2.313
68670W        W37075  17.547  22.275   4.463
68671W        W37076  15.636  33.627   1.030
68672W        W37077   9.218  17.336   3.753
68673W        W37078  10.225  12.201   1.704
68674W        W37079  18.003  26.261   2.441
68675W        W37080  24.982  26.507  12.388
68676W        W37081  13.404  33.939   9.868
68677W        W37082  31.088   9.762   4.390
68678W        W37083  40.845  14.730  13.455
68679W        W37084   3.987  18.200   2.814
68680W        W37085  25.710  40.311   1.842
68681W        W37086  37.431  31.312  14.389
68682W        W37087   4.500  33.919   2.160
68683W        W37088   8.783  19.541   2.101
68684W        W37089   0.334  37.967  13.616
68685W        W37090   5.420  38.410  11.415
68686W        W37091  30.938  19.839   1.775
68687W        W37092  16.373   0.432  14.948
68688W        W37093  11.914   0.941  13.596
68689W        W37094   1.422   0.256   3.616
68690W        W37095  17.955  15.300  14.379
68691W        W37096  20.260  20.976  13.803
68692W        W37097   6.814  41.341  14.959
68693W        W37098  28.113  22.472   0.270
68694W        W37099  42.995   0.474  12.046
68695W        W37100  15.340  30.979   2.826
68696W        W37101   5.166  22.657   2.044
68697W        W37102  14.033   5.489   2.587
68698W        W37103  34.079  24.962  14.272
68699W        W37104   3.227  34.620  12.849
68700W        W37105  13.875  10.652   1.319
68701W        W37106   4.279  31.643  11.333
68702W        W37107  17.565  36.818   2.397
68703W        W37108  16.321  44.392  10.659
68704W        W37109   2.873  38.500   1.866
68705W        W37110  38.932  30.673   3.063
68706W        W37111  11.139   2.915   2.325
68707W        W37112  40.977   5.025   1.803
68708W        W37113  34.975  15.049  14.873
68709W        W37114  39.756  38.352   3.083
68710W        W37115  37.954   1.902   1.960
68711W        W37116   1.005  14.820  13.600
68712W        W37117  22.309  11.226  14.936
68713W        W37118  42.849  13.927  12.012
68714W        W37119  35.465  15.379  13.449
68715W        W37120  22.068  13.376  13.891
68716W        W37121  16.377   9.725   2.964
68717W        W37122  24.071   6.970  11.325
68718W        W37123  12.997  15.767   0.873
68719W        W37124  11.827   5.192  12.950
68720W        W37125  18.370  30.050   3.784
68721W        W37126   5.649  44.198  12.876
68722W        W37127   6.529  21.988  11.069
68723W        W37128  43.306   1.937  13.515
68724W        W37129  30.743   0.897   2.684
68725W        W37130  13.923  22.262  10.163
68726W        W37131   6.405  40.738   1.250
68727W        W37132  21.046  22.340   0.228
68728W        W37133   5.466  22.709   2.947
68729W        W37134  38.789  16.612   0.497
68730W        W37135  10.384  23.591   1.959
68731W        W37136  11.653  16.726   0.199
68732W        W37137  36.872   5.786  12.989
68733W        W37138  41.480  31.980  13.499
68734W        W37139   0.838  28.191  10.065
68735W        W37140  24.485  43.853   1.476
68736W        W37141  11.383  44.216  12.413
68737W        W37142  16.401  21.100  11.063
68738W        W37143  23.166  15.584  14.286
68739W        W37144  32.140  13.069   3.708
68740W        W37145  38.231  18.471   2.772
68741W        W37146  26.708  14.368   0.925
68742W        W37147   8.260  21.529   4.608
68743W        W37148   7.891  28.037  13.345
68744W        W37149  23.852  44.465   2.399
68745W        W37150  28.104  30.720  14.839
68746W        W37151  16.283  42.128   2.253
68747W        W37152  36.657  44.004  14.424
68748W        W37153   3.909  12.690   4.289
68749W        W37154  34.798  21.635  11.474
68750W        W37155  10.394  27.470  12.258
68751W        W37156  16.600  39.840   0.895
68752W        W37157  34.053  11.654  14.574
68753W        W37158  21.244   6.289  12.077
68754W        W37159  31.939  35.530  11.692
68755W        W37160  29.981   3.883  12.054
68756W        W37161  32.383  31.566   0.680
68757W        W37162   5.251   9.687  13.064
68758W        W37163  33.285  20.762   3.361
68759W        W37164   7.747  25.042   1.993
68760W        W37165   2.431  37.968  11.872
68761W        W37166  13.371  36.848   3.157
68762W        W37167  37.454  36.359   0.372
68763W        W37168  29.643  10.953   1.869
68764W        W37169  35.939  15.766   3.377
68765W        W37170  22.794  17.983  12.836
68766W        W37171  42.521  41.882  14.417
68767W        W37172  38.938   3.492   2.255
68768W        W37173  11.834  38.915  12.952
68769W        W37174  12.655  10.654  12.515
68770W        W37175  16.742  20.987  14.009
68771W        W37176  36.999   1.953  14.325
68772W        W37177  28.761   3.014  14.942
68773W        W37178  28.067  22.937  14.321
68774W        W37179   5.851  27.640  14.780
68775W        W37180  12.842   0.971  13.523
68776W        W37181  19.248  10.675   0.836
68777W        W37182  15.074  36.943   3.703
68778W        W37183  41.486  42.895  10.551
68779W        W37184   9.059  20.195   5.029
68780W        W37185  27.509  39.052  13.522
68781W        W37186  29.343   4.421  12.508
68782W        W37187   9.343   4.460   1.826
68783W        W37188  34.467  13.485  13.250
68784W        W37189  12.396  23.147  11.491
68785W        W37190  24.284  15.593  14.964
68786W        W37191  35.880  40.863  12.484
68787W        W37192  18.570  30.876  14.625
68788W        W37193  34.259   0.502  11.101
68789W        W37194  27.911   3.937  11.648
68790W        W37195  28.132  38.586   3.715
68791W        W37196  11.186  21.175   3.633
68792W        W37197  32.947  30.730   4.664
68793W        W37198   4.813  15.741   2.621
68794W        W37199  14.722  24.986  12.027
68795W        W37200  10.102   9.467  11.137
68796W        W37201  22.743   3.781  11.501
68797W        W37202  23.592   2.124   4.748
68798W        W37203  34.002  32.927   1.819
68799W        W37204   6.662  34.917   2.865
68800W        W37205  37.312  28.672   2.904
68801W        W37206  14.202  28.125  14.779
68802W        W37207  10.270   4.267   0.745
68803W        W37208  17.227  32.575  11.610
68804W        W37209  26.701  33.064  12.581
68805W        W37210   2.316  29.074  13.064
68806W        W37211  19.677  29.957  13.324
68807W        W37212  27.030  25.982   2.868
68808W        W37213  10.662  26.298   3.761
68809W        W37214  32.484  25.208  10.947
68810W        W37215   0.435  31.521  12.412
68811W        W37216  17.815  10.890   4.855
68812W        W37217  18.180  25.559  14.255
68813W        W37218  27.452  40.942   2.701
68814W        W37219   9.692   9.810   2.398
68815W        W37220  43.730  36.518   4.735
68816W        W37221  35.879  17.841  13.883
68817W        W37222  33.655   3.211  14.406
68818W        W37223  21.038  16.198  14.336
68819W        W37224   0.908   1.510  14.980
68820W        W37225  22.194  37.660   4.919
68821W        W37226  33.931  43.797   0.870
68822W        W37227  28.278   3.757   4.637
68823W        W37228   1.852   0.124  11.887
68824W        W37229  14.779  37.753   0.884
68825W        W37230  10.287   5.377  12.125
68826W        W37231  19.107  16.571   0.282
68827W        W37232  27.149   2.437  11.034
68828W        W37233  22.529  25.010   0.910
68829W        W37234  14.651  37.242   2.817
68830W        W37235  29.943   5.382  14.781
68831W        W37236  29.707  24.952  11.566
68832W        W37237  12.750  37.963   3.460
68833W        W37238  20.080  32.020   0.648
68834W        W37239   4.863   9.622   2.352
68835W        W37240   1.964  33.501   3.240
68836W        W37241  10.476   4.388   0.211
68837W        W37242  37.313  36.121   1.783
68838W        W37243  29.354  23.927  10.463
68839W        W37244  33.073   0.312  12.105
68840W        W37245  40.563  44.350   2.263
68841W        W37246  32.086  41.415   0.989
68842W        W37247   0.506  23.602  12.125
68843W        W37248  42.799  40.236  11.139
68844W        W37249  28.500  36.125   2.157
68845W        W37250   0.015  31.614   2.843
68846W        W37251  30.189  19.708   1.307
68847W        W37252  18.577  33.698  12.075
68848W        W37253   6.606   8.630   4.791
68849W        W37254   4.418  31.950   2.209
68850W        W37255  21.817  29.284  14.237
68851W        W37256  16.230  12.695  13.930
68852W        W37257   0.585  28.607  13.278
68853W        W37258  39.262   2.236   4.125
68854W        W37259  15.964   6.678   3.750
68855W        W37260   5.025  41.462  14.494
68856W        W37261  41.347  15.372  13.903
68857W        W37262  21.849   5.412  14.543
68858W        W37263  25.965   2.010  13.828
68859W        W37264  27.111  34.464  10.331
68860W        W37265   0.973  27.644   4.173
68861W        W37266   7.779  23.688   3.227
68862W        W37267   3.759  32.139  13.406
68863W        W37268   3.531  13.168   1.897
68864W        W37269  30.103  18.521  12.543
68865W        W37270  16.881  16.082  14.708
68866W        W37271  40.796  36.616   1.928
68867W        W37272  41.550  25.103   0.384
68868W        W37273  11.615  33.372  12.096
68869W        W37274  42.097   6.930  14.026
68870W        W37275  25.436  24.727  12.573
68871W        W37276  34.423  24.058   4.176
68872W        W37277  13.747   8.691   0.014
68873W        W37278  27.633  10.202  10.678
68874W        W37279  34.662  18.773  13.376
68875W        W37280  41.294  27.626  11.983
68876W        W37281  17.812  34.988  14.278
68877W        W37282  20.879  16.647   0.798
68878W        W37283  10.304   0.378  14.721
68879W        W37284   1.492  22.146  12.466
68880W        W37285  33.947  25.364   3.957
68881W        W37286  14.555  40.838  14.759
68882W        W37287  18.600  42.886  11.893
68883W        W37288  30.618  31.450   1.229
68884W        W37289  26.340  32.406   1.765
68885W        W37290  23.069  36.458   3.472
68886W        W37291  31.593  41.906  14.043
68887W        W37292  12.166   7.739  10.875
68888W        W37293  36.601  39.187   0.542
68889W        W37294  17.413  22.102   1.702
68890W        W37295  34.191  41.064  14.305
68891W        W37296  21.911  30.619  14.740
68892W        W37297  26.391   4.128  13.496
68893W        W37298  26.474  24.596  14.239
68894W        W37299  44.722  12.266   2.817
68895W        W37300  16.069  14.643  13.420
68896W        W37301  11.775  35.488   3.107
68897W        W37302   5.432  44.879   1.535
68898W        W37303  41.556  44.934  14.106
68899W        W37304  20.467  44.058   3.052
68900W        W37305  26.122  19.544   2.310
68901W        W37306  16.011  34.910   3.253
68902W        W37307  35.366  12.340   2.693
68903W        W37308  13.239  34.934   2.356
68904W        W37309  15.624   4.313   1.299
68905W        W37310  44.996  30.036  14.906
68906W        W37311  40.435  12.211   4.953
68907W        W37312   6.439   5.035   0.672
68908W        W37313  29.523  31.288   4.765
68909W        W37314   2.791  29.005   3.101
68910W        W37315  13.503  21.857  12.670
68911W        W37316  38.226  35.425   2.703
68912W        W37317  12.365  19.801  13.197
68913W        W37318   8.172  11.633  11.226
68914W        W37319  17.114  42.457  13.788
68915W        W37320  25.036  25.133  14.392
68916W        W37321  36.897  36.480   4.635
68917W        W37322   1.833   3.796   3.205
68918W        W37323   7.675  21.041  10.985
68919W        W37324  12.792  23.701  10.508
68920W        W37325  24.753  42.582  13.104
68921W        W37326  40.278  21.913  11.730
68922W        W37327  32.662  25.515   0.918
68923W        W37328   6.426  21.166  10.735
68924W        W37329  37.075  13.665   0.448
68925W        W37330  38.521  13.828   1.827
68926W        W37331  35.086   6.717  14.343
68927W        W37332  30.601  31.868   0.405
68928W        W37333  35.079  15.863  11.166
68929W        W37334  25.801  39.318   0.752
68930W        W37335  42.046  11.665   5.242
68931W        W37336  22.135   5.631   2.692
68932W        W37337   5.577  27.844   9.884
68933W        W37338  37.863  14.260  11.235
68934W        W37339  29.422  28.841  12.545
68935W        W37340   2.399  44.293  12.775
68936W        W37341  41.592  28.908  14.326
68937W        W37342  20.716   5.278  12.601
68938W        W37343  21.594   0.504  10.513
68939W        W37344  37.480   5.070  14.541
68940W        W37345  43.153   2.455  13.508
68941W        W37346   4.701   2.316  12.035
68942W        W37347  32.470   6.152  14.346
68943W        W37348  25.475  35.025   1.240
68944W        W37349  19.263  17.570  13.326
68945W        W37350   9.053  10.497   0.186
68946W        W37351   7.379  18.584   5.113
68947W        W37352  29.892  28.427   0.919
68948W        W37353  32.356  36.245  13.038
68949W        W37354  20.982  33.525  10.847
68950W        W37355   9.376  38.316  12.868
68951W        W37356  35.911  11.855  10.829
68952W        W37357   4.010  35.060   0.776
68953W        W37358  15.691  22.489   1.159
68954W        W37359   1.266  18.498   1.002
68955W        W37360  21.491  17.582  11.164
68956W        W37361  22.976  21.217  13.116
68957W        W37362  18.649  11.155  11.949
68958W        W37363  21.373  42.684  10.423
68959W        W37364  16.839  22.036  14.436
68960W        W37365  36.427  37.213  14.868
68961W        W37366   2.047   6.754   0.933
68962W        W37367  37.321  38.519   4.203
68963W        W37368  35.357  25.914  10.757
68964W        W37369  13.758  29.346   4.189
68965W        W37370  34.126  17.550   1.213
68966W        W37371  41.219  32.368   4.204
68967W        W37372  20.753  25.080  12.757
68968W        W37373  29.224   7.170  12.453
68969W        W37374  31.063  30.457  12.404
68970W        W37375   9.564  31.078   9.513
68971W        W37376  25.028  43.926  13.764
68972W        W37377   9.287  17.646   0.800
68973W        W37378   3.464   2.491  12.389
68974W        W37379  27.882  43.362   1.430
68975W        W37380  13.031  14.631  13.600
68976W        W37381  30.720  37.322   0.518
68977W        W37382  19.877  33.436  14.069
68978W        W37383   2.310   0.862   0.883
68979W        W37384  11.962  15.613   4.635
68980W        W37385  21.812   4.854   2.280
68981W        W37386  42.578  24.767   0.362
68982W        W37387  18.663  42.705   1.808
68983W        W37388  24.780  16.860  12.590
68984W        W37389  43.302  39.873  12.636
68985W        W37390  18.547  14.295  11.997
68986W        W37391  29.315   8.848   4.506
68987W        W37392  40.647  26.506  11.438
68988W        W37393  14.770  26.101  13.382
68989W        W37394   9.122  12.278   4.725
68990W        W37395   1.230  34.830   3.562
68991W        W37396  25.984  29.523  11.104
68992W        W37397   8.640  12.055  14.468
68993W        W37398  14.832  39.429   2.803
68994W        W37399  27.952  12.101   3.251
68995W        W37400  21.223  29.842  11.507
68996W        W37401   7.044  14.904  11.097
68997W        W37402   6.768  32.564  12.084
68998W        W37403  14.150  32.437  13.884
68999W        W37404  43.540  17.291  11.070
69000W        W37405  27.092  40.309  11.899
69001W        W37406   4.782  31.748   0.911
69002W        W37407  33.700   2.241   0.534
69003W        W37408   6.748  25.214  13.452
69004W        W37409   8.675  44.263   1.342
69005W        W37410  29.761   6.559   0.390
69006W        W37411  36.916   3.767  10.432
69007W        W37412  22.315  33.486  11.094
69008W        W37413  31.990  20.289   3.038
69009W        W37414  23.017  15.796   2.654
69010W        W37415   8.246  24.905  10.597
69011W        W37416   8.073   9.727  14.965
69012W        W37417  40.873  19.566  13.441
69013W        W37418  36.559   4.004  12.421
69014W        W37419  11.273   0.427  13.814
69015W        W37420  18.161   2.642   0.808
69016W        W37421  20.202  28.090   4.555
69017W        W37422  17.580  10.032  11.601
69018W        W37423  35.987   9.107  11.615
69019W        W37424  34.349   4.156  11.164
69020W        W37425  34.379  23.713   3.354
69021W        W37426  16.307  27.016   1.576
69022W        W37427   9.472   2.614  14.250
69023W        W37428  33.356   2.257  11.606
69024W        W37429  42.164  18.548  14.889
69025W        W37430  20.508  37.067  13.019
69026W        W37431  30.809   6.397   1.313
69027W        W37432  40.433  32.518  12.803
69028W        W37433   8.734   7.442  14.379
69029W        W37434   6.218  16.906   2.193
69030W        W37435  20.180  13.222  12.036
69031W        W37436  24.368  11.804   9.898
69032W        W37437  22.048  31.227  11.123
69033W        W37438   9.506  44.447   1.407
69034W        W37439   0.381  33.134   2.309
69035W        W37440   9.854  28.414   1.359
69036W        W37441  19.698  32.479   3.227
69037W        W37442  14.340  44.007  12.187
69038W        W37443  16.722  18.450   4.896
69039W        W37444  22.104  23.031  11.692
69040W        W37445  34.151  25.600  12.964
69041W        W37446  26.994   3.519  11.349
69042W        W37447  38.986  28.010  14.482
69043W        W37448  22.949  29.171  13.382
69044W        W37449  37.232  24.746   3.347
69045W        W37450  22.811   0.500  10.368
69046W        W37451  42.274   2.357   3.656
69047W        W37452  33.570  15.080   2.216
69048W        W37453  24.110   9.854   0.769
69049W        W37454  11.667  11.692  13.578
69050W        W37455  20.065  39.163  14.291
69051W        W37456  26.761  42.371   4.262
69052W        W37457   3.788  30.743   0.074
69053W        W37458  31.469  32.930  12.459
69054W        W37459  19.790  12.890  13.505
69055W        W37460   6.372  42.292  11.679
69056W        W37461   1.340  32.569   1.716
69057W        W37462  20.348  19.806  14.358
69058W        W37463  23.586  40.919  12.136
69059W        W37464  32.275   4.964   0.389
69060W        W37465  18.276  18.298  13.862
69061W        W37466  11.367  13.147   2.156
69062W        W37467  23.754   7.096   1.708
69063W        W37468  19.953  38.370  11.811
69064W        W37469  19.248  19.747   3.744
69065W        W37470   7.155  25.652   1.910
69066W        W37471  27.022  24.409   0.443
69067W        W37472  41.364  11.622  14.830
69068W        W37473  38.379  32.110   2.925
69069W        W37474  26.586   9.158   4.598
69070W        W37475  21.027   5.970   1.297
69071W        W37476  31.687  41.054  10.944
69072W        W37477   9.767  24.930  10.459
69073W        W37478   0.378  33.967   2.911
69074W        W37479   5.592  12.329   3.114
69075W        W37480  15.153  30.640   4.818
69076W        W37481  20.550  19.583  13.461
69077W        W37482  15.155  41.203   0.313
69078W        W37483  28.504  24.996   0.366
69079W        W37484  41.825  31.012  13.541
69080W        W37485  22.307  35.615  12.982
69081W        W37486  32.135   4.726  11.651
69082W        W37487  39.884  35.316  12.413
69083W        W37488   2.766   6.631  10.733
69084W        W37489  22.098  37.094  12.470
69085W        W37490  15.890  10.765  14.701
69086W        W37491  30.439  31.867  12.082
69087W        W37492   9.246  43.672  12.868
69088W        W37493  37.496  23.645   4.783
69089W        W37494  24.032  35.903   2.426
69090W        W37495   5.334  31.061   0.322
69091W        W37496  11.131   7.435   3.702
69092W        W37497  38.137   0.528   1.729
69093W        W37498  33.823  10.581  13.168
69094W        W37499  14.051  36.570   0.307
69095W        W37500   5.224  11.886  13.839
69096W        W37501  36.532  12.148  14.839
69097W        W37502  34.541   0.905   0.053
69098W        W37503  31.573  37.994   3.857
69099W        W37504  30.528  27.191  13.422
69100W        W37505  13.622  41.226   3.191
69101W        W37506  34.218  26.152  10.816
69102W        W37507   6.406  40.880  11.673
69103W        W37508  10.298  29.039   1.755
69104W        W37509  33.316   6.841   5.048
69105W        W37510  19.813  10.735  12.420
69106W        W37511  22.955   0.931  11.463
69107W        W37512  35.834  12.713  11.618
69108W        W37513  16.108  14.146  13.101
69109W        W37514   2.635  21.791   3.704
69110W        W37515  22.922  17.699   0.207
69111W        W37516   6.721  34.475   0.851
69112W        W37517  37.973  34.839   0.944
69113W        W37518  13.840  18.127  10.555
69114W        W37519   3.119  39.426   2.737
69115W        W37520   3.859  26.679  14.020
69116W        W37521  44.785   4.940   0.816
69117W        W37522   1.559  27.450  13.344
69118W        W37523  44.855  36.597  12.090
69119W        W37524  14.643  15.817  13.969
69120W        W37525  18.701  11.710  11.095
69121W        W37526  43.897  10.263   1.668
69122W        W37527   4.973   8.313   2.341
69123W        W37528  16.735  29.210   3.706
69124W        W37529  12.662  42.185  12.933
69125W        W37530  31.466  24.014   4.076
69126W        W37531  21.552  26.068   0.660
69127W        W37532  35.786  23.094  11.118
69128W        W37533  36.291  12.909   4.540
69129W        W37534   4.429  13.714  14.369
69130W        W37535  40.570  43.461   4.218
69131W        W37536  12.848  15.970   3.854
69132W        W37537   5.698  19.737  11.228
69133W        W37538  31.081  28.914   1.733
69134W        W37539  14.065  27.704  10.965
69135W        W37540   7.814  38.444   1.278
69136W        W37541   0.491   1.773  10.501
69137W        W37542  25.682  32.081   2.548
69138W        W37543  24.410  25.291   4.204
69139W        W37544  40.706  11.859  13.607
69140W        W37545  29.819  38.790   1.622
69141W        W37546   4.502  30.084   3.658
69142W        W37547  19.756   9.355  12.788
69143W        W37548   8.606  35.905   3.835
69144W        W37549  18.753  37.620  12.816
69145W        W37550  31.693  25.682   4.739
69146W        W37551  31.818  22.723  13.945
69147W        W37552  28.104  10.288  10.430
69148W        W37553  26.257  21.478  14.439
69149W        W37554   7.886   9.369  13.029
69150W        W37555   9.132   5.683   4.108
69151W        W37556  36.809  22.574   3.020
69152W        W37557  17.328  33.492   3.178
69153W        W37558   6.584  38.595  13.482
69154W        W37559  36.378   5.364   4.548
69155W        W37560  31.329  40.942   1.276
69156W        W37561   3.596  20.844  11.094
69157W        W37562   9.505  18.499  11.218
69158W        W37563   3.375  25.517   2.876
69159W        W37564  30.098  20.179   0.701
69160W        W37565   7.814  21.759   4.469
69161W        W37566  19.831  40.392   3.650
69162W        W37567  40.636  18.569  11.195
69163W        W37568  33.558   5.954   1.897
69164W        W37569  17.084  14.681   4.682
69165W        W37570  15.806  12.873  10.118
69166W        W37571  11.916  13.308  13.279
69167W        W37572  38.156   1.418  11.949
69168W        W37573  19.204  21.499   2.187
69169W        W37574  25.186  13.362   4.634
69170W        W37575   9.743  21.167  11.564
69171W        W37576   3.144  31.090   2.122
69172W        W37577   1.435  32.346  14.844
69173W        W37578   2.736  11.377  12.511
69174W        W37579  43.362  25.957   1.626
69175W        W37580   1.922  15.910  11.647
69176W        W37581  22.105   6.690   3.440
69177W        W37582  22.717  15.656  10.122
69178W        W37583  15.722  17.760  14.537
69179W        W37584  26.993  18.621  11.181
69180W        W37585  33.406  24.076  11.538
69181W        W37586  13.314   2.343  11.862
69182W        W37587  20.716  32.518   1.855
69183W        W37588  41.408  42.028   0.207
69184W        W37589  39.002  40.565  10.734
69185W        W37590   0.820  10.941  10.761
69186W        W37591   9.487   0.936   2.649
69187W        W37592  13.961  13.384  12.443
69188W        W37593  21.226  43.544  12.512
69189W        W37594  16.356  21.066   2.302
69190W        W37595  23.424  36.324   2.655
69191W        W37596  31.232  16.617   5.463
69192W        W37597   9.693  32.781  10.301
69193W        W37598  42.061  27.926  12.883
69194W        W37599  18.164  38.218   4.630
69195W        W37600   2.917  21.568   2.384
69196W        W37601  15.464  26.575   1.368
69197W        W37602  43.345  24.475  13.713
69198W        W37603   7.782   9.366   1.176
69199W        W37604  18.213   7.956   2.829
69200W        W37605  37.983  37.119   0.475
69201W        W37606   8.620  31.451  14.886
69202W        W37607   8.055   7.293   0.017
69203W        W37608  34.661  29.935   2.915
69204W        W37609  38.968  11.267   0.439
69205W        W37610  41.244  11.651  12.200
69206W        W37611  32.814  31.494  12.495
69207W        W37612  38.264  26.933  11.544
69208W        W37613  41.859  28.831  13.068
69209W        W37614   3.505  24.637  12.580
69210W        W37615  38.513  23.292   3.254
69211W        W37616  24.850   1.556   2.963
69212W        W37617  23.650  14.279   3.538
69213W        W37618  20.003   5.414   3.647
69214W        W37619   9.054   0.584  13.089
69215W        W37620  34.741   3.978   3.559
69216W        W37621   2.755  12.167   0.640
69217W        W37622  43.888   8.205  12.654
69218W        W37623  37.188  11.183   4.612
69219W        W37624  28.638  19.180  12.863
69220W        W37625  30.627  43.751  12.043
69221W        W37626   8.054  39.609  12.889
69222W        W37627   6.924  35.052  11.426
69223W        W37628   3.762  35.446   2.096
69224W        W37629  30.134  41.969   4.713
69225W        W37630  32.531  30.090  11.767
69226W        W37631  13.709  18.355   1.646
69227W        W37632   4.161   3.330  13.407
69228W        W37633  39.015  29.084  12.779
69229W        W37634   1.414  39.418  14.829
69230W        W37635  24.926  20.475   1.022
69231W        W37636   3.306  39.118  14.381
69232W        W37637  21.652  36.097   1.242
69233W        W37638  40.758  10.468  13.000
69234W        W37639   7.486   1.209   1.777
69235W        W37640  42.256  43.356  13.019
69236W        W37641   4.727  43.470   2.619
69237W        W37642  11.782  36.910  13.428
69238W        W37643  40.214  32.924  13.532
69239W        W37644   2.875  23.567   1.262
69240W        W37645  29.850  19.150  13.342
69241W        W37646  38.040  37.696   0.516
69242W        W37647  17.885   2.224   0.926
69243W        W37648  17.890  28.639   4.194
69244W        W37649  15.736  27.389  10.604
69245W        W37650  16.578  22.074   0.933
69246W        W37651  28.402   0.110  10.929
69247W        W37652  36.052   9.939   3.944
69248W        W37653   5.114   7.333  13.548
69249W        W37654   9.714  26.934   4.139
69250W        W37655  15.734  17.662  11.645
69251W        W37656  23.454  37.358  13.458
69252W        W37657  21.028   5.457   4.659
69253W        W37658  18.774  33.610   4.727
69254W        W37659   3.854  31.650   4.215
69255W        W37660  30.923  36.008   2.425
69256W        W37661   1.849  31.383   4.987
69257W        W37662  11.898  21.754  11.089
69258W        W37663  30.939  13.172   4.273
69259W        W37664  30.184  12.133  14.963
69260W        W37665  24.974  31.141  13.081
69261W        W37666   2.354  30.880  10.717
69262W        W37667  30.226  15.469   2.172
69263W        W37668  20.450  43.410  13.473
69264W        W37669  22.231   1.222   2.905
69265W        W37670  40.299  13.176  14.819
69266W        W37671  26.678  40.256  11.585
69267W        W37672   2.869   0.272  11.498
69268W        W37673   7.122  42.699   2.679
69269W        W37674  37.172  11.841  12.125
69270W        W37675  42.313   1.237   1.843
69271W        W37676  36.454  44.959   2.329
69272W        W37677  23.261  10.641   3.153
69273W        W37678  26.605  16.625  11.202
69274W        W37679  24.592  11.717   3.621
69275W        W37680  36.853  40.325   1.625
69276W        W37681   0.221   2.392  11.655
69277W        W37682  21.236   0.763   4.597
69278W        W37683  16.164  10.765  13.609
69279W        W37684   6.704  17.158  12.360
69280W        W37685  11.224  28.521   3.534
69281W        W37686  41.376   2.789  13.367
69282W        W37687  28.652  24.327   3.704
69283W        W37688  26.055  12.777  14.950
69284W        W37689  20.262  24.504  12.161
69285W        W37690  33.479  26.974   2.209
69286W        W37691  26.416   2.115  13.586
69287W        W37692   3.883   4.408   0.199
69288W        W37693  12.426  43.138  14.350
69289W        W37694  25.205  23.923   0.336
69290W        W37695  13.369  27.517  14.295
69291W        W37696  36.496  30.178   3.452
69292W        W37697  11.761  36.458  13.688
69293W        W37698  28.161  39.808   0.327
69294W        W37699   4.826  43.140  11.289
69295W        W37700   8.748   9.981  12.528
69296W        W37701  30.834  18.942   0.946
69297W        W37702  19.567  20.215  14.775
69298W        W37703  25.752  10.370  14.459
69299W        W37704  38.563  42.165   2.388
69300W        W37705  13.649   5.243   2.294
69301W        W37706  19.033  43.790  14.558
69302W        W37707  22.825  25.185  14.954
69303W        W37708   0.256  42.763   1.668
69304W        W37709  12.906  37.090  12.502
69305W        W37710   5.721  25.636   1.518
69306W        W37711  11.573  18.208  14.770
69307W        W37712  33.004  21.983   3.851
69308W        W37713  38.046  16.805  12.883
69309W        W37714  25.500  19.233  11.265
69310W        W37715  38.473  36.057   0.863
69311W        W37716   2.366  44.683   2.099
69312W        W37717   4.235  23.454  13.273
69313W        W37718  18.018  29.119   0.413
69314W        W37719  10.037  32.711   5.873
69315W        W37720  27.925  25.965  11.032
69316W        W37721  19.315   6.791  11.911
69317W        W37722  22.243  39.879  11.645
69318W        W37723  16.135  32.458  13.851
69319W        W37724   0.859  40.057  11.195
69320W        W37725  19.639  41.573  11.503
69321W        W37726  28.180  11.073   4.499
69322W        W37727   6.861   0.306   0.976
69323W        W37728  22.214  24.645   4.310
69324W        W37729  37.623  10.828   3.563
69325W        W37730  29.776   5.939   1.922
69326W        W37731  23.986   5.095   4.025
69327W        W37732  29.400  19.982   4.529
69328W        W37733  26.620  30.448  10.671
69329W        W37734  35.470   6.594   1.875
69330W        W37735  33.280  17.602   2.708
69331W        W37736  37.424  36.300   5.127
69332W        W37737  43.842  13.605   1.427
69333W        W37738  23.291  42.555  12.077
69334W        W37739   2.443  27.713  14.878
69335W        W37740  11.122  41.456  14.847
69336W        W37741  44.705  30.405  14.712
69337W        W37742  43.246  27.147  13.073
69338W        W37743  11.292   8.129  12.986
69339W        W37744  13.285  33.179   5.413
69340W        W37745  44.731  22.618  12.528
69341W        W37746   8.328  12.187  13.688
69342W        W37747  30.956  36.138   4.705
69343W        W37748  43.564  14.802  10.886
69344W        W37749  13.644  41.878  13.543
69345W        W37750  36.094  26.041   1.236
69346W        W37751  36.164  18.204  12.094
69347W        W37752  23.136  19.119  14.923
69348W        W37753  23.799  28.430   0.781
69349W        W37754  28.232   1.429  14.280
69350W        W37755  29.440   3.797  12.154
69351W        W37756  15.503  32.645  12.771
69352W        W37757   6.282  31.719  12.820
69353W        W37758  20.230  28.750   3.169
69354W        W37759  37.240  20.570  11.844
69355W        W37760  28.918   6.219   3.279
69356W        W37761  41.821  27.728   0.416
69357W        W37762  33.345  38.351  10.842
69358W        W37763   5.190  25.072   2.595
69359W        W37764   7.690   2.521  13.483
69360W        W37765   8.360  11.384   0.500
69361W        W37766  41.276   7.348   1.750
69362W        W37767  12.560   6.435  11.541
69363W        W37768  17.594  38.121  10.628
69364W        W37769  23.831  42.408   1.403
69365W        W37770   4.864  28.457   2.326
69366W        W37771  23.578  10.636  11.735
69367W        W37772   7.602  42.393  13.957
69368W        W37773   4.253  44.322   4.507
69369W        W37774   9.319  41.125   5.062
69370W        W37775  17.213  35.289   3.759
69371W        W37776  30.520  39.845  13.576
69372W        W37777  42.351   5.351   4.204
69373W        W37778  24.029  29.350   3.610
69374W        W37779  10.357  24.450   3.900
69375W        W37780  11.570  39.110   0.797
69376W        W37781  36.958  33.986   3.892
69377W        W37782   0.760   1.752   3.873
69378W        W37783  19.669  41.817  14.133
69379W        W37784  36.558  18.136   0.035
69380W        W37785  15.310  10.462  11.472
69381W        W37786  42.313  26.094   0.905
69382W        W37787   6.354  36.449   2.853
69383W        W37788   2.523   3.410  11.130
69384W        W37789  18.662  24.984   4.028
69385W        W37790  20.705   1.286  10.540
69386W        W37791   4.828  36.850  12.776
69387W        W37792  13.325   7.377  10.222
69388W        W37793  11.645  20.613   4.653
69389W        W37794  12.022  10.184  13.788
69390W        W37795  41.928  27.251  10.933
69391W        W37796   5.334  27.129   3.121
69392W        W37797   0.774  38.408  10.273
69393W        W37798   0.806   5.869   0.177
69394W        W37799  36.565   4.511  13.891
69395W        W37800  26.203  38.085  12.981
69396W        W37801   2.075  21.667  11.682
69397W        W37802  42.304  19.002   1.778
69398W        W37803  44.559  26.885  13.483
69399W        W37804  36.303   9.183   1.665
69400W        W37805   5.435  41.614  12.015
69401W        W37806  17.524  25.671  14.367
69402W        W37807  42.756  30.521  13.651
69403W        W37808  39.563  25.340   0.908
69404W        W37809  25.611  31.500  12.507
69405W        W37810   1.183  43.771  11.953
69406W        W37811  29.676   1.041   4.488
69407W        W37812  44.827   9.373  10.548
69408W        W37813   2.698  38.589   1.373
69409W        W37814  11.611   6.101  10.806
69410W        W37815   3.283  21.058   3.520
69411W        W37816  40.322  39.969   4.131
69412W        W37817   4.981  30.511   4.274
69413W        W37818  33.895  25.333   2.610
69414W        W37819  43.770  22.779  11.120
69415W        W37820  38.263   6.438   2.313
69416W        W37821  26.024   1.444  10.239
69417W        W37822  26.049   8.406   3.294
69418W        W37823   4.598  26.055  10.473
69419W        W37824  19.972  33.590   0.298
69420W        W37825   1.292   1.426   0.770
69421W        W37826   8.626   9.035  10.339
69422W        W37827  32.452  10.307   1.771
69423W        W37828   6.638   4.945  10.604
69424W        W37829   3.983  44.366  13.773
69425W        W37830   8.507  30.668  13.448
69426W        W37831  27.665  40.337  13.201
69427W        W37832  16.694  36.852  13.064
69428W        W37833  30.136   4.701  13.980
69429W        W37834  35.017  17.954   4.280
69430W        W37835  41.076  31.421  13.857
69431W        W37836  27.036  13.799   2.447
69432W        W37837  33.674  27.863  11.081
69433W        W37838  29.998  10.900  14.774
69434W        W37839  35.110  41.058   0.925
69435W        W37840  39.159  18.709   4.307
69436W        W37841  40.688  27.483   2.192
69437W        W37842  30.141  14.581   4.552
69438W        W37843  24.252   4.482   4.754
69439W        W37844  26.474  21.130  13.213
69440W        W37845  15.415   0.365   5.135
69441W        W37846   8.689  27.039   9.950
69442W        W37847  18.344  41.862  11.027
69443W        W37848  13.690  28.987  10.712
69444W        W37849  34.794  36.442  13.960
69445W        W37850  35.910   7.613   4.151
69446W        W37851   6.957  35.099   2.476
69447W        W37852  29.754  10.618  11.177
69448W        W37853   4.798  28.078   0.846
69449W        W37854  38.872   7.919  13.341
69450W        W37855  11.800  31.126   1.971
69451W        W37856  37.013   6.470  11.647
69452W        W37857  39.416  26.822   4.577
69453W        W37858   8.760  27.539  13.589
69454W        W37859  39.735  26.115   2.573
69455W        W37860  23.682  21.426   4.692
69456W        W37861  37.469  13.839   1.757
69457W        W37862  10.308   8.935   0.306
69458W        W37863  12.754   9.286  12.477
69459W        W37864  32.305  18.766  12.878
69460W        W37865  44.798  31.209  10.735
69461W        W37866  38.101  17.788   2.455
69462W        W37867  25.815  29.834   0.858
69463W        W37868  29.409  18.072   1.948
69464W        W37869  35.133  44.934   4.176
69465W        W37870  20.986  28.093  12.571
69466W        W37871  34.507  26.152  11.945
69467W        W37872  42.354   5.643  14.901
69468W        W37873   3.404  30.680  11.961
69469W        W37874  44.382  30.676   0.016
69470W        W37875  41.986  32.951   0.290
69471W        W37876   8.663  30.105   1.892
69472W        W37877  43.851   9.261   0.747
69473W        W37878  16.616  38.600   3.061
69474W        W37879  40.930  43.939  13.892
69475W        W37880  12.493   6.813   1.493
69476W        W37881  35.343  27.983  14.031
69477W        W37882  28.105   6.547   4.174
69478W        W37883  34.648  21.171  11.295
69479W        W37884   2.279  16.014   1.468
69480W        W37885   3.800  40.291  14.022
69481W        W37886   7.804  16.129   3.324
69482W        W37887  29.960  14.350  14.778
69483W        W37888   5.265  33.255   4.126
69484W        W37889  24.864  22.980   0.433
69485W        W37890  16.839   3.838   1.752
69486W        W37891  33.334  38.334   4.234
69487W        W37892  35.977   3.740   4.343
69488W        W37893   9.763  18.284   1.766
69489W        W37894  21.498   7.811   3.207
69490W        W37895  24.576  44.270  12.456
69491W        W37896  38.323   8.702   0.428
69492W        W37897  25.473  32.827   1.835
69493W        W37898  36.975   1.952   5.060
69494W        W37899  26.493  34.097   3.271
69495W        W37900  21.471  41.759  11.602
69496W        W37901  18.003  25.019  11.175
69497W        W37902   7.311  13.365   0.337
69498W        W37903  36.731  30.022  12.713
69499W        W37904  23.133  38.982  11.981
69500W        W37905   1.228  11.136   3.162
69501W        W37906  28.613  21.053  13.583
69502W        W37907  11.852  30.569  12.375
69503W        W37908   9.281  42.431   2.827
69504W        W37909  11.181  17.969   5.143
69505W        W37910  21.277  22.490  14.367
69506W        W37911  37.342   9.120  14.424
69507W        W37912  36.457  22.474  10.761
69508W        W37913  23.036  15.579   0.779
69509W        W37914  32.695  12.951   2.263
69510W        W37915  18.319  38.467  12.439
69511W        W37916   3.263   8.164   4.599
69512W        W37917  30.061  10.150  13.455
69513W        W37918  12.727  21.301   1.898
69514W        W37919  15.803  32.776  10.748
69515W        W37920  40.359  11.492  13.580
69516W        W37921  37.857  40.394   3.240
69517W        W37922   8.167  18.071  14.181
69518W        W37923  25.753  13.928  14.351
69519W        W37924  18.858  43.723   4.178
69520W        W37925  39.342  41.502   4.255
69521W        W37926  22.057  14.279   4.837
69522W        W37927  19.099  20.063   2.547
69523W        W37928  11.408  14.666  10.471
69524W        W37929  35.157  30.728  14.867
69525W        W37930  16.203  22.737   3.342
69526W        W37931  26.022  34.568  13.503
69527W        W37932   7.108   6.878   2.662
69528W        W37933  38.557  31.072  14.983
69529W        W37934  25.168  13.087  10.744
69530W        W37935  13.761  32.918  12.436
69531W        W37936  38.840  25.464   3.231
69532W        W37937   4.555  41.352  12.040
69533W        W37938  39.654  15.717  11.066
69534W        W37939  25.480  13.369  13.495
69535W        W37940  30.599  42.066  14.045
69536W        W37941  39.889  21.067  11.966
69537W        W37942  44.575  18.295  13.836
69538W        W37943  28.955  14.731   2.377
69539W        W37944  32.816  10.853   1.899
69540W        W37945  42.220  41.090   1.471
69541W        W37946  25.381  44.801   0.775
69542W        W37947  36.630   5.153  10.988
69543W        W37948  22.781  19.556  14.928
69544W        W37949   3.457  24.776  11.705
69545W        W37950  11.573   1.463   1.810
69546W        W37951  23.229  12.196  11.624
69547W        W37952  17.895  17.763   2.344
69548W        W37953  13.231  40.543  14.306
69549W        W37954  17.247  26.659  12.513
69550W        W37955   2.269  26.034   0.388
69551W        W37956   4.292   8.352   1.448
69552W        W37957   0.787  18.823   5.004
69553W        W37958  32.133  21.125   4.766
69554W        W37959  10.312  22.980   0.291
69555W        W37960  25.457   1.833  14.448
69556W        W37961   3.899   3.117  13.807
69557W        W37962  35.303  36.037   3.398
69558W        W37963   7.275  21.117  10.675
69559W        W37964   6.229  39.655  14.929
69560W        W37965  41.674  12.807  13.476
69561W        W37966  28.553  22.918  10.743
69562W        W37967  18.257   0.961   0.965
69563W        W37968  40.453  23.271   0.880
69564W        W37969  29.029  26.216  11.646
69565W        W37970  24.148   5.946   9.757
69566W        W37971  31.028  25.523   3.529
69567W        W37972  13.730   5.000   1.850
69568W        W37973  16.265   3.413   1.938
69569W        W37974   7.350  33.528   3.372
69570W        W37975   5.453  34.891   2.565
69571W        W37976  23.092  13.629  14.052
69572W        W37977  38.995  24.040  14.503
69573W        W37978  29.930  14.256  12.786
69574W        W37979  10.135  23.266   3.355
69575W        W37980  41.439   4.770   0.844
69576W        W37981  14.758  40.868   3.262
69577W        W37982  15.867  31.007  12.046
69578W        W37983  10.387  40.319  14.911
69579W        W37984  15.604  17.976   2.345
69580W        W37985   5.481  41.106  13.083
69581W        W37986  19.310  43.228   2.369
69582W        W37987   2.739  30.941   4.652
69583W        W37988  18.493  12.764  11.715
69584W        W37989  33.903  20.563   2.203
69585W        W37990   5.878  17.688  11.622
69586W        W37991  23.136  31.929  11.606
69587W        W37992   4.978  29.131   0.820
69588W        W37993   6.330  39.461  13.012
69589W        W37994  36.466  19.875  11.652
69590W        W37995  26.723  42.085   2.285
69591W        W37996  36.906  16.067   2.949
69592W        W37997  42.805  18.636   4.972
69593W        W37998  35.586  27.905   4.390
69594W        W37999  42.705  38.947  10.771
69595W        W38000  37.382   3.007  12.838
69596W        W38001  17.633  11.214   0.933
69597W        W38002  13.874  33.765  14.959
69598W        W38003  21.114   1.872  14.132
69599W        W38004   7.393  15.570   1.495
69600W        W38005  19.271   1.467   2.990
69601W        W38006  11.180  28.299  12.125
69602W        W38007   7.769  31.936  11.371
69603W        W38008  19.984  21.561  10.123
69604W        W38009  29.739  11.071   4.323
69605W        W38010   8.174  25.080   0.236
69606W        W38011  17.051  23.007  11.147
69607W        W38012   4.868   3.413   5.001
69608W        W38013  21.715  37.104   1.350
69609W        W38014  39.505  36.432  10.818
69610W        W38015   4.013  38.828  11.743
69611W        W38016  34.756  32.950  14.961
69612W        W38017  43.566  30.494   4.567
69613W        W38018   9.977   9.148   4.580
69614W        W38019  31.451   2.110  10.989
69615W        W38020  32.777  13.494   1.916
69616W        W38021  41.954  16.144   2.495
69617W        W38022  41.998  32.862   2.370
69618W        W38023   8.653  12.465   2.459
69619W        W38024   7.740   6.235   2.761
69620W        W38025  39.767  16.340   0.323
69621W        W38026  33.066  35.624  13.064
69622W        W38027  19.196  25.246  10.744
69623W        W38028  18.526  36.906   3.934
69624W        W38029  41.992   1.611  11.498
69625W        W38030  25.038  16.581   0.916
69626W        W38031  27.453  23.223  11.622
69627W        W38032  40.799  28.693  13.032
69628W        W38033   6.185  40.905  14.352
69629W        W38034  35.603  37.563   1.433
69630W        W38035  23.214  37.565   3.121
69631W        W38036   1.338  13.401   2.818
69632W        W38037  43.473   1.324   1.162
69633W        W38038  26.515  11.827  12.890
69634W        W38039  21.039  24.424  11.515
69635W        W38040  11.385  20.287   2.278
69636W        W38041  26.572  35.839   9.902
69637W        W38042  22.758  43.832  11.640
69638W        W38043   0.757   9.924   2.673
69639W        W38044  24.489  39.928   1.775
69640W        W38045   7.649  22.056  11.207
69641W        W38046  25.971   4.575  13.011
69642W        W38047  36.488  24.964  10.652
69643W        W38048  10.880   7.834  12.528
69644W        W38049   4.559  26.522   1.752
69645W        W38050  17.920  35.446  14.535
69646W        W38051  10.250  42.168   2.964
69647W        W38052   2.846  12.019   3.361
69648W        W38053  29.576  40.848  14.252
69649W        W38054  39.377  13.441  12.978
69650W        W38055   7.848  43.890   2.887
69651W        W38056  38.395   9.934  11.038
69652W        W38057  41.489  23.387   1.469
69653W        W38058   4.633  20.611  10.950
69654W        W38059  31.355  39.559   4.768
69655W        W38060   3.127  28.952  11.187
69656W        W38061   9.732  43.325   0.057
69657W        W38062  18.657  40.475   4.924
69658W        W38063  42.804  10.365   1.780
69659W        W38064  21.196  18.318  10.529
69660W        W38065  39.122  44.847   4.572
69661W        W38066   0.370  27.307  13.967
69662W        W38067   2.766   0.152   3.811
69663W        W38068  18.525  34.571  11.340
69664W        W38069  32.212  22.497  12.068
69665W        W38070  37.009  31.221   2.416
69666W        W38071  32.936   2.476   0.986
69667W        W38072  10.560  43.044  11.155
69668W        W38073  10.855  31.100   0.426
69669W        W38074   5.275   2.007  12.088
69670W        W38075   4.147  25.878  13.017
69671W        W38076   1.141  38.873   0.050
69672W        W38077   3.681  20.611  10.645
69673W        W38078   8.093  26.553  11.133
69674W        W38079  20.073   7.823  12.740
69675W        W38080  27.042  42.870   1.662
69676W        W38081  21.191  41.943   0.691
69677W        W38082  33.618  30.006   2.298
69678W        W38083  16.578  39.742   1.930
69679W        W38084  31.478  42.565   0.871
69680W        W38085  27.770  42.762   0.259
69681W        W38086  24.613  24.660  13.754
69682W        W38087  41.709  22.659   4.132
69683W        W38088  34.484  30.549  14.491
69684W        W38089  17.770  16.021  14.177
69685W        W38090  35.813  25.216   2.216
69686W        W38091  30.872  32.452   1.701
69687W        W38092  43.001  35.831   3.998
69688W        W38093  20.071  40.890   2.194
69689W        W38094  30.624  20.861   2.608
69690W        W38095  25.527  22.897   3.314
69691W        W38096  15.838   5.191   2.264
69692W        W38097  12.324  20.622   3.472
69693W        W38098  20.186  29.436   1.189
69694W        W38099   7.896   8.322   3.746
69695W        W38100  26.016  35.485   2.418
69696W        W38101  22.628  11.802   3.525
69697W        W38102   4.270  38.828  12.628
69698W        W38103  24.994  10.221   3.869
69699W        W38104  24.819  29.080   4.552
69700W        W38105  31.055   1.516  13.412
69701W        W38106  22.650  18.618   2.630
69702W        W38107  43.610  24.122  13.398
69703W        W38108  39.111  39.933  14.710
69704W        W38109  22.949  39.414   0.757
69705W        W38110  25.308  22.449  12.972
69706W        W38111  35.891  24.476   3.930
69707W        W38112  37.757  40.463  14.887
69708W        W38113  10.081  18.483  12.629
69709W        W38114   6.801   2.937  13.282
69710W        W38115  39.651   9.920  11.395
69711W        W38116  31.870   4.192  14.993
69712W        W38117  27.772  38.936  11.006
69713W        W38118  27.384   6.111   1.812
69714W        W38119  28.831   5.863   2.220
69715W        W38120  33.751  11.672  11.600
69716W        W38121  38.957  30.819  13.407
69717W        W38122   8.094  22.568  13.541
69718W        W38123  31.885   6.009   2.823
69719W        W38124  29.612  41.524  14.077
69720W        W38125  19.814  13.793   0.346
69721W        W38126  43.673  28.024  12.049
69722W        W38127  16.870  29.100   3.222
69723W        W38128  26.690  15.069  11.152
69724W        W38129  21.561  15.703  14.890
69725W        W38130  21.051  16.853   3.835
69726W        W38131  29.908   4.902  11.163
69727W        W38132  11.647   5.730  13.035
69728W        W38133  25.453  18.966  11.692
69729W        W38134  26.916  22.170   2.820
69730W        W38135  43.228   4.381   0.809
69731W        W38136   1.408  34.426  11.112
69732W        W38137  34.408  12.011  14.779
69733W        W38138  10.083  26.638  14.914
69734W        W38139  26.114  36.118  14.589
69735W        W38140  18.293  23.843   1.317
69736W        W38141  18.013   6.285  11.881
69737W        W38142  21.480  24.635   0.414
69738W        W38143  24.985  44.383   2.004
69739W        W38144  40.925  32.325   1.580
69740W        W38145  22.854  24.000   0.915
69741W        W38146  20.610  11.129  14.268
69742W        W38147  26.111   8.086  13.540
69743W        W38148   3.732  36.657   3.643
69744W        W38149  12.439  25.115   1.694
69745W        W38150  26.748  39.844  11.885
69746W        W38151  24.624  37.113   1.344
69747W        W38152   1.118  27.256  13.563
69748W        W38153  42.443  24.256   1.075
69749W        W38154  26.614   1.513   0.395
69750W        W38155  39.459  39.111   3.630
69751W        W38156  18.329  13.140  10.730
69752W        W38157  22.093   8.222   1.055
69753W        W38158  21.985  32.682  12.068
69754W        W38159  42.870  44.950  12.630
69755W        W38160   1.183  25.571   1.358
69756W        W38161  18.199  38.609  13.694
69757W        W38162  16.980  41.994   1.910
69758W        W38163  39.312   6.028   0.423
69759W        W38164  27.099  31.979   3.700
69760W        W38165  24.561  15.654  12.045
69761W        W38166  44.388  43.861  13.171
69762W        W38167  20.545  21.123  13.061
69763W        W38168  11.703  36.152  14.914
69764W        W38169  17.803  17.439   1.415
69765W        W38170  39.267  35.172  14.288
69766W        W38171  31.887  18.872  13.156
69767W        W38172  31.819  41.817  11.011
69768W        W38173   6.476  20.060  12.008
69769W        W38174  12.198  41.659  10.487
69770W        W38175  42.873  41.285  11.585
69771W        W38176  34.575  13.763   1.035
69772W        W38177   6.425   1.422  14.416
69773W        W38178  41.832  10.422   1.909
69774W        W38179  27.410  12.774   4.835
69775W        W38180  30.790  30.518   9.881
69776W        W38181  19.401  41.298   1.235
69777W        W38182  28.940  30.168  14.734
69778W        W38183  36.031  43.992  10.731
69779W        W38184  14.621   8.862  12.642
69780W        W38185  15.167  40.339  14.993
69781W        W38186   7.764   0.809  13.319
69782W        W38187  21.482  26.422  11.187
69783W        W38188   3.045  26.126  11.436
69784W        W38189  40.528  42.235  11.985
69785W        W38190  19.496  19.050   3.687
69786W        W38191   2.432  26.985  11.132
69787W        W38192   7.206  30.175  10.090
69788W        W38193  20.402   8.695   1.132
69789W        W38194  38.487  14.563   0.277
69790W        W38195   6.087  39.958   4.832
69791W        W38196  16.391  31.822   4.583
69792W        W38197  34.460  29.532  10.705
69793W        W38198  10.611   3.174  11.881
69794W        W38199  39.368  12.129  13.505
69795W        W38200  20.786   0.969   3.354
69796W        W38201  32.876  10.784  11.177
69797W        W38202   9.642  17.983  12.081
69798W        W38203  34.814  28.954   1.278
69799W        W38204  11.676  43.780   0.383
69800W        W38205  14.055   7.276  14.716
69801W        W38206  26.425   8.803  14.919
69802W        W38207  25.693  35.479   4.076
69803W        W38208   8.339   3.259  14.288
69804W        W38209  10.530  33.411  13.932
69805W        W38210  20.636  16.599   3.605
69806W        W38211  34.694  13.682   2.486
69807W        W38212   5.199   9.377   0.414
69808W        W38213  41.911  22.764   3.674
69809W        W38214  43.320   2.641   2.699
69810W        W38215   7.075  22.160  14.752
69811W        W38216  31.811  33.898  14.811
69812W        W38217  42.936  28.615  10.701
69813W        W38218  44.939  13.624  10.403
69814W        W38219  24.132   6.697   4.668
69815W        W38220   7.113  24.441   4.209
69816W        W38221   1.888  30.926   4.132
69817W        W38222   9.252  26.425  11.074
69818W        W38223  32.963  16.622  13.106
69819W        W38224  31.004  44.785  14.325
69820W        W38225  26.569  18.801   2.428
69821W        W38226  15.062  36.105   1.701
69822W        W38227  27.928  21.282   4.154
69823W        W38228   0.340   4.943  11.569
69824W        W38229  20.769  29.092  11.543
69825W        W38230   4.485  41.543  10.242
69826W        W38231  19.570   7.799   2.428
69827W        W38232  15.144  16.589  14.745
69828W        W38233  28.524   9.235   3.777
69829W        W38234   2.354  42.251   4.996
69830W        W38235  43.452  11.712   0.742
69831W        W38236   5.889  40.384   2.853
69832W        W38237  20.298   6.346   0.219
69833W        W38238  23.069   1.607   2.159
69834W        W38239  19.147  10.993   9.832
69835W        W38240  19.765  18.748   0.832
69836W        W38241  33.079  36.808   1.674
69837W        W38242  34.914  15.665   1.676
69838W        W38243  21.177  33.075  13.920
69839W        W38244  19.546  16.569   3.754
69840W        W38245  28.987  23.211  10.882
69841W        W38246  11.612  11.595   0.952
69842W        W38247  41.807   4.187   2.729
69843W        W38248  40.265  42.951  14.388
69844W        W38249  29.714  28.146  12.044
69845W        W38250  11.153   3.258   3.161
69846W        W38251   7.308   0.976  14.719
69847W        W38252  23.657  29.442  11.151
69848W        W38253  28.448  35.293   1.427
69849W        W38254  33.950  16.348   2.323
69850W        W38255  20.063  40.809   1.663
69851W        W38256  23.322  32.571  12.083
69852W        W38257  42.752  35.549  13.759
69853W        W38258  11.184  36.583   3.730
69854W        W38259  39.582  13.319  14.323
69855W        W38260   2.669  14.370  11.916
69856W        W38261  25.398  38.982  11.552
69857W        W38262  31.481  22.194   3.800
69858W        W38263  38.086  28.563  11.399
69859W        W38264  27.092  15.668  13.004
69860W        W38265   2.967  30.599   0.531
69861W        W38266   5.922  15.813  14.750
69862W        W38267  14.997  31.641  10.943
69863W        W38268  40.007  23.919   3.631
69864W        W38269  19.718  26.842   5.040
69865W        W38270  28.070  19.740   2.741
69866W        W38271   6.211  21.723   2.811
69867W        W38272  11.056  27.773   2.576
69868W        W38273  36.305  21.672   0.006
69869W        W38274  34.846  25.456   0.669
69870W        W38275  25.673  31.960   1.564
69871W        W38276  36.639  29.010  11.651
69872W        W38277  19.784  26.723   0.805
69873W        W38278   4.716   4.701   2.411
69874W        W38279   5.260  19.756  10.928
69875W        W38280  15.797   3.843  13.533
69876W        W38281  28.344  27.059  12.348
69877W        W38282  34.286  44.984  11.089
69878W        W38283  26.690   4.097  12.135
69879W        W38284  14.477   5.945  14.068
69880W        W38285  29.838  14.636  14.024
69881W        W38286  35.578  42.518   4.309
69882W        W38287  34.675  36.732   2.733
69883W        W38288  24.107  36.776  13.750
69884W        W38289  41.233   6.861  10.626
69885W        W38290  19.271   5.874   1.880
69886W        W38291   7.780  12.797  12.447
69887W        W38292  30.012   5.351  11.466
69888W        W38293  42.796   0.431   0.959
69889W        W38294  18.761  16.104   3.274
69890W        W38295  18.213  27.844  12.036
69891W        W38296  21.587  13.672   1.474
69892W        W38297  29.929  29.730  11.495
69893W        W38298   6.903  22.233   2.579
69894W        W38299  19.084  22.508  11.534
69895W        W38300  14.696  42.887   4.961
69896W        W38301  40.554  26.437   3.894
69897W        W38302  31.851   7.316   4.837
69898W        W38303  15.160  43.232   1.913
69899W        W38304  13.122   7.724   1.225
69900W        W38305  37.317  40.539  14.656
69901W        W38306  17.099   3.664   4.152
69902W        W38307  20.526  15.321   4.565
69903W        W38308   3.904  32.357   0.739
69904W        W38309  42.260  21.115   2.395
69905W        W38310  22.698  21.642   1.616
69906W        W38311  38.322  41.935  12.551
69907W        W38312   4.361  24.540  13.490
69908W        W38313   5.305   9.153  11.593
69909W        W38314   5.246  32.434   0.471
69910W        W38315  14.894   9.336   9.884
69911W        W38316  42.496  34.277  12.862
69912W        W38317  36.047   0.541  14.966
69913W        W38318   6.904  23.553   0.836
69914W        W38319  31.468  43.519   1.838
69915W        W38320  40.322  32.954  14.060
69916W        W38321  21.123  35.045  10.543
69917W        W38322  16.756  44.711  11.093
69918W        W38323  16.811  26.417  14.900
69919W        W38324  15.803  38.608  10.215
69920W        W38325  29.392   5.171   3.735
69921W        W38326  27.982  24.247  12.185
69922W        W38327  28.996  32.418  10.631
69923W        W38328  32.405  35.047  10.734
69924W        W38329  14.821  42.232   1.288
69925W        W38330  39.550  22.224   3.299
69926W        W38331   7.352  44.497  11.478
69927W        W38332   3.688  26.173  10.826
69928W        W38333   3.414  25.120   4.584
69929W        W38334  17.747  44.926   0.764
69930W        W38335  31.610  40.104  10.735
69931W        W38336  42.101   7.300  13.663
69932W        W38337  35.866  19.527   4.594
69933W        W38338  37.775  14.551  14.861
69934W        W38339  43.784  32.955  11.575
69935W        W38340  29.048  22.074   2.646
69936W        W38341  28.922  25.637   2.279
69937W        W38342  22.611  33.457   2.695
69938W        W38343   4.624   6.200  11.963
69939W        W38344   8.818  38.309  10.710
69940W        W38345  17.652  26.757  14.486
69941W        W38346   5.142   8.238   4.594
69942W        W38347   8.294   4.343   3.568
69943W        W38348  42.143  40.372  14.770
69944W        W38349   6.886  25.926   4.098
69945W        W38350  31.131  31.751  14.069
69946W        W38351  33.891  32.781  11.765
69947W        W38352  24.953   0.388  13.001
69948W        W38353  39.788  34.364   1.879
69949W        W38354   6.124  33.640   4.958
69950W        W38355  40.878  33.595  14.532
69951W        W38356  16.328  31.375  11.163
69952W        W38357  13.496  26.491  13.431
69953W        W38358  18.007  19.981   0.871
69954W        W38359  32.055  15.268  11.211
69955W        W38360  13.862  26.567  10.713
69956W        W38361  38.113  21.659  13.817
69957W        W38362  17.524  37.359  12.100
69958W        W38363  33.677  21.174  14.373
69959W        W38364   0.584   6.917   2.916
69960W        W38365   6.769  14.863   1.500
69961W        W38366  11.649  29.164  13.045
69962W        W38367  27.876  38.758   1.699
69963W        W38368  36.859  18.530  11.557
69964W        W38369  40.014   1.972  11.564
69965W        W38370  12.970  21.707   4.037
69966W        W38371  41.953  10.842  11.211
69967W        W38372  35.163  38.405   1.957
69968W        W38373  37.436  29.092   2.639
69969W        W38374  25.659  16.070   0.278
69970W        W38375  16.148   9.220   0.699
69971W        W38376  38.545   7.387   2.359
69972W        W38377  27.631  40.334  14.432
69973W        W38378  40.763  39.027   2.613
69974W        W38379  43.318  31.574   0.427
69975W        W38380  12.327  35.552  14.407
69976W        W38381  32.113  21.465  12.032
69977W        W38382  31.902   2.302   2.871
69978W        W38383   0.965  13.979  12.593
69979W        W38384  41.315   1.780  12.020
69980W        W38385   2.500  37.437   1.988
69981W        W38386  23.205  10.630  14.300
69982W        W38387  21.142   3.652   4.102
69983W        W38388   3.433  12.096   0.388
69984W        W38389  18.197  32.894   3.113
69985W        W38390  34.006  16.062   0.866
69986W        W38391   1.641  11.438  11.562
69987W        W38392  22.224  27.139  11.914
69988W        W38393  25.523  19.274   1.005
69989W        W38394  17.984  32.908  10.603
69990W        W38395  15.697  13.782   4.204
69991W        W38396  41.243  32.989   4.821
69992W        W38397  43.017  12.268   0.342
69993W        W38398  10.828  13.859  10.495
69994W        W38399   0.019  31.995   1.795
69995W        W38400  26.186  15.314  14.080
69996W        W38401   5.823  21.799  11.174
69997W        W38402  35.099  15.875   5.321
69998W        W38403   2.967  29.101   0.218
69999W        W38404  21.359  28.185   0.720
70000W        W38405  24.896  34.101  12.920
70001W        W38406  20.555  17.294  13.593
70002W        W38407  27.290  31.931  14.994
70003W        W38408  19.805  43.380   4.647
70004W        W38409  14.921  23.877   2.338
70005W        W38410  37.109  34.567  14.783
70006W        W38411   8.115  31.179  12.723
70007W        W38412  21.777  20.218   0.258
70008W        W38413  17.774  31.711   4.075
70009W        W38414  44.658  19.221   1.386
70010W        W38415   5.335  14.612  13.584
70011W        W38416  16.503  25.146   2.624
70012W        W38417   5.728   1.757  13.418
70013W        W38418  23.657   5.232   3.664
70014W        W38419  42.988  17.301   4.568
70015W        W38420  27.569  14.759   4.906
70016W        W38421  32.121  12.160  14.333
70017W        W38422  15.297   2.186  10.712
70018W        W38423   0.494  16.345   4.529
70019W        W38424  35.422  42.327   3.385
70020W        W38425   6.107  36.485  10.684
70021W        W38426  39.274  34.582  12.309
70022W        W38427   5.932  26.766  14.062
70023W        W38428  35.504  32.172  10.846
70024W        W38429  41.956  32.671   3.724
70025W        W38430   2.395  14.528  12.868
70026W        W38431  22.445  15.261  10.634
70027W        W38432   9.183  19.332  13.886
70028W        W38433   8.892  29.785  13.913
70029W        W38434  27.856  14.440   5.182
70030W        W38435   0.224   4.399   1.771
70031W        W38436  28.533  44.399   0.751
70032W        W38437  26.679   3.810  14.988
70033W        W38438  16.069  25.389  10.809
70034W        W38439   6.615  28.322  12.464
70035W        W38440   3.276   4.688   1.364
70036W        W38441  39.629  12.262   4.229
70037W        W38442  17.088  23.768   3.220
70038W        W38443  21.121   7.476   2.324
70039W        W38444  28.649   2.202  14.515
70040W        W38445  27.987   9.873   1.923
70041W        W38446  37.018   6.396   1.859
70042W        W38447  10.132  11.202  14.923
70043W        W38448  24.201  21.510  14.930
70044W        W38449  23.583  42.942   4.550
70045W        W38450  27.187  29.180  14.362
70046W        W38451  36.532   0.023  14.481
70047W        W38452  19.783   4.335  14.448
70048W        W38453   6.957  27.977  12.686
70049W        W38454  44.244  33.897   2.842
70050W        W38455  17.981  33.962   4.531
70051W        W38456   7.174  37.892  11.500
70052W        W38457  34.534  17.638   1.961
70053W        W38458   5.232  27.267  13.662
70054W        W38459  33.559   5.654  14.861
70055W        W38460  37.491  13.593  14.076
70056W        W38461  11.735  40.285  10.460
70057W        W38462  17.795   5.490   3.402
70058W        W38463  10.311  41.817   0.726
70059W        W38464   6.213  32.487   3.905
70060W        W38465   0.722  40.383   3.728
70061W        W38466  31.752  43.083   1.718
70062W        W38467  44.392  44.087  11.938
70063W        W38468  27.145  25.095   0.888
70064W        W38469  18.573  35.176  13.804
70065W        W38470  37.709  33.813   0.543
70066W        W38471  33.320  10.166  11.582
70067W        W38472   3.705  43.070  14.180
70068W        W38473  15.469  40.412  13.981
70069W        W38474  19.093  26.751   1.233
70070W        W38475  25.380  24.255  11.160
70071W        W38476   2.710   9.783   2.152
70072W        W38477   5.231  38.946   1.796
70073W        W38478   9.448  30.290  13.238
70074W        W38479  36.209  12.578   1.634
70075W        W38480  20.973  42.012  12.436
70076W        W38481  40.785   7.427   1.894
70077W        W38482   2.965  40.990   4.719
70078W        W38483   9.371  24.653  14.466
70079W        W38484  21.082  39.931  10.796
70080W        W38485  15.668  14.824  14.397
70081W        W38486   6.144  10.687   0.273
70082W        W38487   0.068  18.990  14.955
70083W        W38488   1.892   6.024  11.642
70084W        W38489   4.276  15.050   3.775
70085W        W38490  39.814  10.942   3.982
70086W        W38491  22.148  39.937   4.054
70087W        W38492  26.640  17.636  14.888
70088W        W38493  30.696  18.128   4.152
70089W        W38494  20.488  21.187  12.521
70090W        W38495  30.690  43.810   0.725
70091W        W38496  36.096  30.246   1.806
70092W        W38497   3.173  37.960   2.835
70093W        W38498   5.067   6.507  10.255
70094W        W38499  37.153   0.798   2.325
70095W        W38500  41.733  20.118   2.741
70096W        W38501  25.677   0.888   1.630
70097W        W38502  18.646  29.726   2.845
70098W        W38503   8.810  14.257  11.453
70099W        W38504  16.444  17.752  13.369
70100W        W38505   1.451  22.905  11.108
70101W        W38506  15.737  33.614  14.054
70102W        W38507  13.833  20.297  14.503
70103W        W38508  13.243  25.556  11.370
70104W        W38509  25.250  16.828  11.440
70105W        W38510  31.915  17.113   4.549
70106W        W38511  40.983   2.379  12.345
70107W        W38512   1.962  41.860  11.918
70108W        W38513  32.168  15.749   2.118
70109W        W38514   3.833  18.130  14.404
70110W        W38515  10.729  29.503  14.588
70111W        W38516  23.186   2.942   1.928
70112W        W38517  15.744  23.565  10.163
70113W        W38518   2.808   6.845   0.214
70114W        W38519  18.977  15.778   1.889
70115W        W38520  44.394  13.729  14.271
70116W        W38521  40.800   4.503  11.779
70117W        W38522  12.775   2.831   3.578
70118W        W38523  23.757  23.564  14.480
70119W        W38524  41.767  40.546   0.332
70120W        W38525  23.843  15.171  11.463
70121W        W38526   8.625  32.138   3.553
70122W        W38527  16.278  29.416  11.604
70123W        W38528   1.982  27.092   1.439
70124W        W38529  16.482  39.540  10.892
70125W        W38530  17.967  17.320  12.954
70126W        W38531  16.438   5.836   1.772
70127W        W38532   0.771  31.162  12.062
70128W        W38533  10.220  30.585  13.464
70129W        W38534  22.521  15.788  10.589
70130W        W38535  15.105  28.179  13.299
70131W        W38536  14.532  37.062   3.662
70132W        W38537  17.401  32.038  11.488
70133W        W38538  43.860  41.446   2.350
70134W        W38539  12.889   2.357  13.159
70135W        W38540  24.585   4.447  14.020
70136W        W38541   5.990   7.236   0.367
70137W        W38542  35.978  42.050  10.635
70138W        W38543  25.684   1.327   1.913
70139W        W38544  14.302  10.369  13.899
70140W        W38545   3.461  10.259  12.144
70141W        W38546  33.463  39.964  14.978
70142W        W38547  42.060  43.430  12.553
70143W        W38548  30.135  18.302  11.376
70144W        W38549  36.075  19.187   4.050
70145W        W38550  13.204  38.705  10.540
70146W        W38551  32.651  22.696   4.161
70147W        W38552  39.688  42.266   4.356
70148W        W38553  23.006  25.215   1.308
70149W        W38554  38.780  14.746  14.818
70150W        W38555  32.444   1.695  11.988
70151W        W38556  29.182  35.901   3.312
70152W        W38557  34.551  19.450   4.335
70153W        W38558   4.201  37.380   0.354
70154W        W38559   8.215  41.480   0.005
70155W        W38560  22.234  12.336  11.452
70156W        W38561  22.416  14.784   0.988
70157W        W38562   6.668  14.069   4.719
70158W        W38563  17.113  13.248  12.878
70159W        W38564  16.765  28.443   1.344
70160W        W38565  24.694  42.688  14.445
70161W        W38566   3.056   0.737  14.501
70162W        W38567  30.901  31.184   4.247
70163W        W38568  43.846  30.557   0.748
70164W        W38569  32.927  38.868   4.861
70165W        W38570  27.269   0.350   2.884
70166W        W38571  42.235  39.793   0.426
70167W        W38572  19.597  26.577   1.338
70168W        W38573  17.714   3.237  13.966
70169W        W38574  33.532  24.411  13.832
70170W        W38575   7.650  27.977  10.279
70171W        W38576   1.860  14.032   1.692
70172W        W38577  11.591  17.235   0.113
70173W        W38578  42.003  26.644   3.019
70174W        W38579   2.951  38.183   3.244
70175W        W38580  31.415   7.246   0.673
70176W        W38581   5.318  12.763  12.353
70177W        W38582   9.959  19.296   3.702
70178W        W38583  13.868   6.751  13.473
70179W        W38584  22.734   7.876   0.988
70180W        W38585   9.992  11.905  10.446
70181W        W38586  26.955  27.870  13.959
70182W        W38587  15.586   1.428   0.302
70183W        W38588  21.222  38.411   1.941
70184W        W38589   2.407   1.307  13.502
70185W        W38590   7.666  13.337  12.520
70186W        W38591  16.816  28.024   1.787
70187W        W38592  16.101  39.022   0.206
70188W        W38593  37.162   6.800   5.432
70189W        W38594  17.039   1.970   0.309
70190W        W38595  27.129  30.871  11.593
70191W        W38596   7.210  22.262  13.844
70192W        W38597   0.505  20.571   3.222
70193W        W38598  12.174  34.417   0.964
70194W        W38599  22.111  20.241  13.027
70195W        W38600   9.651   4.958   0.711
70196W        W38601  29.993  24.587   3.802
70197W        W38602  44.778  19.619  10.985
70198W        W38603  29.601  31.696   1.395
70199W        W38604  20.507  13.626  14.931
70200W        W38605  18.671  40.192  13.488
70201W        W38606  40.747   4.465   0.118
70202W        W38607  28.659  29.397   2.030
70203W        W38608  27.667  12.310  14.117
70204W        W38609   3.525  31.436   1.265
70205W        W38610  41.021  26.313  11.169
70206W        W38611   6.660  10.750  11.871
70207W        W38612  27.251  22.317   3.206
70208W        W38613  19.745  37.672   0.315
70209W        W38614   1.336   4.272   3.765
70210W        W38615   2.461  44.710   1.563
70211W        W38616  37.555  24.608  12.505
70212W        W38617  34.434   9.231  12.089
70213W        W38618  39.029  23.241   3.715
70214W        W38619  39.476  23.209  13.585
70215W        W38620   0.331  32.155  13.595
70216W        W38621   1.458   5.800  11.401
70217W        W38622   0.247  29.679   4.656
70218W        W38623  17.036  10.276   1.899
70219W        W38624   6.452  39.920   3.182
70220W        W38625  17.293  29.169  12.290
70221W        W38626  14.360  31.412   4.164
70222W        W38627   1.680  25.233  14.368
70223W        W38628  44.164  44.585  11.952
70224W        W38629  16.549  13.800   0.448
70225W        W38630  40.569   9.076  13.101
70226W        W38631   2.614  44.289   1.264
70227W        W38632  39.054  14.778  14.368
70228W        W38633  18.255   0.910  11.942
70229W        W38634  24.696  25.469   0.836
70230W        W38635  26.607  32.017   2.090
70231W        W38636  15.331  15.102  13.547
70232W        W38637  13.654  43.025  14.026
70233W        W38638  33.511  16.474   3.243
70234W        W38639  20.279  15.598   4.225
70235W        W38640   3.341  23.475  13.357
70236W        W38641  25.173  24.525  12.973
70237W        W38642  42.517  13.658   1.653
70238W        W38643  15.233  38.570   4.599
70239W        W38644  13.796  16.363  14.929
70240W        W38645  30.481   7.930  11.150
70241W        W38646  26.668   0.234  10.848
70242W        W38647  33.192  13.187   3.730
70243W        W38648  39.047   3.752  13.927
70244W        W38649   6.855  44.364   4.176
70245W        W38650  27.180   8.849  10.696
70246W        W38651  33.116  10.205  13.990
70247W        W38652  33.691  20.600  10.769
70248W        W38653  44.533  38.543   0.920
70249W        W38654  41.417  24.488   4.329
70250W        W38655  35.417  43.401  13.061
70251W        W38656  25.460  10.588   2.829
70252W        W38657  43.825  23.077   2.670
70253W        W38658  37.405  26.276  14.104
70254W        W38659  40.324  35.869   2.260
70255W        W38660  19.465  38.598   0.322
70256W        W38661  43.642  27.083   3.850
70257W        W38662   4.717  29.619   2.862
70258W        W38663  11.712   8.197  13.293
70259W        W38664  19.062   8.784   2.236
70260W        W38665  18.270  25.687   3.117
70261W        W38666  30.757  38.665   1.851
70262W        W38667  20.120  11.280  14.451
70263W        W38668  11.077  13.233  11.470
70264W        W38669   7.558  12.847  10.742
70265W        W38670  14.394   9.904   1.195
70266W        W38671   1.757  16.636  14.092
70267W        W38672   9.575  39.048  11.710
70268W        W38673  16.540  16.161   0.622
70269W        W38674   5.802   6.801   3.179
70270W        W38675   1.423  34.544   1.818
70271W        W38676  27.959  21.551  12.802
70272W        W38677  24.063   4.923   2.185
70273W        W38678  20.743  40.840  13.866
70274W        W38679  33.031  29.274   2.321
70275W        W38680  44.890  26.313   1.075
70276W        W38681   0.902  38.941   1.292
70277W        W38682  11.194  24.506  14.728
70278W        W38683  15.388  20.247  14.763
70279W        W38684   3.268  21.214   2.154
70280W        W38685   5.533  25.090  10.635
70281W        W38686  14.724  37.510   1.846
70282W        W38687  16.135  25.622   3.765
70283W        W38688  23.605  11.601   3.120
70284W        W38689  36.160   3.517  11.559
70285W        W38690  41.575  17.873  14.798
70286W        W38691  30.512  28.522   4.872
70287W        W38692   5.155  15.086  13.665
70288W        W38693  37.514  44.842   0.838
70289W        W38694  44.816  20.232  11.536
70290W        W38695   6.308  10.595   4.257
70291W        W38696  42.142  37.478   0.471
70292W        W38697   7.194  28.218  12.208
70293W        W38698  35.549   5.307   1.632
70294W        W38699  14.581  24.416   1.066
70295W        W38700   8.419  31.306   4.164
70296W        W38701  18.326   2.713  13.577
70297W        W38702  24.238   2.955   4.636
70298W        W38703  23.621  26.344  12.842
70299W        W38704  36.358  41.721   0.469
70300W        W38705  15.608  34.144   4.453
70301W        W38706   3.027  41.468   1.540
70302W        W38707  16.658  14.257   1.298
70303W        W38708  35.368  17.708  13.965
70304W        W38709  32.824  27.967  11.454
70305W        W38710  23.719   2.851   0.030
70306W        W38711  33.040  25.055   1.250
70307W        W38712  35.491   6.427  10.886
70308W        W38713  18.184   2.316  11.582
70309W        W38714  38.607  38.764  13.160
70310W        W38715   2.317  40.606  10.833
70311W        W38716  22.477  22.522   3.482
70312W        W38717   6.246  15.690   4.979
70313W        W38718  27.623  11.177  10.614
70314W        W38719  16.077   1.953   2.334
70315W        W38720  10.897  18.639  11.647
70316W        W38721   1.714  21.902   4.027
70317W        W38722  10.678  15.236   3.545
70318W        W38723  13.662  39.494  11.022
70319W        W38724  23.155  28.746  13.143
70320W        W38725  26.774  33.842  12.357
70321W        W38726  16.022   4.326   5.030
70322W        W38727  13.737  31.898   0.228
70323W        W38728   7.825   9.467   2.367
70324W        W38729  43.770  11.844  14.340
70325W        W38730   3.675  14.579  11.781
70326W        W38731  26.169  11.259  10.681
70327W        W38732  18.360  18.998   2.719
70328W        W38733  20.679   8.276   3.826
70329W        W38734  39.132  44.838  11.044
70330W        W38735  44.234   3.776  14.250
70331W        W38736  28.718  41.488   3.703
70332W        W38737   3.169  42.405  11.045
70333W        W38738  42.928  18.633  13.162
70334W        W38739  30.394  35.782  10.658
70335W        W38740  12.367  11.673   0.245
70336W        W38741  11.892   5.425  13.420
70337W        W38742  34.604   7.190   1.799
70338W        W38743   7.971  24.443  14.678
70339W        W38744  20.262  11.162   2.945
70340W        W38745  14.076  37.197   0.874
70341W        W38746   9.069   4.000  12.026
70342W        W38747   7.347   0.282   3.629
70343W        W38748  18.866  31.051  12.522
70344W        W38749  37.947  13.861  14.125
70345W        W38750  28.864   3.880  12.123
70346W        W38751  42.899  14.267  11.572
70347W        W38752   1.192   5.220  12.563
70348W        W38753  42.914  25.335  10.311
70349W        W38754  21.705  31.445   1.757
70350W        W38755  35.264  17.594   4.017
70351W        W38756  17.994  12.340   0.295
70352W        W38757   6.004  24.578  12.622
70353W        W38758  40.510  20.609  13.409
70354W        W38759  40.929  16.804   4.758
70355W        W38760  37.284  19.798   0.928
70356W        W38761  37.810  37.374   2.153
70357W        W38762  33.582  20.258  14.807
70358W        W38763   6.412  19.227  12.095
70359W        W38764  26.010  35.163  13.532
70360W        W38765   6.252  22.706   0.788
70361W        W38766  24.625  35.877   0.521
70362W        W38767  12.762   8.103   1.863
70363W        W38768  32.740  33.994   4.067
70364W        W38769  36.960  19.523   3.090
70365W        W38770  32.878  37.240   0.214
70366W        W38771   4.370  28.400   4.903
70367W        W38772  28.752  14.733   4.194
70368W        W38773   5.361  43.290   4.745
70369W        W38774  33.105  33.241  12.101
70370W        W38775  11.843  38.733  13.848
70371W        W38776  25.303  42.592   3.186
70372W        W38777  21.583   3.713  10.895
70373W        W38778  13.067  29.492  12.924
70374W        W38779   9.743  39.921  10.690
70375W        W38780  14.681  40.306   2.392
70376W        W38781   4.931  40.549  14.249
70377W        W38782  18.546   4.511  13.265
70378W        W38783  31.663  14.381   2.716
70379W        W38784  25.473  37.932  12.422
70380W        W38785   7.700  24.049   2.664
70381W        W38786  15.711  22.272   3.951
70382W        W38787  41.950  41.580   1.320
70383W        W38788  26.141  14.813   4.340
70384W        W38789   8.005   0.666   2.998
70385W        W38790  32.486  25.170   5.263
70386W        W38791  11.317  14.676  13.361
70387W        W38792  37.078  11.379   1.645
70388W        W38793  32.926  23.934   4.185
70389W        W38794  38.412  44.324  12.457
70390W        W38795  26.615  26.185  14.359
70391W        W38796  14.312   6.066  12.897
70392W        W38797  43.475   4.451   3.168
70393W        W38798  11.531  19.322   9.857
70394W        W38799  32.167   1.977   2.272
70395W        W38800  16.194  19.544   4.129
70396W        W38801  15.607  12.830   2.248
70397W        W38802  34.385  38.907  14.277
70398W        W38803  21.677  42.911   3.577
70399W        W38804  32.866   9.710  13.979
70400W        W38805  11.997  28.575  14.133
70401W        W38806   7.384   6.331   3.741
70402W        W38807  14.616  14.669   1.785
70403W        W38808  13.621  11.380  13.688
70404W        W38809  42.531  10.581   4.618
70405W        W38810  29.005  21.170  12.968
70406W        W38811  28.673  43.308  11.968
70407W        W38812  10.808   4.769  11.756
70408W        W38813  20.128  18.186   1.647
70409W        W38814  35.093   8.790  14.273
70410W        W38815   4.916  13.562  12.474
70411W        W38816  38.454  32.172   3.842
70412W        W38817   8.442   3.174  12.049
70413W        W38818  42.636   3.377  12.331
70414W        W38819   1.793  32.753  14.050
70415W        W38820  41.633  37.818   0.777
70416W        W38821  42.752  30.115   3.664
70417W        W38822  28.477  22.608  14.274
70418W        W38823   1.306  25.503  12.387
70419W        W38824  12.082   6.797  11.200
70420W        W38825  27.280  16.516   4.621
70421W        W38826   3.949  19.781  13.524
70422W        W38827  19.641   7.776  10.445
70423W        W38828  16.358  33.484  10.858
70424W        W38829  11.798  37.790  13.385
70425W        W38830  36.358  13.294  12.030
70426W        W38831  29.130   1.713  13.864
70427W        W38832  22.653  42.799  10.154
70428W        W38833   2.422  36.269   1.231
70429W        W38834  17.777   4.886  12.708
70430W        W38835  22.577  14.585   2.337
70431W        W38836  38.903  14.255   2.768
70432W        W38837  41.248  22.663   3.191
70433W        W38838  22.815   5.947   2.223
70434W        W38839  35.648   0.696   1.824
70435W        W38840  29.338  14.346   9.854
70436W        W38841  18.313  18.193   1.209
70437W        W38842  19.478   4.544   3.859
70438W        W38843  33.536  20.184   2.785
70439W        W38844  13.303  22.353  12.606
70440W        W38845  15.714   2.477   4.902
70441W        W38846  27.355   2.640  14.574
70442W        W38847   3.859  34.924  12.612
70443W        W38848   0.088  16.986   0.486
70444W        W38849  37.140  44.832  13.084
70445W        W38850  28.513  33.465   3.809
70446W        W38851  14.727   4.027  11.580
70447W        W38852  40.559  39.539   2.222
70448W        W38853  13.247  26.558  14.970
70449W        W38854   4.964   4.767  14.510
70450W        W38855   4.652  32.364  12.051
70451W        W38856   0.951  44.955   3.572
70452W        W38857  17.111  17.125  14.539
70453W        W38858  43.339   3.216  10.343
70454W        W38859  23.161  44.978   3.660
70455W        W38860  41.385  35.879  12.342
70456W        W38861  33.475  31.954  11.088
70457W        W38862  24.217  22.745  14.691
70458W        W38863   7.357   4.809   0.700
70459W        W38864  25.030  13.641   3.411
70460W        W38865  16.619  11.185   3.861
70461W        W38866  16.185   2.132  10.559
70462W        W38867  13.326  33.291   3.126
70463W        W38868   3.716   5.427   2.026
70464W        W38869  44.046  30.061   1.805
70465W        W38870   4.898  32.704  14.773
70466W        W38871  31.197   3.861  10.707
70467W        W38872  19.585   0.174   4.101
70468W        W38873  10.842   4.422  12.135
70469W        W38874  16.124  16.568  11.604
70470W        W38875  34.653  10.290   4.280
70471W        W38876  37.067  42.371   0.889
70472W        W38877  33.166  37.809  12.064
70473W        W38878  40.428  34.529  10.234
70474W        W38879   5.383  11.673  10.734
70475W        W38880  36.086  27.937   4.456
70476W        W38881  15.388   7.419   0.342
70477W        W38882   7.856  15.227  14.986
70478W        W38883  40.085   4.569  13.980
70479W        W38884  20.826   7.439  12.117
70480W        W38885   1.388   1.113   2.423
70481W        W38886  36.318  40.391  14.848
70482W        W38887  31.179  18.695  11.988
70483W        W38888   2.465  41.690  14.829
70484W        W38889  10.733  17.366   1.618
70485W        W38890  14.037  15.210   4.144
70486W        W38891  20.235   9.726   9.962
70487W        W38892   6.619  39.488   4.150
70488W        W38893   5.705  25.888  12.036
70489W        W38894  17.686   2.897   1.313
70490W        W38895  11.778  29.007  10.601
70491W        W38896   8.158  26.659  13.570
70492W        W38897  27.917  38.419  12.921
70493W        W38898  38.817   9.306  14.893
70494W        W38899  16.352  19.643  11.061
70495W        W38900  25.292  27.559   3.873
70496W        W38901  26.098   1.425   0.408
70497W        W38902   4.271  23.134  11.093
70498W        W38903  25.291  41.278  10.586
70499W        W38904  18.229  18.544  14.749
70500W        W38905  13.610   0.108   0.661
70501W        W38906  34.581  43.697  14.764
70502W        W38907  29.692   2.584  13.051
70503W        W38908   3.917  28.478   4.638
70504W        W38909  42.731   3.692   0.187
70505W        W38910  22.990  38.664  11.239
70506W        W38911  33.210  39.981  10.711
70507W        W38912  11.316  10.235  10.472
70508W        W38913  30.950  10.122   0.968
70509W        W38914  24.346   5.978  13.357
70510W        W38915  39.436  13.001  11.131
70511W        W38916  42.068  22.547   4.614
70512W        W38917  24.984  37.206  12.676
70513W        W38918  35.379  24.537  11.183
70514W        W38919  20.255  35.456   1.867
70515W        W38920  34.379  43.796   4.554
70516W        W38921   8.143  31.051  11.724
70517W        W38922  34.285   3.919  11.629
70518W        W38923  19.216   9.103  10.692
70519W        W38924  39.618  39.432  11.556
70520W        W38925  18.719   6.699  14.951
70521W        W38926  21.591  30.175   4.034
70522W        W38927  40.105  26.162  13.298
70523W        W38928  19.053  14.638  11.943
70524W        W38929  42.368   4.931  10.528
70525W        W38930   4.655  30.163  14.763
70526W        W38931  22.613  24.242  13.527
70527W        W38932  12.752  34.951   2.190
70528W        W38933  17.317   2.564  11.676
70529W        W38934  12.588  13.736   4.241
70530W        W38935  39.946   6.681  11.076
70531W        W38936  14.644  35.310  14.834
70532W        W38937  30.435  20.194  11.067
70533W        W38938   7.684  13.165   0.905
70534W        W38939  10.975  42.406  10.713
70535W        W38940  38.849  10.163   2.221
70536W        W38941   7.650  36.228  12.052
70537W        W38942  21.314  17.826   1.359
70538W        W38943  13.511  43.812   4.208
70539W        W38944  32.384  34.402  12.946
70540W        W38945   6.734  35.877  14.675
70541W        W38946   2.497  32.337  14.969
70542W        W38947  22.727  36.053  11.519
70543W        W38948  12.300   9.037   3.802
70544W        W38949  20.141  33.925   3.352
70545W        W38950  25.671  18.614   1.647
70546W        W38951   1.387  16.396  10.622
70547W        W38952  33.382  36.028   0.826
70548W        W38953   4.359   1.346   1.779
70549W        W38954  11.918  12.892  14.493
70550W        W38955   3.745   8.117   3.685
70551W        W38956   8.042  17.610   1.381
70552W        W38957  13.346  36.336  14.404
70553W        W38958   3.960  18.094  12.905
70554W        W38959   6.765   1.032  12.989
70555W        W38960  26.638  20.064   1.803
70556W        W38961  28.720  32.442  14.441
70557W        W38962  16.880  30.451  11.049
70558W        W38963  26.472  20.186  14.431
70559W        W38964  35.294  28.920   2.319
70560W        W38965  37.612  19.878   0.503
70561W        W38966  24.704  41.851  14.511
70562W        W38967   8.635  21.403  12.152
70563W        W38968  28.925   5.378   2.428
70564W        W38969  34.622  35.379   0.538
70565W        W38970  20.960   6.175   2.727
70566W        W38971  29.999  41.284  11.628
70567W        W38972  22.589  26.606   1.213
70568W        W38973  24.540  39.963  13.787
70569W        W38974   9.973  14.730  12.034
70570W        W38975   1.655  26.820   3.712
70571W        W38976  42.571   2.203   3.189
70572W        W38977  38.985  40.318   2.479
70573W        W38978   2.744  40.203   4.985
70574W        W38979   7.462  25.414   2.256
70575W        W38980  15.312  31.962   1.016
70576W        W38981  11.426  29.859   4.493
70577W        W38982  36.440  31.665  13.244
70578W        W38983  36.833  22.716   2.528
70579W        W38984  25.035  38.284   4.900
70580W        W38985   7.784  20.707  14.233
70581W        W38986   1.520   2.804  14.204
70582W        W38987  26.364  10.302  11.007
70583W        W38988  32.960  27.050   0.824
70584W        W38989  33.426  43.717  11.648
70585W        W38990  14.692  16.910  12.329
70586W        W38991   1.266  26.667  14.847
70587W        W38992   4.734  25.098   1.179
70588W        W38993  39.405  30.479  11.201
70589W        W38994  15.928  25.963   0.501
70590W        W38995  12.898  32.564   4.981
70591W        W38996  32.365  38.379  13.291
70592W        W38997  37.756  28.629  14.061
70593W        W38998  28.552  36.491  10.702
70594W        W38999  14.067  17.028  14.409
70595W        W39000   7.954  12.630   2.654
70596W        W39001  12.398   0.383   0.708
70597W        W39002  28.968  30.559   0.920
70598W        W39003  29.058  33.301  14.303
70599W        W39004   8.182  22.126  13.309
70600W        W39005  20.014   1.186   1.883
70601W        W39006  36.879  42.792   4.247
70602W        W39007   9.688  21.003  14.939
70603W        W39008  20.372  38.785   4.091
70604W        W39009   5.357  17.251   4.509
70605W        W39010  24.174   3.186   3.242
70606W        W39011  11.451  10.868  14.049
70607W        W39012  12.603  38.860  12.135
70608W        W39013   2.474   6.456  13.442
70609W        W39014  20.725  13.394  13.335
70610W        W39015  30.517  30.666   0.050
70611W        W39016  36.002   0.849  12.856
70612W        W39017  25.509  13.030   2.869
70613W        W39018   0.925  40.082  13.513
70614W        W39019   2.755  22.950   4.982
70615W        W39020  20.622  33.114  12.662
70616W        W39021  20.136   9.077  14.325
70617W        W39022  44.424  40.213   2.518
70618W        W39023  26.224  27.117  13.037
70619W        W39024  43.244  27.050   4.246
70620W        W39025  22.229  10.316   2.729
70621W        W39026  11.895  44.447  14.027
70622W        W39027  40.942   8.230  10.502
70623W        W39028   5.985   9.062   1.063
70624W        W39029   8.393   6.520   0.467
70625W        W39030  13.267  23.897  10.557
70626W        W39031  29.343  21.260   0.423
70627W        W39032  26.632  30.668  13.922
70628W        W39033  15.489  25.687   4.982
70629W        W39034  34.874  20.631   2.448
70630W        W39035  14.403   9.055   3.851
70631W        W39036   6.282  13.765   3.649
70632W        W39037  43.824  14.860   1.973
70633W        W39038  33.067  15.057   3.111
70634W        W39039  12.068  16.175   2.736
70635W        W39040   3.412   9.433   3.867
70636W        W39041  30.148  29.088  14.009
70637W        W39042   3.364   4.905  14.180
70638W        W39043  26.510   5.313   3.790
70639W        W39044  44.381  24.753  12.464
70640W        W39045  20.146   0.483  12.971
70641W        W39046   2.389  25.616  11.051
70642W        W39047   9.407  13.869  14.527
70643W        W39048  39.548  23.638  13.850
70644W        W39049   0.541  27.408   1.721
70645W        W39050  37.926  20.503   1.503
70646W        W39051   1.396  10.715   0.374
70647W        W39052   3.210  12.665   5.020
70648W        W39053  21.503  40.071   0.789
70649W        W39054  11.170  32.281   2.910
70650W        W39055  32.679  31.342   2.292
70651W        W39056  11.812  34.567   2.771
70652W        W39057  37.529  18.479  12.058
70653W        W39058   7.904  32.857  12.380
70654W        W39059  13.825  44.820   2.127
70655W        W39060  43.464  20.846   1.027
70656W        W39061  10.413  12.610  11.684
70657W        W39062  11.118  20.725   2.448
70658W        W39063  32.560  39.526   0.942
70659W        W39064  32.665   3.291  14.520
70660W        W39065  31.612  15.528   4.226
70661W        W39066  28.885  19.130  10.682
70662W        W39067  32.684   7.834   0.987
70663W        W39068  28.409  17.765  13.428
70664W        W39069  35.934  10.156   2.483
70665W        W39070  18.534  31.097   4.533
70666W        W39071  42.001  33.632  12.120
70667W        W39072   8.815  31.529  14.416
70668W        W39073  18.714  34.389   0.889
70669W        W39074   8.710  28.713  11.974
70670W        W39075  29.370  35.076   1.720
70671W        W39076   1.732   9.746   0.237
70672W        W39077  43.722   8.711  13.424
70673W        W39078  20.278  30.275   3.273
70674W        W39079   7.254   6.749  10.675
70675W        W39080  41.024   9.954  12.119
70676W        W39081  31.866  21.495   2.207
70677W        W39082  35.936  33.628  10.723
70678W        W39083  20.985  38.795   5.046
70679W        W39084  26.141  14.113  12.701
70680W        W39085  36.417  44.806  10.513
70681W        W39086   0.795  26.442  10.647
70682W        W39087   8.857  15.693  10.936
70683W        W39088  25.974   2.799   4.752
70684W        W39089   9.691  40.089  12.355
70685W        W39090   7.400  23.515   0.951
70686W        W39091   7.807  30.759  11.989
70687W        W39092   6.201  40.360  13.853
70688W        W39093   0.307  13.663   2.224
70689W        W39094  28.086   5.382   3.321
70690W        W39095  19.158  15.026   5.009
70691W        W39096  37.504   6.365  12.550
70692W        W39097   5.851  15.744  12.820
70693W        W39098   4.866  18.867  11.252
70694W        W39099  40.065  28.027   3.667
70695W        W39100  12.674  24.726   1.404
70696W        W39101  16.767  29.603  11.502
70697W        W39102  37.947   8.196   2.144
70698W        W39103  28.152  29.111   0.109
70699W        W39104  26.364   0.840   2.224
70700W        W39105  30.142  30.420  11.973
70701W        W39106  42.448  41.929   2.462
70702W        W39107   2.448   9.994  12.958
70703W        W39108  13.127  28.808  12.080
70704W        W39109  32.856  12.750   0.405
70705W        W39110  27.072   6.484   2.124
70706W        W39111  41.874  14.049   3.720
70707W        W39112  22.742  27.604  14.841
70708W        W39113  10.804   4.355   1.863
70709W        W39114  20.333  27.393   4.111
70710W        W39115  37.996   2.286  10.731
70711W        W39116  11.321  29.082  10.381
70712W        W39117  24.198  36.711   4.949
70713W        W39118   6.201   8.900   3.670
70714W        W39119  36.859  31.549   4.255
70715W        W39120  11.019  28.498  14.086
70716W        W39121  38.438  13.854  12.487
70717W        W39122  30.631  30.931  13.578
70718W        W39123  43.410  41.994  11.173
70719W        W39124  31.002  13.667   3.126
70720W        W39125   2.257  43.764  10.501
70721W        W39126  19.172   2.623  12.057
70722W        W39127  25.257   0.361  11.713
70723W        W39128  39.812  39.434  11.084
70724W        W39129  43.504   0.875   9.884
70725W        W39130  38.342   5.796  13.064
70726W        W39131   9.851  27.228  13.033
70727W        W39132  14.331  12.665  14.012
70728W        W39133   4.777  17.048  12.786
70729W        W39134   8.852  11.782   1.070
70730W        W39135  43.394  29.702  14.946
70731W        W39136  29.919  10.214  10.843
70732W        W39137  13.602  26.135   1.405
70733W        W39138  21.207  21.557   1.359
70734W        W39139  40.872  22.983  11.895
70735W        W39140  38.312  18.677  14.113
70736W        W39141  24.503   1.824   2.669
70737W        W39142  19.825  27.042   1.219
70738W        W39143   0.949  30.478  14.402
70739W        W39144   7.100  23.168  12.954
70740W        W39145  26.493  11.437   0.236
70741W        W39146  12.156  34.587  11.177
70742W        W39147   7.357  25.903   0.904
70743W        W39148  35.022  18.757  13.000
70744W        W39149  33.438  43.338   4.275
70745W        W39150  11.862  15.747   3.157
70746W        W39151  37.321  32.155  14.035
70747W        W39152  43.802  27.973  13.556
70748W        W39153   2.231  30.100  12.935
70749W        W39154   9.912  41.021   0.376
70750W        W39155  31.275   5.792   1.824
70751W        W39156   7.956  12.572  11.972
70752W        W39157  27.963  44.874  11.118
70753W        W39158   2.791   4.395  14.963
70754W        W39159   2.028  12.867  10.755
70755W        W39160  28.020   5.410   0.382
70756W        W39161  33.006  32.224  14.377
70757W        W39162   4.437  30.015  12.915
70758W        W39163  23.593   7.195  12.471
70759W        W39164  28.839  41.726  13.975
70760W        W39165  12.153   1.858  12.106
70761W        W39166  13.679   3.596  14.512
70762W        W39167   5.811  39.931   4.141
70763W        W39168  28.477  18.055  12.113
70764W        W39169  30.426  41.942   2.831
70765W        W39170  11.293  34.979  13.153
70766W        W39171   6.936  30.990   0.021
70767W        W39172   5.292  41.274  11.220
70768W        W39173  10.395  24.034   2.258
70769W        W39174   6.283  42.793  11.580
70770W        W39175  24.216   9.708   0.265
70771W        W39176   4.438  41.107  14.039
70772W        W39177  13.916  12.835  11.155
70773W        W39178  37.595  19.553  11.029
70774W        W39179  14.081  17.229   2.333
70775W        W39180  10.398  38.902   0.478
70776W        W39181  39.994  41.658  12.493
70777W        W39182  12.027  16.348   1.680
70778W        W39183  34.777  40.555   2.761
70779W        W39184  32.832  32.163  13.546
70780W        W39185  24.831  14.834  12.475
70781W        W39186  15.671  40.244  13.449
70782W        W39187  22.213   0.373   2.303
70783W        W39188  13.541   5.503   2.740
70784W        W39189  13.687  34.135   3.222
70785W        W39190  44.354  17.473   3.029
70786W        W39191   6.845  25.039   0.781
70787W        W39192  21.196  19.210  11.866
70788W        W39193  26.970   8.827  12.516
70789W        W39194  23.003  20.797   2.323
70790W        W39195  44.193  13.200  11.457
70791W        W39196   6.506  34.078  12.897
70792W        W39197  36.497  20.043  13.972
70793W        W39198   5.841  33.778  11.267
70794W        W39199  10.905   2.216   1.374
70795W        W39200  36.569   1.219   3.111
70796W        W39201  28.752  20.578  11.227
70797W        W39202  20.672  16.620   4.589
70798W        W39203  43.266   6.111   4.562
70799W        W39204  44.242  26.585   2.747
70800W        W39205   8.420  14.192   0.228
70801W        W39206  17.034  22.511  14.496
70802W        W39207  33.458  25.225   3.811
70803W        W39208  18.749  44.844   3.142
70804W        W39209  19.643  22.926  13.562
70805W        W39210  15.511  33.151  14.145
70806W        W39211   6.829  33.594   1.445
70807W        W39212  43.310  41.728  10.741
70808W        W39213   1.460  30.509   2.672
70809W        W39214  27.913  22.116  10.762
70810W        W39215  43.853   9.723   2.441
70811W        W39216  18.800   2.418   4.583
70812W        W39217   1.297  37.961   3.553
70813W        W39218  42.276  18.033  12.611
70814W        W39219  35.015  29.586  11.153
70815W        W39220  10.832  23.222   2.822
70816W        W39221  32.494   9.676   0.740
70817W        W39222  17.704  14.652  10.873
70818W        W39223  27.459  18.631  12.634
70819W        W39224  38.031   6.769  13.750
70820W        W39225  22.801  30.386  13.055
70821W        W39226  13.799   0.818   1.635
70822W        W39227  10.195   7.746   9.775
70823W        W39228  34.398  44.667  14.358
70824W        W39229  14.577  28.134   4.252
70825W        W39230  11.705  37.466  10.747
70826W        W39231  31.458  10.866   4.513
70827W        W39232  22.914   0.028  11.152
70828W        W39233  10.542   8.218   4.500
70829W        W39234  17.755  34.403  14.347
70830W        W39235  31.467   5.783  11.213
70831W        W39236  23.314  13.711   1.150
70832W        W39237  40.300  13.553   4.631
70833W        W39238   4.742  25.598  10.716
70834W        W39239  38.593  30.952   1.396
70835W        W39240  33.820   7.284   2.227
70836W        W39241   3.022  11.944  13.337
70837W        W39242   7.482  19.731   3.817
70838W        W39243   2.828  40.287   2.306
70839W        W39244  29.891  14.878  13.581
70840W        W39245  44.390  10.586  10.530
70841W        W39246   2.438   7.746   0.306
70842W        W39247  27.805  11.984   4.635
70843W        W39248   5.981  38.511  14.032
70844W        W39249  30.257   6.720  13.470
70845W        W39250   2.379   7.593   4.041
70846W        W39251  38.588   5.323   3.497
70847W        W39252  11.357   5.815   1.828
70848W        W39253  14.087  11.349   2.624
70849W        W39254   8.239   7.294   1.856
70850W        W39255   9.372  29.139   0.495
70851W        W39256  27.953  19.756   3.254
70852W        W39257  13.292  44.784   2.922
70853W        W39258   6.340  32.423   4.413
70854W        W39259  42.730   0.161  11.696
70855W        W39260  15.151  10.012  13.272
70856W        W39261  32.542  25.596   2.740
70857W        W39262  28.677  42.499  12.965
70858W        W39263  34.580  21.118   4.669
70859W        W39264   0.372  19.028   3.224
70860W        W39265  41.730  41.442   4.470
70861W        W39266   2.197  13.635  14.913
70862W        W39267  36.854   4.598   4.369
70863W        W39268  36.017  26.720  12.725
70864W        W39269  36.462   6.002   0.601
70865W        W39270  33.127  38.774  10.650
70866W        W39271  44.266  28.534  13.803
70867W        W39272  33.155  23.527   3.890
70868W        W39273  14.247   9.885  12.688
70869W        W39274  36.933  25.005   0.852
70870W        W39275  24.638  34.854  13.426
70871W        W39276   0.288   2.963   1.617
70872W        W39277  19.232  43.016   0.897
70873W        W39278  36.320  27.678   0.483
70874W        W39279  19.828  27.606   2.875
70875W        W39280  33.099  35.439   3.199
70876W        W39281  30.066  13.576  14.033
70877W        W39282  13.692  16.388  11.467
70878W        W39283  42.545  32.002   3.417
70879W        W39284  44.675   7.570  11.640
70880W        W39285  20.417   5.479   2.363
70881W        W39286   8.151   2.700  12.051
70882W        W39287  39.022  39.594  13.391
70883W        W39288   5.224   7.642  12.559
70884W        W39289  33.114  29.074   4.258
70885W        W39290  20.740  11.639   2.878
70886W        W39291  11.761  14.721  13.131
70887W        W39292   2.880   3.498  14.761
70888W        W39293  19.411  32.598   2.835
70889W        W39294  30.438   0.931   2.265
70890W        W39295  19.566  34.569  10.551
70891W        W39296  18.994  33.903  14.855
70892W        W39297  17.781  25.211  12.449
70893W        W39298  15.259  30.571   0.387
70894W        W39299  28.344   4.368   3.312
70895W        W39300  44.529   0.457  12.969
70896W        W39301  29.842  28.471  10.715
70897W        W39302  33.456  36.119  13.945
70898W        W39303  42.354  10.844  14.178
70899W        W39304   2.421   2.822  14.770
70900W        W39305  34.999  29.058  11.162
70901W        W39306  36.813  30.266   1.191
70902W        W39307  32.217  29.132  12.844
70903W        W39308  33.250  33.541  12.492
70904W        W39309  34.099  23.555   1.449
70905W        W39310  25.049  37.877  11.158
70906W        W39311  19.667  22.095  14.284
70907W        W39312   6.631  34.023  14.277
70908W        W39313  15.837  14.306  14.361
70909W        W39314   9.670  21.678  13.753
70910W        W39315  17.195   6.357   3.707
70911W        W39316  13.864  29.061   3.783
70912W        W39317  44.776  29.454   4.598
70913W        W39318  32.947  29.684  14.798
70914W        W39319  29.585  41.797  14.637
70915W        W39320  24.721   4.299   4.661
70916W        W39321   2.821   2.973   1.195
70917W        W39322  22.475  21.625  11.141
70918W        W39323  12.143  32.458   0.178
70919W        W39324  18.572  19.356   2.425
70920W        W39325   5.014  45.000  14.422
70921W        W39326  37.743  24.641  12.039
70922W        W39327  13.048  32.525   0.405
70923W        W39328  18.133  34.838   4.474
70924W        W39329   0.790  32.086  10.457
70925W        W39330   4.275  17.731   2.299
70926W        W39331  23.775  43.891  14.996
70927W        W39332  38.952  40.897  11.214
70928W        W39333  34.116   2.846  12.938
70929W        W39334  21.053  34.883   2.902
70930W        W39335  15.601  22.227  14.349
70931W        W39336  39.744   5.782  10.640
70932W        W39337  31.621  22.383   3.333
70933W        W39338  35.345  39.430  13.557
70934W        W39339  19.830  16.221  13.165
70935W        W39340   8.852  43.921  14.093
70936W        W39341  42.892  30.968  12.400
70937W        W39342   9.073  42.380   0.275
70938W        W39343  21.916  32.958  13.843
70939W        W39344  17.466   7.852   4.445
70940W        W39345   3.447  20.078   5.041
70941W        W39346  30.937  40.322  10.168
70942W        W39347  42.808  30.958  13.381
70943W        W39348  33.634   8.790  12.154
70944W        W39349  32.928  33.690  11.634
70945W        W39350  31.740  21.813   3.596
70946W        W39351  33.646  36.000   2.991
70947W        W39352   0.714  12.059  12.805
70948W        W39353  27.603  21.124   1.081
70949W        W39354  17.214  16.690  14.246
70950W        W39355  36.305   5.660   1.954
70951W        W39356  12.316   4.331  14.398
70952W        W39357  12.675  34.106  14.065
70953W        W39358  43.252  26.479   3.399
70954W        W39359  32.954  14.025   4.037
70955W        W39360  42.115   0.226  12.094
70956W        W39361  11.216  29.003  12.331
70957W        W39362  17.466   7.731   3.109
70958W        W39363   7.866  16.278   1.930
70959W        W39364  18.017  31.688  11.321
70960W        W39365  24.741  13.050   4.576
70961W        W39366  36.028  42.747   4.156
70962W        W39367   7.293   7.337  14.267
70963W        W39368  40.817  11.521   2.252
70964W        W39369  13.664  25.426   4.342
70965W        W39370   0.707  18.132  14.990
70966W        W39371  28.161  18.325   4.116
70967W        W39372  24.950  10.702  14.978
70968W        W39373  44.366  33.089  13.912
70969W        W39374  26.424  22.502   2.281
70970W        W39375  28.595  39.846  12.069
70971W        W39376  33.534  15.589   2.211
70972W        W39377  10.919  21.709   2.895
70973W        W39378   5.489  24.541  12.705
70974W        W39379  28.756  39.439  13.394
70975W        W39380  11.784  43.030   1.867
70976W        W39381   6.881  24.164  11.087
70977W        W39382   5.592  38.166  12.568
70978W        W39383  20.865  30.358  14.833
70979W        W39384  11.528  26.117   2.771
70980W        W39385  22.600   4.988   4.943
70981W        W39386  26.201   8.263   0.717
70982W        W39387   1.678  32.439   1.083
70983W        W39388  37.946  34.861   1.870
70984W        W39389  11.367  41.196  10.399
70985W        W39390  30.103  39.493  14.376
70986W        W39391  36.383  40.563   4.109
70987W        W39392  34.318   0.901  13.399
70988W        W39393  20.314  39.131   2.224
70989W        W39394   0.099  10.223  11.567
70990W        W39395  37.564  44.960  14.365
70991W        W39396  21.245  11.888  12.531
70992W        W39397  37.443  11.742  10.703
70993W        W39398  14.019  44.897  12.882
70994W        W39399  24.128  25.427   2.159
70995W        W39400  21.986  19.519  11.613
70996W        W39401  42.555   2.380  14.912
70997W        W39402  20.085  16.562   2.162
70998W        W39403  34.036   3.283   3.701
70999W        W39404  29.991  15.305  12.063
71000W        W39405  44.344  37.062  10.412
71001W        W39406  35.628   4.224   0.230
71002W        W39407  43.084  43.295   0.232
71003W        W39408  23.187   5.675  14.188
71004W        W39409   4.643  41.215   0.801
71005W        W39410  29.989  20.060  13.383
71006W        W39411  10.237  25.896  13.556
71007W        W39412  37.025  18.291  14.751
71008W        W39413  40.894   8.414   4.789
71009W        W39414  44.499  29.923  14.740
71010W        W39415   4.706  19.681  13.092
71011W        W39416  14.666   7.230   3.769
71012W        W39417   3.725  18.227  10.736
71013W        W39418  20.319   6.999   2.665
71014W        W39419   6.835  14.845  14.470
71015W        W39420   2.515  43.488   3.815
71016W        W39421  12.294  31.971   1.985
71017W        W39422  44.825   7.644   3.158
71018W        W39423  19.151  41.500  11.665
71019W        W39424   1.674  24.095   2.809
71020W        W39425  15.768  24.605   3.829
71021W        W39426   6.186  37.871  13.866
71022W        W39427  23.615  41.821  14.491
71023W        W39428  11.901  26.192  11.484
71024W        W39429   8.120   0.863   1.759
71025W        W39430   9.128  15.183   3.648
71026W        W39431  28.092  22.639   2.416
71027W        W39432  33.389  31.075   1.774
71028W        W39433   1.825  21.852   1.673
71029W        W39434  43.448  40.321  14.696
71030W        W39435   1.248   7.897  12.589
71031W        W39436   9.643  19.642   3.098
71032W        W39437  42.822   0.426  13.938
71033W        W39438  27.748  38.394  11.546
71034W        W39439  21.162   4.989   0.974
71035W        W39440   1.776  29.281  13.576
71036W        W39441  30.095  42.867   1.376
71037W        W39442   5.767  19.070  10.700
71038W        W39443   4.251  10.665   1.590
71039W        W39444  36.699  40.315  11.604
71040W        W39445  44.809  32.621  14.443
71041W        W39446   3.186  19.215   3.650
71042W        W39447  37.354  40.785   1.960
71043W        W39448  22.710   9.690   0.445
71044W        W39449  40.287  15.360  13.358
71045W        W39450  14.205   3.916   0.277
71046W        W39451   1.128  44.271  11.940
71047W        W39452  19.341  24.769   3.761
71048W        W39453  32.394  31.195   3.223
71049W        W39454  42.750  41.564  13.858
71050W        W39455  38.925  23.543   1.462
71051W        W39456  22.339  44.502   0.197
71052W        W39457  23.994   1.962  11.577
71053W        W39458  28.904  44.892   0.246
71054W        W39459  28.980  39.870  14.972
71055W        W39460  36.823  25.953  11.636
71056W        W39461   1.832  35.441   1.659
71057W        W39462  28.252   7.945  13.542
71058W        W39463  17.300  11.222  12.069
71059W        W39464  29.672  24.116  13.683
71060W        W39465  17.245   5.936  12.818
71061W        W39466   4.299   2.125   2.178
71062W        W39467  38.801  40.919  12.074
71063W        W39468  32.305  34.868  13.673
71064W        W39469   6.953  15.802  14.746
71065W        W39470  36.470   4.242  14.364
71066W        W39471  29.114   3.902  10.857
71067W        W39472   0.986  18.950   0.297
71068W        W39473  22.592  27.543   4.675
71069W        W39474  41.697  37.673  13.477
71070W        W39475  35.610  33.317  13.103
71071W        W39476  20.641  19.094   2.337
71072W        W39477  10.013  14.137  12.881
71073W        W39478  19.599   6.909  10.925
71074W        W39479  40.353  10.633   3.157
71075W        W39480  20.201   8.838  10.469
71076W        W39481  23.403   3.732   1.260
71077W        W39482   5.403  11.656   4.080
71078W        W39483  22.077  28.431   3.654
71079W        W39484   6.246   5.402   3.674
71080W        W39485   9.327  24.517  13.961
71081W        W39486  40.532   8.223   1.274
71082W        W39487  36.432  39.949   1.891
71083W        W39488  21.243  32.132  13.893
71084W        W39489  14.556  31.210  11.605
71085W        W39490  22.673  17.314  13.988
71086W        W39491  28.190  17.176  12.526
71087W        W39492  25.999   5.721   2.687
71088W        W39493  14.063  12.235   2.774
71089W        W39494  20.151  43.940   1.364
71090W        W39495  24.515  15.243   3.624
71091W        W39496  13.648  31.092  11.588
71092W        W39497  36.210  32.616   2.782
71093W        W39498  23.973  39.508  14.517
71094W        W39499  14.742  36.903  13.472
71095W        W39500  39.167  24.648   0.363
71096W        W39501  16.168  38.641   3.363
71097W        W39502  10.803  33.614  12.505
71098W        W39503   1.320   3.365  13.471
71099W        W39504   7.841  22.870  12.641
71100W        W39505  39.724   7.623   5.158
71101W        W39506  32.806  43.523   2.241
71102W        W39507  15.742  23.580   3.522
71103W        W39508  31.354  20.933   1.014
71104W        W39509  30.553   2.300  13.818
71105W        W39510  42.364  13.639  12.469
71106W        W39511  31.344  36.098  14.942
71107W        W39512  19.729  17.045  12.713
71108W        W39513   6.483   2.156   0.909
71109W        W39514  18.988   2.592  12.924
71110W        W39515  30.422  41.815  12.091
71111W        W39516  20.971  18.715   0.335
71112W        W39517  39.021   8.435  14.293
71113W        W39518  14.826  27.641  14.525
71114W        W39519   4.165   3.225   0.311
71115W        W39520  16.767  20.435   4.802
71116W        W39521  23.103  39.874  11.042
71117W        W39522  37.459  31.961  13.058
71118W        W39523   6.688   8.598  12.091
71119W        W39524   3.992  37.484   2.960
71120W        W39525  42.307   5.677   0.793
71121W        W39526   7.596  38.329  12.127
71122W        W39527  11.031  15.656   4.627
71123W        W39528  33.537  11.552   4.011
71124W        W39529  17.285  14.557   1.127
71125W        W39530   5.476  12.243  12.947
71126W        W39531   5.857   7.602  10.329
71127W        W39532   1.875  27.684  10.738
71128W        W39533   7.837  36.386  12.511
71129W        W39534  40.600  40.419  11.514
71130W        W39535  38.760  11.231  14.956
71131W        W39536  26.554   8.338  13.381
71132W        W39537   8.895  11.563   1.541
71133W        W39538  22.156  44.699   1.927
71134W        W39539  39.878  25.528   1.846
71135W        W39540  31.495  41.752   4.198
71136W        W39541  19.506  40.953   2.445
71137W        W39542  23.529  24.964  12.347
71138W        W39543  15.598  39.938   1.841
71139W        W39544   0.276  28.456  10.734
71140W        W39545  17.998  36.733  11.249
71141W        W39546  34.947  42.565   2.397
71142W        W39547  33.362  33.444   1.366
71143W        W39548   3.996  12.064   2.309
71144W        W39549  27.032  20.741   3.232
71145W        W39550  20.645   4.890  12.962
71146W        W39551  41.933  21.646   3.633
71147W        W39552  23.716  43.992   3.346
71148W        W39553  11.254  25.719   1.388
71149W        W39554  33.085  25.442   0.639
71150W        W39555   5.286  26.425  12.387
71151W        W39556  26.500  28.291  11.066
71152W        W39557  43.435  42.299   1.680
71153W        W39558   3.616  30.933   1.079
71154W        W39559  34.256  37.448  10.818
71155W        W39560   3.665   1.754  10.362
71156W        W39561  20.480   0.693  13.833
71157W        W39562  29.024   0.656   1.195
71158W        W39563  31.552  32.170   1.376
71159W        W39564  30.139  22.359  11.025
71160W        W39565   3.293   6.806  13.438
71161W        W39566  32.010  44.720  11.031
71162W        W39567   1.440  26.096   2.878
71163W        W39568  23.145  33.388  13.131
71164W        W39569  38.516  18.516   1.839
71165W        W39570  28.387  19.117   4.097
71166W        W39571  18.551  42.381  13.358
71167W        W39572   9.180  43.075  11.233
71168W        W39573  23.665   5.817   2.242
71169W        W39574  36.973  12.318  12.041
71170W        W39575  41.742   1.496  14.869
71171W        W39576  29.857  44.450   2.369
71172W        W39577   6.401  19.604   0.960
71173W        W39578  35.858  12.813   3.822
71174W        W39579   7.819  33.438   4.563
71175W        W39580  12.808  15.540   4.147
71176W        W39581   8.597  14.878  13.983
71177W        W39582  28.920  30.989   1.678
71178W        W39583  28.027   6.040  11.544
71179W        W39584   5.794   0.756   3.307
71180W        W39585  32.450   1.969   0.391
71181W        W39586  28.908   6.224  13.546
71182W        W39587   2.795  35.904   2.724
71183W        W39588  17.656  38.655  12.830
71184W        W39589  30.657  19.647  12.973
71185W        W39590  36.376  38.513   2.816
71186W        W39591  44.237  18.197   4.676
71187W        W39592  14.136  35.481  13.368
71188W        W39593  22.044  15.648   4.717
71189W        W39594  34.041  24.031   1.190
71190W        W39595  33.018  14.601  13.150
71191W        W39596  20.948   9.293   5.574
71192W        W39597  33.278  20.088  12.497
71193W        W39598  19.702   4.751  11.384
71194W        W39599  21.588   8.392  10.678
71195W        W39600  21.224  25.272  14.580
71196W        W39601  20.328  17.043   4.614
71197W        W39602  14.701  21.818   3.019
71198W        W39603  27.934  28.147  13.974
71199W        W39604  18.671  21.937   5.313
71200W        W39605  13.154  20.110   2.158
71201W        W39606   0.789  21.181   3.350
71202W        W39607  14.230  26.185   0.895
71203W        W39608  11.114   1.886   2.019
71204W        W39609  42.692   5.343   2.263
71205W        W39610   3.399  18.270   0.411
71206W        W39611  40.108  31.454  14.046
71207W        W39612  36.010   1.971  13.387
71208W        W39613  18.240  25.150   3.071
71209W        W39614  31.042  11.884  13.667
71210W        W39615  17.963  40.429  10.974
71211W        W39616   9.272  18.062  13.056
71212W        W39617   4.699  44.880  13.097
71213W        W39618  39.586  39.026  13.077
71214W        W39619  32.076  18.491   4.172
71215W        W39620  39.408   7.731   0.786
71216W        W39621  23.621  39.775   0.334
71217W        W39622  41.933  22.341  13.354
71218W        W39623  21.983  19.810   1.765
71219W        W39624  32.452  18.211  12.132
71220W        W39625  35.471  36.629  11.679
71221W        W39626  41.514  31.401  12.187
71222W        W39627  43.188  28.926   0.508
71223W        W39628  27.660  37.088   2.227
71224W        W39629  32.049  38.827   3.891
71225W        W39630  21.592  17.622  12.436
71226W        W39631  27.072  36.869   4.233
71227W        W39632   1.468   0.541  12.450
71228W        W39633  26.889  19.190  11.592
71229W        W39634  39.800  15.159   2.289
71230W        W39635   5.896   1.954   3.799
71231W        W39636  29.015  17.638  11.828
71232W        W39637   4.494   3.299  11.012
71233W        W39638  12.857  42.491   2.674
71234W        W39639  12.939  14.658   3.991
71235W        W39640  21.971  33.499  14.791
71236W        W39641  33.061  40.245   3.611
71237W        W39642  22.106  16.486  12.525
71238W        W39643  24.095   4.920  11.200
71239W        W39644   7.516  15.953  12.054
71240W        W39645  41.285  29.236   3.816
71241W        W39646   1.493  26.549   0.455
71242W        W39647  30.873  31.466   0.757
71243W        W39648  22.495   1.055   0.334
71244W        W39649  31.148  17.753  10.086
71245W        W39650  29.199   0.985   3.109
71246W        W39651  21.141   1.703  13.620
71247W        W39652  36.358  14.840  12.051
71248W        W39653  24.417  26.734   3.208
71249W        W39654   3.944  35.299  12.998
71250W        W39655  12.094  24.106   0.689
71251W        W39656  38.898  35.790  14.178
71252W        W39657  43.727  32.409   4.056
71253W        W39658  18.592  30.590   2.208
71254W        W39659  33.446  30.586  10.891
71255W        W39660  40.562  32.182   0.364
71256W        W39661   3.293  18.143  12.089
71257W        W39662  38.897  21.503   4.179
71258W        W39663  16.575   3.464  11.611
71259W        W39664   1.428  34.658  12.589
71260W        W39665  33.344  18.072  12.537
71261W        W39666  39.456  11.068  13.362
71262W        W39667  17.235  44.789   2.199
71263W        W39668  14.705  32.463  14.075
71264W        W39669   7.621   4.787  12.379
71265W        W39670   3.742  21.127  12.965
71266W        W39671  38.032   0.535   3.734
71267W        W39672  36.796  42.927   1.295
71268W        W39673  13.723  17.618   2.290
71269W        W39674  10.053  38.578  11.207
71270W        W39675  10.361   7.052  14.829
71271W        W39676  28.934  29.455   3.276
71272W        W39677  44.287   3.828  12.457
71273W        W39678  15.239   8.191   0.835
71274W        W39679   5.878  12.255   3.532
71275W        W39680  23.635   9.217  13.414
71276W        W39681  10.961  22.712  10.889
71277W        W39682  21.128  38.566  14.916
71278W        W39683  43.027  21.153  12.106
71279W        W39684  40.927  25.612   0.764
71280W        W39685  38.458  22.758   2.309
71281W        W39686  17.567   4.282   0.578
71282W        W39687  11.940   6.434  13.474
71283W        W39688  42.198  36.417   0.389
71284W        W39689  15.328   8.952  11.114
71285W        W39690  22.504  36.232  10.545
71286W        W39691  27.085   0.805  11.534
71287W        W39692  13.207  21.636  11.898
71288W        W39693  22.143  11.364   1.878
71289W        W39694  11.593  36.784  12.124
71290W        W39695  36.017  27.456  11.235
71291W        W39696  19.647  34.729  14.202
71292W        W39697  35.134   9.772  12.443
71293W        W39698  38.508  20.115  14.554
71294W        W39699   5.799   2.758   3.459
71295W        W39700  26.509  36.193   4.665
71296W        W39701   5.802  34.569  10.880
71297W        W39702   9.854  30.344  12.025
71298W        W39703   4.829  32.270  10.231
71299W        W39704  34.377  39.805   1.476
71300W        W39705  33.626  30.312   0.187
71301W        W39706  29.464  29.163  13.516
71302W        W39707  38.103  43.698   2.263
71303W        W39708  24.769  33.386  11.246
71304W        W39709  26.711  44.056   4.074
71305W        W39710  41.988  15.752  10.460
71306W        W39711  29.686  41.945   0.225
71307W        W39712   2.400  40.954   4.480
71308W        W39713  28.907   1.660   4.789
71309W        W39714  38.145  22.170   0.879
71310W        W39715   1.006  14.618  11.071
71311W        W39716  23.926  41.540  11.532
71312W        W39717  12.357  29.252   3.859
71313W        W39718  30.653  15.127  13.967
71314W        W39719  10.996   2.290  12.576
71315W        W39720  34.610  44.427   0.550
71316W        W39721  21.764  39.567  11.099
71317W        W39722  32.535  39.872  11.396
71318W        W39723  13.961  15.758  11.944
71319W        W39724   3.872   7.290   0.769
71320W        W39725  42.377  31.492   3.183
71321W        W39726  28.545  30.537   4.784
71322W        W39727   7.216   3.516  10.751
71323W        W39728  41.505  31.711  13.956
71324W        W39729   4.906  41.724  12.052
71325W        W39730   8.084   5.453  11.475
71326W        W39731  35.528  13.828   0.653
71327W        W39732   1.072   0.393   0.256
71328W        W39733  22.255  13.640   0.726
71329W        W39734  24.607  20.273  14.734
71330W        W39735  35.062   4.061   1.862
71331W        W39736  42.268   7.737   0.680
71332W        W39737  39.679  33.859  11.170
71333W        W39738  37.354  44.485  14.476
71334W        W39739  44.908  10.208  10.135
71335W        W39740  10.928  15.065  12.982
71336W        W39741  29.559  34.835  11.855
71337W        W39742  17.604  24.106   3.376
71338W        W39743  24.035  10.838  11.584
71339W        W39744  33.404  30.497   2.207
71340W        W39745  40.808  16.905  13.897
71341W        W39746  44.213  35.016   0.366
71342W        W39747  13.544  22.156  13.905
71343W        W39748  11.796  20.981  12.013
71344W        W39749   0.208  43.017  11.147
71345W        W39750  31.368  13.822   0.728
71346W        W39751  30.513  41.963  12.570
71347W        W39752  25.485  35.619  11.142
71348W        W39753  15.259  38.624   3.852
71349W        W39754   7.842   6.295  11.293
71350W        W39755  32.460  44.060   4.704
71351W        W39756  23.791  23.177  12.933
71352W        W39757   3.796  29.625  14.892
71353W        W39758  36.387  42.906   3.192
71354W        W39759  30.335   1.412   1.572
71355W        W39760   8.868  26.645  12.579
71356W        W39761   0.938  14.791   3.278
71357W        W39762  22.129  10.089   3.343
71358W        W39763  19.668  22.833   4.448
71359W        W39764   8.571  33.674   5.135
71360W        W39765   3.243  42.849  14.084
71361W        W39766  17.706  10.531  11.520
71362W        W39767  30.885  33.003   3.332
71363W        W39768  27.372  34.398  10.790
71364W        W39769   5.199  44.205   3.697
71365W        W39770  41.850   1.714  10.412
71366W        W39771  14.311  13.329  12.059
71367W        W39772  12.229  27.713   4.530
71368W        W39773   2.264  14.908   1.008
71369W        W39774  21.021  16.831   1.334
71370W        W39775  10.378  12.174   0.887
71371W        W39776  23.095  41.018   0.335
71372W        W39777   3.028  10.389  12.395
71373W        W39778   7.171  28.411  10.144
71374W        W39779  35.492  14.503   3.102
71375W        W39780  21.645  27.702   2.748
71376W        W39781  39.012  17.287  12.030
71377W        W39782  40.583  12.367  10.297
71378W        W39783  38.579  38.536  14.478
71379W        W39784   8.589  32.354   1.794
71380W        W39785  16.163  11.689  14.435
71381W        W39786  22.018  27.386   0.421
71382W        W39787  28.690  39.988   1.190
71383W        W39788  26.903  39.398  12.835
71384W        W39789  27.892  44.274   4.995
71385W        W39790  21.534  42.658   0.213
71386W        W39791  13.986   8.232  14.939
71387W        W39792  25.652   7.617  11.056
71388W        W39793  21.999  31.677   0.132
71389W        W39794  31.843  39.461   2.080
71390W        W39795   0.675  26.923   4.855
71391W        W39796  13.086   9.448   0.026
71392W        W39797  25.658   1.080  10.304
71393W        W39798  15.647  19.244  12.475
71394W        W39799   5.927  16.062   5.688
71395W        W39800  32.018  40.044   0.747
71396W        W39801  16.300  21.774   4.585
71397W        W39802  37.830  41.400  14.981
71398W        W39803  16.272  20.561   0.911
71399W        W39804  19.708  15.400  11.605
71400W        W39805   9.820  44.660  12.102
71401W        W39806  12.173  30.156  12.372
71402W        W39807  32.118  23.923  14.950
71403W        W39808  40.312  14.296  12.189
71404W        W39809  22.690  33.826  11.105
71405W        W39810  20.162  18.294   2.689
71406W        W39811  34.431  42.721   1.554
71407W        W39812   3.564  26.577  10.525
71408W        W39813  30.176  37.121  13.910
71409W        W39814  35.042  30.108  11.142
71410W        W39815  21.818  23.202   4.954
71411W        W39816  38.425  44.524   2.826
71412W        W39817  33.333  38.583   4.694
71413W        W39818  39.476  39.444   2.331
71414W        W39819  31.121  27.136  12.137
71415W        W39820  13.847  44.393   3.185
71416W        W39821   1.478  29.960   1.764
71417W        W39822  43.176  11.071  12.103
71418W        W39823  19.445  37.960  10.783
71419W        W39824  25.605  28.329  13.067
71420W        W39825   4.848  11.870   3.214
71421W        W39826   3.534  26.060  11.304
71422W        W39827  10.412  12.996  14.078
71423W        W39828   7.930  21.242   2.291
71424W        W39829  13.245  28.205   1.189
71425W        W39830   1.691  30.446   1.865
71426W        W39831  11.240  12.619  10.445
71427W        W39832  28.648   5.995  11.179
71428W        W39833  28.128  24.648   2.865
71429W        W39834  13.061  15.153   3.904
71430W        W39835  12.168  43.210   0.704
71431W        W39836  42.219   2.675   4.202
71432W        W39837  26.328   8.937   2.703
71433W        W39838   1.383  35.040   1.619
71434W        W39839  27.874  35.960  13.427
71435W        W39840  42.466   9.094  14.399
71436W        W39841  39.365  20.519   2.707
71437W        W39842   2.653  34.579  10.293
71438W        W39843  22.942   2.661  11.853
71439W        W39844  25.521  29.095  10.649
71440W        W39845   7.689  14.393  13.324
71441W        W39846   8.028  38.043  12.085
71442W        W39847  10.076  29.171  11.134
71443W        W39848  39.879   6.255  12.515
71444W        W39849  42.081  34.607   2.971
71445W        W39850  38.363   4.203   1.301
71446W        W39851   4.731  34.619   3.091
71447W        W39852  22.310  25.781  14.350
71448W        W39853  44.472  41.597  12.990
71449W        W39854  44.983  37.536  14.826
71450W        W39855  24.938  10.770  11.921
71451W        W39856  20.518  11.641  14.375
71452W        W39857   3.568  23.117   4.327
71453W        W39858  10.482   8.466  11.132
71454W        W39859  13.284  40.166  13.464
71455W        W39860  27.363  38.159   0.955
71456W        W39861  15.524   2.180   1.805
71457W        W39862   9.367  32.181  14.582
71458W        W39863  22.789   6.359  14.265
71459W        W39864   3.854  39.487   1.317
71460W        W39865  20.131  17.658  12.892
71461W        W39866  11.064  24.077  11.719
71462W        W39867  38.426  28.851  12.177
71463W        W39868  42.473  36.897   5.051
71464W        W39869  28.580   8.624   2.257
71465W        W39870  16.914  22.573   0.034
71466W        W39871  40.633  44.471   4.106
71467W        W39872  26.273  31.860  11.942
71468W        W39873  16.212  12.108  14.822
71469W        W39874  39.788  29.274  10.949
71470W        W39875  30.505   3.667   1.783
71471W        W39876  17.038  26.069  10.575
71472W        W39877  42.451   6.322   2.171
71473W        W39878  36.588  26.233   1.412
71474W        W39879  27.612  25.964  11.518
71475W        W39880  11.702   5.401   1.812
71476W        W39881  31.141  29.782  13.077
71477W        W39882  34.900  24.248   2.426
71478W        W39883  19.457   6.207  10.200
71479W        W39884  22.443  36.991   0.811
71480W        W39885   5.365  29.155   2.508
71481W        W39886  20.759  30.615   2.026
71482W        W39887  43.759  26.929   2.685
71483W        W39888  23.173  14.791   2.759
71484W        W39889   4.387  44.399   3.991
71485W        W39890  35.119  31.186  12.023
71486W        W39891  34.502  12.991   4.070
71487W        W39892  29.167  27.781   4.761
71488W        W39893   6.772  17.320  10.435
71489W        W39894   2.989  14.846  11.068
71490W        W39895   8.637  43.462   3.244
71491W        W39896  43.413  40.560   3.677
71492W        W39897  11.173   8.311  11.556
71493W        W39898  43.027  16.516  13.555
71494W        W39899  21.972  35.226  12.947
71495W        W39900  27.544  18.274   2.512
71496W        W39901  27.251  22.590  12.808
71497W        W39902  30.670   0.225  12.909
71498W        W39903   6.068  14.165  10.704
71499W        W39904  22.685   4.971   0.287
71500W        W39905  25.503   4.990   4.559
71501W        W39906  16.155  16.736  13.819
71502W        W39907   9.794   4.030   0.756
71503W        W39908  38.816  38.847   2.237
71504W        W39909  43.059  43.273  13.495
71505W        W39910  11.849  27.649  13.546
71506W        W39911  26.713  14.560   4.025
71507W        W39912  36.823  17.602   3.036
71508W        W39913  32.649  14.837  13.439
71509W        W39914  20.115   6.970  10.791
71510W        W39915  19.501  17.144  14.643
71511W        W39916   2.287  25.020   5.094
71512W        W39917  24.284  24.566   2.723
71513W        W39918  17.597  21.046   3.670
71514W        W39919   5.273  27.177  14.713
71515W        W39920   8.785  18.207   1.732
71516W        W39921  20.709  30.643   3.355
71517W        W39922  29.022  39.954   4.177
71518W        W39923  40.704  22.186  11.019
71519W        W39924   6.380  30.607  12.852
71520W        W39925  26.056  25.740  10.639
71521W        W39926  27.732  43.200   3.327
71522W        W39927   4.687  34.599  14.036
71523W        W39928  42.356  19.254   1.313
71524W        W39929  23.890  42.792   2.557
71525W        W39930  19.110  24.279   3.658
71526W        W39931  11.884  25.926   0.396
71527W        W39932  42.376  34.320   2.659
71528W        W39933  34.507  31.876  11.964
71529W        W39934  13.737  41.342   1.426
71530W        W39935  13.903  27.440  13.439
71531W        W39936   9.834  14.492  11.565
71532W        W39937  15.180  26.335   1.751
71533W        W39938  25.246  12.126  12.486
71534W        W39939   4.548  22.703   4.984
71535W        W39940  14.655  10.730   1.388
71536W        W39941  34.027  33.357   2.796
71537W        W39942  24.449  40.342   4.300
71538W        W39943  37.828  13.321   2.879
71539W        W39944  43.401  13.511   0.447
71540W        W39945  18.832  19.783   5.070
71541W        W39946  27.170  38.388   2.390
71542W        W39947  13.963   1.683   1.219
71543W        W39948  42.626  14.311  13.610
71544W        W39949  22.330  41.030   3.257
71545W        W39950   9.341  15.786  11.735
71546W        W39951  29.850  36.930   1.523
71547W        W39952  41.802   7.999   0.725
71548W        W39953  37.589  13.416   4.202
71549W        W39954  12.400   1.911   3.710
71550W        W39955  25.529  44.516  14.341
71551W        W39956  40.917  31.148  14.837
71552W        W39957  12.839   4.724   4.550
71553W        W39958   5.831  36.955   4.818
71554W        W39959  37.442  43.762   4.987
71555W        W39960  43.449  44.439  10.658
71556W        W39961  24.691  19.665   1.250
71557W        W39962  25.653  10.866  11.327
71558W        W39963   2.075  33.148  11.022
71559W        W39964  10.948  20.146  13.084
71560W        W39965  36.463  37.402   2.732
71561W        W39966  19.211  26.108  12.076
71562W        W39967   5.872  34.621   4.063
71563W        W39968  28.961   8.232  10.785
71564W        W39969  34.616  15.750  10.406
71565W        W39970  10.939  15.141   3.109
71566W        W39971   5.896  13.021  11.561
71567W        W39972   7.308   1.696   0.949
71568W        W39973  39.809  22.086  11.595
71569W        W39974  43.734  44.347   1.824
71570W        W39975  42.635  36.198   3.991
71571W        W39976  36.253  37.978   3.643
71572W        W39977   7.899   6.594   3.146
71573W        W39978  27.391  24.963  11.792
71574W        W39979  41.625  28.453  13.419
71575W        W39980   4.384  23.511   1.682
71576W        W39981  29.075  41.822   0.177
71577W        W39982  33.243  14.727  14.151
71578W        W39983   2.498  19.290  10.877
71579W        W39984   4.794  21.273  12.643
71580W        W39985  44.905   4.038  11.627
71581W        W39986  22.484  36.831   1.760
71582W        W39987   5.858  38.493  14.541
71583W        W39988   4.823   7.469   3.948
71584W        W39989  12.674  14.236  10.568
71585W        W39990  17.002  14.202  12.757
71586W        W39991   0.418  33.404  11.839
71587W        W39992  23.468   0.810  14.483
71588W        W39993  15.670   1.550  10.197
71589W        W39994  18.769  26.354   4.966
71590W        W39995  36.479  40.879   0.554
71591W        W39996  28.970  22.172   2.109
71592W        W39997  28.677   5.862   0.827
71593W        W39998   5.848  33.160   0.720
71594W        W39999   1.909  23.194   2.819
71595W        W40000  11.704  30.138  12.152
71596W        W40001  29.417  40.401   1.274
71597W        W40002  37.583  31.484  13.512
71598W        W40003  37.542  11.826   2.238
71599W        W40004   1.976  29.000   2.748
71600W        W40005  31.561  42.757   4.088
71601W        W40006  24.099   5.752  12.975
71602W        W40007   8.893   9.622  12.983
71603W        W40008  24.209   4.940  14.292
71604W        W40009  40.021  39.284   3.177
71605W        W40010  38.585  27.019   4.758
71606W        W40011  27.178   2.975   1.927
71607W        W40012  17.532   6.832  14.158
71608W        W40013   7.446  22.733   4.778
71609W        W40014  12.563  34.561   0.302
71610W        W40015  14.197  18.901   1.460
71611W        W40016   5.697  37.905  11.901
71612W        W40017  19.792  15.375  12.548
71613W        W40018  16.266  43.824   2.436
71614W        W40019   5.970   7.764   0.388
71615W        W40020  17.066  38.275  11.237
71616W        W40021  11.447  29.132   0.946
71617W        W40022  31.967   7.556  14.867
71618W        W40023  17.534  39.850  14.400
71619W        W40024  14.256  35.416   0.820
71620W        W40025  27.085  34.425  11.213
71621W        W40026   6.898  31.575   1.277
71622W        W40027  18.977  19.206   0.371
71623W        W40028  41.649  38.872   4.041
71624W        W40029  15.711  40.734  13.282
71625W        W40030  18.248  26.684   3.437
71626W        W40031  22.641  10.606   0.560
71627W        W40032  38.800   4.941   1.397
71628W        W40033  18.157  41.011   4.540
71629W        W40034  27.597  11.220  14.424
71630W        W40035  26.727   7.872   1.387
71631W        W40036  27.968  13.413  14.363
71632W        W40037   7.328  21.013  11.583
71633W        W40038  31.824  34.946   2.738
71634W        W40039  12.696  36.479  14.883
71635W        W40040  24.578   2.918  10.674
71636W        W40041  22.533  20.220   3.735
71637W        W40042  34.088  16.292  10.491
71638W        W40043  43.072  40.347  10.714
71639W        W40044   8.673  24.054  12.649
71640W        W40045   0.903  43.774  11.179
71641W        W40046  36.994  40.178  10.635
71642W        W40047   1.197   2.935  12.414
71643W        W40048  23.588  44.038   2.450
71644W        W40049  14.024  29.029  13.822
71645W        W40050  42.425  14.133  12.740
71646W        W40051   8.342  41.870  14.019
71647W        W40052  20.048  37.836  13.129
71648W        W40053  37.017  37.445   1.755
71649W        W40054  28.594  29.138  10.344
71650W        W40055  36.439   2.896   3.664
71651W        W40056   3.350  37.042   2.912
71652W        W40057  43.441   9.060  13.758
71653W        W40058   9.257   1.712  13.876
71654W        W40059  27.192  35.342   2.780
71655W        W40060  19.670   5.235  13.399
71656W        W40061  30.051  35.002  12.062
71657W        W40062  31.867  24.131  14.512
71658W        W40063   6.829   3.752   1.927
71659W        W40064  10.872  22.225   1.339
71660W        W40065  31.755  36.896   1.819
71661W        W40066   3.905  38.438   4.031
71662W        W40067  24.821  26.235   1.259
71663W        W40068  13.087  15.601  14.667
71664W        W40069  38.540   1.092   3.856
71665W        W40070  41.741  34.372  12.490
71666W        W40071  32.580  13.101  14.181
71667W        W40072  39.463  27.704  14.295
71668W        W40073  23.819  33.944   1.955
71669W        W40074  14.211  29.451   4.536
71670W        W40075   3.176  10.720  11.036
71671W        W40076  26.150  19.766  14.508
71672W        W40077  24.705  25.741   1.268
71673W        W40078  39.795  37.531   3.660
71674W        W40079  33.566   8.042   0.765
71675W        W40080  28.184  20.756  13.585
71676W        W40081  36.947   1.742  10.847
71677W        W40082  21.188  37.782   4.130
71678W        W40083  13.212  36.556  14.965
71679W        W40084  14.650   0.759  14.939
71680W        W40085  23.421  36.077  12.158
71681W        W40086  37.813   7.099   0.966
71682W        W40087  24.956  24.380  13.426
71683W        W40088   5.893  19.562  10.794
71684W        W40089  22.892  22.048  14.819
71685W        W40090   9.543  25.285  12.321
71686W        W40091  12.343  23.720   0.934
71687W        W40092  34.192  38.814   1.189
71688W        W40093  22.218  41.959  13.483
71689W        W40094  21.482  15.596   1.822
71690W        W40095   9.061  16.125  14.592
71691W        W40096  18.248  19.669  10.554
71692W        W40097  30.903  27.400   2.545
71693W        W40098   7.479  27.929   5.026
71694W        W40099  41.317   3.680   1.889
71695W        W40100   5.306  37.410  12.521
71696W        W40101   8.110  16.050  12.974
71697W        W40102  24.494  11.624   3.109
71698W        W40103  13.834  19.639  13.457
71699W        W40104  44.522  12.629   3.144
71700W        W40105  22.841  24.418  14.606
71701W        W40106  44.901  10.974  11.994
71702W        W40107   0.753  22.683  13.086
71703W        W40108  26.535  39.621   5.025
71704W        W40109   7.327   0.575   2.292
71705W        W40110  42.789  44.634  12.176
71706W        W40111  42.521  19.853   4.071
71707W        W40112  31.482  13.290  14.979
71708W        W40113   9.414  21.074   4.231
71709W        W40114  33.338  39.842   2.925
71710W        W40115  23.933  18.620   2.400
71711W        W40116  36.463  44.868   2.850
71712W        W40117  12.133  14.898  13.914
71713W        W40118  24.559  32.641  13.241
71714W        W40119   7.487  32.740   3.881
71715W        W40120  33.099  31.463  13.894
71716W        W40121  15.702   4.263  12.769
71717W        W40122  32.571  12.170   3.793
71718W        W40123  32.319  38.590  10.599
71719W        W40124   6.876  30.010   0.302
71720W        W40125   7.525  38.755   0.988
71721W        W40126  40.511  39.132   4.438
71722W        W40127  38.013  28.132   4.322
71723W        W40128  28.711   2.658  12.419
71724W        W40129  17.261  40.932   1.988
71725W        W40130   6.906  21.044   0.123
71726W        W40131  37.753  41.585  11.554
71727W        W40132   8.836   5.372  14.391
71728W        W40133   6.667  18.937   2.115
71729W        W40134  20.466  38.004  14.408
71730W        W40135  28.431  44.394  13.278
71731W        W40136  37.152  12.770   1.827
71732W        W40137  14.770  10.153  10.660
71733W        W40138  24.555  22.561  12.139
71734W        W40139  25.150   0.349   3.602
71735W        W40140  31.496  25.126   2.361
71736W        W40141  15.067  30.502  14.000
71737W        W40142  38.139  33.450   3.117
71738W        W40143  23.593   0.449  13.492
71739W        W40144  44.001  11.263  10.656
71740W        W40145   3.059  16.561  12.482
71741W        W40146   1.237   8.054  11.663
71742W        W40147  31.529   0.296  13.791
71743W        W40148  43.864   7.381  11.329
71744W        W40149  25.700  29.599  11.571
71745W        W40150  36.334  23.794  11.910
71746W        W40151  34.250  11.439  14.998
71747W        W40152  24.575  14.264   2.386
71748W        W40153  29.007  11.709  14.851
71749W        W40154   0.264  21.295   4.245
71750W        W40155  30.437   9.865   0.192
71751W        W40156  17.957  31.987  13.463
71752W        W40157  15.046   7.871  10.016
71753W        W40158  33.032  14.667   4.601
71754W        W40159  24.288  10.003  14.406
71755W        W40160  12.628  26.985  11.094
71756W        W40161  12.350  44.920  13.436
71757W        W40162  15.854  40.108  11.872
71758W        W40163  11.547  44.923   0.291
71759W        W40164  28.464  24.552   4.629
71760W        W40165  13.661   8.315   2.888
71761W        W40166  42.711  38.044  11.925
71762W        W40167  35.309  43.537  12.012
71763W        W40168  36.559   7.424   4.426
71764W        W40169  37.443  27.263  11.662
71765W        W40170  42.812  39.925  14.642
71766W        W40171  37.319  14.666  10.713
71767W        W40172  26.494  13.543   4.222
71768W        W40173   9.661  16.049   0.398
71769W        W40174  19.662  34.333  14.535
71770W        W40175  42.762  31.137   0.352
71771W        W40176  44.951  34.071  14.476
71772W        W40177   5.627  23.526   4.532
71773W        W40178  28.481  12.709   2.268
71774W        W40179  14.598   4.504  13.941
71775W        W40180  39.105  17.038   5.112
71776W        W40181  33.288  17.787  13.049
71777W        W40182  33.032  40.057  12.210
71778W        W40183  15.506  18.038  12.446
71779W        W40184  18.771  40.299  12.441
71780W        W40185  22.729  25.236   9.881
71781W        W40186   6.620   6.472   3.648
71782W        W40187  40.772   7.841   4.054
71783W        W40188  37.003  28.978   1.517
71784W        W40189   7.828   7.251  14.236
71785W        W40190   5.906  38.521   2.695
71786W        W40191  43.946  11.747  13.253
71787W        W40192  31.044  32.554   4.028
71788W        W40193   4.271  19.479  11.249
71789W        W40194  15.479  40.377   1.291
71790W        W40195  16.299  24.199  11.250
71791W        W40196   3.685   6.887  14.987
71792W        W40197  36.659  25.055  11.542
71793W        W40198  29.420   1.318  12.487
71794W        W40199  23.025   6.896   0.703
71795W        W40200  33.114  33.729   0.532
71796W        W40201  11.184   6.061  14.435
71797W        W40202  37.660  21.229   3.871
71798W        W40203  38.302  40.099  13.304
71799W        W40204  34.927  15.080  14.026
71800W        W40205  38.000  43.950   4.370
71801W        W40206  17.564  13.799  11.963
71802W        W40207  14.335  32.171  10.916
71803W        W40208  22.125  15.670  11.403
71804W        W40209  17.611   8.721  12.859
71805W        W40210  30.927  25.097  13.862
71806W        W40211  36.382  37.088  11.093
71807W        W40212  34.516  11.962  10.625
71808W        W40213  16.301  15.585  10.901
71809W        W40214  32.193  27.084   1.467
71810W        W40215  37.781  16.158  11.083
71811W        W40216  39.520  38.263  11.076
71812W        W40217  32.267  30.872  11.043
71813W        W40218  37.477  20.641   1.698
71814W        W40219   9.274  37.604  10.419
71815W        W40220  33.628   2.071   4.634
71816W        W40221  27.801  40.253  13.703
71817W        W40222  35.558  22.561  10.706
71818W        W40223  26.173  12.156  11.341
71819W        W40224   3.255  28.608   0.563
71820W        W40225  30.581  30.904  12.406
71821W        W40226  40.456  37.264   5.397
71822W        W40227  34.167  28.191   3.734
71823W        W40228   6.206  43.141   9.753
71824W        W40229   7.660  11.250   2.856
71825W        W40230   4.680  21.289   3.856
71826W        W40231   9.151   6.894  12.082
71827W        W40232  41.050   6.343  11.872
71828W        W40233  34.495  34.194  14.851
71829W        W40234   8.206   4.576  14.358
71830W        W40235  12.811   3.662   4.074
71831W        W40236  30.877  29.149  11.078
71832W        W40237  34.703   1.736   4.576
71833W        W40238  25.501  26.810   3.738
71834W        W40239  36.955  31.065   4.471
71835W        W40240  24.041   2.525   2.355
71836W        W40241  21.182  33.172   2.832
71837W        W40242  35.908  37.817  13.983
71838W        W40243  12.877  12.736  14.859
71839W        W40244  33.071  36.236   0.332
71840W        W40245  33.915   0.046   1.801
71841W        W40246  36.360  33.493  13.492
71842W        W40247  40.417   9.227   2.749
71843W        W40248  32.754  28.287  11.834
71844W        W40249  23.543  16.446   0.471
71845W        W40250  11.924  21.656  10.585
71846W        W40251  21.023   6.741  11.181
71847W        W40252   1.723  39.060   2.800
71848W        W40253   5.212  38.726   4.153
71849W        W40254  27.610  27.695   3.887
71850W        W40255  18.456  22.008   1.763
71851W        W40256  26.498  28.594   0.224
71852W        W40257   6.745  33.118   1.241
71853W        W40258  15.781  30.575   4.161
71854W        W40259   0.367  19.835  14.608
71855W        W40260  37.872  27.436  13.448
71856W        W40261  41.485  30.123  10.764
71857W        W40262  21.665  22.306   1.440
71858W        W40263   4.244  27.636   4.881
71859W        W40264   3.937  21.946   2.878
71860W        W40265  38.580   9.375  14.416
71861W        W40266  37.294  40.307  13.312
71862W        W40267  37.085  40.801   1.497
71863W        W40268   0.553  19.903   2.893
71864W        W40269  20.470  40.854  12.928
71865W        W40270  19.078  18.942  11.863
71866W        W40271   6.182   1.715  11.624
71867W        W40272   8.733  23.960   0.816
71868W        W40273  34.312  20.111   0.390
71869W        W40274  11.234  25.729   2.278
71870W        W40275  39.480   5.828   2.381
71871W        W40276  24.989  15.608  13.042
71872W        W40277  38.366  17.577   4.165
71873W        W40278  18.996  38.139  13.505
71874W        W40279  31.044   1.250   0.919
71875W        W40280   6.164  14.789  13.850
71876W        W40281   3.400  14.992  14.408
71877W        W40282  40.492  22.525   0.407
71878W        W40283  22.660  40.016   4.152
71879W        W40284  12.027  41.391   1.324
71880W        W40285  28.971  43.405  12.538
71881W        W40286  21.315  40.362   2.322
71882W        W40287  29.092  42.106   5.440
71883W        W40288  32.902  14.919  12.133
71884W        W40289  31.430   0.783  13.580
71885W        W40290  31.878  41.432  14.062
71886W        W40291  11.514  12.234   2.400
71887W        W40292  15.257  38.346  11.530
71888W        W40293  17.260  43.404   1.758
71889W        W40294  17.154  18.207   2.787
71890W        W40295  23.328   0.769  11.029
71891W        W40296  21.497  23.709  13.809
71892W        W40297   3.857  11.022  13.469
71893W        W40298  38.071  13.090  11.812
71894W        W40299   3.683  33.785   1.859
71895W        W40300   2.258  18.443  12.085
71896W        W40301  13.340  12.822  10.260
71897W        W40302  43.938  10.750  13.316
71898W        W40303  16.511  41.592   2.305
71899W        W40304   2.458  31.118  13.983
71900W        W40305   6.409   9.572   0.428
71901W        W40306  32.498  41.153   1.765
71902W        W40307  18.062  20.793   3.743
71903W        W40308  11.123  40.984  13.798
71904W        W40309  26.862   1.304  10.711
71905W        W40310  39.959  30.162   0.453
71906W        W40311  34.068  17.227  10.812
71907W        W40312  36.285  32.014   9.843
71908W        W40313  18.415   2.958   2.930
71909W        W40314  22.213  42.911   3.529
71910W        W40315  13.253  25.952  11.681
71911W        W40316   5.884  17.659   1.885
71912W        W40317   6.677  21.889   0.405
71913W        W40318  27.789  24.264  13.506
71914W        W40319  21.040  21.217   1.765
71915W        W40320  39.518  28.535   1.038
71916W        W40321   6.132  11.886  14.919
71917W        W40322  26.901  25.515  13.085
71918W        W40323  35.854   6.554   2.248
71919W        W40324  14.379  18.115  14.480
71920W        W40325  37.477   0.343   0.946
71921W        W40326  23.497  42.474   4.822
71922W        W40327   4.049  10.053  12.623
71923W        W40328  36.090  20.009  14.336
71924W        W40329  44.230  37.930   3.683
71925W        W40330  24.742  41.274  11.491
71926W        W40331  44.970   7.773   1.340
71927W        W40332  29.143   2.474   3.178
71928W        W40333  24.502  32.767   3.797
71929W        W40334  21.578  25.164   1.090
71930W        W40335  40.327  20.096  13.024
71931W        W40336  14.880  26.958   0.105
71932W        W40337  29.643  35.342  12.054
71933W        W40338   2.431  31.558  12.354
71934W        W40339   8.457   0.758  11.039
71935W        W40340   8.892   2.280   2.156
71936W        W40341  22.784  11.099  13.073
71937W        W40342  27.897  41.934  13.957
71938W        W40343  42.734   7.943   0.757
71939W        W40344   3.301  32.083  10.050
71940W        W40345   9.189  38.756  13.066
71941W        W40346  22.566   3.396  10.936
71942W        W40347   1.006  40.797  14.757
71943W        W40348  17.311  31.801   2.672
71944W        W40349  41.537  11.446  12.590
71945W        W40350  20.937  28.589   4.548
71946W        W40351   5.209  10.691   1.791
71947W        W40352  26.219   6.922  11.665
71948W        W40353  13.028   4.296   1.658
71949W        W40354  44.157  27.143   4.054
71950W        W40355   7.140  12.167   1.056
71951W        W40356  12.381   8.885   2.919
71952W        W40357  38.624  16.116   4.950
71953W        W40358  39.090  23.134   2.675
71954W        W40359  17.794  41.019   1.860
71955W        W40360  14.375  31.967   2.821
71956W        W40361  27.474  30.630   2.296
71957W        W40362  18.552  28.196   1.926
71958W        W40363   6.890   8.635   1.368
71959W        W40364  44.828  12.858  13.336
71960W        W40365  14.704  43.898  13.844
71961W        W40366   4.369  35.896   0.282
71962W        W40367   0.402  40.536   3.345
71963W        W40368  24.090  37.343   4.961
71964W        W40369  10.240  28.632  10.845
71965W        W40370  24.702  17.865   4.180
71966W        W40371  14.228  35.873   4.291
71967W        W40372   2.588   7.320  10.699
71968W        W40373  43.948   8.617   3.168
71969W        W40374   8.876  20.194   4.171
71970W        W40375  11.467  44.244   1.468
71971W        W40376   2.094  19.772   4.146
71972W        W40377  33.953   3.395  13.593
71973W        W40378  42.806  32.451  13.422
71974W        W40379  13.576  41.471  13.841
71975W        W40380  34.546  33.713  14.978
71976W        W40381  30.596  17.171   1.960
71977W        W40382  35.419  28.470  13.899
71978W        W40383  21.065  43.020   4.063
71979W        W40384  37.871  33.986   4.378
71980W        W40385  24.515   9.092  14.355
71981W        W40386  26.432  34.938   0.096
71982W        W40387  31.157  21.138  10.641
71983W        W40388  36.411  40.823  14.511
71984W        W40389  43.551   9.095  11.089
71985W        W40390  17.995  24.584   0.148
71986W        W40391  28.399  31.154  11.654
71987W        W40392  44.616  22.546   1.708
71988W        W40393  12.107  36.492   3.477
71989W        W40394  37.542  22.991  10.881
71990W        W40395  16.301  21.788  11.987
71991W        W40396  41.595  21.283   4.152
71992W        W40397   8.697  13.826   4.939
71993W        W40398  37.025  23.768  14.869
71994W        W40399   2.176  42.076  11.169
71995W        W40400  34.134   5.717   1.106
71996W        W40401  41.316  31.208   3.455
71997W        W40402   3.719   4.285   4.704
71998W        W40403  15.234  35.002  10.446
71999W        W40404  30.457  31.899   4.163
72000W        W40405  10.858   2.792   2.736
72001W        W40406  30.621  26.092   0.400
72002W        W40407  28.254  27.985  12.695
72003W        W40408  43.414  39.512  14.063
72004W        W40409   7.320  39.506   4.575
72005W        W40410  36.180  20.303  10.552
72006W        W40411   6.452  18.146   1.368
72007W        W40412  32.552  37.631  13.796
72008W        W40413  18.209  39.313   0.404
72009W        W40414  10.453  44.433   1.290
72010W        W40415  20.912  22.494   0.705
72011W        W40416  11.531  18.846   3.622
72012W        W40417  10.450   4.217   3.843
72013W        W40418  10.367   2.191   3.676
72014W        W40419  33.695  31.129   2.178
72015W        W40420  39.981  22.646  12.748
72016W        W40421  28.583  23.178  12.177
72017W        W40422  25.501  37.381  11.734
72018W        W40423  19.315  17.550  14.358
72019W        W40424  43.948   2.676   0.544
72020W        W40425  32.894  25.504  11.691
72021W        W40426  24.036   2.433   4.554
72022W        W40427  21.897  32.162   4.020
72023W        W40428   8.437  35.369  13.016
72024W        W40429  33.295  21.982  13.491
72025W        W40430  28.949   9.634   3.341
72026W        W40431  38.750  24.655   3.574
72027W        W40432  44.929  41.018   4.291
72028W        W40433   9.902  35.366  10.167
72029W        W40434   6.432  24.074  11.355
72030W        W40435  26.962  29.599   0.354
72031W        W40436   1.315   1.822   0.250
72032W        W40437  21.483  42.223  14.323
72033W        W40438  20.764  39.770   1.264
72034W        W40439   8.260  35.177  12.528
72035W        W40440  31.611  30.559  11.580
72036W        W40441   1.697  14.271  13.439
72037W        W40442  34.177  31.825  12.791
72038W        W40443  39.387  27.190   1.683
72039W        W40444  13.418  23.359   0.282
72040W        W40445   3.790   7.705  12.855
72041W        W40446  10.608  30.069   4.096
72042W        W40447  31.919  15.681   4.604
72043W        W40448  15.286  26.977   4.418
72044W        W40449  33.166  42.800  12.795
72045W        W40450  30.091   6.455  10.853
72046W        W40451   2.446  19.222  10.369
72047W        W40452  35.526  35.062  14.932
72048W        W40453  34.938  23.608   5.054
72049W        W40454  14.753  29.856  12.650
72050W        W40455  44.800  20.059  10.631
72051W        W40456  42.468  12.695   2.121
72052W        W40457  11.709  43.361  11.875
72053W        W40458  10.424  27.069  10.723
72054W        W40459   0.903  44.897   1.849
72055W        W40460  27.083  39.441  11.831
72056W        W40461  33.861  28.385   0.318
72057W        W40462  37.307   0.969  14.037
72058W        W40463  20.808  43.137  14.777
72059W        W40464  23.272  44.840  10.840
72060W        W40465  37.527   7.611  10.357
72061W        W40466  34.799  34.062  13.564
72062W        W40467  24.637  19.133   2.009
72063W        W40468  12.900  30.940   2.805
72064W        W40469   6.516   6.731  11.912
72065W        W40470  44.691  24.615   2.347
72066W        W40471   2.490  29.569   5.064
72067W        W40472   3.785  33.145   2.686
72068W        W40473  16.750  13.672   2.574
72069W        W40474  21.081  14.280  13.423
72070W        W40475  32.216  17.077  11.552
72071W        W40476  18.678  32.178  11.992
72072W        W40477  18.551   9.703  10.808
72073W        W40478   9.934  30.164  13.295
72074W        W40479  28.669  42.954  13.573
72075W        W40480  44.314  43.158  13.759
72076W        W40481  17.519  39.029  12.454
72077W        W40482  19.056  34.578   3.284
72078W        W40483  25.153  29.354   2.686
72079W        W40484   1.815  12.726   1.677
72080W        W40485  30.007  41.890  12.473
72081W        W40486  19.959   1.885   3.552
72082W        W40487  30.991  24.928  10.709
72083W        W40488  24.107  21.752  14.354
72084W        W40489   7.139  25.429   0.956
72085W        W40490  19.027  44.208  11.513
72086W        W40491   7.346  39.241  11.795
72087W        W40492  21.523   6.197  14.902
72088W        W40493   3.082  33.729   4.301
72089W        W40494  14.150  40.898   4.693
72090W        W40495  21.762  18.246   0.215
72091W        W40496  24.714  37.015   3.709
72092W        W40497  44.925   8.880  10.498
72093W        W40498   0.029  27.023  11.970
72094W        W40499  36.758  17.593   1.825
72095W        W40500  40.343  25.762  14.942
72096W        W40501  22.670  19.707   1.367
72097W        W40502  34.132   6.458  12.024
72098W        W40503   2.992  23.996  14.347
72099W        W40504  26.616  14.986  14.053
72100W        W40505  28.508  24.588  11.903
72101W        W40506  44.423  30.655  12.077
72102W        W40507  29.507  14.249  13.088
72103W        W40508  18.864  35.425  14.277
72104W        W40509  20.130  43.444  14.523
72105W        W40510  34.868   7.169   0.242
72106W        W40511  33.558   6.189   2.875
72107W        W40512  30.071  39.096   1.261
72108W        W40513   0.000   0.354  11.898
72109W        W40514  27.779  38.688   4.649
72110W        W40515  34.437   4.814  12.074
72111W        W40516  35.649  41.331  13.284
72112W        W40517  23.123  13.456   4.645
72113W        W40518   5.376  40.008  10.693
72114W        W40519  30.617  19.037  13.139
72115W        W40520  37.404  19.283  11.611
72116W        W40521  33.883  23.778   1.909
72117W        W40522  24.770   4.289   3.800
72118W        W40523   6.727  36.286   0.424
72119W        W40524  14.818  33.520  14.960
72120W        W40525  21.250  26.584   2.270
72121W        W40526   7.226   1.408  10.944
72122W        W40527  26.993  14.175  13.753
72123W        W40528  43.465  10.043  13.390
72124W        W40529  31.771  24.533  12.429
72125W        W40530  28.050  44.515  14.036
72126W        W40531  36.982  27.738  11.003
72127W        W40532  12.835  33.134  11.123
72128W        W40533   1.849  36.058   0.961
72129W        W40534  26.503  39.511  13.158
72130W        W40535  15.697   8.708  11.369
72131W        W40536  31.116   0.867   4.201
72132W        W40537  32.193  32.053  12.105
72133W        W40538   5.643  14.321  13.273
72134W        W40539  24.211  20.475   0.000
72135W        W40540  24.463  18.255   1.964
72136W        W40541  36.512  10.175   4.064
72137W        W40542  22.236  12.169  11.955
72138W        W40543  10.229  28.842   3.150
72139W        W40544  26.813  15.628   4.672
72140W        W40545  43.771  19.009   0.927
72141W        W40546  42.547   4.125   2.324
72142W        W40547  36.491  37.876   4.596
72143W        W40548  14.572  13.771  14.462
72144W        W40549  33.340  33.441  11.445
72145W        W40550  22.066  23.244   2.766
72146W        W40551   5.924   4.730  14.218
72147W        W40552   7.455  42.304   2.677
72148W        W40553  32.414  21.092  13.758
72149W        W40554  28.679   0.275   0.537
72150W        W40555  29.149  37.382   0.375
72151W        W40556  27.867  42.894   1.676
72152W        W40557  31.999  34.451   0.500
72153W        W40558  32.456  27.935   2.848
72154W        W40559  19.562  40.282  11.936
72155W        W40560  32.886  12.098  12.503
72156W        W40561  27.318  44.460   2.666
72157W        W40562   4.498  29.314  10.246
72158W        W40563  16.932   9.504  11.701
72159W        W40564  31.846  42.739   0.029
72160W        W40565  38.262   8.209   3.255
72161W        W40566  28.219  26.721  10.640
72162W        W40567  12.296  16.267  11.094
72163W        W40568   9.900  27.667   1.624
72164W        W40569   4.809  15.776   3.548
72165W        W40570   2.438  23.147   1.921
72166W        W40571   5.872   4.864   1.286
72167W        W40572  24.502   6.104  14.651
72168W        W40573  27.504  44.020  14.354
72169W        W40574  27.782  35.448   4.691
72170W        W40575  38.653  36.273   1.309
72171W        W40576  42.163  34.966  10.783
72172W        W40577  41.833  41.590  12.943
72173W        W40578  29.928  16.556  14.000
72174W        W40579   0.456  35.273  10.483
72175W        W40580  17.155  10.140   2.366
72176W        W40581  34.883  35.556  10.970
72177W        W40582  33.366  39.270  10.778
72178W        W40583  28.261  42.120  10.563
72179W        W40584  43.571  31.672  14.394
72180W        W40585  41.315  33.477   4.974
72181W        W40586  33.046   4.893  10.153
72182W        W40587  43.958  36.293  12.547
72183W        W40588  41.259   3.183  14.485
72184W        W40589  40.747  22.637   3.112
72185W        W40590   7.255  24.760   3.791
72186W        W40591  17.494  33.706   0.555
72187W        W40592  28.011  10.424  13.513
72188W        W40593   9.216  23.894   4.678
72189W        W40594  21.179   0.813  14.532
72190W        W40595  40.990  29.418  14.446
72191W        W40596  26.248  18.613  11.646
72192W        W40597  38.914  13.682  12.839
72193W        W40598  39.705  36.276  13.881
72194W        W40599  41.212  31.577  14.773
72195W        W40600   0.360  42.120   2.376
72196W        W40601  26.560  20.522  14.907
72197W        W40602  42.615  34.656   0.695
72198W        W40603   0.684  11.562  12.928
72199W        W40604  22.167  40.314   2.779
72200W        W40605  10.179  13.832   2.575
72201W        W40606  37.253   5.921   1.796
72202W        W40607  10.628  39.819   0.818
72203W        W40608   8.534  16.806  11.257
72204W        W40609   3.925  39.274  10.521
72205W        W40610  11.564  24.052  11.521
72206W        W40611  35.537   0.404  14.783
72207W        W40612  22.250   4.377   4.152
72208W        W40613   6.132   7.478  14.908
72209W        W40614  12.238   7.453   2.655
72210W        W40615   6.384  13.756   1.382
72211W        W40616   4.933  27.955   3.172
72212W        W40617  33.941  11.151   1.312
72213W        W40618  37.992  39.126  12.557
72214W        W40619  43.073   9.318   0.602
72215W        W40620  32.368   2.686  11.952
72216W        W40621  19.928   6.479   1.864
72217W        W40622  29.403  15.149  12.057
72218W        W40623  31.185  36.863  12.489
72219W        W40624  17.392  16.230   3.984
72220W        W40625  18.318  27.415   4.469
72221W        W40626  34.961  23.531   3.596
72222W        W40627   1.495  29.640   4.715
72223W        W40628  41.269  13.787   0.325
72224W        W40629  19.504  40.466   4.877
72225W        W40630  14.854  20.676  11.269
72226W        W40631  13.097   7.122  14.673
72227W        W40632  41.561  26.850  11.699
72228W        W40633  39.472  18.741   1.225
72229W        W40634  27.695  26.530  12.427
72230W        W40635  25.582  24.720  14.113
72231W        W40636   7.851  22.635  14.814
72232W        W40637  21.309  32.468   3.789
72233W        W40638  41.661  23.842  12.990
72234W        W40639  21.704  18.289  14.259
72235W        W40640  35.046   3.409   2.737
72236W        W40641  18.732  12.152   3.362
72237W        W40642   5.877  16.679   0.269
72238W        W40643   6.510   4.859  14.953
72239W        W40644  31.971   7.732   1.759
72240W        W40645   4.004   2.424   2.936
72241W        W40646  40.507   2.224   4.726
72242W        W40647  17.003  21.184  10.284
72243W        W40648  37.580  31.834  11.696
72244W        W40649  17.257  19.985   2.175
72245W        W40650  28.421   1.902  14.148
72246W        W40651  37.421  19.044  12.912
72247W        W40652  13.295  34.248  12.373
72248W        W40653  35.516  14.576   4.603
72249W        W40654  16.524   2.494   0.338
72250W        W40655  26.320  41.179   3.746
72251W        W40656   0.079  39.957   0.836
72252W        W40657  22.290  44.120  11.946
72253W        W40658  40.989  17.108   3.740
72254W        W40659  41.382  16.656   4.401
72255W        W40660   9.209  25.139   2.348
72256W        W40661  17.422  22.738   2.243
72257W        W40662  37.480  17.929   3.773
72258W        W40663   1.537  44.792  10.707
72259W        W40664   1.835   3.307   1.807
72260W        W40665  40.012  32.963   4.970
72261W        W40666  28.215  12.886  13.428
72262W        W40667  17.292   3.381  10.728
72263W        W40668  29.929  44.867   0.841
72264W        W40669  15.746  34.625   0.637
72265W        W40670  12.287  36.957  11.497
72266W        W40671  27.148  28.303   2.350
72267W        W40672  11.654  33.664   1.823
72268W        W40673  20.536  34.704  14.960
72269W        W40674  30.381  11.416   3.386
72270W        W40675   6.420  14.534   3.262
72271W        W40676  32.053  44.582   3.386
72272W        W40677   7.058  32.073   1.241
72273W        W40678  38.042   4.835   3.841
72274W        W40679  33.908  22.757  13.571
72275W        W40680  19.129  20.942  11.071
72276W        W40681   2.877  28.494  13.826
72277W        W40682  13.825  21.377   5.145
72278W        W40683   8.952  14.161   0.236
72279W        W40684  29.036   2.888   4.115
72280W        W40685  42.909  21.527  14.425
72281W        W40686  11.140  24.147  14.350
72282W        W40687  41.690   2.738   4.292
72283W        W40688  30.129  17.530  12.567
72284W        W40689  21.752   8.119  12.425
72285W        W40690  14.197  21.038  13.211
72286W        W40691  12.618  18.597  11.523
72287W        W40692   0.890  31.388   0.826
72288W        W40693  20.692   4.156  12.666
72289W        W40694  21.363   1.294   2.703
72290W        W40695  38.127  28.925   0.282
72291W        W40696   4.624   5.477  10.625
72292W        W40697  23.509   6.914   4.024
72293W        W40698  35.076   5.209   1.865
72294W        W40699   1.919  43.741  13.389
72295W        W40700   8.115  27.657   2.720
72296W        W40701  25.078  33.548   0.799
72297W        W40702  44.428  28.119  11.577
72298W        W40703  28.848  10.893   0.595
72299W        W40704   5.200  22.094   1.349
72300W        W40705  10.484  33.335   3.289
72301W        W40706   1.962  36.816  12.550
72302W        W40707  34.558   2.287   4.649
72303W        W40708  27.535   5.547   2.174
72304W        W40709  16.800   4.142   3.116
72305W        W40710   3.271  22.679  12.026
72306W        W40711  35.319  31.951   4.344
72307W        W40712  19.790  15.130  14.894
72308W        W40713  42.193   6.320  11.130
72309W        W40714  19.282  39.094   3.247
72310W        W40715  20.595   4.485   2.264
72311W        W40716  13.130  20.151   3.152
72312W        W40717  21.044  38.855   3.291
72313W        W40718  27.161  12.224   1.275
72314W        W40719  29.359  17.168   2.662
72315W        W40720  25.153   1.144   1.000
72316W        W40721  25.130  42.808  12.823
72317W        W40722   8.852   3.934  14.077
72318W        W40723  36.706  26.490   3.882
72319W        W40724  19.074  32.878   3.111
72320W        W40725  14.259   5.503   4.366
72321W        W40726  37.470  21.508  10.868
72322W        W40727  36.171  18.976  12.368
72323W        W40728  29.592  33.514  12.529
72324W        W40729  20.714  31.761   3.167
72325W        W40730  20.423  19.643   4.840
72326W        W40731  10.429   4.007  11.462
72327W        W40732  41.420  35.462  10.581
72328W        W40733  31.559   1.316   1.891
72329W        W40734   2.081  36.239   2.254
72330W        W40735  37.297  11.330  13.588
72331W        W40736  19.096  25.142   4.946
72332W        W40737  42.049  16.164   1.981
72333W        W40738  43.337   1.440  13.020
72334W        W40739   8.980  44.837   3.795
72335W        W40740   1.783   5.219  11.129
72336W        W40741  40.769  16.146  14.370
72337W        W40742  41.235  18.739   2.818
72338W        W40743  34.475  20.309  14.933
72339W        W40744   3.429  21.675   2.295
72340W        W40745  33.035   3.627   3.382
72341W        W40746   9.371  12.647  12.429
72342W        W40747   2.713  31.203  14.434
72343W        W40748  25.703   8.161  10.833
72344W        W40749  41.435  12.329  13.486
72345W        W40750   1.901  27.085   1.951
72346W        W40751  13.941  28.129   1.747
72347W        W40752  19.498  29.081  12.907
72348W        W40753  38.427   7.602  13.090
72349W        W40754  41.733  36.727   2.153
72350W        W40755   9.632  29.907   0.139
72351W        W40756   9.881  40.368  11.514
72352W        W40757  30.172  33.545   0.202
72353W        W40758  27.743   3.852   2.319
72354W        W40759  33.996  16.304   3.342
72355W        W40760   2.447   7.738  11.987
72356W        W40761   1.162  37.041  11.567
72357W        W40762  42.500   2.207   0.433
72358W        W40763  31.211  21.185  12.972
72359W        W40764  38.856  31.867   4.179
72360W        W40765  21.557  28.372  11.132
72361W        W40766   1.434   0.739   0.939
72362W        W40767  24.635   0.979  14.630
72363W        W40768  30.457  20.802   3.092
72364W        W40769  36.974  25.625   2.749
72365W        W40770  41.433  10.112  12.488
72366W        W40771  31.273  27.870  14.975
72367W        W40772  11.257  26.676   4.829
72368W        W40773  13.642  13.627  13.568
72369W        W40774   0.166  34.314  14.014
72370W        W40775   5.305  43.006   1.911
72371W        W40776   2.563  21.332   0.520
72372W        W40777  26.473   8.687   0.851
72373W        W40778  42.017  24.232   0.784
72374W        W40779  23.846  12.337   1.867
72375W        W40780  36.777  10.249  14.260
72376W        W40781   6.650  32.840  13.893
72377W        W40782   8.291  41.605  14.505
72378W        W40783  10.625  23.178  14.902
72379W        W40784  11.410  22.613   3.319
72380W        W40785   8.788  34.745  14.076
72381W        W40786  21.870  15.797  14.468
72382W        W40787  23.648  39.085  12.098
72383W        W40788  28.076  17.818  11.822
72384W        W40789  44.721  26.456   2.868
72385W        W40790  35.161  12.640   1.754
72386W        W40791  25.971  40.080   2.729
72387W        W40792  19.990  12.018   0.995
72388W        W40793  28.436  30.122  14.274
72389W        W40794  33.032  35.457  12.116
72390W        W40795  21.075  41.376  13.276
72391W        W40796  39.136   1.982  13.907
72392W        W40797  24.751  21.158   4.505
72393W        W40798   8.238  14.554  14.816
72394W        W40799  44.871  26.597  12.773
72395W        W40800   9.253   4.462  13.361
72396W        W40801  26.396   5.343  11.877
72397W        W40802  21.563  17.746  13.561
72398W        W40803   7.339   9.724  14.266
72399W        W40804  38.484   1.289  10.176
72400W        W40805  40.405  43.204  13.777
72401W        W40806  18.658  19.584  12.436
72402W        W40807  29.375  42.935  11.706
72403W        W40808  36.327  20.764   4.521
72404W        W40809  36.272  16.815   0.816
72405W        W40810   8.420  42.788   1.894
72406W        W40811  27.781  37.349   0.336
72407W        W40812  13.799  12.606  14.414
72408W        W40813  42.971  31.103  11.597
72409W        W40814  33.534  25.431  12.080
72410W        W40815   4.774   1.907  13.331
72411W        W40816  29.591   9.306   4.469
72412W        W40817   7.034   4.231  11.833
72413W        W40818  24.532  14.164   0.824
72414W        W40819  35.859  18.625  14.284
72415W        W40820  42.814   6.619   3.255
72416W        W40821   3.790  12.138   0.992
72417W        W40822  21.774  11.180   2.717
72418W        W40823  31.469   1.869   1.546
72419W        W40824  26.052   2.536  14.914
72420W        W40825  14.691  23.693  13.368
72421W        W40826  27.572  26.118   1.815
72422W        W40827   6.538  22.573   2.469
72423W        W40828  38.939  41.272   2.167
72424W        W40829  28.876  27.048  14.791
72425W        W40830  20.092  29.105   1.609
72426W        W40831  36.064  31.662  14.488
72427W        W40832   7.464  26.148  12.872
72428W        W40833  18.299  39.205  13.841
72429W        W40834  12.098  29.545   4.589
72430W        W40835  28.970  10.843   3.268
72431W        W40836  20.676  11.170   1.246
72432W        W40837   5.737  35.158  14.575
72433W        W40838  10.479  12.809   4.525
72434W        W40839  19.677  12.417   4.343
72435W        W40840   9.379   1.414   0.269
72436W        W40841   1.131  17.197  11.699
72437W        W40842  22.505  10.160   2.301
72438W        W40843  15.299  32.030  13.385
72439W        W40844  27.184  22.770  13.825
72440W        W40845  20.100  11.139   0.527
72441W        W40846  24.334  12.410  12.515
72442W        W40847  25.959  10.813   2.952
72443W        W40848  28.161   3.438   0.709
72444W        W40849  15.091   8.928   5.439
72445W        W40850   0.032   2.184  11.196
72446W        W40851   1.956   4.849  12.948
72447W        W40852  43.195  38.772   3.761
72448W        W40853  39.738  25.535   1.355
72449W        W40854   0.925  24.836  10.346
72450W        W40855  25.602  42.350  10.576
72451W        W40856  21.677   7.412   3.673
72452W        W40857  35.142  36.527  12.913
72453W        W40858  42.374  30.076   4.037
72454W        W40859  22.629   5.971  13.343
72455W        W40860  21.435  14.902  12.942
72456W        W40861  34.583  29.679   4.287
72457W        W40862  25.780  40.333   4.956
72458W        W40863  25.157  30.892   1.003
72459W        W40864  39.532  18.436   4.582
72460W        W40865  30.729  12.727  12.900
72461W        W40866   8.848  28.181   1.308
72462W        W40867   4.489  15.271  13.777
72463W        W40868  35.904  15.840   0.885
72464W        W40869  36.573  17.896  11.300
72465W        W40870   4.747  42.597   2.829
72466W        W40871   0.232  42.755   0.692
72467W        W40872  23.640   3.539   0.141
72468W        W40873  36.165  11.675  13.040
72469W        W40874   1.265  35.558   4.325
72470W        W40875  39.629   9.765  13.333
72471W        W40876  42.594  21.070  14.407
72472W        W40877  43.629  11.501  10.925
72473W        W40878   4.194  35.353   3.273
72474W        W40879  13.180  35.638  14.906
72475W        W40880  44.233  41.943   2.626
72476W        W40881   0.140  13.256  12.483
72477W        W40882  34.509  15.191  13.714
72478W        W40883   7.215  31.141  13.627
72479W        W40884  31.045  28.882  12.824
72480W        W40885   6.433  23.810  13.093
72481W        W40886   3.029  39.499   3.728
72482W        W40887  24.108  36.747   4.137
72483W        W40888  25.168  36.878   0.392
72484W        W40889  36.017  20.643  13.485
72485W        W40890  21.467  28.024   1.370
72486W        W40891  15.453  29.000   1.789
72487W        W40892  23.255  20.265   4.792
72488W        W40893  32.729  19.637  14.361
72489W        W40894  40.219  40.304  13.391
72490W        W40895  40.539   2.019  10.120
72491W        W40896  16.900  20.367  12.497
72492W        W40897  41.763  40.615   4.289
72493W        W40898  20.006  44.301   2.225
72494W        W40899   9.234  22.243   3.587
72495W        W40900  15.605  22.049  12.164
72496W        W40901  32.010   6.553   0.897
72497W        W40902  27.065  23.067   2.320
72498W        W40903  37.001  41.271  12.970
72499W        W40904  14.734  12.826  14.306
72500W        W40905   5.014  37.069  11.482
72501W        W40906   7.890  13.747  14.498
72502W        W40907  22.461  34.601   0.854
72503W        W40908  22.440  31.597  10.660
72504W        W40909  22.625  28.190   0.629
72505W        W40910  41.702  26.999  13.028
72506W        W40911   5.666  20.944  13.996
72507W        W40912  34.353  11.029   2.268
72508W        W40913  41.286   4.109  10.013
72509W        W40914  18.561  26.979   4.230
72510W        W40915  29.014  38.992   2.273
72511W        W40916  40.176  32.561   1.280
72512W        W40917   1.874  38.421  14.919
72513W        W40918  43.049  32.959  11.937
72514W        W40919  14.487  30.443  12.827
72515W        W40920  43.443   1.209   2.460
72516W        W40921  15.863  10.934   0.930
72517W        W40922  14.234  33.141  12.530
72518W        W40923  30.271  14.847  13.250
72519W        W40924   6.337  44.218  14.327
72520W        W40925  17.141   8.827  11.055
72521W        W40926   0.866  15.796   4.962
72522W        W40927  25.530   5.192  14.514
72523W        W40928  32.308  12.944  14.570
72524W        W40929   8.350   5.862  12.431
72525W        W40930  42.509   5.478  12.872
72526W        W40931  14.860   7.960  12.399
72527W        W40932  24.527  31.581  13.324
72528W        W40933  44.759  31.894   2.247
72529W        W40934  30.494  34.316   4.053
72530W        W40935   6.285  37.024  11.320
72531W        W40936  44.383  28.528   3.863
72532W        W40937  26.431  22.461   3.223
72533W        W40938  44.988  43.588   0.422
72534W        W40939   9.920  16.428   2.205
72535W        W40940  40.285   6.809  12.311
72536W        W40941  28.234  32.633   3.615
72537W        W40942  30.583  11.609   5.160
72538W        W40943  29.404  24.449   1.558
72539W        W40944  41.290   5.837  11.779
72540W        W40945  15.717  34.821  12.100
72541W        W40946  27.396  39.289  12.740
72542W        W40947  12.079  21.617  14.505
72543W        W40948  39.432   8.161   1.745
72544W        W40949  42.126  35.030  14.925
72545W        W40950  26.218  20.665   2.910
72546W        W40951   1.475  17.563  14.336
72547W        W40952  44.010  21.647   4.735
72548W        W40953  28.170  40.382   4.283
72549W        W40954  16.873   4.098  14.932
72550W        W40955  21.162   2.968   0.666
72551W        W40956  11.363  30.201   2.307
72552W        W40957  37.018  28.157  11.935
72553W        W40958  44.933  17.341  12.124
72554W        W40959  43.524  39.111  11.087
72555W        W40960   8.897  23.988  11.586
72556W        W40961  18.664   4.400  13.762
72557W        W40962  15.223  20.727  13.882
72558W        W40963  40.975   6.008   0.669
72559W        W40964  30.101  20.130   3.715
72560W        W40965  29.170   6.623   3.565
72561W        W40966  38.483  22.453  14.938
72562W        W40967   3.267   1.958   3.121
72563W        W40968  38.596  40.805  11.559
72564W        W40969  13.547  33.668  13.448
72565W        W40970  21.738   7.156  13.915
72566W        W40971  42.339  27.016   0.837
72567W        W40972  41.832  17.987   0.221
72568W        W40973  23.615  43.881  11.168
72569W        W40974  36.883   0.265  12.962
72570W        W40975  13.211  26.229   4.365
72571W        W40976   9.300  26.064  11.993
72572W        W40977  28.693  29.131  12.461
72573W        W40978  17.757  39.323   2.127
72574W        W40979  39.301   7.908  12.987
72575W        W40980  43.699   8.924   1.374
72576W        W40981  29.545  21.704  12.058
72577W        W40982  44.300   4.759   2.300
72578W        W40983  14.138  34.079   1.222
72579W        W40984   8.376   9.867   4.649
72580W        W40985  22.707  20.352   2.207
72581W        W40986  22.685  23.549  12.389
72582W        W40987  36.498   4.849   1.430
72583W        W40988  20.421  27.203  11.296
72584W        W40989  30.284   5.806  11.541
72585W        W40990  33.728  26.630   0.250
72586W        W40991  21.191   8.737  11.080
72587W        W40992  20.151  43.114  10.007
72588W        W40993  37.241   5.741  11.348
72589W        W40994  20.016  35.911   3.827
72590W        W40995  39.241   1.428   1.615
72591W        W40996  20.642  23.229   2.283
72592W        W40997  14.643  36.966  11.014
72593W        W40998  26.554  16.858  14.388
72594W        W40999  25.177  37.862  13.636
72595W        W41000  21.232  39.339   3.309
72596W        W41001  34.981   7.457   3.160
72597W        W41002  39.792  38.312  13.843
72598W        W41003  35.951   8.600  10.682
72599W        W41004  21.780  12.163   1.286
72600W        W41005  37.584  40.397   3.689
72601W        W41006  29.855  28.074   0.104
72602W        W41007  35.898  31.058  13.734
72603W        W41008  12.308  26.685   2.127
72604W        W41009  37.130   7.248  14.449
72605W        W41010  12.110  29.131   2.135
72606W        W41011   3.231  34.011   3.555
72607W        W41012  33.883  21.698  12.399
72608W        W41013  32.176  35.732  13.046
72609W        W41014   1.307  26.104   4.225
72610W        W41015  22.452  39.373  12.967
72611W        W41016  38.968  38.460   0.828
72612W        W41017  21.464   3.875  13.554
72613W        W41018  42.452  42.410   4.296
72614W        W41019   2.211  12.183  13.605
72615W        W41020  42.043  35.875  13.878
72616W        W41021  36.956  20.930   3.247
72617W        W41022  32.310  27.418   1.938
72618W        W41023  35.111  29.066   0.871
72619W        W41024   4.480   2.769  11.200
72620W        W41025  33.962  39.055   2.169
72621W        W41026  42.045  33.390  13.448
72622W        W41027   1.539  11.111  11.948
72623W        W41028  17.124  39.840   3.020
72624W        W41029   5.967  11.757  10.422
72625W        W41030  17.527  24.468  14.938
72626W        W41031  42.351   9.410   3.750
72627W        W41032  29.154  42.971   3.275
72628W        W41033  10.182  11.938   3.141
72629W        W41034  29.760  28.620  12.222
72630W        W41035  19.340   2.403  12.498
72631W        W41036  35.006   0.437  10.812
72632W        W41037  10.648  28.250  13.808
72633W        W41038  15.777  34.498   3.067
72634W        W41039  21.573  34.945   1.720
72635W        W41040  33.930  29.422   1.424
72636W        W41041  15.214  21.775   4.156
72637W        W41042  37.991  22.743  14.771
72638W        W41043  25.228   3.942   2.968
72639W        W41044  43.124  41.423   3.754
72640W        W41045  33.512  33.155   2.665
72641W        W41046  20.797  39.816  13.994
72642W        W41047  16.155  23.812   1.307
72643W        W41048  23.562  35.493  11.703
72644W        W41049  12.801  41.031   1.370
72645W        W41050  31.705  27.227  14.937
72646W        W41051  33.478  15.309  11.157
72647W        W41052  43.941  28.212   2.229
72648W        W41053   9.125  35.082  14.298
72649W        W41054  32.265  25.005   1.779
72650W        W41055  10.103  23.593   2.402
72651W        W41056   5.802  32.094  14.035
72652W        W41057  29.813  26.777  13.239
72653W        W41058  30.845  34.056  14.879
72654W        W41059   7.598   0.716   1.002
72655W        W41060  41.876  37.767   2.190
72656W        W41061  10.759  11.261   2.160
72657W        W41062   5.615  15.229   0.154
72658W        W41063  23.871  39.026   5.046
72659W        W41064   6.300  20.540   3.754
72660W        W41065  41.393  35.369  11.082
72661W        W41066  43.774  16.689   1.366
72662W        W41067  15.333  34.080  11.054
72663W        W41068  27.320  33.442  13.851
72664W        W41069  10.197  17.431  11.557
72665W        W41070  33.856  18.277   2.737
72666W        W41071  41.215   9.066  12.474
72667W        W41072   6.980  30.815   4.065
72668W        W41073  31.972  42.486  10.477
72669W        W41074   6.375  28.863  14.923
72670W        W41075  38.853  15.413   2.472
72671W        W41076  35.369   0.515  12.765
72672W        W41077  29.018   2.949  14.468
72673W        W41078  37.495   8.468  13.504
72674W        W41079  27.592  13.123  11.376
72675W        W41080  23.661  11.404   3.948
72676W        W41081  43.416  35.453  14.913
72677W        W41082  29.634  10.325   1.336
72678W        W41083  12.773  35.400  14.140
72679W        W41084  37.564  11.165  14.037
72680W        W41085  20.212  22.680  10.082
72681W        W41086   0.943  32.123  12.882
72682W        W41087  37.247  44.416   0.802
72683W        W41088  17.672   8.291  12.424
72684W        W41089  31.472   4.432   2.263
72685W        W41090   4.692   6.572   1.379
72686W        W41091   1.288  39.310  14.319
72687W        W41092  42.963   2.989   2.427
72688W        W41093  31.774  14.228   1.386
72689W        W41094  19.316  34.022  12.166
72690W        W41095   2.325  12.912  12.468
72691W        W41096  29.229  37.190  14.540
72692W        W41097  34.604  18.027   4.604
72693W        W41098   8.439  26.387  10.772
72694W        W41099  33.510  22.527  13.830
72695W        W41100  18.767  36.416  12.444
72696W        W41101  42.005   0.321   4.628
72697W        W41102   0.801  34.202  12.887
72698W        W41103  13.796  33.343  13.772
72699W        W41104   0.936   1.271   4.276
72700W        W41105  20.081   7.754  10.160
72701W        W41106  26.978  32.515  13.744
72702W        W41107  11.113   9.791  10.629
72703W        W41108  27.464  42.039   1.798
72704W        W41109   9.207   2.245   1.241
72705W        W41110  10.660  33.447   1.718
72706W        W41111  36.852   9.870  13.920
72707W        W41112  32.378   9.639  11.435
72708W        W41113  20.706  36.457  12.448
72709W        W41114   2.936   9.710   0.629
72710W        W41115  36.066  31.057   1.407
72711W        W41116  29.210  13.046   3.818
72712W        W41117  23.202   1.833  11.921
72713W        W41118  20.574  24.632  14.905
72714W        W41119  25.542  35.370  13.382
72715W        W41120  18.160  23.112  14.551
72716W        W41121  21.482   0.835   0.830
72717W        W41122  10.080  42.466   0.211
72718W        W41123  38.800   6.200  14.948
72719W        W41124  10.200  40.008  12.427
72720W        W41125  34.019   5.861  13.781
72721W        W41126  35.449  29.174   3.805
72722W        W41127  20.606  18.269   4.818
72723W        W41128  24.965   9.265  14.512
72724W        W41129  34.339  36.840   3.626
72725W        W41130  31.671  37.078   4.110
72726W        W41131  17.305  34.331  14.079
72727W        W41132  31.823   8.641   3.191
72728W        W41133  13.531  14.412  14.022
72729W        W41134  15.299   1.655   3.497
72730W        W41135  34.525   7.830   0.495
72731W        W41136  34.142  23.075   0.799
72732W        W41137  35.101  33.471   1.875
72733W        W41138  42.767   0.937  11.097
72734W        W41139  11.258  39.731  10.269
72735W        W41140   6.278   0.236   2.248
72736W        W41141  40.338  10.914   1.774
72737W        W41142  18.586  43.708  11.137
72738W        W41143  39.566  35.525  11.940
72739W        W41144  12.389   0.945  13.810
72740W        W41145   0.612  33.797  12.541
72741W        W41146  38.421  15.810   0.251
72742W        W41147  22.091  34.243   1.745
72743W        W41148  18.023  20.738   2.412
72744W        W41149  28.120  43.279   2.439
72745W        W41150  12.361   6.443   4.196
72746W        W41151   6.803  43.958  11.843
72747W        W41152   0.813  18.634   3.655
72748W        W41153  38.336  33.827  13.832
72749W        W41154   5.352  26.602   2.982
72750W        W41155  33.364  23.523   3.148
72751W        W41156   9.331   2.956   2.730
72752W        W41157  23.712  40.492  12.393
72753W        W41158  34.025  44.697   0.878
72754W        W41159  32.238  39.462  12.091
72755W        W41160   7.388  21.462   3.184
72756W        W41161  28.674  30.805   3.560
72757W        W41162  25.912  28.031  14.028
72758W        W41163  30.382  25.663   0.426
72759W        W41164  29.016  37.472  10.029
72760W        W41165  35.027   6.958   3.312
72761W        W41166  18.235  13.125   4.809
72762W        W41167  23.063  40.629  11.513
72763W        W41168   9.665   9.144   4.154
72764W        W41169  16.996  44.949  10.202
72765W        W41170  10.163  37.497  10.708
72766W        W41171   5.645  17.615  13.432
72767W        W41172  29.091  13.741  10.602
72768W        W41173  11.840  40.462   2.266
72769W        W41174  20.191  43.556  13.066
72770W        W41175  13.898  30.916   3.092
72771W        W41176  28.107  23.592   2.273
72772W        W41177   7.999  18.400   2.395
72773W        W41178  26.952  31.690   3.267
72774W        W41179  17.488  14.322   4.125
72775W        W41180  25.154   2.361  11.513
72776W        W41181  19.558  30.255   0.183
72777W        W41182  36.862  10.285   1.322
72778W        W41183  40.453   6.314  14.881
72779W        W41184  18.108  12.760   3.108
72780W        W41185  21.818  37.380  13.023
72781W        W41186  15.461   3.410   4.562
72782W        W41187  10.743  14.163  11.229
72783W        W41188  44.396  36.768   4.204
72784W        W41189  38.160  41.473   0.831
72785W        W41190  43.051  44.995   0.868
72786W        W41191   0.913  42.466   3.678
72787W        W41192  20.278   9.427  11.621
72788W        W41193  32.072  34.053  10.611
72789W        W41194  16.360  16.904   0.155
72790W        W41195  40.996  19.367  14.439
72791W        W41196   9.643  25.192   0.243
72792W        W41197  17.238  44.503  14.835
72793W        W41198   5.613  40.017  12.003
72794W        W41199  27.262  20.579  11.157
72795W        W41200  40.350  20.264  13.904
72796W        W41201  29.247  35.186  10.202
72797W        W41202  14.113  31.270  11.335
72798W        W41203  32.051  27.864  12.459
72799W        W41204  19.020  37.554   3.239
72800W        W41205  37.742  30.986  13.325
72801W        W41206  14.172  12.406  12.513
72802W        W41207  42.068  27.395   4.693
72803W        W41208  38.152   8.203  12.306
72804W        W41209  13.542  40.255  11.608
72805W        W41210   8.188  18.565  12.626
72806W        W41211  35.918  10.303  13.837
72807W        W41212  25.965  40.587  11.009
72808W        W41213  23.698   8.976  13.887
72809W        W41214  38.018  14.156   3.188
72810W        W41215  44.525  25.001   4.098
72811W        W41216   5.273  35.198  12.784
72812W        W41217  35.002  44.497  13.316
72813W        W41218  12.851  14.837   2.597
72814W        W41219  41.757  15.716   4.607
72815W        W41220  11.313  34.965   2.452
72816W        W41221   8.769   7.201   9.713
72817W        W41222  10.608  13.390  11.580
72818W        W41223  37.878  23.975  10.823
72819W        W41224  35.966  32.249  14.352
72820W        W41225   2.755   9.784   1.130
72821W        W41226  26.049  21.946  13.376
72822W        W41227  13.654  35.662  12.534
72823W        W41228  39.323  44.338   3.256
72824W        W41229  36.693  12.592  11.457
72825W        W41230  14.618  18.218   1.925
72826W        W41231  12.082  30.090   2.803
72827W        W41232  19.496  44.959   4.939
72828W        W41233   9.458  42.061   2.239
72829W        W41234  27.955  12.602   9.917
72830W        W41235  11.197  39.876   0.794
72831W        W41236  11.123   2.680   3.190
72832W        W41237  12.651  26.493  11.933
72833W        W41238  18.279  22.262  12.503
72834W        W41239   3.500   6.733  12.070
72835W        W41240  44.249   7.714   0.921
72836W        W41241   3.781  16.343  12.029
72837W        W41242  34.805  12.714  11.681
72838W        W41243  22.932  37.363  13.491
72839W        W41244  35.878  17.457  12.473
72840W        W41245  38.084  17.783  11.946
72841W        W41246  19.736   9.112   2.741
72842W        W41247  44.747  14.088   2.784
72843W        W41248   8.439  11.284  10.989
72844W        W41249  19.729  22.334   4.571
72845W        W41250   4.700  20.901   4.578
72846W        W41251  25.880   5.773  14.911
72847W        W41252  18.901  36.182  10.392
72848W        W41253  30.573  15.627  13.495
72849W        W41254  37.677  18.780  13.288
72850W        W41255  35.552   5.956  12.124
72851W        W41256  20.986  43.161  11.655
72852W        W41257  19.975  10.558   1.167
72853W        W41258  38.323  38.274   2.855
72854W        W41259  23.616   0.233  10.814
72855W        W41260  12.034  19.752   2.763
72856W        W41261   3.127  27.542  10.228
72857W        W41262  39.378  24.815   0.843
72858W        W41263  33.875  12.377   4.103
72859W        W41264  17.762  28.022   4.477
72860W        W41265  22.525  34.938   0.126
72861W        W41266  29.636  21.217   1.880
72862W        W41267  19.616  38.990   1.582
72863W        W41268   6.565   9.610  11.744
72864W        W41269   1.743  23.061  12.989
72865W        W41270  29.367  44.321  10.725
72866W        W41271  14.551  35.480   2.207
72867W        W41272  34.319   2.433   4.213
72868W        W41273  41.825  24.758  11.056
72869W        W41274  43.478  43.923  11.403
72870W        W41275  18.160   7.258  13.648
72871W        W41276  32.337  43.413   0.272
72872W        W41277   6.691  19.348  12.972
72873W        W41278  39.783   0.268  11.591
72874W        W41279  40.553   2.350   2.335
72875W        W41280  24.720   1.883  12.041
72876W        W41281  24.526  16.658  12.146
72877W        W41282  28.057  30.338   4.828
72878W        W41283  34.499  19.949   3.229
72879W        W41284  40.341  26.570   4.358
72880W        W41285  28.911  25.311  13.378
72881W        W41286  43.907  34.530  11.619
72882W        W41287   4.407  19.111   3.403
72883W        W41288  31.216  37.551  13.470
72884W        W41289  33.995  35.558   1.300
72885W        W41290  34.112  19.984  11.248
72886W        W41291  42.498   9.679  13.273
72887W        W41292  21.210  34.409   3.125
72888W        W41293  15.316   6.150  11.150
72889W        W41294  17.371  29.096   1.434
72890W        W41295  38.989  11.456   1.118
72891W        W41296   1.975  18.443   0.390
72892W        W41297  24.641  41.415  11.983
72893W        W41298  37.612   5.873  13.417
72894W        W41299  17.140  12.808   0.181
72895W        W41300  20.074  12.441  11.452
72896W        W41301   7.979  35.941  10.750
72897W        W41302  36.602  25.567   4.097
72898W        W41303   4.684  27.005  12.002
72899W        W41304  24.054  41.929   0.817
72900W        W41305  14.222   2.877   1.211
72901W        W41306  16.576  23.962   4.156
72902W        W41307  37.112   2.224  13.060
72903W        W41308   6.124   1.783   4.809
72904W        W41309  26.149   8.675   0.363
72905W        W41310  18.312  43.390   4.624
72906W        W41311   2.842  34.671   0.460
72907W        W41312  16.949  13.204   4.643
72908W        W41313  22.228  38.098  13.803
72909W        W41314   3.290  14.334   0.525
72910W        W41315  29.573   7.351   4.120
72911W        W41316  29.085   0.502   4.364
72912W        W41317  26.490  18.264   3.799
72913W        W41318  12.858  35.274   3.592
72914W        W41319   1.262  11.793  13.830
72915W        W41320  33.965   2.433   3.699
72916W        W41321  27.668  24.379   4.488
72917W        W41322   0.767  32.476   0.384
72918W        W41323   7.920   4.383  10.721
72919W        W41324  39.167  22.131  12.467
72920W        W41325  22.281  13.129  10.986
72921W        W41326  14.072  44.204   1.281
72922W        W41327  33.166  38.975  14.742
72923W        W41328  15.557   7.226  14.812
72924W        W41329  39.779   2.974  12.200
72925W        W41330  35.879  30.989  14.256
72926W        W41331  43.322  10.458   5.122
72927W        W41332   0.224  40.753  13.842
72928W        W41333  27.114  26.553  13.892
72929W        W41334  31.151   5.615  12.079
72930W        W41335  19.887  10.401  14.385
72931W        W41336   5.977   0.423   0.937
72932W        W41337  25.901   0.719  13.448
72933W        W41338  44.505  30.302   1.832
72934W        W41339  11.996  38.380   1.016
72935W        W41340   0.782  35.805  14.750
72936W        W41341   6.335  26.518  13.817
72937W        W41342   6.295   1.831  12.615
72938W        W41343  35.080  13.869   0.379
72939W        W41344  13.130  18.680  14.283
72940W        W41345  41.520  39.913   1.713
72941W        W41346  18.462  28.237   2.981
72942W        W41347   0.034   4.845  11.137
72943W        W41348   0.891  16.617  13.558
72944W        W41349  35.222  44.953  14.260
72945W        W41350   4.000  31.808  13.096
72946W        W41351   1.886  35.783  12.607
72947W        W41352  39.005  41.297  12.995
72948W        W41353  33.438  42.653  11.738
72949W        W41354   9.953  16.181   1.741
72950W        W41355  12.893  40.335   4.623
72951W        W41356  17.169  12.072  12.567
72952W        W41357   4.780  24.833   2.924
72953W        W41358   6.901  17.236   4.807
72954W        W41359  15.479   0.992   5.543
72955W        W41360  42.268  42.752   4.665
72956W        W41361   1.657  29.184  14.589
72957W        W41362   1.730  26.695   1.698
72958W        W41363  34.516  26.006   1.330
72959W        W41364   7.962   3.342  11.953
72960W        W41365  21.823  15.157   1.880
72961W        W41366  39.868   7.014  11.956
72962W        W41367  44.240   1.795   0.150
72963W        W41368  27.073  20.856   0.777
72964W        W41369   5.841  15.856  12.307
72965W        W41370  17.141   6.256   5.040
72966W        W41371  35.998   9.318   1.270
72967W        W41372   6.157   8.095  12.521
72968W        W41373  38.835  10.779  10.701
72969W        W41374  13.485  15.805   0.627
72970W        W41375  14.864  21.571   4.493
72971W        W41376  19.585  17.933  13.599
72972W        W41377   8.866  17.835  13.572
72973W        W41378  42.630  25.773   3.308
72974W        W41379  29.423  33.373   5.008
72975W        W41380   7.813   8.709  10.448
72976W        W41381  14.818  27.740   3.526
72977W        W41382  20.572  14.633   2.615
72978W        W41383  37.349  14.860  14.880
72979W        W41384  17.083  41.940  12.159
72980W        W41385  40.437   3.159  11.957
72981W        W41386  35.100  31.625   2.375
72982W        W41387   9.526  26.091   1.651
72983W        W41388  10.332  44.303  10.741
72984W        W41389  25.704  21.307  13.762
72985W        W41390  16.615  27.128   4.818
72986W        W41391  16.852   4.733  11.836
72987W        W41392   1.408  28.210  13.207
72988W        W41393  28.113   1.591   1.367
72989W        W41394  23.214  35.454   1.770
72990W        W41395  44.806  39.999   2.225
72991W        W41396  35.847  37.275  13.917
72992W        W41397  32.548   4.190  11.051
72993W        W41398  29.669  20.286  14.427
72994W        W41399  20.751  17.197   3.152
72995W        W41400   8.383  23.262   3.657
72996W        W41401  34.727  18.407  10.737
72997W        W41402  24.462  10.085   4.940
72998W        W41403   7.947  32.148  13.796
72999W        W41404  42.966  29.644   3.581
73000W        W41405  27.251  26.106   0.938
73001W        W41406   0.216  33.972  10.691
73002W        W41407  22.256  12.786   2.717
73003W        W41408   4.820   2.001   2.746
73004W        W41409  18.663  23.270   0.879
73005W        W41410   0.008  13.187   3.834
73006W        W41411   4.026  28.454  12.349
73007W        W41412  20.888  34.040   2.931
73008W        W41413  44.907  38.612   2.757
73009W        W41414  32.538  30.849   2.219
73010W        W41415   6.373  12.341  14.941
73011W        W41416  33.312   7.438   4.455
73012W        W41417  34.511  40.778  14.581
73013W        W41418  44.757  34.318  13.694
73014W        W41419   2.343  19.301  14.414
73015W        W41420  32.416  23.113   0.054
73016W        W41421  34.324  20.383   2.430
73017W        W41422  44.367  44.063  11.169
73018W        W41423  32.923  41.800  14.656
73019W        W41424   6.197  42.036   1.933
73020W        W41425  23.056  14.787  13.026
73021W        W41426  25.544   9.247   3.042
73022W        W41427  27.591  39.222   1.726
73023W        W41428  32.929  25.160   2.141
73024W        W41429  12.834  28.686  10.778
73025W        W41430  10.655  19.418   2.858
73026W        W41431  25.306  13.750  12.502
73027W        W41432   9.177   0.524   2.471
73028W        W41433  40.578  37.735   5.128
73029W        W41434   5.146  14.597  11.076
73030W        W41435  33.198  21.496   1.401
73031W        W41436  20.176  10.153   0.854
73032W        W41437  17.773  44.414  10.400
73033W        W41438  25.581  22.231   4.865
73034W        W41439  25.618  43.480   0.269
73035W        W41440  24.108  17.101   3.205
73036W        W41441  31.556  34.480  14.066
73037W        W41442  14.109  38.917  13.539
73038W        W41443  27.244  40.068   0.373
73039W        W41444  15.575   5.622  10.231
73040W        W41445   9.132  40.295   3.732
73041W        W41446  32.066  12.890  13.849
73042W        W41447  31.924  20.315   1.422
73043W        W41448   8.723  28.240  14.945
73044W        W41449  30.449  36.187   2.291
73045W        W41450  32.189  33.974  12.459
73046W        W41451   1.232  14.983  12.097
73047W        W41452  17.589  29.437  13.995
73048W        W41453   8.698   9.474  12.515
73049W        W41454  41.900  19.947  14.772
73050W        W41455  35.749  36.981  14.347
73051W        W41456   6.195  43.317  10.358
73052W        W41457  14.635  15.625   1.656
73053W        W41458  37.301  27.620   4.498
73054W        W41459  30.654  38.772   0.479
73055W        W41460  25.516  35.377  11.602
73056W        W41461  27.361  42.715  13.835
73057W        W41462  21.839  42.473  12.085
73058W        W41463   3.308  44.188   4.986
73059W        W41464   1.350  22.339   3.311
73060W        W41465  22.780  35.874  12.930
73061W        W41466  35.369  21.927  10.661
73062W        W41467  32.356  26.304  10.030
73063W        W41468  25.398  11.675  11.188
73064W        W41469  30.052  36.282  11.054
73065W        W41470  15.282  33.385  13.278
73066W        W41471  14.564  44.527  11.330
73067W        W41472  36.027   4.772  10.662
73068W        W41473  39.464  15.271  10.780
73069W        W41474  15.591  13.213  14.830
73070W        W41475  36.912  33.913   0.174
73071W        W41476  14.853   9.647  10.670
73072W        W41477  39.608   2.567  12.928
73073W        W41478  44.386  28.468  10.926
73074W        W41479  12.700   8.759  14.387
73075W        W41480   2.276  19.001   3.938
73076W        W41481  11.211   6.928   2.822
73077W        W41482  35.647  35.942  14.313
73078W        W41483  19.070   7.086  14.216
73079W        W41484   7.084  36.641   3.317
73080W        W41485  37.393  18.783  10.708
73081W        W41486  17.398  41.874  14.884
73082W        W41487   4.435   2.269  11.350
73083W        W41488  40.873  13.103   3.114
73084W        W41489  31.286  42.564   1.710
73085W        W41490  35.842  37.109   3.682
73086W        W41491  31.461  41.481  14.373
73087W        W41492  26.883  14.304  11.625
73088W        W41493  38.498  23.668   0.581
73089W        W41494  41.818  38.873   9.603
73090W        W41495  15.572   7.410  11.892
73091W        W41496  15.833  24.142   5.286
73092W        W41497  43.981  18.777  12.831
73093W        W41498  26.366   0.968   4.822
73094W        W41499  21.448  32.465  10.397
73095W        W41500  32.950  30.610   3.700
73096W        W41501  31.463  28.491  10.728
73097W        W41502  13.365  42.934  12.905
73098W        W41503  28.974  23.137  14.799
73099W        W41504  30.910   8.958  14.095
73100W        W41505  31.642   5.665  11.662
73101W        W41506  21.607  37.473   1.683
73102W        W41507  12.885  37.401   0.330
73103W        W41508  42.963  32.889  11.172
73104W        W41509  12.833  33.863  10.666
73105W        W41510  37.810  28.566  12.867
73106W        W41511  40.314  13.575  12.486
73107W        W41512  12.220  36.991   0.801
73108W        W41513   8.393  40.613   1.772
73109W        W41514  36.492  33.890  13.811
73110W        W41515   8.620  28.101   1.901
73111W        W41516  25.203  21.796   4.883
73112W        W41517  20.330  13.842   0.386
73113W        W41518  40.492  21.395   1.446
73114W        W41519  25.927  43.785   4.498
73115W        W41520   2.337   0.799  10.889
73116W        W41521  18.676  36.296   1.364
73117W        W41522   2.436   4.362   4.944
73118W        W41523  20.710   1.242   4.198
73119W        W41524  27.820  25.161  10.886
73120W        W41525  37.925  25.883   3.486
73121W        W41526  17.272  25.122  11.601
73122W        W41527  36.962  41.958   1.740
73123W        W41528  29.450  26.517   2.316
73124W        W41529  28.988  17.900   5.002
73125W        W41530  43.692  29.430   2.826
73126W        W41531   4.887  38.376  11.318
73127W        W41532  43.895   7.288   4.894
73128W        W41533  27.567  39.527  13.676
73129W        W41534   5.422  32.959   3.075
73130W        W41535  19.061  18.083   0.270
73131W        W41536   2.406   8.694   1.297
73132W        W41537  23.656  18.258  14.918
73133W        W41538   8.174   7.899  13.129
73134W        W41539  30.149   7.425   1.448
73135W        W41540   1.463  39.811   4.380
73136W        W41541  32.412  33.769   9.909
73137W        W41542  24.607  10.060  11.178
73138W        W41543  35.372  19.776   9.782
73139W        W41544  15.102  27.331   1.856
73140W        W41545  41.313  36.371   2.930
73141W        W41546  14.534  15.324  14.854
73142W        W41547   8.865   1.569   0.285
73143W        W41548  14.709   2.781   1.470
73144W        W41549   4.772  38.073  13.990
73145W        W41550  26.243   9.380  13.965
73146W        W41551   9.709   1.729   4.759
73147W        W41552   0.222  13.283   4.311
73148W        W41553  40.817  13.637   2.356
73149W        W41554  27.662  17.462  13.124
73150W        W41555   8.031  42.019  13.003
73151W        W41556   8.282   9.868  10.899
73152W        W41557  14.533   5.295   2.657
73153W        W41558   9.079  27.105  14.368
73154W        W41559  20.579  35.845  14.338
73155W        W41560  14.906  16.650  11.121
73156W        W41561  16.503  19.596   1.830
73157W        W41562   7.305  14.598  10.719
73158W        W41563  31.477   2.428  12.603
73159W        W41564  18.172  34.924  10.731
73160W        W41565  34.053  29.349  12.849
73161W        W41566  36.378  18.785   1.264
73162W        W41567  30.480  19.673   2.001
73163W        W41568   5.283  36.089  12.222
73164W        W41569   0.976   5.763  11.215
73165W        W41570  16.465   0.384   3.274
73166W        W41571  15.618   9.068  12.644
73167W        W41572   9.232   4.018   4.613
73168W        W41573  37.919  27.931  13.375
73169W        W41574  19.584  13.872   3.226
73170W        W41575  13.400   0.955  12.834
73171W        W41576  23.590  40.017   2.699
73172W        W41577  33.779  12.882   4.367
73173W        W41578  28.707  22.019   3.122
73174W        W41579  43.497  24.138   4.287
73175W        W41580  41.907  22.763  13.065
73176W        W41581   1.950   4.963   4.638
73177W        W41582  41.725  29.237   4.164
73178W        W41583  30.962   8.921   2.316
73179W        W41584  38.598   1.763  12.645
73180W        W41585  25.119   5.476  14.364
73181W        W41586  38.008   5.316  11.695
73182W        W41587  44.395   3.338   4.722
73183W        W41588  38.274   6.912  11.043
73184W        W41589  43.424  39.016  14.215
73185W        W41590  39.267  35.291   0.261
73186W        W41591  29.718  15.831   4.158
73187W        W41592  28.754  36.075   1.254
73188W        W41593  32.482  24.764   2.703
73189W        W41594  34.985  18.753   2.535
73190W        W41595  19.049  20.650   0.376
73191W        W41596  36.447  36.549   1.069
73192W        W41597  32.619  36.744  11.619
73193W        W41598  23.215  22.054   3.742
73194W        W41599  42.925   4.016  14.842
73195W        W41600  17.655  20.217  10.997
73196W        W41601  39.754  44.322  13.527
73197W        W41602   0.919  20.279   2.522
73198W        W41603  11.719   9.829  13.148
73199W        W41604  44.502  31.529   1.300
73200W        W41605  14.778  12.187   4.599
73201W        W41606  23.605   6.871  11.061
73202W        W41607   5.445  31.122  11.970
73203W        W41608  39.695  24.692   3.894
73204W        W41609   2.420  34.729  13.865
73205W        W41610  31.135   9.428  14.075
73206W        W41611  37.865  41.562   2.781
73207W        W41612  19.294  28.781   2.345
73208W        W41613  36.155  39.807  14.452
73209W        W41614  10.621  11.379   1.123
73210W        W41615  19.281  17.502   2.683
73211W        W41616   3.253  19.303  14.404
73212W        W41617  10.349  27.039  14.314
73213W        W41618  43.506  27.881   1.282
73214W        W41619  41.386  44.011  14.131
73215W        W41620  24.270  39.474  12.615
73216W        W41621   4.850   6.769   3.351
73217W        W41622  22.367   0.327  13.942
73218W        W41623  16.987   5.460  13.233
73219W        W41624  41.704   6.387  11.198
73220W        W41625  37.197  13.229   0.706
73221W        W41626  10.508   9.129  13.356
73222W        W41627  23.979  37.223   2.747
73223W        W41628   5.432  20.165  12.138
73224W        W41629  18.811  28.622  14.094
73225W        W41630  43.337  39.002   4.654
73226W        W41631  13.066   2.461   4.324
73227W        W41632   3.992  22.789   0.159
73228W        W41633  30.368   7.299  13.991
73229W        W41634  42.458   7.219   3.733
73230W        W41635  30.593  40.712   4.026
73231W        W41636  35.468  17.487   3.560
73232W        W41637  43.520  38.934   4.152
73233W        W41638  33.571  19.281  12.992
73234W        W41639  39.535  25.105   2.445
73235W        W41640  10.825  16.959  11.441
73236W        W41641  41.562  37.232  10.104
73237W        W41642  41.962  17.848   3.249
73238W        W41643  31.474   9.268  14.454
73239W        W41644  22.329  15.599   4.218
73240W        W41645  38.784  36.649  12.031
73241W        W41646  25.544  19.050  13.826
73242W        W41647  26.013   6.873   3.245
73243W        W41648  11.713   9.537  11.138
73244W        W41649  26.105   0.171  14.710
73245W        W41650  24.698  41.580   3.835
73246W        W41651   3.632  44.363  11.408
73247W        W41652  39.923  38.389  14.342
73248W        W41653  12.656  13.147  11.384
73249W        W41654  13.631  31.621   2.799
73250W        W41655   8.128  16.732   1.964
73251W        W41656  37.310   5.926  11.811
73252W        W41657  17.819  21.299   0.706
73253W        W41658  16.183   0.398   4.019
73254W        W41659  36.328  33.978  13.317
73255W        W41660   3.985  29.243  14.482
73256W        W41661  39.722   9.784   4.640
73257W        W41662  22.173  15.138  13.620
73258W        W41663  37.961  16.353   2.661
73259W        W41664  39.442  14.695   0.970
73260W        W41665  13.714  36.351   4.823
73261W        W41666  11.510  17.250  10.072
73262W        W41667   9.717  10.187   2.809
73263W        W41668  37.477  18.555   1.300
73264W        W41669   7.748  12.341   3.642
73265W        W41670  17.189   3.645   3.234
73266W        W41671  38.526  10.019  11.570
73267W        W41672  44.773   7.729   1.810
73268W        W41673  43.303  39.886   2.414
73269W        W41674  10.118  32.143  11.031
73270W        W41675  27.423  21.104  10.438
73271W        W41676   5.330  14.239  12.274
73272W        W41677   6.476  31.678  12.346
73273W        W41678  33.655  38.507   1.708
73274W        W41679  42.849   4.772  11.615
73275W        W41680   5.185  37.992   1.895
73276W        W41681  25.073  42.523  12.388
73277W        W41682  31.024   7.253  11.915
73278W        W41683   9.706  22.199  14.942
73279W        W41684  43.535  21.752   1.490
73280W        W41685  17.038  30.886   1.193
73281W        W41686  44.918  17.993  14.077
73282W        W41687  38.946   7.294  12.196
73283W        W41688  20.697  26.049   4.145
73284W        W41689  25.488   5.877   0.913
73285W        W41690  24.522  25.949  12.133
73286W        W41691  36.109  22.702  14.840
73287W        W41692   8.615  27.550  10.632
73288W        W41693  27.792   7.824  13.325
73289W        W41694  36.769  20.530   0.237
73290W        W41695  12.099  37.845  14.860
73291W        W41696   8.946  11.879  11.601
73292W        W41697  27.040  11.141  10.749
73293W        W41698  29.513   9.944   0.413
73294W        W41699   1.918  35.657   0.651
73295W        W41700  35.393  17.773   1.942
73296W        W41701  28.217   0.993   4.604
73297W        W41702  41.016   7.167  11.839
73298W        W41703  22.355   9.222  14.670
73299W        W41704  41.859  12.600   4.739
73300W        W41705  30.813  23.992   1.910
73301W        W41706  37.792  13.373  11.493
73302W        W41707  39.658  22.254  12.627
73303W        W41708  35.400  40.344   1.788
73304W        W41709   0.630   7.374  10.787
73305W        W41710  32.939  18.359   2.596
73306W        W41711  31.818  38.068  14.999
73307W        W41712  15.838  31.975   5.078
73308W        W41713  41.141  30.805  13.088
73309W        W41714  23.674  37.547   4.068
73310W        W41715  38.212   3.722   1.020
73311W        W41716   4.773   1.005   4.451
73312W        W41717  31.596  31.381  11.061
73313W        W41718   6.799   7.912   3.277
73314W        W41719  44.941   8.285  12.186
73315W        W41720  34.489   7.856   3.295
73316W        W41721   0.628  16.068   0.770
73317W        W41722   9.836  24.698   0.246
73318W        W41723  30.883   7.975  12.530
73319W        W41724  29.028  39.892  12.523
73320W        W41725  23.597  33.503   2.280
73321W        W41726  34.934   0.670   1.359
73322W        W41727  12.084  42.309  11.665
73323W        W41728  12.059   7.279   2.193
73324W        W41729   9.892  30.933   5.008
73325W        W41730  38.142   5.564  14.911
73326W        W41731   5.886  41.922   2.363
73327W        W41732   5.151  41.946   1.264
73328W        W41733   8.399   2.049   4.123
73329W        W41734  31.635   0.753   3.359
73330W        W41735  40.359  33.806  13.897
73331W        W41736  44.677  38.779  11.639
73332W        W41737  27.086  41.980   4.733
73333W        W41738  30.250  18.838  13.416
73334W        W41739  32.505   6.728   1.776
73335W        W41740  25.515  37.653   1.402
73336W        W41741  10.213  21.740  14.724
73337W        W41742  34.944  21.797  12.855
73338W        W41743   4.740   7.433  12.592
73339W        W41744   5.153   0.824  11.182
73340W        W41745  26.681  23.215   1.351
73341W        W41746  20.840   5.719  12.860
73342W        W41747  24.491  17.851   1.230
73343W        W41748   3.055  26.923  14.930
73344W        W41749   1.286  37.696   0.213
73345W        W41750  16.131  22.686  10.340
73346W        W41751  20.301  15.109  11.034
73347W        W41752  21.885  19.190   1.438
73348W        W41753  35.589  13.844  12.028
73349W        W41754  28.914  43.445  14.482
73350W        W41755   9.583  27.275  14.525
73351W        W41756  43.448  13.867   3.173
73352W        W41757  28.858  17.791  10.810
73353W        W41758   9.138  15.451   4.507
73354W        W41759  20.844  15.140   3.572
73355W        W41760  25.974  24.213  13.557
73356W        W41761   2.883  12.613   0.885
73357W        W41762  26.958  33.442   2.797
73358W        W41763   1.785   9.917   1.348
73359W        W41764  22.253  37.504   3.015
73360W        W41765   9.554  31.699  14.831
73361W        W41766   5.753  20.761  12.034
73362W        W41767  32.076  21.032   2.100
73363W        W41768   7.895  25.631   0.462
73364W        W41769   6.380  29.637  14.304
73365W        W41770  21.183  37.317   0.275
73366W        W41771  15.336  27.196   0.126
73367W        W41772   4.127   2.768  12.668
73368W        W41773  41.094  13.389  11.668
73369W        W41774  37.116  41.857   3.731
73370W        W41775   1.232  40.323  14.491
73371W        W41776  36.575  36.876  12.055
73372W        W41777   0.158  22.896  12.752
73373W        W41778  29.924  33.229   4.979
73374W        W41779  12.490   0.729   3.246
73375W        W41780  28.072  22.702  13.376
73376W        W41781   5.383  22.122  14.482
73377W        W41782  27.110  31.934   1.938
73378W        W41783  31.172  32.528   4.516
73379W        W41784  32.561   7.441  12.658
73380W        W41785   2.378   2.916   3.373
73381W        W41786  26.881  41.076   3.726
73382W        W41787   5.878   0.053   1.780
73383W        W41788  27.768   5.925  12.939
73384W        W41789  30.085   8.378  13.119
73385W        W41790  24.734  18.186  10.884
73386W        W41791   7.479  25.138  10.565
73387W        W41792  27.278  41.501   4.566
73388W        W41793  22.937  24.761  11.529
73389W        W41794  32.626   6.814  11.863
73390W        W41795   9.252   9.900   2.690
73391W        W41796  11.893  35.046   0.593
73392W        W41797   6.393  19.191   1.290
73393W        W41798   2.116   9.739   4.131
73394W        W41799   3.425  38.566   4.203
73395W        W41800   6.063   4.463  12.963
73396W        W41801   8.874  28.884  11.509
73397W        W41802  22.215  33.505   3.863
73398W        W41803  26.669  17.971   2.970
73399W        W41804  34.785  24.324   1.627
73400W        W41805  34.010  14.854   2.380
73401W        W41806  26.571  30.405   1.353
73402W        W41807  14.711  20.703  14.624
73403W        W41808  44.432  19.625   4.471
73404W        W41809  36.902   1.952   4.139
73405W        W41810  19.777  40.268  14.971
73406W        W41811   0.897   9.657  12.516
73407W        W41812  16.579  31.189   1.280
73408W        W41813   6.602  16.618   3.591
73409W        W41814  40.903  39.917  11.633
73410W        W41815  36.949  15.154  14.464
73411W        W41816  35.029  15.357   2.074
73412W        W41817   6.456   7.654   0.285
73413W        W41818  34.002   6.162   3.297
73414W        W41819   4.069  31.390  14.089
73415W        W41820  23.067  34.658   3.743
73416W        W41821  33.458  29.524   2.993
73417W        W41822   9.122  24.628  10.817
73418W        W41823  24.911  36.642   0.817
73419W        W41824  31.326  20.682  13.277
73420W        W41825   3.192  20.348   2.143
73421W        W41826  23.968  22.452   0.897
73422W        W41827  26.059  41.358   2.130
73423W        W41828  14.259  31.205   0.246
73424W        W41829  42.345  16.785   2.268
73425W        W41830  17.763  33.141  12.053
73426W        W41831  22.091  36.137   4.774
73427W        W41832   3.394   3.907  10.638
73428W        W41833  22.598  24.204  10.720
73429W        W41834  38.330  20.502  12.476
73430W        W41835  29.225  17.989  13.571
73431W        W41836  25.232  44.486   1.543
73432W        W41837  30.133  26.041   0.681
73433W        W41838  15.798  11.263   2.256
73434W        W41839  36.470  16.617   1.272
73435W        W41840  34.079  28.189   3.220
73436W        W41841  27.661  32.414  14.469
73437W        W41842  35.895  39.549  13.502
73438W        W41843  20.410  24.672   2.235
73439W        W41844  41.471  16.828  14.912
73440W        W41845  29.479  41.178   4.109
73441W        W41846  32.139  38.686   2.092
73442W        W41847  24.837  28.880   4.072
73443W        W41848  31.657  35.405  12.145
73444W        W41849  43.437  12.175   1.980
73445W        W41850  16.059  25.187   4.567
73446W        W41851  20.526  18.488   2.173
73447W        W41852  42.939  23.995  13.065
73448W        W41853  21.593   3.860   1.370
73449W        W41854   4.682  16.341  10.530
73450W        W41855  36.774  31.018   5.092
73451W        W41856  12.785  39.378  12.833
73452W        W41857  28.183  20.305  13.323
73453W        W41858  41.125  13.067  14.488
73454W        W41859  20.922  35.967   0.572
73455W        W41860  15.111  31.154  11.077
73456W        W41861  22.721  42.823   1.883
73457W        W41862  44.366   8.337  13.541
73458W        W41863  37.389   8.871  12.471
73459W        W41864  18.001  39.544   2.743
73460W        W41865  38.539  27.948  10.477
73461W        W41866  41.380  44.902   0.531
73462W        W41867  11.415  15.511  10.564
73463W        W41868  18.679  35.149  10.585
73464W        W41869  14.112   4.248  13.050
73465W        W41870  14.348  42.584  13.828
73466W        W41871  34.872  44.920  10.959
73467W        W41872  22.198   5.324   3.131
73468W        W41873  16.548  18.232  13.554
73469W        W41874  34.557  42.050   0.774
73470W        W41875  31.116  18.609  12.499
73471W        W41876  14.918  40.345   4.880
73472W        W41877  16.809  16.991  14.929
73473W        W41878  34.607  43.011   4.145
73474W        W41879  13.647   0.004  13.802
73475W        W41880  30.059  29.945   1.430
73476W        W41881   8.212  43.184   3.304
73477W        W41882  16.559  30.909   2.127
73478W        W41883  15.799  39.959   1.336
73479W        W41884  30.947   6.731   1.797
73480W        W41885  16.819  18.154   4.466
73481W        W41886  25.925  38.581   2.680
73482W        W41887  30.803   0.840  11.274
73483W        W41888  11.631  18.342   3.725
73484W        W41889  41.400  36.809  13.405
73485W        W41890  39.857   4.482  12.046
73486W        W41891  18.219  44.949   3.744
73487W        W41892  36.742  41.333   0.563
73488W        W41893  23.971   7.195   1.204
73489W        W41894  26.504  12.623  11.337
73490W        W41895  11.283  44.521  10.666
73491W        W41896  24.120   6.466  13.413
73492W        W41897   6.881  40.392   4.573
73493W        W41898  23.843  22.873   3.348
73494W        W41899  44.845  38.191  12.479
73495W        W41900  23.334  40.465   3.420
73496W        W41901  12.743   1.273  12.133
73497W        W41902  29.252  13.721  13.842
73498W        W41903  25.746  37.074   2.312
73499W        W41904  36.590  13.161  10.738
73500W        W41905  21.411  19.783   2.437
73501W        W41906  23.196   2.100   2.298
73502W        W41907  10.903   0.752  13.840
73503W        W41908  34.802  43.817   3.728
73504W        W41909   8.357   5.569  14.320
73505W        W41910  41.243  29.893   1.739
73506W        W41911  12.921  29.884   4.372
73507W        W41912   5.250  18.630   9.667
73508W        W41913  15.782  20.753   0.114
73509W        W41914  33.220   1.865   4.965
73510W        W41915  10.174  34.410  13.841
73511W        W41916  38.572  31.475   1.287
73512W        W41917   4.647   5.355  14.452
73513W        W41918   9.943  43.368   0.935
73514W        W41919  21.908  43.070   1.970
73515W        W41920   9.081  22.612   1.341
73516W        W41921  11.137  35.558   3.707
73517W        W41922  12.046  31.916  12.648
73518W        W41923  27.461   3.719  13.534
73519W        W41924  40.490  30.533   1.667
73520W        W41925  35.802  23.199  13.127
73521W        W41926  15.550  26.149  14.417
73522W        W41927  33.344  23.554   1.043
73523W        W41928  25.884   3.129  12.530
73524W        W41929  23.151  29.534  10.506
73525W        W41930  18.228  21.570   0.875
73526W        W41931  14.723  41.067  11.592
73527W        W41932   8.487  38.553   1.885
73528W        W41933   6.612   5.709  12.923
73529W        W41934   8.195  33.551  14.973
73530W        W41935  41.865  33.738  10.034
73531W        W41936  10.414  44.896  11.358
73532W        W41937  34.877  29.694   3.397
73533W        W41938  19.508  35.308  12.409
73534W        W41939  26.603   4.887  11.677
73535W        W41940  23.165  12.845  10.999
73536W        W41941  23.304  42.866  13.442
73537W        W41942  33.336  14.197  10.136
73538W        W41943  15.721   1.846   9.790
73539W        W41944  26.719  18.286  13.442
73540W        W41945  12.202  26.736  10.075
73541W        W41946  11.852   8.925  10.619
73542W        W41947  20.147  20.264  14.476
73543W        W41948   9.167  23.942  12.017
73544W        W41949   4.307  37.906  14.133
73545W        W41950   5.119   3.446  14.351
73546W        W41951  32.498  32.969  14.361
73547W        W41952  10.185   3.335  11.562
73548W        W41953  37.336  22.630   4.474
73549W        W41954  13.029  20.312  14.006
73550W        W41955   4.471  39.669  13.951
73551W        W41956  24.686  20.948  11.358
73552W        W41957  22.115  31.201   4.119
73553W        W41958  36.286   2.346   0.172
73554W        W41959  41.831  24.054   3.235
73555W        W41960  28.644  23.014  11.222
73556W        W41961  13.567  29.628   3.080
73557W        W41962  29.239  35.067   0.416
73558W        W41963  27.087  15.963  14.762
73559W        W41964  37.065  31.829  11.648
73560W        W41965  44.414  41.868   1.669
73561W        W41966  31.675  15.817   0.728
73562W        W41967  37.093  30.939  11.533
73563W        W41968  19.306  20.145  11.404
73564W        W41969  23.668  35.039   1.718
73565W        W41970   4.418   6.829   2.649
73566W        W41971  41.113  26.918   1.440
73567W        W41972  33.552  25.199  13.570
73568W        W41973  14.259  17.228  11.098
73569W        W41974  39.066   8.141   2.151
73570W        W41975  28.950   8.643  13.537
73571W        W41976  11.861  34.003  12.907
73572W        W41977  29.135   5.176   1.451
73573W        W41978  32.588   3.842   2.492
73574W        W41979  26.639   5.514   1.419
73575W        W41980  17.583  32.440  12.581
73576W        W41981  40.411  41.430  12.826
73577W        W41982   1.895  10.621   0.179
73578W        W41983  13.746  38.327   3.698
73579W        W41984  39.374  36.655  14.320
73580W        W41985  29.564   5.695   3.844
73581W        W41986  38.997   2.675   5.088
73582W        W41987  21.225  36.391   3.695
73583W        W41988   2.876   2.548  12.110
73584W        W41989  43.316  15.229  11.646
73585W        W41990  28.148  37.514   4.512
73586W        W41991  37.122  22.546   3.442
73587W        W41992  11.898  38.502  10.629
73588W        W41993  24.241  13.068  11.582
73589W        W41994  24.268   1.069   1.841
73590W        W41995  24.183   1.470  14.090
73591W        W41996  40.624  26.653  14.791
73592W        W41997   1.889   0.910   1.188
73593W        W41998  23.758  19.553   0.852
73594W        W41999  29.517  22.054  10.062
73595W        W42000  13.644   1.776  12.827
73596W        W42001  36.016  28.212   2.203
73597W        W42002   7.312   2.206  13.355
73598W        W42003  23.783   1.807   0.357
73599W        W42004  35.776  26.061   3.247
73600W        W42005  17.830  29.661  12.911
73601W        W42006   2.833   2.038  12.123
73602W        W42007   5.802  31.863  12.618
73603W        W42008  11.265  13.350   3.648
73604W        W42009  37.818  10.250   2.895
73605W        W42010  36.304  26.090  12.493
73606W        W42011  15.759  43.123  10.931
73607W        W42012   3.649  38.416  11.013
73608W        W42013  29.638  36.627   1.112
73609W        W42014   2.456  13.199  14.804
73610W        W42015  16.695  38.030   0.991
73611W        W42016  26.786  44.487   2.192
73612W        W42017  18.623  10.892  12.404
73613W        W42018  19.270  33.636   4.867
73614W        W42019  36.419  31.876  11.004
73615W        W42020   8.456  18.111  12.802
73616W        W42021  24.132  38.078   4.488
73617W        W42022   5.736  32.230   1.525
73618W        W42023   2.274  33.500   4.569
73619W        W42024   9.361   6.806  14.952
73620W        W42025  29.881  11.300  13.973
73621W        W42026  37.663  38.051   1.894
73622W        W42027  26.013  38.910   3.579
73623W        W42028   7.412   5.220   4.588
73624W        W42029  31.889  36.134   2.126
73625W        W42030  32.111   9.139  13.124
73626W        W42031  12.148   3.047   4.303
73627W        W42032  27.451  39.373  14.752
73628W        W42033  27.156  19.947  14.309
73629W        W42034  35.476  15.291  12.937
73630W        W42035  30.052  28.147   2.843
73631W        W42036  37.348  16.557   3.905
73632W        W42037  30.531  38.236   4.328
73633W        W42038   4.381  21.652   2.132
73634W        W42039  40.435   9.660   0.723
73635W        W42040  12.184   8.749   1.855
73636W        W42041  32.990  19.791  10.783
73637W        W42042  36.028  39.649  11.441
73638W        W42043  24.115   9.647  10.493
73639W        W42044  30.715  42.972   0.296
73640W        W42045  15.160  18.991   3.621
73641W        W42046  22.120   3.415   0.812
73642W        W42047  18.663  33.180   3.290
73643W        W42048  27.053  25.155  11.444
73644W        W42049  22.666  38.899  13.068
73645W        W42050  15.593  18.811   3.425
73646W        W42051   6.263  13.270  12.551
73647W        W42052  40.525  42.972   1.802
73648W        W42053   7.827   2.761   4.609
73649W        W42054  41.896  25.218   3.311
73650W        W42055   0.341  41.137   3.943
73651W        W42056  37.529  11.155  12.659
73652W        W42057  32.436  11.900   4.671
73653W        W42058  20.117  24.722   2.687
73654W        W42059   0.473  42.862  10.751
73655W        W42060  40.224  12.345  11.679
73656W        W42061  34.316  11.160   4.034
73657W        W42062  29.676  38.854  11.104
73658W        W42063  22.675  12.608  14.876
73659W        W42064  35.454  29.091  13.051
73660W        W42065  24.410  41.002  11.795
73661W        W42066   6.756   0.283   0.055
73662W        W42067  18.606  41.527  12.860
73663W        W42068  19.358  14.328  10.696
73664W        W42069  27.650  23.984  13.921
73665W        W42070  21.082   4.238  12.008
73666W        W42071  24.541  20.800  14.543
73667W        W42072  41.941  30.193  13.414
73668W        W42073   4.725   6.634   4.264
73669W        W42074   6.209  13.591  13.039
73670W        W42075  24.910  30.888   1.797
73671W        W42076  43.662  42.480  11.073
73672W        W42077  39.377   5.122   4.900
73673W        W42078  25.701   9.516   4.879
73674W        W42079  19.247  35.540   3.367
73675W        W42080  22.654  36.824   0.325
73676W        W42081  24.025  10.138  13.897
73677W        W42082   3.606   7.767   1.437
73678W        W42083  43.318  18.222  14.396
73679W        W42084   7.784  41.016   0.476
73680W        W42085  42.115   8.545   4.333
73681W        W42086   3.090  37.293  13.424
73682W        W42087   9.827  24.552  13.825
73683W        W42088  18.850   0.334   0.776
73684W        W42089  40.352  43.007   1.247
73685W        W42090   0.418  12.028   2.316
73686W        W42091   7.363   0.336   1.257
73687W        W42092   8.808   3.236  14.534
73688W        W42093  14.472  31.053   3.782
73689W        W42094  28.407  22.033  13.470
73690W        W42095  25.529  18.033   2.843
73691W        W42096  15.067  30.187   4.602
73692W        W42097  20.171  35.379  10.691
73693W        W42098   6.690  36.900  13.354
73694W        W42099  33.158  15.581   1.852
73695W        W42100  39.736  18.268   1.281
73696W        W42101   6.950  41.492   2.672
73697W        W42102  22.971  34.414  12.878
73698W        W42103   0.268  29.974  13.061
73699W        W42104  44.069  13.533  12.955
73700W        W42105   8.360  37.124   4.088
73701W        W42106   9.660  21.261   2.851
73702W        W42107  34.828  18.961   4.512
73703W        W42108  18.332  12.857  12.674
73704W        W42109  20.175  33.808  14.838
73705W        W42110   3.879  22.946   0.902
73706W        W42111  43.277  35.188   3.225
73707W        W42112  21.998  41.378  12.409
73708W        W42113  34.531   2.663  11.130
73709W        W42114  18.271   4.151  12.538
73710W        W42115  34.070   6.189  14.840
73711W        W42116  25.773  29.679  14.611
73712W        W42117  44.327  29.428  14.770
73713W        W42118  11.179  34.359   4.627
73714W        W42119  12.333  16.171   3.744
73715W        W42120  10.699  22.536   3.596
73716W        W42121   1.768   1.068  13.915
73717W        W42122   5.934  20.065   4.548
73718W        W42123   4.797  16.678   4.131
73719W        W42124  39.323  40.953  12.092
73720W        W42125  21.944  13.436   1.171
73721W        W42126  34.706   6.420   1.703
73722W        W42127  37.916  15.320   4.340
73723W        W42128  14.431   6.438   4.138
73724W        W42129  26.465  22.058  14.674
73725W        W42130  11.057  11.486  12.895
73726W        W42131  11.300  31.136  13.942
73727W        W42132  14.345  21.606  14.376
73728W        W42133  20.735  19.286   4.598
73729W        W42134  14.667  37.760  13.995
73730W        W42135  35.104  22.791   9.584
73731W        W42136  43.470  26.210   4.592
73732W        W42137  28.600   1.712   3.356
73733W        W42138  44.390   1.738  10.679
73734W        W42139  43.512  26.353   1.338
73735W        W42140  18.496   1.861   0.174
73736W        W42141  20.418  41.118   1.878
73737W        W42142   4.706  26.523  14.433
73738W        W42143  42.470  14.170   1.381
73739W        W42144  17.470  38.999  13.787
73740W        W42145  22.746  22.081   0.948
73741W        W42146  16.777  36.465  10.734
73742W        W42147   6.232  38.351   3.056
73743W        W42148  20.563   4.707   2.760
73744W        W42149  12.225   2.471   0.716
73745W        W42150  25.570  35.276  12.447
73746W        W42151  24.794  30.466  13.968
73747W        W42152   3.139  23.054   0.010
73748W        W42153  15.802  43.681   0.925
73749W        W42154  20.395  39.861  13.654
73750W        W42155  28.666   1.226   4.695
73751W        W42156  26.692  16.098  10.291
73752W        W42157   8.384  26.165   0.918
73753W        W42158   1.713  42.278  12.081
73754W        W42159  33.882  19.386   0.757
73755W        W42160  21.246  26.244  11.624
73756W        W42161  31.712  14.130  14.867
73757W        W42162   0.867   8.356   3.194
73758W        W42163  37.363  19.564   2.737
73759W        W42164  26.061  32.610  14.573
73760W        W42165  14.632  34.438  12.007
73761W        W42166  37.409  28.703   1.736
73762W        W42167  42.301  43.388   2.945
73763W        W42168  13.212   1.941  13.128
73764W        W42169  35.041  18.367   1.535
73765W        W42170  18.544  11.899   0.805
73766W        W42171  41.061  21.056  13.475
73767W        W42172  39.425   3.649   2.410
73768W        W42173  26.701  18.378  14.422
73769W        W42174  27.659  14.829   4.417
73770W        W42175  24.020  20.703  14.546
73771W        W42176  32.039  31.566  11.966
73772W        W42177  40.928   6.767   4.524
73773W        W42178  15.721   0.488   5.541
73774W        W42179  29.968  12.254   0.447
73775W        W42180   4.965  39.807   3.756
73776W        W42181   2.746  39.828   3.182
73777W        W42182  31.597  14.345  14.385
73778W        W42183  25.648  42.736   2.823
73779W        W42184  22.175  28.331   1.710
73780W        W42185  19.199  39.677   4.428
73781W        W42186  28.000  43.408   3.764
73782W        W42187  21.225   3.235  13.399
73783W        W42188  35.454  22.357   2.236
73784W        W42189  24.906  12.450   2.336
73785W        W42190  22.253  30.493  11.167
73786W        W42191  39.598  28.688  13.435
73787W        W42192  36.847  37.985  11.700
73788W        W42193  17.746   4.732   1.238
73789W        W42194  36.295  14.326  10.365
73790W        W42195   9.094  14.649   2.808
73791W        W42196  11.517  33.304   3.166
73792W        W42197  37.745  16.724   1.617
73793W        W42198  37.492  34.053   2.762
73794W        W42199  43.860  18.634  10.857
73795W        W42200  30.514   4.396   1.262
73796W        W42201  21.390  36.726  11.017
73797W        W42202  30.735  39.001  12.804
73798W        W42203   6.639  42.426   0.548
73799W        W42204  25.642  20.642  10.957
73800W        W42205  42.501  34.390  10.971
73801W        W42206  37.347  20.135  13.611
73802W        W42207  28.091  26.167   5.138
73803W        W42208  17.129   9.350   0.755
73804W        W42209  12.844  11.127  12.383
73805W        W42210  27.132  37.455   3.037
73806W        W42211  34.408  29.010  12.092
73807W        W42212   9.535   6.155  13.247
73808W        W42213  13.734  38.088  14.510
73809W        W42214  14.670   2.205   1.958
73810W        W42215   5.784  14.588   4.306
73811W        W42216  17.975  12.238  14.435
73812W        W42217  10.876  20.456  12.009
73813W        W42218  26.165   1.318  12.406
73814W        W42219  15.309  24.542  14.433
73815W        W42220  25.374  30.250  13.020
73816W        W42221   7.375  30.071  12.524
73817W        W42222  24.613   0.469  11.257
73818W        W42223  35.987  42.218   4.147
73819W        W42224  23.987   0.938  14.896
73820W        W42225   4.158  31.199   0.430
73821W        W42226   1.073  40.954  13.459
73822W        W42227  25.224   7.692  13.789
73823W        W42228  30.651  41.571   9.884
73824W        W42229  28.208  41.003  13.787
73825W        W42230   4.776  24.763  11.331
73826W        W42231  22.033  30.231   4.376
73827W        W42232  35.475  42.402  12.983
73828W        W42233  15.507  41.503   3.245
73829W        W42234  41.557  13.365  14.452
73830W        W42235  29.864  23.774  10.625
73831W        W42236  25.388  22.645   4.617
73832W        W42237  19.723   1.457   3.775
73833W        W42238  23.167  14.877  14.950
73834W        W42239  16.673  13.584   1.270
73835W        W42240  16.590  36.803   1.439
73836W        W42241   9.306   9.102   2.909
73837W        W42242  32.466  27.084   3.221
73838W        W42243  17.756   8.978  12.016
73839W        W42244  35.239   8.332  10.907
73840W        W42245   9.596  24.321   2.631
73841W        W42246   1.722   2.417  13.539
73842W        W42247   5.343  28.889   3.506
73843W        W42248   8.447  42.380  12.143
73844W        W42249  29.054  26.302   1.003
73845W        W42250  20.372  44.326  14.839
73846W        W42251   8.360  20.052  11.681
73847W        W42252   1.891  29.571   4.391
73848W        W42253  28.564  17.169   0.907
73849W        W42254  14.335   2.485   4.505
73850W        W42255  36.506  42.380  14.812
73851W        W42256  28.728  15.585   4.158
73852W        W42257   5.741  10.919  12.882
73853W        W42258  20.327  25.094  14.870
73854W        W42259  17.583   2.482  12.110
73855W        W42260  37.043  12.046  14.625
73856W        W42261  16.213  14.037   3.630
73857W        W42262  29.015  29.025   3.917
73858W        W42263  36.813  10.785  14.920
73859W        W42264   0.721  28.570   1.416
73860W        W42265  25.019  31.899  14.514
73861W        W42266   4.794   9.785  10.418
73862W        W42267  10.301   7.547  11.673
73863W        W42268  14.031   2.901   4.408
73864W        W42269  29.341  33.616  11.025
73865W        W42270  28.634  19.765  11.616
73866W        W42271  32.244   7.220   1.721
73867W        W42272   0.680  19.577  13.362
73868W        W42273   0.949  30.122  12.620
73869W        W42274  43.460  12.849  12.504
73870W        W42275  11.723  21.644   1.456
73871W        W42276  23.775  38.568   1.046
73872W        W42277  32.640  42.040   2.755
73873W        W42278  35.682  20.098  12.843
73874W        W42279  16.097  38.946   4.561
73875W        W42280  20.466  14.378   3.043
73876W        W42281  23.373  12.214   1.688
73877W        W42282  34.044  11.069   3.140
73878W        W42283   7.218   5.173  13.475
73879W        W42284  39.472  41.641  13.822
73880W        W42285  22.074  20.535   4.317
73881W        W42286  14.587   2.009  12.888
73882W        W42287  25.194   5.201  10.560
73883W        W42288   8.810  38.525   0.230
73884W        W42289  21.101   3.204  10.898
73885W        W42290  23.976  35.512  13.409
73886W        W42291  18.170  14.653   1.393
73887W        W42292  15.307  37.063  11.376
73888W        W42293  19.389  10.301  14.458
73889W        W42294  37.372  10.249  12.840
73890W        W42295   6.763  30.215   2.644
73891W        W42296  21.156  24.682  13.416
73892W        W42297  40.375   7.834  13.334
73893W        W42298  37.512  36.852  12.858
73894W        W42299  21.305  19.169  13.514
73895W        W42300  33.301  30.846  12.100
73896W        W42301  35.614  17.831  11.343
73897W        W42302  26.310  11.118  14.309
73898W        W42303  23.134  20.547   1.283
73899W        W42304  15.944  43.921  13.678
73900W        W42305  26.160  41.059   0.250
73901W        W42306  34.304  28.865  11.017
73902W        W42307  43.238  30.992  14.372
73903W        W42308  38.027  32.118  10.873
73904W        W42309  17.038  11.720   2.262
73905W        W42310  14.986   7.616  14.253
73906W        W42311   0.802  35.060   3.312
73907W        W42312  28.241  10.874  11.161
73908W        W42313   8.549   4.915  13.474
73909W        W42314   1.992  37.406  10.738
73910W        W42315  21.174  44.884  14.040
73911W        W42316  32.253  35.751  14.967
73912W        W42317   0.894  27.470  12.767
73913W        W42318   5.951  20.614   0.170
73914W        W42319  23.067  35.411   4.376
73915W        W42320  25.196  19.209   2.284
73916W        W42321  26.129  19.292   2.760
73917W        W42322  18.095  31.470   0.334
73918W        W42323  37.351  13.727   4.664
73919W        W42324  42.762  43.953   0.772
73920W        W42325   5.185   7.793  11.518
73921W        W42326  40.853  44.267   3.283
73922W        W42327   3.434  22.127   2.679
73923W        W42328   4.805   5.982  12.602
73924W        W42329  34.012  25.480  11.904
73925W        W42330   5.952   1.397   1.900
73926W        W42331   2.525   4.989   3.116
73927W        W42332  13.514  33.314   1.387
73928W        W42333  42.665  35.423  11.500
73929W        W42334  26.544  33.235  11.644
73930W        W42335  35.595  24.575  14.809
73931W        W42336  15.298  24.220   3.269
73932W        W42337  42.556  33.935   4.573
73933W        W42338   7.865  40.976  12.924
73934W        W42339  23.296  13.753  12.397
73935W        W42340  15.813  39.913  11.411
73936W        W42341  29.170  33.039   0.548
73937W        W42342  37.799  43.286   4.505
73938W        W42343   5.506  29.204   3.898
73939W        W42344   2.338  43.001   1.954
73940W        W42345  14.398  11.865   1.886
73941W        W42346  11.678  18.158   4.690
73942W        W42347  29.519  33.407   0.430
73943W        W42348   3.380   5.387   3.411
73944W        W42349  15.104  28.095   3.861
73945W        W42350  27.040  21.486  11.583
73946W        W42351  36.676  24.416  13.026
73947W        W42352   4.279  16.344  11.469
73948W        W42353   7.289  31.323   3.271
73949W        W42354   9.711  42.428   2.531
73950W        W42355  17.027  20.356  11.585
73951W        W42356  16.236  27.060  10.577
73952W        W42357  18.717   6.444  12.404
73953W        W42358  14.812  41.439   4.957
73954W        W42359  18.843  11.401  10.724
73955W        W42360  40.108  13.208  14.312
73956W        W42361   5.769  30.025   1.808
73957W        W42362   0.263   2.784  12.921
73958W        W42363  19.101  33.185   4.650
73959W        W42364  35.499   4.134  14.734
73960W        W42365  19.119  16.244   0.685
73961W        W42366  28.372  26.386  14.373
73962W        W42367   4.251  16.519   3.454
73963W        W42368  19.297   9.840   3.183
73964W        W42369  20.662  24.707   2.701
73965W        W42370  16.545  10.074  12.382
73966W        W42371   4.389  11.276   3.969
73967W        W42372  33.069   1.963   1.190
73968W        W42373  29.612   9.354  13.624
73969W        W42374  35.543  27.976  14.938
73970W        W42375  18.346  42.216   0.204
73971W        W42376  40.182   2.673  12.053
73972W        W42377  31.379  14.377  12.480
73973W        W42378  10.695  11.852   1.381
73974W        W42379  33.427  23.617   0.044
73975W        W42380  13.411  22.400  10.254
73976W        W42381  14.700  40.764  11.171
73977W        W42382  42.619  12.460  11.213
73978W        W42383  14.140   8.941  13.517
73979W        W42384  25.782   5.756   3.580
73980W        W42385  42.040  12.217  14.100
73981W        W42386  26.322  23.277   0.948
73982W        W42387  14.818   5.288  13.448
73983W        W42388  18.083  27.411  14.858
73984W        W42389  36.593   5.657  14.365
73985W        W42390  24.073  10.624   4.167
73986W        W42391  23.648  34.784  14.845
73987W        W42392  17.682  17.282  12.498
73988W        W42393  22.904  13.533  10.290
73989W        W42394   3.017  29.636   1.384
73990W        W42395  11.239  27.956  11.229
73991W        W42396  18.795  42.570   2.666
73992W        W42397  23.792  12.858   3.811
73993W        W42398  39.120  33.729  12.162
73994W        W42399  10.324  12.987   0.055
73995W        W42400  42.325  37.019   1.295
73996W        W42401  32.598  27.577   2.365
73997W        W42402   1.836  10.588   3.606
73998W        W42403  11.495  32.957  10.475
73999W        W42404  24.741  25.158   1.824
74000W        W42405  35.543   2.410  13.868
74001W        W42406  22.180  30.477   0.785
74002W        W42407  28.075  33.013  11.108
74003W        W42408  44.881   7.562  13.419
74004W        W42409   5.886  18.091  11.982
74005W        W42410  14.696   2.089  13.394
74006W        W42411  27.182   2.175  12.878
74007W        W42412  32.685  31.214  12.960
74008W        W42413  29.954   1.130   1.388
74009W        W42414  29.441  34.161   4.745
74010W        W42415  22.779  30.799   2.405
74011W        W42416  36.219  11.786   2.003
74012W        W42417  25.437  25.958  11.276
74013W        W42418  42.931  16.536   1.787
74014W        W42419   9.100   9.221   4.847
74015W        W42420   8.718  23.883  13.153
74016W        W42421  32.647  42.832   0.631
74017W        W42422  36.156  12.222  12.525
74018W        W42423  40.891  42.962   4.542
74019W        W42424  31.166  31.481  14.759
74020W        W42425   5.686  23.105   0.046
74021W        W42426   1.314  39.762   2.161
74022W        W42427  33.980  42.387  12.498
74023W        W42428  15.395  22.286  11.246
74024W        W42429  40.370  20.944   4.628
74025W        W42430   2.274  32.379  13.667
74026W        W42431  19.513   1.694   1.679
74027W        W42432  33.490  26.151   0.952
74028W        W42433   5.061   9.367  14.572
74029W        W42434  33.432  31.854   1.139
74030W        W42435  21.236  34.571   1.594
74031W        W42436  17.065  31.421  13.965
74032W        W42437  23.422   1.621  14.566
74033W        W42438  17.165  37.874   0.779
74034W        W42439  27.640  23.229   1.329
74035W        W42440  18.317  12.102  10.709
74036W        W42441  42.478  41.433   0.698
74037W        W42442  13.674  20.956   4.215
74038W        W42443  39.047   7.328   2.796
74039W        W42444  10.351  38.633  10.198
74040W        W42445  36.454   8.128   1.793
74041W        W42446  32.863  41.973  13.408
74042W        W42447  30.933  26.585  11.891
74043W        W42448  28.502  14.267   4.564
74044W        W42449  42.064  14.969  14.889
74045W        W42450  22.021  35.175   2.955
74046W        W42451   7.160  41.560   1.111
74047W        W42452  35.796  12.772  13.865
74048W        W42453  17.108  15.257   0.737
74049W        W42454  25.133   8.704   1.800
74050W        W42455  16.884  30.822   3.780
74051W        W42456  26.917  21.809   1.684
74052W        W42457   9.648  36.149   3.728
74053W        W42458  38.053  43.886   3.333
74054W        W42459   8.268  11.260   2.233
74055W        W42460  37.468  24.537   1.289
74056W        W42461  31.963  34.190  12.070
74057W        W42462  12.272   8.200   4.230
74058W        W42463  21.149  18.277   2.606
74059W        W42464  11.390  32.026   1.865
74060W        W42465  41.076  27.052  13.406
74061W        W42466  24.658  32.915  11.431
74062W        W42467  13.179   3.318   4.164
74063W        W42468  18.784  44.717  12.403
74064W        W42469  13.418  37.154  12.547
74065W        W42470  14.050  42.800   0.385
74066W        W42471  23.473  38.872  12.541
74067W        W42472   8.159  32.608   2.654
74068W        W42473  27.731   2.909  14.007
74069W        W42474  34.270  41.301   4.250
74070W        W42475  10.498  38.797   1.794
74071W        W42476  26.527  23.448   3.154
74072W        W42477  19.176  25.525   0.227
74073W        W42478   5.831  44.080  14.041
74074W        W42479  30.533  40.618   9.841
74075W        W42480  22.442   8.763  12.895
74076W        W42481   2.497   7.813  14.388
74077W        W42482   3.598  17.251   2.792
74078W        W42483  29.068  43.372   0.512
74079W        W42484  40.991  14.549  13.939
74080W        W42485  29.497  41.308  11.084
74081W        W42486  15.570  18.740   0.864
74082W        W42487  19.497  18.139   3.214
74083W        W42488  29.420  15.936  14.174
74084W        W42489  14.553  30.876  14.823
74085W        W42490  38.276  43.208   2.242
74086W        W42491  34.054  21.956  11.973
74087W        W42492   0.742   0.407   4.209
74088W        W42493   9.821  25.564   4.857
74089W        W42494  21.179   7.963  12.991
74090W        W42495  14.932  25.763   2.663
74091W        W42496  24.659  30.470   1.940
74092W        W42497  32.105  25.087  13.125
74093W        W42498  29.479  11.810   9.796
74094W        W42499  18.670  29.168   1.902
74095W        W42500   5.584   1.232   3.596
74096W        W42501  35.865  39.384  14.373
74097W        W42502  11.244  39.419   1.030
74098W        W42503  16.129   0.725  14.563
74099W        W42504  37.012  15.366  13.968
74100W        W42505  13.241  39.934   0.908
74101W        W42506  30.661  37.155   3.196
74102W        W42507   0.922   9.873  10.026
74103W        W42508  10.706  39.803  10.565
74104W        W42509  13.377  32.188  12.737
74105W        W42510  22.982  24.898  13.629
74106W        W42511  34.029   9.819   0.225
74107W        W42512  42.399  28.587  10.652
74108W        W42513   5.432  29.003  11.526
74109W        W42514  14.771   7.670  13.783
74110W        W42515  28.256  28.866   4.989
74111W        W42516   8.443  28.038   3.614
74112W        W42517  19.687  11.210  11.560
74113W        W42518  41.867   7.966   3.707
74114W        W42519   2.007  23.685   2.913
74115W        W42520  20.609  32.689  10.981
74116W        W42521  41.559  35.885  10.927
74117W        W42522  36.627  32.806   1.912
74118W        W42523  23.076  26.192  14.916
74119W        W42524  13.851   5.332  10.982
74120W        W42525  28.950  30.880   2.209
74121W        W42526  22.601   3.332   9.820
74122W        W42527  33.615  30.635  12.473
74123W        W42528  14.826   4.669   0.258
74124W        W42529  43.421  41.095  12.458
74125W        W42530  35.564   3.704   3.820
74126W        W42531  30.035  19.805   1.789
74127W        W42532  12.316  22.531  10.963
74128W        W42533  18.663  38.051  13.103
74129W        W42534  36.435  30.887   2.768
74130W        W42535  27.563  40.270   1.911
74131W        W42536   0.775  38.281  12.933
74132W        W42537  20.206  38.220  14.003
74133W        W42538  26.247  19.136   0.699
74134W        W42539  18.641  21.951   2.748
74135W        W42540  16.930  35.362   3.310
74136W        W42541   2.924  21.973  10.761
74137W        W42542   4.521   1.454   0.912
74138W        W42543   9.770  18.795   2.810
74139W        W42544  31.213   5.468  14.426
74140W        W42545  18.620  35.132   0.703
74141W        W42546  24.873  22.617   4.577
74142W        W42547  31.708  18.086   3.378
74143W        W42548  11.454  40.627  12.552
74144W        W42549  21.816  10.738   3.208
74145W        W42550   3.918  34.033   4.290
74146W        W42551  16.615  24.294   4.563
74147W        W42552  43.487  26.695  12.704
74148W        W42553  13.825  40.904  13.452
74149W        W42554   9.962  36.139  11.189
74150W        W42555   1.478   4.272   0.308
74151W        W42556  38.820  19.407  12.186
74152W        W42557  22.254  12.733  10.640
74153W        W42558  23.780   5.975   4.114
74154W        W42559   4.267  44.767  13.949
74155W        W42560  15.728   1.345  10.642
74156W        W42561  37.045  21.796  13.006
74157W        W42562  25.551   8.792  12.011
74158W        W42563  16.006  39.467  10.650
74159W        W42564  24.019   4.241   4.335
74160W        W42565  44.435  11.102   0.354
74161W        W42566  42.864  10.781   2.102
74162W        W42567  18.536  22.548  12.073
74163W        W42568  12.703  31.168   4.757
74164W        W42569  24.600   5.547  13.035
74165W        W42570  26.042  12.529  12.143
74166W        W42571  39.498   3.406   3.613
74167W        W42572  27.867  24.534   0.805
74168W        W42573  16.344   9.077  13.805
74169W        W42574  35.634  24.972  14.458
74170W        W42575  19.914  42.259   0.651
74171W        W42576  10.351  44.311   3.708
74172W        W42577  35.253  40.080  12.865
74173W        W42578  19.087  38.856   0.960
74174W        W42579  16.771   2.760  13.303
74175W        W42580  21.005  23.684  10.155
74176W        W42581  33.946  35.947   1.696
74177W        W42582   9.587  44.316   1.894
74178W        W42583  40.462   1.022  10.224
74179W        W42584  33.110  18.504  13.148
74180W        W42585  44.112  29.568  13.423
74181W        W42586   5.496  44.845  13.480
74182W        W42587  32.404   4.312   3.333
74183W        W42588  40.650  40.436  10.690
74184W        W42589  22.249   6.429  12.087
74185W        W42590  11.079  27.455  14.049
74186W        W42591  17.897  40.327   2.355
74187W        W42592  44.994   0.696  12.775
74188W        W42593  36.527  25.397  13.031
74189W        W42594  31.322   4.275   2.858
74190W        W42595   6.137  12.884   2.594
74191W        W42596   5.999  29.468   4.133
74192W        W42597  43.829  29.931   4.036
74193W        W42598  16.564  42.552   1.195
74194W        W42599  18.435  23.107   3.460
74195W        W42600  29.209  34.349  12.647
74196W        W42601   2.492  23.287  12.878
74197W        W42602  13.012  35.725   2.375
74198W        W42603  39.790  25.481  11.083
74199W        W42604   9.308  25.978  12.933
74200W        W42605  10.628   9.341  11.236
74201W        W42606  19.772   9.270   2.227
74202W        W42607  29.316  12.279   3.181
74203W        W42608  18.282  12.780   1.120
74204W        W42609  14.998   7.806   4.519
74205W        W42610  41.365   0.393  13.352
74206W        W42611   9.698  43.337   1.383
74207W        W42612  29.526  25.206  10.004
74208W        W42613  15.885   6.924   2.750
74209W        W42614  34.134   8.347  14.550
74210W        W42615  35.981   5.692  12.076
74211W        W42616  29.342  33.978   0.834
74212W        W42617  28.258  31.111  13.046
74213W        W42618  29.596  41.828  11.020
74214W        W42619  13.601  36.593  11.691
74215W        W42620  11.628  31.118   4.185
74216W        W42621  21.359  32.364   4.731
74217W        W42622  42.849  19.532  13.798
74218W        W42623  43.854  25.121  15.000
74219W        W42624   3.227  19.625   1.460
74220W        W42625  43.400   6.626   4.491
74221W        W42626   8.745  43.296  12.720
74222W        W42627  42.745   9.747  11.531
74223W        W42628  39.041  24.451   3.032
74224W        W42629   6.738  35.238   4.686
74225W        W42630  34.870   4.840   2.713
74226W        W42631  29.452   5.725   0.572
74227W        W42632  44.219   2.871   2.936
74228W        W42633  26.946  33.845   0.828
74229W        W42634  30.909  35.748   0.782
74230W        W42635  44.400  27.987   3.817
74231W        W42636  28.123  24.166   4.623
74232W        W42637  33.140  36.047   3.039
74233W        W42638   1.886  16.293   1.310
74234W        W42639  23.695   6.112   0.786
74235W        W42640   1.901  17.757   4.254
74236W        W42641  36.104   4.843   4.153
74237W        W42642   2.284   2.443   0.848
74238W        W42643   1.248  20.295  12.057
74239W        W42644  10.755  32.674  13.548
74240W        W42645  24.617  41.361  13.598
74241W        W42646  22.219   0.578  13.531
74242W        W42647  25.486  27.230   1.862
74243W        W42648  29.093  39.974   1.991
74244W        W42649  41.963  33.677  11.591
74245W        W42650   0.991   3.370   2.854
74246W        W42651   6.103  33.318  11.201
74247W        W42652  27.312  25.186  11.007
74248W        W42653  24.272   5.700  12.504
74249W        W42654  25.759  22.215   2.129
74250W        W42655  38.896  18.972   3.320
74251W        W42656  22.771  25.611  13.102
74252W        W42657  35.492  37.741  12.788
74253W        W42658  29.976   2.960  11.818
74254W        W42659   4.218  42.732   3.725
74255W        W42660  37.462   8.659  12.010
74256W        W42661  10.368  25.265  14.842
74257W        W42662  33.375  34.924  14.474
74258W        W42663  35.319  29.906  12.957
74259W        W42664  37.053  32.992   2.938
74260W        W42665  18.730   2.307   0.549
74261W        W42666   3.367  37.936   0.455
74262W        W42667  42.846  35.313   4.057
74263W        W42668   6.744  30.099   9.861
74264W        W42669  40.685  26.652   2.790
74265W        W42670   3.866  21.591  14.242
74266W        W42671  13.824  19.332   3.108
74267W        W42672  10.595  36.560   3.335
74268W        W42673  44.090   4.845   1.354
74269W        W42674  36.571   1.314   0.805
74270W        W42675   5.823   1.237  13.501
74271W        W42676  11.845  14.614  10.739
74272W        W42677  44.632  20.785  14.346
74273W        W42678  34.440   4.361   0.911
74274W        W42679  31.660  31.434  12.798
74275W        W42680  13.371  23.366  12.427
74276W        W42681  37.857  40.872   3.759
74277W        W42682  28.839  17.230   2.693
74278W        W42683  44.217   3.383  14.914
74279W        W42684  27.074  26.519  13.086
74280W        W42685  38.826  44.255  12.133
74281W        W42686   4.374   4.052   5.025
74282W        W42687   9.674  15.136   3.695
74283W        W42688   7.990  41.576  11.799
74284W        W42689  16.055   8.919  14.954
74285W        W42690  22.661   5.464   4.765
74286W        W42691  25.543   4.673  14.404
74287W        W42692   7.606   1.703   0.282
74288W        W42693   0.696  28.873  14.742
74289W        W42694   1.457  35.457   3.339
74290W        W42695  18.249  13.661   4.786
74291W        W42696  12.815  13.373  13.543
74292W        W42697  22.724  32.612   4.065
74293W        W42698  32.914  37.001  14.757
74294W        W42699  39.845  40.378  11.940
74295W        W42700  34.025  22.014   1.017
74296W        W42701   4.697  28.081   4.513
74297W        W42702  30.657   0.057   4.289
74298W        W42703   0.762  19.133   4.570
74299W        W42704   5.165  33.355   3.287
74300W        W42705  19.034  36.351  11.560
74301W        W42706  16.242  28.193  10.782
74302W        W42707  30.736  36.873   1.883
74303W        W42708  13.567   6.679   3.362
74304W        W42709  41.454  44.457  13.326
74305W        W42710  23.666  29.638   1.793
74306W        W42711  32.082  17.948  14.914
74307W        W42712   3.529   0.746   2.807
74308W        W42713  10.755   1.496   0.814
74309W        W42714  12.934   4.000   5.057
74310W        W42715   1.935  28.326  13.392
74311W        W42716  17.135  17.857   0.915
74312W        W42717   4.790  27.004  10.584
74313W        W42718   2.029  33.623   4.121
74314W        W42719  29.704   7.227  14.530
74315W        W42720  28.146  24.527   3.789
74316W        W42721  42.825  43.933   0.257
74317W        W42722  36.611   4.535  12.415
74318W        W42723  41.529  24.940  13.943
74319W        W42724   1.331  36.233  14.767
74320W        W42725  18.565  20.118   3.400
74321W        W42726  14.927  12.387  14.524
74322W        W42727   2.345  37.173   3.544
74323W        W42728   0.506  42.523   0.295
74324W        W42729   2.609  38.963   3.397
74325W        W42730   5.707  12.866  14.887
74326W        W42731  30.213   2.455  14.956
74327W        W42732  19.932  29.976   0.920
74328W        W42733  23.017  30.554  13.488
74329W        W42734  28.875   4.324  10.682
74330W        W42735  29.129  33.591   2.121
74331W        W42736  16.002  42.942   1.988
74332W        W42737  41.492  19.055   3.143
74333W        W42738  30.159   4.202   3.703
74334W        W42739  34.972  16.880  11.085
74335W        W42740  21.726  40.851  13.308
74336W        W42741  40.331   3.680  12.034
74337W        W42742  36.067  28.002  13.495
74338W        W42743  28.105  29.878  11.994
74339W        W42744   9.486  15.317   4.983
74340W        W42745   9.770  28.600   1.904
74341W        W42746  32.142  32.369   4.528
74342W        W42747   1.628  44.237  11.989
74343W        W42748  37.357  39.554   1.739
74344W        W42749   4.440  30.405   1.326
74345W        W42750  13.639  28.827  12.549
74346W        W42751  18.132  30.891   2.110
74347W        W42752  12.843  10.580   4.611
74348W        W42753   6.366  37.938   0.380
74349W        W42754   7.704   1.529  12.657
74350W        W42755   9.801  19.684   4.030
74351W        W42756  43.219  31.823  13.765
74352W        W42757  32.925  18.794  11.544
74353W        W42758  32.526  17.073   3.247
74354W        W42759  24.000  10.185   0.377
74355W        W42760  37.410   6.837   1.823
74356W        W42761   4.367  38.432  11.517
74357W        W42762   9.849  32.350  10.637
74358W        W42763  35.049  10.434  11.151
74359W        W42764   0.757   7.199   3.304
74360W        W42765  41.081  27.013   2.299
74361W        W42766  37.539   9.669  11.540
74362W        W42767  27.249  26.884   3.577
74363W        W42768  18.294  15.856   3.268
74364W        W42769  26.259  10.811  12.170
74365W        W42770  18.618  38.934  10.853
74366W        W42771  10.645   0.055  10.267
74367W        W42772  38.077  29.706   1.357
74368W        W42773  44.790  33.097   3.751
74369W        W42774  20.780   2.649   4.673
74370W        W42775   6.850  27.998  10.988
74371W        W42776  44.207  11.207   1.700
74372W        W42777  44.809   7.622  14.757
74373W        W42778  21.266  18.751  11.652
74374W        W42779  40.045   7.438   1.354
74375W        W42780   3.973  22.128  12.033
74376W        W42781  17.046  44.343  11.886
74377W        W42782   5.199  30.991  11.505
74378W        W42783  30.873   2.200   2.710
74379W        W42784  19.158  18.322   4.110
74380W        W42785   0.245  18.061   3.221
74381W        W42786  15.661   9.612   1.393
74382W        W42787   8.667  19.342  12.861
74383W        W42788  41.528  21.811  13.869
74384W        W42789  29.120  21.170   2.188
74385W        W42790  34.105  40.877  10.790
74386W        W42791  16.004  24.020  12.660
74387W        W42792  22.934  44.371  11.164
74388W        W42793   6.420  15.103   4.167
74389W        W42794  34.994  37.961  11.213
74390W        W42795  16.980  26.091  14.489
74391W        W42796  21.741  40.796   1.643
74392W        W42797   9.449   8.762   0.404
74393W        W42798  28.175   7.868  14.040
74394W        W42799  39.601   4.116  12.589
74395W        W42800  17.034  42.906   2.822
74396W        W42801  27.626  33.452   3.683
74397W        W42802  39.850   5.360  11.984
74398W        W42803  19.501  43.247  13.481
74399W        W42804  27.622  27.707  13.346
74400W        W42805  34.132  41.996  11.566
74401W        W42806  41.110   7.908   3.176
74402W        W42807  18.178  37.764   4.328
74403W        W42808  27.662  16.887  14.912
74404W        W42809   0.222  34.824  10.572
74405W        W42810  18.504   2.698  13.082
74406W        W42811   9.392   3.269  13.535
74407W        W42812  22.977   4.347   2.870
74408W        W42813  17.179   3.194  11.190
74409W        W42814  14.550  23.191  14.520
74410W        W42815  37.380  31.553  14.859
74411W        W42816  19.837  26.075   4.554
74412W        W42817  16.810  17.346   1.356
74413W        W42818  32.248  21.909   3.537
74414W        W42819  36.262   2.409   0.702
74415W        W42820  27.595  14.252  14.455
74416W        W42821  32.665  27.039  12.540
74417W        W42822  14.559  40.445  13.794
74418W        W42823   0.397  25.788  14.123
74419W        W42824  33.649   4.785   2.302
74420W        W42825  23.744  19.699   3.254
74421W        W42826  37.873  42.797  14.340
74422W        W42827  29.604  17.242   0.724
74423W        W42828   8.334  19.665   1.327
74424W        W42829  14.782  38.370  11.301
74425W        W42830  20.063  35.715  11.048
74426W        W42831  30.878  15.543   2.705
74427W        W42832  19.527   3.190   2.318
74428W        W42833  14.685  12.892   0.629
74429W        W42834  21.163  12.227  13.372
74430W        W42835  42.921  25.336  12.686
74431W        W42836  18.217   9.036  13.490
74432W        W42837   9.285  29.642   0.413
74433W        W42838   9.172  30.488   3.239
74434W        W42839  22.094  42.077   1.774
74435W        W42840  31.836   4.815  14.489
74436W        W42841  36.808   3.709   9.940
74437W        W42842   3.465  25.052  13.399
74438W        W42843  36.582   2.239   2.399
74439W        W42844  15.113  34.619  12.225
74440W        W42845  41.523  44.760   1.009
74441W        W42846  32.227   7.940   1.267
74442W        W42847  34.552  17.181   3.358
74443W        W42848  14.138  12.730   2.897
74444W        W42849   3.692  43.784   0.865
74445W        W42850  13.412   0.561   0.851
74446W        W42851   9.845  34.609  10.649
74447W        W42852  25.729  30.211   0.491
74448W        W42853  10.275  24.733   0.554
74449W        W42854   7.347  24.988  13.770
74450W        W42855  27.671   8.186   2.999
74451W        W42856  10.363   2.274  11.592
74452W        W42857  21.699  13.101  13.483
74453W        W42858  35.084  31.701   0.543
74454W        W42859   4.794  43.957  10.694
74455W        W42860  33.989   0.451  12.968
74456W        W42861  18.370  40.531   2.244
74457W        W42862  43.922   0.294  10.903
74458W        W42863   9.778  28.656  11.111
74459W        W42864  35.811  13.650  11.576
74460W        W42865  25.819  31.154  10.677
74461W        W42866  17.761  33.000   3.745
74462W        W42867  25.876  31.033  12.482
74463W        W42868  31.868  34.248   2.365
74464W        W42869  23.390  30.082   4.441
74465W        W42870  16.577  17.438   0.350
74466W        W42871  27.219  21.430   1.875
74467W        W42872  26.437  37.841   2.842
74468W        W42873   0.526  26.628   0.340
74469W        W42874  30.972   0.275   2.768
74470W        W42875  15.421   1.221   3.232
74471W        W42876  19.237  34.938  12.099
74472W        W42877  32.903  30.198  10.763
74473W        W42878  10.100  22.582   1.466
74474W        W42879  34.428  10.143   1.645
74475W        W42880  41.702  25.554  12.465
74476W        W42881  32.409   6.896  14.367
74477W        W42882  43.602   4.932   1.336
74478W        W42883  39.227   3.117  10.415
74479W        W42884   0.941  13.672   3.061
74480W        W42885  21.629  28.693   3.727
74481W        W42886  12.715  12.121   4.437
74482W        W42887  15.258  28.611   3.294
74483W        W42888  16.120  21.885   3.655
74484W        W42889  20.685  25.424  11.900
74485W        W42890  13.365   7.213   4.147
74486W        W42891  31.964  33.206   4.224
74487W        W42892  15.735  39.289   2.832
74488W        W42893   4.866  27.008  14.461
74489W        W42894  40.427   2.981  12.950
74490W        W42895  25.767  33.791   1.771
74491W        W42896  18.652  20.546  12.686
74492W        W42897   9.671  26.966  14.933
74493W        W42898   2.892   4.312   2.318
74494W        W42899  13.107  16.662   1.894
74495W        W42900  28.159  14.723   1.874
74496W        W42901   9.412  18.235   2.882
74497W        W42902  21.668  28.482  13.650
74498W        W42903  13.340  16.696  11.664
74499W        W42904   5.469  17.570   3.684
74500W        W42905   9.205  26.494   3.633
74501W        W42906  26.914   5.832   1.763
74502W        W42907  19.073  42.339   1.313
74503W        W42908  24.231  20.796  13.570
74504W        W42909  24.578   9.699  10.779
74505W        W42910  23.268  16.182  13.003
74506W        W42911  19.771   9.985  12.035
74507W        W42912  15.257  12.424   4.555
74508W        W42913  26.428  27.787  13.989
74509W        W42914  10.369  32.516   4.044
74510W        W42915  41.972  43.897  12.306
74511W        W42916   3.207  26.455   4.199
74512W        W42917  41.929  29.474   3.083
74513W        W42918  43.076   5.597   4.369
74514W        W42919   7.134   2.464  10.608
74515W        W42920  37.528  44.349   2.217
74516W        W42921   0.881  20.500   0.241
74517W        W42922   7.359   4.238   1.486
74518W        W42923  22.741  44.468   1.523
74519W        W42924  42.561  29.963   2.708
74520W        W42925   8.915  21.534   3.066
74521W        W42926  41.232  34.076   0.302
74522W        W42927   0.584  30.114  14.921
74523W        W42928  42.253  35.565   0.378
74524W        W42929  33.810  10.282   3.701
74525W        W42930   4.752  41.834  10.695
74526W        W42931  21.774   5.002  13.334
74527W        W42932  29.864  28.281   4.519
74528W        W42933  28.153   1.996   4.225
74529W        W42934  34.530   9.858  10.881
74530W        W42935  27.104  11.688  12.268
74531W        W42936  30.627   8.962   4.066
74532W        W42937  31.668  11.194   2.940
74533W        W42938   0.462  36.961   3.967
74534W        W42939  22.074  41.735  10.821
74535W        W42940  33.455  31.027  11.630
74536W        W42941  27.278   7.584  12.484
74537W        W42942  29.655  17.972   1.285
74538W        W42943  20.694   7.313  10.194
74539W        W42944  44.348  15.883   4.138
74540W        W42945  33.392  19.289   4.840
74541W        W42946   5.542  39.237   3.295
74542W        W42947  34.888   0.616  10.355
74543W        W42948  44.925  43.930  14.042
74544W        W42949  41.777  13.831  10.609
74545W        W42950  43.883   3.284   3.860
74546W        W42951  29.681  32.382  11.955
74547W        W42952  16.889  38.871   4.139
74548W        W42953  21.123  35.628  12.813
74549W        W42954  44.429  27.488   0.207
74550W        W42955   8.219  36.720   2.606
74551W        W42956  31.027  18.081  11.261
74552W        W42957  25.854  26.138   2.483
74553W        W42958  21.534   8.624  11.544
74554W        W42959  19.978  39.945  13.194
74555W        W42960  44.146  14.285  13.302
74556W        W42961  14.155  27.181  11.944
74557W        W42962  36.830  22.320   2.149
74558W        W42963   3.613  31.107  11.670
74559W        W42964  38.234   0.784   4.133
74560W        W42965  22.195  15.830  11.880
74561W        W42966  40.381  19.747   0.320
74562W        W42967  39.066  28.833   4.146
74563W        W42968  26.666   4.273   4.616
74564W        W42969  24.708  35.434   0.287
74565W        W42970   9.159  27.596  14.530
74566W        W42971  20.638   1.257   1.250
74567W        W42972  24.513  16.184   3.655
74568W        W42973   4.417  30.465  11.776
74569W        W42974  31.652  24.676   2.176
74570W        W42975  42.381  32.397  11.904
74571W        W42976   1.932  29.995   3.119
74572W        W42977   3.787   3.488   4.037
74573W        W42978  23.949  28.849   3.652
74574W        W42979  15.212   2.368   4.096
74575W        W42980  27.634  10.336   3.544
74576W        W42981  39.575  14.749  14.429
74577W        W42982  11.338  16.781   2.238
74578W        W42983  36.529  36.502  14.416
74579W        W42984  30.596  17.319  12.440
74580W        W42985   5.984   6.007  13.544
74581W        W42986  14.040  26.960  11.497
74582W        W42987  22.719  43.890  11.142
74583W        W42988  32.746  35.386  11.327
74584W        W42989  32.954  10.378   1.914
74585W        W42990  41.288  13.540  14.867
74586W        W42991  12.821  35.991  12.886
74587W        W42992  29.677  18.021  14.721
74588W        W42993  40.540  14.416   4.116
74589W        W42994  33.008  28.012  12.789
74590W        W42995  16.796  12.831  10.712
74591W        W42996  23.960   0.039   0.924
74592W        W42997   5.151  37.908   4.526
74593W        W42998  34.496  27.095   0.200
74594W        W42999  41.630  42.087  11.990
74595W        W43000  23.231  34.493   0.366
74596W        W43001  15.567  35.345   2.294
74597W        W43002  10.289  11.355   3.846
74598W        W43003  27.562  34.892  10.706
74599W        W43004   5.799   9.729  14.732
74600W        W43005  44.943  18.800   1.261
74601W        W43006  24.688  31.068  11.946
74602W        W43007  39.329  36.564   4.413
74603W        W43008   4.844  39.948  10.731
74604W        W43009  30.794  28.909  14.871
74605W        W43010  38.834  30.803   0.925
74606W        W43011   6.786  29.021  13.939
74607W        W43012  26.340  23.171   3.797
74608W        W43013   4.793  31.887  11.171
74609W        W43014  27.158  13.137   0.356
74610W        W43015  27.505  27.039  10.644
74611W        W43016   9.781  10.821   4.557
74612W        W43017   5.269  18.941   0.546
74613W        W43018   8.890  34.850   0.661
74614W        W43019  23.226  36.705  13.982
74615W        W43020  19.981   9.297  11.238
74616W        W43021  19.957   6.420   2.822
74617W        W43022  26.617  15.353   3.422
74618W        W43023  11.615  21.339  11.569
74619W        W43024  37.771   5.144  12.098
74620W        W43025  27.235  42.450   4.540
74621W        W43026  11.068  31.577  14.847
74622W        W43027   4.529   2.377  13.355
74623W        W43028  43.301  16.201  13.256
74624W        W43029   2.496  12.055   4.158
74625W        W43030  22.410  34.979  12.908
74626W        W43031  20.113  10.219   2.257
74627W        W43032  22.253  42.766  10.509
74628W        W43033  26.104  44.700  12.066
74629W        W43034  32.072  26.910   0.817
74630W        W43035  28.040  28.865  11.787
74631W        W43036  32.546  38.619   1.759
74632W        W43037  27.492  12.716   0.350
74633W        W43038  10.804  42.721   4.260
74634W        W43039  13.668  42.742   3.284
74635W        W43040  13.807  44.479  12.505
74636W        W43041  22.508  41.005  10.212
74637W        W43042  38.997  37.034   3.165
74638W        W43043  15.637  17.172  12.840
74639W        W43044  27.526  36.858  12.506
74640W        W43045  39.283   6.871  12.274
74641W        W43046   6.872  19.577   4.569
74642W        W43047  32.579   5.788  13.508
74643W        W43048  33.144  33.328   0.888
74644W        W43049  21.860  16.493  11.133
74645W        W43050  26.430  14.524   2.338
74646W        W43051  25.162  22.098   0.302
74647W        W43052  31.640   9.863   1.775
74648W        W43053  28.494  40.438   3.541
74649W        W43054  12.812  22.487   4.615
74650W        W43055   4.388  16.358  13.217
74651W        W43056   2.598  11.790   1.932
74652W        W43057  39.355  38.522  14.313
74653W        W43058  10.671  23.118  10.764
74654W        W43059  40.527  17.361  11.636
74655W        W43060  23.446  14.173  13.467
74656W        W43061   1.264  34.031   1.741
74657W        W43062  37.013  43.026  11.990
74658W        W43063   6.962  41.950   0.832
74659W        W43064  32.158  43.013   0.552
74660W        W43065  20.826  41.378  13.765
74661W        W43066   3.321  34.456   0.218
74662W        W43067  12.442   6.422   0.758
74663W        W43068  21.757  23.828   1.395
74664W        W43069   2.205   4.083   4.016
74665W        W43070  24.056  22.244  14.576
74666W        W43071   9.324  25.666   2.434
74667W        W43072  17.034  22.122  11.222
74668W        W43073   5.292  20.023   0.833
74669W        W43074  22.673  36.918  13.455
74670W        W43075  23.118  34.828  14.975
74671W        W43076  22.724  26.446  11.358
74672W        W43077  26.955   7.726   4.459
74673W        W43078   1.065  22.499  12.687
74674W        W43079  11.716  38.741  14.351
74675W        W43080  17.008  35.863  14.344
74676W        W43081  10.006   9.065  13.497
74677W        W43082   2.150  25.635  14.865
74678W        W43083   9.411   4.716  12.939
74679W        W43084   9.778  34.600  12.178
74680W        W43085   9.712  10.343  12.449
74681W        W43086  30.431  15.191  14.475
74682W        W43087   4.816   5.209   0.770
74683W        W43088   7.726   4.773   1.481
74684W        W43089  20.028  29.118  13.022
74685W        W43090  35.146  25.019   3.538
74686W        W43091   0.851  12.178   0.246
74687W        W43092  16.561  11.851   3.196
74688W        W43093  11.533  10.157   5.117
74689W        W43094  38.546  28.751   4.125
74690W        W43095   6.162  34.570  11.257
74691W        W43096   8.181  37.867  12.608
74692W        W43097  31.031  30.114   4.574
74693W        W43098  13.031  16.185   1.739
74694W        W43099  34.206  23.588   4.211
74695W        W43100   7.973  30.885   1.383
74696W        W43101  40.801  28.572   3.608
74697W        W43102  30.413   6.466   2.253
74698W        W43103   5.345  43.574  13.984
74699W        W43104  24.250   7.653   0.343
74700W        W43105  26.935   7.372   5.254
74701W        W43106   7.669  22.276   2.373
74702W        W43107  41.018  40.040   1.750
74703W        W43108  28.413   8.668   2.755
74704W        W43109  26.763  20.682  10.949
74705W        W43110   1.324   9.280   1.175
74706W        W43111   9.157  21.689   1.235
74707W        W43112   1.776  11.104   0.388
74708W        W43113  18.061  24.088   3.631
74709W        W43114  38.547  16.648  12.683
74710W        W43115  42.866   2.199  10.642
74711W        W43116  41.338  12.764   1.210
74712W        W43117  25.159  11.773  14.860
74713W        W43118   8.158  10.329  13.869
74714W        W43119  25.588   6.600   2.360
74715W        W43120  10.536  13.643   1.822
74716W        W43121  40.920  38.444   2.635
74717W        W43122  29.042  10.325   3.305
74718W        W43123  32.971  21.731   0.987
74719W        W43124  16.121  14.794  12.407
74720W        W43125  20.110   4.888  14.315
74721W        W43126   6.196  44.598  12.496
74722W        W43127   7.284  39.943   3.785
74723W        W43128  37.612   1.949  10.574
74724W        W43129   6.334  43.057  12.212
74725W        W43130  24.137  31.869  10.748
74726W        W43131  39.562  31.048  12.536
74727W        W43132  25.290  36.565   4.176
74728W        W43133  28.206   1.706  11.537
74729W        W43134   1.244  44.380   1.264
74730W        W43135  31.229   5.159   2.955
74731W        W43136  25.019  39.874   3.669
74732W        W43137  26.887   4.461  11.597
74733W        W43138   3.774   4.688  13.901
74734W        W43139   8.164  20.785  11.869
74735W        W43140  20.151  33.066  11.821
74736W        W43141  12.502  28.274  11.441
74737W        W43142  18.635  10.752   1.704
74738W        W43143  10.286  31.086   2.207
74739W        W43144   9.922  29.943  12.403
74740W        W43145  22.465  22.973   4.293
74741W        W43146  18.289   9.217  12.780
74742W        W43147   8.967  16.684  12.531
74743W        W43148   4.708   2.283   4.165
74744W        W43149  11.483  27.506   0.841
74745W        W43150  17.793  15.856  11.283
74746W        W43151  23.662   0.975  13.015
74747W        W43152   6.305  24.762  13.600
74748W        W43153   2.788  26.775   0.833
74749W        W43154  30.556   4.664   0.820
74750W        W43155  17.753  15.122   4.643
74751W        W43156   1.868  33.627   2.252
74752W        W43157  38.801   9.782  10.744
74753W        W43158  24.026  35.191  11.765
74754W        W43159  32.000  14.398   1.829
74755W        W43160  15.398  19.123  11.012
74756W        W43161  39.005  11.950   3.687
74757W        W43162  44.547  42.392   4.484
74758W        W43163   9.753   6.133  14.399
74759W        W43164  40.022  26.824   3.177
74760W        W43165  16.107   6.285   2.629
74761W        W43166  34.409  32.873   0.538
74762W        W43167  19.264   2.215   4.302
74763W        W43168  37.873  39.637   1.819
74764W        W43169  29.660   8.406  13.449
74765W        W43170  11.013  25.441   2.670
74766W        W43171  33.915   8.218   5.077
74767W        W43172   9.532  41.029   3.292
74768W        W43173   7.634  12.232   0.915
74769W        W43174  33.505  23.994   3.276
74770W        W43175   3.779  18.680   2.735
74771W        W43176   4.684   0.517  12.415
74772W        W43177  26.528   8.678  11.245
74773W        W43178  37.977  12.159  12.207
74774W        W43179  14.715  39.841   1.379
74775W        W43180  15.743  35.351   3.223
74776W        W43181   2.411  31.053   1.788
74777W        W43182  20.299  15.766   0.315
74778W        W43183  31.444   7.418   4.573
74779W        W43184  40.169   1.957   2.650
74780W        W43185  11.767  19.748  11.588
74781W        W43186   2.484  12.651  11.052
74782W        W43187   0.519   8.619   3.942
74783W        W43188   9.856  33.434   2.395
74784W        W43189  37.368  17.085  12.339
74785W        W43190  19.583  33.606  12.060
74786W        W43191  28.897   1.138   0.983
74787W        W43192   6.616   0.695   1.889
74788W        W43193  16.540  11.856   4.539
74789W        W43194  28.466  31.333   0.776
74790W        W43195   2.584  33.984   2.812
74791W        W43196   4.563  25.637   2.307
74792W        W43197  37.359  12.888  13.524
74793W        W43198  35.518   3.865  10.845
74794W        W43199  13.402  15.964   1.256
74795W        W43200  31.153  42.015  10.655
74796W        W43201  25.098  24.680   4.791
74797W        W43202  25.258  34.375  10.714
74798W        W43203  19.344  12.506   0.411
74799W        W43204  10.302  30.135   2.177
74800W        W43205  22.190   2.702  10.629
74801W        W43206  34.016  19.026  12.983
74802W        W43207   8.395  28.558   4.307
74803W        W43208  33.912   9.142  12.895
74804W        W43209   1.259  40.464  13.555
74805W        W43210  20.083  29.432   3.997
74806W        W43211  30.623   1.072  11.703
74807W        W43212  32.311  44.431   2.202
74808W        W43213  30.409   2.292   4.484
74809W        W43214  38.748  33.084  11.022
74810W        W43215  21.522  13.154   1.352
74811W        W43216  11.983   0.799   3.127
74812W        W43217   5.406  31.550   3.410
74813W        W43218  10.826  33.581   0.854
74814W        W43219  42.361  40.818   2.287
74815W        W43220  43.465  34.280   0.915
74816W        W43221  32.662  15.481   3.223
74817W        W43222  25.956  35.488   0.822
74818W        W43223  14.957   6.962  14.887
74819W        W43224  31.416  38.743   2.778
74820W        W43225  35.781   6.764   4.481
74821W        W43226   9.818  27.036  11.570
74822W        W43227  11.320  10.250   2.277
74823W        W43228  28.125   3.493   3.350
74824W        W43229  42.187  33.917  13.029
74825W        W43230  37.375   6.516  10.999
74826W        W43231   0.567  19.350  12.403
74827W        W43232  12.055  26.491   1.724
74828W        W43233  17.011  12.892   4.190
74829W        W43234  30.198  41.785  11.595
74830W        W43235   5.577   9.572  11.383
74831W        W43236  19.754   7.893   5.003
74832W        W43237  42.641  38.343   4.538
74833W        W43238   6.302   1.081  13.404
74834W        W43239  44.040   6.321   3.331
74835W        W43240   0.371   3.777  12.395
74836W        W43241  36.495  25.574  12.499
74837W        W43242  19.237  36.373   4.336
74838W        W43243  18.128  31.105  12.160
74839W        W43244  19.776  17.098  12.213
74840W        W43245  37.853   7.804   1.806
74841W        W43246  40.063  37.968   2.223
74842W        W43247   9.552  39.574  13.360
74843W        W43248   1.875  37.009  14.774
74844W        W43249  39.428  20.326   0.374
74845W        W43250   9.184  19.216   3.323
74846W        W43251  19.874  32.887  11.144
74847W        W43252   7.686  13.869  12.436
74848W        W43253   6.124  36.520   4.940
74849W        W43254   1.558  14.556  14.394
74850W        W43255  12.741  40.534  13.537
74851W        W43256   7.469  38.517   1.672
74852W        W43257  31.463  39.671   9.714
74853W        W43258  31.916  35.881   3.689
74854W        W43259  43.733   2.766  11.984
74855W        W43260  28.859   7.752   0.520
74856W        W43261  41.732  41.103   3.470
74857W        W43262  10.119  15.551   4.416
74858W        W43263   2.997  27.736   0.948
74859W        W43264  13.828   7.462  12.825
74860W        W43265  25.478  27.479  12.103
74861W        W43266  36.123  11.226  11.719
74862W        W43267  12.173  22.741   2.798
74863W        W43268  35.545  15.842  12.046
74864W        W43269  39.019   1.774   5.074
74865W        W43270  28.480  25.235  12.012
74866W        W43271  15.256  23.235   1.461
74867W        W43272  25.587  17.150  10.341
74868W        W43273  18.298  24.468  11.214
74869W        W43274  10.393  18.595   4.210
74870W        W43275  36.594   5.933  12.537
74871W        W43276  36.424  13.856   4.942
74872W        W43277  14.214   1.508   0.728
74873W        W43278  39.006  31.830  11.622
74874W        W43279  25.685  27.280   0.371
74875W        W43280  27.019  26.222  10.379
74876W        W43281   5.526  39.245  13.711
74877W        W43282   3.225  12.824  14.944
74878W        W43283  33.368  42.118  14.189
74879W        W43284  42.306  44.773   4.604
74880W        W43285  26.587  40.903  12.464
74881W        W43286   8.431  34.538   3.289
74882W        W43287  42.498  30.424   4.605
74883W        W43288  18.889  25.981  14.542
74884W        W43289  16.099  24.008  14.378
74885W        W43290  16.370  35.172   9.703
74886W        W43291  31.046  30.568  14.939
74887W        W43292   9.679  26.598  12.192
74888W        W43293  24.947  18.758   2.329
74889W        W43294   9.633  23.072  14.770
74890W        W43295  31.385  31.376   0.789
74891W        W43296  17.806  30.055  13.787
74892W        W43297  14.047  25.583  13.486
74893W        W43298  12.256  32.494  10.691
74894W        W43299   6.383  28.533   4.572
74895W        W43300  19.271  11.169   2.136
74896W        W43301   3.007  40.771  12.443
74897W        W43302  29.557  14.342   2.115
74898W        W43303  30.603  38.938  12.004
74899W        W43304   3.143   4.322  14.334
74900W        W43305  27.471  40.954   3.709
74901W        W43306   3.188  27.895  11.075
74902W        W43307  21.098  40.834   2.303
74903W        W43308  34.064   7.337  11.843
74904W        W43309  24.534  20.728   4.244
74905W        W43310  28.572  18.345   4.558
74906W        W43311   8.243  32.261   0.338
74907W        W43312  43.254   9.395   4.269
74908W        W43313   3.392  31.559  14.944
74909W        W43314   2.291  16.692   0.180
74910W        W43315  32.125  35.654   1.330
74911W        W43316   6.198   6.509  12.857
74912W        W43317  31.885  10.188  11.638
74913W        W43318  33.686  32.595  11.340
74914W        W43319  37.415  35.968   2.721
74915W        W43320  30.080  36.532  13.076
74916W        W43321  29.935   5.497   0.814
74917W        W43322  30.967  32.388   0.669
74918W        W43323  38.543  28.116   4.441
74919W        W43324   7.967  12.288  12.415
74920W        W43325   0.952  27.111  11.825
74921W        W43326  17.669  27.947  11.275
74922W        W43327  38.035  21.617  10.604
74923W        W43328   4.248  34.817   1.209
74924W        W43329  44.327  12.941   1.683
74925W        W43330  26.197  18.677   3.812
74926W        W43331  11.332  20.901   9.971
74927W        W43332   1.783  42.050   4.653
74928W        W43333  43.894   3.350  11.592
74929W        W43334  28.593   0.846   1.384
74930W        W43335   5.953   7.151   4.493
74931W        W43336   5.826   3.316  10.730
74932W        W43337  24.868  32.952   3.356
74933W        W43338  42.371  36.811  13.087
74934W        W43339  15.183  40.960   2.472
74935W        W43340  17.192   8.875   1.655
74936W        W43341  14.183  12.550  11.509
74937W        W43342  24.173  25.513   1.652
74938W        W43343   9.984   3.321  10.486
74939W        W43344  28.410  37.320   4.117
74940W        W43345  42.223  22.069  14.255
74941W        W43346  39.280   2.211   2.597
74942W        W43347  35.894   9.394  12.548
74943W        W43348  13.236  22.242   0.805
74944W        W43349  12.107  36.839  13.815
74945W        W43350   5.828  11.817   3.798
74946W        W43351   1.681  14.254  13.957
74947W        W43352  41.046  33.127   1.307
74948W        W43353  42.332  22.714  14.842
74949W        W43354  15.597  43.488  11.408
74950W        W43355  22.213  43.004   9.924
74951W        W43356  10.942  31.122  10.795
74952W        W43357  18.021  35.412  12.531
74953W        W43358  44.279  34.923  10.422
74954W        W43359   6.173  36.542  12.197
74955W        W43360  28.579  42.134   0.281
74956W        W43361  13.227   8.706   3.251
74957W        W43362  18.470  21.462  14.905
74958W        W43363  20.088  44.788   2.416
74959W        W43364  18.447  35.731  10.247
74960W        W43365  35.337  17.105  12.427
74961W        W43366   6.254  30.485   1.456
74962W        W43367   1.932  30.454   2.865
74963W        W43368   9.642  14.793   3.311
74964W        W43369  41.083   0.711   3.115
74965W        W43370   4.277  13.367  14.015
74966W        W43371  27.736  36.171   1.417
74967W        W43372   2.352  34.863   1.412
74968W        W43373  37.102  26.658  12.780
74969W        W43374   6.703  28.305  14.884
74970W        W43375  33.044  22.797   2.175
74971W        W43376  42.000   7.244  11.731
74972W        W43377   1.442  16.304   0.546
74973W        W43378  32.397  16.727  11.177
74974W        W43379  14.143  18.540   1.855
74975W        W43380   8.673  18.283  14.314
74976W        W43381  12.861  32.930  13.799
74977W        W43382   8.488  13.708   0.028
74978W        W43383  17.040  41.853   3.766
74979W        W43384  44.732  29.939   2.127
74980W        W43385  41.982  31.191  12.060
74981W        W43386   2.744   8.417  10.267
74982W        W43387   1.555  24.137  12.507
74983W        W43388  38.971   2.569   2.391
74984W        W43389   2.089  35.903  12.152
74985W        W43390  31.944  19.278   2.489
74986W        W43391  10.230  34.084   2.331
74987W        W43392  22.160  13.806   3.637
74988W        W43393  13.538   3.466  13.534
74989W        W43394  20.704  38.806  14.773
74990W        W43395  34.620   9.450  14.069
74991W        W43396  27.546  35.898   0.530
74992W        W43397  36.078  41.842  12.530
74993W        W43398  23.083   2.418   3.372
74994W        W43399  12.608  27.253  10.651
74995W        W43400  17.185  16.689   0.194
74996W        W43401  29.111   4.360   0.898
74997W        W43402  24.417  17.201   4.589
74998W        W43403  31.990  41.357  13.575
74999W        W43404  17.773  24.414  14.472
75000W        W43405   6.909  28.214   2.260
75001W        W43406   3.067  36.671   2.321
75002W        W43407  17.574  14.760   3.822
75003W        W43408  21.666  21.506  13.464
75004W        W43409  30.699  16.875   9.848
75005W        W43410  30.984  32.560   3.122
75006W        W43411  19.136  25.986   0.002
75007W        W43412  26.266  34.467   2.287
75008W        W43413  31.051  30.488  11.393
75009W        W43414  24.273   3.517  11.674
75010W        W43415   4.778  43.382   4.654
75011W        W43416  16.646  32.201   1.399
75012W        W43417  27.262   0.891   4.972
75013W        W43418  11.361  15.820  11.483
75014W        W43419   5.322   7.833   2.355
75015W        W43420  23.075  23.999  11.148
75016W        W43421   8.924  43.214  11.683
75017W        W43422  24.118   6.416   4.200
75018W        W43423  38.330  17.088  13.591
75019W        W43424  17.204  42.414   0.798
75020W        W43425   3.188  13.166   2.750
75021W        W43426  35.970  17.311  14.772
75022W        W43427  42.473  22.689  11.023
75023W        W43428  26.408  26.668  14.315
75024W        W43429  24.330  16.742   0.425
75025W        W43430  21.213   6.430   0.276
75026W        W43431  14.517  23.303  10.967
75027W        W43432   7.178   8.848   3.105
75028W        W43433  32.312  17.676   0.764
75029W        W43434  23.673  14.727  14.871
75030W        W43435  27.139  43.890   2.113
75031W        W43436  36.346  39.960   2.812
75032W        W43437  33.806  14.421  11.208
75033W        W43438  39.063  35.809   2.552
75034W        W43439  11.055  43.006  10.904
75035W        W43440  22.959  27.193   4.600
75036W        W43441  21.531  30.797   0.741
75037W        W43442   7.358  30.511   4.244
75038W        W43443  17.812  13.661  12.874
75039W        W43444  44.420  27.152  11.485
75040W        W43445   5.543  16.033  10.270
75041W        W43446  23.171  31.523  12.893
75042W        W43447  37.053  14.873  11.129
75043W        W43448   9.066  32.901  13.856
75044W        W43449  28.526  33.883  13.537
75045W        W43450  19.803   8.191   1.532
75046W        W43451  41.058  28.880  11.111
75047W        W43452  33.198  34.668   3.612
75048W        W43453   4.284   9.289  13.050
75049W        W43454   9.396  33.902  11.130
75050W        W43455   1.451  36.663  11.915
75051W        W43456   2.268   4.828   1.101
75052W        W43457  12.822  41.749  14.996
75053W        W43458  42.471  43.724   4.040
75054W        W43459  27.368  35.898   3.973
75055W        W43460  24.065  10.127   3.195
75056W        W43461  20.981  36.104   4.580
75057W        W43462   3.712  30.839   0.572
75058W        W43463  16.889  28.523   1.857
75059W        W43464  34.151  12.913  14.284
75060W        W43465  25.941  14.615   2.240
75061W        W43466   5.835   9.322  12.912
75062W        W43467  30.445  34.560  10.212
75063W        W43468  31.469  35.486  14.348
75064W        W43469  33.631   4.213  14.041
75065W        W43470   1.528  37.210  14.458
75066W        W43471  40.378  32.186   5.529
75067W        W43472  43.968  34.218  14.973
75068W        W43473  33.193   4.318  11.928
75069W        W43474  40.019  21.044  14.370
75070W        W43475   0.635  18.675  13.383
75071W        W43476  16.080  16.130  14.498
75072W        W43477  17.346  11.273  14.812
75073W        W43478   3.621  31.731   0.412
75074W        W43479  13.654  40.713  13.007
75075W        W43480  43.238  23.542  13.835
75076W        W43481  18.653  38.407   0.937
75077W        W43482  29.136  16.659   1.061
75078W        W43483  43.380   1.119  12.625
75079W        W43484  31.643  37.590  14.968
75080W        W43485  16.704   1.893  11.404
75081W        W43486  24.339  33.882   1.891
75082W        W43487  33.500   6.944   3.418
75083W        W43488  21.831  33.322   0.515
75084W        W43489  20.697  33.044   1.923
75085W        W43490  36.405  27.571   4.567
75086W        W43491  21.689  24.459  10.663
75087W        W43492  28.007  38.444  10.788
75088W        W43493   2.848   1.403   3.228
75089W        W43494   9.317  27.150  11.554
75090W        W43495  32.088  21.949   1.029
75091W        W43496  38.390  41.038  12.376
75092W        W43497  25.128  34.474   0.068
75093W        W43498  32.138  11.649  14.397
75094W        W43499  18.829  43.461  10.649
75095W        W43500  44.886  18.730  12.916
75096W        W43501  34.848  20.561  11.655
75097W        W43502  15.694  29.425  12.298
75098W        W43503  38.664  24.574   0.354
75099W        W43504  16.628  32.387  14.024
75100W        W43505  22.649  10.390   4.036
75101W        W43506   0.889  31.016   2.325
75102W        W43507  33.374  14.322  12.902
75103W        W43508   2.860  44.773   0.226
75104W        W43509   7.312  28.527   4.133
75105W        W43510   8.273   8.124   1.381
75106W        W43511  15.809  42.053  14.205
75107W        W43512   0.862  14.439  11.519
75108W        W43513  26.706  39.866   1.309
75109W        W43514  25.558   6.325  10.551
75110W        W43515   8.349   8.633  11.164
75111W        W43516  29.964  18.065   3.871
75112W        W43517  33.699  27.506  12.901
75113W        W43518   4.603  13.326   1.217
75114W        W43519  41.462   3.500  13.061
75115W        W43520  32.327  13.235   4.245
75116W        W43521  42.681   2.943  11.135
75117W        W43522  23.539  24.295   4.720
75118W        W43523   4.700  33.064   1.687
75119W        W43524   6.486   3.518   3.620
75120W        W43525  22.756  40.568   3.229
75121W        W43526   6.812  20.810   1.979
75122W        W43527  32.038  23.505  13.852
75123W        W43528  42.919  44.676  11.608
75124W        W43529  37.933  29.903  14.763
75125W        W43530  43.266  40.345   4.112
75126W        W43531  36.874   6.852  14.271
75127W        W43532  17.494  33.895   1.055
75128W        W43533  12.359  44.351   3.152
75129W        W43534   7.623   3.938   3.206
75130W        W43535  11.867  43.974   2.183
75131W        W43536   2.384   5.952  12.964
75132W        W43537  41.360   9.353   3.197
75133W        W43538   7.999  22.092   0.782
75134W        W43539   7.710  30.272  13.353
75135W        W43540  12.764  16.546  14.602
75136W        W43541   2.409  23.066   4.058
75137W        W43542  10.383  21.057   3.224
75138W        W43543  27.339  33.747   3.333
75139W        W43544  28.529  43.452   2.166
75140W        W43545  23.048  14.086  13.807
75141W        W43546  30.773  13.169  10.537
75142W        W43547  13.304   5.780   1.750
75143W        W43548  13.344   1.167   3.710
75144W        W43549  37.324  41.615   0.284
75145W        W43550  38.921  32.336   1.735
75146W        W43551  13.085  31.978   1.237
75147W        W43552  41.942  29.945  13.879
75148W        W43553  43.381  17.612   0.462
75149W        W43554  40.217  38.337  10.674
75150W        W43555  38.056   9.415   0.348
75151W        W43556  31.967  11.837  10.957
75152W        W43557  19.556  34.819  14.759
75153W        W43558  30.501  12.171   0.403
75154W        W43559  15.766   3.854   2.918
75155W        W43560   6.334  13.148  10.366
75156W        W43561  39.801  26.668   2.574
75157W        W43562   2.971  13.646  14.429
75158W        W43563  42.958  23.177   0.398
75159W        W43564   7.936   0.799  11.003
75160W        W43565   0.072  33.091  11.042
75161W        W43566   6.795  16.265   5.512
75162W        W43567  38.772  12.748  10.737
75163W        W43568  30.371  39.793  14.913
75164W        W43569  33.873   0.267   3.552
75165W        W43570  22.052  17.396   4.234
75166W        W43571  18.720  16.746  11.915
75167W        W43572  16.627  31.615   3.290
75168W        W43573  10.879  43.990   2.126
75169W        W43574  36.856   7.197   3.214
75170W        W43575  12.884  16.786  10.955
75171W        W43576  23.201  29.208  10.951
75172W        W43577  12.009  32.025  10.789
75173W        W43578  33.046   1.635   3.520
75174W        W43579  27.039  22.313   4.078
75175W        W43580  39.092   9.577   3.885
75176W        W43581  26.465  38.476  13.936
75177W        W43582  11.997  14.440   0.679
75178W        W43583  39.719  42.206  14.529
75179W        W43584  21.069  24.518  14.789
75180W        W43585  28.769   5.900   2.758
75181W        W43586  31.827  33.550   1.021
75182W        W43587  19.294  41.526   3.630
75183W        W43588   4.936  40.880  13.851
75184W        W43589  15.544  43.913  14.340
75185W        W43590  20.662  41.358  12.886
75186W        W43591  19.470  36.543   3.443
75187W        W43592  31.639  12.193   0.546
75188W        W43593  33.613  16.873  14.280
75189W        W43594   0.744  43.160   4.231
75190W        W43595  30.181   4.802  10.733
75191W        W43596  30.079  32.574  13.781
75192W        W43597  16.716   4.586  14.805
75193W        W43598  32.744  34.134   3.208
75194W        W43599  41.952  24.924  13.562
75195W        W43600  38.847  26.466   0.430
75196W        W43601   5.915  21.279   2.807
75197W        W43602   5.452  15.137   4.107
75198W        W43603  18.389   7.464   2.732
75199W        W43604  34.534  32.959  11.224
75200W        W43605  29.043  29.202  13.804
75201W        W43606  42.145  17.821  13.860
75202W        W43607   5.184  17.571   2.153
75203W        W43608  44.065  39.251  14.810
75204W        W43609  26.057  11.176  14.779
75205W        W43610  39.689  10.369  11.874
75206W        W43611  22.021   4.504   3.678
75207W        W43612  34.077  26.843   4.025
75208W        W43613  21.618  31.699   2.752
75209W        W43614  12.769  14.563   4.467
75210W        W43615  40.346  42.412  13.390
75211W        W43616  21.661   4.202   0.938
75212W        W43617  12.237  29.369   3.364
75213W        W43618   6.558  31.311  11.587
75214W        W43619   2.491   5.501  12.754
75215W        W43620   1.013  43.536   4.567
75216W        W43621  22.276   5.080  11.909
75217W        W43622   2.439   2.038   1.790
75218W        W43623   3.795  14.599   4.003
75219W        W43624  14.201  14.584   2.241
75220W        W43625  37.392  22.000   1.832
75221W        W43626   0.997  12.237  11.313
75222W        W43627  26.271  23.024   2.832
75223W        W43628  31.905   8.683  10.643
75224W        W43629  25.134   2.529   0.245
75225W        W43630  22.599  41.506   3.613
75226W        W43631  20.805   9.246  13.426
75227W        W43632  36.306  29.673   1.151
75228W        W43633  32.815  13.142   4.134
75229W        W43634  30.183  25.523   0.881
75230W        W43635  13.249  35.443   3.308
75231W        W43636  16.919  21.573   4.932
75232W        W43637  28.755  24.535   0.266
75233W        W43638  31.502  19.894   4.591
75234W        W43639  20.099   3.160  10.631
75235W        W43640  13.271  21.342  11.016
75236W        W43641  30.617   2.869   1.374
75237W        W43642  16.905  11.533   4.167
75238W        W43643   6.419   7.138  11.039
75239W        W43644   8.892  29.990   2.353
75240W        W43645  33.644  24.862   0.483
75241W        W43646  32.929  11.668  10.629
75242W        W43647  21.572  11.719   3.483
75243W        W43648  37.856  10.772  10.463
75244W        W43649  30.587  17.126  13.633
75245W        W43650  32.650  11.824   0.246
75246W        W43651  39.854  31.016   1.015
75247W        W43652   4.931  15.339  14.061
75248W        W43653  12.348  13.457   1.740
75249W        W43654  14.055   0.385   5.540
75250W        W43655  25.942  22.690   2.266
75251W        W43656  27.268  14.548   5.264
75252W        W43657   1.101   5.256   3.308
75253W        W43658  38.384  31.135   0.939
75254W        W43659  35.478  23.747  12.375
75255W        W43660  10.217  41.130  14.970
75256W        W43661  33.338   9.253  14.997
75257W        W43662  34.593  34.918   1.539
75258W        W43663  35.603  31.869  14.369
75259W        W43664  23.454  11.860   1.306
75260W        W43665  36.150  25.206  11.482
75261W        W43666  30.458  29.116   4.735
75262W        W43667   5.378  40.521  14.506
75263W        W43668  11.458  32.450  13.288
75264W        W43669  20.785  43.941   2.127
75265W        W43670  39.032   7.494   1.215
75266W        W43671  24.060  11.270   3.070
75267W        W43672  33.725  38.601   9.847
75268W        W43673  42.394  23.643  11.705
75269W        W43674   0.832  30.432  13.373
75270W        W43675  10.396  41.441  12.105
75271W        W43676  12.208   3.427   0.928
75272W        W43677  28.534  21.804   3.752
75273W        W43678  17.340  14.104   0.243
75274W        W43679   8.895  12.396  12.466
75275W        W43680  19.453  40.103   0.809
75276W        W43681  12.701  30.770  13.410
75277W        W43682  32.129  31.587   1.680
75278W        W43683  21.825  13.371  10.979
75279W        W43684  35.877  32.986  11.928
75280W        W43685  39.292  39.819  10.775
75281W        W43686   0.186   9.358   0.886
75282W        W43687  17.269  43.243  13.339
75283W        W43688  41.539  12.315   3.146
75284W        W43689  20.707   6.182   0.918
75285W        W43690   2.312  20.117   1.808
75286W        W43691  17.820  32.160   0.583
75287W        W43692  29.419   7.602  14.762
75288W        W43693  32.621  25.264   0.445
75289W        W43694  38.566  10.413  11.011
75290W        W43695  26.033  43.793   0.504
75291W        W43696   1.708  11.886  10.705
75292W        W43697   9.819  10.408  14.522
75293W        W43698  10.802  10.542  11.986
75294W        W43699  11.284  10.816   3.687
75295W        W43700   6.242  38.068   1.855
75296W        W43701  41.020  41.972   2.737
75297W        W43702   9.145  28.402   0.216
75298W        W43703   5.275   1.769  14.792
75299W        W43704  26.979  38.564  14.733
75300W        W43705  37.925   2.831   1.927
75301W        W43706  35.503  44.886   0.961
75302W        W43707  41.994  20.983   2.842
75303W        W43708  16.203  30.003   4.687
75304W        W43709  22.504   5.884   0.460
75305W        W43710  30.114  43.762   4.650
75306W        W43711  11.882  23.552  10.207
75307W        W43712   2.659  35.406   2.737
75308W        W43713  18.574   6.713   2.360
75309W        W43714  11.659  24.878   1.253
75310W        W43715  37.027  34.361  10.633
75311W        W43716  11.380   6.348   4.538
75312W        W43717  39.554   4.891   0.790
75313W        W43718  24.724  37.307   3.241
75314W        W43719  16.019  38.345   2.946
75315W        W43720  26.186   7.918   2.352
75316W        W43721   5.029  28.998  14.419
75317W        W43722  12.323  10.788  12.971
75318W        W43723  37.489  42.075   5.033
75319W        W43724  39.990   2.093  14.108
75320W        W43725  11.641  34.512   3.242
75321W        W43726  16.002  22.653   4.153
75322W        W43727  38.059   1.919   0.407
75323W        W43728   1.309   8.418  14.863
75324W        W43729  14.140  13.038  11.609
75325W        W43730  30.461  14.191   4.698
75326W        W43731   6.070  10.628   3.484
75327W        W43732  39.027  18.235   9.990
75328W        W43733  22.280  44.989  11.555
75329W        W43734  36.032  20.617   2.821
75330W        W43735  10.184  30.375  12.443
75331W        W43736  31.954  39.059   2.364
75332W        W43737  33.078  32.457  12.616
75333W        W43738   8.602   2.062  14.459
75334W        W43739  19.526  30.706  13.872
75335W        W43740  18.060  43.675   2.514
75336W        W43741  10.612   0.737   4.570
75337W        W43742  41.597   5.327  13.031
75338W        W43743  38.036  10.701   2.790
75339W        W43744   0.133   7.408  10.729
75340W        W43745  33.162  31.441   4.151
75341W        W43746  26.639   2.819   0.863
75342W        W43747  37.057  10.567   0.441
75343W        W43748   9.276  25.906   0.825
75344W        W43749  36.611  27.373  13.978
75345W        W43750  38.011   7.298  13.882
75346W        W43751  23.440  27.024   1.303
75347W        W43752   3.291  17.166   3.611
75348W        W43753  14.013   1.902   2.574
75349W        W43754  40.285   9.811   2.259
75350W        W43755  28.431  14.743  10.099
75351W        W43756  31.052  22.565   4.598
75352W        W43757  35.695  34.400   2.162
75353W        W43758   0.485  26.993  11.663
75354W        W43759   2.909  27.506   4.478
75355W        W43760  23.710   3.856  14.121
75356W        W43761  39.062   0.341   4.420
75357W        W43762   6.483  20.508   2.996
75358W        W43763  28.050  12.153  10.729
75359W        W43764   9.321  26.633  10.608
75360W        W43765  16.087  18.993  11.473
75361W        W43766  38.411  39.104  12.217
75362W        W43767  37.870  30.111  11.966
75363W        W43768  17.057  16.626   4.043
75364W        W43769  18.832  23.396   3.641
75365W        W43770   4.995  13.762  13.518
75366W        W43771   6.643  28.593   4.124
75367W        W43772  39.919   9.611  12.479
75368W        W43773  27.995  10.167  11.947
75369W        W43774  15.536  44.758   2.858
75370W        W43775  19.727  17.174  11.724
75371W        W43776  24.035  44.837  14.482
75372W        W43777  10.209  41.487  10.299
75373W        W43778  13.872  41.362   4.642
75374W        W43779  32.043   0.470   1.177
75375W        W43780  42.931  20.055  11.928
75376W        W43781  29.566  43.155  14.876
75377W        W43782  43.013  39.815  11.892
75378W        W43783  14.842  11.876   2.167
75379W        W43784  15.671  36.542  13.336
75380W        W43785  23.216  24.346  11.489
75381W        W43786  28.456  41.736  10.283
75382W        W43787  15.405  28.220  10.607
75383W        W43788  20.042  15.675   2.852
75384W        W43789  10.023  10.350  11.062
75385W        W43790  17.479   4.009   4.178
75386W        W43791  15.684  27.747  14.897
75387W        W43792  14.900  42.477  12.421
75388W        W43793  28.410  38.351  10.476
75389W        W43794  32.467   8.917   0.227
75390W        W43795  24.472  38.256  12.074
75391W        W43796  37.351  14.214   2.691
75392W        W43797  25.449  39.281   0.370
75393W        W43798   7.594  15.631  10.279
75394W        W43799  23.573  30.124   3.515
75395W        W43800  32.453  36.751  14.901
75396W        W43801  11.175  39.789  14.878
75397W        W43802  32.546  33.519  13.514
75398W        W43803  43.915  22.271  14.302
75399W        W43804   7.473  32.053  13.444
75400W        W43805   0.768   9.946   0.154
75401W        W43806   4.760  35.361   4.150
75402W        W43807   5.214  15.153   1.346
75403W        W43808   2.305  34.229   4.035
75404W        W43809   8.843  27.957   2.348
75405W        W43810  13.172   1.362  11.355
75406W        W43811  44.232  25.161  11.733
75407W        W43812   2.792  15.150  13.220
75408W        W43813  41.090   2.844  12.564
75409W        W43814  36.513   0.277   0.895
75410W        W43815  26.957  40.509   0.197
75411W        W43816  30.241  10.484  11.151
75412W        W43817  38.816   7.340  11.696
75413W        W43818   3.822  38.235  12.901
75414W        W43819  43.866  25.325   2.343
75415W        W43820   2.701  32.563   1.220
75416W        W43821  41.499  25.154   1.473
75417W        W43822  44.398   7.806   3.460
75418W        W43823   8.943  39.781   9.963
75419W        W43824  28.094  23.299  12.059
75420W        W43825  31.353  42.244  11.055
75421W        W43826  35.347  26.464  10.850
75422W        W43827   4.319  43.226   2.831
75423W        W43828   7.705  31.070  12.431
75424W        W43829  34.932  42.686   1.772
75425W        W43830  28.575  32.996   1.724
75426W        W43831  37.561   4.761  10.645
75427W        W43832   9.184  11.137   1.425
75428W        W43833   2.870   9.343  13.873
75429W        W43834  27.409  23.251  14.496
75430W        W43835  34.598  43.705  13.129
75431W        W43836  42.362  14.759   4.691
75432W        W43837  37.435  17.018   3.725
75433W        W43838  24.162  18.052  14.862
75434W        W43839   0.754  18.005  12.053
75435W        W43840   0.744   4.028   2.144
75436W        W43841   0.900  19.492  12.016
75437W        W43842  33.408  24.041   1.781
75438W        W43843  26.955  16.533  10.468
75439W        W43844   3.547  44.700   2.142
75440W        W43845  39.017   5.348  11.589
75441W        W43846  21.021  39.092   3.743
75442W        W43847  33.411  23.498  10.088
75443W        W43848   6.023  31.031   1.374
75444W        W43849  42.060  27.366  11.419
75445W        W43850   0.016  33.617   0.410
75446W        W43851  18.285  19.162  10.717
75447W        W43852   1.361  12.594   4.670
75448W        W43853  21.978  34.794  10.485
75449W        W43854  32.077  12.468   4.438
75450W        W43855  31.633   6.614  14.844
75451W        W43856  35.113  31.377   4.112
75452W        W43857  20.169  11.250  12.993
75453W        W43858  23.613  19.238  12.119
75454W        W43859   3.412   2.818  11.977
75455W        W43860  15.602  19.578   3.029
75456W        W43861  42.546  17.582   1.131
75457W        W43862   2.184   5.054  10.192
75458W        W43863  20.576  41.379   1.468
75459W        W43864  16.148  36.819  12.173
75460W        W43865  23.231  32.606  13.597
75461W        W43866  16.537   7.394   2.269
75462W        W43867   3.225  39.861  14.990
75463W        W43868  14.088   0.864  11.195
75464W        W43869  26.031  41.733   5.057
75465W        W43870  42.395  42.711  14.897
75466W        W43871  33.944   1.402  10.590
75467W        W43872  34.845  35.081  13.421
75468W        W43873  26.923  31.611   2.760
75469W        W43874  13.574  27.980  14.896
75470W        W43875  31.973   5.719   4.156
75471W        W43876  29.038  36.865   2.223
75472W        W43877  18.716  28.176  14.779
75473W        W43878  37.866  14.762   2.095
75474W        W43879   3.512  13.254  12.941
75475W        W43880  35.839   2.309   4.999
75476W        W43881  24.705  15.705   0.310
75477W        W43882  20.619   0.198  12.506
75478W        W43883   4.711  25.595  13.549
75479W        W43884  13.567  35.522   4.096
75480W        W43885   4.736  37.903   0.951
75481W        W43886  40.889   0.053   3.701
75482W        W43887  11.241  26.233   1.187
75483W        W43888  39.618  22.226  11.116
75484W        W43889  25.892  40.300  10.573
75485W        W43890  13.857  30.824   0.562
75486W        W43891   1.317  19.957   2.332
75487W        W43892  15.809  32.375   2.755
75488W        W43893  27.149  23.425   0.347
75489W        W43894  16.988   9.870  12.557
75490W        W43895  14.059  20.696  11.496
75491W        W43896   8.280  26.375   4.492
75492W        W43897  42.679  38.036  11.110
75493W        W43898  37.130   8.424  11.351
75494W        W43899  26.765  15.264  12.588
75495W        W43900  40.091  20.343   2.249
75496W        W43901  36.155  36.601   4.586
75497W        W43902  22.687  26.588   3.635
75498W        W43903   3.785  42.002   0.525
75499W        W43904   4.293   6.950   0.814
75500W        W43905  22.532   6.854   0.512
75501W        W43906  43.071   4.093   3.216
75502W        W43907  35.333  38.392   3.721
75503W        W43908  38.819  17.042  13.798
75504W        W43909  42.884  36.786  11.766
75505W        W43910  20.576  15.262  14.500
75506W        W43911  44.691   1.373  14.003
75507W        W43912  28.592  23.309   0.909
75508W        W43913  14.231  20.206  12.955
75509W        W43914   7.357  36.850   0.183
75510W        W43915  31.567   9.659   4.610
75511W        W43916  21.492   4.367   3.647
75512W        W43917  38.578  25.305   1.892
75513W        W43918  23.239  26.172  12.439
75514W        W43919  20.161  28.149  10.112
75515W        W43920   9.534   3.870   3.619
75516W        W43921  27.071  42.374  14.104
75517W        W43922  23.099   8.826   1.751
75518W        W43923  33.278  35.360  10.597
75519W        W43924  32.835  20.240  14.912
75520W        W43925  33.602  35.102  14.016
75521W        W43926  12.445  32.652  12.539
75522W        W43927  15.657  43.978  11.279
75523W        W43928  41.923  40.837  14.865
75524W        W43929  41.863  28.247  11.922
75525W        W43930  10.518  25.642  11.479
75526W        W43931  31.587   7.855  14.547
75527W        W43932  20.541  41.529   0.149
75528W        W43933  36.288  19.293  13.572
75529W        W43934  19.593  20.030  12.611
75530W        W43935  22.017  22.660  14.880
75531W        W43936  23.489  33.570  12.482
75532W        W43937  21.226   6.632  11.641
75533W        W43938  15.590  27.111   3.113
75534W        W43939  16.795  15.596   3.196
75535W        W43940  12.250  15.596   5.449
75536W        W43941  33.986   6.782   0.503
75537W        W43942  14.987   1.891  12.140
75538W        W43943  16.843  13.265   0.259
75539W        W43944  10.856  15.559   2.803
75540W        W43945  24.282  32.222   2.233
75541W        W43946  25.508  20.922   9.939
75542W        W43947  30.161  16.121   3.592
75543W        W43948  40.516   6.336   1.779
75544W        W43949   5.879  17.548   3.278
75545W        W43950  13.296  35.324  13.387
75546W        W43951  29.536   0.498   3.341
75547W        W43952  14.036   2.017  12.161
75548W        W43953  20.856  11.907   1.896
75549W        W43954   5.411   0.387  13.546
75550W        W43955   4.903  22.583  10.700
75551W        W43956  12.944  12.681  12.053
75552W        W43957  27.734  17.977   2.121
75553W        W43958  35.837  16.978   3.875
75554W        W43959  16.691  12.739   4.593
75555W        W43960  33.503  33.695   0.915
75556W        W43961  34.476   7.374  14.300
75557W        W43962  16.300  18.289  12.989
75558W        W43963  11.349  27.175   3.279
75559W        W43964  21.754  12.681   4.700
75560W        W43965   7.295  17.039  14.751
75561W        W43966   6.664  23.532  11.957
75562W        W43967   7.891   2.707  13.962
75563W        W43968  15.351  36.470   0.782
75564W        W43969  43.759   0.376   4.220
75565W        W43970  26.422  12.277   0.893
75566W        W43971  17.815  30.494   3.246
75567W        W43972  13.299  31.314   2.529
75568W        W43973   3.484  40.902  11.532
75569W        W43974  25.662  21.092   3.693
75570W        W43975  13.396   8.377  14.014
75571W        W43976  26.093   4.029   0.688
75572W        W43977  36.950  15.019   1.756
75573W        W43978  23.581  43.830  10.654
75574W        W43979   0.231  23.223   0.353
75575W        W43980  35.073  31.568   0.041
75576W        W43981   9.575  19.624  11.255
75577W        W43982  31.548   6.778   1.401
75578W        W43983  14.711  33.858   3.634
75579W        W43984   5.440   1.896  11.014
75580W        W43985  34.869   8.187  13.274
75581W        W43986  17.066  11.544  10.280
75582W        W43987  17.802   0.364   0.483
75583W        W43988   1.670   6.615   4.242
75584W        W43989  29.278   6.677  11.073
75585W        W43990  29.433  16.403  12.984
75586W        W43991   8.831  26.280  11.888
75587W        W43992  24.620  17.706   0.749
75588W        W43993  29.704  32.633  12.464
75589W        W43994  33.156   9.920   1.834
75590W        W43995  34.785  36.105   3.356
75591W        W43996  16.390  35.176  12.693
75592W        W43997  26.616  16.378   1.759
75593W        W43998  25.476  34.761   0.791
75594W        W43999  43.306  28.836  14.752
75595W        W44000  38.882   0.906   5.045
75596W        W44001  29.766  24.383   2.310
75597W        W44002  29.012   1.760  11.239
75598W        W44003  33.931  32.171  11.226
75599W        W44004  18.563  32.533  11.643
75600W        W44005  39.986  26.384   1.281
75601W        W44006   5.676  36.083  12.599
75602W        W44007  35.006  24.536   4.785
75603W        W44008   0.429  26.276  14.963
75604W        W44009  25.860  23.552   1.460
75605W        W44010  36.901  26.064   0.039
75606W        W44011  23.716  17.795  14.077
75607W        W44012   7.429   1.020   4.169
75608W        W44013  10.718  35.626   1.912
75609W        W44014  11.101  40.462  13.876
75610W        W44015  33.652  23.034  13.910
75611W        W44016  23.606  12.676   4.768
75612W        W44017   2.224  35.941   3.616
75613W        W44018  38.470  24.487  13.842
75614W        W44019   0.365  34.835   1.717
75615W        W44020   7.655  17.876   4.990
75616W        W44021  13.620  26.263   2.869
75617W        W44022  30.604  10.231  14.278
75618W        W44023  38.913  15.598   3.716
75619W        W44024  21.259  19.584  12.230
75620W        W44025   3.300  26.066   3.736
75621W        W44026   2.829   9.149  14.949
75622W        W44027  28.139   6.299  12.503
75623W        W44028  25.179  31.144  13.976
75624W        W44029  16.355  43.412  12.098
75625W        W44030  33.884   5.274  13.028
75626W        W44031  10.812  41.679   3.330
75627W        W44032  17.233   7.912   2.501
75628W        W44033  12.669  27.930   2.676
75629W        W44034   0.847  13.035  11.892
75630W        W44035  16.329   3.309  11.066
75631W        W44036  27.160  37.433  13.911
75632W        W44037  29.473  19.206  14.299
75633W        W44038  33.304  11.736  12.490
75634W        W44039  44.681  11.237  14.885
75635W        W44040   8.169  28.136  11.702
75636W        W44041  11.644  15.163   0.306
75637W        W44042  32.907  23.658   3.445
75638W        W44043  44.154  21.771   3.720
75639W        W44044   4.387  34.337   3.360
75640W        W44045  30.024  38.302  13.761
75641W        W44046  10.122  15.821   0.197
75642W        W44047   5.688  37.841   4.547
75643W        W44048  42.763  18.053  13.493
75644W        W44049  11.177  27.704   5.138
75645W        W44050   7.955  26.013  12.880
75646W        W44051  13.352  38.137  12.587
75647W        W44052  18.704  17.349   3.294
75648W        W44053  35.523  42.886   0.945
75649W        W44054  21.532  20.734   1.212
75650W        W44055  35.061   5.841   1.020
75651W        W44056  34.185   9.331  14.331
75652W        W44057  18.780  24.440  13.924
75653W        W44058  16.116   8.254   0.770
75654W        W44059  30.535   1.330   2.913
75655W        W44060  34.336  41.330  13.863
75656W        W44061   2.338   7.559   2.379
75657W        W44062  38.046  20.678   2.484
75658W        W44063  10.630   9.186  14.378
75659W        W44064  18.325   6.162   3.182
75660W        W44065  37.303  26.020  13.663
75661W        W44066  20.639  30.601   0.801
75662W        W44067  39.471  33.168   0.942
75663W        W44068   5.291  31.601   0.197
75664W        W44069  40.135  13.832  14.270
75665W        W44070  38.153   1.876  14.915
75666W        W44071  35.414  17.954   3.130
75667W        W44072  32.411  19.616  13.524
75668W        W44073   4.884  21.804   2.186
75669W        W44074  20.642  40.223  10.959
75670W        W44075  21.341  43.295   3.658
75671W        W44076  10.603   4.849   3.640
75672W        W44077  36.983   4.217  12.636
75673W        W44078  32.664  17.645  14.451
75674W        W44079  28.100  43.775   2.199
75675W        W44080  39.569   8.331  11.284
75676W        W44081  40.423  24.888  12.207
75677W        W44082  11.782   5.623   2.337
75678W        W44083   7.576  14.581  14.011
75679W        W44084  10.093   9.462   4.981
75680W        W44085   3.977  43.714  14.932
75681W        W44086  43.639  32.452   1.804
75682W        W44087  22.733  35.056   0.957
75683W        W44088  18.046  38.279  12.826
75684W        W44089   6.528  22.075   3.357
75685W        W44090  33.041  43.576   0.769
75686W        W44091  21.488  16.608  14.969
75687W        W44092  30.526   6.835   0.663
75688W        W44093  12.306   5.713   4.501
75689W        W44094   1.396  19.279  11.945
75690W        W44095  32.009  25.626  13.085
75691W        W44096  10.206  12.636   0.461
75692W        W44097   8.607  43.403  13.999
75693W        W44098  42.914  26.850  11.999
75694W        W44099  32.500  40.724  11.134
75695W        W44100   3.483  43.357   2.856
75696W        W44101  32.494  26.196  12.872
75697W        W44102  13.948  14.764   3.868
75698W        W44103  41.019  32.353  12.038
75699W        W44104  25.825  41.744  13.264
75700W        W44105  19.639  40.979   0.726
75701W        W44106  28.559  14.352  14.577
75702W        W44107   0.998  14.146   0.373
75703W        W44108  34.328  30.972  13.242
75704W        W44109   4.974  22.810   1.189
75705W        W44110  40.710   1.355   3.533
75706W        W44111  14.342   5.139   3.943
75707W        W44112  35.090   6.725   2.690
75708W        W44113  38.060  41.983  11.348
75709W        W44114  29.523  10.927  13.567
75710W        W44115  12.174  11.342   4.622
75711W        W44116  37.562  33.605  12.106
75712W        W44117  24.946  32.164  14.050
75713W        W44118   2.359   1.208   1.333
75714W        W44119  16.044   0.736   4.397
75715W        W44120  40.416  31.509  11.366
75716W        W44121  30.541  27.600  11.171
75717W        W44122  44.931   5.394  14.390
75718W        W44123  17.034   1.733  10.623
75719W        W44124  30.730   3.376  13.298
75720W        W44125  17.118  11.712  14.451
75721W        W44126  31.954  43.734  14.402
75722W        W44127  41.525  41.714  12.561
75723W        W44128  24.947  38.385  11.179
75724W        W44129  17.372  21.536  12.995
75725W        W44130   3.395  33.100  12.546
75726W        W44131  44.943  20.453  14.093
75727W        W44132  13.546  18.560  11.243
75728W        W44133   9.307  10.879   2.790
75729W        W44134   1.248  10.137   5.091
75730W        W44135  24.678   4.204   1.425
75731W        W44136  14.761   2.931   0.503
75732W        W44137   4.886   8.701  13.359
75733W        W44138  23.111  21.311   3.226
75734W        W44139   8.632   0.699   0.355
75735W        W44140  37.026  13.316   4.146
75736W        W44141  40.524   2.286  13.590
75737W        W44142  32.048   5.200   0.801
75738W        W44143  17.253  14.803   4.223
75739W        W44144  32.671  33.577  13.013
75740W        W44145  40.566  12.228  12.080
75741W        W44146  31.037   8.467   0.356
75742W        W44147  32.182  31.297  12.794
75743W        W44148  30.248   5.771  12.054
75744W        W44149   0.106  37.386  12.967
75745W        W44150  44.357  23.040  13.113
75746W        W44151  30.870  20.615   2.242
75747W        W44152   4.543   4.025   9.783
75748W        W44153  37.586   9.279  13.748
75749W        W44154  13.747   1.283  12.041
75750W        W44155  35.565  36.431  13.496
75751W        W44156   5.433  30.107  12.617
75752W        W44157   0.275  21.371  12.731
75753W        W44158  10.594  16.724   2.781
75754W        W44159  15.292  26.844   1.819
75755W        W44160  31.692  37.078  14.017
75756W        W44161  24.852   8.744  14.482
75757W        W44162  23.011  35.964  14.397
75758W        W44163  29.906  19.592  13.596
75759W        W44164  40.285  20.197   2.762
75760W        W44165  30.301  30.117  14.335
75761W        W44166   1.836  12.196   0.908
75762W        W44167  30.929  14.801   2.361
75763W        W44168  21.873  33.111   3.109
75764W        W44169  24.537  42.787  14.935
75765W        W44170   0.903  22.024  10.982
75766W        W44171  13.774   5.033   2.755
75767W        W44172   1.974   5.654  14.232
75768W        W44173  11.945  37.455   0.169
75769W        W44174  10.320  20.137   3.403
75770W        W44175  35.213  32.809  13.098
75771W        W44176  13.266  39.501   0.410
75772W        W44177  20.318  20.662   1.898
75773W        W44178  10.866   0.381   3.495
75774W        W44179  27.603  31.072  11.543
75775W        W44180   3.239  37.038  11.497
75776W        W44181  23.270  43.686  13.327
75777W        W44182  17.565   8.157  11.143
75778W        W44183  33.593  11.692  14.351
75779W        W44184   2.661  28.541   1.924
75780W        W44185  19.562  12.175   3.890
75781W        W44186   0.281  21.027   3.383
75782W        W44187  20.415  27.212  13.491
75783W        W44188  40.018  12.265   1.220
75784W        W44189  40.577   2.723   3.196
75785W        W44190  34.970  39.539  14.570
75786W        W44191  24.084  16.581  13.970
75787W        W44192  39.333   5.503  10.732
75788W        W44193  10.189  31.675  10.715
75789W        W44194  41.666   7.735  11.335
75790W        W44195  11.853  13.578  11.339
75791W        W44196  14.335  25.131  14.922
75792W        W44197  37.606  35.324   4.173
75793W        W44198  34.222  14.312   0.028
75794W        W44199  35.536  30.105   2.442
75795W        W44200  11.171  22.749  12.890
75796W        W44201  42.020  34.955  13.935
75797W        W44202   8.788  44.988  11.959
75798W        W44203  39.374  21.967  11.940
75799W        W44204  14.806  22.342   3.809
75800W        W44205  13.450  24.210   0.527
75801W        W44206  26.223  44.733  13.046
75802W        W44207  28.608  23.512   3.295
75803W        W44208  40.790  35.286  14.121
75804W        W44209  25.772  29.318  14.216
75805W        W44210  21.150  26.813   0.861
75806W        W44211  11.954  26.747  14.918
75807W        W44212   5.669  18.488  13.296
75808W        W44213  44.832  38.978   4.392
75809W        W44214  34.011  15.638  11.692
75810W        W44215  20.486   5.193  13.982
75811W        W44216   4.217   7.449  11.904
75812W        W44217  14.201  38.578   3.785
75813W        W44218   6.649  14.212   4.203
75814W        W44219  16.007  14.281   1.665
75815W        W44220  10.455  44.312  13.810
75816W        W44221  26.082   4.521  13.545
75817W        W44222  18.707  14.749   1.510
75818W        W44223  10.168  28.152  12.393
75819W        W44224  34.425  35.301  11.081
75820W        W44225  15.142  11.116  12.037
75821W        W44226   5.756  17.691   0.825
75822W        W44227  22.478  41.701  13.847
75823W        W44228   0.419  38.502  13.736
75824W        W44229  37.836  27.399   3.984
75825W        W44230  28.523  15.729   9.839
75826W        W44231   7.311  27.947   0.018
75827W        W44232  37.994  42.558   3.636
75828W        W44233  43.203  29.423  10.756
75829W        W44234   2.393  17.267   3.981
75830W        W44235   8.934  19.434   0.335
75831W        W44236   4.249  28.440  14.830
75832W        W44237  42.065  33.083  13.860
75833W        W44238  33.851  20.668  12.065
75834W        W44239  17.644  17.762   3.885
75835W        W44240  39.010  33.942   3.732
75836W        W44241  19.134  30.129  11.105
75837W        W44242  23.122  21.867   4.246
75838W        W44243  13.736   1.747   3.301
75839W        W44244   0.827  19.624  11.152
75840W        W44245  24.767  25.440  13.551
75841W        W44246  25.205  38.352  12.488
75842W        W44247  37.592  14.163  10.817
75843W        W44248  21.093  34.105  10.977
75844W        W44249  37.850  33.534   4.095
75845W        W44250   0.653  44.503  12.053
75846W        W44251  36.989  12.729   0.428
75847W        W44252   2.687  18.561  12.833
75848W        W44253  31.628  13.012   2.807
75849W        W44254   0.985  16.751   0.982
75850W        W44255  26.447   9.295   3.323
75851W        W44256  28.466   6.237   0.545
75852W        W44257   3.256  28.512  11.988
75853W        W44258   6.486  31.634   5.044
75854W        W44259  36.981   0.519   0.986
75855W        W44260  32.335  24.719  11.147
75856W        W44261  30.441   0.173   3.837
75857W        W44262  38.583  10.776   0.545
75858W        W44263  20.545  12.729   2.218
75859W        W44264  30.410   0.818   1.296
75860W        W44265  31.151  13.682   2.123
75861W        W44266  18.718   8.946  12.576
75862W        W44267  44.665  44.921   2.443
75863W        W44268  43.066  30.119   0.778
75864W        W44269  22.594  11.740   4.020
75865W        W44270   1.090  11.218   4.437
75866W        W44271  21.791  12.793  11.567
75867W        W44272   3.691   8.933  11.846
75868W        W44273   9.722  42.767   1.387
75869W        W44274  28.929  42.891   0.754
75870W        W44275   5.974   6.797   1.726
75871W        W44276  20.766  31.478   1.640
75872W        W44277  34.403  35.455  13.461
75873W        W44278  13.674  35.157   3.180
75874W        W44279  26.085  24.220   2.215
75875W        W44280  31.093  42.297  12.042
75876W        W44281  14.206  15.770  10.647
75877W        W44282  22.749  13.245  12.058
75878W        W44283   2.350  16.179   0.478
75879W        W44284  22.715  38.425  14.041
75880W        W44285   6.637   3.215   3.999
75881W        W44286  42.721  10.422   2.883
75882W        W44287  28.782  21.596  10.623
75883W        W44288  26.078  21.423  13.366
75884W        W44289   4.132  10.184   2.333
75885W        W44290   9.284  40.826   1.761
75886W        W44291   6.420   9.671   0.954
75887W        W44292  21.023  40.425   0.438
75888W        W44293  19.328  41.654  11.118
75889W        W44294  30.407  35.956   0.866
75890W        W44295  20.594   8.438  14.906
75891W        W44296  34.901  30.794   2.865
75892W        W44297  17.993  39.483  10.544
75893W        W44298  42.327  41.979   0.432
75894W        W44299  12.621  38.605  11.115
75895W        W44300  38.467  31.386   3.318
75896W        W44301  33.466  26.064   2.395
75897W        W44302  34.205   2.818   3.906
75898W        W44303  15.864   7.417  13.059
75899W        W44304   9.297  23.751   4.194
75900W        W44305   1.704   4.496   4.624
75901W        W44306  22.169  43.237  12.682
75902W        W44307  32.933  11.678   2.331
75903W        W44308   5.274  36.957  11.015
75904W        W44309  35.016  24.678  14.077
75905W        W44310  36.991   5.820   1.306
75906W        W44311  35.086  42.775   4.245
75907W        W44312   3.964  31.257   2.939
75908W        W44313  31.459  10.738  13.892
75909W        W44314  27.485   2.268  11.964
75910W        W44315  31.301   8.604   5.208
75911W        W44316  23.773   0.360  13.983
75912W        W44317  43.987  22.888  11.901
75913W        W44318  23.995  11.909   3.868
75914W        W44319   8.889   2.383   0.763
75915W        W44320   0.183  41.297  12.519
75916W        W44321  10.922  37.059  10.713
75917W        W44322   3.934  36.455  14.218
75918W        W44323  18.158  29.430   1.043
75919W        W44324  29.592   8.314  11.499
75920W        W44325  23.082  29.941  11.456
75921W        W44326  15.191  10.249   3.674
75922W        W44327  39.071  13.297   3.467
75923W        W44328   3.946  35.532  13.944
75924W        W44329   8.221  21.776  12.028
75925W        W44330  36.902   2.502  13.464
75926W        W44331  14.857   8.390  11.653
75927W        W44332  28.146  39.833   4.249
75928W        W44333  43.682  13.345   2.718
75929W        W44334  35.004  17.081  10.600
75930W        W44335   9.233  24.084  14.326
75931W        W44336  37.857  17.808  14.969
75932W        W44337   1.803  36.845  11.186
75933W        W44338   4.613  22.749   4.033
75934W        W44339  20.699  21.536  13.829
75935W        W44340  26.041  37.026   4.173
75936W        W44341  12.577   2.909   0.156
75937W        W44342  27.468  16.582   0.276
75938W        W44343  34.102  38.428  12.660
75939W        W44344  20.537  16.119   3.390
75940W        W44345  18.084  19.461  11.085
75941W        W44346  17.286  10.085   0.270
75942W        W44347  29.370  31.126  11.583
75943W        W44348  37.192  30.278   2.908
75944W        W44349  29.655  28.484  11.192
75945W        W44350   7.773   7.400   2.720
75946W        W44351  18.969  35.202  13.369
75947W        W44352   0.915  42.040   1.241
75948W        W44353  22.976   7.703  12.459
75949W        W44354  35.646  44.378   2.670
75950W        W44355  21.282  42.301  12.110
75951W        W44356  19.361  41.513   0.765
75952W        W44357  26.702  17.087   0.320
75953W        W44358  37.924  25.320  12.914
75954W        W44359   3.121  29.494   3.729
75955W        W44360  43.293  22.027   3.483
75956W        W44361  31.004  23.643   1.504
75957W        W44362   9.433   2.227  11.628
75958W        W44363  12.727  35.496   0.138
75959W        W44364  14.193   3.350  12.544
75960W        W44365  15.267  41.396   2.219
75961W        W44366  39.330  32.868  13.993
75962W        W44367  31.024  21.821   1.863
75963W        W44368  29.958  37.250  14.759
75964W        W44369  16.625  38.889  14.929
75965W        W44370  19.987  42.361  13.458
75966W        W44371  29.087  42.294   2.070
75967W        W44372  29.064  41.706  12.508
75968W        W44373  25.909  39.023  11.373
75969W        W44374  29.952  21.668  12.676
75970W        W44375  40.157  39.855   3.661
75971W        W44376  34.327  20.250   4.282
75972W        W44377  25.886  15.664  11.951
75973W        W44378  30.439  21.180  13.220
75974W        W44379  37.010  40.537   4.605
75975W        W44380  41.625  31.957  11.583
75976W        W44381  32.753  37.079  12.951
75977W        W44382   5.841  26.997   1.906
75978W        W44383  14.086  11.042  11.480
75979W        W44384  26.597   2.234  12.277
75980W        W44385   6.855  43.972  12.823
75981W        W44386  13.249  23.783   4.477
75982W        W44387  34.000  20.459  12.971
75983W        W44388  31.538  32.029  11.556
75984W        W44389  22.154  32.739   1.656
75985W        W44390  19.774  13.400  13.594
75986W        W44391  36.938  22.122  10.674
75987W        W44392  29.866  33.904   4.590
75988W        W44393  33.075  25.479   4.702
75989W        W44394  18.670  41.680   1.683
75990W        W44395  41.327   6.789  11.637
75991W        W44396  39.255  44.445  12.631
75992W        W44397  43.355  42.892  11.187
75993W        W44398  38.147  13.946   3.663
75994W        W44399  34.639  44.753  11.389
75995W        W44400  41.349  17.145   0.353
75996W        W44401  32.165  35.943  10.227
75997W        W44402  25.338   9.280   4.005
75998W        W44403  13.679  41.883   1.449
75999W        W44404  12.733  41.368  14.276
76000W        W44405  38.917  30.056  12.130
76001W        W44406  18.078  34.865   1.400
76002W        W44407  12.542   2.754  13.055
76003W        W44408  15.612   6.160  12.451
76004W        W44409   7.916  18.643  13.071
76005W        W44410  10.168   5.267   1.382
76006W        W44411   8.304  10.714   0.072
76007W        W44412  15.578  19.839   2.589
76008W        W44413  19.495  15.350   0.285
76009W        W44414  10.771  16.494  13.922
76010W        W44415  41.303  27.467   3.217
76011W        W44416  38.877   2.947  12.505
76012W        W44417   8.733  35.560   1.175
76013W        W44418  10.246   7.678   3.679
76014W        W44419  15.094  20.452  12.421
76015W        W44420   5.619   5.476   0.206
76016W        W44421  14.366  18.152   3.344
76017W        W44422  30.650  29.041   0.429
76018W        W44423  34.462  37.195   2.654
76019W        W44424  35.113  11.700   1.044
76020W        W44425  37.746  33.312  12.485
76021W        W44426  28.467  42.983  10.685
76022W        W44427  33.142  34.650   0.744
76023W        W44428  20.583  23.441  14.036
76024W        W44429  43.240  32.436  11.167
76025W        W44430  11.396  16.853  10.689
76026W        W44431  39.254  31.053   4.284
76027W        W44432  26.401  39.103  11.512
76028W        W44433  32.999   9.622   0.462
76029W        W44434  11.481  32.093  14.099
76030W        W44435  39.279  42.516  14.472
76031W        W44436  31.365  27.162   1.986
76032W        W44437  22.241  19.482   2.883
76033W        W44438   6.850   3.780  12.886
76034W        W44439  32.651  17.878  14.920
76035W        W44440  35.076  43.904  11.744
76036W        W44441   8.845  27.640   1.732
76037W        W44442  13.859   5.894  14.872
76038W        W44443  17.776   2.779  13.638
76039W        W44444  29.159  34.604   4.679
76040W        W44445   9.730  35.367  11.596
76041W        W44446  29.399   5.918   1.555
76042W        W44447  16.129   4.427   1.458
76043W        W44448   7.279  27.186   1.053
76044W        W44449  13.551  12.036   1.399
76045W        W44450   0.246  41.437  13.506
76046W        W44451  10.705   3.438   3.441
76047W        W44452  42.118  10.947   0.501
76048W        W44453  37.059  29.395   0.767
76049W        W44454  25.455   0.547  11.258
76050W        W44455   1.763  17.222   2.715
76051W        W44456  13.750   0.389  12.168
76052W        W44457  28.747  36.837  13.358
76053W        W44458  25.658  13.246   4.443
76054W        W44459  39.949  33.156  11.795
76055W        W44460  44.373   7.124  12.134
76056W        W44461  41.949   4.147   1.176
76057W        W44462  32.463  20.846   2.367
76058W        W44463  43.920  21.763  14.383
76059W        W44464  34.368  18.563  11.584
76060W        W44465   4.334  25.092   0.858
76061W        W44466   6.449  21.504   2.371
76062W        W44467   6.288  16.151  11.219
76063W        W44468  24.641  34.755   1.742
76064W        W44469  20.402  27.592  13.030
76065W        W44470  31.584  36.853  14.471
76066W        W44471  18.013  20.757   4.284
76067W        W44472   4.465  18.908  11.573
76068W        W44473  27.796  33.049   2.724
76069W        W44474  25.948  28.617   4.854
76070W        W44475  32.408   0.505   4.030
76071W        W44476  16.358  36.453   2.862
76072W        W44477  38.008  16.218   3.784
76073W        W44478  38.413  19.071  11.367
76074W        W44479  19.961  40.358   4.624
76075W        W44480  19.750  16.709  10.550
76076W        W44481  36.239  36.473  10.719
76077W        W44482  19.938   1.823   4.813
76078W        W44483   7.366  35.274  11.204
76079W        W44484  18.367   6.380  13.502
76080W        W44485   1.811  10.658  12.085
76081W        W44486  27.342  27.552   1.484
76082W        W44487  21.020   0.502   2.345
76083W        W44488  22.322  21.954  10.514
76084W        W44489  34.069  12.390   3.618
76085W        W44490  19.108  10.662  14.224
76086W        W44491  44.222   4.412   0.905
76087W        W44492  15.321  42.216  11.760
76088W        W44493   0.157  15.292   2.783
76089W        W44494  42.043  13.209   0.494
76090W        W44495  42.140  37.901   0.767
76091W        W44496  25.116  19.037   1.243
76092W        W44497  13.761  20.251   1.834
76093W        W44498  10.179  18.673   2.233
76094W        W44499  34.497  11.105  12.387
76095W        W44500  35.404   7.465   4.066
76096W        W44501  14.864  42.307  11.159
76097W        W44502  34.287  30.627   1.766
76098W        W44503   5.008  44.442  11.218
76099W        W44504  15.789   2.466  12.369
76100W        W44505   7.330   5.982   4.140
76101W        W44506   3.812  16.009   2.284
76102W        W44507  42.326  43.869   0.426
76103W        W44508   6.674  13.868   0.539
76104W        W44509   5.154  30.508  11.179
76105W        W44510  27.262  30.092   0.836
76106W        W44511  40.362   6.821   2.410
76107W        W44512   7.616  40.926  14.873
76108W        W44513  23.679  29.958  11.968
76109W        W44514  35.129  21.557   2.573
76110W        W44515  41.969  34.480  10.739
76111W        W44516  17.015  36.043   4.105
76112W        W44517  22.260  35.125  14.707
76113W        W44518  23.980  11.635  11.501
76114W        W44519  44.282  28.897  14.521
76115W        W44520  27.682  30.529  11.487
76116W        W44521  44.034  29.671  12.337
76117W        W44522  26.427  38.976   4.030
76118W        W44523  30.875   1.378   4.194
76119W        W44524   8.714  18.599  12.389
76120W        W44525  22.236   9.395  13.307
76121W        W44526   0.769  10.196  13.318
76122W        W44527  14.122  31.494   2.909
76123W        W44528  40.826  18.673  12.545
76124W        W44529  26.935  23.964   2.141
76125W        W44530  17.000  15.523   1.206
76126W        W44531  40.126  34.455  11.293
76127W        W44532  24.621  33.914   2.304
76128W        W44533  43.418  42.419   4.663
76129W        W44534   5.858   3.280  12.059
76130W        W44535   7.439  30.834   0.025
76131W        W44536  39.150  15.765  11.134
76132W        W44537  31.549   0.224   4.055
76133W        W44538  31.807  21.927   3.103
76134W        W44539  20.322  42.316  14.792
76135W        W44540  17.875  40.064   2.815
76136W        W44541   1.213  13.044   0.253
76137W        W44542  42.239   9.695   1.451
76138W        W44543  16.258  31.326   2.205
76139W        W44544  10.610   3.893  14.917
76140W        W44545  33.084  12.319   0.533
76141W        W44546  12.375   0.146   2.100
76142W        W44547  18.666  29.335  12.704
76143W        W44548  27.628  20.201  14.275
76144W        W44549  20.428  37.513   0.869
76145W        W44550   6.842  25.141   4.628
76146W        W44551  39.499  35.104   0.699
76147W        W44552  16.818  21.280   2.255
76148W        W44553  39.029  31.860  10.846
76149W        W44554  11.900   0.834  14.964
76150W        W44555  15.335  25.508  11.425
76151W        W44556  10.688  14.002   0.157
76152W        W44557   3.981  30.935  12.975
76153W        W44558  33.462  21.488  12.635
76154W        W44559  29.918  32.970  10.569
76155W        W44560  35.112  32.236  13.844
76156W        W44561  44.443  32.166   2.745
76157W        W44562  37.400  13.907   4.184
76158W        W44563  27.540  25.763  14.365
76159W        W44564   1.980  23.130   0.713
76160W        W44565  25.700  33.366   4.625
76161W        W44566  36.334   5.188  10.556
76162W        W44567  19.124  13.148  12.156
76163W        W44568  23.566  28.287  10.644
76164W        W44569  41.810  36.849  12.958
76165W        W44570  22.695  23.452   1.441
76166W        W44571  16.558   7.326  12.083
76167W        W44572  18.471   4.866  13.674
76168W        W44573  30.241  28.729  12.329
76169W        W44574  20.221  14.392   1.760
76170W        W44575  27.535  10.891   1.794
76171W        W44576  31.004   2.798  11.447
76172W        W44577  42.550  34.029   3.644
76173W        W44578  32.596  16.532   0.247
76174W        W44579  13.653  21.124  13.946
76175W        W44580  19.259  37.923   0.382
76176W        W44581  28.173  18.816  10.490
76177W        W44582  25.169  25.735  13.347
76178W        W44583  40.570  33.868   2.397
76179W        W44584  11.744  34.026   4.066
76180W        W44585   2.554  40.168  13.360
76181W        W44586  27.718  25.162   4.156
76182W        W44587   4.765  16.262   2.658
76183W        W44588  29.900   7.948   3.854
76184W        W44589  37.879  40.093   4.491
76185W        W44590  33.243   6.839  12.448
76186W        W44591  30.231  23.722  14.561
76187W        W44592  26.119   1.982   1.227
76188W        W44593  27.133  34.374   4.196
76189W        W44594   0.088   0.988   0.978
76190W        W44595  44.188   7.694  11.597
76191W        W44596   9.843  22.281   0.449
76192W        W44597   8.711  34.507  14.542
76193W        W44598  23.842  34.294  14.923
76194W        W44599  27.719   4.771   0.981
76195W        W44600  16.719  37.362  10.995
76196W        W44601  21.636  38.243   3.754
76197W        W44602  40.269  13.636   3.753
76198W        W44603  30.711  14.142   5.141
76199W        W44604  15.662   0.825   2.023
76200W        W44605   4.030  35.139  13.511
76201W        W44606   6.086  20.092   1.219
76202W        W44607  18.664  32.934  12.480
76203W        W44608  20.102  44.461  14.403
76204W        W44609  28.393  38.863   0.957
76205W        W44610  28.621  37.051   0.253
76206W        W44611  23.026  42.447   2.684
76207W        W44612  14.385  24.561  10.947
76208W        W44613  21.924  26.595   2.007
76209W        W44614  31.852  12.834   3.254
76210W        W44615  12.102  37.292   1.690
76211W        W44616  17.594  16.772  11.620
76212W        W44617  15.065  25.681  13.328
76213W        W44618  28.605  30.304  11.122
76214W        W44619   6.663   4.410  12.163
76215W        W44620  27.804  44.066   0.350
76216W        W44621  10.102   9.866   2.048
76217W        W44622   9.663  29.010  14.288
76218W        W44623  10.625  21.964   1.945
76219W        W44624  35.078  10.279  12.408
76220W        W44625   6.109  19.168   0.845
76221W        W44626  24.061  35.462   3.669
76222W        W44627  19.072  36.085   2.682
76223W        W44628  39.718  22.530   2.906
76224W        W44629  15.470  25.325  10.983
76225W        W44630  17.209  44.185   4.042
76226W        W44631  30.898  38.667   2.697
76227W        W44632  18.632  31.572   1.759
76228W        W44633  25.287  32.166   0.336
76229W        W44634  43.393  12.924  10.199
76230W        W44635  18.779   2.302   4.092
76231W        W44636  33.381  22.474  10.110
76232W        W44637  18.632   5.927  12.438
76233W        W44638  24.685  36.601   2.689
76234W        W44639  39.151   6.806   9.813
76235W        W44640  32.936  17.754  10.970
76236W        W44641   5.486   7.273  13.062
76237W        W44642  20.350   4.747  14.862
76238W        W44643  28.634  42.996   2.365
76239W        W44644  12.781   1.979   1.801
76240W        W44645  29.523  25.443   2.323
76241W        W44646   6.440  26.794  12.358
76242W        W44647  41.041  40.306   2.208
76243W        W44648  43.094   5.389  14.237
76244W        W44649  28.108  35.815   2.253
76245W        W44650  10.881  22.027   4.533
76246W        W44651  17.417  27.243  13.445
76247W        W44652  32.997  24.968  11.637
76248W        W44653   2.193  37.888   1.884
76249W        W44654   3.184  17.199  11.213
76250W        W44655  31.142  41.219   2.624
76251W        W44656  31.351  16.810   3.735
76252W        W44657   0.803  22.514   0.311
76253W        W44658  34.945  31.356   2.799
76254W        W44659  32.678  31.432  11.142
76255W        W44660  37.112   9.619   1.733
76256W        W44661  41.524   0.430   1.354
76257W        W44662   5.577  35.687  12.302
76258W        W44663  27.188   2.159  14.637
76259W        W44664  35.954   5.944  14.830
76260W        W44665   9.035  13.176   4.251
76261W        W44666  35.697  40.666  10.599
76262W        W44667   0.793  19.345   5.043
76263W        W44668   8.647  27.083  13.379
76264W        W44669  27.512  11.385  14.957
76265W        W44670  20.689   1.372  13.492
76266W        W44671  17.243  10.760  12.307
76267W        W44672  39.902  22.798   2.128
76268W        W44673  27.762  26.587  10.460
76269W        W44674  16.438  32.083  11.555
76270W        W44675  24.524  17.265   1.724
76271W        W44676  15.744  42.030  14.714
76272W        W44677  29.703  19.774   4.148
76273W        W44678  30.860  26.378   2.924
76274W        W44679   0.916  37.461   5.181
76275W        W44680  26.639  25.730   3.133
76276W        W44681  43.796  19.244   3.315
76277W        W44682  30.270  41.979  14.453
76278W        W44683  25.044  28.050   0.461
76279W        W44684  29.557  16.774  14.358
76280W        W44685  21.721   8.713   2.218
76281W        W44686  37.859  22.828  13.846
76282W        W44687   4.270  41.835  14.789
76283W        W44688  26.705  23.680  14.799
76284W        W44689   5.812  33.187  13.333
76285W        W44690   9.632  42.984  11.460
76286W        W44691  40.299  35.663   2.799
76287W        W44692  12.691   8.161  11.673
76288W        W44693  35.124  32.653   3.632
76289W        W44694  44.715  16.722   4.336
76290W        W44695   8.186  42.302  10.751
76291W        W44696  32.685  39.910  14.294
76292W        W44697   7.413  17.678  14.086
76293W        W44698  25.069  41.554  13.756
76294W        W44699  22.644   8.877   0.010
76295W        W44700  38.733  39.601   2.681
76296W        W44701  41.439  24.707   1.212
76297W        W44702  31.421  22.211   1.313
76298W        W44703  24.521  19.066   1.013
76299W        W44704  26.330   9.484   4.242
76300W        W44705   0.297  40.096   3.615
76301W        W44706   7.385  19.837  12.459
76302W        W44707  18.308  41.641  11.790
76303W        W44708  24.994   1.472  11.917
76304W        W44709  25.702  37.485  13.138
76305W        W44710  32.583  39.105  13.869
76306W        W44711  15.603  39.812   0.408
76307W        W44712  31.915  31.891   4.493
76308W        W44713  42.304   3.158   1.651
76309W        W44714  41.435  17.849   2.069
76310W        W44715  40.944  21.644   0.059
76311W        W44716  34.822  39.780   0.409
76312W        W44717  32.416  15.893  13.983
76313W        W44718  27.157  10.595  14.890
76314W        W44719   6.897   5.940  14.515
76315W        W44720   0.971  18.666   1.414
76316W        W44721  25.406  10.897   0.143
76317W        W44722  32.888   2.195   1.778
76318W        W44723   6.470  38.653  14.913
76319W        W44724  29.127  26.199  12.468
76320W        W44725  27.986  12.597   4.041
76321W        W44726  34.690   4.500  13.754
76322W        W44727  22.881  18.600  12.185
76323W        W44728  29.672  44.829  11.524
76324W        W44729  18.540  32.347   2.368
76325W        W44730  23.033  12.251  12.723
76326W        W44731  21.500  33.978   2.240
76327W        W44732  34.619  44.244  11.511
76328W        W44733   6.348  38.968   4.037
76329W        W44734   2.291  37.359  12.935
76330W        W44735  31.915  31.991  13.352
76331W        W44736  15.255  14.085   0.672
76332W        W44737   2.822  19.997  12.846
76333W        W44738   3.250   8.423  13.485
76334W        W44739  26.725  11.902   0.008
76335W        W44740  23.247  14.379  12.090
76336W        W44741  42.734  23.258  11.597
76337W        W44742  31.382  34.985   3.575
76338W        W44743   4.366  29.136  10.704
76339W        W44744   8.129  24.523   1.311
76340W        W44745  41.448  32.561   4.622
76341W        W44746  13.284  39.470  12.667
76342W        W44747  37.039  39.014   2.303
76343W        W44748  35.086  30.712   3.591
76344W        W44749  31.098  44.920   0.181
76345W        W44750   0.707  40.990   0.217
76346W        W44751  31.421  13.193   4.523
76347W        W44752  40.105  14.861   0.344
76348W        W44753  26.963  15.843   0.245
76349W        W44754  39.988  17.580  10.650
76350W        W44755  28.774   7.100  14.288
76351W        W44756  19.010  18.354   3.207
76352W        W44757  44.347  26.473  11.999
76353W        W44758  29.483  15.517  14.452
76354W        W44759  15.444   6.350   4.317
76355W        W44760  15.142  31.536  13.371
76356W        W44761  43.882  12.772  13.534
76357W        W44762  17.504  26.240  14.514
76358W        W44763  36.804  44.883  11.980
76359W        W44764   7.130  11.916   3.253
76360W        W44765  34.854   6.510   2.254
76361W        W44766  28.978  16.107  13.936
76362W        W44767  12.154   3.293  11.137
76363W        W44768   7.416   3.504   0.275
76364W        W44769  24.404   9.206  12.949
76365W        W44770   6.412  34.417  14.491
76366W        W44771  37.389  31.138  11.911
76367W        W44772  15.863  13.317  13.483
76368W        W44773  39.796  43.556   2.804
76369W        W44774   5.797  16.314  11.237
76370W        W44775  31.713   9.253   3.354
76371W        W44776   2.991  12.838   0.413
76372W        W44777  21.057  17.610   4.537
76373W        W44778  22.521  14.721  13.763
76374W        W44779   4.811  29.423  12.996
76375W        W44780  44.026  41.202  10.764
76376W        W44781  19.477  26.883   4.321
76377W        W44782  28.637   1.395  11.738
76378W        W44783  29.990  32.016  12.972
76379W        W44784   2.174  15.369   0.794
76380W        W44785  25.057   6.175  12.531
76381W        W44786  13.569  24.506  10.489
76382W        W44787  36.875  37.609  12.051
76383W        W44788  41.265  39.811   0.257
76384W        W44789   1.433  43.750  11.083
76385W        W44790  26.934  21.215   2.692
76386W        W44791   9.949   3.228   1.379
76387W        W44792  33.246   3.882  14.791
76388W        W44793   4.960  11.384   2.292
76389W        W44794  17.482  12.415   0.227
76390W        W44795  33.089   2.637   4.264
76391W        W44796  44.771  41.786   3.655
76392W        W44797  44.658  18.423  14.360
76393W        W44798   1.448  40.403  11.605
76394W        W44799   0.936  39.599   2.602
76395W        W44800   5.870  24.268  13.054
76396W        W44801  13.479   3.811  12.849
76397W        W44802  29.023  36.861   4.093
76398W        W44803  20.600  16.696   1.639
76399W        W44804  34.334  17.020   2.904
76400W        W44805   6.934  29.019  10.186
76401W        W44806   1.685  36.993  10.716
76402W        W44807  27.648   8.204   4.488
76403W        W44808  21.253  16.066   1.771
76404W        W44809  41.203  24.974   4.661
76405W        W44810  20.784  24.313  13.355
76406W        W44811  10.625  27.518  14.356
76407W        W44812  16.117  32.377   2.285
76408W        W44813   6.473  30.733   3.241
76409W        W44814   0.524  11.652   0.090
76410W        W44815  26.620  19.151   4.645
76411W        W44816   8.673  15.103   1.358
76412W        W44817   3.382  32.347  13.133
76413W        W44818  41.076  17.373   0.745
76414W        W44819   8.478  31.385  12.394
76415W        W44820  26.578   6.716  14.685
76416W        W44821   0.287  22.691   0.388
76417W        W44822  15.563  39.519   1.439
76418W        W44823  12.348   4.784   3.823
76419W        W44824  32.729  16.286  13.936
76420W        W44825  23.900  20.771   0.329
76421W        W44826  20.342   6.407  11.607
76422W        W44827  29.602   8.180   1.364
76423W        W44828   1.355   0.390  13.300
76424W        W44829  23.636  14.487   2.239
76425W        W44830  23.447  11.762  10.721
76426W        W44831  14.774  11.139  13.977
76427W        W44832  43.041  14.180   4.756
76428W        W44833   3.267   9.836  13.584
76429W        W44834  29.261  11.772   0.713
76430W        W44835  13.090  10.392   2.818
76431W        W44836  23.105  35.429  12.574
76432W        W44837  39.987  12.667   0.024
76433W        W44838   5.931  22.562   4.539
76434W        W44839   7.215  27.255   2.392
76435W        W44840  31.886  28.586   4.947
76436W        W44841  18.611   6.168   3.632
76437W        W44842  40.815  29.519  12.947
76438W        W44843  10.350  34.866   3.560
76439W        W44844  28.173  42.519   1.064
76440W        W44845   9.464  21.037  13.092
76441W        W44846  33.076  20.276   1.920
76442W        W44847  26.051  17.948   3.823
76443W        W44848  37.766  38.287  11.645
76444W        W44849  43.251  19.361   4.816
76445W        W44850  27.707  11.702   0.747
76446W        W44851  21.488  10.381   2.134
76447W        W44852  38.173   1.189  14.271
76448W        W44853  42.483  33.750  12.119
76449W        W44854  20.737  33.948  13.958
76450W        W44855   2.334  30.672   4.173
76451W        W44856  43.876  16.278   3.365
76452W        W44857  36.258   4.314   4.379
76453W        W44858  37.123   0.106  11.618
76454W        W44859   2.847  37.861   0.428
76455W        W44860  32.923  15.810   1.430
76456W        W44861   0.692  42.667  10.320
76457W        W44862  24.024  21.859  13.851
76458W        W44863  34.606  31.442   2.377
76459W        W44864  40.424  25.378   0.725
76460W        W44865  13.836  14.285  10.645
76461W        W44866  15.181   7.391  10.693
76462W        W44867  39.496  37.304  14.783
76463W        W44868   5.769  13.388  11.868
76464W        W44869  30.027  28.718   3.690
76465W        W44870   5.913  23.964  13.486
76466W        W44871  42.462  28.289  13.816
76467W        W44872  41.968  17.539  14.749
76468W        W44873  11.506  21.348   4.212
76469W        W44874  30.004  20.671   0.362
76470W        W44875  42.283  40.623   4.240
76471W        W44876  39.525   3.724   0.298
76472W        W44877   2.824   4.239  13.952
76473W        W44878  44.424   9.140   1.520
76474W        W44879   8.820  22.209  13.117
76475W        W44880  12.689  34.213  13.065
76476W        W44881  44.474   4.915  11.980
76477W        W44882  20.476  33.466   2.307
76478W        W44883  21.990  36.002   1.739
76479W        W44884  26.098  10.805   3.452
76480W        W44885   6.149   5.909   2.744
76481W        W44886  14.209   7.266  10.770
76482W        W44887  25.565   2.590   0.790
76483W        W44888  25.268  25.098   1.806
76484W        W44889  28.309  36.925   2.808
76485W        W44890  36.260  19.667  12.570
76486W        W44891  39.970  27.459   0.445
76487W        W44892  34.198  22.311   3.401
76488W        W44893  14.631  10.570  11.599
76489W        W44894   9.160  30.212  10.430
76490W        W44895  37.867  27.102   0.990
76491W        W44896  10.864  16.193   0.812
76492W        W44897  30.014  31.917   2.166
76493W        W44898  23.082  41.661   2.490
76494W        W44899   2.506  17.820   5.152
76495W        W44900  26.134  37.352   3.211
76496W        W44901  21.465  38.289  13.089
76497W        W44902  23.728  20.089  10.582
76498W        W44903  29.028  13.330  12.466
76499W        W44904  19.637  16.192  10.700
76500W        W44905   1.791   5.907   3.643
76501W        W44906  43.314   6.281   3.586
76502W        W44907  19.382  16.585  10.943
76503W        W44908  24.267  40.809  12.668
76504W        W44909  32.589  22.120   0.970
76505W        W44910  14.134  20.804   2.692
76506W        W44911   1.994  35.866   3.160
76507W        W44912  25.994  19.671   4.528
76508W        W44913  28.628   4.321  13.322
76509W        W44914  24.139  14.219  14.624
76510W        W44915  26.090  31.449  12.291
76511W        W44916  18.047  17.473  11.193
76512W        W44917   8.871  20.472   3.729
76513W        W44918   6.341  26.176   2.749
76514W        W44919   3.262  31.564   4.221
76515W        W44920  43.144   5.988  12.419
76516W        W44921  20.690   5.837  11.011
76517W        W44922  44.310  29.758   1.194
76518W        W44923   6.256  41.785   4.150
76519W        W44924  32.485  23.044   0.901
76520W        W44925  14.366   6.801   2.810
76521W        W44926   4.175  32.415   2.146
76522W        W44927  38.959  11.342  10.645
76523W        W44928  13.736  21.178   1.783
76524W        W44929  42.772  33.063   1.761
76525W        W44930   4.178   6.639   1.245
76526W        W44931   1.723   1.241  11.936
76527W        W44932  34.168  23.591   2.367
76528W        W44933  25.090   2.966  10.830
76529W        W44934  18.112  26.616   2.811
76530W        W44935   2.448   9.811   9.688
76531W        W44936  42.826  15.875   2.280
76532W        W44937  24.019  12.383   3.671
76533W        W44938  26.937   5.911   2.850
76534W        W44939   0.674  10.394   0.488
76535W        W44940  38.538  29.037  11.413
76536W        W44941  18.661  34.522   2.952
76537W        W44942  25.506  27.966  14.882
76538W        W44943  44.212   7.051  13.067
76539W        W44944  35.530   2.994  11.118
76540W        W44945   3.143  44.269   1.295
76541W        W44946  25.608  18.065  13.903
76542W        W44947  19.499  30.230  10.751
76543W        W44948   7.919  26.586  11.648
76544W        W44949   0.860   4.166  14.994
76545W        W44950  29.974  20.797  12.894
76546W        W44951  33.956  44.403   3.302
76547W        W44952  37.426  40.763  13.543
76548W        W44953  28.650   1.505  13.925
76549W        W44954  40.262  11.847  13.988
76550W        W44955  39.404  23.348   2.303
76551W        W44956  25.132  23.978  12.849
76552W        W44957   6.584  14.104  10.873
76553W        W44958  12.236  24.928   4.243
76554W        W44959   9.640  39.874  14.038
76555W        W44960  44.572  42.919   3.287
76556W        W44961  44.579  16.363   0.787
76557W        W44962  25.909  31.417   4.150
76558W        W44963   7.715  29.462  14.584
76559W        W44964  22.314  26.200  11.542
76560W        W44965  13.216  14.655  14.959
76561W        W44966   7.499  18.543   2.241
76562W        W44967  16.320  23.472  13.470
76563W        W44968  41.505  18.712  14.286
76564W        W44969   9.205  27.505   2.130
76565W        W44970  34.926  39.384   4.528
76566W        W44971   4.853   2.274   3.190
76567W        W44972  18.983   9.069   4.337
76568W        W44973  28.220  22.298  13.066
76569W        W44974  22.550  12.112   4.802
76570W        W44975   9.906   2.519   3.684
76571W        W44976  12.416  14.312  12.150
76572W        W44977  36.384  32.181   3.709
76573W        W44978  21.087  29.246   3.209
76574W        W44979  27.251   2.910  12.685
76575W        W44980  18.772  28.748   0.607
76576W        W44981   2.300  44.184  11.392
76577W        W44982  22.559  44.850  11.961
76578W        W44983   3.616   8.060  13.689
76579W        W44984  38.778  39.253  13.000
76580W        W44985   4.519  14.218   1.103
76581W        W44986  23.947  35.776  14.899
76582W        W44987  39.723  13.929  11.405
76583W        W44988  10.969  39.181  13.506
76584W        W44989   1.277  29.237  11.198
76585W        W44990  14.128  22.285   1.831
76586W        W44991  40.398   3.894   2.916
76587W        W44992   7.822   6.398   1.142
76588W        W44993   4.565  10.824   4.574
76589W        W44994  35.905   9.772   5.018
76590W        W44995  33.841   7.174   3.100
76591W        W44996  14.647  32.908  12.795
76592W        W44997   5.753  27.726   1.344
76593W        W44998  15.819  12.852  10.644
76594W        W44999  23.097  34.575   2.733
76595W        W45000   9.924  12.236   4.125
76596W        W45001  40.407  15.654   2.956
76597W        W45002  13.107  21.499   2.190
76598W        W45003  23.482  15.796   0.976
76599W        W45004   0.401  41.006  10.837
76600W        W45005  40.589  33.052   2.281
76601W        W45006   4.944   4.895  13.143
76602W        W45007   1.330  25.604  11.415
76603W        W45008  30.515  36.279   4.976
76604W        W45009  29.185  42.918   4.177
76605W        W45010  19.048   2.363   1.925
76606W        W45011   1.465  20.873   1.966
76607W        W45012  10.145  41.510   2.723
76608W        W45013  12.239  26.638   0.335
76609W        W45014  36.989  33.469   2.143
76610W        W45015  21.179   1.211  13.828
76611W        W45016  39.841  42.546   3.645
76612W        W45017  13.941  21.217  12.239
76613W        W45018  39.549  34.578   3.232
76614W        W45019  19.103   2.875  12.508
76615W        W45020  40.487   6.589  13.037
76616W        W45021  28.209  43.998   4.706
76617W        W45022   0.599   0.443   0.489
76618W        W45023   9.378  23.028   1.611
76619W        W45024  25.883  11.267   3.257
76620W        W45025  35.859   9.950   1.479
76621W        W45026  37.929  14.128   4.556
76622W        W45027  21.542   5.373   3.758
76623W        W45028   2.719  27.554   0.281
76624W        W45029  42.966  37.001   3.329
76625W        W45030  44.099  10.467  12.883
76626W        W45031   0.353  35.216   3.926
76627W        W45032  27.085  39.075  14.516
76628W        W45033  18.231   1.889  13.028
76629W        W45034   9.164  19.075   0.802
76630W        W45035   8.413  10.782  12.724
76631W        W45036  22.052  39.780  14.443
76632W        W45037  43.797  41.737   4.296
76633W        W45038  37.496   7.006   3.692
76634W        W45039   6.952  11.255   1.842
76635W        W45040  39.022  22.536   4.505
76636W        W45041   5.397   2.809   4.241
76637W        W45042  14.961   9.586  13.071
76638W        W45043  35.396   9.514   3.100
76639W        W45044   7.973  24.906   2.962
76640W        W45045  20.024   7.933   1.926
76641W        W45046  31.573   2.794   1.763
76642W        W45047  40.070  30.539  11.611
76643W        W45048  20.225  26.494  10.716
76644W        W45049  44.154  26.766   0.798
76645W        W45050  32.573  18.502  10.524
76646W        W45051  40.121  42.662   1.943
76647W        W45052  44.293  28.572  12.953
76648W        W45053  15.866  16.840  12.013
76649W        W45054  31.678   8.376  12.568
76650W        W45055   8.173  38.934   2.089
76651W        W45056  28.979   0.775  13.140
76652W        W45057  17.103  13.111   3.276
76653W        W45058   1.269  23.431   0.674
76654W        W45059   5.868  30.245  13.482
76655W        W45060  16.093  23.925  13.502
76656W        W45061   8.160  24.225   3.870
76657W        W45062  36.854  22.775  14.325
76658W        W45063  29.584   1.975   5.232
76659W        W45064  35.893  34.626   1.605
76660W        W45065   8.465  42.540  14.376
76661W        W45066  23.831   9.152   4.563
76662W        W45067  31.016   1.280   4.693
76663W        W45068  33.380  15.168  10.663
76664W        W45069   3.792  34.979  13.978
76665W        W45070  38.309  29.691  10.914
76666W        W45071  28.922  42.741  13.973
76667W        W45072  29.086  20.856  13.388
76668W        W45073  44.893  41.839  11.653
76669W        W45074   6.984  22.382  11.697
76670W        W45075   4.895  43.672   3.063
76671W        W45076  23.628  40.342  14.434
76672W        W45077   1.017  20.724   3.245
76673W        W45078  40.799  15.228  13.380
76674W        W45079   2.228   3.030   4.723
76675W        W45080  24.986  42.669   4.085
76676W        W45081  43.800   7.366  12.842
76677W        W45082  42.894  22.045  14.564
76678W        W45083   3.873  16.641  11.611
76679W        W45084  27.940  41.266  12.361
76680W        W45085  30.218  35.440   1.647
76681W        W45086  13.105  27.858  14.002
76682W        W45087  19.272  23.725  12.421
76683W        W45088  43.638   6.982   2.264
76684W        W45089  42.815  39.194   2.809
76685W        W45090  29.660  36.579  11.200
76686W        W45091  40.748  33.721  13.545
76687W        W45092  30.550   4.719   3.321
76688W        W45093  34.399  36.384  13.576
76689W        W45094  21.256   2.653  13.461
76690W        W45095  31.997  43.520   0.634
76691W        W45096  26.002  32.422  12.574
76692W        W45097   1.416  13.873   0.883
76693W        W45098  24.503  36.106  10.597
76694W        W45099  24.064  27.452   4.236
76695W        W45100  32.737   7.139  10.393
76696W        W45101  14.524  18.543   4.273
76697W        W45102  11.270   3.022  14.994
76698W        W45103  14.251  34.126   3.744
76699W        W45104  24.235   0.007   3.682
76700W        W45105  41.848  17.361   3.376
76701W        W45106  41.407  25.015  13.448
76702W        W45107   2.238  22.823  12.863
76703W        W45108  19.106  14.612  11.417
76704W        W45109  39.387  25.480  14.934
76705W        W45110  20.465  24.245   3.146
76706W        W45111  20.536   6.873   1.195
76707W        W45112  13.397  40.579   1.621
76708W        W45113  27.032  35.054   2.193
76709W        W45114   2.239  28.443   3.603
76710W        W45115  17.443   5.266   0.091
76711W        W45116  29.432   2.367   1.443
76712W        W45117  21.292   9.425   0.009
76713W        W45118  10.090   4.532   3.666
76714W        W45119  36.904  20.884   4.079
76715W        W45120  41.897  31.483   4.022
76716W        W45121  16.820  12.899  11.599
76717W        W45122  11.086  44.357   3.175
76718W        W45123  31.416  35.426  11.683
76719W        W45124   8.940  39.703  12.878
76720W        W45125  39.606  18.341  14.500
76721W        W45126  16.060  20.014  10.664
76722W        W45127   8.555  14.810   3.263
76723W        W45128  42.488  10.121  12.020
76724W        W45129  31.406  41.011  13.603
76725W        W45130  29.355  34.457   2.804
76726W        W45131  11.572  25.623  10.676
76727W        W45132  44.275  24.657  10.781
76728W        W45133   9.004  43.717   3.501
76729W        W45134  20.806  35.617  13.921
76730W        W45135  34.173  21.075  11.116
76731W        W45136  33.677  42.783   1.730
76732W        W45137  13.843  42.542  14.971
76733W        W45138  31.893  35.466   2.769
76734W        W45139  23.256  21.226   0.913
76735W        W45140  41.121  33.986  14.250
76736W        W45141  14.334  11.235  13.702
76737W        W45142  16.114  33.791  14.357
76738W        W45143   5.507  11.587  14.605
76739W        W45144  33.150  40.804  10.720
76740W        W45145  43.933   0.372  14.249
76741W        W45146  23.166  24.206   2.279
76742W        W45147  14.950  32.944   3.531
76743W        W45148  29.896  39.908   2.307
76744W        W45149  20.763   8.257   4.605
76745W        W45150   7.112  41.498   0.593
76746W        W45151   6.866   6.199   4.008
76747W        W45152  42.227  16.355   4.306
76748W        W45153  21.182  42.874  13.532
76749W        W45154  16.182  40.511  12.566
76750W        W45155   7.103  14.347   4.745
76751W        W45156   1.362   4.960  12.161
76752W        W45157  44.602  24.024  12.081
76753W        W45158  13.944  27.392   4.179
76754W        W45159   2.908  26.967   4.473
76755W        W45160  24.706   5.452  10.663
76756W        W45161  44.150   0.020  11.286
76757W        W45162  14.701   0.936   3.628
76758W        W45163   5.317   8.313  10.245
76759W        W45164  35.353  11.804   3.582
76760W        W45165  16.548  34.157   0.639
76761W        W45166  38.152   8.625  11.009
76762W        W45167  44.963  32.812   2.317
76763W        W45168   8.295  21.254   0.318
76764W        W45169  20.272  38.883   1.787
76765W        W45170  36.395   3.874  10.815
76766W        W45171   1.949  44.680   0.767
76767W        W45172   3.458   0.077  12.413
76768W        W45173   6.819  27.250   0.810
76769W        W45174  11.880  20.224   0.701
76770W        W45175  39.455  34.707  14.306
76771W        W45176  39.934  40.920   2.201
76772W        W45177  43.306   9.794  11.551
76773W        W45178  35.340  12.604  14.906
76774W        W45179   5.469  34.448  11.943
76775W        W45180  43.972   6.350  12.024
76776W        W45181  30.502  32.418  14.025
76777W        W45182  41.041  31.788  12.900
76778W        W45183  29.583  30.392  11.201
76779W        W45184   6.646  30.636   1.802
76780W        W45185   7.060   3.244   2.810
76781W        W45186  44.174  13.337   2.848
76782W        W45187  26.471  30.912   1.207
76783W        W45188  26.424  32.891   4.532
76784W        W45189  10.067  39.517  13.310
76785W        W45190  40.916   7.500   2.394
76786W        W45191  14.091  26.465  14.455
76787W        W45192  42.894  36.547  10.470
76788W        W45193  25.537  33.551   3.670
76789W        W45194  26.243  10.745  10.765
76790W        W45195   9.701  27.126  13.555
76791W        W45196  15.686  13.157   4.556
76792W        W45197   8.885  27.585  12.650
76793W        W45198  12.761   8.523   3.160
76794W        W45199  21.211  21.971  11.693
76795W        W45200  31.033  20.169   2.479
76796W        W45201  43.553  36.633  12.424
76797W        W45202  27.969  41.573  14.335
76798W        W45203  32.044   9.471   4.817
76799W        W45204   4.336  33.856   3.163
76800W        W45205   7.689  11.360   3.510
76801W        W45206  34.166  20.524  13.896
76802W        W45207  10.869  14.563  13.816
76803W        W45208  28.373  21.745  11.530
76804W        W45209  44.660   4.664   0.113
76805W        W45210  35.849  43.996  12.579
76806W        W45211   4.584  31.599  13.243
76807W        W45212  27.079  18.923  14.389
76808W        W45213  14.797  25.464   1.724
76809W        W45214   3.225  18.613  13.104
76810W        W45215  22.947  19.131   3.311
76811W        W45216  31.903  30.026   2.234
76812W        W45217  23.258  18.248  11.212
76813W        W45218   3.442  43.463   1.711
76814W        W45219   8.872  36.879   3.623
76815W        W45220  27.648  12.139   1.385
76816W        W45221  11.188   9.659  12.915
76817W        W45222   8.179  13.839   5.062
76818W        W45223   6.101  38.491   4.032
76819W        W45224  12.831   0.715  13.992
76820W        W45225  11.258  12.815   3.625
76821W        W45226  27.978  33.972   4.312
76822W        W45227  18.245  19.838   1.331
76823W        W45228   9.839  43.243  12.682
76824W        W45229  16.594  25.713  12.544
76825W        W45230  12.326   2.550  12.625
76826W        W45231  32.343  26.469   2.696
76827W        W45232   2.424  27.472  10.634
76828W        W45233  41.741  18.319  13.503
76829W        W45234   8.099   5.701  13.002
76830W        W45235   5.202   9.350  11.132
76831W        W45236  40.484  13.081  11.205
76832W        W45237  29.863  40.537  12.476
76833W        W45238  37.769  19.130   2.177
76834W        W45239  15.075  13.746  10.665
76835W        W45240  44.253   7.413  13.968
76836W        W45241  33.441   5.352   0.852
76837W        W45242  38.860  25.708  12.567
76838W        W45243  29.992  35.026   3.748
76839W        W45244   9.701  24.589   4.422
76840W        W45245  35.313  44.285   1.697
76841W        W45246  26.655   7.556  13.994
76842W        W45247  40.909  39.474   0.022
76843W        W45248  17.588   1.942   4.161
76844W        W45249  14.803  19.340  10.242
76845W        W45250  13.028  29.463   0.324
76846W        W45251  35.539  44.856  14.677
76847W        W45252  20.749  16.179   1.735
76848W        W45253  32.011   5.195   4.362
76849W        W45254  44.942  13.621   1.402
76850W        W45255  16.953  34.086   4.517
76851W        W45256   8.339   7.847  11.704
76852W        W45257  30.508  11.251  14.772
76853W        W45258   5.183  34.018   1.229
76854W        W45259  26.230  19.801   0.520
76855W        W45260  42.181  36.553   4.615
76856W        W45261  22.915  36.369   0.270
76857W        W45262   6.417  37.107   4.322
76858W        W45263  17.807   3.448   3.346
76859W        W45264  16.053  23.177  12.078
76860W        W45265  32.129  17.295  13.872
76861W        W45266  38.786  28.859  10.715
76862W        W45267  37.345  32.078  14.961
76863W        W45268   2.308  36.702   1.848
76864W        W45269  35.883  36.888  12.642
76865W        W45270  29.174  36.531  12.627
76866W        W45271  25.614  21.524  14.742
76867W        W45272  38.111  16.785  11.957
76868W        W45273   5.723  13.575  12.862
76869W        W45274  13.135  36.103  12.457
76870W        W45275  30.585  43.415  14.357
76871W        W45276   7.172   6.369   0.327
76872W        W45277  31.062  32.116   2.376
76873W        W45278  18.776  17.815   4.628
76874W        W45279   1.283   2.175  13.499
76875W        W45280  15.762  42.684  10.685
76876W        W45281  16.330  39.365   0.843
76877W        W45282  39.414   5.219  13.770
76878W        W45283   4.433   6.184  13.463
76879W        W45284  35.245   6.880  13.810
76880W        W45285  14.234  11.874   4.332
76881W        W45286  40.737   1.111  12.295
76882W        W45287  34.624   0.209  12.463
76883W        W45288  14.890  31.973  14.016
76884W        W45289  36.642   3.116   2.426
76885W        W45290  25.553  18.078  14.796
76886W        W45291  32.878   6.243   2.353
76887W        W45292  15.383  34.641  12.681
76888W        W45293  44.489  32.039  11.287
76889W        W45294  24.934  24.309   4.454
76890W        W45295  35.003   2.995   4.207
76891W        W45296  35.783  29.071   2.381
76892W        W45297   0.941   9.994  13.773
76893W        W45298  13.118  19.090   1.291
76894W        W45299  33.074  20.955  13.052
76895W        W45300  17.002  19.738   3.604
76896W        W45301  14.933  43.151   2.397
76897W        W45302  44.276  28.184   0.939
76898W        W45303  19.025  11.627  14.441
76899W        W45304  33.765  34.978  12.633
76900W        W45305  25.516  31.571   2.652
76901W        W45306   8.454  29.618   1.541
76902W        W45307  30.672   8.351   2.904
76903W        W45308   4.218  32.158   1.675
76904W        W45309  23.933  20.539  11.469
76905W        W45310  13.155  16.270  12.321
76906W        W45311   5.973  28.419  13.109
76907W        W45312  41.771  12.717  11.371
76908W        W45313  12.411  26.425   4.559
76909W        W45314  25.491  13.435   3.230
76910W        W45315  14.414  28.313  12.572
76911W        W45316  32.219  43.425   2.881
76912W        W45317  11.048  18.204  11.910
76913W        W45318  23.116  39.289   2.708
76914W        W45319  13.670  34.467  13.090
76915W        W45320  23.824   7.701   3.685
76916W        W45321  28.443  35.970   4.304
76917W        W45322  30.044  18.163   5.166
76918W        W45323  15.100  35.617   3.616
76919W        W45324  20.040  15.806  12.392
76920W        W45325  18.131  18.684   4.706
76921W        W45326  44.788  22.215   0.914
76922W        W45327  24.430  42.962   0.953
76923W        W45328  34.913  43.105   4.592
76924W        W45329   3.381   6.735   3.856
76925W        W45330  40.177  39.318  10.749
76926W        W45331  31.125  24.749  11.162
76927W        W45332   2.532  35.992   0.334
76928W        W45333  25.630  12.592   3.236
76929W        W45334  39.557  19.794   4.692
76930W        W45335  34.500  18.635   1.756
76931W        W45336  13.690   7.108  12.442
76932W        W45337   6.752   3.984  14.819
76933W        W45338   1.388   5.812   4.276
76934W        W45339  12.442  21.070   3.199
76935W        W45340  44.014  23.147   4.149
76936W        W45341  29.045   2.989   1.893
76937W        W45342  22.148   9.778  14.079
76938W        W45343  33.605  10.573  11.083
76939W        W45344  14.548   8.139   3.107
76940W        W45345  25.265  11.693   3.658
76941W        W45346  40.290  41.332   2.261
76942W        W45347  26.091  10.258   2.214
76943W        W45348   9.717  25.038   4.086
76944W        W45349  14.379  24.518   4.756
76945W        W45350  44.992  35.439  14.748
76946W        W45351  24.026   4.903   1.656
76947W        W45352  41.961  19.875   1.794
76948W        W45353   5.730  21.828  11.988
76949W        W45354  14.314  11.791   2.813
76950W        W45355  39.801   5.533   0.872
76951W        W45356   9.079  30.160  10.945
76952W        W45357  16.151  26.466  12.300
76953W        W45358  37.313  20.020   2.281
76954W        W45359   0.786  25.631  12.947
76955W        W45360  12.843   7.739  11.440
76956W        W45361  25.286  40.939  14.944
76957W        W45362  40.766  23.265   0.450
76958W        W45363   5.515  18.308   2.802
76959W        W45364   8.170   7.690  12.682
76960W        W45365   9.721  24.287  14.270
76961W        W45366  18.836  33.076  14.982
76962W        W45367   9.001  28.061   2.825
76963W        W45368  32.879  10.891   2.806
76964W        W45369  38.772  27.859   4.049
76965W        W45370  17.384  16.779   2.167
76966W        W45371   5.699  28.748   1.363
76967W        W45372   4.833  37.170   1.882
76968W        W45373  13.521  39.327   2.257
76969W        W45374   3.015  37.432  10.761
76970W        W45375  24.630   3.834  10.791
76971W        W45376  11.210  26.220  11.106
76972W        W45377  10.992  18.220  12.852
76973W        W45378   7.761  12.789   1.771
76974W        W45379  44.854  15.260   3.276
76975W        W45380  20.041  39.899   1.708
76976W        W45381  44.761  18.281  12.298
76977W        W45382  30.631   6.199  11.489
76978W        W45383  20.583   4.380  11.292
76979W        W45384  24.161  35.115   1.066
76980W        W45385   9.429  16.419   2.598
76981W        W45386  41.578  39.413   3.861
76982W        W45387  12.029  42.209   0.799
76983W        W45388  28.690   0.488  11.592
76984W        W45389  38.497   5.249  14.727
76985W        W45390  39.180  38.541  14.816
76986W        W45391  40.258   7.850   3.961
76987W        W45392  26.897  42.961  11.963
76988W        W45393  10.198  32.863   4.860
76989W        W45394   7.522  18.294  13.217
76990W        W45395  12.129  38.067  10.418
76991W        W45396  15.191  44.941   1.547
76992W        W45397   1.338  26.971   2.638
76993W        W45398  16.163   7.755   0.932
76994W        W45399  15.202  43.795   0.175
76995W        W45400  25.669  20.713   2.223
76996W        W45401  22.713   8.786   4.582
76997W        W45402   5.961   6.528   1.259
76998W        W45403   2.405  38.917   0.601
76999W        W45404  13.325  17.706  11.193
77000W        W45405  41.998   7.315   0.377
77001W        W45406  10.397  25.679  12.370
77002W        W45407   5.747  10.213   3.417
77003W        W45408   2.926  43.071  11.826
77004W        W45409  25.146  42.865   2.133
77005W        W45410  15.201  28.411  14.292
77006W        W45411  32.140  32.055  10.772
77007W        W45412  38.767  36.000   1.739
77008W        W45413  17.979  11.832   2.408
77009W        W45414  28.099  37.323   2.419
77010W        W45415  20.011  28.288  13.477
77011W        W45416  40.181  34.488  10.738
77012W        W45417  14.855   6.395   2.211
77013W        W45418  39.911  16.840  11.979
77014W        W45419  44.918   0.057   0.027
77015W        W45420   5.974   8.704   0.342
77016W        W45421  16.806   0.293   1.844
77017W        W45422   5.751  36.442   4.611
77018W        W45423  14.875  18.730  14.681
77019W        W45424   3.680  43.401   1.225
77020W        W45425   2.807   0.401   0.887
77021W        W45426   3.458   2.012   4.715
77022W        W45427  10.056  10.849  11.634
77023W        W45428  16.096  20.935  10.147
77024W        W45429   0.814  37.307  11.275
77025W        W45430  37.952  32.587   3.325
77026W        W45431   0.386   1.398  12.359
77027W        W45432  26.751   0.414  11.534
77028W        W45433   5.011  37.410  14.688
77029W        W45434  33.445  24.982   3.341
77030W        W45435   9.974  27.386   4.245
77031W        W45436  29.078  43.260   2.490
77032W        W45437  38.707  16.034  12.354
77033W        W45438  31.840  41.911  11.882
77034W        W45439  25.522   1.792   3.768
77035W        W45440  23.543  22.449  10.687
77036W        W45441  36.914  35.395  11.707
77037W        W45442  44.694  38.150   4.025
77038W        W45443   5.729  20.510   1.157
77039W        W45444  43.791  17.243   1.159
77040W        W45445  24.800   4.807  12.579
77041W        W45446   1.595  20.170  11.089
77042W        W45447  36.161  33.078   1.932
77043W        W45448  26.287  34.579  10.778
77044W        W45449  33.717  26.724   3.668
77045W        W45450  19.551  19.683   0.045
77046W        W45451  36.413   0.849  14.068
77047W        W45452  40.844   5.497  12.028
77048W        W45453  38.695  30.931   3.441
77049W        W45454  14.080  40.066   4.744
77050W        W45455   6.543  44.352   4.617
77051W        W45456  20.646  16.085  13.438
77052W        W45457  18.374  39.876  13.163
77053W        W45458  35.625  32.534  11.792
77054W        W45459  43.333  40.935  14.023
77055W        W45460  32.663   8.437  12.642
77056W        W45461  31.135   6.734  13.975
77057W        W45462  31.552  23.473  13.277
77058W        W45463   2.238   4.907  11.915
77059W        W45464  39.860  42.633  13.649
77060W        W45465  37.792  20.028   3.572
77061W        W45466   4.758  29.926  13.929
77062W        W45467  23.507  39.463   4.101
77063W        W45468  21.014  10.135  10.601
77064W        W45469  31.012  24.792   3.601
77065W        W45470   0.211  28.709   1.357
77066W        W45471  40.817  18.163   3.667
77067W        W45472  38.127  11.266   0.777
77068W        W45473   4.434  16.124  13.670
77069W        W45474  11.920  10.733  13.891
77070W        W45475  23.629  42.089  13.677
77071W        W45476  14.246  29.442  12.061
77072W        W45477   7.376   8.410   1.188
77073W        W45478  44.393  39.731  12.063
77074W        W45479  26.117  11.241   2.689
77075W        W45480  34.828  12.559  14.853
77076W        W45481   2.037  12.637   0.725
77077W        W45482   7.734  33.467  12.053
77078W        W45483   7.685  34.297   3.750
77079W        W45484  41.752  42.907  10.979
77080W        W45485   8.241   4.406   2.161
77081W        W45486  11.776  28.237   3.134
77082W        W45487   4.599  20.703   3.672
77083W        W45488  32.786  38.099   0.340
77084W        W45489  24.107  43.022   5.034
77085W        W45490  33.188   6.022  12.285
77086W        W45491  23.009  21.991  13.388
77087W        W45492   3.013  23.048   0.505
77088W        W45493  17.143  39.581   2.354
77089W        W45494  44.930   8.111  12.650
77090W        W45495   8.248   5.535   0.193
77091W        W45496  42.787   5.025  12.061
77092W        W45497  36.957  14.126  11.581
77093W        W45498   4.437  21.202   0.812
77094W        W45499   0.681  30.242  12.154
77095W        W45500  10.776   6.919   3.304
77096W        W45501  21.996  21.521   1.255
77097W        W45502   0.047   7.913  11.483
77098W        W45503  28.985  44.334  14.403
77099W        W45504  32.205   7.922   2.204
77100W        W45505  34.333  11.785   4.559
77101W        W45506  31.003  26.543  14.969
77102W        W45507  24.062   5.261  10.767
77103W        W45508  36.676  39.963   2.373
77104W        W45509  22.093  33.815  11.594
77105W        W45510  23.124  22.526   0.414
77106W        W45511  41.615   4.749   2.920
77107W        W45512   9.259  31.629  13.855
77108W        W45513  18.704  10.662  13.302
77109W        W45514  12.316  20.547   3.981
77110W        W45515  15.497  43.482   3.211
77111W        W45516   2.999  12.397  10.048
77112W        W45517  11.891  13.562   1.916
77113W        W45518   0.511  41.791   3.192
77114W        W45519  42.298   7.234   0.792
77115W        W45520  29.739  34.484  10.832
77116W        W45521  16.001   7.159   1.541
77117W        W45522  42.832  34.529   4.561
77118W        W45523   2.279  14.672  11.593
77119W        W45524   6.768  43.246   0.935
77120W        W45525  41.854  36.109   1.339
77121W        W45526  24.556   1.793   1.277
77122W        W45527  38.620  33.356  13.818
77123W        W45528  15.535   1.796  12.899
77124W        W45529  25.623  41.756  12.595
77125W        W45530  13.813  20.617  10.494
77126W        W45531  29.529  36.277  10.395
77127W        W45532  38.746  15.852  10.847
77128W        W45533  39.418  19.203   3.129
77129W        W45534  12.497  15.223  13.020
77130W        W45535  15.161  36.476  13.506
77131W        W45536  32.106  37.346  13.844
77132W        W45537  38.548  13.714  13.587
77133W        W45538  16.726   6.936   2.365
77134W        W45539  43.798   4.017   4.608
77135W        W45540  14.025  18.501  14.497
77136W        W45541  39.779   7.547  11.908
77137W        W45542  39.407  33.563   3.167
77138W        W45543  37.049  33.548  12.116
77139W        W45544   2.297  26.150  10.646
77140W        W45545  32.984  26.069  13.147
77141W        W45546  35.082   2.659  14.829
77142W        W45547  28.478  26.610  11.625
77143W        W45548  37.040  35.648  11.268
77144W        W45549   1.748  30.950   2.603
77145W        W45550  22.457  27.032   4.559
77146W        W45551   5.543   3.292   2.766
77147W        W45552  15.987  31.552   4.796
77148W        W45553   9.733  37.020   0.933
77149W        W45554  33.100   6.252  11.281
77150W        W45555   5.513  28.568   3.118
77151W        W45556  25.939  27.440   2.661
77152W        W45557   0.841   7.852  10.827
77153W        W45558  32.437   5.791   1.464
77154W        W45559  43.084  30.512   3.699
77155W        W45560  39.944  27.915  10.744
77156W        W45561  24.873  14.002  13.419
77157W        W45562  25.077  29.978  12.198
77158W        W45563  37.795  27.406  10.803
77159W        W45564  35.333  42.772   3.140
77160W        W45565  34.311  41.920  14.441
77161W        W45566  16.817  19.666   1.157
77162W        W45567   2.858  19.499  12.933
77163W        W45568  17.981   9.229  14.752
77164W        W45569  41.808  33.661   0.877
77165W        W45570  43.809  13.093  12.153
77166W        W45571  44.942  21.991   0.462
77167W        W45572  19.971  34.030   0.919
77168W        W45573  28.649  11.725   1.907
77169W        W45574   2.771   7.827  12.456
77170W        W45575   3.863  14.359  13.835
77171W        W45576   1.544   9.245   3.753
77172W        W45577  26.229  20.064  11.960
77173W        W45578  37.472  40.844   0.682
77174W        W45579   1.436  34.608   1.263
77175W        W45580   9.777  33.902   2.180
77176W        W45581  20.609   0.008   0.211
77177W        W45582  18.144  13.660  11.612
77178W        W45583  34.752  32.088   0.370
77179W        W45584   9.885  35.386   4.606
77180W        W45585  16.155  32.088   3.233
77181W        W45586  28.464  12.582  14.783
77182W        W45587  15.579  36.112   1.816
77183W        W45588   4.355  14.338  12.603
77184W        W45589  24.866  21.555  12.040
77185W        W45590  20.574  23.888   1.765
77186W        W45591  23.567  11.075   3.106
77187W        W45592  28.885  19.183   9.819
77188W        W45593  27.970  41.800   3.263
77189W        W45594  34.591  11.601   3.217
77190W        W45595  15.790  41.077   3.283
77191W        W45596   0.525  10.819   1.734
77192W        W45597  16.617   1.864  10.880
77193W        W45598  33.825   2.841  11.930
77194W        W45599  43.907  21.344   3.477
77195W        W45600  16.860  20.124   2.650
77196W        W45601  21.525   4.900  11.972
77197W        W45602   5.709  19.069   1.863
77198W        W45603  21.214  39.419   0.403
77199W        W45604  37.061  33.869   4.961
77200W        W45605  27.615   0.862  11.492
77201W        W45606   1.265  44.818  13.131
77202W        W45607  17.808  42.056   2.196
77203W        W45608  14.729  17.099  11.330
77204W        W45609  42.961  41.430   2.845
77205W        W45610  41.000  22.762  13.146
77206W        W45611  12.664   0.352  12.845
77207W        W45612   5.848   6.733  14.007
77208W        W45613  15.275  38.492   0.497
77209W        W45614  26.689  15.898   1.884
77210W        W45615  16.473   0.862   2.614
77211W        W45616   7.403  41.248  13.835
77212W        W45617   3.446  19.000   2.207
77213W        W45618  11.806   2.474   1.039
77214W        W45619   4.907   2.537   5.135
77215W        W45620   4.213  15.055   2.208
77216W        W45621  21.239  43.640   1.504
77217W        W45622  19.579  21.194  12.408
77218W        W45623   2.954  36.122   1.305
77219W        W45624  40.949  38.958  12.590
77220W        W45625   5.991  36.283  13.281
77221W        W45626   4.405  16.682  12.819
77222W        W45627  33.500  38.948  13.250
77223W        W45628   4.363  24.185   0.568
77224W        W45629  27.081  31.551  14.713
77225W        W45630  36.993  41.784  12.847
77226W        W45631  33.402   6.128  10.580
77227W        W45632  29.576  34.449  13.137
77228W        W45633  37.393  23.125  13.166
77229W        W45634  39.091   3.976  12.588
77230W        W45635  35.091  38.068   2.776
77231W        W45636  26.460  27.093  12.586
77232W        W45637  31.378  20.373   4.713
77233W        W45638  17.645  21.100   4.995
77234W        W45639   0.720   9.218   4.153
77235W        W45640  16.317  21.983  14.347
77236W        W45641  21.623  29.594  11.990
77237W        W45642  22.420  40.578  12.068
77238W        W45643   8.375  23.548  14.936
77239W        W45644  39.433  14.212  11.735
77240W        W45645   6.385   7.030  10.138
77241W        W45646  32.947  34.539   1.239
77242W        W45647  18.672  18.100   2.863
77243W        W45648  16.496  14.333   1.794
77244W        W45649  26.059  41.296  13.120
77245W        W45650  43.072  36.469   1.285
77246W        W45651   8.851  31.088   5.612
77247W        W45652  14.980  18.020  11.093
77248W        W45653  15.991  12.397   0.324
77249W        W45654   5.468  39.522  12.026
77250W        W45655   0.648  39.578  11.061
77251W        W45656  24.243  42.133  11.247
77252W        W45657   4.171  40.527   2.885
77253W        W45658   6.833  24.323  11.596
77254W        W45659  36.651  31.600   2.383
77255W        W45660   0.399   6.218  10.248
77256W        W45661  20.623  34.946   0.434
77257W        W45662  22.510  34.392  13.952
77258W        W45663   3.143  12.095  10.575
77259W        W45664  42.817  15.268  13.718
77260W        W45665  23.560  40.774   1.314
77261W        W45666  39.542  25.021   4.839
77262W        W45667  11.048   8.464   1.287
77263W        W45668  31.613  36.923  13.465
77264W        W45669   8.831  25.693   4.587
77265W        W45670  25.141  28.098  12.138
77266W        W45671  15.025  15.129  10.959
77267W        W45672  39.970  23.486  12.449
77268W        W45673  43.452   5.484   3.147
77269W        W45674  15.366  21.250  13.827
77270W        W45675  39.244  21.810   3.261
77271W        W45676   5.224  25.573  13.524
77272W        W45677   4.946  36.365   3.199
77273W        W45678   7.580   6.947   2.897
77274W        W45679  13.319  18.760   3.492
77275W        W45680   0.130   7.669  10.207
77276W        W45681  17.741  20.742   1.963
77277W        W45682  33.365   7.537   2.375
77278W        W45683  10.261  36.057  13.044
77279W        W45684  12.733  31.386  13.842
77280W        W45685  16.469   4.045   4.263
77281W        W45686   0.362  23.653  10.783
77282W        W45687  35.970  31.667  12.001
77283W        W45688  32.600  32.550  12.819
77284W        W45689  20.171  12.697   1.720
77285W        W45690  20.549   6.174  13.754
77286W        W45691  35.083  10.692   2.670
77287W        W45692  19.216  29.233  14.504
77288W        W45693  22.989   7.445  11.464
77289W        W45694   5.868  10.121   2.733
77290W        W45695  33.032  37.765   1.984
77291W        W45696   2.241   3.435   1.466
77292W        W45697  29.659  23.420  12.936
77293W        W45698  23.726  28.057  13.338
77294W        W45699   3.813  38.251   1.764
77295W        W45700  19.925  30.629   4.763
77296W        W45701   1.549  10.704  13.923
77297W        W45702  21.569  18.210   4.497
77298W        W45703  33.087  15.201  14.363
77299W        W45704  18.759  12.985  14.668
77300W        W45705  40.115  10.274  10.181
77301W        W45706   4.696   9.752   1.686
77302W        W45707  35.246  13.197   0.562
77303W        W45708  21.835  35.615   3.271
77304W        W45709  43.696  37.644  11.214
77305W        W45710  10.558   9.964   3.586
77306W        W45711  22.594  38.035   2.315
77307W        W45712  26.824  17.087   3.234
77308W        W45713  41.624  35.157  14.809
77309W        W45714  30.205  15.574   3.527
77310W        W45715   9.775  40.820   2.850
77311W        W45716  20.806   4.031   4.049
77312W        W45717  28.521  28.615  10.505
77313W        W45718  43.819  13.112  13.955
77314W        W45719  40.048  10.134  14.863
77315W        W45720  22.729   7.243   5.013
77316W        W45721  41.020  30.727  11.192
77317W        W45722  34.389   9.832  13.310
77318W        W45723  29.995  18.362   0.420
77319W        W45724  11.361  24.727   2.516
77320W        W45725  40.501  29.536   3.659
77321W        W45726  31.187  29.549  11.043
77322W        W45727  43.036  17.181   0.424
77323W        W45728   6.683   9.099  13.457
77324W        W45729  22.123  34.668   4.583
77325W        W45730   0.295  19.638  12.999
77326W        W45731  44.831  32.080   0.270
77327W        W45732  19.763   9.428  10.458
77328W        W45733  14.290  10.306   1.516
77329W        W45734  27.161  26.066  12.369
77330W        W45735  11.310  33.659   2.267
77331W        W45736  14.732  44.778  13.859
77332W        W45737  32.916   4.299   4.534
77333W        W45738  42.160  42.917  13.311
77334W        W45739   2.286   5.292   0.721
77335W        W45740  16.234  41.909   0.030
77336W        W45741  35.229  23.565  11.486
77337W        W45742  32.105   1.310  11.028
77338W        W45743   4.187  21.984  14.760
77339W        W45744   3.729  33.842   3.624
77340W        W45745  18.789  22.084  11.864
77341W        W45746  23.576  34.308   4.514
77342W        W45747  18.094  44.740   1.409
77343W        W45748  14.373  40.262  12.942
77344W        W45749   2.761  28.865   4.475
77345W        W45750   7.702  23.278   1.312
77346W        W45751  33.904  24.235   4.225
77347W        W45752  36.870  27.098   1.894
77348W        W45753  10.732  12.910   1.385
77349W        W45754  44.780  27.873   2.773
77350W        W45755  31.634  32.072  10.694
77351W        W45756  13.349  11.685   0.542
77352W        W45757  43.386  17.649   3.555
77353W        W45758  13.302  10.103  12.842
77354W        W45759  11.351  39.213  10.478
77355W        W45760  33.979  26.498  13.486
77356W        W45761  37.611  33.201  14.918
77357W        W45762  14.810  19.787   0.326
77358W        W45763  41.767  17.940  14.297
77359W        W45764  43.093  38.656  10.520
77360W        W45765  11.661  20.051   1.701
77361W        W45766  16.735  10.389   3.565
77362W        W45767  19.813  21.071  11.045
77363W        W45768  13.893  32.616  14.733
77364W        W45769   5.734  30.964   4.124
77365W        W45770  20.837  12.212  11.953
77366W        W45771  22.228  33.584   4.746
77367W        W45772   5.430  10.571   0.812
77368W        W45773  16.803  25.754  11.138
77369W        W45774  41.500  23.186   4.204
77370W        W45775  22.730   6.552   3.174
77371W        W45776  29.905  13.433   1.619
77372W        W45777  15.284  27.531   0.516
77373W        W45778  33.477  34.439   0.335
77374W        W45779  44.295  29.799   3.787
77375W        W45780  38.022  35.575   3.939
77376W        W45781  33.430   6.810   0.632
77377W        W45782  27.051  26.109  11.391
77378W        W45783   8.430   1.444  13.058
77379W        W45784   3.221   4.556   2.736
77380W        W45785  24.410   1.593  12.990
77381W        W45786  13.582  11.897  11.190
77382W        W45787  29.185  11.595  10.547
77383W        W45788  35.916  34.641   4.761
77384W        W45789  40.072   4.691   0.640
77385W        W45790  18.377  17.860   2.209
77386W        W45791   3.020   5.259  13.955
77387W        W45792  21.755  20.036   1.274
77388W        W45793   8.272  18.282   4.333
77389W        W45794   0.971  21.272  10.476
77390W        W45795   2.122  44.420   1.259
77391W        W45796  40.615  18.551  14.406
77392W        W45797  28.068  44.102   4.182
77393W        W45798  15.518  12.832  12.549
77394W        W45799  28.025   9.240   4.858
77395W        W45800  16.070  29.479   2.272
77396W        W45801  31.414  18.241  14.419
77397W        W45802  28.036  38.870   3.321
77398W        W45803  35.849  11.996  14.407
77399W        W45804  24.579  33.272  14.013
77400W        W45805  31.000  27.977  14.549
77401W        W45806  36.168  14.513  12.726
77402W        W45807   1.031  15.843  11.702
77403W        W45808   8.325  17.824   4.559
77404W        W45809   7.169   1.645  14.121
77405W        W45810  37.538  43.215  12.447
77406W        W45811  29.111  10.908   1.809
77407W        W45812  21.767  11.339  12.834
77408W        W45813   5.483  19.986   4.818
77409W        W45814  33.408   3.276  10.667
77410W        W45815   8.890  40.402  11.637
77411W        W45816  30.947  31.713  13.551
77412W        W45817  19.195  35.060   2.388
77413W        W45818  12.007  10.757   3.317
77414W        W45819  37.603  27.173   1.411
77415W        W45820  34.068  42.569   4.502
77416W        W45821  10.150  31.233   4.054
77417W        W45822  12.398  21.697  10.903
77418W        W45823  20.486   9.162   0.865
77419W        W45824  14.812  15.769  13.183
77420W        W45825  42.998  43.775  13.332
77421W        W45826  27.470   9.888   3.733
77422W        W45827  12.246  33.285  11.023
77423W        W45828   7.846  32.893   0.872
77424W        W45829   6.205  32.650  14.595
77425W        W45830   7.870   9.842   3.651
77426W        W45831  43.306  35.207   0.877
77427W        W45832  14.754  37.340   2.330
77428W        W45833  30.600  39.106   1.321
77429W        W45834  28.955   6.618  11.460
77430W        W45835  44.837  42.537   4.056
77431W        W45836  35.081  15.415   3.449
77432W        W45837  39.913  15.040  12.459
77433W        W45838  19.047  41.092   3.367
77434W        W45839  37.556  18.943   0.501
77435W        W45840  32.897   5.525   0.062
77436W        W45841  23.193  12.220  10.706
77437W        W45842  20.534  40.289  11.813
77438W        W45843  27.534  10.814   3.900
77439W        W45844  34.121  28.496  14.882
77440W        W45845  40.722  21.918   1.933
77441W        W45846  39.498  10.778  14.115
77442W        W45847  24.813  32.384  12.867
77443W        W45848   5.938  37.914   2.301
77444W        W45849  21.126   5.990  10.776
77445W        W45850  29.722  16.300   1.623
77446W        W45851  26.873  33.007   1.416
77447W        W45852  41.505  28.282   3.741
77448W        W45853   3.453  28.253  11.586
77449W        W45854  12.298  40.475  14.458
77450W        W45855  20.567   2.280  10.961
77451W        W45856   7.665   7.274   1.927
77452W        W45857  39.486  15.106   4.169
77453W        W45858  20.575  42.409   3.127
77454W        W45859  22.375  35.656  13.738
77455W        W45860  42.871  24.033   0.901
77456W        W45861  17.017  25.703   5.359
77457W        W45862  37.544  29.583   2.710
77458W        W45863  25.470  16.385   1.165
77459W        W45864   2.268  21.761  12.941
77460W        W45865  24.420   1.872  14.362
77461W        W45866   8.810  42.977  10.305
77462W        W45867   2.201   0.513   4.097
77463W        W45868  18.797  18.295  14.853
77464W        W45869   3.420  44.437  14.580
77465W        W45870  30.641   1.741   3.220
77466W        W45871  17.355  19.580  14.375
77467W        W45872  26.731  30.134  11.978
77468W        W45873  35.089   1.686   3.722
77469W        W45874  29.419  25.309  12.362
77470W        W45875  43.343  34.823   4.119
77471W        W45876  30.594  18.049  14.076
77472W        W45877  15.363  37.310  10.928
77473W        W45878   6.462  21.563   3.238
77474W        W45879   7.322  27.207  11.771
77475W        W45880  36.266  15.292  11.098
77476W        W45881  43.547  16.204   1.430
77477W        W45882  33.210  30.507  14.899
77478W        W45883  17.645  32.492   1.939
77479W        W45884  31.512  28.120  14.516
77480W        W45885  27.468  19.097  12.409
77481W        W45886  16.009   4.207  11.086
77482W        W45887  19.758   3.305   4.310
77483W        W45888  39.981  21.525  11.578
77484W        W45889  39.710  18.493  11.035
77485W        W45890  12.380  36.078   3.386
77486W        W45891   3.798  36.545  13.303
77487W        W45892  12.744  20.141  12.403
77488W        W45893  23.776  34.506  13.838
77489W        W45894  44.205  32.039   3.174
77490W        W45895   6.050  22.012   3.203
77491W        W45896  27.301  29.694  14.457
77492W        W45897  38.097  31.716  12.491
77493W        W45898   9.793  15.777   0.842
77494W        W45899  31.552  25.384  12.079
77495W        W45900  26.155  13.893  13.979
77496W        W45901  32.743   0.716  11.996
77497W        W45902  14.982  18.856  14.173
77498W        W45903  24.319  29.864   0.813
77499W        W45904  43.502  18.725  14.521
77500W        W45905   1.695  36.949   4.778
77501W        W45906  40.030   0.661   0.377
77502W        W45907  40.774   5.005  14.354
77503W        W45908   2.671  41.905  11.212
77504W        W45909  31.957   2.632   4.621
77505W        W45910  16.814  28.843   4.075
77506W        W45911  15.647   6.625  13.920
77507W        W45912  38.601  40.242   2.817
77508W        W45913  35.346  40.881  14.392
77509W        W45914  26.902  15.275   2.284
77510W        W45915   5.734   1.502   4.029
77511W        W45916  16.134  12.783   3.165
77512W        W45917  33.157  44.409  12.219
77513W        W45918  29.427  37.113   3.870
77514W        W45919  41.895  11.953  12.010
77515W        W45920  35.573  16.147   3.881
77516W        W45921  36.078  29.409  13.493
77517W        W45922  29.269  32.545  12.764
77518W        W45923  11.542   8.524   1.320
77519W        W45924  11.427  18.436   1.340
77520W        W45925  12.054  10.247  10.773
77521W        W45926  20.274  31.857  10.664
77522W        W45927  20.179  28.619   4.538
77523W        W45928  11.239   0.982  12.856
77524W        W45929  12.777   0.337  10.997
77525W        W45930  11.693   5.936  13.515
77526W        W45931  19.816   4.763  12.488
77527W        W45932   0.089  19.178  12.218
77528W        W45933  26.611  43.228   4.664
77529W        W45934  40.287  36.845  11.817
77530W        W45935  22.116  19.723   0.753
77531W        W45936   6.654   6.114  13.865
77532W        W45937  19.036  19.275   1.493
77533W        W45938  39.702  12.780   0.462
77534W        W45939   3.496  10.211  12.668
77535W        W45940   8.743   4.175   4.482
77536W        W45941  15.161  10.811   1.484
77537W        W45942  38.318  26.258   2.621
77538W        W45943  16.057  36.885  13.524
77539W        W45944  11.311   3.348   2.156
77540W        W45945  10.669  11.019   3.080
77541W        W45946  34.508   6.624  12.396
77542W        W45947   7.228  39.901   2.800
77543W        W45948  26.635  40.970   4.149
77544W        W45949  21.550  43.722   0.261
77545W        W45950   1.006   4.438   0.419
77546W        W45951   1.918  44.513  11.202
77547W        W45952  10.215   1.703  10.542
77548W        W45953  17.628   0.753   1.814
77549W        W45954  32.211  33.579   2.753
77550W        W45955  19.681   3.147  13.488
77551W        W45956  14.300  36.296  11.030
77552W        W45957  21.180  13.596  11.679
77553W        W45958  37.438   1.518  12.502
77554W        W45959  11.740  26.421   3.145
77555W        W45960  17.099  13.712  13.533
77556W        W45961  40.860   9.500   3.853
77557W        W45962  43.722  42.993  12.938
77558W        W45963   0.017  16.787   4.911
77559W        W45964   3.624  17.126   4.180
77560W        W45965  11.467  39.753  11.969
77561W        W45966  35.420  36.792   3.797
77562W        W45967  20.043  15.822  11.498
77563W        W45968  32.509  16.132  13.497
77564W        W45969  12.348  33.879  12.904
77565W        W45970  40.699  34.432  10.680
77566W        W45971  12.595  10.741   2.476
77567W        W45972  27.993  28.588  14.371
77568W        W45973  17.860  43.028   0.745
77569W        W45974  11.709  27.147   3.876
77570W        W45975  38.820   9.171  11.554
77571W        W45976   5.644  34.521  14.881
77572W        W45977  12.851  17.646  14.799
77573W        W45978  18.126  32.005  12.957
77574W        W45979   5.861  11.453  14.939
77575W        W45980   3.014  44.654   4.635
77576W        W45981  44.040  18.192   1.365
77577W        W45982   6.690  17.285   2.897
77578W        W45983  17.787  33.999  11.131
77579W        W45984  20.347   2.699  10.750
77580W        W45985  38.588   5.504  12.439
77581W        W45986  10.610   4.004  13.034
77582W        W45987   5.822   2.743   4.970
77583W        W45988   9.745   1.765   3.411
77584W        W45989   9.642  29.900  12.933
77585W        W45990  41.041  42.760   4.982
77586W        W45991  21.092  15.599   3.715
77587W        W45992   2.767   3.210  13.053
77588W        W45993  26.576  43.721  11.206
77589W        W45994   1.334  40.747   4.251
77590W        W45995  44.816  28.937  14.431
77591W        W45996  42.953  23.807   2.644
77592W        W45997  29.252   2.820  14.947
77593W        W45998   8.889  12.616  11.054
77594W        W45999  31.056  16.109  14.924
77595W        W46000   1.101  26.959   4.563
77596W        W46001  35.085   2.412   2.154
77597W        W46002  35.094  19.671  13.594
77598W        W46003  19.837   8.274   2.418
77599W        W46004   4.466  41.754   0.754
77600W        W46005  44.559  35.528   4.414
77601W        W46006  43.894  33.638  14.618
77602W        W46007  18.281  27.182  13.212
77603W        W46008   7.687  12.326   4.541
77604W        W46009  32.879   2.666  10.652
77605W        W46010  12.674  27.742   1.721
77606W        W46011   9.632  31.528   0.768
77607W        W46012   8.790  29.722  11.035
77608W        W46013   8.932  28.146   4.978
77609W        W46014  40.054  29.645   1.842
77610W        W46015  40.461  36.713   4.076
77611W        W46016  21.557  25.707  14.758
77612W        W46017  13.416  38.572   1.949
77613W        W46018  34.166   3.278  12.596
77614W        W46019  38.919  34.284  14.045
77615W        W46020  42.321  11.486  10.292
77616W        W46021   1.771  35.064   1.241
77617W        W46022  30.887  20.257   4.349
77618W        W46023  39.593  22.992  12.077
77619W        W46024  32.514  23.235  14.536
77620W        W46025  35.628  12.542   3.111
77621W        W46026  32.032  30.471  14.752
77622W        W46027  17.069  12.657  14.686
77623W        W46028  26.664  34.808   0.521
77624W        W46029  30.624   4.710   0.028
77625W        W46030  10.673  32.861  11.999
77626W        W46031  31.362  13.864  12.470
77627W        W46032  36.074  31.160  12.889
77628W        W46033  33.488   5.135  10.081
77629W        W46034  36.897  41.164  10.692
77630W        W46035   3.201   1.339  11.028
77631W        W46036   4.791  12.033   1.234
77632W        W46037  41.924   4.504   4.499
77633W        W46038  15.199   6.480   0.388
77634W        W46039  33.655  22.137   1.982
77635W        W46040  10.317   5.603  14.847
77636W        W46041  24.914  19.188   3.369
77637W        W46042  38.980   8.632  11.554
77638W        W46043  16.266  20.137  12.092
77639W        W46044  43.236  26.259   0.895
77640W        W46045  13.749  44.973  12.451
77641W        W46046  19.559  25.692   3.639
77642W        W46047   8.127  41.050   1.834
77643W        W46048  21.479  40.794   3.140
77644W        W46049  39.020   0.370   1.228
77645W        W46050  35.058  41.013  14.853
77646W        W46051  38.949  28.515   0.288
77647W        W46052  40.317  40.495   4.155
77648W        W46053  27.657  26.011  12.450
77649W        W46054  44.498   6.533   0.021
77650W        W46055   7.749  28.209  12.368
77651W        W46056  43.524  42.299  11.961
77652W        W46057  27.713   1.032  14.954
77653W        W46058   0.409  22.132   3.265
77654W        W46059  34.414  42.371  12.154
77655W        W46060  16.309   0.271   0.455
77656W        W46061   2.453   3.800  12.481
77657W        W46062  34.636  13.701   0.522
77658W        W46063  22.834  32.247   2.210
77659W        W46064  18.652  24.773  14.315
77660W        W46065  17.893  23.660   2.360
77661W        W46066  41.327  13.691   2.227
77662W        W46067  22.441  38.433  13.012
77663W        W46068  18.056  32.014   1.374
77664W        W46069  14.210  29.695   1.413
77665W        W46070  44.827  17.609   4.287
77666W        W46071  10.224  13.737  12.590
77667W        W46072  35.096   2.855  13.244
77668W        W46073  26.469  25.402  14.811
77669W        W46074   1.511  28.465   0.786
77670W        W46075  20.157  32.064   1.158
77671W        W46076  23.107  20.239   0.837
77672W        W46077  10.740  28.071  14.315
77673W        W46078  28.669  42.472   2.724
77674W        W46079  34.151  33.256  14.331
77675W        W46080  44.570   6.798   0.972
77676W        W46081  10.826  29.765   1.799
77677W        W46082  38.991   2.922   0.080
77678W        W46083  35.378  32.063  11.716
77679W        W46084  29.178  10.273   0.005
77680W        W46085  22.606  16.539   4.939
77681W        W46086  33.430  13.996   4.300
77682W        W46087  24.776   2.448   3.856
77683W        W46088   3.501   6.445  11.626
77684W        W46089  33.269  35.085   4.126
77685W        W46090  44.251   4.925  13.406
77686W        W46091   1.021  31.266   4.208
77687W        W46092   7.679  34.808   3.767
77688W        W46093  15.235  21.964  10.834
77689W        W46094  10.987  37.860   0.238
77690W        W46095  23.666  27.927   0.747
77691W        W46096  10.241  18.838   4.634
77692W        W46097  40.048  39.501   0.086
77693W        W46098   1.965  23.548  10.640
77694W        W46099  19.239   8.268   3.759
77695W        W46100  13.750  12.526   4.599
77696W        W46101   7.308   4.440   2.453
77697W        W46102   9.179  44.050  14.861
77698W        W46103  32.593  27.017  10.707
77699W        W46104   5.306  32.365  14.649
77700W        W46105   3.894  38.408  10.562
77701W        W46106  10.234  11.650   0.827
77702W        W46107   2.206   9.859   2.131
77703W        W46108  39.230  44.409  11.642
77704W        W46109   0.482  30.763   5.008
77705W        W46110  21.892  22.708  12.658
77706W        W46111  19.173  44.363   2.364
77707W        W46112   9.384  39.564  10.733
77708W        W46113   4.473  21.527  14.799
77709W        W46114  42.116  38.082  14.846
77710W        W46115  15.246   7.133   2.756
77711W        W46116  17.767  43.020  12.521
77712W        W46117  26.824  12.092   1.823
77713W        W46118  27.114  13.709  13.996
77714W        W46119  18.679   5.133  12.854
77715W        W46120  44.943  28.667  12.983
77716W        W46121  36.600  43.369  11.547
77717W        W46122  44.790   5.140   3.350
77718W        W46123  23.735   4.616   1.114
77719W        W46124  37.408  34.557  10.315
77720W        W46125  41.608  30.905   0.811
77721W        W46126   3.334  33.984  10.496
77722W        W46127  16.607  10.118  14.826
77723W        W46128  18.581  20.723   1.050
77724W        W46129  33.590  24.459   4.660
77725W        W46130   1.936   3.275   5.084
77726W        W46131   6.288  32.969   0.001
77727W        W46132  11.798  24.844  14.385
77728W        W46133  16.621  10.554   4.329
77729W        W46134  21.065   8.209   0.131
77730W        W46135  34.501   7.854   3.804
77731W        W46136   5.805  21.244  11.170
77732W        W46137   0.593  39.951   1.736
77733W        W46138  41.964  26.006  12.561
77734W        W46139  20.731  41.566   1.914
77735W        W46140  32.130   5.006  13.474
77736W        W46141  34.239  24.985   2.398
77737W        W46142   2.949   9.660   2.602
77738W        W46143  44.930  34.614   3.843
77739W        W46144  38.455   0.938  10.548
77740W        W46145  24.218  34.473   4.048
77741W        W46146  27.573   8.937  11.919
77742W        W46147   9.045   2.886  14.260
77743W        W46148  40.915  38.994   0.308
77744W        W46149  16.310   6.758  10.898
77745W        W46150  27.547  16.311   1.219
77746W        W46151  38.398  15.756  13.903
77747W        W46152  31.176  16.686   4.177
77748W        W46153  17.055  34.888  14.704
77749W        W46154  29.665   5.777   4.876
77750W        W46155  16.974  44.434   0.846
77751W        W46156  44.380   2.867   4.970
77752W        W46157  20.679   8.831   3.098
77753W        W46158   5.878  40.208  10.763
77754W        W46159   9.693   3.840   2.176
77755W        W46160  44.268  36.882  14.980
77756W        W46161  39.920   2.359  14.561
77757W        W46162  22.152  22.009   2.331
77758W        W46163  23.555   5.975  14.897
77759W        W46164   6.860   4.756   0.349
77760W        W46165   8.426  10.361   2.440
77761W        W46166  38.320  40.524  13.601
77762W        W46167  43.308  39.063   0.954
77763W        W46168   9.884  27.814  10.493
77764W        W46169  38.288  25.593   4.230
77765W        W46170  32.382  35.463  12.516
77766W        W46171  17.853  44.849  13.814
77767W        W46172  17.781  22.021   9.863
77768W        W46173   4.273  23.057  12.008
77769W        W46174  17.037   7.678   3.395
77770W        W46175   3.871  12.161  11.152
77771W        W46176   3.720   9.758   0.797
77772W        W46177  18.439  34.827   5.112
77773W        W46178  40.120  33.303   0.118
77774W        W46179  23.641  19.390   4.732
77775W        W46180  25.997  43.869  10.690
77776W        W46181  23.333   0.051  14.000
77777W        W46182   1.164  37.746  12.200
77778W        W46183  31.551   0.293   3.539
77779W        W46184  29.491  41.906  13.209
77780W        W46185  12.323   1.976  12.633
77781W        W46186  14.149   3.407  14.402
77782W        W46187  17.814  40.308  12.611
77783W        W46188  34.575  18.563   2.801
77784W        W46189   6.655  36.552   4.590
77785W        W46190  13.388  16.678  13.998
77786W        W46191  11.371   0.581   2.670
77787W        W46192  41.368  38.786   3.351
77788W        W46193   3.648  37.883  14.800
77789W        W46194  40.537  12.486  10.793
77790W        W46195   6.491   8.448   3.692
77791W        W46196  42.171  11.679  14.602
77792W        W46197  19.475  11.903  14.362
77793W        W46198  41.806   4.445   1.864
77794W        W46199  32.919  43.397  13.890
77795W        W46200   2.222   8.333  12.759
77796W        W46201  27.858   3.627  12.075
77797W        W46202  37.499   3.542  11.413
77798W        W46203  30.735  15.121  12.486
77799W        W46204  10.431  17.653  14.837
77800W        W46205  42.877  22.531   0.866
77801W        W46206   7.131  15.214  12.932
77802W        W46207  28.647  44.171  12.011
77803W        W46208  35.357  43.587   0.434
77804W        W46209  10.133   8.414   4.272
77805W        W46210   7.269  32.264   0.383
77806W        W46211  15.593  22.729  11.516
77807W        W46212  31.054  24.260  11.321
77808W        W46213  21.144  28.974   3.649
77809W        W46214  15.718  26.250  12.441
77810W        W46215   7.793  25.040   3.999
77811W        W46216  19.257  43.449   0.547
77812W        W46217  28.402  14.112  13.100
77813W        W46218   3.842  16.866  14.946
77814W        W46219  24.151  33.515  13.539
77815W        W46220   7.732  20.019   2.879
77816W        W46221   6.188  20.832  13.771
77817W        W46222  22.163  15.160   4.016
77818W        W46223  35.942  38.594   4.431
77819W        W46224  19.766  38.184   0.234
77820W        W46225  25.423  27.374  11.252
77821W        W46226  28.246  19.563   0.513
77822W        W46227  12.743  35.391  14.653
77823W        W46228  15.201  22.030   3.691
77824W        W46229   3.939   2.284  12.492
77825W        W46230   8.844  23.314   2.933
77826W        W46231   7.387  37.465  13.132
77827W        W46232  44.413  21.794   0.455
77828W        W46233  24.779   1.964  12.978
77829W        W46234  42.538  24.432   2.139
77830W        W46235   8.421  19.688   2.488
77831W        W46236  43.785  40.046  14.355
77832W        W46237  39.555  39.761   2.808
77833W        W46238  32.489   8.801   3.664
77834W        W46239  19.300  23.626  11.209
77835W        W46240  15.743  35.011  13.143
77836W        W46241  22.469  41.801  10.489
77837W        W46242  22.269  23.343   4.012
77838W        W46243  39.621   7.478  12.825
77839W        W46244   8.728  42.305  11.447
77840W        W46245  25.996   9.187   1.686
77841W        W46246  30.227  40.311  12.215
77842W        W46247  27.234  30.665   3.612
77843W        W46248   9.122  40.919   4.630
77844W        W46249   6.167   6.126  11.183
77845W        W46250  16.603   0.357  11.940
77846W        W46251  31.123  26.954  14.123
77847W        W46252  14.083  20.953   4.929
77848W        W46253   6.258  15.276   3.695
77849W        W46254  23.511  23.736  11.134
77850W        W46255  41.060  35.055   4.291
77851W        W46256  28.448  15.779   0.360
77852W        W46257  33.248   3.547  12.443
77853W        W46258  10.905   7.338  14.272
77854W        W46259  19.817   7.372  10.713
77855W        W46260  26.437   4.413   2.219
77856W        W46261  20.589   9.304   1.351
77857W        W46262  18.663  16.266   0.458
77858W        W46263  39.331  12.364  11.968
77859W        W46264  42.519  23.993   4.282
77860W        W46265  17.357   5.688   3.100
77861W        W46266  17.723  43.799  13.986
77862W        W46267  12.829   9.281  13.631
77863W        W46268  35.291  20.963   3.323
77864W        W46269  35.514  41.527   4.610
77865W        W46270  20.287  15.258   2.114
77866W        W46271  21.490  22.293  13.945
77867W        W46272   4.521   7.887  10.102
77868W        W46273  19.665  40.245  13.591
77869W        W46274  13.745  35.311  14.336
77870W        W46275  20.047   6.781   4.633
77871W        W46276   3.302  16.575   2.465
77872W        W46277  32.672  34.858   2.264
77873W        W46278   1.247   3.494  10.688
77874W        W46279  28.499   7.617   4.593
77875W        W46280  31.099   2.973   0.394
77876W        W46281  35.628  24.707   0.782
77877W        W46282   0.575  44.593  10.626
77878W        W46283   8.720  36.116   1.252
77879W        W46284   6.586  31.856  13.231
77880W        W46285   2.997   3.505  11.315
77881W        W46286   8.272  44.479  13.513
77882W        W46287  36.847  24.712   3.734
77883W        W46288   1.356  39.320   2.415
77884W        W46289  26.780  22.605  13.074
77885W        W46290  12.559  13.514   0.419
77886W        W46291  36.504  33.004  12.656
77887W        W46292   8.368  35.340   0.261
77888W        W46293   8.165   3.809   1.415
77889W        W46294  16.453  35.341  10.989
77890W        W46295  12.104  44.780   2.336
77891W        W46296  26.529  16.343  14.458
77892W        W46297  43.255  23.048  14.527
77893W        W46298  20.801  22.571  11.447
77894W        W46299  21.578   4.757  10.682
77895W        W46300  13.191  16.228  13.817
77896W        W46301   8.385   6.864   0.089
77897W        W46302  30.884   5.046  14.540
77898W        W46303  22.778  31.286   2.265
77899W        W46304   3.208  10.617   2.313
77900W        W46305  35.562  28.156  12.564
77901W        W46306   9.815  23.008  13.399
77902W        W46307   2.971  33.750  11.240
77903W        W46308  28.341  12.839   4.333
77904W        W46309   7.150   8.155  14.763
77905W        W46310   0.749   7.807  12.744
77906W        W46311   2.885  36.126   4.086
77907W        W46312   0.751   0.443  11.553
77908W        W46313  17.679  30.049  13.298
77909W        W46314  32.048  36.502   0.276
77910W        W46315  40.200   2.347   1.934
77911W        W46316  27.135  21.802   3.207
77912W        W46317  30.657  38.320  13.271
77913W        W46318  11.105   2.264  13.678
77914W        W46319   8.674  15.633   4.318
77915W        W46320  15.770   6.001  13.111
77916W        W46321  22.515  10.853   3.840
77917W        W46322  25.774  22.522  11.192
77918W        W46323  28.521  11.836   1.375
77919W        W46324  21.830  26.043   3.384
77920W        W46325  38.128  27.811  13.843
77921W        W46326  37.005  25.310  10.749
77922W        W46327  34.990  30.685  13.956
77923W        W46328  37.977  25.467   1.251
77924W        W46329  26.380  14.546   3.347
77925W        W46330  19.630  15.170  11.151
77926W        W46331  40.470   1.060   2.224
77927W        W46332  37.339  23.583  13.883
77928W        W46333   0.515   0.449   3.267
77929W        W46334  13.691  23.045  10.667
77930W        W46335  21.238  29.965  12.546
77931W        W46336  43.920  27.422   0.010
77932W        W46337  10.198  36.338  13.904
77933W        W46338  23.843  29.993  14.944
77934W        W46339  34.176   1.876  10.698
77935W        W46340  43.728  15.604   2.692
77936W        W46341   0.268  32.868   1.751
77937W        W46342  26.845  16.311   0.756
77938W        W46343  41.597   9.781  10.684
77939W        W46344  12.136   4.367   4.070
77940W        W46345  23.240   5.455   0.719
77941W        W46346  42.369  43.776   2.573
77942W        W46347  32.523  17.657   4.060
77943W        W46348  10.361  15.237  11.937
77944W        W46349  34.339  42.119   0.309
77945W        W46350  30.894  10.668  13.442
77946W        W46351  33.862   0.808   2.301
77947W        W46352  12.156  43.505  12.091
77948W        W46353  16.931   2.632  12.556
77949W        W46354   9.136  26.751   1.601
77950W        W46355   5.404  44.925   3.203
77951W        W46356  13.089  18.249  14.017
77952W        W46357  37.266  32.001   1.303
77953W        W46358  30.581  14.309  14.008
77954W        W46359   0.695  35.371   0.332
77955W        W46360  18.860  29.336   5.207
77956W        W46361  29.474  26.044  14.481
77957W        W46362  12.441   9.353  12.085
77958W        W46363  16.337  35.241   1.220
77959W        W46364   0.490   3.344   2.855
77960W        W46365  28.179   9.063   4.401
77961W        W46366  36.803  37.059   3.457
77962W        W46367  10.678  27.168  13.918
77963W        W46368  22.459   1.826  11.586
77964W        W46369  23.331  16.722   4.207
77965W        W46370  12.681  44.373   4.124
77966W        W46371  17.308  37.139  13.792
77967W        W46372  11.668  12.132  14.857
77968W        W46373   2.024  22.426  13.595
77969W        W46374  26.475  29.036   2.954
77970W        W46375   5.226  23.881   4.530
77971W        W46376  32.825  26.701   1.818
77972W        W46377  40.082  10.219  11.579
77973W        W46378  17.069  17.677  10.943
77974W        W46379  30.947  42.815  14.843
77975W        W46380  28.926   7.912  12.038
77976W        W46381  33.782  18.679   3.575
77977W        W46382   9.460   1.003  12.553
77978W        W46383  32.509  36.371   3.569
77979W        W46384  30.142  14.595  11.787
77980W        W46385  24.230  11.137   1.357
77981W        W46386  11.913  40.480  12.353
77982W        W46387  40.933  31.602  11.407
77983W        W46388  38.407  22.131  11.183
77984W        W46389   6.800  43.346  11.523
77985W        W46390  18.042  29.577  12.057
77986W        W46391   0.387  29.857  11.522
77987W        W46392  27.069  33.337   4.217
77988W        W46393  40.045  18.023   3.740
77989W        W46394   0.699  12.600  12.139
77990W        W46395   5.210  23.530   3.708
77991W        W46396  35.361  38.799  10.708
77992W        W46397   6.462  41.606  14.575
77993W        W46398   2.556  35.872  13.048
77994W        W46399  22.452  25.024   5.044
77995W        W46400  20.279   8.532   3.230
77996W        W46401  18.139   9.669   4.186
77997W        W46402  44.310  29.429  10.944
77998W        W46403   7.128  13.345   3.242
77999W        W46404   6.872  40.215   3.162
78000W        W46405  19.237  14.529   3.727
78001W        W46406  21.249  34.581   4.133
78002W        W46407  36.949  29.380  13.989
78003W        W46408  38.042  29.443   3.622
78004W        W46409  25.269  33.613   4.527
78005W        W46410  19.588   5.816  12.502
78006W        W46411  32.094  15.093  12.560
78007W        W46412  38.301  18.373  10.733
78008W        W46413  26.666  32.814   1.852
78009W        W46414   5.380   3.574   1.352
78010W        W46415  44.804  26.761   1.339
78011W        W46416  18.236  10.355   2.250
78012W        W46417  23.931  35.926  14.069
78013W        W46418   6.683  24.867   3.160
78014W        W46419  23.002   6.162  10.519
78015W        W46420  35.764  22.505   1.296
78016W        W46421  28.914  25.460  11.196
78017W        W46422   5.671   9.403   0.136
78018W        W46423  20.253  40.050   4.325
78019W        W46424  11.659  40.799   0.495
78020W        W46425  14.064   3.494  13.495
78021W        W46426   4.305  38.531  12.050
78022W        W46427   3.245  27.122  14.407
78023W        W46428   3.272   5.509   0.459
78024W        W46429  36.807  31.412   1.895
78025W        W46430  43.010  33.581   1.287
78026W        W46431  39.486   6.747  11.299
78027W        W46432  19.829  39.600  11.143
78028W        W46433  34.991  35.671   0.297
78029W        W46434  21.030  25.025  11.753
78030W        W46435  22.099   3.231  10.654
78031W        W46436  15.212   3.834   0.703
78032W        W46437  34.471  29.797   4.830
78033W        W46438  29.979  10.337  10.344
78034W        W46439  40.637  12.216   2.763
78035W        W46440  20.169  13.710   1.217
78036W        W46441   8.834  41.192  13.952
78037W        W46442  27.448   9.004   3.323
78038W        W46443  32.908  42.540   2.298
78039W        W46444  43.892  29.140  10.803
78040W        W46445  35.696   7.908   2.216
78041W        W46446  31.516  19.566   2.339
78042W        W46447  21.122  16.103  11.549
78043W        W46448  13.798  42.802   2.352
78044W        W46449  35.138  14.631  10.745
78045W        W46450  33.033  18.770  10.586
78046W        W46451   4.011   7.550   5.250
78047W        W46452  18.023  40.895  10.639
78048W        W46453   8.706  40.249   2.670
78049W        W46454   9.133  20.383   4.576
78050W        W46455  38.452  25.039   0.082
78051W        W46456  44.959   4.200   1.303
78052W        W46457  18.948   6.053  10.339
78053W        W46458  43.388  29.098   1.815
78054W        W46459  40.112   9.286  13.254
78055W        W46460  40.971   7.193  12.340
78056W        W46461  31.591   2.724   4.202
78057W        W46462  17.013  11.347   5.031
78058W        W46463   4.446  34.430   3.892
78059W        W46464  10.392  44.564  12.933
78060W        W46465  18.168  27.890  14.361
78061W        W46466   2.680  29.201  11.144
78062W        W46467  12.281  16.622   4.527
78063W        W46468   5.428  21.934  11.583
78064W        W46469  20.700  29.195   3.851
78065W        W46470  10.587  42.942  13.357
78066W        W46471  32.990  40.558  12.433
78067W        W46472  42.175  29.644   2.622
78068W        W46473   5.104  19.332   1.567
78069W        W46474  38.694  35.506   0.417
78070W        W46475  11.304  31.509  11.066
78071W        W46476  23.540   4.229   1.401
78072W        W46477  36.290  14.549  13.647
78073W        W46478  43.499   0.354  11.994
78074W        W46479  32.534  31.026  12.504
78075W        W46480  21.223  41.226  12.033
78076W        W46481  37.048  43.361   1.413
78077W        W46482  34.451  36.053   1.813
78078W        W46483  40.027  32.395   2.910
78079W        W46484  33.564  40.567  12.508
78080W        W46485  20.498  33.500   1.449
78081W        W46486  40.008  17.330   0.279
78082W        W46487  12.057  24.483   4.441
78083W        W46488  35.373  13.495   1.488
78084W        W46489   7.333  44.152  11.086
78085W        W46490   0.811   6.479  12.906
78086W        W46491   8.683   5.477   3.388
78087W        W46492  13.181  24.732  14.192
78088W        W46493   5.792  32.437  14.858
78089W        W46494  19.849  23.164   3.634
78090W        W46495   1.215  15.219   1.752
78091W        W46496  15.129  17.531  14.380
78092W        W46497  19.119  34.661   2.725
78093W        W46498  32.259  37.530   1.140
78094W        W46499  10.371  27.429  11.720
78095W        W46500  39.267  14.802   4.535
78096W        W46501  22.186  25.233  12.955
78097W        W46502  19.078  38.838   1.505
78098W        W46503   2.756  17.974   0.427
78099W        W46504   9.700   0.682   1.746
78100W        W46505  10.122  38.540  14.202
78101W        W46506  30.506   6.711  10.625
78102W        W46507  32.978  36.898   2.495
78103W        W46508  44.724  31.188   1.846
78104W        W46509  24.016  19.710   1.912
78105W        W46510   2.378   2.971   0.889
78106W        W46511  38.545  33.401  12.937
78107W        W46512  44.165   0.333  10.020
78108W        W46513  10.862   7.247   4.129
78109W        W46514  11.693  40.727   4.394
78110W        W46515  15.627  11.700  12.554
78111W        W46516  37.397  25.946   2.245
78112W        W46517  30.537  24.942  14.925
78113W        W46518  36.158  12.402   3.652
78114W        W46519  11.251  11.256   4.611
78115W        W46520  38.789  33.897  12.957
78116W        W46521  37.584  29.400   0.762
78117W        W46522  12.340  31.989  10.088
78118W        W46523   3.051  42.271   2.174
78119W        W46524   1.156  15.100  11.072
78120W        W46525  24.129  19.100   2.280
78121W        W46526  23.963  12.050   1.435
78122W        W46527  41.317  39.275  12.416
78123W        W46528   2.781   1.886  10.738
78124W        W46529  44.755   0.537   0.746
78125W        W46530  26.998  21.992  11.629
78126W        W46531  41.077  43.027  14.850
78127W        W46532  12.793  13.873  12.599
78128W        W46533   2.702  40.311  11.082
78129W        W46534  19.684  31.923   0.985
78130W        W46535  23.288  30.611   2.378
78131W        W46536  44.132  24.730   9.903
78132W        W46537  30.915   8.774  11.544
78133W        W46538  15.253  38.868   0.864
78134W        W46539  41.226  27.111  12.923
78135W        W46540  31.295  26.609   2.760
78136W        W46541  16.000  44.052  10.381
78137W        W46542  44.450  31.066   2.318
78138W        W46543  30.919   5.590   2.835
78139W        W46544  31.163   4.130  14.519
78140W        W46545  34.029  28.479  11.736
78141W        W46546   5.315  36.677  11.764
78142W        W46547   8.056  20.477   0.473
78143W        W46548  28.831  32.899   2.671
78144W        W46549  38.128   7.710   2.234
78145W        W46550  44.886   2.660  11.069
78146W        W46551  14.091  39.260   1.368
78147W        W46552  43.377  18.073   4.667
78148W        W46553   0.868  24.564  12.693
78149W        W46554  29.783  41.259   5.365
78150W        W46555  30.407  13.445   1.708
78151W        W46556  26.061  43.380  13.223
78152W        W46557   6.323  33.827  11.078
78153W        W46558  42.526  22.305  13.913
78154W        W46559   8.772  34.345  12.619
78155W        W46560  23.444  40.483   3.966
78156W        W46561  14.562   6.210   0.293
78157W        W46562   1.693   2.030  12.429
78158W        W46563  22.967   7.682  10.663
78159W        W46564  10.926  31.155   1.449
78160W        W46565  19.433   0.963   4.678
78161W        W46566   4.158  28.157  11.153
78162W        W46567  19.088  15.900  14.629
78163W        W46568  37.590  14.601  11.576
78164W        W46569  22.029  17.244   1.053
78165W        W46570   0.000  33.670  11.662
78166W        W46571  44.737  44.053  14.596
78167W        W46572   7.659  41.120   1.564
78168W        W46573  41.885  30.683  12.044
78169W        W46574  29.911  11.889  12.239
78170W        W46575  13.237   4.930  12.122
78171W        W46576  23.194  21.580   2.768
78172W        W46577  26.247  29.859   3.622
78173W        W46578  31.033   7.799  13.410
78174W        W46579  27.961  27.450  12.046
78175W        W46580  38.110  25.739  14.174
78176W        W46581  41.821  33.157  11.999
78177W        W46582  22.302  25.147  14.948
78178W        W46583   0.011  34.546   0.886
78179W        W46584   5.631   3.292  14.363
78180W        W46585  20.084  18.572  14.359
78181W        W46586   7.440  20.295  12.710
78182W        W46587   4.537   7.649  14.379
78183W        W46588  14.329   1.955   0.490
78184W        W46589  27.043  17.215   2.212
78185W        W46590   4.148  19.475  13.936
78186W        W46591  39.518  26.022  13.093
78187W        W46592  30.552  32.350  11.148
78188W        W46593  25.152  39.451  10.714
78189W        W46594  17.039  10.857  13.314
78190W        W46595  33.901   7.788  12.548
78191W        W46596   0.115  37.021  12.062
78192W        W46597   7.672  27.415  14.376
78193W        W46598  28.138  40.312   3.202
78194W        W46599  10.142  31.619   1.662
78195W        W46600  28.120  39.458   4.730
78196W        W46601  16.328  39.916  11.240
78197W        W46602  17.269  41.720   4.298
78198W        W46603  38.073  15.331   4.985
78199W        W46604  11.407  44.275   0.442
78200W        W46605  36.018   4.001  14.951
78201W        W46606  22.923  44.498  12.531
78202W        W46607  34.514  26.178  14.716
78203W        W46608  38.425  23.205  14.419
78204W        W46609  27.637  11.736  14.567
78205W        W46610   3.830  37.799   5.020
78206W        W46611  18.073  42.048  11.953
78207W        W46612  33.378  19.275   1.914
78208W        W46613  19.711  19.528   3.708
78209W        W46614  20.603   4.683   4.700
78210W        W46615   1.904   3.838  12.369
78211W        W46616  35.952  19.696  14.752
78212W        W46617  27.002  41.811   4.261
78213W        W46618  16.692  36.638   3.706
78214W        W46619  40.397  20.562   3.636
78215W        W46620  44.630  37.593   0.748
78216W        W46621  17.768  35.973  13.873
78217W        W46622   2.318  23.652   2.120
78218W        W46623  27.448   1.913  13.783
78219W        W46624  37.390   4.771  13.439
78220W        W46625  30.104  16.824   3.152
78221W        W46626  15.809  11.366   3.192
78222W        W46627  39.285  22.639   1.913
78223W        W46628  17.648   4.203   3.737
78224W        W46629  31.786   6.320  10.670
78225W        W46630  35.877   2.272   3.976
78226W        W46631  35.058  34.805   0.732
78227W        W46632  38.518   8.874  14.869
78228W        W46633   6.247  18.575  11.410
78229W        W46634  22.403   3.837  11.130
78230W        W46635   1.227   9.784   2.445
78231W        W46636  44.474  34.805   3.714
78232W        W46637  19.058  34.398  10.508
78233W        W46638  17.646  17.172   0.982
78234W        W46639   6.789  41.853  14.266
78235W        W46640  23.394  30.247  14.909
78236W        W46641  34.444  15.224  14.219
78237W        W46642  24.477  23.078  12.246
78238W        W46643  12.578   1.407  14.431
78239W        W46644  17.637   1.164   2.843
78240W        W46645  25.218  13.653  13.887
78241W        W46646   0.731  23.553   3.296
78242W        W46647  21.163  34.250   4.692
78243W        W46648  29.676   3.425   4.532
78244W        W46649  27.028  36.504   1.918
78245W        W46650  18.084  32.659  14.703
78246W        W46651  27.425  22.201   2.734
78247W        W46652   2.542   6.583   2.197
78248W        W46653   4.126  25.682  12.532
78249W        W46654  12.429  40.304   0.967
78250W        W46655  10.420  36.078   2.486
78251W        W46656  44.271   1.269   2.268
78252W        W46657   7.124  16.661   3.069
78253W        W46658  30.721  15.193   1.327
78254W        W46659  20.479  39.996   2.233
78255W        W46660   8.422  34.763   1.440
78256W        W46661  43.342  25.678  12.530
78257W        W46662  42.275  39.884  14.718
78258W        W46663  21.751  14.144  12.915
78259W        W46664   4.245  15.567   1.397
78260W        W46665  11.350  33.432  11.508
78261W        W46666  40.874   3.986   0.983
78262W        W46667  36.590  17.620  14.369
78263W        W46668  13.226  15.791   2.884
78264W        W46669   2.967  14.108  14.187
78265W        W46670  28.983  16.519   4.224
78266W        W46671  13.774   1.729   1.729
78267W        W46672  14.772  26.933   4.642
78268W        W46673   9.544  44.929  12.484
78269W        W46674  41.142   2.797  10.288
78270W        W46675   7.605  43.098   5.026
78271W        W46676  31.819  34.902  13.854
78272W        W46677  43.867   7.329  13.341
78273W        W46678  23.027  24.089   3.634
78274W        W46679  35.607  35.108   0.476
78275W        W46680  31.537  23.144   1.408
78276W        W46681  38.751  26.679   5.124
78277W        W46682   7.435  42.042   2.229
78278W        W46683  40.112   9.725  13.525
78279W        W46684   3.085  20.829  14.391
78280W        W46685  26.259  19.575  11.120
78281W        W46686  36.564  10.368   0.172
78282W        W46687  11.084   0.962   1.018
78283W        W46688  27.320  23.187  12.563
78284W        W46689  38.801  41.686   2.620
78285W        W46690  31.064   3.256   9.948
78286W        W46691   1.088   4.850  10.430
78287W        W46692  43.800  30.599  14.215
78288W        W46693  22.803  15.642   4.389
78289W        W46694  13.307  40.297   0.013
78290W        W46695  19.772  12.925  14.392
78291W        W46696  33.299  32.131   3.723
78292W        W46697   6.484  23.125   1.707
78293W        W46698  17.688  16.507  14.296
78294W        W46699  43.300  28.967   4.205
78295W        W46700   7.890   2.960   0.934
78296W        W46701  43.931   1.461   4.023
78297W        W46702  14.756  19.762  10.568
78298W        W46703   0.572  14.446   0.323
78299W        W46704   6.309   5.521   0.857
78300W        W46705  37.932  32.005  12.859
78301W        W46706  30.487  37.575  11.237
78302W        W46707  15.746  31.833  13.550
78303W        W46708  22.568  15.349  13.872
78304W        W46709  24.625   6.251   4.111
78305W        W46710   4.638  29.588  10.665
78306W        W46711  28.965   0.237  14.314
78307W        W46712   6.736  37.671  12.002
78308W        W46713   4.264  30.899  13.997
78309W        W46714  38.871   3.456   9.784
78310W        W46715  40.574   9.364   4.677
78311W        W46716  28.113  25.272  12.416
78312W        W46717  40.865  11.359  13.711
78313W        W46718  14.263  18.566  12.954
78314W        W46719  36.324  38.354  13.723
78315W        W46720  12.249   1.914   1.634
78316W        W46721   3.268  25.708  11.626
78317W        W46722  15.301   5.093   0.785
78318W        W46723  28.043  15.834  12.104
78319W        W46724  24.143  39.167  12.194
78320W        W46725  40.017  20.582  13.269
78321W        W46726  13.846  38.971  11.718
78322W        W46727  42.007  22.098   2.276
78323W        W46728   7.467  12.209  12.541
78324W        W46729  35.611  26.936  14.841
78325W        W46730  43.802  35.282   1.049
78326W        W46731  10.807  27.695   3.411
78327W        W46732  27.418  17.336  13.546
78328W        W46733  26.091  36.105   3.715
78329W        W46734   7.353  26.241   3.378
78330W        W46735   6.313   5.457   1.830
78331W        W46736   3.213  19.701  10.574
78332W        W46737  20.061  22.777   3.197
78333W        W46738  23.130  12.434  13.192
78334W        W46739  28.578   7.978   1.851
78335W        W46740  22.449   5.207  14.851
78336W        W46741  20.150  35.268   1.371
78337W        W46742  36.254  37.986   0.875
78338W        W46743  13.101  43.378  13.218
78339W        W46744  17.519  30.096   3.388
78340W        W46745   8.814  16.025  11.764
78341W        W46746  15.705  26.060  10.382
78342W        W46747  24.114  28.962   5.097
78343W        W46748  31.546  35.774  12.897
78344W        W46749  24.006  23.995   2.757
78345W        W46750  35.541   3.952   2.173
78346W        W46751  39.997  37.388  13.237
78347W        W46752  13.363   7.819   4.541
78348W        W46753  21.987  24.478   2.257
78349W        W46754  40.427   1.963  10.619
78350W        W46755  33.552   5.535  11.623
78351W        W46756  19.715  22.895  12.555
78352W        W46757   0.964  26.749   0.656
78353W        W46758   2.918  31.544  13.425
78354W        W46759  28.098  39.268   1.840
78355W        W46760   9.718   6.877  12.851
78356W        W46761  28.536  31.984   2.775
78357W        W46762  29.671  30.181  13.534
78358W        W46763  17.533  22.099  11.078
78359W        W46764  39.550  36.451   2.962
78360W        W46765  19.060  39.346  11.362
78361W        W46766   7.731  27.400  11.117
78362W        W46767   1.193   5.283  10.146
78363W        W46768  34.088  27.668   3.239
78364W        W46769  20.501  26.197   0.716
78365W        W46770  10.668  20.555   4.958
78366W        W46771  12.256  41.843  13.614
78367W        W46772  18.535  42.407   3.077
78368W        W46773  42.787  12.748   0.297
78369W        W46774  33.789  21.124  10.190
78370W        W46775  31.366  42.437  13.511
78371W        W46776  40.091   2.839   1.774
78372W        W46777  26.252  27.490  10.738
78373W        W46778  30.920  43.451  11.143
78374W        W46779   7.869   7.553   4.131
78375W        W46780  36.633  19.530   0.323
78376W        W46781  35.879  31.232  14.726
78377W        W46782   5.004  29.724  12.325
78378W        W46783   0.524  42.424   4.576
78379W        W46784  36.179   4.381   1.451
78380W        W46785  37.444  17.995  13.095
78381W        W46786   5.660  39.398   4.218
78382W        W46787   6.337  11.327  11.582
78383W        W46788  28.637  30.963   4.445
78384W        W46789  13.160  28.268  10.683
78385W        W46790   0.221  14.068   3.954
78386W        W46791  16.573  27.465  10.672
78387W        W46792  35.350   9.680  14.256
78388W        W46793  13.683  35.679   3.146
78389W        W46794  18.274  44.477  10.258
78390W        W46795  16.654  23.453   4.141
78391W        W46796  17.742  17.265   1.909
78392W        W46797   6.107   6.622  14.522
78393W        W46798  16.781   0.948  13.943
78394W        W46799  19.570   6.608  14.950
78395W        W46800  26.900  13.301   3.883
78396W        W46801   0.524  44.836  13.846
78397W        W46802  31.960  23.243   1.711
78398W        W46803  35.682   7.730   4.588
78399W        W46804  15.607   9.505   5.013
78400W        W46805  44.868   6.565  12.478
78401W        W46806  30.977  23.671   0.956
78402W        W46807  38.399  21.224  13.104
78403W        W46808  20.099  15.106   4.386
78404W        W46809  23.953  24.125   1.787
78405W        W46810  41.043   8.231   4.294
78406W        W46811  12.758   7.308  14.276
78407W        W46812  21.518  13.639   0.945
78408W        W46813   9.448  44.506  14.811
78409W        W46814  14.142  20.711   4.177
78410W        W46815  25.639  20.565  12.373
78411W        W46816  17.773  26.685   3.190
78412W        W46817  17.077  35.694  11.448
78413W        W46818   0.538  31.504   2.789
78414W        W46819  15.605  11.583   0.236
78415W        W46820  41.492  34.508  12.946
78416W        W46821  32.505   7.967   4.144
78417W        W46822   9.200  41.455  13.369
78418W        W46823   0.351  34.394   0.302
78419W        W46824  26.401  31.043  14.166
78420W        W46825  24.629   9.794   2.129
78421W        W46826  19.811  34.008  12.293
78422W        W46827  23.027  29.161  12.869
78423W        W46828  38.994  21.739  13.088
78424W        W46829  10.768  13.263   0.094
78425W        W46830  33.246   1.695  14.821
78426W        W46831   7.919  35.956   4.258
78427W        W46832  19.652   6.102   2.135
78428W        W46833  11.647  43.561  12.976
78429W        W46834  10.587   4.327  13.812
78430W        W46835  31.927   9.284  11.676
78431W        W46836  10.372   0.564  12.734
78432W        W46837  26.257   3.175   1.016
78433W        W46838   8.680  38.604  11.158
78434W        W46839  24.245   9.374   4.805
78435W        W46840  17.579  23.143   3.693
78436W        W46841  19.017  30.339   2.351
78437W        W46842  38.507  44.759   2.359
78438W        W46843  29.074  19.968   2.732
78439W        W46844  39.183  28.405  12.193
78440W        W46845  23.204  23.207  11.547
78441W        W46846  40.631  15.791   0.931
78442W        W46847  19.939  19.844  14.713
78443W        W46848  28.395   6.772   0.468
78444W        W46849  42.496  15.581  12.984
78445W        W46850  31.012  27.098  13.643
78446W        W46851   9.382  11.749  13.346
78447W        W46852  17.052  28.732  12.575
78448W        W46853  12.039   9.892  10.393
78449W        W46854   1.490  15.631  11.530
78450W        W46855   3.918  38.412  13.389
78451W        W46856  32.311   1.798  11.033
78452W        W46857  23.586  20.237   1.669
78453W        W46858  16.268  18.580  14.339
78454W        W46859  14.764  21.469   2.654
78455W        W46860  27.104  31.982   4.643
78456W        W46861  14.648  24.008  12.183
78457W        W46862  42.783   3.494  13.683
78458W        W46863   9.396  26.255  13.994
78459W        W46864  12.850  34.870  11.881
78460W        W46865  26.013  17.396   3.959
78461W        W46866   3.914  42.711  13.857
78462W        W46867  41.020  40.888   3.314
78463W        W46868  17.331  15.819  13.928
78464W        W46869  37.330  26.286   1.873
78465W        W46870  36.485   8.563  13.977
78466W        W46871   1.713  19.843  14.262
78467W        W46872  10.221  23.436  12.503
78468W        W46873  13.828  13.704   2.821
78469W        W46874   8.866  10.323   4.110
78470W        W46875  19.200   1.431  11.498
78471W        W46876  26.480   9.626  12.459
78472W        W46877  25.921   5.372  14.161
78473W        W46878  23.552  16.015   1.455
78474W        W46879   1.853  30.848  11.833
78475W        W46880  35.861   7.617  11.181
78476W        W46881   5.411  20.242   4.389
78477W        W46882  22.807  33.082  13.918
78478W        W46883   8.555  15.734   0.933
78479W        W46884  43.078  38.289  12.811
78480W        W46885  24.248  42.865  13.255
78481W        W46886  17.011  25.584  14.295
78482W        W46887  24.723  10.314  11.675
78483W        W46888   1.060  30.163  14.004
78484W        W46889   2.988  29.405   2.297
78485W        W46890  36.532   7.232  11.550
78486W        W46891   9.310   8.256  14.016
78487W        W46892  29.996  26.496   1.762
78488W        W46893  41.904   8.051  12.143
78489W        W46894  14.127  36.298  11.941
78490W        W46895  26.466   9.623  10.790
78491W        W46896   9.630  21.528  13.248
78492W        W46897   6.510  25.333   4.988
78493W        W46898  22.108   8.763  14.866
78494W        W46899  18.779   3.700  11.575
78495W        W46900   6.920   1.302   0.958
78496W        W46901  35.012  19.711   4.469
78497W        W46902  29.450  19.511   2.908
78498W        W46903  32.858  38.999  11.547
78499W        W46904   5.282  11.803   1.355
78500W        W46905  27.012   3.700  13.068
78501W        W46906  24.197   3.747   4.164
78502W        W46907  13.988  31.168  14.194
78503W        W46908  25.347  23.560  13.375
78504W        W46909   6.655  29.580  13.506
78505W        W46910  30.277  21.802  14.410
78506W        W46911  28.671  12.579  11.052
78507W        W46912  40.019  34.529   0.468
78508W        W46913  35.324  27.530  11.864
78509W        W46914  41.949  43.923   0.008
78510W        W46915  20.305   3.884  12.450
78511W        W46916  37.495  24.418   0.760
78512W        W46917  17.080  37.790  14.480
78513W        W46918  40.593   4.958  14.866
78514W        W46919  44.977  28.584   4.161
78515W        W46920  19.701  25.107  10.703
78516W        W46921  32.991  39.006   3.875
78517W        W46922  27.528  27.767  11.984
78518W        W46923   1.812  35.209   3.082
78519W        W46924   9.001  40.958  11.138
78520W        W46925  14.778  14.174  13.515
78521W        W46926  35.287  22.200  13.593
78522W        W46927  42.592  42.418   0.379
78523W        W46928  27.911  13.231   2.798
78524W        W46929  14.825  36.817  14.954
78525W        W46930  36.447  40.401   4.600
78526W        W46931   9.637  34.359   1.022
78527W        W46932  34.830   2.473  12.574
78528W        W46933  44.331  10.569  13.580
78529W        W46934  30.036  40.070  13.466
78530W        W46935   2.612  41.266   4.010
78531W        W46936   6.208  33.933   1.168
78532W        W46937  32.259  20.539  11.131
78533W        W46938  39.059   3.745   1.771
78534W        W46939  35.964  43.551   2.491
78535W        W46940  32.781  21.660  14.283
78536W        W46941  25.046  13.161   2.679
78537W        W46942  44.575   9.793  10.716
78538W        W46943  10.395  28.594  12.499
78539W        W46944  10.149  27.049   5.338
78540W        W46945  24.607   6.926  11.615
78541W        W46946  39.838  20.232  12.959
78542W        W46947   9.370  10.135   0.421
78543W        W46948  35.612  12.172   4.506
78544W        W46949  39.151  38.895  13.941
78545W        W46950  18.676  42.200   1.708
78546W        W46951  34.138  24.846   2.896
78547W        W46952  10.735  13.517   3.714
78548W        W46953   7.436   6.804  12.056
78549W        W46954   3.881  14.637   2.166
78550W        W46955  38.367  41.443   2.888
78551W        W46956  22.054  37.635   1.525
78552W        W46957  14.745  42.235   4.650
78553W        W46958  43.312  33.124  14.584
78554W        W46959  25.656   9.822   3.300
78555W        W46960   6.897  40.750   1.382
78556W        W46961  21.298  38.085  14.773
78557W        W46962   6.844  36.838   4.191
78558W        W46963   0.946  32.200  14.964
78559W        W46964   9.193   2.416   2.594
78560W        W46965  25.775   3.853  12.560
78561W        W46966   9.009  32.960  10.574
78562W        W46967   6.239  30.204  11.068
78563W        W46968   4.320  44.664   0.039
78564W        W46969   7.016  34.029   1.631
78565W        W46970  15.564   9.585   1.902
78566W        W46971  20.082  41.238   1.363
78567W        W46972  43.012  25.065  12.016
78568W        W46973  17.703  40.062   1.721
78569W        W46974  27.235  15.068  11.874
78570W        W46975   4.686  31.689  11.629
78571W        W46976  12.729  42.503   3.842
78572W        W46977  11.286  28.601   4.548
78573W        W46978   4.365  35.309   1.380
78574W        W46979  30.647  18.581   2.589
78575W        W46980  40.280  29.970   4.890
78576W        W46981  15.866  37.870   0.024
78577W        W46982  15.760  40.448   2.679
78578W        W46983  15.445  19.305  10.016
78579W        W46984  28.171  24.248  11.710
78580W        W46985  16.470  21.184   1.827
78581W        W46986  12.193  41.283   2.671
78582W        W46987  21.479  39.595  10.689
78583W        W46988  29.271  14.632  11.934
78584W        W46989   1.893  22.276   2.887
78585W        W46990  25.823  23.965   4.584
78586W        W46991  36.085  25.524  14.959
78587W        W46992  25.579   2.690  10.677
78588W        W46993   0.547   3.827   1.716
78589W        W46994  37.891  16.658  14.597
78590W        W46995  39.980  16.350  12.208
78591W        W46996  11.720  39.263  14.460
78592W        W46997  27.499  16.787   1.422
78593W        W46998  35.043  41.088  12.113
78594W        W46999  43.936  28.458   3.576
78595W        W47000  35.935  29.593  11.522
78596W        W47001  30.994  26.626   1.376
78597W        W47002  38.676  43.372  10.684
78598W        W47003  37.656  19.623   2.326
78599W        W47004  29.626  31.247  14.367
78600W        W47005  32.843  36.688   3.807
78601W        W47006  15.137  16.852  11.614
78602W        W47007   5.308  24.453   3.650
78603W        W47008  42.455  31.595  14.385
78604W        W47009   3.201  10.201  10.633
78605W        W47010   9.314  33.481   3.228
78606W        W47011  38.314   2.169   1.683
78607W        W47012  13.312   0.258   4.758
78608W        W47013   0.176  18.525   4.190
78609W        W47014   3.166  24.252  14.778
78610W        W47015   2.382   4.473   3.092
78611W        W47016  37.720   8.768   1.475
78612W        W47017  44.860  21.308   3.100
78613W        W47018  22.579   2.441  14.532
78614W        W47019   6.210  26.795  11.153
78615W        W47020  10.644  27.906  13.404
78616W        W47021  39.036  43.009  10.788
78617W        W47022  13.561  37.104  11.069
78618W        W47023  13.148  24.891   3.202
78619W        W47024  21.015  24.604  11.003
78620W        W47025   3.864  13.536   3.190
78621W        W47026  28.900  43.396   5.543
78622W        W47027  38.385  16.322   0.297
78623W        W47028  28.024   0.117  13.975
78624W        W47029  10.202   6.774   4.656
78625W        W47030  33.015  39.806   4.442
78626W        W47031  36.131  25.595   4.783
78627W        W47032  33.234  22.658  11.990
78628W        W47033  39.845  16.699   2.934
78629W        W47034  42.446  21.726   1.259
78630W        W47035   2.889  40.976   1.394
78631W        W47036   5.327  25.068  11.855
78632W        W47037  28.996   2.120   1.287
78633W        W47038  33.469  21.557  14.885
78634W        W47039  33.462  30.163  12.363
78635W        W47040   8.416  28.531   3.801
78636W        W47041  11.279  17.494  12.440
78637W        W47042  32.356  25.570   4.048
78638W        W47043   7.218   9.600   4.248
78639W        W47044   6.598  18.774  11.865
78640W        W47045  43.313  24.638   2.467
78641W        W47046  15.108  34.097   2.687
78642W        W47047   3.733  27.057   2.008
78643W        W47048  14.060  30.676  13.836
78644W        W47049   6.326  44.853   4.547
78645W        W47050   1.909  33.572  11.263
78646W        W47051  43.688  23.139  14.275
78647W        W47052  12.692  32.009   3.766
78648W        W47053   3.669  32.662  13.484
78649W        W47054  38.801  41.477  13.435
78650W        W47055  15.387  44.404  11.199
78651W        W47056  36.297   8.850   0.293
78652W        W47057  29.113  42.180  12.278
78653W        W47058  23.783  16.661  14.462
78654W        W47059  25.686   9.022   3.711
78655W        W47060  12.764  28.091  13.689
78656W        W47061   3.449   9.363   1.890
78657W        W47062   8.945  36.900   2.210
78658W        W47063   0.930  42.085   4.535
78659W        W47064  29.727  33.386  14.965
78660W        W47065  41.749  34.154   1.881
78661W        W47066  11.852   0.958  13.053
78662W        W47067  44.521   1.937  14.739
78663W        W47068   0.497  37.434   4.732
78664W        W47069  24.279  30.625   3.143
78665W        W47070  12.561  24.373   3.678
78666W        W47071  28.844   9.351  12.051
78667W        W47072  12.318  30.129   9.421
78668W        W47073  32.878   1.109  13.880
78669W        W47074  14.168  11.916  12.416
78670W        W47075  27.999  27.688   0.870
78671W        W47076   9.527  36.881   1.396
78672W        W47077  13.080  38.098  13.051
78673W        W47078   4.807   7.884  12.868
78674W        W47079   8.110  23.512   2.220
78675W        W47080  18.868  29.702  12.447
78676W        W47081  15.157   9.421  12.537
78677W        W47082  29.817  16.302  12.642
78678W        W47083  24.100   2.428  13.444
78679W        W47084  27.606   5.760  11.510
78680W        W47085  15.533  41.717  13.954
78681W        W47086  10.680   6.948   2.786
78682W        W47087  11.635  29.280   0.166
78683W        W47088  36.588   4.491   0.363
78684W        W47089  40.952  32.813   3.147
78685W        W47090  35.787  42.814   1.418
78686W        W47091  21.269  40.816  11.402
78687W        W47092  21.054  29.896  14.703
78688W        W47093   5.986   5.536  10.571
78689W        W47094  31.909  27.401  10.764
78690W        W47095  39.882  32.097   4.808
78691W        W47096  31.531  17.598  13.772
78692W        W47097  18.832  24.718   3.628
78693W        W47098   2.681  20.014   2.200
78694W        W47099  35.587  39.960   4.880
78695W        W47100  38.598  18.858   2.806
78696W        W47101   1.717   4.313  12.490
78697W        W47102   6.350  36.527  13.580
78698W        W47103  39.275  35.042  14.792
78699W        W47104  13.080  39.331  11.621
78700W        W47105   0.334  19.056   4.900
78701W        W47106   8.993  42.999   0.893
78702W        W47107  14.250   1.677   3.557
78703W        W47108  32.173  35.735   4.124
78704W        W47109   1.265  27.882   1.865
78705W        W47110   9.818  42.054   4.011
78706W        W47111  32.680   6.314  11.685
78707W        W47112  31.093  27.862   2.736
78708W        W47113   0.283  30.183   4.534
78709W        W47114   9.957  13.986  11.598
78710W        W47115  43.906  29.861   3.053
78711W        W47116  21.198  16.101  13.466
78712W        W47117   7.225  19.559   3.378
78713W        W47118  25.081  40.924  12.479
78714W        W47119  14.780  43.350   1.502
78715W        W47120  41.005   6.420  12.403
78716W        W47121  20.748  44.365  10.464
78717W        W47122  12.589  24.130  11.147
78718W        W47123  32.174  18.105   1.716
78719W        W47124   3.792  39.289   4.573
78720W        W47125  19.159  20.959   3.356
78721W        W47126   4.741  42.366  12.994
78722W        W47127  29.859  15.777  14.722
78723W        W47128   5.762  18.149   1.815
78724W        W47129  26.321  32.222  14.810
78725W        W47130  19.740   8.829  11.177
78726W        W47131   9.269   1.985   1.771
78727W        W47132  21.099   5.914   0.702
78728W        W47133   9.928  31.519   2.147
78729W        W47134  13.583  32.326   1.916
78730W        W47135  42.478   3.261   0.753
78731W        W47136  22.637  35.914   0.263
78732W        W47137  10.701  37.559   1.575
78733W        W47138  39.375  23.000   4.611
78734W        W47139   7.221  35.449   0.738
78735W        W47140   8.905  40.340   0.713
78736W        W47141  36.608  39.396  10.890
78737W        W47142  27.230  43.016   4.515
78738W        W47143  17.852  16.542  11.206
78739W        W47144   0.425  25.510  14.568
78740W        W47145  34.184  40.333  11.522
78741W        W47146   5.516  13.954   0.653
78742W        W47147   4.322  30.429   0.821
78743W        W47148   9.441   1.745   2.588
78744W        W47149  12.338  39.006   4.897
78745W        W47150  27.911  14.100   2.654
78746W        W47151  35.514  20.668   2.769
78747W        W47152  39.999  12.766   0.926
78748W        W47153  42.481  16.074  12.843
78749W        W47154  32.023  31.814  12.841
78750W        W47155  40.929  11.072   3.559
78751W        W47156  44.254  30.834   0.516
78752W        W47157  24.740   2.335   1.329
78753W        W47158  14.139  22.515   4.567
78754W        W47159  17.740  17.039  13.354
78755W        W47160   8.668   4.776  12.127
78756W        W47161  28.557  35.607   2.348
78757W        W47162  44.899   7.151   3.312
78758W        W47163  11.393   0.554  10.554
78759W        W47164  26.610  44.061  13.271
78760W        W47165   8.480  40.556   0.377
78761W        W47166   0.346   9.172  10.652
78762W        W47167  20.895   4.769  14.881
78763W        W47168   5.902  23.750  13.018
78764W        W47169   5.143   8.595  10.731
78765W        W47170  10.755  31.110  14.295
78766W        W47171   5.935  35.858   3.768
78767W        W47172  11.401  44.624  14.203
78768W        W47173  14.918  34.906   0.734
78769W        W47174  14.086  24.747   1.852
78770W        W47175  24.206   2.176   1.326
78771W        W47176   0.315  23.657   3.634
78772W        W47177  27.404  27.854  14.784
78773W        W47178  20.716  43.839  13.517
78774W        W47179  23.738  35.864   1.006
78775W        W47180  28.377  34.500   3.630
78776W        W47181  23.760  26.636  11.543
78777W        W47182  30.716  44.528   4.412
78778W        W47183   3.801   4.652   2.911
78779W        W47184   7.871  25.587   1.304
78780W        W47185  21.226  43.688   4.576
78781W        W47186  32.607  43.805   0.997
78782W        W47187  34.090  19.548   1.313
78783W        W47188  34.117  10.136   1.203
78784W        W47189  10.609  43.261   1.743
78785W        W47190  28.102  17.181   1.762
78786W        W47191  17.981  16.580   4.447
78787W        W47192  30.970  29.956  13.522
78788W        W47193   6.858  23.727   3.376
78789W        W47194  39.782  24.937   1.153
78790W        W47195  11.524  39.372   2.311
78791W        W47196  42.110  42.554   0.353
78792W        W47197  12.248  34.464   4.581
78793W        W47198  14.206  44.075   0.441
78794W        W47199  40.628  19.829  13.898
78795W        W47200  43.391   9.553  13.583
78796W        W47201  44.072  19.308  14.737
78797W        W47202  16.260  30.896   1.688
78798W        W47203  34.928  34.853  13.876
78799W        W47204  13.517   8.227   0.207
78800W        W47205  42.153   3.124  10.286
78801W        W47206  43.276  23.254   0.007
78802W        W47207  17.728  18.723  14.812
78803W        W47208  34.824  30.230  13.387
78804W        W47209   6.874   9.727   2.789
78805W        W47210  37.138   7.763   4.580
78806W        W47211  11.592  23.669   4.731
78807W        W47212  16.203  24.666  13.008
78808W        W47213  10.134  15.299   3.499
78809W        W47214  41.645  33.051   1.409
78810W        W47215  12.623  43.877   4.255
78811W        W47216  38.553  16.222   1.962
78812W        W47217  41.748  28.906   3.715
78813W        W47218  34.149   4.153   2.828
78814W        W47219  30.769  20.017   2.926
78815W        W47220  10.431  32.261   2.142
78816W        W47221  26.429  35.914  12.535
78817W        W47222   2.951  28.925   3.967
78818W        W47223   8.841  25.946  12.702
78819W        W47224  23.190  37.300   0.230
78820W        W47225  35.401  37.098  13.732
78821W        W47226  29.519  18.563   4.513
78822W        W47227  16.090   4.303   0.424
78823W        W47228  12.962  15.151   2.211
78824W        W47229  34.850  43.825   2.717
78825W        W47230  20.545  42.381   3.637
78826W        W47231  29.442  17.063   1.175
78827W        W47232  37.387  26.083  10.776
78828W        W47233   0.912  12.449   4.409
78829W        W47234   5.877  34.068  10.865
78830W        W47235   9.627  36.300   0.867
78831W        W47236  15.401  15.561  13.900
78832W        W47237  39.371  32.506   3.779
78833W        W47238  41.247  13.218  12.130
78834W        W47239   8.793  12.182   2.896
78835W        W47240  18.220  36.455   0.836
78836W        W47241  30.963  18.650   0.312
78837W        W47242   1.722  38.658  14.424
78838W        W47243  22.024   4.162   1.339
78839W        W47244  10.968  33.663  10.694
78840W        W47245  12.231  36.944  14.785
78841W        W47246   2.444  26.635  12.921
78842W        W47247   9.442  31.395  12.574
78843W        W47248  10.391  19.172   5.002
78844W        W47249  13.578  20.080  14.085
78845W        W47250   1.382   6.584   1.305
78846W        W47251  25.313  25.052  13.037
78847W        W47252  21.966  33.947   1.328
78848W        W47253   2.228  24.110   2.771
78849W        W47254   3.845   7.631  10.877
78850W        W47255  42.431   5.068   0.516
78851W        W47256  35.349   7.455  11.153
78852W        W47257  27.919  34.948   1.793
78853W        W47258  16.797  15.866  10.810
78854W        W47259  10.318  43.301   3.800
78855W        W47260   8.285  37.743   2.810
78856W        W47261   8.750   8.648   2.738
78857W        W47262  39.202  38.013   4.882
78858W        W47263  37.595   9.855   2.637
78859W        W47264   3.839  41.607  14.600
78860W        W47265  37.393  44.713  13.507
78861W        W47266  44.400  17.591  11.064
78862W        W47267   4.788  43.153   3.046
78863W        W47268  13.133  42.832   0.766
78864W        W47269  26.903  23.687   1.216
78865W        W47270  35.904  30.537  11.410
78866W        W47271  42.269  15.244  13.879
78867W        W47272  30.745  17.704  11.004
78868W        W47273   8.087  44.439  10.396
78869W        W47274   6.308   0.382   4.564
78870W        W47275   3.380  41.094   1.354
78871W        W47276  40.316   1.774   0.010
78872W        W47277   4.277  25.888   1.177
78873W        W47278  40.225  19.240  11.451
78874W        W47279  32.685   4.180   3.793
78875W        W47280  13.144  22.692   4.260
78876W        W47281   5.809  31.598   0.360
78877W        W47282   9.688  27.695   2.100
78878W        W47283  16.141  18.297  12.142
78879W        W47284  26.555  39.963   9.767
78880W        W47285  30.898  35.246   0.614
78881W        W47286   1.621  33.083  14.411
78882W        W47287  26.413   1.245   4.343
78883W        W47288   1.373  21.807  14.940
78884W        W47289  23.025  20.364   4.308
78885W        W47290  22.535  29.473   4.551
78886W        W47291  43.597  44.841   1.762
78887W        W47292  16.721  31.110   4.160
78888W        W47293   5.066   8.821  12.868
78889W        W47294  18.438  22.002   3.583
78890W        W47295  11.354   5.924   0.331
78891W        W47296  20.994  34.135   3.957
78892W        W47297  12.553   2.733   3.133
78893W        W47298   0.543   7.658   2.309
78894W        W47299  26.708  23.557  12.054
78895W        W47300  26.143  20.589   1.989
78896W        W47301  12.402  21.981   4.577
78897W        W47302  34.672   1.693  10.358
78898W        W47303  17.569  11.310   5.018
78899W        W47304  20.925  19.502   4.155
78900W        W47305  30.787  42.712  11.963
78901W        W47306  16.807  42.886  14.506
78902W        W47307  35.972  17.375   3.570
78903W        W47308  13.805  31.831   3.571
78904W        W47309  20.715   1.763   2.227
78905W        W47310   9.784   0.511   3.754
78906W        W47311  22.726  25.212   3.192
78907W        W47312  16.510   7.689   2.728
78908W        W47313   2.717  32.199   3.340
78909W        W47314  11.628  30.081  14.537
78910W        W47315  31.632  39.233   2.759
78911W        W47316  42.705  26.707   0.503
78912W        W47317  37.858   4.537  13.387
78913W        W47318  24.177  31.486   0.902
78914W        W47319  44.107  11.886  14.749
78915W        W47320  15.850  21.194  12.415
78916W        W47321  32.639  41.961   0.567
78917W        W47322  17.729  33.485   4.605
78918W        W47323  25.681  20.663   2.795
78919W        W47324  26.837  15.927   2.659
78920W        W47325  18.076  33.123   1.338
78921W        W47326   5.059  32.657   0.932
78922W        W47327  10.151  28.120   1.685
78923W        W47328   2.654  15.058  14.601
78924W        W47329  39.527  24.485   4.769
78925W        W47330  33.667  35.856  13.503
78926W        W47331  23.163  27.997  10.736
78927W        W47332  32.152  11.716   3.666
78928W        W47333  40.454  38.650   2.402
78929W        W47334  35.894  24.155   4.761
78930W        W47335  30.221   8.182  13.583
78931W        W47336  25.712  28.664  11.523
78932W        W47337  25.535  26.217   4.005
78933W        W47338  22.577  32.375   0.862
78934W        W47339  10.380   2.790   4.135
78935W        W47340   6.943   5.192   4.332
78936W        W47341  36.402  32.529  14.393
78937W        W47342  16.163  37.092   1.438
78938W        W47343  10.792  23.218   1.929
78939W        W47344   5.306  35.747  12.725
78940W        W47345  43.821  39.969   4.662
78941W        W47346   2.736  23.346   2.299
78942W        W47347  31.375  20.598   2.309
78943W        W47348  14.241  41.435   0.413
78944W        W47349   7.008  21.534  13.349
78945W        W47350  13.332  23.152  11.624
78946W        W47351  35.096  14.892   1.852
78947W        W47352   5.914   8.368  12.890
78948W        W47353  37.847   0.807   1.388
78949W        W47354  30.763  22.966   3.845
78950W        W47355  21.891  39.815  13.193
78951W        W47356  28.870  18.083   1.850
78952W        W47357  38.782  31.832   1.699
78953W        W47358   9.328  22.754  12.574
78954W        W47359   0.235   8.640  11.937
78955W        W47360  36.371   6.697  13.631
78956W        W47361   6.306   9.355   1.405
78957W        W47362   4.469  32.363  13.966
78958W        W47363   1.319  24.801  14.077
78959W        W47364  20.721   1.886  13.356
78960W        W47365  19.079  26.668   3.080
78961W        W47366  30.065   5.158  12.899
78962W        W47367  26.972   5.401   3.016
78963W        W47368  30.005  23.047   4.891
78964W        W47369   3.754  40.802   3.120
78965W        W47370  26.229  10.236   0.219
78966W        W47371   2.027  30.179  13.892
78967W        W47372  44.814  20.601   4.694
78968W        W47373  31.040  28.983  13.329
78969W        W47374   7.876  28.692  13.483
78970W        W47375   9.345  21.168   2.177
78971W        W47376  23.038  18.735   2.946
78972W        W47377  12.643  35.612  12.561
78973W        W47378   4.212  38.312  13.805
78974W        W47379   0.534  10.406   3.395
78975W        W47380  14.877  18.304  14.391
78976W        W47381  31.168  31.499   3.930
78977W        W47382   3.116  44.305  11.560
78978W        W47383  13.656   0.568  11.329
78979W        W47384  17.950  23.180   3.336
78980W        W47385   2.838   2.691  14.414
78981W        W47386  25.015  28.698  12.466
78982W        W47387  27.648   5.272   1.375
78983W        W47388  42.802   0.327   1.878
78984W        W47389  29.667   9.142   0.515
78985W        W47390  32.721  15.471  12.491
78986W        W47391   1.954  40.367   3.164
78987W        W47392  44.772   4.178  10.719
78988W        W47393  16.386  37.012   3.219
78989W        W47394  26.425   3.499  10.691
78990W        W47395   0.557  35.902   0.474
78991W        W47396   5.371  40.355  12.412
78992W        W47397  23.579  21.447  10.438
78993W        W47398   4.857  16.574  13.059
78994W        W47399  28.289   8.622   1.398
78995W        W47400   8.596  25.582  13.961
78996W        W47401  29.925  36.906   2.104
78997W        W47402  14.327  18.772  11.953
78998W        W47403  28.322   5.271   4.605
78999W        W47404  35.855  33.582  13.505
79000W        W47405   1.657  20.019   3.676
79001W        W47406  11.798  10.417   1.379
79002W        W47407  27.348   2.832  11.617
79003W        W47408  28.605  11.711   0.634
79004W        W47409  11.827  12.473   3.509
79005W        W47410  24.065  25.677  11.884
79006W        W47411  19.664  29.637  10.724
79007W        W47412  22.100  33.477   2.805
79008W        W47413  19.094   1.212   3.411
79009W        W47414  19.053  36.379  14.506
79010W        W47415   4.834  12.146   2.745
79011W        W47416  28.057  19.574  14.525
79012W        W47417   4.633  35.222   2.504
79013W        W47418  17.803  34.502   2.761
79014W        W47419  12.205  32.159  13.886
79015W        W47420   4.687  18.020  11.388
79016W        W47421  24.672  12.761  13.757
79017W        W47422   0.523  27.124   1.236
79018W        W47423  42.864  24.469  12.848
79019W        W47424  19.788  33.036   1.701
79020W        W47425  11.250   8.912   1.831
79021W        W47426  30.812   9.860   0.538
79022W        W47427  31.482  31.367   3.132
79023W        W47428  12.140   1.632   1.150
79024W        W47429   2.851  19.375  13.676
79025W        W47430  24.519   0.536   2.808
79026W        W47431  42.400   4.972   4.643
79027W        W47432  31.995  19.243   0.920
79028W        W47433   6.465  43.409   0.176
79029W        W47434  23.681   6.923  13.610
79030W        W47435  25.549  21.161  10.944
79031W        W47436   9.112  41.442   0.387
79032W        W47437  24.017  41.296   2.762
79033W        W47438  27.198  10.485   0.889
79034W        W47439   3.586  24.409   2.215
79035W        W47440  13.276  29.963   0.385
79036W        W47441  22.085  42.122  11.158
79037W        W47442  39.089  44.955   3.183
79038W        W47443   3.271  34.310   2.160
79039W        W47444  40.355  32.607   2.213
79040W        W47445   2.841  32.384   2.873
79041W        W47446  25.577  25.258   1.152
79042W        W47447  34.978   4.297   4.308
79043W        W47448   6.449  24.981  14.876
79044W        W47449  37.356  41.044  14.379
79045W        W47450  32.026   0.744  14.771
79046W        W47451  32.978  40.546  11.136
79047W        W47452  39.079  27.790   2.807
79048W        W47453  15.283   0.911   2.374
79049W        W47454  14.302  39.951  11.621
79050W        W47455  39.899  11.604  14.391
79051W        W47456   1.330  29.429  13.831
79052W        W47457  42.524   1.300   2.324
79053W        W47458   1.549   3.325  14.275
79054W        W47459  37.550  37.502  10.420
79055W        W47460   9.690  18.892  11.986
79056W        W47461  17.687   4.342  14.129
79057W        W47462  37.042  18.092   3.018
79058W        W47463  39.216   5.706  10.263
79059W        W47464  11.127   3.555   9.857
79060W        W47465  30.631  26.936   0.449
79061W        W47466  38.469  16.082   2.467
79062W        W47467  18.151   7.677   1.483
79063W        W47468  24.623  42.045  14.019
79064W        W47469  14.400  34.932   1.664
79065W        W47470  24.068  39.894  11.025
79066W        W47471   4.555  13.817   0.752
79067W        W47472   5.573  22.227  11.193
79068W        W47473  23.589  26.467  13.346
79069W        W47474  28.966   3.896   2.874
79070W        W47475  16.134  11.419   4.675
79071W        W47476  39.909  32.693  11.567
79072W        W47477  18.067  25.414   0.804
79073W        W47478  17.544  21.039   0.372
79074W        W47479   6.605  26.126   0.446
79075W        W47480  32.136  36.530   5.028
79076W        W47481  43.002   0.413  14.446
79077W        W47482  29.029  18.625   3.775
79078W        W47483  36.738   9.125  12.017
79079W        W47484   6.643   2.882  12.406
79080W        W47485  24.018  18.399   2.871
79081W        W47486  14.212   4.521  11.235
79082W        W47487  27.193  35.357   1.426
79083W        W47488  28.618  44.809  10.572
79084W        W47489  41.026  36.750  10.777
79085W        W47490   8.796   5.761  12.159
79086W        W47491  40.238  38.855   0.632
79087W        W47492  24.179  26.971   4.432
79088W        W47493  39.668  42.145   0.695
79089W        W47494  16.278  39.818  11.730
79090W        W47495  28.838  30.471  14.292
79091W        W47496  43.044  40.590   3.281
79092W        W47497   1.399  12.168   3.330
79093W        W47498  24.132  34.544   3.124
79094W        W47499  19.722  38.419   4.644
79095W        W47500  18.993  40.899   2.469
79096W        W47501  35.086   2.661  14.275
79097W        W47502  18.382  16.095  13.474
79098W        W47503  35.381  36.121  13.116
79099W        W47504   6.943  22.267  11.182
79100W        W47505  32.918  26.570  12.533
79101W        W47506   7.452  17.809   0.122
79102W        W47507  43.268  43.269  12.100
79103W        W47508  36.649   5.565   0.883
79104W        W47509  20.009  23.654   2.982
79105W        W47510  28.467  25.052   2.960
79106W        W47511  36.437  26.209   0.387
79107W        W47512  27.322   6.724  12.573
79108W        W47513  25.944  28.916  11.955
79109W        W47514   9.657   5.538  14.067
79110W        W47515  18.624  12.792  10.390
79111W        W47516  23.760  40.846   4.630
79112W        W47517   2.939  32.046   2.472
79113W        W47518  21.844  42.550   1.923
79114W        W47519   9.686  24.532   0.861
79115W        W47520   7.499  32.645  11.584
79116W        W47521  38.956  44.207   0.808
79117W        W47522  21.204  21.445   2.844
79118W        W47523  32.233  33.311   3.190
79119W        W47524   7.375  25.692   4.148
79120W        W47525  10.996  16.722   4.251
79121W        W47526   4.430  34.969   4.341
79122W        W47527  17.846   7.063  10.245
79123W        W47528  17.707  32.561   2.444
79124W        W47529   5.319  32.934  12.591
79125W        W47530  13.597   1.263  14.405
79126W        W47531  28.574  12.074  11.050
79127W        W47532  26.807  25.444   2.743
79128W        W47533  40.596  27.141  10.764
79129W        W47534  17.123  31.519  13.425
79130W        W47535  15.145  13.876  12.353
79131W        W47536   7.371   1.290  11.412
79132W        W47537   2.126  35.979  14.403
79133W        W47538  28.024   7.363   4.622
79134W        W47539  29.891   7.329   1.910
79135W        W47540   9.738   3.888   4.625
79136W        W47541   0.388  33.510  10.817
79137W        W47542  39.293  26.500   2.633
79138W        W47543  40.278  15.074   3.814
79139W        W47544  17.874  29.656  14.745
79140W        W47545  23.844   3.266  14.743
79141W        W47546  37.871  33.919   3.277
79142W        W47547  23.834  21.690  11.111
79143W        W47548  35.971  34.114   3.050
79144W        W47549  30.418  10.681  11.998
79145W        W47550  10.317  26.464   0.357
79146W        W47551  29.004   2.966  12.128
79147W        W47552  13.203  36.351  11.042
79148W        W47553  20.506  22.461  12.317
79149W        W47554  25.531  24.404   4.899
79150W        W47555   5.293  28.132  14.329
79151W        W47556  36.036  26.211  13.878
79152W        W47557   7.420  28.895  14.862
79153W        W47558  38.811   9.192   3.627
79154W        W47559  16.591  32.028  10.719
79155W        W47560  31.961  20.177   2.552
79156W        W47561   2.195  19.592  10.110
79157W        W47562  31.579  33.164   1.701
79158W        W47563   2.977  14.551  12.419
79159W        W47564   3.480   9.725   3.438
79160W        W47565  10.397   3.409  10.112
79161W        W47566  22.109  38.993  12.201
79162W        W47567  15.801   0.496  12.430
79163W        W47568   1.398   1.088   3.288
79164W        W47569  24.003  39.405   4.282
79165W        W47570  19.156  13.733  11.606
79166W        W47571  44.955  41.500   0.368
79167W        W47572   6.606  26.555   3.671
79168W        W47573  17.870   5.304   4.719
79169W        W47574  31.113   1.566   1.751
79170W        W47575  24.430  42.429   4.162
79171W        W47576  44.750  18.098   4.395
79172W        W47577   5.165   8.818  14.564
79173W        W47578  11.936  11.261  14.344
79174W        W47579  36.366  13.238   2.230
79175W        W47580  18.252  14.917   4.187
79176W        W47581  26.615  15.665   4.190
79177W        W47582  36.922   3.277  10.203
79178W        W47583  12.591  15.613   0.596
79179W        W47584  34.882   6.228   2.721
79180W        W47585  21.656   8.615  12.491
79181W        W47586  44.447  39.109   4.081
79182W        W47587  28.508  32.038  12.317
79183W        W47588  11.090   0.072  12.514
79184W        W47589  36.087  24.549  12.984
79185W        W47590  43.677  22.969   0.816
79186W        W47591  22.437  29.127   3.283
79187W        W47592  28.965  25.971  11.197
79188W        W47593  16.860   2.126   9.960
79189W        W47594  37.701  32.668  12.086
79190W        W47595  40.343  23.972  13.901
79191W        W47596  32.537  37.889  10.996
79192W        W47597  33.695  10.265  10.254
79193W        W47598  32.621  43.304   3.202
79194W        W47599  16.762  33.030  13.503
79195W        W47600  24.920  22.562   0.797
79196W        W47601  31.675  21.050   2.435
79197W        W47602  34.661  35.332   2.442
79198W        W47603   4.117   3.251  14.322
79199W        W47604  26.572  35.750  11.708
79200W        W47605  17.264  37.387   3.693
79201W        W47606  42.402  41.552  12.990
79202W        W47607  44.472  27.422  11.049
79203W        W47608   4.725  22.767  12.857
79204W        W47609   6.502  30.088   3.863
79205W        W47610  10.811  25.237  11.643
79206W        W47611  20.055  22.579  13.480
79207W        W47612  11.606  40.876   3.920
79208W        W47613  10.383  44.376   0.319
79209W        W47614  28.291   7.830  11.638
79210W        W47615  41.367  43.312  14.440
79211W        W47616  43.985  30.652  10.945
79212W        W47617  14.839  33.232   3.125
79213W        W47618  12.763   9.760  10.737
79214W        W47619  37.713  40.043  11.617
79215W        W47620  26.203  43.976   4.080
79216W        W47621   4.310   8.402   1.954
79217W        W47622  43.687  32.906  14.864
79218W        W47623  17.193  42.357   2.711
79219W        W47624  36.535  32.386   0.445
79220W        W47625  18.565   0.845  10.604
79221W        W47626   5.119   1.221  12.430
79222W        W47627  22.332  36.629  12.316
79223W        W47628  22.777  12.710  10.700
79224W        W47629  21.665  31.994  12.058
79225W        W47630   4.910  14.216   0.731
79226W        W47631  16.040  16.819  12.530
79227W        W47632  28.868  27.090   4.521
79228W        W47633  20.311  14.204   1.281
79229W        W47634  42.223  28.122  14.282
79230W        W47635  30.720  19.075   3.179
79231W        W47636  10.885  26.517  13.571
79232W        W47637  19.560  43.832  14.758
79233W        W47638  42.165  42.903  11.898
79234W        W47639   0.517   7.198   2.049
79235W        W47640  12.630  21.105  12.966
79236W        W47641  21.590  32.202   2.804
79237W        W47642   3.762   6.154  13.903
79238W        W47643  25.087   6.210  11.541
79239W        W47644  23.036  13.881   2.632
79240W        W47645   1.812   9.384   1.338
79241W        W47646  37.924  11.729  10.844
79242W        W47647  36.894  26.459  12.373
79243W        W47648  34.924  15.567   2.601
79244W        W47649  13.899   2.957   3.903
79245W        W47650   1.811  38.923  13.081
79246W        W47651  28.169   1.397  11.952
79247W        W47652  43.513  35.873   1.962
79248W        W47653   6.854  13.619   4.508
79249W        W47654  17.324  26.231  10.986
79250W        W47655  25.667  39.480  12.435
79251W        W47656  33.029   0.066  11.585
79252W        W47657  10.316  28.375   2.940
79253W        W47658  41.538  35.202  11.585
79254W        W47659  16.528  31.157   3.578
79255W        W47660   5.344  41.907  13.301
79256W        W47661  28.425  29.462   3.411
79257W        W47662  26.548  37.255   0.244
79258W        W47663   7.741  38.082  12.967
79259W        W47664  32.133   3.806   1.114
79260W        W47665  42.877  17.014  13.591
79261W        W47666  31.575  12.780  14.963
79262W        W47667   2.470  27.154  12.855
79263W        W47668   4.757  21.747  12.402
79264W        W47669   3.450  25.537   1.875
79265W        W47670   4.249  15.220  11.116
79266W        W47671  44.664  38.863  10.309
79267W        W47672  19.050   0.934   4.308
79268W        W47673  30.529  13.568   0.267
79269W        W47674  35.347  43.261   3.248
79270W        W47675  23.589  18.938   2.167
79271W        W47676  28.544   4.970  11.989
79272W        W47677   0.044  40.789   0.980
79273W        W47678  11.070   9.366   2.947
79274W        W47679  22.679  18.230   3.311
79275W        W47680  14.900  22.589   2.715
79276W        W47681  11.583   5.240  10.427
79277W        W47682  25.566   7.813   0.561
79278W        W47683  26.536  37.941  12.630
79279W        W47684   1.935  38.346   1.333
79280W        W47685  10.540  38.569   1.282
79281W        W47686  41.957  24.537  10.623
79282W        W47687   6.414  40.762   0.714
79283W        W47688  40.635  42.160  14.494
79284W        W47689  40.046   2.289  10.723
79285W        W47690  10.760  23.146   1.426
79286W        W47691  37.635  17.553   0.374
79287W        W47692   5.599  37.458   0.927
79288W        W47693  20.773  21.090  14.080
79289W        W47694  17.752   3.782   4.548
79290W        W47695  40.593  30.600  12.530
79291W        W47696  14.609  31.625   0.266
79292W        W47697  10.167  31.906   1.224
79293W        W47698  29.159  12.801   4.503
79294W        W47699  13.732  27.915   1.284
79295W        W47700   6.909  19.040  11.038
79296W        W47701  16.834   0.109   2.350
79297W        W47702  34.884  37.226   3.850
79298W        W47703  27.456  36.972   0.434
79299W        W47704  12.657  30.636  10.604
79300W        W47705  31.874  11.185  14.368
79301W        W47706  24.438  38.333   2.436
79302W        W47707   9.173  22.613  14.486
79303W        W47708  37.659   6.760   4.112
79304W        W47709  14.647   8.916  11.860
79305W        W47710  32.367   7.300   3.322
79306W        W47711  28.572   2.236  10.622
79307W        W47712  13.842  29.484   0.599
79308W        W47713  19.617  24.726  13.258
79309W        W47714  31.344  41.852  11.948
79310W        W47715  29.145   4.363   4.647
79311W        W47716  32.548   5.879  10.593
79312W        W47717   2.226  34.292  12.968
79313W        W47718  20.720  13.150  14.319
79314W        W47719  20.485  13.389   3.149
79315W        W47720  34.032  14.860  11.121
79316W        W47721  24.048  32.337  14.515
79317W        W47722   3.787  36.432   2.624
79318W        W47723   2.497  35.841   3.173
79319W        W47724  27.475  39.404  11.012
79320W        W47725  21.925  16.709   0.847
79321W        W47726  35.373  20.347   4.771
79322W        W47727  42.458  12.231  14.419
79323W        W47728  18.631  30.987  12.042
79324W        W47729  19.839  40.856   4.803
79325W        W47730  26.002   4.982  13.349
79326W        W47731  30.363   7.770   3.716
79327W        W47732  39.977  31.144  14.514
79328W        W47733  33.911  34.623  10.945
79329W        W47734  33.567   5.601  10.654
79330W        W47735   3.544   2.384   3.366
79331W        W47736  42.279  34.021   1.822
79332W        W47737  32.051   3.679  11.980
79333W        W47738  37.777   5.925  14.774
79334W        W47739  20.103   5.728  13.040
79335W        W47740   6.231  29.615  12.891
79336W        W47741   0.775  44.397  14.006
79337W        W47742  20.424  34.923   4.274
79338W        W47743  44.756  37.387  11.969
79339W        W47744   4.921   6.876  13.718
79340W        W47745  22.306  42.881  11.921
79341W        W47746  31.151  22.252  12.089
79342W        W47747  25.427  40.583   2.184
79343W        W47748   5.236  30.541   0.281
79344W        W47749  11.636  37.818  13.891
79345W        W47750  44.371   1.219   2.790
79346W        W47751  18.068  23.796   4.078
79347W        W47752   3.071  40.111   4.564
79348W        W47753  14.358  43.769   0.042
79349W        W47754  35.521  37.607  13.675
79350W        W47755  37.463  43.323  13.774
79351W        W47756  33.123  30.129  14.050
79352W        W47757  17.291  14.202  13.221
79353W        W47758   3.329  27.080   2.377
79354W        W47759  17.308   5.202  12.429
79355W        W47760  35.848  28.630  14.173
79356W        W47761  30.026  38.583   1.159
79357W        W47762  19.296  15.804  10.676
79358W        W47763  25.279   9.431  11.672
79359W        W47764  10.655  40.962   3.750
79360W        W47765  30.604   8.702  14.871
79361W        W47766  14.286   4.322  14.955
79362W        W47767  24.224  35.604   0.307
79363W        W47768   6.683  10.006   3.264
79364W        W47769  14.827  25.589  11.463
79365W        W47770   5.927   4.337  13.858
79366W        W47771   8.842   7.167  13.942
79367W        W47772   2.841   2.307  13.524
79368W        W47773  14.172  21.641   0.985
79369W        W47774  23.176  15.096  14.479
79370W        W47775  10.618  31.456   4.100
79371W        W47776  13.223   4.945   2.161
79372W        W47777  36.800  43.760  12.437
79373W        W47778  23.276  28.894   3.515
79374W        W47779  31.987  25.216  10.818
79375W        W47780   3.816   6.777  10.862
79376W        W47781  19.712  29.955   3.333
79377W        W47782  18.306   0.362   2.859
79378W        W47783   0.406  28.155   3.859
79379W        W47784  39.055   4.155   3.173
79380W        W47785  38.929  15.179  10.201
79381W        W47786  44.024  26.730  12.696
79382W        W47787   3.874   0.345   2.671
79383W        W47788  12.601  43.474  13.379
79384W        W47789   3.121  18.639   4.995
79385W        W47790   7.930  11.188  13.178
79386W        W47791  13.916  12.330  12.998
79387W        W47792  40.373  15.128  14.222
79388W        W47793  21.619  14.348   3.195
79389W        W47794  30.401   4.868  13.147
79390W        W47795   8.483   5.728   0.656
79391W        W47796   0.767  27.571  13.242
79392W        W47797   3.982  29.190   3.811
79393W        W47798  13.675   4.532   2.777
79394W        W47799  34.805  18.466  14.289
79395W        W47800  27.111  29.587   0.870
79396W        W47801  11.152  14.860   0.992
79397W        W47802  44.449   9.238  14.582
79398W        W47803   0.061  15.074   1.310
79399W        W47804  23.673  32.544  11.719
79400W        W47805  23.228  24.403   0.911
79401W        W47806  38.505  20.925   3.565
79402W        W47807  40.701  41.418  14.394
79403W        W47808  21.726  42.525  11.210
79404W        W47809   3.891  40.550  14.462
79405W        W47810  12.257  28.551   9.885
79406W        W47811   8.307  38.512  14.026
79407W        W47812   8.070  42.829  10.791
79408W        W47813   6.862  27.202  12.019
79409W        W47814  37.000  21.784   0.401
79410W        W47815  21.418  38.748   3.734
79411W        W47816   1.194  10.624   3.188
79412W        W47817  17.020  42.306   1.258
79413W        W47818   2.729  26.262   2.046
79414W        W47819  19.710  34.931   2.345
79415W        W47820  18.762   5.324  10.682
79416W        W47821   1.492  30.594   4.706
79417W        W47822   8.635  31.594   0.785
79418W        W47823   4.993  12.547  10.403
79419W        W47824  16.278  32.070   4.137
79420W        W47825  32.839  42.015   2.240
79421W        W47826  27.807  16.385  14.907
79422W        W47827   1.954  40.830   2.409
79423W        W47828  23.094   8.455  10.765
79424W        W47829  40.867  31.838   2.162
79425W        W47830  39.872  16.737  10.659
79426W        W47831  24.222  20.973  14.934
79427W        W47832  43.443  20.353   0.854
79428W        W47833  18.044  32.179   2.265
79429W        W47834  33.472  18.610   0.939
79430W        W47835  41.402  31.525  10.741
79431W        W47836  12.348   8.027  12.223
79432W        W47837  26.530   6.715  11.313
79433W        W47838  23.739   6.852  14.997
79434W        W47839  12.254  40.913  12.847
79435W        W47840   6.371  17.013   3.834
79436W        W47841  34.619  15.797  12.019
79437W        W47842   4.469  32.682   0.849
79438W        W47843  42.018  23.493  10.589
79439W        W47844  33.093   6.212   1.884
79440W        W47845  30.976   2.856  11.965
79441W        W47846  23.447  35.535  13.440
79442W        W47847  35.319   2.406   0.831
79443W        W47848  17.624   3.943   3.292
79444W        W47849   3.327  19.076   0.862
79445W        W47850  30.996   3.399   2.906
79446W        W47851   7.851  33.363  12.579
79447W        W47852  14.070  18.563   3.305
79448W        W47853  28.605  12.342   1.382
79449W        W47854  41.222  30.100  12.074
79450W        W47855  18.177  26.699  13.617
79451W        W47856   9.561  30.031  11.078
79452W        W47857   6.910  34.566   1.330
79453W        W47858  23.129  40.131   3.805
79454W        W47859  37.550  44.869   4.423
79455W        W47860   5.348  11.595  13.424
79456W        W47861  36.729  12.954  13.826
79457W        W47862  12.733  43.959   1.191
79458W        W47863  30.242  26.496  13.349
79459W        W47864  39.141  15.623   4.984
79460W        W47865  25.082  34.557   3.407
79461W        W47866  11.145  10.634  10.773
79462W        W47867  28.720  23.771  14.983
79463W        W47868  31.447  17.754   2.812
79464W        W47869  29.503  19.203  11.632
79465W        W47870  39.365  40.874   2.768
79466W        W47871   9.671  26.186  11.290
79467W        W47872  23.261  25.063   3.262
79468W        W47873   6.770  33.014  12.417
79469W        W47874   9.839  25.241  12.932
79470W        W47875   6.748  10.029  11.464
79471W        W47876  33.729  34.477   3.390
79472W        W47877   6.968   7.475  12.869
79473W        W47878  27.438  43.061   1.926
79474W        W47879  26.421  10.351   2.694
79475W        W47880  11.692   0.962   1.771
79476W        W47881  39.426  22.720   3.294
79477W        W47882  11.245  27.466  11.586
79478W        W47883   4.237  15.627  12.047
79479W        W47884  31.776  28.184   4.203
79480W        W47885   6.384  20.068   0.768
79481W        W47886  15.340  32.525  13.258
79482W        W47887   3.985  31.833  12.034
79483W        W47888  12.837  36.336  10.688
79484W        W47889  25.720  37.908  10.586
79485W        W47890  37.347  14.733   3.402
79486W        W47891  44.764  27.410  11.752
79487W        W47892  30.707  42.285  12.922
79488W        W47893  42.805  13.239  13.072
79489W        W47894  35.360  26.225   2.939
79490W        W47895  25.511  34.608  11.130
79491W        W47896  26.415  27.281   1.812
79492W        W47897  34.577  44.214  14.554
79493W        W47898  16.208  27.709   1.246
79494W        W47899   5.579  20.017   1.265
79495W        W47900  11.258   2.861  11.495
79496W        W47901  34.790   3.295  13.830
79497W        W47902  30.019  29.784  13.463
79498W        W47903   6.363  44.455   3.287
79499W        W47904   3.323   5.293  12.920
79500W        W47905  28.935  37.917   2.320
79501W        W47906   7.897  33.257   2.285
79502W        W47907  34.644  13.267   1.165
79503W        W47908  19.485  42.468   0.978
79504W        W47909  43.714  42.059  13.139
79505W        W47910  36.372  22.390   4.191
79506W        W47911  21.557  18.195   3.981
79507W        W47912  26.732   6.388   2.845
79508W        W47913  29.969   1.752  13.845
79509W        W47914  30.606  11.749  10.769
79510W        W47915  35.426  30.991  13.956
79511W        W47916  43.338   4.262   3.636
79512W        W47917  16.825  20.235  13.307
79513W        W47918   2.458  40.438  10.352
79514W        W47919  40.570  41.710   2.899
79515W        W47920  33.090  26.892   4.077
79516W        W47921   2.381  41.635   3.194
79517W        W47922  38.791   8.966  13.446
79518W        W47923  27.925  20.976  11.489
79519W        W47924  11.951  39.501  14.917
79520W        W47925   0.779  43.086  11.388
79521W        W47926  14.232  37.141   0.394
79522W        W47927   5.829  17.217   2.130
79523W        W47928  17.781  27.501   4.492
79524W        W47929  23.839   2.383  10.838
79525W        W47930   1.820  39.031   4.689
79526W        W47931   9.259  24.500   2.237
79527W        W47932  31.511  17.900  13.356
79528W        W47933  40.980  19.053  12.049
79529W        W47934   6.272  28.859   2.161
79530W        W47935   7.144  16.250   2.321
79531W        W47936  25.124  40.809  14.467
79532W        W47937  27.101  40.800  12.542
79533W        W47938  13.227   9.580   4.084
79534W        W47939  16.085   0.307  14.284
79535W        W47940  28.656  39.159  14.357
79536W        W47941   8.944  14.255   5.072
79537W        W47942  15.086  12.304  11.614
79538W        W47943   0.537  13.209   3.879
79539W        W47944  12.568  23.257   2.364
79540W        W47945  36.632  18.022   3.296
79541W        W47946  21.994  39.998   3.162
79542W        W47947  44.870  38.102   1.887
79543W        W47948  39.482   7.315   0.455
79544W        W47949  23.662   9.188   3.549
79545W        W47950  33.422  23.531   1.816
79546W        W47951  42.750  27.556  13.416
79547W        W47952  20.497  25.392   3.754
79548W        W47953  11.275  43.993  10.628
79549W        W47954  30.787  33.257   0.951
79550W        W47955  12.336  43.092   3.155
79551W        W47956  25.992  39.481   4.986
79552W        W47957  18.729  31.196   0.031
79553W        W47958   2.053  32.148  10.092
79554W        W47959  44.932  24.709  14.479
79555W        W47960  24.121  44.338   0.512
79556W        W47961  25.379  32.436  10.537
79557W        W47962  23.496   0.787   2.379
79558W        W47963  20.821  10.832  11.371
79559W        W47964   1.289  34.408  12.131
79560W        W47965  41.787  14.079   2.839
79561W        W47966   7.974  44.985   3.749
79562W        W47967   6.635  19.037  14.804
79563W        W47968  21.531   6.777   0.926
79564W        W47969  18.205  36.145  11.920
79565W        W47970  17.854  44.257   1.749
79566W        W47971   2.314  14.506  13.997
79567W        W47972  11.695   5.259  11.424
79568W        W47973  33.896  19.804   1.755
79569W        W47974  26.220  19.625  13.511
79570W        W47975   2.209  13.515  13.932
79571W        W47976  35.432   3.196   1.683
79572W        W47977  43.273  15.288   3.565
79573W        W47978   6.121  23.767   0.615
79574W        W47979  27.337   1.851   0.834
79575W        W47980  19.758  35.295  11.064
79576W        W47981  25.916  31.322  13.333
79577W        W47982   3.454  18.267   4.813
79578W        W47983  41.939  38.865  12.814
79579W        W47984  13.147  36.717   4.535
79580W        W47985  38.608  10.662   3.685
79581W        W47986  31.145   0.250   4.854
79582W        W47987  27.930  23.963  14.398
79583W        W47988  30.753  23.272   0.713
79584W        W47989  19.897  14.378  14.469
79585W        W47990  14.850  44.465   2.308
79586W        W47991  25.189  36.916  13.511
79587W        W47992  27.881  27.647   2.761
79588W        W47993  29.764  23.573   4.171
79589W        W47994  38.973  15.062  12.574
79590W        W47995  35.382  26.275   1.548
79591W        W47996  27.653  20.253   3.729
79592W        W47997  18.857  26.046   0.433
79593W        W47998  34.621  29.487   2.576
79594W        W47999  16.863   5.617   9.939
79595W        W48000  37.393   8.130   3.295
79596W        W48001  31.352   1.118   3.536
79597W        W48002   5.840  10.573   3.023
79598W        W48003  13.121   3.048   1.362
79599W        W48004  42.995   9.836  13.364
79600W        W48005  12.305  34.423   1.904
79601W        W48006  31.978  24.690   3.001
79602W        W48007  26.260  38.735   1.891
79603W        W48008  20.328  11.154  13.838
79604W        W48009  10.166  37.161  14.968
79605W        W48010   9.254  18.760   1.210
79606W        W48011  11.732  34.190   0.015
79607W        W48012  16.639  34.033   1.648
79608W        W48013  19.750   4.326   4.716
79609W        W48014  29.751  11.745   0.457
79610W        W48015  18.540  28.563   1.041
79611W        W48016  39.307  23.999  12.596
79612W        W48017   3.186  11.311   0.873
79613W        W48018  43.848  32.128  12.041
79614W        W48019  39.240  26.032   2.392
79615W        W48020   1.140  37.648   1.363
79616W        W48021  30.902  26.472  14.047
79617W        W48022  44.812  39.748  11.024
79618W        W48023   6.464   5.108   4.539
79619W        W48024  28.518  18.184  13.913
79620W        W48025  41.535   0.883   4.545
79621W        W48026  19.425   3.383  14.041
79622W        W48027  35.632  14.252   1.290
79623W        W48028   7.885  19.061   0.351
79624W        W48029  36.880   5.372   4.027
79625W        W48030   4.633  41.734   4.824
79626W        W48031  12.983  31.984  14.258
79627W        W48032  42.961   6.522   4.233
79628W        W48033  20.010   5.636  11.523
79629W        W48034  42.727   8.424   0.965
79630W        W48035  24.213  20.369   2.230
79631W        W48036  44.080  15.846   4.583
79632W        W48037  18.540  43.868   0.045
79633W        W48038  20.667  10.288   4.319
79634W        W48039   7.365  40.839  13.466
79635W        W48040  12.943  17.832   1.692
79636W        W48041  44.303  28.472  11.952
79637W        W48042  19.641   6.928   4.986
79638W        W48043  26.675  28.491  11.510
79639W        W48044   0.081  23.599  12.623
79640W        W48045   4.376  30.736   0.392
79641W        W48046  36.628  33.414  13.944
79642W        W48047  38.893  17.167  12.911
79643W        W48048  32.807  30.530  13.929
79644W        W48049   3.485  31.979   3.975
79645W        W48050  37.085   6.249   4.082
79646W        W48051  37.910  27.920   3.255
79647W        W48052  43.542  20.066  13.480
79648W        W48053  31.363  32.502  11.545
79649W        W48054   7.728  26.203  10.403
79650W        W48055  10.239   2.982  12.168
79651W        W48056  37.163  23.169  11.641
79652W        W48057  22.674   2.465  10.491
79653W        W48058  31.082  19.340   4.169
79654W        W48059   9.742  36.063   4.590
79655W        W48060   5.925  11.709   0.388
79656W        W48061   9.192  16.144  10.823
79657W        W48062  29.084  41.235  11.863
79658W        W48063  39.992  43.961  14.911
79659W        W48064   5.427  25.152  13.345
79660W        W48065  36.418  30.689  13.528
79661W        W48066  20.587  23.704  12.499
79662W        W48067   3.795  13.766   3.655
79663W        W48068  24.225  33.128  11.252
79664W        W48069   1.371  19.136   3.850
79665W        W48070  42.039   7.781   3.247
79666W        W48071  12.604  33.658  11.091
79667W        W48072  30.707  39.850  10.268
79668W        W48073  10.558   0.424   4.112
79669W        W48074  36.963  29.595   4.286
79670W        W48075  22.124  33.149   0.899
79671W        W48076   3.999  41.254   1.431
79672W        W48077  28.807  43.372  10.671
79673W        W48078  32.620  12.805  11.558
79674W        W48079  24.604  25.709   0.385
79675W        W48080  25.234  13.870   1.455
79676W        W48081  20.738  16.165  12.661
79677W        W48082  28.642  40.608   0.383
79678W        W48083  34.109   4.348   0.489
79679W        W48084  26.095  20.241   0.267
79680W        W48085   5.987  16.364   4.476
79681W        W48086  36.382  39.884  12.178
79682W        W48087  26.460  40.038  13.386
79683W        W48088  38.535  19.329   1.448
79684W        W48089  33.507  30.815   0.198
79685W        W48090  26.973  13.407  13.547
79686W        W48091  39.570   8.321   2.223
79687W        W48092   1.822   4.459  11.578
79688W        W48093  27.464   7.225   3.354
79689W        W48094   4.872  13.792  14.730
79690W        W48095   4.675   1.520  12.460
79691W        W48096  13.768   3.688   4.562
79692W        W48097  37.106  19.383  11.184
79693W        W48098  43.901   8.170   4.468
79694W        W48099  20.823   0.279   1.382
79695W        W48100  44.271   5.275   2.168
79696W        W48101  41.763  14.384   0.820
79697W        W48102  41.769  25.110  12.007
79698W        W48103  44.580  39.919   1.721
79699W        W48104  39.885  35.382   0.949
79700W        W48105   1.060  44.551  12.369
79701W        W48106  29.255   9.743  14.270
79702W        W48107   6.367  23.008   0.398
79703W        W48108  29.383  20.155   1.273
79704W        W48109  12.200  19.702  14.853
79705W        W48110   8.695  38.490   2.893
79706W        W48111  11.702  26.594   2.636
79707W        W48112  19.200  34.463  14.249
79708W        W48113  36.028  40.413   3.731
79709W        W48114  13.030  33.972   4.395
79710W        W48115  12.371  35.082  14.187
79711W        W48116  22.283  18.746  13.534
79712W        W48117  44.858  20.240   0.968
79713W        W48118  16.232   1.896   3.738
79714W        W48119  42.524  39.744  12.084
79715W        W48120  40.894  17.252  12.413
79716W        W48121   6.089  42.898  11.092
79717W        W48122  13.889  43.569  14.908
79718W        W48123  33.277  32.097  12.339
79719W        W48124  18.324  14.145   0.299
79720W        W48125  19.930  38.420   2.707
79721W        W48126  37.378  24.017  10.758
79722W        W48127   6.237  23.609   1.674
79723W        W48128  34.472  27.155  12.044
79724W        W48129  11.534   4.656   1.373
79725W        W48130  25.435  17.636  12.616
79726W        W48131  11.515  36.443   4.119
79727W        W48132  35.126  18.082  10.649
79728W        W48133  16.133  44.717  10.312
79729W        W48134  18.718  33.947   1.203
79730W        W48135  21.308  22.650   2.172
79731W        W48136   4.479  19.957  13.908
79732W        W48137  11.226  17.296   2.303
79733W        W48138   1.779   2.632  12.955
79734W        W48139  23.482  13.972   0.359
79735W        W48140   9.390  24.000   2.247
79736W        W48141  22.556   9.594   1.425
79737W        W48142  32.159  39.111  12.602
79738W        W48143  36.152  12.243   1.202
79739W        W48144  21.373  16.494   3.687
79740W        W48145  44.993  16.448  13.899
79741W        W48146  33.575  20.879   1.474
79742W        W48147  41.772   7.767  13.001
79743W        W48148  42.851   1.301  12.850
79744W        W48149  26.602  20.563   0.906
79745W        W48150  13.358  28.906   4.623
79746W        W48151  24.253  31.529  11.171
79747W        W48152   5.263   4.084  11.905
79748W        W48153  42.988  37.331   0.968
79749W        W48154   0.473  27.144  11.145
79750W        W48155  36.157   8.216  12.923
79751W        W48156  40.384  25.197  11.773
79752W        W48157  26.086  14.407   2.702
79753W        W48158  34.122  35.444  14.768
79754W        W48159  25.039   0.520   4.551
79755W        W48160  24.515  13.986   0.339
79756W        W48161  40.722   4.018  11.631
79757W        W48162  18.545  30.669  11.626
79758W        W48163  20.232  12.649  13.592
79759W        W48164  26.516  43.403   1.129
79760W        W48165  24.864  14.768  14.452
79761W        W48166   9.426  17.214   1.726
79762W        W48167  20.130   7.911  11.207
79763W        W48168  28.495   3.654   2.770
79764W        W48169   4.461  12.420  11.942
79765W        W48170  33.423  42.999  13.617
79766W        W48171   6.942  31.084  11.152
79767W        W48172  31.772  26.382  11.793
79768W        W48173  37.426   9.939  11.119
79769W        W48174   1.196  23.347   3.345
79770W        W48175  10.558   3.925   1.595
79771W        W48176   0.249  12.219  11.506
79772W        W48177   5.959   8.055  10.543
79773W        W48178  19.252  38.753   2.874
79774W        W48179  43.441  33.429   2.212
79775W        W48180   1.724  20.628  10.662
79776W        W48181  16.234  34.264   1.409
79777W        W48182   0.236  44.179  12.181
79778W        W48183  40.568  19.698   3.811
79779W        W48184  41.956   0.866   3.162
79780W        W48185   2.043  23.500   4.456
79781W        W48186  13.230   2.397   0.266
79782W        W48187  24.888   1.305  13.045
79783W        W48188  18.215  39.606  11.470
79784W        W48189  33.117  21.032   1.217
79785W        W48190  34.624   1.897  11.616
79786W        W48191  32.134  43.316  11.060
79787W        W48192  14.392  32.994  11.236
79788W        W48193  16.311   3.308  12.019
79789W        W48194  18.672  19.665  14.024
79790W        W48195  35.042  15.733  12.881
79791W        W48196  37.236  30.255   0.848
79792W        W48197  37.947  13.324  10.989
79793W        W48198   1.901  10.335  13.907
79794W        W48199  42.625  32.480   0.522
79795W        W48200  22.493   7.321  11.448
79796W        W48201  20.656  22.003   0.146
79797W        W48202   3.479  13.646  14.395
79798W        W48203  38.837  29.840  13.477
79799W        W48204  37.990   8.117   0.223
79800W        W48205  28.979  28.431  13.365
79801W        W48206  13.521  25.234  10.171
79802W        W48207  20.961  30.995   1.721
79803W        W48208  20.065  17.530  11.942
79804W        W48209  25.254   2.989   0.906
79805W        W48210  10.504  18.611   0.662
79806W        W48211  39.475  13.205   3.823
79807W        W48212   1.903  39.202  11.613
79808W        W48213  38.239  42.812  12.148
79809W        W48214  12.146   7.985  14.857
79810W        W48215  38.627   5.878  13.485
79811W        W48216   3.286  24.095  13.397
79812W        W48217  16.803   0.865   4.530
79813W        W48218  27.763  17.299   3.323
79814W        W48219   8.088  42.426   1.673
79815W        W48220  10.721  29.509   2.247
79816W        W48221  36.459   1.538   2.669
79817W        W48222  33.067  22.743   4.698
79818W        W48223  25.911  10.273   4.458
79819W        W48224  39.107   6.214  12.969
79820W        W48225  33.091  23.989  14.828
79821W        W48226  10.227  15.607   3.902
79822W        W48227   0.132  22.678  14.508
79823W        W48228  11.934   6.352   2.268
79824W        W48229  40.941   8.994   3.783
79825W        W48230  31.697  14.297  10.768
79826W        W48231  41.793   5.493  13.558
79827W        W48232  12.875  22.065  12.488
79828W        W48233  33.871  16.255  12.471
79829W        W48234   6.665  20.600   4.096
79830W        W48235  34.441   5.980  14.073
79831W        W48236  16.723   8.149   1.861
79832W        W48237   4.515  24.626   0.794
79833W        W48238  18.120  24.250   4.873
79834W        W48239  22.944  11.476  14.431
79835W        W48240  21.758  25.833   0.235
79836W        W48241   6.771  40.117  13.907
79837W        W48242   8.943  26.593  11.505
79838W        W48243  25.739  22.605   0.042
79839W        W48244   9.341  28.547  12.476
79840W        W48245  34.142  29.660  11.112
79841W        W48246   2.360  29.214   0.767
79842W        W48247  29.862  21.194   0.353
79843W        W48248  35.380   5.869   2.385
79844W        W48249  32.469  12.755  10.519
79845W        W48250  18.652  38.551  14.876
79846W        W48251  25.137  27.546   1.177
79847W        W48252  24.495   9.389   1.847
79848W        W48253   5.676   2.379  13.021
79849W        W48254  23.231  41.938  14.847
79850W        W48255   9.414  13.775  13.322
79851W        W48256  17.649  37.087   4.295
79852W        W48257  24.133  10.746  14.868
79853W        W48258   2.739   8.843   2.218
79854W        W48259  18.209  19.985  13.401
79855W        W48260  25.791  23.141   1.790
79856W        W48261  24.480   1.506   3.781
79857W        W48262  18.388  23.731   2.325
79858W        W48263  34.779  11.380  12.053
79859W        W48264  13.435  23.987   3.473
79860W        W48265  36.608  28.853   2.138
79861W        W48266  38.847  34.879  13.027
79862W        W48267  31.335   9.793  14.902
79863W        W48268  40.760  40.517  12.597
79864W        W48269   3.157  26.440  12.136
79865W        W48270  39.047  16.162  10.576
79866W        W48271  11.820  24.726  12.547
79867W        W48272  23.142  36.912  10.525
79868W        W48273   4.904  33.357  11.931
79869W        W48274  26.788  33.954   3.705
79870W        W48275  24.104   0.814  13.290
79871W        W48276   8.432   3.806   4.291
79872W        W48277   5.604  42.498  11.932
79873W        W48278  42.558  13.129  12.637
79874W        W48279  21.065  34.534  11.265
79875W        W48280   5.192   5.228  12.770
79876W        W48281  17.195   9.376  12.547
79877W        W48282   2.433  23.361   4.995
79878W        W48283  28.273  35.323  12.416
79879W        W48284  14.804  23.916  14.811
79880W        W48285   7.164   8.756   3.610
79881W        W48286  44.858   3.011   2.421
79882W        W48287  36.936  33.935  12.480
79883W        W48288  24.871  27.126  14.067
79884W        W48289   7.178   8.139   2.079
79885W        W48290  15.384  35.519   1.012
79886W        W48291  24.674  23.449  11.525
79887W        W48292  19.796  26.538  13.476
79888W        W48293  17.216   8.722   4.024
79889W        W48294  11.675  25.462  13.048
79890W        W48295  13.186  36.349  12.952
79891W        W48296  10.809  23.211  11.674
79892W        W48297  32.985  20.569   3.775
79893W        W48298  42.514  20.671   2.407
79894W        W48299  13.395   1.403   9.977
79895W        W48300  27.691   9.219  11.052
79896W        W48301  24.504  10.713  10.632
79897W        W48302  11.251  28.777  14.464
79898W        W48303  39.078  21.316   1.412
79899W        W48304  34.936  36.700   0.618
79900W        W48305  12.105  33.801  11.183
79901W        W48306  22.988  29.663  14.022
79902W        W48307  22.981  32.420   1.742
79903W        W48308  29.966  28.707  11.509
79904W        W48309  28.550   7.801  14.768
79905W        W48310  17.991  39.089   3.937
79906W        W48311  13.244  20.754   4.020
79907W        W48312   4.836  24.253   4.186
79908W        W48313  20.049  12.240  12.307
79909W        W48314  34.502  28.438   3.427
79910W        W48315  32.292  16.758   0.640
79911W        W48316  36.971  40.897   0.362
79912W        W48317  21.793  22.645  11.532
79913W        W48318  19.106  40.548  12.045
79914W        W48319  19.983  41.451  13.506
79915W        W48320  19.019  16.633   1.435
79916W        W48321  41.998  13.088   1.388
79917W        W48322  39.897   7.662   4.271
79918W        W48323   7.136  32.853   1.461
79919W        W48324   2.635  44.317  11.764
79920W        W48325  26.467  44.420  12.429
79921W        W48326  27.197  42.414  13.110
79922W        W48327  22.545  26.000   2.689
79923W        W48328  14.743  10.856   2.900
79924W        W48329  14.644   9.858  13.496
79925W        W48330   4.740   9.002  14.820
79926W        W48331  30.990  19.158   2.746
79927W        W48332  38.484  29.934   1.061
79928W        W48333   2.756  20.059  11.405
79929W        W48334  11.376  25.131  10.441
79930W        W48335  27.462  31.335  11.084
79931W        W48336  25.276  12.645  12.420
79932W        W48337  11.454   2.996   4.121
79933W        W48338  12.293  38.983  13.917
79934W        W48339  40.318  10.915   4.003
79935W        W48340  12.281  11.139  10.662
79936W        W48341  21.873   6.333   0.864
79937W        W48342  22.119  11.621   3.267
79938W        W48343  43.991  36.912   1.223
79939W        W48344  31.852   4.343   4.612
79940W        W48345  15.594  23.010  13.820
79941W        W48346   6.317  36.798  14.891
79942W        W48347  11.776  14.561   3.228
79943W        W48348  15.846  24.991  14.298
79944W        W48349  11.769   3.624  11.059
79945W        W48350  19.719  22.581  10.263
79946W        W48351  41.283  23.859  14.762
79947W        W48352  16.794   1.607   0.655
79948W        W48353  38.609  22.764   0.434
79949W        W48354  15.630  23.289   0.743
79950W        W48355  26.060  20.448   2.476
79951W        W48356  40.300  22.941  13.693
79952W        W48357  11.751  28.869   2.426
79953W        W48358   5.899  37.521  14.429
79954W        W48359  39.354  37.454   3.226
79955W        W48360  32.475  19.786  12.979
79956W        W48361  14.904  19.639  14.421
79957W        W48362  36.716  34.981  12.475
79958W        W48363  18.304  21.290  13.047
79959W        W48364  23.445  31.415  10.793
79960W        W48365  23.416  14.738   1.844
79961W        W48366  32.027  24.421  14.010
79962W        W48367   1.996  16.337   3.136
79963W        W48368  25.704  40.144  11.019
79964W        W48369  14.553  34.260  14.426
79965W        W48370  41.282  17.268  12.783
79966W        W48371  37.754  34.738   9.918
79967W        W48372  25.275  17.321   3.314
79968W        W48373  34.882  20.709  12.144
79969W        W48374  11.318  43.926   1.842
79970W        W48375  14.366  18.536  11.465
79971W        W48376   9.349   1.276   4.748
79972W        W48377  23.106  29.355  14.895
79973W        W48378  32.003   9.204   4.377
79974W        W48379  17.089  33.521   0.893
79975W        W48380  18.237   5.945  11.152
79976W        W48381  33.944  10.919  11.977
79977W        W48382  28.978   2.646   1.409
79978W        W48383   9.715  15.553  13.792
79979W        W48384  20.006  18.582  11.140
79980W        W48385  37.054  28.947   3.284
79981W        W48386   9.824  11.889  12.501
79982W        W48387  34.071  32.592  12.221
79983W        W48388   4.522  35.091   2.986
79984W        W48389  38.721  20.781  10.702
79985W        W48390  26.159  21.302   3.242
79986W        W48391  33.127  24.934  13.856
79987W        W48392  19.281   5.310   3.112
79988W        W48393  40.775  29.914   3.484
79989W        W48394  25.437  14.870  11.602
79990W        W48395  39.808   8.263  14.949
79991W        W48396  19.156   0.206  11.278
79992W        W48397  35.357  20.810   4.575
79993W        W48398  10.738  17.406   2.643
79994W        W48399  32.309   9.256  14.840
79995W        W48400  37.770  26.028  11.633
79996W        W48401  39.867  24.705   2.474
79997W        W48402  29.791  12.737   0.296
79998W        W48403  15.674  25.007  10.655
79999W        W48404   7.380  39.921   4.277
80000W        W48405  42.152  32.240  10.753
80001W        W48406  28.598   0.302   4.155
80002W        W48407  33.364  22.984  14.368
80003W        W48408  26.538   2.878   3.816
80004W        W48409   6.907   3.661  11.151
80005W        W48410   4.976  29.584   3.330
80006W        W48411  44.979  33.921   4.149
80007W        W48412   6.148  31.862  10.548
80008W        W48413  14.656  29.341   2.397
80009W        W48414  28.818  16.652  12.121
80010W        W48415  27.949  32.571  12.540
80011W        W48416   3.869  17.648   1.821
80012W        W48417  39.419  33.231   2.747
80013W        W48418  23.167  23.267   1.466
80014W        W48419  15.150  44.245  12.529
80015W        W48420  21.096   1.720   2.781
80016W        W48421  35.529  21.916   3.148
80017W        W48422  23.175  15.092  12.585
80018W        W48423  19.573  34.138   1.841
80019W        W48424  24.725  29.597   4.566
80020W        W48425  23.506  33.398  11.533
80021W        W48426  20.043  40.350   1.442
80022W        W48427  44.325  30.420  10.669
80023W        W48428   3.560  26.099   4.201
80024W        W48429  11.967  14.887   9.769
80025W        W48430  28.411  24.247   4.143
80026W        W48431  19.697  28.525   4.349
80027W        W48432  29.041  28.216   3.931
80028W        W48433   9.758  11.044   1.670
80029W        W48434  37.489  29.002  12.082
80030W        W48435  14.720  15.105  14.428
80031W        W48436  43.889   7.600  14.316
80032W        W48437  38.313  16.573  14.863
80033W        W48438  14.822  28.626   0.306
80034W        W48439  14.181  29.689   2.366
80035W        W48440   2.801  15.538   1.497
80036W        W48441  28.804  32.097  14.834
80037W        W48442  18.129   0.619   0.158
80038W        W48443   8.765  35.297   4.261
80039W        W48444  39.106  11.404   4.296
80040W        W48445  39.435  11.213  12.872
80041W        W48446  14.548  19.350   0.373
80042W        W48447  11.014  25.731  11.550
80043W        W48448  37.141  34.395   0.952
80044W        W48449   9.544   0.815   1.271
80045W        W48450  28.910  14.892  14.436
80046W        W48451  24.683   1.109   2.688
80047W        W48452   6.954  44.723   1.905
80048W        W48453   1.953  13.557   4.899
80049W        W48454  21.000  32.602  13.872
80050W        W48455  19.107   1.407   1.843
80051W        W48456  18.695  27.718   0.015
80052W        W48457  17.332  18.574  14.501
80053W        W48458   0.725   4.396   1.700
80054W        W48459  15.767  28.427  12.987
80055W        W48460  21.660  44.522  10.576
80056W        W48461   9.858  21.318  11.055
80057W        W48462  30.472   4.039  11.223
80058W        W48463  35.717  23.420  10.702
80059W        W48464  33.576   9.862  10.611
80060W        W48465  40.787   8.624  13.283
80061W        W48466   7.656  22.222   4.737
80062W        W48467  42.420  29.426  14.128
80063W        W48468  29.374  40.828  11.970
80064W        W48469   0.772  22.045  11.941
80065W        W48470  29.646  18.898  12.027
80066W        W48471  13.711  41.755  11.589
80067W        W48472  18.426   0.894   0.467
80068W        W48473  43.957  35.463  11.896
80069W        W48474  38.250   1.736  11.556
80070W        W48475   7.718  20.741  13.735
80071W        W48476  42.809   8.381  13.450
80072W        W48477  30.480   3.174   2.921
80073W        W48478   6.448  24.025  11.860
80074W        W48479  15.491  41.974   4.331
80075W        W48480  13.129  36.411   2.953
80076W        W48481  24.928  35.635  11.206
80077W        W48482  40.031  32.575  10.496
80078W        W48483  14.105  27.939  12.442
80079W        W48484  23.714  22.109  14.215
80080W        W48485  38.899   8.684   2.892
80081W        W48486  38.686  11.695   0.228
80082W        W48487  42.430   2.597   0.811
80083W        W48488  38.836  36.038   0.419
80084W        W48489  18.115  27.188  13.713
80085W        W48490  36.199  37.736   2.289
80086W        W48491  29.014   3.459   0.277
80087W        W48492  26.262  29.499  14.319
80088W        W48493  39.656  38.804  14.036
80089W        W48494  15.741  25.426  12.899
80090W        W48495  30.300  40.239   2.346
80091W        W48496  24.051   6.736  13.909
80092W        W48497  42.809  34.292  13.538
80093W        W48498  18.059  44.117  14.373
80094W        W48499  27.413  35.128   4.543
80095W        W48500   6.200  11.748   1.233
80096W        W48501  41.739  34.646   2.044
80097W        W48502  41.111  39.539   3.733
80098W        W48503  28.504  11.614   3.702
80099W        W48504   0.766   3.139   1.519
80100W        W48505   1.054   1.343   1.503
80101W        W48506  12.739  36.373   4.612
80102W        W48507  43.794  27.469  13.423
80103W        W48508  16.313  44.688   4.803
80104W        W48509  37.708  12.799   5.011
80105W        W48510  16.067  14.597  11.436
80106W        W48511  33.387  44.152  12.841
80107W        W48512  29.105  33.220   1.641
80108W        W48513  10.433  17.034  10.762
80109W        W48514  11.492  26.139   0.710
80110W        W48515  36.475   0.906  11.420
80111W        W48516   7.427  39.813  14.777
80112W        W48517  19.546  30.554  14.754
80113W        W48518  37.505  18.654   5.407
80114W        W48519  35.942  31.656  11.079
80115W        W48520   2.194  15.350  10.008
80116W        W48521   1.245  38.553   1.797
80117W        W48522   8.307  11.946   1.633
80118W        W48523  26.591  26.801  11.153
80119W        W48524  23.147  12.238   2.485
80120W        W48525  30.081  43.733   3.770
80121W        W48526  39.507   5.812   3.282
80122W        W48527  28.354  28.945   0.862
80123W        W48528  25.802   2.909  14.035
80124W        W48529  11.863  20.647   3.700
80125W        W48530  31.039   2.073   1.824
80126W        W48531  15.263  25.632  12.869
80127W        W48532  14.134  28.405  13.385
80128W        W48533  14.629  31.527   2.703
80129W        W48534  44.334  43.261   2.319
80130W        W48535  31.941  39.058   5.241
80131W        W48536  27.709   4.434  13.799
80132W        W48537   1.152  26.531   2.855
80133W        W48538  37.838  35.089   3.787
80134W        W48539  23.763  16.135  11.995
80135W        W48540  23.575   1.917   3.327
80136W        W48541  15.642  11.949  11.200
80137W        W48542   0.796  39.561  14.356
80138W        W48543  40.478  39.290   0.294
80139W        W48544  26.653  43.879   1.296
80140W        W48545   0.975  26.509   4.792
80141W        W48546   9.332  44.194   3.797
80142W        W48547   2.495  11.884  13.936
80143W        W48548  21.760   7.514   2.841
80144W        W48549  14.285  44.922  11.584
80145W        W48550  42.002   6.278  10.247
80146W        W48551  21.441  32.176   1.251
80147W        W48552  21.350  37.053   4.797
80148W        W48553  30.089  20.291  12.903
80149W        W48554   0.957  22.180  11.473
80150W        W48555  32.357  13.051   3.241
80151W        W48556   0.098  43.193  13.525
80152W        W48557  13.211  23.443  14.325
80153W        W48558   6.556  25.398  12.978
80154W        W48559  11.700  42.058   4.534
80155W        W48560  23.466  33.432   0.828
80156W        W48561  40.893   8.782   2.108
80157W        W48562  27.409  11.267   4.088
80158W        W48563   5.632  43.271  14.916
80159W        W48564  11.160  34.428  12.386
80160W        W48565  17.151  36.868   3.650
80161W        W48566  13.342  36.535   2.337
80162W        W48567  30.518   5.458   1.401
80163W        W48568   6.724  18.804   2.600
80164W        W48569  29.896   1.330   0.918
80165W        W48570   0.523  43.069   2.031
80166W        W48571  40.913  37.924  11.552
80167W        W48572  39.917  23.218   4.648
80168W        W48573  24.431   1.161   4.174
80169W        W48574  29.913  27.487   3.204
80170W        W48575  10.726   8.772  11.989
80171W        W48576  37.114  40.970   1.018
80172W        W48577  36.450  20.618  10.861
80173W        W48578   5.829  21.087   0.331
80174W        W48579  18.146  16.178  10.481
80175W        W48580  22.505  25.453   4.649
80176W        W48581  18.072  41.199   0.361
80177W        W48582  11.836  34.966   2.403
80178W        W48583  21.882  24.978   0.235
80179W        W48584  16.493  12.183   0.252
80180W        W48585  17.736  37.377  10.100
80181W        W48586   5.566   7.494  14.450
80182W        W48587   5.306  28.838  12.593
80183W        W48588  20.642  12.287  13.441
80184W        W48589   8.456  21.768   3.153
80185W        W48590   9.371  27.690   0.811
80186W        W48591   5.028  42.157  13.936
80187W        W48592  32.910  41.244   4.315
80188W        W48593  34.832  29.462   9.795
80189W        W48594  16.702   4.036  14.013
80190W        W48595   5.225  30.046   4.226
80191W        W48596  35.071  13.161  10.542
80192W        W48597  33.916   3.519   1.787
80193W        W48598  15.125   0.764   4.395
80194W        W48599   6.344  13.666  14.041
80195W        W48600  33.433   7.998  13.472
80196W        W48601  32.152  31.972   0.449
80197W        W48602  29.145   8.833  14.352
80198W        W48603  40.869  10.816  13.940
80199W        W48604  36.049  16.187  10.721
80200W        W48605  32.834  21.729  13.360
80201W        W48606  36.013  35.935  11.473
80202W        W48607   2.763  19.565   0.253
80203W        W48608  17.067  23.030   1.864
80204W        W48609  43.620  28.910  14.348
80205W        W48610  15.131  13.146   0.706
80206W        W48611  40.324  28.935  12.133
80207W        W48612  11.813  10.694  11.219
80208W        W48613  10.852  22.048   3.274
80209W        W48614  16.224  35.651   5.015
80210W        W48615   6.454  34.032   0.706
80211W        W48616  44.369  18.004  14.224
80212W        W48617  31.096   1.982   3.188
80213W        W48618  25.894   0.744   0.777
80214W        W48619  37.004  36.586  12.123
80215W        W48620   3.330   3.526  14.491
80216W        W48621  19.755   6.080   0.923
80217W        W48622  14.805  25.172   4.081
80218W        W48623  44.865  13.102  12.887
80219W        W48624   7.836  15.609  12.305
80220W        W48625  29.739  16.856  12.942
80221W        W48626  11.149  44.728   0.605
80222W        W48627  39.617  16.624  11.096
80223W        W48628   0.740  22.235   0.883
80224W        W48629  38.850  33.342   1.791
80225W        W48630  15.302  41.812  11.442
80226W        W48631   0.748  30.417   3.246
80227W        W48632   9.407  19.938  11.617
80228W        W48633  20.494  35.849   0.238
80229W        W48634   8.291   2.245  11.141
80230W        W48635   2.258  33.406   3.688
80231W        W48636  17.582  29.032   4.476
80232W        W48637  11.577  18.688  12.369
80233W        W48638  27.329  17.042   3.167
80234W        W48639  26.486  41.282  12.833
80235W        W48640  17.607  17.581   4.828
80236W        W48641   2.081  24.717   1.690
80237W        W48642   3.350   1.028  11.398
80238W        W48643  10.368  43.112   0.818
80239W        W48644  31.991  28.193   2.700
80240W        W48645  23.526  26.017   2.355
80241W        W48646  26.995  23.561  14.405
80242W        W48647  17.705  22.195   1.250
80243W        W48648  20.611  44.792   4.078
80244W        W48649  29.551  34.028  13.427
80245W        W48650  15.189  20.741   2.151
80246W        W48651  34.681   5.346  13.390
80247W        W48652  27.452  18.205  12.941
80248W        W48653   6.795  37.787  11.198
80249W        W48654  23.972  20.232  12.336
80250W        W48655  36.220  44.030   2.432
80251W        W48656  15.680  40.657  12.652
80252W        W48657  34.517  22.743  12.025
80253W        W48658   3.825   0.295   3.713
80254W        W48659  43.294  35.374  14.403
80255W        W48660  19.615   7.730   9.912
80256W        W48661   0.767   0.271   0.951
80257W        W48662  11.864  32.952   4.001
80258W        W48663   0.299   2.340  12.580
80259W        W48664  12.538   0.145  14.879
80260W        W48665  33.523   1.299  14.576
80261W        W48666  12.608   4.754  14.437
80262W        W48667  30.318  24.589   0.254
80263W        W48668  28.951  30.586   3.183
80264W        W48669  15.549  23.544  12.019
80265W        W48670  37.098   2.063   0.812
80266W        W48671  31.083  23.134   1.687
80267W        W48672   1.748  35.633   2.789
80268W        W48673  31.474  11.691  14.838
80269W        W48674  23.163  17.272   4.090
80270W        W48675  17.602   9.167   0.535
80271W        W48676  26.626  37.078   2.270
80272W        W48677  36.348  27.729   4.051
80273W        W48678  20.473  30.946  10.483
80274W        W48679  13.146  37.642   1.075
80275W        W48680  42.714  23.052   0.848
80276W        W48681  34.247  27.118   1.968
80277W        W48682  10.652  11.803  12.860
80278W        W48683  42.814   7.963  10.725
80279W        W48684  37.885   8.703  10.577
80280W        W48685  32.186  33.326  13.084
80281W        W48686  20.222   9.713  10.478
80282W        W48687  19.185  41.494   1.683
80283W        W48688   6.614   9.323  11.026
80284W        W48689   1.218  11.288  12.317
80285W        W48690  22.754   6.883  13.502
80286W        W48691  43.098  13.087  10.885
80287W        W48692  43.104   5.445   3.534
80288W        W48693   7.436   9.799   1.139
80289W        W48694   8.745  38.559  14.309
80290W        W48695  13.974  12.298   4.155
80291W        W48696  41.291   9.342  10.672
80292W        W48697  33.521  18.665  13.967
80293W        W48698  21.929  12.251   0.702
80294W        W48699  34.178  39.833  10.923
80295W        W48700  26.510  34.821  14.159
80296W        W48701  34.050  18.531  14.791
80297W        W48702  34.582  16.482  11.707
80298W        W48703   5.593  37.455   4.907
80299W        W48704  34.400   0.421  13.773
80300W        W48705  21.874  23.543   2.339
80301W        W48706  13.299   6.218   3.394
80302W        W48707  36.425   1.874   5.021
80303W        W48708  18.062   2.915   1.649
80304W        W48709  13.072  30.043   2.985
80305W        W48710  27.637   7.621   1.631
80306W        W48711  25.901  31.934  11.599
80307W        W48712   7.135   2.779  14.780
80308W        W48713  38.577   7.359   0.341
80309W        W48714  27.538  15.898   0.901
80310W        W48715  39.979  25.143  13.909
80311W        W48716  16.583  40.166  12.524
80312W        W48717   6.436  34.918  10.636
80313W        W48718   0.365  14.318   0.795
80314W        W48719  13.567  40.112   1.848
80315W        W48720  16.118  22.667  12.246
80316W        W48721  30.235  30.664   1.901
80317W        W48722  23.320  34.392  13.614
80318W        W48723  23.995  30.893   1.762
80319W        W48724  10.871   5.937  10.748
80320W        W48725  33.609   1.251   1.341
80321W        W48726   6.172  16.707   4.830
80322W        W48727  27.464  33.406  11.752
80323W        W48728   7.130  24.182  10.463
80324W        W48729  22.487   1.064  14.343
80325W        W48730  17.207  25.724   0.919
80326W        W48731  26.881  34.477   3.764
80327W        W48732  11.676  15.285   3.742
80328W        W48733   9.347  31.553  12.109
80329W        W48734  17.080  23.299  12.928
80330W        W48735  33.369  40.583  14.749
80331W        W48736  44.817  28.283   1.143
80332W        W48737  15.239   4.657  11.766
80333W        W48738   5.467  18.285  11.071
80334W        W48739  35.310  22.267   1.394
80335W        W48740  16.594   0.371   2.750
80336W        W48741  15.049  40.035   2.640
80337W        W48742   0.903  11.729   1.592
80338W        W48743  34.213  35.522   2.700
80339W        W48744  40.525   3.267  14.274
80340W        W48745  26.599  44.339   3.207
80341W        W48746  19.220   6.312  10.693
80342W        W48747   6.681   3.500  11.638
80343W        W48748  34.744  28.177   4.395
80344W        W48749   5.704  28.480  12.660
80345W        W48750  31.664  34.781   2.252
80346W        W48751   8.351   8.693  11.687
80347W        W48752   1.375   1.322  13.663
80348W        W48753   6.690  42.386   2.488
80349W        W48754  21.973  17.945   2.608
80350W        W48755   8.419  22.706  13.974
80351W        W48756  41.836  38.148  14.379
80352W        W48757  36.898  34.203  13.843
80353W        W48758   0.821  20.078  14.223
80354W        W48759  22.711   7.662   5.320
80355W        W48760  37.197  42.098   2.352
80356W        W48761  37.039  12.041  12.662
80357W        W48762  25.110  39.008   4.625
80358W        W48763  19.625  16.742   0.417
80359W        W48764  21.026   2.209   1.343
80360W        W48765  42.911  18.959   3.099
80361W        W48766  37.810   2.726  10.464
80362W        W48767  25.345  42.312  11.050
80363W        W48768  35.900  36.982   0.394
80364W        W48769  16.334  19.071   3.338
80365W        W48770   7.838  20.510   4.792
80366W        W48771   3.175  43.975  14.532
80367W        W48772   0.996  19.468   0.308
80368W        W48773  15.289   4.601  13.499
80369W        W48774  37.950  15.443  10.473
80370W        W48775   2.804  15.374   2.240
80371W        W48776  35.393  26.999   3.367
80372W        W48777  19.821  26.174   2.294
80373W        W48778  26.372  31.567   4.282
80374W        W48779  44.811   5.427   3.762
80375W        W48780  43.372  26.041   2.618
80376W        W48781  21.299  22.190   5.533
80377W        W48782   4.372  15.678  12.827
80378W        W48783  29.904  19.458   2.194
80379W        W48784  17.530  30.582  10.429
80380W        W48785  22.354  28.982  12.094
80381W        W48786  29.601  21.379  12.449
80382W        W48787  36.476  31.996  10.501
80383W        W48788  13.649  17.646  10.692
80384W        W48789   8.849  24.693  14.455
80385W        W48790  11.352  33.103   4.016
80386W        W48791  38.156   3.744   1.990
80387W        W48792  12.651  34.993   0.030
80388W        W48793  11.293  14.839  13.846
80389W        W48794  22.113  17.492  14.014
80390W        W48795  15.472  17.471  13.699
80391W        W48796   1.771   7.887   1.344
80392W        W48797  15.759  35.060   1.852
80393W        W48798  21.540  29.965   1.355
80394W        W48799  43.933   9.633  14.347
80395W        W48800  29.130  44.801  11.662
80396W        W48801  37.357  20.612  12.340
80397W        W48802  38.985  28.513  14.319
80398W        W48803  38.575   7.440  10.173
80399W        W48804  26.756  17.192   4.008
80400W        W48805  19.561   5.816   4.165
80401W        W48806  27.194  41.774   0.401
80402W        W48807   7.863   3.215   2.043
80403W        W48808  44.234  14.185   2.915
80404W        W48809  15.312  17.069   0.880
80405W        W48810   7.321  28.536   3.621
80406W        W48811  10.204   0.794  11.211
80407W        W48812  36.964  31.482  14.523
80408W        W48813   9.181  35.990  12.120
80409W        W48814  16.025   4.878   1.716
80410W        W48815  23.713  41.389   4.622
80411W        W48816  17.875  44.386   4.588
80412W        W48817  37.328   6.966   0.836
80413W        W48818  28.468  41.852   0.901
80414W        W48819  42.138  30.533  14.288
80415W        W48820  17.390   5.478   4.691
80416W        W48821  12.325   4.780  10.723
80417W        W48822   2.302  29.577   4.063
80418W        W48823  36.454   7.005  10.725
80419W        W48824  42.885   0.711   4.997
80420W        W48825  28.739  42.029   3.745
80421W        W48826   1.180  26.846   1.209
80422W        W48827  17.660  40.058  14.887
80423W        W48828  32.523  38.356   2.239
80424W        W48829  11.201  31.921  14.497
80425W        W48830  35.864  10.384   2.012
80426W        W48831   7.726  34.815  13.340
80427W        W48832  37.613  33.577   4.543
80428W        W48833   3.407   8.658   4.655
80429W        W48834  22.224   8.720  11.020
80430W        W48835   3.821  38.945  14.345
80431W        W48836   7.451  20.487  11.513
80432W        W48837   9.248   1.904  12.872
80433W        W48838  32.884  24.913  12.462
80434W        W48839  11.888  11.168   0.293
80435W        W48840  20.251  41.829  10.759
80436W        W48841  38.205  37.800  12.052
80437W        W48842   8.748  11.402  14.724
80438W        W48843  20.985   9.941   0.846
80439W        W48844  18.684  37.969   1.702
80440W        W48845  13.108  11.662  11.008
80441W        W48846  24.424  26.253  14.994
80442W        W48847  36.862   8.784  10.757
80443W        W48848  33.922  26.991   0.572
80444W        W48849   1.249   2.522  10.696
80445W        W48850  20.203  30.774   3.336
80446W        W48851   3.770  25.657  10.897
80447W        W48852   5.232  14.923  14.148
80448W        W48853  10.352   0.297   4.586
80449W        W48854   9.065  39.539  13.497
80450W        W48855  25.357   1.290  12.786
80451W        W48856  35.422   5.861   0.385
80452W        W48857   6.162  33.751   3.141
80453W        W48858  28.107   4.344   4.593
80454W        W48859  22.274  28.211   0.242
80455W        W48860   6.891  15.384  11.155
80456W        W48861  32.108  25.308  13.974
80457W        W48862  38.851  33.668   2.286
80458W        W48863   3.719  41.020   3.951
80459W        W48864  26.087   7.669  10.747
80460W        W48865  29.180  38.928   2.753
80461W        W48866  33.642  19.588   9.827
80462W        W48867  22.948   1.589  14.363
80463W        W48868  15.284  32.834  11.224
80464W        W48869  30.110  32.999  13.004
80465W        W48870  22.128  31.343   3.605
80466W        W48871  27.631  23.551   1.735
80467W        W48872  34.099  23.215  12.692
80468W        W48873  11.316  29.382   2.659
80469W        W48874  17.075  23.783  14.544
80470W        W48875  27.355   9.472   4.172
80471W        W48876  14.893   9.704   5.327
80472W        W48877  13.198  39.320  14.046
80473W        W48878   3.317   4.353   3.220
80474W        W48879  21.638  15.126   4.051
80475W        W48880  38.862   7.773   3.691
80476W        W48881  43.525  27.693  14.768
80477W        W48882  35.649  24.100  11.589
80478W        W48883  11.920  12.643   4.353
80479W        W48884   6.789  42.825   2.254
80480W        W48885  18.774  22.856  11.731
80481W        W48886   7.428  31.569  13.237
80482W        W48887   2.522   3.783  10.747
80483W        W48888  26.230  13.135  10.743
80484W        W48889  10.902  19.656  11.605
80485W        W48890  12.906  25.499   3.715
80486W        W48891  30.453  23.708  11.539
80487W        W48892  21.890  10.122   0.554
80488W        W48893   0.373  17.530   3.152
80489W        W48894  11.928  14.075   3.138
80490W        W48895  30.597  33.654  10.926
80491W        W48896  43.578  37.451  13.525
80492W        W48897  27.608  35.058   2.193
80493W        W48898  23.756  38.029   2.681
80494W        W48899  41.869  18.578   4.253
80495W        W48900  30.484   6.299  13.730
80496W        W48901  13.850   2.470   2.789
80497W        W48902   4.919  16.232  12.055
80498W        W48903  13.145  18.068  12.119
80499W        W48904  33.105  13.198  10.392
80500W        W48905  40.170   2.280   3.791
80501W        W48906  26.624  22.621   1.805
80502W        W48907  11.492  38.522  14.759
80503W        W48908  30.524  33.324   0.512
80504W        W48909  22.398   1.380   3.754
80505W        W48910  25.692  31.974   1.060
80506W        W48911  33.776  29.245  12.418
80507W        W48912  11.877  28.648   5.149
80508W        W48913  31.626  33.615   1.913
80509W        W48914  34.119  18.150   4.455
80510W        W48915  25.558  43.988   0.347
80511W        W48916  13.706  19.126  10.623
80512W        W48917  33.204  39.322   1.715
80513W        W48918   4.396  42.938   1.338
80514W        W48919  10.745   2.983   1.335
80515W        W48920  43.642   5.622   0.547
80516W        W48921  33.345  18.576  12.513
80517W        W48922  21.592  29.634   4.761
80518W        W48923  29.185  22.697   3.304
80519W        W48924  40.509  44.756  13.813
80520W        W48925  41.493  33.005  13.942
80521W        W48926  17.066  40.910   3.747
80522W        W48927   5.375  10.040  13.417
80523W        W48928  30.588  44.747   1.813
80524W        W48929  33.628   5.690  12.107
80525W        W48930   8.761  28.205   3.253
80526W        W48931  29.245  12.200  14.956
80527W        W48932  14.286  23.783  13.739
80528W        W48933  14.592   4.976  11.478
80529W        W48934  20.813  11.839  11.057
80530W        W48935  33.883  25.365  10.594
80531W        W48936  29.537  36.177  10.921
80532W        W48937  33.811   6.714   0.970
80533W        W48938  39.847  16.062  13.579
80534W        W48939   3.648  37.761   1.820
80535W        W48940  39.585  42.636   0.911
80536W        W48941   1.879  41.382   0.026
80537W        W48942  13.013  44.244  14.916
80538W        W48943  12.089  40.514   1.785
80539W        W48944  24.578   4.924  12.124
80540W        W48945  42.863   4.503  12.065
80541W        W48946  42.802  25.710   4.607
80542W        W48947  44.454  42.299   2.231
80543W        W48948  36.095   6.927   1.415
80544W        W48949   4.436  44.656   2.423
80545W        W48950   7.599  34.248   2.425
80546W        W48951   7.792  40.852  11.172
80547W        W48952  16.047  31.107  12.595
80548W        W48953   3.672  34.585   2.913
80549W        W48954  31.565  29.047   0.958
80550W        W48955   5.763  23.014  12.556
80551W        W48956  24.472  27.297  14.997
80552W        W48957  39.369  18.732   3.378
80553W        W48958  16.650   3.308  13.121
80554W        W48959  33.047  26.979  14.875
80555W        W48960  34.579  10.285  12.057
80556W        W48961  24.931  18.571  12.899
80557W        W48962   7.862  11.775  14.870
80558W        W48963  23.002  38.967   1.392
80559W        W48964  21.211  42.376  11.252
80560W        W48965  27.475   4.409   2.350
80561W        W48966  41.228  32.339   2.009
80562W        W48967  39.524  41.125  13.986
80563W        W48968  36.913  28.988   2.768
80564W        W48969  37.984  43.682   1.751
80565W        W48970   7.796   1.474   2.243
80566W        W48971  28.136  30.502   2.972
80567W        W48972  40.993  18.679   4.525
80568W        W48973  36.216  30.758   1.825
80569W        W48974  17.663  21.141   2.724
80570W        W48975   3.965  44.966   3.322
80571W        W48976   1.881  15.742  11.165
80572W        W48977  37.754  18.128   2.309
80573W        W48978  43.490  35.642   1.428
80574W        W48979  17.402  34.478  11.744
80575W        W48980  33.002  43.977   3.409
80576W        W48981  18.360   1.402  12.119
80577W        W48982  42.052  20.304  13.405
80578W        W48983   5.309   6.768   3.600
80579W        W48984  44.807  13.434  13.354
80580W        W48985  22.042  39.065   3.188
80581W        W48986   4.113  17.268   2.749
80582W        W48987  17.703  24.654   4.751
80583W        W48988  36.805   9.164  13.420
80584W        W48989  31.821  17.687  10.762
80585W        W48990  27.616  22.535  12.024
80586W        W48991  28.161  15.648   2.449
80587W        W48992  11.648  35.964  12.350
80588W        W48993  16.266  37.885  13.315
80589W        W48994  42.228  35.958   0.023
80590W        W48995   4.187  42.919  12.419
80591W        W48996  22.024  20.285   3.869
80592W        W48997   8.226  35.622   2.334
80593W        W48998  16.633  37.510  11.954
80594W        W48999  33.836  37.913  13.995
80595W        W49000  38.524  42.746  14.968
80596W        W49001   7.028  41.338  12.033
80597W        W49002  37.389   9.890  14.933
80598W        W49003  19.800  36.134  10.872
80599W        W49004  11.081  20.102   5.050
80600W        W49005  19.470  10.749  11.033
80601W        W49006  33.510  31.863   0.249
80602W        W49007   2.513  25.210   0.984
80603W        W49008  13.233  14.839   4.381
80604W        W49009  30.494  15.837  13.034
80605W        W49010  11.589  10.407  10.869
80606W        W49011  11.616  23.554  11.699
80607W        W49012  26.731   3.319  14.797
80608W        W49013  15.074  29.465   0.879
80609W        W49014  35.051  43.936  12.257
80610W        W49015  31.116  40.712   2.703
80611W        W49016   3.052   3.808   2.203
80612W        W49017  38.333  34.529   1.954
80613W        W49018  17.138  21.166   2.654
80614W        W49019  30.386  41.024   0.053
80615W        W49020  44.037   1.336   0.274
80616W        W49021   8.628  17.790   4.959
80617W        W49022  32.816   4.024  11.655
80618W        W49023  31.994  12.570  10.364
80619W        W49024  43.931   3.182   3.307
80620W        W49025   0.946  15.945  11.192
80621W        W49026  11.373  24.036   3.115
80622W        W49027  21.638  33.513   3.377
80623W        W49028   6.322   0.247  10.697
80624W        W49029  40.529  11.418   2.701
80625W        W49030  36.944  38.276  12.623
80626W        W49031  25.189  43.480  13.532
80627W        W49032  22.631  38.584   4.617
80628W        W49033   5.907  43.062  14.010
80629W        W49034   9.174  38.400   1.498
80630W        W49035  15.574  22.294  13.543
80631W        W49036  19.313  18.962  10.922
80632W        W49037  17.724  39.454  13.631
80633W        W49038  33.174  22.161   3.384
80634W        W49039  34.186  44.006   4.110
80635W        W49040   3.013  42.916  11.362
80636W        W49041  31.351   1.032  12.214
80637W        W49042   3.021  26.834   3.180
80638W        W49043  30.909  20.430  11.037
80639W        W49044  12.345  43.142  13.041
80640W        W49045  40.327  11.826   3.524
80641W        W49046  32.984  13.798  13.333
80642W        W49047  11.911  24.458  12.112
80643W        W49048  18.981  43.363   3.258
80644W        W49049  23.754  12.153  11.578
80645W        W49050  23.528  26.318  14.650
80646W        W49051   6.676  25.932   2.330
80647W        W49052  21.497   4.287   2.658
80648W        W49053  33.646  15.556  12.042
80649W        W49054  24.672  38.262   0.340
80650W        W49055  39.988  15.704  13.086
80651W        W49056  19.952   8.935   1.860
80652W        W49057   6.561  23.483   0.480
80653W        W49058  33.799  10.340   4.872
80654W        W49059  27.325  18.514   1.070
80655W        W49060  21.336  29.517   1.944
80656W        W49061   0.657  28.636  10.383
80657W        W49062  30.865  23.141  14.023
80658W        W49063   7.689   2.786  10.480
80659W        W49064  39.282  18.765  11.531
80660W        W49065  39.414  40.344  12.922
80661W        W49066   5.016  20.353  14.936
80662W        W49067  26.939  35.330   4.592
80663W        W49068  31.071  34.711  14.636
80664W        W49069  23.549  30.470  14.463
80665W        W49070   8.822  14.791   3.731
80666W        W49071  17.185   7.156   0.398
80667W        W49072  31.248  20.123   0.416
80668W        W49073   6.383  19.649   3.871
80669W        W49074  16.030   7.234   4.538
80670W        W49075   6.786  40.526  10.477
80671W        W49076  13.705  43.956  13.947
80672W        W49077  43.762  26.619   3.654
80673W        W49078  26.759  29.991   0.707
80674W        W49079  30.567  20.851   9.893
80675W        W49080  44.540  19.885   2.748
80676W        W49081  36.218   9.375   5.126
80677W        W49082   9.767  19.051   4.618
80678W        W49083   0.664  23.056  11.603
80679W        W49084   3.691  25.514  13.497
80680W        W49085  13.574  29.070   1.908
80681W        W49086  23.005  13.690   3.776
80682W        W49087  31.293   1.927   4.627
80683W        W49088  42.294  26.179  14.437
80684W        W49089  33.618  43.946  13.978
80685W        W49090   6.735  25.991  11.229
80686W        W49091  20.294  13.868  12.939
80687W        W49092  18.384  24.941   0.933
80688W        W49093  22.018  32.744   0.598
80689W        W49094  16.023  44.000  10.895
80690W        W49095  16.082  38.907  12.374
80691W        W49096  10.624  44.520   3.337
80692W        W49097  21.212  33.420   3.636
80693W        W49098   9.241  32.397  11.146
80694W        W49099  27.978  37.512   1.433
80695W        W49100  23.551  27.194   3.710
80696W        W49101   6.424  33.477  11.638
80697W        W49102  43.171  17.188  12.387
80698W        W49103  35.086   5.655  12.113
80699W        W49104  17.661  32.600   0.026
80700W        W49105   1.854  14.719   3.782
80701W        W49106  32.038  38.820   4.796
80702W        W49107  43.428   1.797   1.797
80703W        W49108  31.526  44.788  11.698
80704W        W49109  42.566   6.773   1.957
80705W        W49110  36.929  28.978   4.817
80706W        W49111   9.838  41.851  10.740
80707W        W49112  31.967  24.995   2.592
80708W        W49113   7.320   9.282   0.932
80709W        W49114   0.327   6.931  10.749
80710W        W49115  24.190  25.687  10.904
80711W        W49116  26.854   9.285  10.633
80712W        W49117  31.312  44.427   0.265
80713W        W49118   0.694  35.964  10.256
80714W        W49119  44.213   5.756   1.306
80715W        W49120  26.767  42.374  11.919
80716W        W49121  21.673  18.384  12.444
80717W        W49122   8.267   1.429   2.597
80718W        W49123  29.989   7.904  12.401
80719W        W49124  42.491   9.873  14.544
80720W        W49125  39.586  20.845  13.395
80721W        W49126   1.988  30.075   0.255
80722W        W49127  44.338   0.962   0.481
80723W        W49128  31.389  17.683   3.333
80724W        W49129  13.283  31.895  13.222
80725W        W49130  32.118  24.251  12.164
80726W        W49131   5.408  32.131  11.991
80727W        W49132   5.984   4.851  14.755
80728W        W49133   8.360  34.369   0.149
80729W        W49134  35.586   4.873   4.177
80730W        W49135   3.863  28.201   1.344
80731W        W49136  37.092   2.721  11.536
80732W        W49137  26.834   2.181  13.280
80733W        W49138  33.034  16.318  11.927
80734W        W49139  25.611  11.361  12.408
80735W        W49140  26.736  44.385  13.978
80736W        W49141  15.633  39.824   4.624
80737W        W49142   5.001  24.644  14.883
80738W        W49143  39.304  21.296   3.156
80739W        W49144  22.670   0.030   3.376
80740W        W49145   1.373  38.773   3.108
80741W        W49146  44.334  33.120   9.750
80742W        W49147  18.146  38.563   1.700
80743W        W49148  15.787  41.353   3.715
80744W        W49149  11.136  18.130   1.988
80745W        W49150   5.153  18.416  10.651
80746W        W49151  34.942  26.947  12.986
80747W        W49152  39.063   3.634   4.041
80748W        W49153  15.353  12.823   4.887
80749W        W49154  13.867  24.210   3.629
80750W        W49155  10.711  41.550   0.516
80751W        W49156   9.185  18.470  10.163
80752W        W49157  42.416   4.660  12.371
80753W        W49158  33.869  35.045   4.744
80754W        W49159  35.331   3.475  11.126
80755W        W49160  36.599  43.988  11.968
80756W        W49161  32.662  13.343  13.369
80757W        W49162   8.162   7.871  14.927
80758W        W49163   4.668   0.700  11.064
80759W        W49164  44.319  25.270  12.411
80760W        W49165  18.477  12.399  13.394
80761W        W49166  33.580  10.242   1.267
80762W        W49167  28.483  30.824   0.859
80763W        W49168  15.131  22.116   0.490
80764W        W49169  41.912  29.443   2.221
80765W        W49170  42.490  11.705   0.828
80766W        W49171   1.859   6.610  14.618
80767W        W49172  31.612  36.541  12.506
80768W        W49173  18.973  12.870   4.201
80769W        W49174   4.034  23.174  11.544
80770W        W49175   3.467  12.192   1.802
80771W        W49176  43.123  33.902  10.888
80772W        W49177   8.750  31.481   1.398
80773W        W49178  32.883  31.661  13.466
80774W        W49179  17.704  28.391   2.329
80775W        W49180  14.742   5.412  14.979
80776W        W49181  22.879  14.793   1.855
80777W        W49182  40.755  25.585   3.538
80778W        W49183  14.750  21.624  12.917
80779W        W49184   1.948  24.022   4.641
80780W        W49185  15.884   6.402   2.194
80781W        W49186  36.798  11.439   1.212
80782W        W49187   6.469  33.530   3.530
80783W        W49188  14.492  19.044   2.369
80784W        W49189  25.283  29.875   0.932
80785W        W49190  24.616  41.515   0.980
80786W        W49191  35.142  39.090  13.886
80787W        W49192  29.940  15.349   3.096
80788W        W49193  18.732  41.732  14.340
80789W        W49194  42.784   1.269   2.770
80790W        W49195   9.315  41.973  13.970
80791W        W49196  10.619  20.177  13.514
80792W        W49197   9.283  22.458  13.027
80793W        W49198  44.948  44.916  11.655
80794W        W49199  10.251  23.485   0.265
80795W        W49200  33.405  37.014   1.266
80796W        W49201   1.971  40.095  11.968
80797W        W49202  18.292  19.161   1.986
80798W        W49203   0.190  34.531  13.534
80799W        W49204  16.162  28.745  12.951
80800W        W49205  44.638  34.882  11.206
80801W        W49206   7.261  18.237   1.891
80802W        W49207  30.406  18.813   4.638
80803W        W49208   8.678   8.372  12.372
80804W        W49209   4.989  26.772  12.641
80805W        W49210  19.507  22.861   0.418
80806W        W49211   8.665  10.176  13.892
80807W        W49212  24.801  36.133   1.494
80808W        W49213  41.586  20.257  12.843
80809W        W49214   0.422  37.950   0.552
80810W        W49215  35.447  28.180  13.078
80811W        W49216  19.212  35.980  13.728
80812W        W49217  33.389   9.604  12.297
80813W        W49218  19.957  43.498  12.611
80814W        W49219  35.047  28.193  13.426
80815W        W49220  27.079  15.602   1.660
80816W        W49221  38.384   3.075   4.473
80817W        W49222  13.164  22.498   0.354
80818W        W49223   1.884  13.058  12.160
80819W        W49224  18.060  34.560  12.748
80820W        W49225  29.419   2.954  10.635
80821W        W49226   1.995  18.113   1.173
80822W        W49227  38.570  10.207  13.882
80823W        W49228  33.415  43.846   1.005
80824W        W49229  18.958   1.722   2.657
80825W        W49230  14.769  21.048  13.795
80826W        W49231  25.271  24.523   2.711
80827W        W49232  20.052  40.503   4.111
80828W        W49233  43.935   5.116   1.785
80829W        W49234   4.270   5.443   2.888
80830W        W49235  18.224  10.779   5.124
80831W        W49236  11.145  40.040   1.935
80832W        W49237  31.605   9.458   2.648
80833W        W49238  22.773  39.885   0.007
80834W        W49239   7.229  10.159  11.227
80835W        W49240  31.513  14.051  13.649
80836W        W49241  13.354  44.843  13.392
80837W        W49242  41.534  16.722  13.322
80838W        W49243  15.787   2.686   1.920
80839W        W49244   0.099   2.877  10.650
80840W        W49245  32.166  20.573   1.832
80841W        W49246   9.145  15.729  12.626
80842W        W49247   4.210  18.251  14.046
80843W        W49248  16.371  18.127  10.748
80844W        W49249  17.005   9.677   2.556
80845W        W49250   4.459   7.366   5.051
80846W        W49251   6.234  31.643   2.402
80847W        W49252  11.597  11.734  12.164
80848W        W49253  18.090  33.525  14.706
80849W        W49254  22.082  35.744   2.239
80850W        W49255  38.397   4.393  11.731
80851W        W49256   3.773  37.950   0.813
80852W        W49257   0.941   9.155  12.634
80853W        W49258  15.734  14.680   4.108
80854W        W49259  34.501  17.666  14.593
80855W        W49260  41.979  15.662  10.964
80856W        W49261  19.082  25.081   0.474
80857W        W49262  39.474   9.878   2.980
80858W        W49263  29.821  44.302  11.476
80859W        W49264  26.314  37.467  14.033
80860W        W49265  32.638  32.344  11.120
80861W        W49266  31.810  34.672   4.160
80862W        W49267  11.828  42.305  13.455
80863W        W49268  29.903  26.273  12.956
80864W        W49269  24.619   7.171   3.335
80865W        W49270  33.218   4.729   4.540
80866W        W49271  23.949  43.466  11.544
80867W        W49272  14.400   2.916   4.060
80868W        W49273  21.693  20.011   0.747
80869W        W49274   6.944  30.264   4.044
80870W        W49275  21.475   3.834   3.740
80871W        W49276   5.194  22.341   3.227
80872W        W49277  17.356  41.754   2.281
80873W        W49278   2.625  42.076   0.414
80874W        W49279  36.278  21.745  11.665
80875W        W49280  26.514  15.638  12.341
80876W        W49281   9.439  30.718   5.111
80877W        W49282  28.490  10.711   0.274
80878W        W49283  40.363  43.736   3.842
80879W        W49284  33.134   6.358   0.541
80880W        W49285  38.835   2.077   2.302
80881W        W49286  10.748  22.724   0.448
80882W        W49287  15.553   2.271   1.276
80883W        W49288   2.273   5.341  10.975
80884W        W49289   2.465  43.944  12.092
80885W        W49290  14.983   2.197  12.561
80886W        W49291  25.987  32.041  12.933
80887W        W49292  43.302   5.581  12.686
80888W        W49293  37.046  27.440  10.580
80889W        W49294   9.887  10.307   2.313
80890W        W49295  25.010   7.332   1.086
80891W        W49296   6.237  40.988   4.650
80892W        W49297   1.709  24.295  11.226
80893W        W49298  41.244  37.309   3.261
80894W        W49299   2.910   3.814   1.186
80895W        W49300   2.608  35.939  12.147
80896W        W49301  36.407  14.043   0.974
80897W        W49302  22.150  35.590   0.455
80898W        W49303   6.493  27.243  11.462
80899W        W49304  16.148   9.937   0.012
80900W        W49305  26.475   7.432   1.283
80901W        W49306  26.709  41.464   1.576
80902W        W49307  14.070   2.524  10.851
80903W        W49308  34.879   7.675  13.505
80904W        W49309  25.463  30.295  12.094
80905W        W49310  25.566  38.512   3.102
80906W        W49311  33.435  15.590   3.572
80907W        W49312  36.500  44.411   0.310
80908W        W49313  32.569  11.119  13.215
80909W        W49314  34.651   6.257  11.074
80910W        W49315  35.951  23.587   1.928
80911W        W49316  21.064   4.290  11.450
80912W        W49317  40.041  39.329   0.580
80913W        W49318   1.937  42.060  10.537
80914W        W49319  21.384  15.071  11.808
80915W        W49320  37.793  21.816   1.468
80916W        W49321  37.384  34.381  11.695
80917W        W49322  36.124  44.462  10.132
80918W        W49323  37.620   0.858  11.562
80919W        W49324   8.682   3.936  11.681
80920W        W49325   6.715  38.309   0.482
80921W        W49326  22.196  42.301   2.251
80922W        W49327  24.059  20.762   1.249
80923W        W49328  30.783  11.743   0.512
80924W        W49329  30.421  10.037   0.806
80925W        W49330  28.602  28.565   1.834
80926W        W49331  39.227   1.297   5.031
80927W        W49332  34.139   8.288  12.344
80928W        W49333   2.947  35.454  12.837
80929W        W49334   8.295   5.468  13.430
80930W        W49335  25.746  17.062   4.976
80931W        W49336  44.228  17.672  11.966
80932W        W49337  21.616  23.038  11.880
80933W        W49338  37.926  37.086  11.559
80934W        W49339   4.638  43.531  11.541
80935W        W49340   0.387   4.897   1.652
80936W        W49341  39.173   9.944   0.370
80937W        W49342  40.573  13.309  11.645
80938W        W49343  44.332  36.331   1.685
80939W        W49344   6.201  43.006   0.379
80940W        W49345  18.522   4.374  11.149
80941W        W49346  15.169  44.880   4.381
80942W        W49347  36.365  12.809   1.188
80943W        W49348  14.653   4.703   1.698
80944W        W49349  25.844   1.195   9.802
80945W        W49350   9.115  14.179  12.379
80946W        W49351  29.947   5.643  13.355
80947W        W49352  28.627  42.268   3.289
80948W        W49353  32.658  26.699  12.965
80949W        W49354  10.086  14.566  14.002
80950W        W49355   9.388  37.436   2.277
80951W        W49356  20.671  14.257  13.751
80952W        W49357  25.177  33.291  10.806
80953W        W49358  24.747  42.848  13.532
80954W        W49359   5.823  24.990  13.621
80955W        W49360  39.391  35.888   3.852
80956W        W49361  42.272   3.847   3.301
80957W        W49362   5.546  31.419  12.501
80958W        W49363  39.042  23.440  13.801
80959W        W49364  24.625  24.944   0.902
80960W        W49365  19.216  30.526   0.746
80961W        W49366  38.826  44.908  13.357
80962W        W49367  32.496   9.744   4.630
80963W        W49368  42.628  13.243   5.091
80964W        W49369   7.922  28.193   2.077
80965W        W49370  11.275   7.316  10.436
80966W        W49371   1.559   7.258   0.945
80967W        W49372  42.843  31.677   4.541
80968W        W49373  28.488  39.415  11.227
80969W        W49374  13.676  36.346  14.862
80970W        W49375  13.740  40.459  12.021
80971W        W49376  35.834   3.768   1.189
80972W        W49377  33.514  20.710  11.673
80973W        W49378  15.054   4.244   1.054
80974W        W49379  38.396  32.911   3.257
80975W        W49380  42.059  36.573   1.307
80976W        W49381  18.450   1.903  11.802
80977W        W49382   3.324  13.794   0.365
80978W        W49383  31.246  43.064   1.798
80979W        W49384   2.813  27.293   1.174
80980W        W49385  21.069   7.327   1.794
80981W        W49386  16.321  25.074   0.848
80982W        W49387  26.857  43.026   3.679
80983W        W49388  13.052  14.146   1.331
80984W        W49389  13.650   5.006  12.420
80985W        W49390  14.191   0.093   2.372
80986W        W49391   3.671  26.949  11.339
80987W        W49392  26.930  27.554   1.799
80988W        W49393  18.275   1.379   4.086
80989W        W49394  39.706   6.920   0.701
80990W        W49395  37.560  24.445   2.233
80991W        W49396  26.602  44.491   0.441
80992W        W49397  35.307  31.001   1.931
80993W        W49398  10.989  37.346  12.438
80994W        W49399  36.142   3.423  10.686
80995W        W49400  36.141  23.213  11.669
80996W        W49401  13.642  24.245   5.121
80997W        W49402   6.407  10.083   4.577
80998W        W49403  30.263  17.216  14.308
80999W        W49404   1.853  37.429   3.630
81000W        W49405  42.317  15.927  12.004
81001W        W49406  25.106  17.294  11.128
81002W        W49407  35.653  27.801  11.575
81003W        W49408  36.876  19.640   2.577
81004W        W49409  25.967   7.445  11.424
81005W        W49410   9.624   4.775   3.666
81006W        W49411   0.106   5.703   4.091
81007W        W49412   1.475  20.298   1.232
81008W        W49413  40.249  36.087  12.856
81009W        W49414  28.228  36.320   3.279
81010W        W49415  20.714   7.936   5.006
81011W        W49416  44.989   8.439   0.443
81012W        W49417  16.822  16.920   2.309
81013W        W49418   2.255   5.431  11.938
81014W        W49419  24.774  39.480  12.429
81015W        W49420  24.573  29.187  10.333
81016W        W49421   4.322  28.470  13.956
81017W        W49422  18.761  43.014   9.885
81018W        W49423  25.687  35.106  11.190
81019W        W49424   7.157   0.448  14.704
81020W        W49425  39.189   7.585  13.633
81021W        W49426  23.700  34.547   4.078
81022W        W49427  15.094  32.363   2.230
81023W        W49428   9.245  14.346  11.883
81024W        W49429  14.011  38.593  11.122
81025W        W49430   3.928  16.143  13.839
81026W        W49431  35.532  40.455   4.600
81027W        W49432  25.428  44.256   3.749
81028W        W49433  21.581  33.098  12.537
81029W        W49434  39.081   7.228   1.658
81030W        W49435  28.684  39.217  12.923
81031W        W49436  40.296  32.922   3.866
81032W        W49437  11.436  33.954   3.676
81033W        W49438  16.721  36.527   1.859
81034W        W49439  17.037  22.336   1.363
81035W        W49440  17.898  38.061   3.365
81036W        W49441  21.547  32.142  12.536
81037W        W49442   5.731  29.956   4.203
81038W        W49443  41.508  19.848   4.071
81039W        W49444  40.588  22.918   2.702
81040W        W49445   4.745  32.302   3.597
81041W        W49446  30.547  16.956   4.690
81042W        W49447  39.893  19.739  13.117
81043W        W49448  40.954  26.221  13.929
81044W        W49449  11.711  41.450  12.416
81045W        W49450  28.137  10.006  13.840
81046W        W49451  33.868  28.842  13.869
81047W        W49452  26.756  26.045   1.160
81048W        W49453  40.383  34.064  10.958
81049W        W49454  13.261  17.443   1.439
81050W        W49455   5.298   6.260   3.707
81051W        W49456  26.153  19.044  11.927
81052W        W49457   1.635  35.381  12.806
81053W        W49458   7.327  40.944  12.958
81054W        W49459  30.876  27.553   1.797
81055W        W49460  40.909  23.017  14.981
81056W        W49461  18.408  13.135   3.403
81057W        W49462  43.218   2.458  11.546
81058W        W49463  35.359  35.099   4.379
81059W        W49464   9.667   5.800  13.628
81060W        W49465  12.482  37.329   4.213
81061W        W49466  39.220  19.243  13.539
81062W        W49467  25.146  23.087  13.264
81063W        W49468  25.978  39.447  10.251
81064W        W49469  29.731   7.363   3.291
81065W        W49470  40.984  36.162  12.108
81066W        W49471  42.459  16.255   2.309
81067W        W49472  17.343  34.798   2.838
81068W        W49473   1.317  10.923  11.500
81069W        W49474  34.629   0.858   5.043
81070W        W49475   8.201  13.918  14.077
81071W        W49476  20.690  41.973   4.873
81072W        W49477  31.066  23.051   2.814
81073W        W49478  40.313  35.042  10.205
81074W        W49479  37.941  37.409   3.898
81075W        W49480  26.136  44.310  13.340
81076W        W49481  28.963  11.231  11.383
81077W        W49482   4.973  28.126  11.602
81078W        W49483   0.392   5.803  12.536
81079W        W49484  17.852  28.708  14.825
81080W        W49485  30.006   9.745  11.678
81081W        W49486  13.762  24.689   0.453
81082W        W49487   7.797  44.030   0.357
81083W        W49488  21.507  36.117  12.606
81084W        W49489  22.650   3.943   0.376
81085W        W49490  44.993   8.944  13.901
81086W        W49491  36.062  38.793  11.161
81087W        W49492   3.901  24.428   1.491
81088W        W49493  25.743  41.227   0.796
81089W        W49494  17.106  18.485  11.286
81090W        W49495  11.307  31.019   0.173
81091W        W49496  30.556  27.022   1.330
81092W        W49497  21.812  21.618  12.972
81093W        W49498  13.351  10.264  12.363
81094W        W49499   1.413   9.021  11.511
81095W        W49500   9.219  26.042   2.085
81096W        W49501   7.634  30.229  14.820
81097W        W49502  19.909  26.083   3.670
81098W        W49503  35.369  15.104   3.789
81099W        W49504  35.075   3.166  14.258
81100W        W49505  37.549  32.453   2.446
81101W        W49506  11.625  17.094   2.532
81102W        W49507  29.923  13.391  12.497
81103W        W49508  33.909   8.768  14.017
81104W        W49509  31.610  24.004  12.435
81105W        W49510  29.338  40.150  11.241
81106W        W49511  14.717  33.364  12.473
81107W        W49512  16.187   7.611  11.349
81108W        W49513   6.179  25.687   1.782
81109W        W49514   1.802   5.637  13.377
81110W        W49515  21.237  14.845  10.829
81111W        W49516  42.733  35.991   0.050
81112W        W49517   1.901   6.092  14.510
81113W        W49518  20.876  39.819  13.470
81114W        W49519  32.633  13.838  11.490
81115W        W49520  22.071   6.241  11.652
81116W        W49521  32.798  25.555  12.544
81117W        W49522  26.950   7.187   0.379
81118W        W49523  23.990  33.601  12.558
81119W        W49524  13.372  32.370   4.091
81120W        W49525  35.775  19.104   1.710
81121W        W49526  26.234  14.693   3.834
81122W        W49527  20.256  21.528   4.178
81123W        W49528  40.840  37.952   0.338
81124W        W49529  28.982  44.220   1.373
81125W        W49530  39.326  38.364   1.628
81126W        W49531  34.677  25.807   4.790
81127W        W49532   8.688  16.525  11.670
81128W        W49533  40.598  32.269   1.187
81129W        W49534  17.865  28.002  10.813
81130W        W49535  26.020  41.948  11.427
81131W        W49536  11.540  24.521   4.574
81132W        W49537  33.631  19.635   2.222
81133W        W49538  12.828   9.911  12.998
81134W        W49539  27.566  31.381  14.704
81135W        W49540   0.961  30.552   2.793
81136W        W49541   8.809  42.475   4.617
81137W        W49542  22.001  28.910  12.494
81138W        W49543  42.508  13.688   2.155
81139W        W49544  10.292   3.407  13.110
81140W        W49545   5.113  19.056  12.726
81141W        W49546  25.964  12.700  10.628
81142W        W49547  24.146   5.359   3.378
81143W        W49548  24.541  26.924   3.685
81144W        W49549  43.956  41.990  12.644
81145W        W49550  21.152  22.174  12.838
81146W        W49551   4.822  17.178  14.507
81147W        W49552  43.009  19.324   2.229
81148W        W49553  16.809  19.213   2.852
81149W        W49554   4.395  34.869   3.434
81150W        W49555   3.414  39.275   1.150
81151W        W49556  31.833  10.487  14.869
81152W        W49557   1.535  15.322   1.363
81153W        W49558   0.037   7.839   3.699
81154W        W49559   4.777   7.680  11.004
81155W        W49560  21.617  36.807   3.549
81156W        W49561   0.638  20.934   4.136
81157W        W49562  32.927  30.716  10.748
81158W        W49563  21.061   8.684   2.802
81159W        W49564  22.530  13.367   1.697
81160W        W49565  34.963  27.657  13.396
81161W        W49566  15.941  25.861  12.116
81162W        W49567   7.304  35.041  13.564
81163W        W49568  35.492   4.474  12.615
81164W        W49569   2.376  20.599   3.357
81165W        W49570  43.390  11.313   4.072
81166W        W49571  23.142  37.008  12.588
81167W        W49572  25.226  31.154   1.467
81168W        W49573  23.130  35.912   0.418
81169W        W49574  43.548  18.344  13.920
81170W        W49575  32.098  39.123   4.317
81171W        W49576  23.596   2.733   2.182
81172W        W49577  27.286  11.575  10.575
81173W        W49578  18.486  10.637  12.837
81174W        W49579  13.844  44.077   4.501
81175W        W49580   3.240  34.906   1.938
81176W        W49581  11.023   6.425   1.311
81177W        W49582  16.086  19.222  12.798
81178W        W49583  32.643  38.934  10.757
81179W        W49584  38.346   9.041   4.543
81180W        W49585  29.651  31.774   4.598
81181W        W49586  17.299  19.852  12.288
81182W        W49587   2.982   8.354  12.436
81183W        W49588  34.557  21.696   1.827
81184W        W49589  28.372  32.230   5.019
81185W        W49590   5.483  36.377   3.200
81186W        W49591  19.746  20.644  11.411
81187W        W49592  40.460  37.907  10.800
81188W        W49593  28.944   0.000   4.403
81189W        W49594  12.365   0.732  14.270
81190W        W49595  18.250   8.727   3.860
81191W        W49596  15.204   8.901   4.458
81192W        W49597  39.604  31.448   2.678
81193W        W49598   7.833  16.827  11.961
81194W        W49599  40.635  12.166   0.849
81195W        W49600   7.422  31.068   4.196
81196W        W49601   0.874  18.458   0.375
81197W        W49602  40.961  15.481   0.683
81198W        W49603  26.075  35.293   4.381
81199W        W49604  44.279  17.297   0.884
81200W        W49605  16.273  16.055  12.112
81201W        W49606   3.208   6.729  14.842
81202W        W49607  14.169  40.400  12.476
81203W        W49608  19.132   1.801   4.041
81204W        W49609  31.269   4.432  11.284
81205W        W49610  35.663  42.044  14.001
81206W        W49611  28.700  12.256  12.060
81207W        W49612  40.941  31.179   3.801
81208W        W49613   9.581  30.691  11.695
81209W        W49614  15.466   4.411   4.106
81210W        W49615  34.383  35.449   3.936
81211W        W49616   8.030   6.166  10.730
81212W        W49617  36.386   8.576  12.120
81213W        W49618  15.714   3.460   3.727
81214W        W49619  22.318  15.569  14.572
81215W        W49620  20.357   3.872  10.948
81216W        W49621  36.189  27.908   1.802
81217W        W49622  35.601  30.219   2.943
81218W        W49623   2.943   1.382  13.497
81219W        W49624  30.131  44.974   1.700
81220W        W49625   8.904  39.338  13.946
81221W        W49626   4.430  40.506  14.544
81222W        W49627  27.431  29.249   5.037
81223W        W49628  27.987  24.645   4.839
81224W        W49629  27.445  16.280  14.540
81225W        W49630  31.843  10.670   1.705
81226W        W49631  39.971   5.188   2.865
81227W        W49632   4.291  28.168   0.815
81228W        W49633   2.362   7.506   0.750
81229W        W49634  15.599  25.719  13.325
81230W        W49635   7.004  41.008  14.075
81231W        W49636  18.756  30.482  11.198
81232W        W49637  17.384  18.725  10.199
81233W        W49638  17.073  12.609   5.046
81234W        W49639  29.264   0.105  13.915
81235W        W49640   2.279  31.859  11.006
81236W        W49641   5.011  40.810  10.698
81237W        W49642  35.558  31.907   0.331
81238W        W49643  44.848  23.812   1.806
81239W        W49644   5.400   0.527  11.950
81240W        W49645   5.061  39.220  11.855
81241W        W49646  39.345  24.451   1.256
81242W        W49647  26.494  29.978   2.829
81243W        W49648  20.598  43.874   2.601
81244W        W49649  12.711  23.076   2.821
81245W        W49650  24.690  32.486   2.432
81246W        W49651  20.507  33.368   2.823
81247W        W49652   8.722  18.345  11.930
81248W        W49653  39.542  19.669   2.865
81249W        W49654  36.664  24.935  13.837
81250W        W49655  40.921  24.737  12.390
81251W        W49656  39.503  16.303   1.679
81252W        W49657  31.542  43.919   2.395
81253W        W49658  37.815   2.249   4.223
81254W        W49659   2.017  42.389   3.137
81255W        W49660  31.468   9.558   4.108
81256W        W49661  28.789  41.532   2.919
81257W        W49662  36.956  29.244   3.881
81258W        W49663  13.489   6.444  10.342
81259W        W49664  36.967  25.674  12.978
81260W        W49665  41.001   8.905   1.072
81261W        W49666   0.903  17.264   0.978
81262W        W49667  17.638  19.491  12.726
81263W        W49668   2.482  24.654   1.304
81264W        W49669  36.333  13.603  11.582
81265W        W49670  42.836  21.525  12.984
81266W        W49671   9.706  40.531   0.381
81267W        W49672  33.113   9.100   2.244
81268W        W49673  20.043  43.397   1.003
81269W        W49674   8.248  15.709  12.599
81270W        W49675  44.999  28.126  11.054
81271W        W49676   7.814  36.578  14.978
81272W        W49677  18.469  23.279  11.629
81273W        W49678  18.482   0.986  13.764
81274W        W49679  42.455  33.010   2.186
81275W        W49680   8.298  14.377   4.233
81276W        W49681  29.541   6.389   1.764
81277W        W49682  24.177  14.720  14.760
81278W        W49683  31.670  14.502  13.452
81279W        W49684  42.958  31.410  13.583
81280W        W49685  14.558  22.609   1.720
81281W        W49686  39.076  14.138  13.978
81282W        W49687   2.834  44.768  11.624
81283W        W49688   1.938  23.211   1.901
81284W        W49689  17.095   0.515   3.868
81285W        W49690  16.314  39.331  14.743
81286W        W49691  12.822  42.012   2.952
81287W        W49692  10.447  23.719  13.982
81288W        W49693  23.504   7.671   4.600
81289W        W49694   2.266   3.862  11.178
81290W        W49695  39.451   6.775   0.268
81291W        W49696  28.210  37.575  11.037
81292W        W49697  15.994  16.968   1.672
81293W        W49698  12.868  41.292  11.113
81294W        W49699  34.839  33.120   4.629
81295W        W49700  43.515   6.780  13.959
81296W        W49701   1.551   1.324   1.663
81297W        W49702  11.595  13.621   0.201
81298W        W49703  44.503  21.858   1.279
81299W        W49704  17.455  21.581   5.042
81300W        W49705  11.388  42.282  13.189
81301W        W49706  38.054  36.339  14.546
81302W        W49707   1.216  19.119   4.879
81303W        W49708  10.105  39.391   0.226
81304W        W49709   5.845  14.800  13.398
81305W        W49710  30.176  14.895   1.830
81306W        W49711  34.924  20.706   1.926
81307W        W49712  25.730  15.015  12.454
81308W        W49713   7.871  39.528   4.562
81309W        W49714   7.038   4.397   0.674
81310W        W49715   0.398  39.227   0.350
81311W        W49716  40.848  37.351   4.502
81312W        W49717   6.906  12.226  14.217
81313W        W49718  16.716  29.322   4.924
81314W        W49719  30.566  10.102  13.285
81315W        W49720  44.470   1.832   1.586
81316W        W49721   3.053   6.521   2.156
81317W        W49722   8.313   2.669  14.936
81318W        W49723  10.846  30.265   1.290
81319W        W49724  38.283  41.509  14.341
81320W        W49725  39.938  13.786   4.329
81321W        W49726  30.400  21.234   2.325
81322W        W49727  35.436  21.986  14.025
81323W        W49728   4.506   0.769  12.853
81324W        W49729  27.546   2.703   3.475
81325W        W49730  10.649   4.824  14.941
81326W        W49731   1.028  29.497  12.021
81327W        W49732  33.181  18.591  12.000
81328W        W49733   8.196  41.803  13.478
81329W        W49734  13.329  28.443   3.263
81330W        W49735   9.957  44.363   1.157
81331W        W49736  38.542   3.576   3.297
81332W        W49737  25.519   2.914  11.142
81333W        W49738  12.335   0.142   4.123
81334W        W49739   4.886  20.040  12.152
81335W        W49740  31.507  29.220   3.375
81336W        W49741  12.349  19.297   0.834
81337W        W49742  32.978  11.403   0.298
81338W        W49743   5.900   5.870  11.690
81339W        W49744   4.853  33.182  12.423
81340W        W49745  19.785  20.030   0.382
81341W        W49746  21.212  32.341   0.774
81342W        W49747  41.576  19.115  12.386
81343W        W49748  28.477  18.294   3.663
81344W        W49749  44.426  34.832   2.713
81345W        W49750  19.395  36.292  11.187
81346W        W49751  42.270  29.972   0.512
81347W        W49752  19.321  32.747   4.444
81348W        W49753  12.303  14.624  10.519
81349W        W49754  22.808  44.384   3.038
81350W        W49755  19.116  26.094  11.168
81351W        W49756  21.205  22.589   1.615
81352W        W49757  29.882  31.566   1.803
81353W        W49758   1.704  32.445   2.423
81354W        W49759  14.798   6.271  13.823
81355W        W49760   8.140  20.808   3.414
81356W        W49761  42.478   6.717  10.985
81357W        W49762  30.876  13.903   0.482
81358W        W49763  30.026  36.389   5.072
81359W        W49764  25.928  24.076  11.991
81360W        W49765  28.876   3.750  13.040
81361W        W49766  15.278  29.546   1.877
81362W        W49767  23.467   1.362   4.039
81363W        W49768  20.998  22.502  12.467
81364W        W49769  11.643  33.104   1.255
81365W        W49770  25.506  11.812   2.298
81366W        W49771  24.479   2.013   3.836
81367W        W49772  38.941  29.168   3.787
81368W        W49773  35.884  29.598   3.219
81369W        W49774  13.004  36.448   0.432
81370W        W49775  12.885   9.490   1.882
81371W        W49776  28.759  18.191   3.252
81372W        W49777  14.536  26.852  12.457
81373W        W49778  32.457   2.544   1.706
81374W        W49779  34.340  39.088  11.457
81375W        W49780  19.715  31.999  14.695
81376W        W49781   5.635  28.447   4.977
81377W        W49782  13.158  34.893  13.624
81378W        W49783  26.222  25.044  12.962
81379W        W49784   5.930  14.333   3.749
81380W        W49785  33.270  38.568   0.024
81381W        W49786  42.369  27.657   0.446
81382W        W49787  43.052  31.390   1.306
81383W        W49788  38.867  32.190   3.110
81384W        W49789   3.462  39.480  10.662
81385W        W49790  19.745   1.389   2.731
81386W        W49791   5.049   7.697  14.360
81387W        W49792  17.017  10.679   0.301
81388W        W49793  26.949   0.989   3.609
81389W        W49794  29.154   8.499   3.629
81390W        W49795  17.078   0.402   2.894
81391W        W49796  32.820  19.746   1.857
81392W        W49797  24.209  33.008  14.812
81393W        W49798  19.763   4.603   1.177
81394W        W49799   9.420  17.837   5.461
81395W        W49800  25.019  36.572   3.727
81396W        W49801  38.363  11.663  10.575
81397W        W49802  14.808   3.749  13.401
81398W        W49803   3.463   4.829  12.698
81399W        W49804   7.608  13.389  13.420
81400W        W49805  33.059  13.090  11.518
81401W        W49806   4.483  42.820  14.839
81402W        W49807  39.407  15.500   1.334
81403W        W49808   9.649  42.293  13.042
81404W        W49809  39.393  18.249   3.587
81405W        W49810  30.062  41.584   5.060
81406W        W49811  17.162  36.369  14.325
81407W        W49812  23.616  19.108   4.109
81408W        W49813  40.957  44.665   0.343
81409W        W49814  43.961  44.277  14.371
81410W        W49815   5.304  11.285   0.371
81411W        W49816  17.171  44.754   1.216
81412W        W49817   8.301  18.782   0.333
81413W        W49818  13.429   8.862   4.537
81414W        W49819  34.286  21.202   4.214
81415W        W49820  30.069  42.044  11.118
81416W        W49821  41.891  11.769  10.450
81417W        W49822  26.673  43.994   2.341
81418W        W49823  24.707  29.403  12.961
81419W        W49824  36.827   6.151   4.515
81420W        W49825  40.737  31.905   2.649
81421W        W49826  25.929  40.903   1.857
81422W        W49827   0.943  32.971   3.724
81423W        W49828  41.030   6.491   3.089
81424W        W49829  33.368   0.977  11.190
81425W        W49830  31.332  30.889   3.347
81426W        W49831  21.873  43.378   3.681
81427W        W49832   6.292  42.398   4.257
81428W        W49833  44.313   0.917  12.057
81429W        W49834  44.879  33.031  12.334
81430W        W49835  23.398  11.358  13.882
81431W        W49836  15.197   4.109  13.671
81432W        W49837   0.822   9.919   0.662
81433W        W49838  36.514  38.052   1.333
81434W        W49839   1.978  14.563  13.139
81435W        W49840   1.770   7.668   1.841
81436W        W49841  33.525  37.087   1.775
81437W        W49842  27.677   4.800   3.806
81438W        W49843  10.857  13.112   3.433
81439W        W49844  38.789  44.785  10.632
81440W        W49845  12.551  24.345   1.715
81441W        W49846  31.661   5.020   3.689
81442W        W49847   7.615  15.095  10.248
81443W        W49848  33.166  17.058  11.667
81444W        W49849  20.611  32.093   4.324
81445W        W49850   7.179   8.859  12.962
81446W        W49851  28.465   9.464  14.412
81447W        W49852  31.998  27.710  11.175
81448W        W49853  39.200  37.465  12.044
81449W        W49854   8.471   7.144   2.402
81450W        W49855  30.473  35.836  13.098
81451W        W49856  17.217  30.471   0.892
81452W        W49857  41.313   3.151   1.830
81453W        W49858   1.905  27.211   0.933
81454W        W49859  13.623  16.681   1.756
81455W        W49860   2.995  14.128  10.444
81456W        W49861  23.095  42.465   1.917
81457W        W49862  44.247  42.403  13.452
81458W        W49863  26.449  21.023  10.693
81459W        W49864  14.693  10.077  13.036
81460W        W49865  36.507  16.442   2.897
81461W        W49866  27.002  36.577   3.817
81462W        W49867  40.334  21.152  11.730
81463W        W49868  11.603  14.243  12.535
81464W        W49869  40.610  14.696  14.461
81465W        W49870  11.402  36.799   1.221
81466W        W49871  43.033   7.618   1.687
81467W        W49872  25.597  35.278   3.064
81468W        W49873   6.796  37.947  12.608
81469W        W49874   8.981  21.034   0.244
81470W        W49875   2.030  10.317   2.346
81471W        W49876  22.265  28.980   2.820
81472W        W49877   3.895  29.921   0.302
81473W        W49878   4.391  42.240  10.938
81474W        W49879  23.562  12.894  12.083
81475W        W49880  33.527   4.130  11.124
81476W        W49881   4.162  23.077   2.679
81477W        W49882  12.345  41.942   3.204
81478W        W49883  28.030  37.790  13.724
81479W        W49884   3.706   8.806   0.889
81480W        W49885  27.524   6.285   2.287
81481W        W49886  11.300  27.001   4.174
81482W        W49887  26.569  31.088   4.163
81483W        W49888   9.182  28.260   5.524
81484W        W49889  39.950  10.584  12.742
81485W        W49890  16.381  38.497   2.607
81486W        W49891  12.490   4.230   2.575
81487W        W49892  36.436  26.611  14.440
81488W        W49893  15.815  42.481   0.428
81489W        W49894  38.534  12.274   4.099
81490W        W49895  36.770  36.980  14.544
81491W        W49896  38.298   9.561   4.576
81492W        W49897  27.940  33.517   0.684
81493W        W49898  34.248  28.670   1.043
81494W        W49899  31.175  19.014  11.000
81495W        W49900  16.609   5.761  11.660
81496W        W49901  35.334  22.018   4.219
81497W        W49902  25.599  34.647  12.862
81498W        W49903  10.156   2.969   1.792
81499W        W49904  31.386   0.047  12.144
81500W        W49905  29.698  32.677  10.940
81501W        W49906  37.319  34.520  13.915
81502W        W49907  19.201  29.909  14.996
81503W        W49908  37.089  37.610  13.529
81504W        W49909  40.426  23.187  11.211
81505W        W49910  22.256   6.174  12.965
81506W        W49911  40.326   9.610  13.985
81507W        W49912   5.356  12.388  11.986
81508W        W49913  12.134   2.785  11.085
81509W        W49914  43.865  13.081  13.096
81510W        W49915  38.336  28.138  10.917
81511W        W49916  28.592  40.104   2.617
81512W        W49917  12.286  22.830   0.874
81513W        W49918   1.863  16.593  10.921
81514W        W49919   9.146  17.099   0.849
81515W        W49920  18.313  35.436   1.950
81516W        W49921  44.687   5.613  13.993
81517W        W49922  37.609  23.625  14.796
81518W        W49923  21.528  34.011   3.271
81519W        W49924  27.293  34.395   1.479
81520W        W49925  12.585   8.220   4.679
81521W        W49926  33.198  11.004   0.792
81522W        W49927  44.491  37.632  13.940
81523W        W49928  41.112   9.378   1.316
81524W        W49929  42.776  25.201   4.524
81525W        W49930  12.193  13.941   1.739
81526W        W49931  31.357  10.784   1.645
81527W        W49932   0.543  15.606   2.087
81528W        W49933  28.700  37.947   5.393
81529W        W49934  14.270  12.580   2.417
81530W        W49935  11.352  18.657  14.930
81531W        W49936  30.919  23.053   4.735
81532W        W49937  20.964  12.681  13.057
81533W        W49938  36.169  34.903  10.705
81534W        W49939  33.510  24.796   1.305
81535W        W49940  37.124  23.475  13.417
81536W        W49941   2.347  12.826   1.777
81537W        W49942  44.976   3.714  12.023
81538W        W49943  36.812   9.300  10.969
81539W        W49944  23.740  22.207  12.037
81540W        W49945  12.527  44.231  10.318
81541W        W49946  21.165  38.912   2.093
81542W        W49947   2.782  17.381  12.124
81543W        W49948  31.071  10.834  11.603
81544W        W49949  19.746  11.402  10.567
81545W        W49950  39.520  23.203  11.239
81546W        W49951  36.837  14.748   3.261
81547W        W49952  12.823  12.095   2.587
81548W        W49953   6.444  44.318   1.834
81549W        W49954  18.795  19.122  14.539
81550W        W49955  37.256  38.369  11.697
81551W        W49956  10.376  38.343  13.777
81552W        W49957  11.727  11.118   4.777
81553W        W49958  34.551   8.412   1.739
81554W        W49959  44.374   7.268   1.152
81555W        W49960  34.112   4.651  12.480
81556W        W49961   4.806  21.586   0.407
81557W        W49962  40.252  27.629  13.379
81558W        W49963  12.583  13.399  12.636
81559W        W49964  17.079  34.075   2.321
81560W        W49965   4.664  29.450  11.986
81561W        W49966  25.111   9.061  13.550
81562W        W49967  40.688  39.293  10.837
81563W        W49968  41.916  24.774   2.648
81564W        W49969  39.437  37.808   1.929
81565W        W49970  36.623  42.745   9.922
81566W        W49971  29.849  40.166   1.421
81567W        W49972  23.189  17.796   1.008
81568W        W49973   1.862  44.507   2.862
81569W        W49974   1.810   4.492  14.013
81570W        W49975  10.369  25.528   1.897
81571W        W49976  44.096  34.630  12.083
81572W        W49977  25.647  23.272  11.421
81573W        W49978  35.334  29.457  14.263
81574W        W49979   9.160  36.441   2.237
81575W        W49980  22.502   8.778   3.615
81576W        W49981  30.020   7.885   1.247
81577W        W49982   6.088   9.408   2.768
81578W        W49983   0.261  25.171   3.303
81579W        W49984  40.300  24.191  11.022
81580W        W49985  29.521  29.689  13.568
81581W        W49986  19.186  20.259  14.384
81582W        W49987  36.008  21.225  14.829
81583W        W49988  11.321  28.207  10.752
81584W        W49989  14.544   5.244   1.297
81585W        W49990  41.266  30.245  14.724
81586W        W49991  30.417  10.325  11.601
81587W        W49992  25.264   2.137  12.882
81588W        W49993  12.267  43.836  12.499
81589W        W49994   7.590   5.085   1.889
81590W        W49995  38.637  28.929   0.185
81591W        W49996  19.546  43.997   3.778
81592W        W49997  18.266  26.213   3.210
81593W        W49998  22.046  18.592  14.959
81594W        W49999  33.072   4.448   0.514
81595W        W50000  12.632  34.822   3.438
81596W        W50001  19.552   9.710   3.620
81597W        W50002  14.194  10.244  11.936
81598W        W50003  41.083  17.599   3.843
81599W        W50004   6.427  15.244   1.381
81600W        W50005  23.495  34.008   1.495
81601W        W50006  21.652  42.255   2.347
81602W        W50007  20.562  27.528   0.925
81603W        W50008   9.842  39.441  10.943
81604W        W50009   7.365  38.359  10.775
81605W        W50010  19.747  41.853  13.102
81606W        W50011   1.316   4.784   2.168
81607W        W50012  32.037  21.740  10.759
81608W        W50013  24.691  43.890   0.563
81609W        W50014  44.759  17.060  10.741
81610W        W50015  36.226  13.942   1.816
81611W        W50016  36.881  37.665   2.822
81612W        W50017   7.684   2.912  12.044
81613W        W50018  33.485  38.467  10.353
81614W        W50019  18.356   3.906  11.303
81615W        W50020  31.618  26.466  13.563
81616W        W50021  11.028  39.428  13.984
81617W        W50022  14.243  30.883  12.819
81618W        W50023  11.271  42.870   1.766
81619W        W50024  42.942   0.424   4.560
81620W        W50025  27.571   8.447   4.961
81621W        W50026  19.594  28.956  14.233
81622W        W50027  37.318  43.515  14.232
81623W        W50028   0.675  38.791   0.286
81624W        W50029   1.966  11.722   0.631
81625W        W50030  30.674  15.270  11.601
81626W        W50031   0.269  32.080  10.539
81627W        W50032  16.607  12.591  14.309
81628W        W50033   4.336  34.260   2.542
81629W        W50034  41.374   3.277  13.528
81630W        W50035  44.360  36.361  14.412
81631W        W50036   5.866  22.959   0.494
81632W        W50037  31.435   3.710  12.883
81633W        W50038  34.565  10.291  11.137
81634W        W50039  12.294  30.577  13.938
81635W        W50040  34.536  14.270   2.766
81636W        W50041  21.770  19.078   4.044
81637W        W50042  35.620   9.697   3.751
81638W        W50043  28.003   6.466   0.313
81639W        W50044  12.226  15.829   0.878
81640W        W50045  37.147  43.971   2.206
81641W        W50046  10.464  20.116  12.890
81642W        W50047   8.763  11.433   2.330
81643W        W50048  10.807  29.157  12.656
81644W        W50049  13.282  20.481   4.492
81645W        W50050   2.838  27.166   2.182
81646W        W50051   1.878   7.287  11.722
81647W        W50052  44.298   4.311  14.923
81648W        W50053  34.519  43.222  11.697
81649W        W50054  14.988  34.345   0.427
81650W        W50055  35.327   7.831  12.605
81651W        W50056  33.150   8.400  11.420
81652W        W50057  41.319   1.517   2.178
81653W        W50058  15.682  33.008  12.432
81654W        W50059  44.226  20.570  10.278
81655W        W50060  38.011  13.871   1.845
81656W        W50061  37.048   1.104   3.192
81657W        W50062  22.209  10.545  10.634
81658W        W50063  13.060  13.603  14.453
81659W        W50064   1.889   0.792  12.548
81660W        W50065  34.903  32.938  12.582
81661W        W50066  30.286  20.230   0.242
81662W        W50067   5.219  29.636   0.140
81663W        W50068  18.523   0.262  14.425
81664W        W50069  24.040  25.610   4.465
81665W        W50070  20.526  31.451  14.041
81666W        W50071  34.444  26.012   3.423
81667W        W50072  30.100  21.813  11.076
81668W        W50073  36.672  12.792  12.709
81669W        W50074  37.646  36.641  11.560
81670W        W50075  10.710  35.157  13.528
81671W        W50076  19.270  16.646   3.293
81672W        W50077   2.876  24.033  11.515
81673W        W50078  32.102  21.248  10.614
81674W        W50079  23.430  41.935  12.829
81675W        W50080  24.136  22.235   0.466
81676W        W50081   3.651  37.073  12.748
81677W        W50082  10.481  15.541   3.191
81678W        W50083  23.256  21.114  11.102
81679W        W50084  41.249  34.328  11.506
81680W        W50085  34.605  36.392  11.725
81681W        W50086   7.013   0.836  12.568
81682W        W50087  15.495  33.674   2.898
81683W        W50088  44.120   0.802  13.049
81684W        W50089  10.365  13.715   0.412
81685W        W50090  44.495   8.369  12.432
81686W        W50091  31.422  20.983   3.331
81687W        W50092   8.215  40.765  11.788
81688W        W50093  44.880  35.519  11.561
81689W        W50094   0.950  18.124   3.708
81690W        W50095   7.225  27.776   2.379
81691W        W50096   1.221   4.399   0.908
81692W        W50097  33.940  31.499  10.708
81693W        W50098  33.802   5.760   0.706
81694W        W50099  10.374   3.236   2.377
81695W        W50100  17.576  23.070  12.997
81696W        W50101  33.032  12.666   1.697
81697W        W50102  32.196  17.240   3.613
81698W        W50103  16.809  12.890  13.077
81699W        W50104  41.350  27.008  13.847
81700W        W50105  23.480  22.244   4.420
81701W        W50106  35.603   5.895   4.198
81702W        W50107  34.022   9.167   3.058
81703W        W50108  35.955   9.507  12.038
81704W        W50109   2.343  11.369   0.732
81705W        W50110  35.840  44.488   0.906
81706W        W50111  29.297   7.634   3.196
81707W        W50112   7.199  19.584  13.394
81708W        W50113  21.194   8.621   4.698
81709W        W50114  34.836  40.404  12.897
81710W        W50115  36.352   5.804   3.811
81711W        W50116  10.110  34.361   0.819
81712W        W50117   1.420  33.669  14.009
81713W        W50118  23.210  10.199  10.684
81714W        W50119  31.865   7.728  12.021
81715W        W50120  38.988  44.521  13.058
81716W        W50121  37.441  40.056  14.803
81717W        W50122  10.807  30.350  13.435
81718W        W50123  16.026  21.431   2.153
81719W        W50124  36.375  30.104   2.433
81720W        W50125  36.656  16.923   1.675
81721W        W50126   1.150  26.772   3.762
81722W        W50127  31.665  31.818   1.759
81723W        W50128  31.403  27.131  12.809
81724W        W50129   9.651  19.832  12.060
81725W        W50130  26.377  43.072   3.919
81726W        W50131   1.358  24.610  10.555
81727W        W50132  17.566   2.288   3.753
81728W        W50133  17.245  18.417  13.024
81729W        W50134   7.811   4.150  13.532
81730W        W50135  11.957  26.108   0.905
81731W        W50136  38.745   0.300  12.997
81732W        W50137  21.730  27.541  13.570
81733W        W50138  25.030   7.026  11.082
81734W        W50139  38.851   7.218  10.579
81735W        W50140  10.703  37.265   2.779
81736W        W50141  36.831  13.234   0.317
81737W        W50142  31.670  44.817  13.002
81738W        W50143   1.928  13.595  12.128
81739W        W50144  40.371  14.525  11.304
81740W        W50145  25.085   4.434  14.321
81741W        W50146  13.854   8.743  13.102
81742W        W50147  13.813  11.248  11.093
81743W        W50148  30.406  19.104  10.602
81744W        W50149  16.340  17.367  14.877
81745W        W50150   6.153  17.202   0.383
81746W        W50151  26.934  32.402  12.438
81747W        W50152  40.454  16.936   3.303
81748W        W50153  14.258  31.691   3.348
81749W        W50154   4.419  44.728  12.689
81750W        W50155  43.028  16.813   0.895
81751W        W50156   8.725  31.142   4.588
81752W        W50157  43.807  36.654   0.814
81753W        W50158  28.009  29.195   3.653
81754W        W50159  42.549  42.890  10.691
81755W        W50160   8.318  24.410   4.720
81756W        W50161  17.473   0.779  10.565
81757W        W50162   2.273  44.740  13.034
81758W        W50163  27.127   3.460   2.145
81759W        W50164  40.540  38.487  13.197
81760W        W50165  34.107  22.526   0.853
81761W        W50166   9.750   8.498  13.859
81762W        W50167  33.563  20.724   0.051
81763W        W50168   3.531  21.035  13.442
81764W        W50169  32.219   4.511  12.159
81765W        W50170  18.049  18.084   3.118
81766W        W50171  11.132  21.600  13.408
81767W        W50172  28.853  42.347  11.283
81768W        W50173  34.008  14.821  13.452
81769W        W50174  11.125  30.647   2.421
81770W        W50175   9.208  28.995   2.282
81771W        W50176   6.651  23.211   0.048
81772W        W50177  27.500  32.996   2.231
81773W        W50178  17.987  23.842  13.300
81774W        W50179   0.359  40.394   0.898
81775W        W50180  40.713   3.099   5.405
81776W        W50181   0.283  38.441  14.711
81777W        W50182  16.745  19.824   2.228
81778W        W50183   7.954  25.113  12.938
81779W        W50184  14.036  14.351  14.905
81780W        W50185  41.413   1.411   0.282
81781W        W50186  21.736  41.318   3.369
81782W        W50187  43.141  29.656  11.715
81783W        W50188  31.439  23.642  13.774
81784W        W50189  35.819  23.170   2.374
81785W        W50190  21.612  26.917  10.992
81786W        W50191  37.861  13.071  13.468
81787W        W50192   5.632   9.429  11.872
81788W        W50193   0.951   1.863   2.134
81789W        W50194  34.530   7.193  11.660
81790W        W50195   3.548  37.538  13.537
81791W        W50196  11.352  20.409   1.429
81792W        W50197  29.101  32.917  10.690
81793W        W50198  44.439  15.724   1.422
81794W        W50199  25.256  20.722  13.413
81795W        W50200  25.529   2.832  12.167
81796W        W50201  33.395  25.953   3.334
81797W        W50202  24.629  29.093   3.627
81798W        W50203  34.390  30.540  11.597
81799W        W50204  28.918  14.274   1.760
81800W        W50205  13.958  23.927   3.152
81801W        W50206  15.689  16.612  10.708
81802W        W50207  26.719  26.632   1.463
81803W        W50208  40.561  31.085   2.345
81804W        W50209  25.924  40.723  11.510
81805W        W50210  30.984  18.084   0.510
81806W        W50211  32.679  19.108   0.160
81807W        W50212   6.409  11.671   0.763
81808W        W50213  14.865  37.361  10.779
81809W        W50214  24.804  36.594  11.121
81810W        W50215   6.026  31.401   4.230
81811W        W50216  40.443   6.833   1.905
81812W        W50217  39.942   2.350   2.934
81813W        W50218  18.155   4.198  13.420
81814W        W50219  13.656  43.437   1.671
81815W        W50220  30.621   6.934   2.156
81816W        W50221   2.321  22.637   4.948
81817W        W50222  24.397  36.197   2.783
81818W        W50223  34.065  21.593  13.785
81819W        W50224   2.798  29.007  13.920
81820W        W50225   8.000  42.871   0.900
81821W        W50226  26.915  24.951   5.346
81822W        W50227  10.743  39.106  14.345
81823W        W50228  20.291  40.738   1.173
81824W        W50229   8.601  38.142  11.366
81825W        W50230  14.089  12.895  12.370
81826W        W50231  34.306  39.496  10.555
81827W        W50232  35.953  15.045  12.976
81828W        W50233  30.511  30.444   3.885
81829W        W50234  26.733  14.824   2.064
81830W        W50235  41.480  19.628   1.652
81831W        W50236  42.366  24.462   3.587
81832W        W50237  11.806  44.369   4.338
81833W        W50238  30.883  10.285   2.723
81834W        W50239  41.983  34.045   1.392
81835W        W50240  36.447   9.422  12.423
81836W        W50241  10.423  11.187  10.875
81837W        W50242  26.024  24.797  14.390
81838W        W50243  44.985  24.593  12.195
81839W        W50244  25.178  37.958  11.658
81840W        W50245  23.247  44.319   1.458
81841W        W50246  22.998  40.396   4.240
81842W        W50247   1.210  35.888  11.906
81843W        W50248   9.703  38.450  10.514
81844W        W50249  35.373  28.949  10.820
81845W        W50250  25.501  37.998   0.505
81846W        W50251  14.447  40.957   4.277
81847W        W50252  21.643  14.725  12.132
81848W        W50253  25.089   8.191   1.653
81849W        W50254  28.070  18.322  11.936
81850W        W50255   4.146   8.282  11.369
81851W        W50256  13.208  16.804   4.900
81852W        W50257  43.248  24.750   3.466
81853W        W50258   3.039  36.086   0.342
81854W        W50259  16.572  22.616  10.628
81855W        W50260  42.052   1.264  12.489
81856W        W50261   8.143  28.239   0.006
81857W        W50262  19.679   2.097   0.925
81858W        W50263  17.517  29.089  11.705
81859W        W50264  39.576  31.393  14.859
81860W        W50265  41.876   1.780   1.194
81861W        W50266  15.389  18.009  10.764
81862W        W50267  30.857  43.230  13.966
81863W        W50268  35.125  26.699   1.637
81864W        W50269  20.966  42.262  14.349
81865W        W50270   4.102  16.727  11.157
81866W        W50271   1.856  39.539   4.553
81867W        W50272  28.144  20.037   0.271
81868W        W50273  30.565  30.464  12.672
81869W        W50274  36.308   3.512  13.873
81870W        W50275  17.631  35.551  13.622
81871W        W50276  33.894  36.407  13.822
81872W        W50277  19.275  15.221   0.738
81873W        W50278  27.478  21.004   4.142
81874W        W50279  43.380   1.856   3.239
81875W        W50280   2.742   2.868   2.561
81876W        W50281  21.404  12.741   5.085
81877W        W50282  28.455  35.570   2.866
81878W        W50283  13.149  41.931  11.409
81879W        W50284  39.819  16.992  13.908
81880W        W50285  32.147  29.490  11.968
81881W        W50286   0.927  10.852   2.760
81882W        W50287  21.178  10.289   4.477
81883W        W50288   3.425  23.234  12.904
81884W        W50289  21.499  40.112  11.842
81885W        W50290  32.408   2.980   4.563
81886W        W50291  15.617  26.638   0.877
81887W        W50292  39.368   9.765  13.782
81888W        W50293  41.098  21.120  11.303
81889W        W50294  42.197   5.893  12.836
81890W        W50295  43.057  34.953   2.793
81891W        W50296   7.817   4.674   3.332
81892W        W50297  44.764  35.566  14.299
81893W        W50298  31.977  44.555   0.697
81894W        W50299   0.255  22.463   0.846
81895W        W50300  12.159  32.921  12.902
81896W        W50301  32.027  14.829  12.125
81897W        W50302  26.515  20.008  14.998
81898W        W50303  28.200  15.624  13.970
81899W        W50304  40.826   8.398   2.938
81900W        W50305  42.287  25.689  14.241
81901W        W50306  32.597   6.280  11.174
81902W        W50307  39.475  37.908   2.952
81903W        W50308  10.569   8.655   4.083
81904W        W50309  21.971   4.856  11.052
81905W        W50310  32.443  42.411   0.849
81906W        W50311   3.150  18.174   1.760
81907W        W50312  34.890  10.216   3.308
81908W        W50313   6.325  30.914  10.666
81909W        W50314   9.979  26.072  10.291
81910W        W50315  40.416  44.930   2.921
81911W        W50316  21.950   8.889   2.752
81912W        W50317  31.945  29.504   2.252
81913W        W50318  23.243  19.145   5.002
81914W        W50319   5.933  25.988  13.306
81915W        W50320  38.919  24.191   3.461
81916W        W50321   0.526  31.611   4.555
81917W        W50322  12.752   5.303   0.676
81918W        W50323   6.446   0.967   4.088
81919W        W50324   1.285  39.865   1.222
81920W        W50325  12.845  27.229  12.402
81921W        W50326  13.580  26.171  14.820
81922W        W50327  34.088  33.585   4.600
81923W        W50328  15.997  32.836  12.909
81924W        W50329   6.735  12.229  12.040
81925W        W50330  16.061  23.308   5.216
81926W        W50331  26.161  21.581   3.685
81927W        W50332   3.837   1.984   5.073
81928W        W50333  38.362  24.490   2.575
81929W        W50334   6.434   8.851   1.219
81930W        W50335  13.097  12.143   0.360
81931W        W50336  31.186  36.524  11.679
81932W        W50337  36.431  11.858  10.809
81933W        W50338   7.215   0.808  12.103
81934W        W50339  30.065  42.556   2.222
81935W        W50340  11.856   5.912   1.890
81936W        W50341  44.434   1.542  14.399
81937W        W50342   0.469  29.549  11.956
81938W        W50343  27.838  29.057   2.263
81939W        W50344  23.007  11.841  10.990
81940W        W50345   0.783  29.095  13.340
81941W        W50346  12.165  12.156  11.144
81942W        W50347   3.453  12.328   4.066
81943W        W50348   0.820  29.021   0.223
81944W        W50349  16.042  20.882   3.595
81945W        W50350   6.931  19.842  14.275
81946W        W50351  43.894  37.090   1.690
81947W        W50352  16.663  13.448  14.824
81948W        W50353  25.613  31.994  13.957
81949W        W50354  42.805  34.822  13.492
81950W        W50355  44.333  34.448  12.496
81951W        W50356  37.426  25.801   4.210
81952W        W50357  34.493  22.311   2.264
81953W        W50358   0.388  43.819  11.388
81954W        W50359  34.151  25.090   1.338
81955W        W50360  22.038  17.822   0.361
81956W        W50361  25.976  10.108   3.621
81957W        W50362  21.829   0.401   1.953
81958W        W50363  11.853  29.945   1.479
81959W        W50364  42.623   5.813   4.119
81960W        W50365   9.410  22.256  12.522
81961W        W50366  24.203  10.046  10.819
81962W        W50367  24.115  23.610   1.676
81963W        W50368  22.595  38.360   1.773
81964W        W50369  34.727  14.792   4.189
81965W        W50370  30.334  35.537  12.594
81966W        W50371  13.197   8.785  14.520
81967W        W50372   6.659  12.346  10.776
81968W        W50373   6.696  13.640   1.828
81969W        W50374  40.075  19.617  11.830
81970W        W50375  21.240  12.696   3.500
81971W        W50376  14.825  27.319  12.502
81972W        W50377  38.097  15.627  13.486
81973W        W50378  13.308   3.396   4.664
81974W        W50379  26.358  17.190  14.950
81975W        W50380  15.581   1.534   5.443
81976W        W50381  11.364  29.014   4.207
81977W        W50382  19.307  36.375  14.955
81978W        W50383  39.792  22.748   4.424
81979W        W50384  22.968  17.313   2.214
81980W        W50385   8.850  20.716  10.665
81981W        W50386   4.312  23.411  12.396
81982W        W50387  11.210   1.789   0.479
81983W        W50388  16.548  26.492   0.744
81984W        W50389  39.805  10.157  13.622
81985W        W50390   2.366  21.813   1.553
81986W        W50391   5.761   8.682  11.166
81987W        W50392  22.434  23.057   0.216
81988W        W50393  41.193  38.645   4.138
81989W        W50394  24.609  36.049   0.019
81990W        W50395  20.199  42.757   5.117
81991W        W50396   7.927  42.204   2.430
81992W        W50397  14.915  32.690   3.095
81993W        W50398  32.455   5.885   4.292
81994W        W50399   1.772   9.533  12.807
81995W        W50400  16.578  34.052   2.152
81996W        W50401   9.905   0.313  12.594
81997W        W50402  10.669  43.436   2.883
81998W        W50403   0.177  13.207   2.872
81999W        W50404  38.918  10.672  11.977
82000W        W50405  25.568  15.594   4.142
82001W        W50406  26.069  15.753  14.376
82002W        W50407  20.668  36.897  14.388
82003W        W50408  43.285  26.557  10.238
82004W        W50409  44.825  31.784   4.052
82005W        W50410  37.939  11.840  10.338
82006W        W50411  17.247  19.754   5.028
82007W        W50412  39.573   2.042  12.928
82008W        W50413  19.593  37.073  12.984
82009W        W50414  30.485  33.340   2.522
82010W        W50415  17.882  10.010   4.536
82011W        W50416  14.261  43.531  14.411
82012W        W50417  17.082  15.059   0.237
82013W        W50418   0.890   1.471  10.342
82014W        W50419   5.945   5.219   3.276
82015W        W50420   3.695  41.211   0.053
82016W        W50421   6.272  32.919   1.453
82017W        W50422  37.738  15.203  13.509
82018W        W50423  34.595  35.027   0.145
82019W        W50424  21.115  40.054   5.084
82020W        W50425  20.265  32.965   3.051
82021W        W50426  27.230  30.966  12.101
82022W        W50427  13.812   5.481  12.462
82023W        W50428  19.064  30.344  14.727
82024W        W50429  13.782  41.508   0.886
82025W        W50430  23.666  26.975   2.714
82026W        W50431   8.376   1.723   0.399
82027W        W50432  42.271  34.881   1.984
82028W        W50433  29.359  44.576   2.283
82029W        W50434  26.075  17.305   0.365
82030W        W50435  33.410  22.474  13.318
82031W        W50436  30.960   8.475  13.952
82032W        W50437  21.768   7.978  11.942
82033W        W50438  30.404  12.713  11.191
82034W        W50439   8.920  44.755  12.982
82035W        W50440  23.684  30.954  13.409
82036W        W50441  34.820  17.333  10.117
82037W        W50442  43.903  31.206   2.349
82038W        W50443  33.489  27.986  12.954
82039W        W50444  12.465  24.449  13.422
82040W        W50445  12.685  32.522   3.006
82041W        W50446  32.888  19.793  13.481
82042W        W50447   2.407   1.705   0.481
82043W        W50448  35.348  13.352  12.093
82044W        W50449  32.589  12.323  13.807
82045W        W50450  26.040  25.044   3.737
82046W        W50451  22.343  31.070  14.513
82047W        W50452   1.285  41.985  12.197
82048W        W50453  41.013   1.739  11.603
82049W        W50454  21.288  11.012  10.492
82050W        W50455  13.810  27.279   2.896
82051W        W50456  34.992   4.831   0.342
82052W        W50457  37.268  35.885   0.168
82053W        W50458  25.727  16.238   1.589
82054W        W50459  22.560  16.776   1.631
82055W        W50460  35.507  39.099   3.357
82056W        W50461  43.409   4.240  13.325
82057W        W50462   8.998  36.044  13.910
82058W        W50463  13.830  26.042  13.332
82059W        W50464   4.756  42.213   3.228
82060W        W50465   9.660  28.126  14.944
82061W        W50466  40.013  44.262  13.002
82062W        W50467  21.029  38.880   1.234
82063W        W50468  43.870  33.411  12.642
82064W        W50469  43.302   3.372   1.522
82065W        W50470   1.004   0.899   1.204
82066W        W50471  32.926  33.399  10.631
82067W        W50472   5.202  19.155  14.441
82068W        W50473  40.735  37.000   1.459
82069W        W50474   9.804   6.718   0.226
82070W        W50475  28.174   5.840  11.088
82071W        W50476  20.782  32.219  11.051
82072W        W50477  18.843  25.611  10.129
82073W        W50478  38.824  28.567   4.531
82074W        W50479   0.854  19.987  12.102
82075W        W50480  44.396  25.217   1.645
82076W        W50481  33.423  22.447   5.070
82077W        W50482  30.511   2.992  14.253
82078W        W50483  17.402  20.273  12.595
82079W        W50484   0.859  17.375  13.034
82080W        W50485  23.140  34.975  10.719
82081W        W50486  21.549   5.887   1.379
82082W        W50487  10.573   9.682   4.043
82083W        W50488  16.112  22.287  11.879
82084W        W50489  38.358  42.472   2.835
82085W        W50490  32.607   2.187   1.313
82086W        W50491  30.578   5.869   3.478
82087W        W50492   4.923   0.292  12.828
82088W        W50493   5.768  19.007  13.378
82089W        W50494  19.099  28.660   2.819
82090W        W50495   0.842   2.544   2.613
82091W        W50496  22.998  15.697   1.923
82092W        W50497   3.776  30.992  13.867
82093W        W50498  10.193  16.810   3.145
82094W        W50499   0.282   7.817   0.909
82095W        W50500  26.564  21.526   4.180
82096W        W50501  31.546  19.683  11.932
82097W        W50502  16.045  40.884   3.682
82098W        W50503  39.892  36.438  14.339
82099W        W50504  21.304  41.576  13.748
82100W        W50505  10.983  31.724  13.493
82101W        W50506   9.222  22.997  13.027
82102W        W50507  43.817   9.408  13.853
82103W        W50508   8.481  11.595  14.327
82104W        W50509  32.565  39.113   3.176
82105W        W50510  26.399  40.625   1.017
82106W        W50511  20.035  34.410  10.719
82107W        W50512  26.214  28.126   3.311
82108W        W50513   8.823   8.012  11.851
82109W        W50514   7.218  33.929   4.247
82110W        W50515  26.331  11.846   0.541
82111W        W50516  44.953   6.947   5.479
82112W        W50517  13.298  31.615   0.478
82113W        W50518  43.470  13.486   2.251
82114W        W50519  34.873  41.057  14.364
82115W        W50520  40.421   3.329   5.005
82116W        W50521  43.487  13.689  10.466
82117W        W50522   0.257  38.985   4.104
82118W        W50523  34.424  16.264  14.552
82119W        W50524   4.787  11.164  10.741
82120W        W50525   8.334   9.216   3.637
82121W        W50526  21.975  44.536   1.091
82122W        W50527  29.766  32.451   3.157
82123W        W50528  14.806  42.031  13.123
82124W        W50529  10.157  32.380   0.957
82125W        W50530  26.597  21.031   0.663
82126W        W50531   9.199   6.848  12.707
82127W        W50532   0.511  39.584   3.673
82128W        W50533  28.062   3.435  11.623
82129W        W50534  39.635  14.843   1.898
82130W        W50535  37.839  25.691  10.875
82131W        W50536   0.924  18.528   2.266
82132W        W50537  20.268   3.834  11.446
82133W        W50538   4.838  27.204   0.016
82134W        W50539  26.471   5.368  12.788
82135W        W50540  38.967  31.366   3.562
82136W        W50541  39.704  16.620  14.886
82137W        W50542   4.329  18.307   0.509
82138W        W50543  43.749  18.997   2.711
82139W        W50544  27.249   7.915   1.466
82140W        W50545   3.692  17.443  12.124
82141W        W50546  38.050  16.532   1.243
82142W        W50547  11.741  12.839   3.861
82143W        W50548  29.090  41.357  13.702
82144W        W50549  23.616   7.891  13.011
82145W        W50550   8.740  36.666   0.405
82146W        W50551  32.980   6.756  13.318
82147W        W50552  12.647  37.543  12.505
82148W        W50553  12.891  20.410   4.160
82149W        W50554  23.734  39.604   3.657
82150W        W50555  33.568  34.996  10.271
82151W        W50556   2.942  26.593  11.207
82152W        W50557  28.495  41.773   3.281
82153W        W50558  31.881  24.711  10.912
82154W        W50559  10.375   6.268  11.931
82155W        W50560   1.518  23.111   3.766
82156W        W50561  41.839  10.901  12.110
82157W        W50562   3.788  11.631   4.234
82158W        W50563  11.248  24.962   4.611
82159W        W50564  20.540   3.411  11.190
82160W        W50565  20.773   0.359  10.744
82161W        W50566  29.010  24.370  12.013
82162W        W50567   6.448  29.562   2.224
82163W        W50568  44.796  33.632   3.770
82164W        W50569  38.574   5.766   1.321
82165W        W50570  27.236  18.345  13.392
82166W        W50571  20.239  30.578   0.425
82167W        W50572  35.488  37.182   4.388
82168W        W50573   7.200  39.778  13.852
82169W        W50574  36.102  20.248   0.720
82170W        W50575   3.237  15.663   1.226
82171W        W50576  32.394  24.345  14.369
82172W        W50577  34.060  32.359  12.701
82173W        W50578   0.583  21.558   1.789
82174W        W50579  21.711   2.712   1.061
82175W        W50580  43.606  10.387  13.001
82176W        W50581  20.171  22.210   0.007
82177W        W50582  24.028  33.944   1.481
82178W        W50583  18.113   6.517   0.026
82179W        W50584  35.525  36.272   2.934
82180W        W50585  14.889   5.455   2.311
82181W        W50586  27.076  33.648   4.644
82182W        W50587  12.954  27.954   4.703
82183W        W50588  17.267   9.392   1.611
82184W        W50589  33.872  37.077   0.477
82185W        W50590  19.979  16.738  14.910
82186W        W50591  23.146  20.040   1.478
82187W        W50592  20.393   6.509   9.797
82188W        W50593  35.882  24.272  12.581
82189W        W50594  16.773  27.005  11.479
82190W        W50595  34.668  34.588   4.594
82191W        W50596  31.721  37.442  13.517
82192W        W50597  37.590  43.923  12.001
82193W        W50598  28.137  15.279  13.073
82194W        W50599  33.527  33.407   0.481
82195W        W50600  15.629   8.241   0.014
82196W        W50601  31.420  25.132   0.912
82197W        W50602   3.297   9.251   3.356
82198W        W50603  14.104  34.038   4.571
82199W        W50604   5.283   0.749  13.903
82200W        W50605   4.715  35.001   0.330
82201W        W50606  36.887  25.612  14.453
82202W        W50607  33.647  42.795  12.626
82203W        W50608  20.772  41.978   3.863
82204W        W50609   5.699   7.799  14.934
82205W        W50610  19.140  11.435   1.702
82206W        W50611  10.683  38.891  14.868
82207W        W50612   7.704  25.178  12.501
82208W        W50613  37.541  11.420   1.890
82209W        W50614   3.937   1.257   4.691
82210W        W50615  38.676  12.823   5.123
82211W        W50616  26.076  28.651  14.923
82212W        W50617  31.671  12.276   1.044
82213W        W50618   6.381  14.451   0.722
82214W        W50619  43.466  40.779  13.245
82215W        W50620  42.993  24.663   2.022
82216W        W50621  29.740  26.449   2.732
82217W        W50622  40.393  36.528  10.301
82218W        W50623  43.304  30.460   2.503
82219W        W50624  22.534  23.453   4.499
82220W        W50625   1.524  28.574  14.415
82221W        W50626   7.269   5.716   4.568
82222W        W50627   1.985   7.129   0.608
82223W        W50628  28.995  24.299  10.613
82224W        W50629   2.043  13.415   4.059
82225W        W50630  34.506  27.259   1.144
82226W        W50631  20.695  28.369  12.195
82227W        W50632   2.736  22.252  11.154
82228W        W50633   5.284   2.879   1.638
82229W        W50634  30.847   0.978  12.372
82230W        W50635   6.752   7.246  12.463
82231W        W50636  20.801   1.748   1.379
82232W        W50637  29.150  41.991  11.540
82233W        W50638  16.532  33.217   2.263
82234W        W50639  14.903   2.041   4.847
82235W        W50640   9.887  36.237   1.947
82236W        W50641  16.607  17.670  10.591
82237W        W50642   2.973  28.014   0.280
82238W        W50643  30.210   9.638  12.139
82239W        W50644  15.104  26.223   1.237
82240W        W50645  36.365  22.587   2.741
82241W        W50646   4.649   2.377   3.652
82242W        W50647  28.273  34.975  14.099
82243W        W50648  35.084   9.406  11.171
82244W        W50649  39.992  37.354   0.830
82245W        W50650  25.545  15.430  10.665
82246W        W50651   9.214  27.990  13.851
82247W        W50652  35.349   6.780   0.200
82248W        W50653  28.752  10.772   4.183
82249W        W50654  37.489  39.152  12.627
82250W        W50655  38.915   6.104  11.165
82251W        W50656  13.467  30.229  13.435
82252W        W50657  31.088  37.549   3.773
82253W        W50658  16.300  18.286   0.490
82254W        W50659  24.559  29.911  12.009
82255W        W50660   8.927  39.630  11.042
82256W        W50661  20.111  19.152  12.808
82257W        W50662  35.460   6.075  14.788
82258W        W50663  16.137   6.458  14.011
82259W        W50664  40.268   5.604  12.931
82260W        W50665   8.427   2.232  12.858
82261W        W50666   2.303  14.967   4.021
82262W        W50667  33.294   2.467   2.058
82263W        W50668  10.121  43.828   4.662
82264W        W50669  22.241   7.047  13.794
82265W        W50670  13.266  43.031  10.459
82266W        W50671  38.712  36.401  10.103
82267W        W50672  44.592   3.851  12.917
82268W        W50673   3.323   0.822  10.405
82269W        W50674  32.653  28.093  13.634
82270W        W50675  27.088  21.527   3.639
82271W        W50676  30.719  42.151   9.853
82272W        W50677   7.257  34.045  12.721
82273W        W50678  29.350  23.032  13.080
82274W        W50679  31.035  30.507  11.894
82275W        W50680  23.970  17.216   2.409
82276W        W50681  34.383  34.795  11.075
82277W        W50682   5.915  29.852  14.439
82278W        W50683  33.966  16.695   0.100
82279W        W50684  13.158  26.841   0.423
82280W        W50685  23.287  25.467   2.609
82281W        W50686  14.260  30.646  12.361
82282W        W50687  39.937  22.482  12.265
82283W        W50688   9.440  12.307   2.056
82284W        W50689  14.404  38.795  13.112
82285W        W50690  34.401  29.232  13.913
82286W        W50691  35.577  24.956   0.333
82287W        W50692  17.370  24.163  12.851
82288W        W50693  13.878  26.013   2.253
82289W        W50694   5.321  30.382   4.677
82290W        W50695  28.390  41.021  12.106
82291W        W50696   1.358   3.861   4.162
82292W        W50697  32.800  21.226   4.196
82293W        W50698  41.259  24.539   0.742
82294W        W50699  16.552  12.605  12.425
82295W        W50700  20.812  40.339  14.385
82296W        W50701  17.653  36.594  12.588
82297W        W50702   5.441  10.434   4.304
82298W        W50703   9.247   0.682   3.835
82299W        W50704  35.319  26.974   2.394
82300W        W50705  30.440   6.363   3.399
82301W        W50706  40.044  39.315   4.553
82302W        W50707  43.107  24.679   0.592
82303W        W50708  37.325  41.462  10.662
82304W        W50709  25.064   6.811   1.124
82305W        W50710   1.069   0.793   4.147
82306W        W50711  42.534  33.351   1.315
82307W        W50712   8.788  15.596   1.381
82308W        W50713  27.225  21.495   0.327
82309W        W50714  18.675  17.854  10.884
82310W        W50715  28.508   5.649   0.385
82311W        W50716   0.936  23.047  14.204
82312W        W50717  12.076  24.714   2.450
82313W        W50718  16.379   7.335  14.345
82314W        W50719   4.732  15.710   4.038
82315W        W50720  19.278   9.895  11.927
82316W        W50721  20.753  16.630  14.463
82317W        W50722  43.973   0.430   1.197
82318W        W50723   9.482  39.059  10.753
82319W        W50724  41.331  15.169  13.363
82320W        W50725  38.830  17.165  14.834
82321W        W50726   0.333  10.089   1.897
82322W        W50727   2.234   7.311  13.521
82323W        W50728   9.227  34.232  12.886
82324W        W50729  18.199  23.695   1.819
82325W        W50730  42.984  30.620   0.884
82326W        W50731  42.817  15.215   0.435
82327W        W50732  30.068   2.277  10.506
82328W        W50733  34.143   6.848  14.526
82329W        W50734  35.013   4.380   3.773
82330W        W50735  44.475  44.465   2.637
82331W        W50736  31.599  22.698   3.769
82332W        W50737  36.337  43.384  14.595
82333W        W50738  36.052  32.079   0.380
82334W        W50739  44.418  44.038  14.183
82335W        W50740   1.982   0.579  13.961
82336W        W50741  18.502  15.213   0.293
82337W        W50742  28.063   6.399   3.302
82338W        W50743   0.270   2.862   2.709
82339W        W50744  18.859   9.589  11.903
82340W        W50745  13.458  12.707  12.016
82341W        W50746  40.455  19.076  10.969
82342W        W50747  17.206  41.811  13.068
82343W        W50748   7.681  39.955  13.793
82344W        W50749  32.470   8.473  12.167
82345W        W50750  12.534  10.856   3.360
82346W        W50751  37.078  27.946   4.163
82347W        W50752  34.988  31.790  12.935
82348W        W50753  22.143  26.641  14.352
82349W        W50754   8.665  16.637   0.840
82350W        W50755  23.754   9.712  10.859
82351W        W50756   6.900  35.876  10.813
82352W        W50757  38.926   4.697  10.170
82353W        W50758  11.778  16.264  12.995
82354W        W50759  14.181   7.718  14.992
82355W        W50760  31.509  31.024  13.437
82356W        W50761  33.381  19.047   1.225
82357W        W50762  23.917  42.988   0.256
82358W        W50763  41.750  25.148  13.075
82359W        W50764  24.280  17.352  12.425
82360W        W50765  13.880   9.806   0.451
82361W        W50766  34.051  30.402   4.379
82362W        W50767  26.602  15.194  13.583
82363W        W50768   3.309  31.093  12.354
82364W        W50769   8.496  29.036   0.289
82365W        W50770  10.972  12.879  13.134
82366W        W50771  13.307   4.950  11.061
82367W        W50772  26.755  41.476   4.569
82368W        W50773  32.135  16.781  12.080
82369W        W50774  34.848  29.223  13.331
82370W        W50775  23.837  32.066   3.201
82371W        W50776  20.142   6.233  13.151
82372W        W50777  39.946  38.958   3.582
82373W        W50778  24.006   0.949   3.257
82374W        W50779  18.303  31.141   1.669
82375W        W50780  11.680   7.932   3.216
82376W        W50781  44.928   3.982   1.817
82377W        W50782  42.983   9.932   2.980
82378W        W50783   8.628  23.225  13.907
82379W        W50784  19.324   9.008   4.714
82380W        W50785  23.946  42.830   3.114
82381W        W50786  26.819  19.874   5.115
82382W        W50787  13.699  35.788   9.851
82383W        W50788  34.083  37.833   1.252
82384W        W50789  42.113   1.980  14.344
82385W        W50790  15.273  34.729   5.112
82386W        W50791  20.694  24.934   1.894
82387W        W50792   1.444  27.004   4.158
82388W        W50793   0.259  30.982   1.854
82389W        W50794  28.441  27.972   0.913
82390W        W50795   1.648  19.491  13.262
82391W        W50796  14.347  19.917   3.033
82392W        W50797  44.267  35.971  14.923
82393W        W50798   7.615  29.249  13.517
82394W        W50799  21.247  15.226   0.900
82395W        W50800  32.704  19.099  11.175
82396W        W50801  13.379   7.818   1.729
82397W        W50802  21.932   8.420  11.770
82398W        W50803   3.362  17.674   1.927
82399W        W50804   0.156  19.201   0.426
82400W        W50805  26.069  15.580  10.693
82401W        W50806   7.774  43.242   2.224
82402W        W50807  14.760   5.797  13.653
82403W        W50808  12.081  44.281   2.719
82404W        W50809  35.123   2.415  13.512
82405W        W50810  10.405   5.410  14.339
82406W        W50811   1.677  36.592   2.492
82407W        W50812  27.126  12.708  12.454
82408W        W50813  15.336  13.230  13.485
82409W        W50814  10.534   9.993  11.642
82410W        W50815  44.882  28.115  13.502
82411W        W50816  41.463   9.630   1.685
82412W        W50817  14.721  41.847  14.924
82413W        W50818   7.818   0.215   1.787
82414W        W50819   4.284  19.081   1.926
82415W        W50820  19.491   7.772   4.556
82416W        W50821  26.593  40.395   2.550
82417W        W50822  36.836   2.208   4.606
82418W        W50823  23.769   2.389   3.585
82419W        W50824  20.863  20.918  11.113
82420W        W50825  41.416  27.873  12.421
82421W        W50826  43.759  36.162  13.084
82422W        W50827  18.433   4.144   4.062
82423W        W50828  43.365  11.656  10.019
82424W        W50829  22.859  38.524   0.802
82425W        W50830  20.723  32.216  11.980
82426W        W50831  10.904  18.179  11.416
82427W        W50832  41.319  41.289  10.482
82428W        W50833   4.265  36.003   3.747
82429W        W50834  42.647  38.069  14.801
82430W        W50835  23.729   3.822   1.664
82431W        W50836   7.647  17.358  10.457
82432W        W50837  33.909  14.139   4.570
82433W        W50838  36.643  35.693   1.362
82434W        W50839  22.615  39.354  14.383
82435W        W50840  20.582  30.445  12.238
82436W        W50841   8.657  13.245  14.851
82437W        W50842  31.905  13.154  11.206
82438W        W50843  14.391  24.981   0.470
82439W        W50844  33.396  35.366  13.467
82440W        W50845  38.986   4.286  11.043
82441W        W50846  20.942  14.733  11.654
82442W        W50847  22.537  18.740  11.129
82443W        W50848  31.409  25.718   1.432
82444W        W50849  25.222   5.133   4.137
82445W        W50850  17.120   3.998   0.832
82446W        W50851  24.490  12.065  11.191
82447W        W50852   8.978  18.757   9.799
82448W        W50853  20.120  40.022  10.393
82449W        W50854  28.572  30.242  13.401
82450W        W50855  44.840  36.880  12.553
82451W        W50856  35.131  10.220   0.484
82452W        W50857  12.161  26.768  11.129
82453W        W50858   5.254  23.457   0.826
82454W        W50859   6.058  33.785   1.947
82455W        W50860  24.762  11.699   2.666
82456W        W50861  22.456  41.298   4.579
82457W        W50862  16.639   6.633   4.475
82458W        W50863  37.876  13.732  10.695
82459W        W50864   4.764  20.249  11.307
82460W        W50865  13.832  22.598  13.987
82461W        W50866  33.451  37.658  13.770
82462W        W50867  17.827  18.988   2.777
82463W        W50868  33.238  33.130  14.440
82464W        W50869  15.230  18.800  11.422
82465W        W50870   1.865   6.524   0.485
82466W        W50871  43.289  29.346  13.556
82467W        W50872  38.494  32.654   0.948
82468W        W50873  38.556   4.079   3.231
82469W        W50874  23.210   8.926  10.997
82470W        W50875  11.357  31.090   1.714
82471W        W50876  28.572  33.077  14.916
82472W        W50877   5.486  19.726  14.309
82473W        W50878  27.674  12.229  12.090
82474W        W50879  38.305  33.953  14.974
82475W        W50880   9.357   4.286   0.922
82476W        W50881   0.808  15.716   1.401
82477W        W50882  27.624   9.357  14.049
82478W        W50883  17.503  11.688  12.602
82479W        W50884   2.234  23.425   0.276
82480W        W50885  22.887  37.170   1.768
82481W        W50886  20.845   7.276   4.649
82482W        W50887  24.154  29.379   1.771
82483W        W50888  27.939   9.321  14.448
82484W        W50889  15.156  15.639   0.955
82485W        W50890  34.417  11.819   2.769
82486W        W50891  17.332   3.844   0.393
82487W        W50892   3.065   1.853   4.390
82488W        W50893  32.102  24.246  11.658
82489W        W50894  31.648  16.790  14.391
82490W        W50895  17.236  25.119   2.956
82491W        W50896  41.050  43.204  12.600
82492W        W50897  10.983  41.127   0.333
82493W        W50898  42.170  44.450  11.502
82494W        W50899  35.585  32.312   1.360
82495W        W50900   6.996  37.384   3.281
82496W        W50901  29.657  19.290   1.716
82497W        W50902  17.856  13.346   0.267
82498W        W50903  15.927  19.855   3.830
82499W        W50904  13.359  33.727  12.406
82500W        W50905  34.543  25.563   3.114
82501W        W50906  20.620  22.315   2.627
82502W        W50907  20.409  34.584  13.833
82503W        W50908  20.417  22.950   1.916
82504W        W50909  15.048   8.661   9.812
82505W        W50910  32.582  12.840  14.990
82506W        W50911  42.641  25.236  10.773
82507W        W50912   3.318  41.099   3.169
82508W        W50913  44.347  26.115   0.774
82509W        W50914   0.350  16.554   1.788
82510W        W50915  12.179  19.381  11.436
82511W        W50916   1.376  10.584   0.903
82512W        W50917  37.447  18.071  11.133
82513W        W50918  44.288  41.669   4.057
82514W        W50919  41.845  43.136   2.954
82515W        W50920  40.145  18.737  11.190
82516W        W50921   2.624   9.243   4.761
82517W        W50922  11.754  35.199  13.065
82518W        W50923  20.449  25.163   2.847
82519W        W50924  22.301  26.447  11.069
82520W        W50925   5.915  25.815  13.808
82521W        W50926  16.640  39.998   4.810
82522W        W50927  14.295  20.326   1.821
82523W        W50928  22.208  41.525   0.475
82524W        W50929   8.630  23.113  11.972
82525W        W50930  22.296  31.551  14.339
82526W        W50931  16.628   3.392  12.600
82527W        W50932  23.837  29.722   1.315
82528W        W50933  34.584  24.416  13.211
82529W        W50934  30.097  36.542  12.065
82530W        W50935  26.083  15.355  12.323
82531W        W50936  18.654  39.370  13.140
82532W        W50937  22.199  42.568   1.181
82533W        W50938  43.534  42.310  14.024
82534W        W50939  38.375  11.654  11.458
82535W        W50940  24.472  16.536  11.616
82536W        W50941  10.846   1.574  11.208
82537W        W50942  40.416   8.876   4.021
82538W        W50943  33.344  12.056   1.333
82539W        W50944   7.897  12.397  13.382
82540W        W50945   4.352  11.017  11.026
82541W        W50946  16.176   1.133  10.800
82542W        W50947  13.264  19.970   4.752
82543W        W50948  36.876   0.208   4.014
82544W        W50949   4.374  22.620   2.551
82545W        W50950  21.371  17.560  10.663
82546W        W50951   2.916  38.579   3.590
82547W        W50952  37.983  33.042   3.963
82548W        W50953  38.082   2.778   0.045
82549W        W50954  36.836   6.390  14.507
82550W        W50955  29.983   6.547   4.152
82551W        W50956   6.879  10.761   2.795
82552W        W50957   3.432  31.894   4.997
82553W        W50958   1.884  35.977  11.595
82554W        W50959  12.779  16.042   4.612
82555W        W50960  28.178   9.633   2.893
82556W        W50961  14.801  24.825  13.400
82557W        W50962  11.681  14.547  14.779
82558W        W50963  32.683  39.876   3.658
82559W        W50964   4.338   6.232  12.582
82560W        W50965  25.064  20.046  14.750
82561W        W50966   0.337  39.121  10.942
82562W        W50967  28.218   0.744  10.093
82563W        W50968   1.251  16.228  12.519
82564W        W50969  26.154   1.211   0.884
82565W        W50970   2.452  37.508  14.256
82566W        W50971  14.237  44.041   3.278
82567W        W50972  33.470  38.862   3.738
82568W        W50973  11.305  43.853   2.855
82569W        W50974  28.070   7.882   1.790
82570W        W50975  40.034  43.045   2.745
82571W        W50976  26.674  33.487   1.423
82572W        W50977   0.788  29.447  11.560
82573W        W50978  32.486   0.698   2.385
82574W        W50979   8.627   9.798   3.271
82575W        W50980   8.377  11.041   0.887
82576W        W50981   4.686   4.285  11.034
82577W        W50982  23.093  22.999   0.838
82578W        W50983  39.026   4.786  13.927
82579W        W50984  21.614  38.761  12.923
82580W        W50985   1.251  15.769  14.839
82581W        W50986  23.007  43.223   3.251
82582W        W50987   0.086   8.693  13.053
82583W        W50988  35.399  38.531   1.265
82584W        W50989   5.634   4.748  10.867
82585W        W50990   8.205  41.231  12.610
82586W        W50991  31.158  11.252   2.740
82587W        W50992  43.462  43.091  11.645
82588W        W50993   8.642  13.513   0.493
82589W        W50994  19.086  27.133  13.487
82590W        W50995   2.368  19.631  12.998
82591W        W50996   4.842   0.330  11.963
82592W        W50997   2.537  13.492   4.133
82593W        W50998  28.621  17.107   1.902
82594W        W50999  42.490  32.772  12.360
82595W        W51000   4.843  44.451  12.821
82596W        W51001  42.261  35.416   4.570
82597W        W51002  43.075  43.963  14.321
82598W        W51003  20.214  20.209   4.042
82599W        W51004  28.756   4.470   1.685
82600W        W51005  30.042  27.211  12.519
82601W        W51006  22.027   6.843   0.750
82602W        W51007  35.037   0.363   0.674
82603W        W51008   4.001  10.530  13.499
82604W        W51009  30.594  16.691  13.335
82605W        W51010   7.456  26.552  10.743
82606W        W51011  25.571  35.618   2.660
82607W        W51012   0.921  27.194   0.915
82608W        W51013  43.879  25.185   3.782
82609W        W51014   5.872  17.697   1.371
82610W        W51015  40.743  37.190   3.350
82611W        W51016  31.042  30.716  13.338
82612W        W51017  38.576  37.009  12.533
82613W        W51018  22.137  32.524  13.057
82614W        W51019   1.020   3.701  14.828
82615W        W51020  31.548   1.907   0.008
82616W        W51021  19.290  18.490  10.691
82617W        W51022  24.019  20.279   1.386
82618W        W51023   0.380  32.930  12.061
82619W        W51024  23.844  42.510  11.147
82620W        W51025  43.069  10.519  12.101
82621W        W51026  32.482  41.052   4.876
82622W        W51027  41.618   3.571   3.680
82623W        W51028  43.015  35.038   4.483
82624W        W51029  29.182   7.868  13.033
82625W        W51030  30.856  40.862   1.428
82626W        W51031   0.926  43.878  14.096
82627W        W51032  25.233   4.275   2.198
82628W        W51033  19.073  10.883   2.575
82629W        W51034   6.639  39.353  12.577
82630W        W51035  28.020  39.985   2.240
82631W        W51036  36.870  32.870  11.525
82632W        W51037  28.076  24.606   4.298
82633W        W51038  22.790  15.845  14.536
82634W        W51039  43.428  22.339  11.376
82635W        W51040  11.692   7.307   0.174
82636W        W51041  17.192  42.934  10.872
82637W        W51042   2.627   8.306   2.736
82638W        W51043  17.774  23.334   2.850
82639W        W51044   7.484  35.369   0.253
82640W        W51045  10.508  20.737  14.472
82641W        W51046  44.725  18.800  12.447
82642W        W51047  36.481  14.695   3.644
82643W        W51048   6.343  32.883  12.136
82644W        W51049  21.515  32.311   3.338
82645W        W51050  36.563   7.449   2.197
82646W        W51051  28.652   9.210   0.432
82647W        W51052   2.295   2.810   2.854
82648W        W51053  29.977  15.068   4.496
82649W        W51054   6.656  30.438  14.376
82650W        W51055  37.890  15.189   0.669
82651W        W51056  37.000  14.347  13.799
82652W        W51057  44.936   4.819   2.571
82653W        W51058  19.300  15.184  13.974
82654W        W51059   4.398  33.299  12.666
82655W        W51060  31.070  44.321   4.732
82656W        W51061   0.921  27.302  12.276
82657W        W51062  22.624   5.973   4.744
82658W        W51063  43.052  25.462   4.171
82659W        W51064   4.717  39.561  13.508
82660W        W51065  18.322  26.180  10.791
82661W        W51066  37.567  28.157  10.274
82662W        W51067  41.414   4.997   3.844
82663W        W51068   0.303  29.669  14.259
82664W        W51069   8.736  43.873  12.866
82665W        W51070   2.699  13.400  12.503
82666W        W51071  22.060  31.926   2.645
82667W        W51072  18.857  15.820   4.845
82668W        W51073  29.190  39.919   2.865
82669W        W51074  19.162  11.687   4.056
82670W        W51075  11.017  27.310   2.188
82671W        W51076  39.044  16.209   3.097
82672W        W51077  14.115   3.352   3.017
82673W        W51078  32.707  33.024   0.834
82674W        W51079  24.544   2.210  14.832
82675W        W51080  33.536  28.583  10.512
82676W        W51081  33.414  39.795   1.796
82677W        W51082   3.961  40.715  11.572
82678W        W51083  14.073  17.799   4.313
82679W        W51084  25.714  23.585  14.697
82680W        W51085   9.161  22.345   4.758
82681W        W51086  18.069  26.558  13.065
82682W        W51087   9.608  29.158  13.404
82683W        W51088  11.624  17.598  11.442
82684W        W51089   3.396  37.480   3.188
82685W        W51090  35.909  15.959  12.440
82686W        W51091  32.371  37.432  11.165
82687W        W51092  19.343   1.069  11.180
82688W        W51093  24.005  13.842   3.768
82689W        W51094  15.845   4.858  12.631
82690W        W51095  29.272   9.280  14.029
82691W        W51096  21.939  35.580  11.107
82692W        W51097  23.809  21.683  12.081
82693W        W51098  28.939  14.106   0.731
82694W        W51099  13.801  22.220   3.118
82695W        W51100   9.097  14.771   1.362
82696W        W51101  13.417   4.882  14.194
82697W        W51102  11.583  24.140   1.780
82698W        W51103  17.150  21.248  13.833
82699W        W51104  36.383   6.746  14.475
82700W        W51105  11.519   9.168   2.821
82701W        W51106   8.767  43.209   1.868
82702W        W51107  22.990  13.206   2.592
82703W        W51108   0.334  34.040   1.243
82704W        W51109   3.979  18.185   1.429
82705W        W51110  21.334  34.313  13.456
82706W        W51111   6.767  40.314   3.668
82707W        W51112  18.373   9.373   2.702
82708W        W51113  36.000   7.893   2.646
82709W        W51114  29.089  26.592  14.931
82710W        W51115  25.213  27.676   3.359
82711W        W51116   1.554  37.342   3.177
82712W        W51117  12.319  25.103   3.224
82713W        W51118  34.689   2.295  11.953
82714W        W51119  12.591  17.145  14.773
82715W        W51120   2.160   4.253   4.508
82716W        W51121   0.671   2.902   4.702
82717W        W51122  22.662  21.645  13.079
82718W        W51123  20.128  33.128   0.890
82719W        W51124  11.723  24.434   3.307
82720W        W51125  11.092  44.724  10.218
82721W        W51126   8.914  11.769   0.562
82722W        W51127  19.345  41.737  13.457
82723W        W51128  17.794  10.026   0.249
82724W        W51129   9.326  39.520  12.584
82725W        W51130  14.191  40.963   2.257
82726W        W51131  40.986  41.086   0.238
82727W        W51132  13.795  28.382   2.256
82728W        W51133  21.448   5.875   0.319
82729W        W51134  44.755  20.570  10.481
82730W        W51135  22.191  32.592   4.051
82731W        W51136  28.712  17.110   3.178
82732W        W51137   1.745  32.063   0.381
82733W        W51138  10.313  27.855   2.876
82734W        W51139   0.034  42.660   3.319
82735W        W51140  44.986   2.842  14.807
82736W        W51141  32.953   0.949   2.356
82737W        W51142   1.761  21.746   4.895
82738W        W51143  15.188   5.042   0.249
82739W        W51144  34.806  18.108   0.577
82740W        W51145  21.348  36.366   2.745
82741W        W51146  28.456   4.642  12.354
82742W        W51147   5.994  18.393   2.620
82743W        W51148  31.154  13.743  11.220
82744W        W51149  34.142  14.028   1.917
82745W        W51150  11.157  19.670   0.849
82746W        W51151   1.250  41.293   2.373
82747W        W51152   9.862  34.347   3.056
82748W        W51153  40.061  24.301  13.592
82749W        W51154  17.215  40.245  11.974
82750W        W51155  15.900  36.384   0.771
82751W        W51156  19.594  12.489  12.410
82752W        W51157   0.499   9.291   1.831
82753W        W51158  18.582  41.790   4.722
82754W        W51159  30.057  12.703  13.552
82755W        W51160  14.649   0.413  14.187
82756W        W51161  10.350  33.859  12.700
82757W        W51162   9.261  18.811  10.594
82758W        W51163  38.531   6.908   0.998
82759W        W51164  23.603  21.585   3.174
82760W        W51165  30.707  16.073  11.882
82761W        W51166  25.733  38.604  11.606
82762W        W51167  13.357   2.658  13.767
82763W        W51168  41.453   8.300  12.111
82764W        W51169  16.392  25.540   4.923
82765W        W51170  12.389   7.688  14.474
82766W        W51171  26.543   3.936  13.956
82767W        W51172  15.131  10.927  12.868
82768W        W51173  27.060   6.880   1.769
82769W        W51174  28.093  15.571  11.659
82770W        W51175  41.113  24.074  10.650
82771W        W51176  38.601   0.177  12.524
82772W        W51177  22.960  11.331  11.034
82773W        W51178   5.211  22.766  12.442
82774W        W51179  32.418  29.575  11.541
82775W        W51180   5.190  19.534  12.957
82776W        W51181  16.503  23.214  13.887
82777W        W51182  28.592  19.753   2.772
82778W        W51183  44.246  39.241   2.715
82779W        W51184  36.601  39.010  11.246
82780W        W51185  31.512  17.298  14.548
82781W        W51186  10.174  36.491  13.342
82782W        W51187  30.145  33.450  10.782
82783W        W51188  27.739  34.534  12.656
82784W        W51189  28.555  11.147   0.957
82785W        W51190  41.083   7.313  13.374
82786W        W51191   3.882   6.823  14.497
82787W        W51192  18.284  14.305  13.492
82788W        W51193  19.790  20.841  10.584
82789W        W51194  20.006  15.819  10.637
82790W        W51195  25.103  19.417   4.308
82791W        W51196  25.992  24.720   1.449
82792W        W51197  17.103   0.278  11.968
82793W        W51198  11.849  17.088  10.677
82794W        W51199  24.621  37.487  11.216
82795W        W51200   1.011  29.952  10.799
82796W        W51201  21.269   5.747  14.810
82797W        W51202  22.902  24.264   1.801
82798W        W51203  38.982  42.737  11.715
82799W        W51204  22.507   3.934   4.115
82800W        W51205  33.358  39.594   1.302
82801W        W51206  36.276  26.468  10.589
82802W        W51207  31.345  37.907  10.718
82803W        W51208   2.481  35.176  14.790
82804W        W51209  41.445  32.167   1.453
82805W        W51210  18.912  17.104  13.975
82806W        W51211  42.692  28.411   1.897
82807W        W51212  35.272  44.303   4.498
82808W        W51213  44.790  23.233  12.869
82809W        W51214  26.567   0.890  11.616
82810W        W51215  13.956  26.709   1.443
82811W        W51216  12.585   4.783  13.446
82812W        W51217  25.613   2.960  14.920
82813W        W51218  12.135  38.623  11.651
82814W        W51219  21.672  10.514   0.281
82815W        W51220  42.413  26.033  12.208
82816W        W51221   5.321  34.476   0.331
82817W        W51222  26.817   8.498  11.642
82818W        W51223  30.110  31.540   1.326
82819W        W51224   7.836  20.320   0.913
82820W        W51225  34.043  44.418  11.629
82821W        W51226  16.931  36.664  13.505
82822W        W51227   3.333  40.849   2.196
82823W        W51228  19.311  14.852   2.052
82824W        W51229  43.765   4.700   0.909
82825W        W51230  36.690  30.680   0.888
82826W        W51231  18.818  25.862   2.544
82827W        W51232  10.272   7.370  13.604
82828W        W51233  19.276  37.684   3.667
82829W        W51234  36.154   5.205   3.247
82830W        W51235  29.489  41.487   0.034
82831W        W51236  28.647   8.562   3.721
82832W        W51237   5.912  24.872  14.864
82833W        W51238  18.778  10.406  12.439
82834W        W51239   5.316  29.968   1.511
82835W        W51240  22.636  12.857  14.428
82836W        W51241  28.529  12.321  10.605
82837W        W51242   0.284   0.861  14.034
82838W        W51243  35.963  10.822  11.454
82839W        W51244  11.853  34.966  12.047
82840W        W51245  34.357  32.343   2.806
82841W        W51246  31.804  32.547   3.652
82842W        W51247  30.253  27.653   2.864
82843W        W51248  16.745  18.508   2.124
82844W        W51249  20.741  26.272  13.364
82845W        W51250   7.143   5.461  14.406
82846W        W51251   1.837   2.105   3.857
82847W        W51252   9.869  20.709   1.625
82848W        W51253  15.417  10.725   3.669
82849W        W51254  40.686  16.672   1.308
82850W        W51255   1.436  19.494   0.820
82851W        W51256  17.034  27.724   2.243
82852W        W51257  16.586  21.646  13.399
82853W        W51258  41.397   0.664   2.624
82854W        W51259   6.965   6.978   1.309
82855W        W51260  36.101   1.459   0.543
82856W        W51261   2.804  43.520  12.097
82857W        W51262   7.288  39.460   3.568
82858W        W51263  31.531   3.773  12.017
82859W        W51264  24.490  38.579  12.937
82860W        W51265  39.559   7.246  11.399
82861W        W51266   7.380  37.857   0.347
82862W        W51267   0.430   6.726   1.514
82863W        W51268   1.218   1.583   2.501
82864W        W51269   7.899  21.074   1.774
82865W        W51270   5.661  17.644   2.359
82866W        W51271   8.034   8.309  11.595
82867W        W51272  34.471  26.091   2.400
82868W        W51273  25.950  31.697   2.324
82869W        W51274  18.615   6.175   2.396
82870W        W51275  33.490   0.718   1.680
82871W        W51276  24.527  13.345  12.552
82872W        W51277  44.928  24.116   3.763
82873W        W51278   6.274  16.265   1.388
82874W        W51279  19.463  32.950   2.480
82875W        W51280  20.157  27.173   3.241
82876W        W51281  30.778  32.524   3.585
82877W        W51282  14.548  18.008   4.329
82878W        W51283  12.458  23.628  11.198
82879W        W51284   4.561   2.409  14.777
82880W        W51285  28.513  43.818   2.949
82881W        W51286   3.379   9.181  14.804
82882W        W51287   8.838   3.420  14.054
82883W        W51288  36.881   4.739   4.847
82884W        W51289  44.296   5.966  14.014
82885W        W51290   9.667  12.153  12.922
82886W        W51291  13.400  37.031  14.845
82887W        W51292   7.314  15.376   0.853
82888W        W51293  17.825  39.037  11.155
82889W        W51294  30.853  39.946  11.168
82890W        W51295   9.158   8.346   0.343
82891W        W51296  33.464   7.810   3.581
82892W        W51297  23.669   5.798   1.244
82893W        W51298   4.313  10.509  10.363
82894W        W51299  29.955  33.920   3.306
82895W        W51300   8.798  15.139  10.859
82896W        W51301  31.670  43.686  13.987
82897W        W51302   3.789  14.020   2.278
82898W        W51303   9.758   5.621   4.778
82899W        W51304  40.018   1.219   1.514
82900W        W51305  21.188  21.323  10.950
82901W        W51306   1.937  42.595   1.290
82902W        W51307  27.048  18.510   2.258
82903W        W51308  12.087   0.812   3.622
82904W        W51309  25.638  34.866  13.335
82905W        W51310  20.088  34.496  11.230
82906W        W51311  13.053  36.648   3.697
82907W        W51312   3.994  29.041   2.430
82908W        W51313  10.776  40.883  10.683
82909W        W51314   7.873  24.172  13.337
82910W        W51315   5.853   5.808   1.976
82911W        W51316  27.870   7.161   3.786
82912W        W51317   8.053  10.739  14.230
82913W        W51318  15.017  41.814   2.025
82914W        W51319   0.417  27.827  14.022
82915W        W51320  35.401  14.853  14.687
82916W        W51321  15.623  21.230   1.873
82917W        W51322  42.604   3.350  10.528
82918W        W51323   8.374  25.261   2.887
82919W        W51324  37.527   8.205  10.447
82920W        W51325   8.185  20.129   4.708
82921W        W51326   2.763   4.328  12.608
82922W        W51327  36.101  34.620   2.947
82923W        W51328  33.141   5.381  11.007
82924W        W51329  20.515  41.534  13.377
82925W        W51330  24.289  13.080   4.060
82926W        W51331  26.476  42.002   0.893
82927W        W51332   0.817  13.863  13.509
82928W        W51333  20.116  34.559   4.120
82929W        W51334  37.992  42.504   0.880
82930W        W51335  13.149   7.022   3.694
82931W        W51336  41.456   3.746   0.182
82932W        W51337   3.454  35.953  10.682
82933W        W51338  10.367  44.145   0.872
82934W        W51339  27.595  42.267   2.337
82935W        W51340  14.834   9.151  13.929
82936W        W51341   8.766  33.438  11.297
82937W        W51342  12.281  40.950   1.228
82938W        W51343  44.860  25.977   3.128
82939W        W51344  10.937  35.207   0.466
82940W        W51345  22.761  39.101  13.545
82941W        W51346  19.348  44.218  11.938
82942W        W51347  29.388  41.609   0.529
82943W        W51348  12.106  14.401  11.186
82944W        W51349  21.170  24.180  10.240
82945W        W51350  27.292  34.346   2.372
82946W        W51351  43.104  34.232   2.216
82947W        W51352   6.288  10.820   1.170
82948W        W51353   2.830  35.634   4.323
82949W        W51354  14.300   8.666   2.565
82950W        W51355  42.061   9.672   2.836
82951W        W51356   6.371  11.884   2.755
82952W        W51357  43.273  16.756  13.928
82953W        W51358  20.556  32.956  13.184
82954W        W51359  36.538   3.905  14.821
82955W        W51360  34.292   8.833   4.871
82956W        W51361   3.388  41.732   1.971
82957W        W51362  20.636  21.802   2.672
82958W        W51363  43.950  24.131  13.790
82959W        W51364  28.321  41.543  12.157
82960W        W51365  11.008  32.168  11.613
82961W        W51366   2.570  27.900   1.236
82962W        W51367  25.897  42.462   4.559
82963W        W51368  17.115  19.345   0.847
82964W        W51369  12.861  15.531   4.679
82965W        W51370  21.994  23.718   0.888
82966W        W51371  29.036   8.904   0.888
82967W        W51372  38.382  17.690  12.481
82968W        W51373  26.115   9.664   1.923
82969W        W51374  38.567  33.124  11.658
82970W        W51375  43.044  44.420   2.425
82971W        W51376   0.710  20.610  12.882
82972W        W51377  36.485  34.031  11.571
82973W        W51378   0.333  10.708  11.633
82974W        W51379  36.547  31.627  14.249
82975W        W51380  44.264  23.711  13.889
82976W        W51381  13.771  40.039   0.950
82977W        W51382  30.082  29.471  11.893
82978W        W51383  29.115  25.578   3.301
82979W        W51384   0.828   8.934   0.321
82980W        W51385  29.088  23.440   2.717
82981W        W51386   5.584  36.380   2.359
82982W        W51387   4.156  13.793   1.875
82983W        W51388   5.394  33.514  11.842
82984W        W51389  17.097  27.600   1.229
82985W        W51390  26.441  21.343  10.281
82986W        W51391  30.642  41.890   4.638
82987W        W51392   4.875  17.551  11.538
82988W        W51393  29.201  32.436  13.773
82989W        W51394  44.025  34.367   0.693
82990W        W51395  33.892  28.142   2.284
82991W        W51396   2.036  40.559   1.311
82992W        W51397  34.364  33.610   1.237
82993W        W51398   0.670  28.762  12.364
82994W        W51399  10.564   2.003  14.866
82995W        W51400  10.255  26.421   2.838
82996W        W51401  23.572  44.454   0.682
82997W        W51402  19.680  35.792  13.444
82998W        W51403  13.233   3.914   0.250
82999W        W51404   4.826  14.382   1.487
83000W        W51405  24.207  35.006   4.548
83001W        W51406  38.262   7.749   0.489
83002W        W51407   2.179  41.729  14.024
83003W        W51408   1.882  44.265  13.495
83004W        W51409  18.021  31.520   2.841
83005W        W51410  12.855  22.645  12.631
83006W        W51411  26.605  28.434  13.124
83007W        W51412   0.733   9.694  13.406
83008W        W51413  19.464   7.418   4.938
83009W        W51414  35.575  19.266   2.886
83010W        W51415  43.048  24.209   4.574
83011W        W51416   0.465   5.433  13.842
83012W        W51417  34.545  23.687   3.842
83013W        W51418   4.340  17.718   2.823
83014W        W51419  23.401  24.956  13.286
83015W        W51420  42.891   8.390  11.041
83016W        W51421  19.626  13.272   1.073
83017W        W51422   1.971  10.990  14.040
83018W        W51423  13.535   7.369  14.757
83019W        W51424  35.155  33.218  10.618
83020W        W51425  24.200  38.941   4.072
83021W        W51426   8.558  30.685   0.751
83022W        W51427  30.517   4.541   3.805
83023W        W51428   5.141  21.533   3.642
83024W        W51429  13.639  19.075  13.529
83025W        W51430  13.117  17.981   3.400
83026W        W51431  24.504  10.427  14.608
83027W        W51432  26.116  29.996  13.177
83028W        W51433  17.610  40.401  14.477
83029W        W51434  23.663  16.559   4.587
83030W        W51435  21.591  22.549  12.049
83031W        W51436   7.396  42.189  11.705
83032W        W51437   9.833  28.893   0.297
83033W        W51438   6.424   0.554   1.193
83034W        W51439  26.941  22.566   4.523
83035W        W51440  35.294  10.725   0.010
83036W        W51441  37.344  23.423   0.194
83037W        W51442  43.214  15.800  14.902
83038W        W51443  30.140   6.327  11.340
83039W        W51444  35.537  40.390  10.998
83040W        W51445  21.731   3.958   0.455
83041W        W51446  28.420  10.868   1.414
83042W        W51447   4.127   8.625  14.370
83043W        W51448  43.379  34.265  11.190
83044W        W51449  33.386  39.847  13.510
83045W        W51450  41.104  20.773   2.931
83046W        W51451   7.240  11.265   0.794
83047W        W51452  23.709   3.304   1.194
83048W        W51453  32.829  41.469  12.197
83049W        W51454  32.956  22.625   1.284
83050W        W51455  20.554  18.694  13.985
83051W        W51456  26.965  41.917  14.981
83052W        W51457   2.045  14.908   0.524
83053W        W51458  31.096  18.823   4.202
83054W        W51459  11.106  25.469   4.547
83055W        W51460  15.163  22.295   2.317
83056W        W51461  43.343  12.754  14.124
83057W        W51462  25.054  42.284  12.835
83058W        W51463  36.994  23.731   2.735
83059W        W51464  14.262  31.488  13.372
83060W        W51465   1.458  33.879   3.698
83061W        W51466  37.996  44.564   2.091
83062W        W51467   2.781  42.430  10.604
83063W        W51468  14.008   0.287  14.027
83064W        W51469  10.401  15.690  14.294
83065W        W51470  27.680  40.976   0.182
83066W        W51471  21.134   0.334  11.798
83067W        W51472  11.799  43.834   2.676
83068W        W51473  44.817   6.646   3.275
83069W        W51474  17.824  39.938   4.240
83070W        W51475   5.851  22.371   0.910
83071W        W51476  20.020  42.499  10.769
83072W        W51477  21.295   4.218   0.360
83073W        W51478  20.537   7.569   3.235
83074W        W51479  37.888  10.678   4.161
83075W        W51480  33.333   6.851   1.134
83076W        W51481  15.295  14.837   1.637
83077W        W51482  37.309  43.383  14.738
83078W        W51483  18.121  29.906   4.224
83079W        W51484  19.653  27.263   0.779
83080W        W51485  16.196  38.627   3.892
83081W        W51486  26.994   3.448  13.514
83082W        W51487   5.251   6.914   5.024
83083W        W51488  29.463  26.910  11.272
83084W        W51489   6.383  44.243   1.289
83085W        W51490  24.189   0.907  12.028
83086W        W51491  28.445  28.442   0.706
83087W        W51492   4.879  35.470   0.246
83088W        W51493  23.549  20.797   0.952
83089W        W51494   7.145  20.074  13.512
83090W        W51495  14.666  44.878   3.113
83091W        W51496   0.174   8.868   3.618
83092W        W51497  11.555   9.814  14.243
83093W        W51498  20.864  22.962   4.806
83094W        W51499  32.005  17.746  12.959
83095W        W51500  14.218  37.379  14.548
83096W        W51501  11.138  17.098  12.066
83097W        W51502  34.430  40.759  11.755
83098W        W51503   3.285  42.290  14.888
83099W        W51504  43.642  16.971  10.682
83100W        W51505   2.531  34.054   3.534
83101W        W51506  15.845  24.020   2.171
83102W        W51507  17.640   1.317   0.405
83103W        W51508  16.014  41.810   3.678
83104W        W51509  28.055  27.333   0.430
83105W        W51510  34.625  37.108   0.717
83106W        W51511  38.620  37.652   0.903
83107W        W51512   9.853   9.103   2.112
83108W        W51513  32.044  29.711   1.790
83109W        W51514  20.289   7.457  14.966
83110W        W51515  29.096  17.629   0.222
83111W        W51516  39.254  34.117  11.049
83112W        W51517  11.174  10.000  13.937
83113W        W51518  24.090  28.396   2.573
83114W        W51519  25.640  21.691  11.559
83115W        W51520   2.467  32.931  11.259
83116W        W51521  24.939  32.569  14.357
83117W        W51522  23.036  28.196   0.956
83118W        W51523  20.749  29.580   4.210
83119W        W51524  19.791   9.839   3.147
83120W        W51525  39.498  21.642   0.506
83121W        W51526  40.598   9.393   1.173
83122W        W51527  11.296  13.792  13.129
83123W        W51528  16.680  31.553  10.408
83124W        W51529  11.496  18.682   0.897
83125W        W51530  15.577  30.547  12.047
83126W        W51531  28.236  14.617   4.242
83127W        W51532  33.482  11.826   0.876
83128W        W51533   3.794   3.939   0.553
83129W        W51534  29.613  12.978  13.462
83130W        W51535  41.338  32.472  11.666
83131W        W51536  44.932  15.258  11.969
83132W        W51537   1.394  33.032  12.562
83133W        W51538  11.138  40.525   1.111
83134W        W51539  20.995  29.333   2.295
83135W        W51540   3.706  18.827   3.621
83136W        W51541  35.368  24.155  12.042
83137W        W51542  26.085  20.412   3.339
83138W        W51543  38.046  12.690  11.485
83139W        W51544  10.672  27.488   0.306
83140W        W51545  37.761  41.357   4.986
83141W        W51546  22.469  15.334   4.640
83142W        W51547  12.832  28.560  12.434
83143W        W51548  39.289  17.630   1.778
83144W        W51549  40.457  28.060   2.403
83145W        W51550  26.874  35.117  14.877
83146W        W51551  15.719  39.849  10.913
83147W        W51552  35.916   7.396   3.208
83148W        W51553   0.017  23.548  11.190
83149W        W51554  34.427  37.017  10.478
83150W        W51555  10.653   6.011   4.930
83151W        W51556  33.587   7.681  10.672
83152W        W51557  22.627   2.015  11.112
83153W        W51558  16.530  23.196   0.680
83154W        W51559  35.001  25.100   1.019
83155W        W51560  22.014   8.227   3.352
83156W        W51561  28.886  24.909  12.051
83157W        W51562   8.339  25.055  11.081
83158W        W51563  15.753   1.181  11.127
83159W        W51564  28.680   4.922   4.344
83160W        W51565  19.517  15.793  12.377
83161W        W51566  12.164  23.627   0.439
83162W        W51567  13.649  19.827  12.456
83163W        W51568  27.952  24.552  12.581
83164W        W51569   3.648  16.252   1.301
83165W        W51570   4.335  41.441   3.287
83166W        W51571   9.960   5.328  12.544
83167W        W51572  25.105  26.748  11.939
83168W        W51573  18.263  21.606   5.401
83169W        W51574  20.279  44.255  13.935
83170W        W51575   0.979   9.727  14.738
83171W        W51576  20.285   0.813  11.029
83172W        W51577   3.143  12.692  12.114
83173W        W51578  33.609  27.098   4.088
83174W        W51579  16.217  24.916   4.150
83175W        W51580   6.871  40.748   3.416
83176W        W51581  43.181  32.205  12.477
83177W        W51582  42.929  43.722  10.482
83178W        W51583  24.022  15.783   1.767
83179W        W51584  17.814  30.453  11.155
83180W        W51585  19.209  16.217   3.568
83181W        W51586  14.568  44.312  11.826
83182W        W51587   4.195   0.481  13.526
83183W        W51588  20.642  38.513  14.054
83184W        W51589   1.936  12.785   0.228
83185W        W51590  15.781  19.996  13.571
83186W        W51591   4.429  43.530   3.280
83187W        W51592  40.712  16.801  14.746
83188W        W51593  32.035   1.081   1.832
83189W        W51594  10.864   5.641  14.287
83190W        W51595   3.444  17.596   4.285
83191W        W51596  38.943   5.960   5.309
83192W        W51597  15.850  13.622  13.059
83193W        W51598  27.602  10.824   0.157
83194W        W51599  26.927  38.745   2.659
83195W        W51600  31.637  34.946   1.308
83196W        W51601  35.978   0.237  11.599
83197W        W51602  27.771  18.737   0.940
83198W        W51603   5.206  19.885   0.341
83199W        W51604  39.492  21.306  11.592
83200W        W51605  10.186  31.186   3.282
83201W        W51606  14.818  31.084   2.887
83202W        W51607  18.014  14.509   3.821
83203W        W51608  32.271  33.045  14.868
83204W        W51609  31.334   1.687   2.529
83205W        W51610   9.904  36.415  14.329
83206W        W51611   5.460  12.759   4.043
83207W        W51612  28.908  30.117  12.993
83208W        W51613  19.771  31.530   3.226
83209W        W51614  42.488  23.951  10.452
83210W        W51615  25.564  16.362  14.370
83211W        W51616  11.579  30.992  12.361
83212W        W51617  34.571  27.380  11.177
83213W        W51618  39.310  11.878   3.233
83214W        W51619   0.391  38.022   1.904
83215W        W51620  13.736  10.061  12.072
83216W        W51621  31.088  14.978   4.574
83217W        W51622  14.187   3.382   4.293
83218W        W51623  11.037  39.068  11.667
83219W        W51624  44.471  26.763  14.005
83220W        W51625   8.570   2.794  14.474
83221W        W51626  24.946  31.923   1.792
83222W        W51627  39.274  31.920   2.892
83223W        W51628  39.992   5.052   1.005
83224W        W51629  33.943   0.871   4.969
83225W        W51630   2.940  37.674   3.375
83226W        W51631  27.506  20.975  12.092
83227W        W51632   5.457  26.772  13.828
83228W        W51633  30.972  25.017  12.536
83229W        W51634  19.788  19.309   1.776
83230W        W51635  29.370   8.792  11.397
83231W        W51636  43.944  40.277   0.659
83232W        W51637  22.503  20.814  14.149
83233W        W51638  19.370  28.133  10.841
83234W        W51639  16.545   5.344  12.357
83235W        W51640  29.425  14.252   4.556
83236W        W51641   0.813  24.379   4.126
83237W        W51642  18.084  37.162  14.086
83238W        W51643  29.595  21.954   1.291
83239W        W51644  29.602  36.370  12.062
83240W        W51645  10.747  24.554   0.089
83241W        W51646   3.293  23.246  12.012
83242W        W51647  31.316  10.177   4.638
83243W        W51648   6.496  36.265  14.962
83244W        W51649  18.561  19.210  11.157
83245W        W51650   3.649   4.526   1.909
83246W        W51651  37.375  10.680   4.534
83247W        W51652  21.086  14.165   2.365
83248W        W51653  28.744  19.610   4.991
83249W        W51654  35.380   6.757  12.745
83250W        W51655  11.981  33.121   3.041
83251W        W51656  34.468   3.769   4.550
83252W        W51657  41.963  20.566  13.876
83253W        W51658   3.861  25.639   1.312
83254W        W51659  37.172  28.056   1.677
83255W        W51660  44.768  38.544   0.038
83256W        W51661  28.241  15.319   0.116
83257W        W51662  19.618  42.971  11.873
83258W        W51663  24.617  42.003   2.862
83259W        W51664  38.125  11.286   4.067
83260W        W51665  11.818   0.035  12.016
83261W        W51666  11.133   2.995   4.517
83262W        W51667  22.970   5.000   0.755
83263W        W51668  12.583  22.186  14.099
83264W        W51669  28.169  20.530   0.051
83265W        W51670  18.252  36.096   2.168
83266W        W51671  41.536  31.188  14.896
83267W        W51672  42.756  37.922   4.808
83268W        W51673  42.967  31.395  12.112
83269W        W51674  32.027  29.426  14.792
83270W        W51675  20.613   7.801   1.208
83271W        W51676  21.258  41.548   1.003
83272W        W51677  10.218  12.476   4.790
83273W        W51678   2.352  15.041   3.131
83274W        W51679   9.793  12.165  11.095
83275W        W51680  36.509  41.289  14.728
83276W        W51681  28.460  19.640  14.225
83277W        W51682  11.859  12.501  12.817
83278W        W51683  39.476  22.319   2.485
83279W        W51684  28.874  24.472   4.331
83280W        W51685  14.267  21.568   3.844
83281W        W51686  19.707  36.039  13.907
83282W        W51687  43.532  11.531  11.461
83283W        W51688  40.733  36.680   3.458
83284W        W51689   0.532   5.473  12.949
83285W        W51690  34.612  10.603   2.454
83286W        W51691  18.282  25.104  14.493
83287W        W51692  27.416  16.364  10.660
83288W        W51693  37.017   2.414  10.648
83289W        W51694  10.355  15.944   3.456
83290W        W51695  34.115  17.288  11.851
83291W        W51696  23.170  33.607  11.176
83292W        W51697   0.696   9.360  13.020
83293W        W51698   5.838  31.110  13.912
83294W        W51699  43.845  23.745  10.764
83295W        W51700  26.102  20.328  12.387
83296W        W51701  10.641  42.757  11.628
83297W        W51702  13.750  42.860   0.906
83298W        W51703  37.959   1.983   4.626
83299W        W51704  35.329  17.680  10.952
83300W        W51705  21.520  37.534   0.613
83301W        W51706  36.270   3.252   4.150
83302W        W51707  42.872  23.629  11.904
83303W        W51708  38.597   6.212  12.971
83304W        W51709  25.667  14.125  11.069
83305W        W51710  17.909  11.611   3.699
83306W        W51711  24.357  23.981  12.025
83307W        W51712  20.535   4.049   3.589
83308W        W51713  25.680  20.092  11.557
83309W        W51714  43.881  27.963  13.052
83310W        W51715  29.600   5.826   1.071
83311W        W51716  15.653  44.388  14.552
83312W        W51717   6.740   1.331  13.478
83313W        W51718  43.439  29.433   3.714
83314W        W51719  15.806  17.289   3.335
83315W        W51720   0.893  32.993  13.829
83316W        W51721  44.788  33.084   1.877
83317W        W51722  32.984  34.349  13.900
83318W        W51723  41.829  19.913  13.134
83319W        W51724  39.114  24.032  12.087
83320W        W51725  43.438   1.922   4.185
83321W        W51726  36.986  26.271   2.275
83322W        W51727  20.218   1.980  12.131
83323W        W51728  25.584  40.851  12.272
83324W        W51729  32.662   1.735  10.679
83325W        W51730  34.658   1.225   4.625
83326W        W51731  40.368   5.282   0.685
83327W        W51732  43.671   9.337   0.237
83328W        W51733  40.924  21.688   1.502
83329W        W51734  35.339  11.061   2.384
83330W        W51735  41.499  44.627   4.248
83331W        W51736  23.911  36.304   2.723
83332W        W51737   2.209  28.951   3.679
83333W        W51738  25.889  29.444   2.269
83334W        W51739  14.332  38.405   0.498
83335W        W51740  39.884  39.822   3.229
83336W        W51741  13.632   1.734  12.313
83337W        W51742  43.802  29.478   0.920
83338W        W51743  23.953  26.642  12.027
83339W        W51744   3.717  11.245  11.256
83340W        W51745  24.808  37.714  14.279
83341W        W51746   5.246  42.035  10.689
83342W        W51747  29.874   5.297   3.600
83343W        W51748  21.061   7.624   0.936
83344W        W51749  29.513  17.518   3.414
83345W        W51750   8.374  28.042  13.175
83346W        W51751  13.730  32.316   3.692
83347W        W51752   0.348  43.486   2.282
83348W        W51753  21.801  11.570  11.053
83349W        W51754  15.659  11.534  14.360
83350W        W51755  17.758  21.922   4.787
83351W        W51756  17.807   2.821   4.080
83352W        W51757  27.905  31.716  14.964
83353W        W51758  20.792  35.602  12.175
83354W        W51759  25.060  40.777  10.503
83355W        W51760   1.468  33.923   0.748
83356W        W51761  28.018  17.796  12.325
83357W        W51762  36.529  16.046  11.644
83358W        W51763  10.666  34.174   4.615
83359W        W51764  29.276  26.424  11.246
83360W        W51765  31.763  37.334   3.286
83361W        W51766  18.021  35.531   3.886
83362W        W51767   0.928  10.378   2.439
83363W        W51768   7.800  33.597  10.255
83364W        W51769  22.034  13.515  13.392
83365W        W51770  21.682  11.802  14.800
83366W        W51771  44.864  19.769   0.718
83367W        W51772  31.679  34.974  11.871
83368W        W51773  33.352   3.968   3.184
83369W        W51774  19.101  41.055  14.867
83370W        W51775  41.523   1.821  11.546
83371W        W51776  15.500  12.499  13.391
83372W        W51777  21.742   2.420  12.046
83373W        W51778  43.227   5.348  13.467
83374W        W51779  12.014  30.600   2.754
83375W        W51780  36.618  43.969  12.875
83376W        W51781  24.950  17.623   1.190
83377W        W51782   8.078  36.478   3.308
83378W        W51783  13.746  18.155  11.900
83379W        W51784  22.718  22.620   0.082
83380W        W51785  18.858   6.131  14.375
83381W        W51786  44.974  24.751  11.690
83382W        W51787  22.123  38.954   0.621
83383W        W51788  16.601  42.538  12.918
83384W        W51789  43.142  32.595   2.774
83385W        W51790  28.665  36.339  12.054
83386W        W51791  31.943  42.058   1.747
83387W        W51792  20.588  20.947   2.261
83388W        W51793   7.210  31.875   4.633
83389W        W51794   7.788  32.967   2.712
83390W        W51795   7.613  27.480  10.151
83391W        W51796  23.051   8.581   4.216
83392W        W51797  39.962  23.793  12.006
83393W        W51798  44.000  34.525   2.784
83394W        W51799  13.578  25.247  11.098
83395W        W51800  22.521   4.548  11.879
83396W        W51801  16.758  33.807  14.003
83397W        W51802  26.051  30.150  14.533
83398W        W51803  10.843  16.403  12.928
83399W        W51804  15.589  18.732   2.908
83400W        W51805   9.217  34.728  11.352
83401W        W51806  16.502  38.847  12.649
83402W        W51807  37.349   2.831  10.703
83403W        W51808   8.348  13.745  13.064
83404W        W51809  18.758  28.857  11.121
83405W        W51810  22.220  25.628   4.204
83406W        W51811  12.811   4.374  12.609
83407W        W51812  36.882   5.924   0.307
83408W        W51813  35.986  43.769   1.485
83409W        W51814  25.918  13.858  13.489
83410W        W51815   7.626   9.934   2.354
83411W        W51816  41.701  13.265   4.089
83412W        W51817  23.467  32.010  11.996
83413W        W51818  20.011  29.274  14.872
83414W        W51819  28.751  29.050   1.641
83415W        W51820  15.545  34.619  13.886
83416W        W51821   8.640  27.460  14.464
83417W        W51822  38.555  23.445  13.960
83418W        W51823   2.112  37.375   2.337
83419W        W51824  18.985  12.192   0.187
83420W        W51825  36.801  14.165   3.721
83421W        W51826  40.068  33.708   4.368
83422W        W51827   0.366  33.555  14.992
83423W        W51828  33.532   9.599   0.368
83424W        W51829  26.574  43.240  12.936
83425W        W51830   5.254  43.651  14.871
83426W        W51831  12.063  15.717   0.197
83427W        W51832  41.858  26.958   4.894
83428W        W51833  43.091  27.728  13.934
83429W        W51834  15.708  12.775   0.081
83430W        W51835  15.364   3.436   3.199
83431W        W51836  36.969  27.555   1.680
83432W        W51837  30.184  21.062   4.810
83433W        W51838  15.785  36.314   3.579
83434W        W51839  21.679  25.255  13.040
83435W        W51840   9.516  44.120  12.961
83436W        W51841   2.448  25.188   3.612
83437W        W51842  13.766  37.675  12.469
83438W        W51843  10.914   6.803   0.378
83439W        W51844   3.314   4.287   0.971
83440W        W51845   5.716   6.401  11.072
83441W        W51846  21.318   3.717   3.223
83442W        W51847   7.655   4.973  10.268
83443W        W51848  27.624  29.687   0.940
83444W        W51849  27.966  11.714  12.955
83445W        W51850  15.701  12.079   3.644
83446W        W51851  38.386   0.657  13.506
83447W        W51852  23.550  28.608   3.877
83448W        W51853  43.307  24.694  14.710
83449W        W51854  17.261   0.003   4.560
83450W        W51855  15.509  39.433  14.310
83451W        W51856  11.731  16.659   2.815
83452W        W51857  29.723  43.888  14.451
83453W        W51858  36.901  10.506   2.208
83454W        W51859  37.828  23.553   1.220
83455W        W51860  33.880  23.660  12.488
83456W        W51861  13.577  29.205   3.380
83457W        W51862   3.132  29.926   3.441
83458W        W51863  31.998  15.622  13.931
83459W        W51864  16.821  12.366  12.804
83460W        W51865  34.576  35.284   1.932
83461W        W51866  16.990  16.743   1.834
83462W        W51867  22.102  12.822   3.216
83463W        W51868  39.775   4.877  13.283
83464W        W51869  34.921  39.276   0.500
83465W        W51870  16.552  32.428  12.370
83466W        W51871  38.943  36.139   4.038
83467W        W51872  38.674  20.090   1.821
83468W        W51873   3.393   6.037   0.370
83469W        W51874  25.251  43.760  14.259
83470W        W51875  38.953   9.534  14.045
83471W        W51876   5.430  20.850   1.969
83472W        W51877  44.835  30.690   1.744
83473W        W51878  21.943  42.421  14.825
83474W        W51879  11.458  29.603  14.241
83475W        W51880  40.253   0.257   0.782
83476W        W51881  19.888  36.565   3.110
83477W        W51882  43.855  40.050   2.659
83478W        W51883  42.716  14.177   0.010
83479W        W51884  20.620  44.804  13.286
83480W        W51885   9.182   2.983  10.743
83481W        W51886  18.435  15.727   4.551
83482W        W51887   4.627  14.214  13.056
83483W        W51888   3.557   0.849  13.029
83484W        W51889  17.860  17.658   2.851
83485W        W51890   3.457  21.568   4.176
83486W        W51891  38.903  18.762  10.675
83487W        W51892  44.457  38.725  12.114
83488W        W51893  35.850  38.493  11.532
83489W        W51894  23.181  43.998  11.902
83490W        W51895  44.740  14.003  12.835
83491W        W51896   4.505  13.005   3.719
83492W        W51897  16.321   0.449   9.866
83493W        W51898  43.544  40.490  14.212
83494W        W51899   7.598  31.504   0.625
83495W        W51900  37.885   2.984  13.429
83496W        W51901   7.189  30.043  14.015
83497W        W51902   6.408  40.232  12.360
83498W        W51903  12.301   0.465  11.201
83499W        W51904   1.734   0.439   1.929
83500W        W51905  12.449  15.119   2.114
83501W        W51906   4.611  24.723   4.203
83502W        W51907  40.405   7.683  14.836
83503W        W51908   9.340  34.975   0.221
83504W        W51909  16.512  16.514   2.398
83505W        W51910  26.903   0.321  14.465
83506W        W51911  32.437  18.612  11.007
83507W        W51912  31.238  28.582  13.598
83508W        W51913  13.268  25.535  14.253
83509W        W51914  26.626  22.616   2.758
83510W        W51915  35.160   7.697   1.309
83511W        W51916  30.364  37.446   2.798
83512W        W51917  26.648  18.088  12.355
83513W        W51918   8.192   8.623   1.219
83514W        W51919  21.551   6.707  14.970
83515W        W51920  13.697  33.555   0.894
83516W        W51921  32.050  43.937   0.968
83517W        W51922  25.464  19.981   2.979
83518W        W51923   9.820   5.984   3.312
83519W        W51924  36.086   5.736   4.306
83520W        W51925   9.515  35.735  11.315
83521W        W51926  37.086  35.855   3.873
83522W        W51927   3.667  14.075  12.940
83523W        W51928  40.208  34.171  12.578
83524W        W51929   2.834  13.688   0.541
83525W        W51930  12.104   2.834  14.361
83526W        W51931  29.647  39.478   1.966
83527W        W51932  23.629  19.519  14.531
83528W        W51933  34.055  27.399   0.256
83529W        W51934  33.419   6.188   2.348
83530W        W51935  44.160   8.669   3.662
83531W        W51936  40.055  34.910  14.992
83532W        W51937   9.138   4.218   1.392
83533W        W51938  18.529   1.001   4.367
83534W        W51939  31.065  39.182  11.209
83535W        W51940  34.441  35.808   3.111
83536W        W51941  37.980   5.048  14.274
83537W        W51942  20.521  37.991   1.363
83538W        W51943  31.277  29.476   0.834
83539W        W51944  42.513  22.410   0.234
83540W        W51945  17.879  37.387  12.909
83541W        W51946   6.466  39.878  11.606
83542W        W51947  35.139   1.429   4.547
83543W        W51948   4.755  28.649  13.414
83544W        W51949  32.951  40.838   2.783
83545W        W51950  18.532  21.536   4.931
83546W        W51951  42.439  14.119  11.752
83547W        W51952  13.858   6.671  12.170
83548W        W51953  35.131   1.952  11.572
83549W        W51954   8.360   6.052   0.226
83550W        W51955  25.671  35.808   3.675
83551W        W51956  29.306   6.143  10.604
83552W        W51957  38.455  18.817   1.423
83553W        W51958  37.052  42.444  10.653
83554W        W51959  17.336  36.203   0.700
83555W        W51960  12.247  44.634   4.143
83556W        W51961  14.171  31.463   1.953
83557W        W51962   0.309   5.899  14.829
83558W        W51963  33.130  24.019  10.664
83559W        W51964   0.801  31.740   4.080
83560W        W51965  37.509  39.431  13.507
83561W        W51966  28.437  39.673   2.242
83562W        W51967   3.972  24.530  14.767
83563W        W51968  21.777  31.252  13.152
83564W        W51969   4.181  39.532  14.358
83565W        W51970  16.823  18.114   1.783
83566W        W51971  35.074   4.160  13.904
83567W        W51972  17.595  19.783  14.801
83568W        W51973  27.078  35.046   3.764
83569W        W51974  18.023  35.937  14.371
83570W        W51975   5.289  19.726   3.135
83571W        W51976  39.139  25.962  10.653
83572W        W51977  15.708  35.348  12.130
83573W        W51978  44.457  19.146  13.397
83574W        W51979  22.594  25.763   0.570
83575W        W51980  21.482  32.898  13.535
83576W        W51981  17.041  27.050  14.384
83577W        W51982  23.974  14.577   3.234
83578W        W51983  23.720  13.498   0.377
83579W        W51984  43.279  44.704   0.519
83580W        W51985   2.047   5.261   3.039
83581W        W51986   0.348   7.185  11.197
83582W        W51987  11.387  12.818  14.013
83583W        W51988  44.966   6.702  14.878
83584W        W51989  12.672  35.286   3.116
83585W        W51990  32.834  43.945  14.499
83586W        W51991  44.401  29.014   2.374
83587W        W51992  36.361  17.074   3.958
83588W        W51993  19.790   4.468   0.368
83589W        W51994  35.325  42.718   0.082
83590W        W51995  44.208   0.855  10.214
83591W        W51996  39.892  36.563  11.575
83592W        W51997  37.582  15.781   1.800
83593W        W51998   6.823  17.934   3.699
83594W        W51999  19.104  12.435   1.714
83595W        W52000  17.519  37.863   2.248
83596W        W52001  39.706  38.443  10.629
83597W        W52002  34.912  21.997  12.379
83598W        W52003  28.521  12.158   0.910
83599W        W52004  38.028  15.273   3.292
83600W        W52005  23.582   0.439  12.183
83601W        W52006  36.104  11.208  13.970
83602W        W52007  16.376  13.392  14.407
83603W        W52008   5.681  41.512  11.503
83604W        W52009  19.842  25.766  14.465
83605W        W52010  17.828   8.482  13.888
83606W        W52011   6.149  36.294  11.732
83607W        W52012  30.608   9.204   4.589
83608W        W52013  13.578  35.590   0.283
83609W        W52014  15.866  19.158   3.152
83610W        W52015   8.384  33.327  12.438
83611W        W52016  39.842  20.592   4.338
83612W        W52017  36.927  43.812   3.112
83613W        W52018  32.678   4.479   1.482
83614W        W52019   4.706  10.833   3.551
83615W        W52020  44.491  26.764   3.284
83616W        W52021  29.116  39.816  12.011
83617W        W52022   5.765  37.532   1.947
83618W        W52023  31.701  19.178  10.226
83619W        W52024  29.417   2.960   3.233
83620W        W52025   3.254  30.584  12.443
83621W        W52026  23.737  32.577   0.318
83622W        W52027  34.570  26.577   2.664
83623W        W52028   0.062  14.738   0.894
83624W        W52029   2.689   8.814  10.716
83625W        W52030  27.948  21.031  12.866
83626W        W52031  26.666  38.627  10.764
83627W        W52032  21.186   9.916  11.567
83628W        W52033  11.183  19.652   4.137
83629W        W52034   4.356  37.104   2.941
83630W        W52035  12.281  11.624  12.658
83631W        W52036  23.168  19.056   3.801
83632W        W52037  18.228  15.370  14.813
83633W        W52038   2.872  39.981   0.407
83634W        W52039  29.896  29.385   2.335
83635W        W52040  18.493  14.934  13.963
83636W        W52041  43.252   5.174  12.327
83637W        W52042  38.275   0.956  12.544
83638W        W52043  27.904  44.953   0.562
83639W        W52044  10.123  44.919   4.917
83640W        W52045   2.385   2.498  10.613
83641W        W52046   6.190  13.237   2.218
83642W        W52047  20.663  25.741  10.658
83643W        W52048   0.899  25.377   4.099
83644W        W52049  25.182   8.440   3.259
83645W        W52050  19.942  21.350  11.459
83646W        W52051  16.755  37.991  13.574
83647W        W52052  13.027  39.452   0.871
83648W        W52053   8.869   0.446   0.807
83649W        W52054  30.090  26.747  12.808
83650W        W52055  20.196   5.936   2.789
83651W        W52056  39.453  32.115  13.008
83652W        W52057  24.285  29.085   0.595
83653W        W52058   5.910   7.232  13.925
83654W        W52059  35.031  15.490  10.632
83655W        W52060  17.664  10.325   3.517
83656W        W52061  20.686   5.171   1.106
83657W        W52062  22.513  34.148  11.608
83658W        W52063  40.030  31.049   3.710
83659W        W52064   8.617  16.703   1.822
83660W        W52065  27.076  10.786  10.371
83661W        W52066   7.327  26.147   3.918
83662W        W52067   9.904  37.987   0.875
83663W        W52068  44.120  17.471   2.578
83664W        W52069  42.841   8.352  12.537
83665W        W52070  44.783  12.633   1.922
83666W        W52071  44.877  15.344  12.869
83667W        W52072   9.625  32.020  12.998
83668W        W52073  42.606  40.773   1.320
83669W        W52074  20.806  39.223  11.190
83670W        W52075  28.614  44.442   0.238
83671W        W52076  19.758  16.904  13.765
83672W        W52077  39.702   0.206  13.122
83673W        W52078  31.884  40.456   4.126
83674W        W52079  19.526  43.415   0.988
83675W        W52080  32.379  26.047   3.258
83676W        W52081  33.812  10.724   0.426
83677W        W52082   3.519   2.189  14.958
83678W        W52083  28.218  18.785  12.049
83679W        W52084  12.844  28.549  13.423
83680W        W52085  43.524  16.217  14.969
83681W        W52086  41.876  34.154   2.738
83682W        W52087  30.945  16.896   2.988
83683W        W52088  20.823  10.339  12.685
83684W        W52089  12.246  38.950   2.467
83685W        W52090  29.128  30.003   1.233
83686W        W52091  43.825  11.189   2.298
83687W        W52092  37.480   1.957  10.041
83688W        W52093  43.502  24.999   0.366
83689W        W52094  10.206  17.353   4.449
83690W        W52095  26.989  11.858  13.077
83691W        W52096  41.550   0.959   3.528
83692W        W52097  27.554  24.082   2.704
83693W        W52098  35.792   5.583   3.345
83694W        W52099  32.924   4.374  13.520
83695W        W52100  15.869  39.288  13.299
83696W        W52101   7.386  33.508   3.955
83697W        W52102  23.822  23.060   4.159
83698W        W52103  27.134   6.814   3.367
83699W        W52104  43.445   2.249   2.266
83700W        W52105  28.465  26.631   2.084
83701W        W52106  24.893  29.374  14.394
83702W        W52107   9.651  30.612   3.499
83703W        W52108  25.641   5.858  10.709
83704W        W52109  44.798  12.598  13.797
83705W        W52110  21.332  22.866  12.607
83706W        W52111  38.487  17.774   1.410
83707W        W52112   7.267  29.220   3.150
83708W        W52113  26.534   9.642   0.967
83709W        W52114  11.284  38.094   1.049
83710W        W52115  39.258  25.874   4.348
83711W        W52116  43.493  17.254  14.719
83712W        W52117  17.490   2.678   2.927
83713W        W52118  15.548  25.653   0.689
83714W        W52119  29.615  27.587  14.420
83715W        W52120   8.268  34.682  11.947
83716W        W52121   8.261  17.953  10.845
83717W        W52122  14.816  30.648  14.432
83718W        W52123  16.686   4.925   3.271
83719W        W52124  35.429  24.529  13.784
83720W        W52125   3.795  34.418  12.717
83721W        W52126  19.346  37.083  12.130
83722W        W52127   1.822  28.166  12.492
83723W        W52128   9.995  17.656   2.297
83724W        W52129  22.789  11.383  11.940
83725W        W52130  32.384  33.998  14.813
83726W        W52131  17.287   0.499  11.068
83727W        W52132  37.360  32.074   2.766
83728W        W52133  12.258   7.512  12.132
83729W        W52134  23.524  29.612   4.745
83730W        W52135  33.631  23.776   1.402
83731W        W52136  43.012   1.516   2.365
83732W        W52137  18.587  17.146  14.783
83733W        W52138   5.901  35.539  13.420
83734W        W52139  10.131  19.881   1.525
83735W        W52140  44.208  12.321   2.833
83736W        W52141  33.423  24.645   4.216
83737W        W52142  28.497  40.574  12.597
83738W        W52143   8.938  12.118  10.989
83739W        W52144  31.688  33.181  12.034
83740W        W52145  25.492  33.633  14.828
83741W        W52146  42.335  36.660   0.857
83742W        W52147  34.922   5.713   4.633
83743W        W52148  39.924  20.486   3.845
83744W        W52149   0.723  42.650  11.152
83745W        W52150  14.379  38.076   0.883
83746W        W52151  26.099  12.572  11.637
83747W        W52152   3.346  18.560   0.854
83748W        W52153   2.987   3.362   5.054
83749W        W52154  22.339  24.454  14.485
83750W        W52155  32.361   6.836   0.248
83751W        W52156  37.306  12.287   2.010
83752W        W52157  25.497  35.044  13.785
83753W        W52158  12.789  25.580   4.469
83754W        W52159  17.122   1.388   1.125
83755W        W52160  15.275  32.006   5.055
83756W        W52161  43.555  28.362   2.948
83757W        W52162  39.169  14.599   5.003
83758W        W52163   7.972  20.426  11.576
83759W        W52164  21.813  31.056   2.169
83760W        W52165   0.015  12.818   2.402
83761W        W52166  28.072   6.950  13.752
83762W        W52167   8.230  17.245   1.848
83763W        W52168  17.609  16.508   1.752
83764W        W52169  30.949  18.542   4.608
83765W        W52170  14.830  15.217   2.218
83766W        W52171  17.932  32.402   2.884
83767W        W52172  37.012  41.600   2.855
83768W        W52173  35.086  28.259  14.982
83769W        W52174  14.844  24.244   0.199
83770W        W52175  17.672   9.891  10.739
83771W        W52176   8.336  19.835   0.288
83772W        W52177  32.533  19.005  10.694
83773W        W52178  19.578  13.279  14.064
83774W        W52179  40.963   4.445  13.635
83775W        W52180  14.795  28.944   4.631
83776W        W52181   2.686  22.540   0.657
83777W        W52182  31.851  10.211   3.765
83778W        W52183  14.777   0.243   4.491
83779W        W52184  12.287   9.372  11.580
83780W        W52185  33.479   3.640  11.130
83781W        W52186   0.085  11.874   4.267
83782W        W52187  41.894  37.933   0.298
83783W        W52188  39.839  30.393  12.951
83784W        W52189   6.475  20.207   2.185
83785W        W52190  32.084   1.319   2.678
83786W        W52191  29.392  33.650  10.198
83787W        W52192  28.357  24.677  13.977
83788W        W52193   5.687  39.955  11.174
83789W        W52194  11.270  32.898  12.596
83790W        W52195  29.643  38.331   4.670
83791W        W52196  17.665  14.847   1.331
83792W        W52197  32.172  22.760   4.482
83793W        W52198  22.321  28.018  12.221
83794W        W52199  23.563   7.808   3.247
83795W        W52200   2.200  13.846   3.808
83796W        W52201  26.955  11.359  13.803
83797W        W52202  28.051  13.093  10.618
83798W        W52203  21.501  30.963  14.863
83799W        W52204   4.702   5.937  13.884
83800W        W52205  15.070  10.201   2.718
83801W        W52206  37.424  44.184  13.444
83802W        W52207  28.042   9.256   2.587
83803W        W52208  10.098  39.039   2.046
83804W        W52209  27.953  28.029  10.645
83805W        W52210  13.096  42.015  11.941
83806W        W52211  30.245  16.941   0.313
83807W        W52212  27.653  13.741  12.026
83808W        W52213  19.745  35.615   0.130
83809W        W52214  43.969  44.121  11.566
83810W        W52215  30.131  37.458   2.198
83811W        W52216  27.484   1.345  13.575
83812W        W52217   9.395  19.692  12.485
83813W        W52218  33.608  22.092   4.729
83814W        W52219  26.105  39.809  13.694
83815W        W52220   0.053  30.065  13.934
83816W        W52221  21.504  18.057   0.879
83817W        W52222  41.975  26.082  10.769
83818W        W52223  18.486   0.202   4.117
83819W        W52224  28.154  34.074   3.839
83820W        W52225  15.311   7.663   4.886
83821W        W52226  23.314  26.031   1.530
83822W        W52227   8.607  26.559  13.979
83823W        W52228  40.486  27.129   4.490
83824W        W52229  41.574   9.776   2.673
83825W        W52230  28.411  43.909  13.474
83826W        W52231  39.208  15.849  12.414
83827W        W52232  23.548  12.096  14.335
83828W        W52233   4.699  36.936  14.510
83829W        W52234  15.181  20.210   1.287
83830W        W52235  38.446  34.568   2.459
83831W        W52236  30.227  12.294  11.416
83832W        W52237  33.602  23.102   0.913
83833W        W52238  11.927  42.082  13.940
83834W        W52239   4.964  39.644  14.333
83835W        W52240  32.102   3.269   4.864
83836W        W52241  29.685  22.114  11.073
83837W        W52242  17.126  20.836  12.487
83838W        W52243  40.359   3.251  14.763
83839W        W52244  20.768  43.331   0.262
83840W        W52245  39.476  18.283   4.100
83841W        W52246  42.566  33.905   1.377
83842W        W52247   0.065  38.279   4.718
83843W        W52248  40.750  33.548   3.816
83844W        W52249   2.965   4.453   4.994
83845W        W52250  31.796   7.239   2.567
83846W        W52251   1.380  22.166   1.679
83847W        W52252  36.225   3.515   5.020
83848W        W52253  17.365  24.620  13.522
83849W        W52254  10.646  34.893  13.988
83850W        W52255  14.474  35.873  10.267
83851W        W52256  43.744   2.697  11.137
83852W        W52257  40.566  32.065  13.029
83853W        W52258  15.080  25.264  14.043
83854W        W52259  38.644  29.860  10.541
83855W        W52260  23.461  15.304  14.887
83856W        W52261  35.222  42.315  14.763
83857W        W52262  11.169  16.199  13.692
83858W        W52263  29.661  19.989   4.976
83859W        W52264  31.409  25.068   3.784
83860W        W52265  15.110  29.530  13.587
83861W        W52266  32.438  33.310   2.365
83862W        W52267  25.490   3.871  13.566
83863W        W52268   9.124  42.911  10.735
83864W        W52269  10.935  38.960   2.014
83865W        W52270  11.159  20.593  11.557
83866W        W52271  21.446  43.003  13.079
83867W        W52272  14.732  12.312   1.898
83868W        W52273  15.198   4.442  12.704
83869W        W52274  30.687  25.678   0.843
83870W        W52275  18.595  11.166  13.358
83871W        W52276  11.182  31.122  12.060
83872W        W52277  11.897  43.284   3.356
83873W        W52278  33.480   1.340  12.144
83874W        W52279  39.506  43.257  10.787
83875W        W52280  21.703  31.084   0.343
83876W        W52281  36.435  34.139   2.393
83877W        W52282  41.647   1.970   2.181
83878W        W52283  28.675   4.403   3.708
83879W        W52284  10.303   5.490   0.874
83880W        W52285   4.696  19.127  13.049
83881W        W52286   6.756   5.963   1.199
83882W        W52287  21.323  39.623  12.048
83883W        W52288  33.441  11.743   2.647
83884W        W52289  32.001   7.726   2.621
83885W        W52290  17.132  40.474   1.119
83886W        W52291  17.082  41.964  13.979
83887W        W52292  30.180   8.371  12.260
83888W        W52293  16.418  11.273   1.529
83889W        W52294   5.879  17.897   2.739
83890W        W52295  15.757   3.870   3.429
83891W        W52296   9.749  27.030   1.435
83892W        W52297  34.137   3.816  13.389
83893W        W52298  27.133   7.746   3.431
83894W        W52299  18.922  20.412   0.826
83895W        W52300  26.642   6.161   4.566
83896W        W52301  14.048  28.573   0.915
83897W        W52302  40.071  25.692  13.923
83898W        W52303  19.279  28.889   1.290
83899W        W52304  29.655  32.373  14.996
83900W        W52305  16.230  30.497   0.350
83901W        W52306  37.793  44.163   1.738
83902W        W52307  10.907  24.775   2.265
83903W        W52308  15.218  43.975  12.086
83904W        W52309   0.634  26.469   2.919
83905W        W52310  22.169  10.386  11.494
83906W        W52311  27.002  41.834   0.907
83907W        W52312   3.986   7.479   2.282
83908W        W52313  17.108  24.197  13.326
83909W        W52314  40.460  14.024   0.050
83910W        W52315  28.930  10.889  12.968
83911W        W52316  21.637  38.582  11.005
83912W        W52317  21.311  26.074   0.156
83913W        W52318  27.985  12.705   0.490
83914W        W52319  44.339  18.854   0.905
83915W        W52320  14.282  37.586   0.048
83916W        W52321   6.835  23.796  11.469
83917W        W52322  11.725  14.922  13.592
83918W        W52323  27.996  44.237  13.552
83919W        W52324   9.414  44.636  12.905
83920W        W52325  19.071  38.833   4.180
83921W        W52326  22.745  20.875   5.094
83922W        W52327  38.758  39.415  11.319
83923W        W52328  38.344  35.536   2.209
83924W        W52329  10.819  39.967   2.669
83925W        W52330  23.480  12.310   2.896
83926W        W52331  32.652  25.103  14.914
83927W        W52332  43.277  37.831  12.969
83928W        W52333  24.521  15.616   1.794
83929W        W52334   5.413  12.054   1.785
83930W        W52335  42.876  27.577   0.332
83931W        W52336  26.249   2.289   3.381
83932W        W52337  17.315  38.616   4.912
83933W        W52338  11.582  23.100   3.140
83934W        W52339  20.526  42.782  10.916
83935W        W52340  21.253  27.430   2.930
83936W        W52341  43.704  24.548  13.097
83937W        W52342  33.890  30.740   0.923
83938W        W52343  22.825  37.126  12.984
83939W        W52344  17.540  30.885   4.556
83940W        W52345  28.649   0.361   4.659
83941W        W52346  31.706   2.696  12.979
83942W        W52347  18.115  41.328   2.203
83943W        W52348  35.985  34.031  13.729
83944W        W52349  31.137  12.976  11.527
83945W        W52350  44.401  37.432  10.034
83946W        W52351   5.316  21.632  14.808
83947W        W52352  19.571   2.306  10.525
83948W        W52353  33.057  41.965   4.110
83949W        W52354  24.900  27.177   3.966
83950W        W52355  36.798  30.479   5.027
83951W        W52356  24.959  31.380  14.416
83952W        W52357  15.045  35.423   3.168
83953W        W52358  32.845  42.454  12.605
83954W        W52359  33.254  28.640   3.621
83955W        W52360   3.814  32.386  14.364
83956W        W52361  39.845  28.155   4.118
83957W        W52362  21.609  14.696   0.292
83958W        W52363  32.649   5.309  11.242
83959W        W52364  34.622  27.477   2.343
83960W        W52365  40.534  37.557  11.685
83961W        W52366   0.697  12.139  11.773
83962W        W52367  26.700  36.010   2.232
83963W        W52368   5.803  34.441   4.552
83964W        W52369  36.520  17.235  14.707
83965W        W52370  11.702  25.450   2.218
83966W        W52371  28.578  35.956  10.709
83967W        W52372   8.277  11.229  14.015
83968W        W52373   0.652  25.354  13.341
83969W        W52374  37.408  22.110   2.756
83970W        W52375  20.294  26.884  12.621
83971W        W52376  27.133   4.342  12.040
83972W        W52377  14.858  30.168   4.132
83973W        W52378  25.635  41.624  14.410
83974W        W52379   5.940  35.852  12.989
83975W        W52380  21.814  44.422   2.711
83976W        W52381   0.557   6.841  13.890
83977W        W52382  39.556  12.768  13.816
83978W        W52383   3.759  19.015  11.149
83979W        W52384  18.048  21.151  10.180
83980W        W52385  33.125  23.757   4.860
83981W        W52386  18.529   5.424  11.933
83982W        W52387  34.337  30.585   2.284
83983W        W52388   6.375   8.311  10.420
83984W        W52389  16.721  20.211   3.858
83985W        W52390  12.988   7.187   4.976
83986W        W52391   5.228  21.287   4.078
83987W        W52392  15.012  42.994   3.739
83988W        W52393  29.130  44.815  10.697
83989W        W52394  19.339  38.811   1.985
83990W        W52395  20.984   7.780  10.141
83991W        W52396   1.775  22.691  11.516
83992W        W52397  37.614   0.300   3.873
83993W        W52398  15.651  15.272  14.920
83994W        W52399   5.527  42.229   2.174
83995W        W52400  42.447   4.774  11.006
83996W        W52401   3.053  11.212   2.812
83997W        W52402  32.148  11.230  13.508
83998W        W52403  34.535   8.170   4.231
83999W        W52404   4.873   2.191  11.082
84000W        W52405  27.205  38.822   3.068
84001W        W52406  36.943  21.637   1.441
84002W        W52407  41.988   2.625  10.490
84003W        W52408  41.794  27.533   3.342
84004W        W52409  32.138  29.479   4.186
84005W        W52410   1.733  20.983  12.127
84006W        W52411  39.610  17.770   3.641
84007W        W52412  15.337  36.983   3.231
84008W        W52413  31.315  17.214   2.634
84009W        W52414   8.316  43.003  14.823
84010W        W52415   5.254  27.753  13.457
84011W        W52416   7.112  26.582   3.725
84012W        W52417  17.636   7.235   3.157
84013W        W52418  43.926  31.516  10.439
84014W        W52419   6.130  39.533   4.070
84015W        W52420  44.357  16.598   2.006
84016W        W52421  20.176   5.195  10.733
84017W        W52422   9.251  16.053   2.250
84018W        W52423  36.890   9.998   0.368
84019W        W52424  43.869  19.649   1.478
84020W        W52425  27.939  15.698   0.288
84021W        W52426  12.888   3.533   2.026
84022W        W52427  16.556  21.999   1.443
84023W        W52428   0.743  11.348  11.086
84024W        W52429  41.474   6.672   2.855
84025W        W52430  37.596   1.729   3.554
84026W        W52431   0.432   1.315  13.819
84027W        W52432  40.563  24.236   2.888
84028W        W52433  29.375  11.310  13.884
84029W        W52434  19.464  29.925  11.973
84030W        W52435  42.483   5.414  11.910
84031W        W52436  15.783  35.025  11.146
84032W        W52437  19.709  41.820  11.952
84033W        W52438  30.505  14.340  12.051
84034W        W52439  24.611   6.663  14.509
84035W        W52440  33.039  43.582   3.073
84036W        W52441  30.990  35.053   4.374
84037W        W52442   2.658  27.084   3.606
84038W        W52443  15.143  27.429   3.791
84039W        W52444  33.310  24.939   4.658
84040W        W52445  28.158   5.087   1.329
84041W        W52446  10.355   1.709  12.907
84042W        W52447  42.023  16.577  14.169
84043W        W52448  17.629   3.701  14.171
84044W        W52449  30.479  36.510  11.240
84045W        W52450  31.906  17.146   4.034
84046W        W52451  17.122  20.523  12.956
84047W        W52452   8.828  41.913   0.288
84048W        W52453  43.518   4.364  14.265
84049W        W52454  19.824   6.382   1.336
84050W        W52455  33.135  20.590   2.885
84051W        W52456  21.592   8.246   0.868
84052W        W52457  41.130  34.947  14.860
84053W        W52458  11.920  31.666   0.246
84054W        W52459   6.666   9.759   3.730
84055W        W52460  20.322  44.568  10.246
84056W        W52461   8.162  10.572   0.754
84057W        W52462   1.269  42.044   0.883
84058W        W52463  42.114  41.144  12.881
84059W        W52464  28.521   2.408  12.008
84060W        W52465  21.357  32.989   2.221
84061W        W52466  17.154  40.603  11.585
84062W        W52467  22.709   2.313   2.370
84063W        W52468  41.031  24.105   3.916
84064W        W52469  43.592  30.968  10.909
84065W        W52470  28.206  16.183   1.686
84066W        W52471   3.060  21.694   2.865
84067W        W52472  10.219  24.454  14.427
84068W        W52473  33.430  17.430  13.413
84069W        W52474   6.244  18.366   1.800
84070W        W52475   9.734   8.696  14.333
84071W        W52476  12.531   1.401  13.561
84072W        W52477  10.828  14.648  13.277
84073W        W52478  43.042  21.094  11.134
84074W        W52479  39.204  44.281   4.144
84075W        W52480  41.007  22.651  10.723
84076W        W52481  15.137  14.316   1.701
84077W        W52482  26.454  39.422   1.324
84078W        W52483   3.868   6.267   4.082
84079W        W52484  22.768  16.579   1.169
84080W        W52485  42.982   2.300   1.236
84081W        W52486   2.142  23.814   0.725
84082W        W52487  37.635  32.428  12.888
84083W        W52488  33.014  30.727   1.936
84084W        W52489  15.270  44.457   0.958
84085W        W52490  22.954  12.686   2.298
84086W        W52491  43.848  44.067  10.671
84087W        W52492  17.318   0.716  12.144
84088W        W52493  25.211  14.493   0.899
84089W        W52494  20.629  21.306   3.521
84090W        W52495  17.645  31.753   5.013
84091W        W52496  39.759  15.871  12.212
84092W        W52497  20.742  36.537   4.834
84093W        W52498  40.252  32.467   4.093
84094W        W52499  27.011   8.209   4.239
84095W        W52500  20.109  43.308   2.035
84096W        W52501  41.977  21.570   1.012
84097W        W52502  31.537   2.785  11.648
84098W        W52503  13.845  18.792  12.600
84099W        W52504  39.768  36.492   4.655
84100W        W52505  16.907  22.680   2.253
84101W        W52506   1.250  33.427   4.580
84102W        W52507  26.645  26.137  11.698
84103W        W52508  44.785  16.169   3.205
84104W        W52509  34.743   8.922  13.891
84105W        W52510  38.929  11.425  13.662
84106W        W52511  30.778  42.585   5.022
84107W        W52512   3.683  29.523  11.662
84108W        W52513  10.175  19.537   3.073
84109W        W52514  21.621  34.155  12.525
84110W        W52515   6.133  12.756  12.465
84111W        W52516   1.141   1.767   4.248
84112W        W52517  10.229  44.901   1.500
84113W        W52518  31.652  17.204  14.067
84114W        W52519  26.732  20.238   3.677
84115W        W52520  11.785   4.468  13.609
84116W        W52521  35.233   3.447   4.139
84117W        W52522   5.743  23.510  10.787
84118W        W52523  25.701  15.147   4.402
84119W        W52524  29.963  26.097   4.808
84120W        W52525  24.964  14.185   3.381
84121W        W52526  22.160  30.592   3.296
84122W        W52527  25.105   1.355   4.622
84123W        W52528  17.696  39.160   1.205
84124W        W52529   3.715   8.942  14.449
84125W        W52530  31.950  37.135   1.293
84126W        W52531   5.666  23.127   3.676
84127W        W52532  17.202  43.512  13.756
84128W        W52533  15.832   9.252  13.071
84129W        W52534  38.920  40.646   2.882
84130W        W52535  34.403  26.054   1.875
84131W        W52536  43.356  36.828  13.746
84132W        W52537  28.748  34.346  13.393
84133W        W52538  20.445  39.949  14.360
84134W        W52539  36.061  42.499  11.612
84135W        W52540  24.171  40.606  13.565
84136W        W52541  24.681   6.353  13.321
84137W        W52542   1.364  39.690   0.292
84138W        W52543  26.026  41.937   4.109
84139W        W52544  42.933   1.940   4.349
84140W        W52545  39.301   2.405  11.115
84141W        W52546  17.624   6.145   1.405
84142W        W52547  29.529  11.796   3.818
84143W        W52548  33.302  30.484  13.726
84144W        W52549  33.332  17.391   4.459
84145W        W52550  20.068  44.771   3.391
84146W        W52551  34.852  19.998  10.869
84147W        W52552  12.779  23.071  14.765
84148W        W52553  32.813  33.439  14.383
84149W        W52554  39.487   3.845   3.344
84150W        W52555  23.790  41.738  14.012
84151W        W52556  10.057   7.643   5.093
84152W        W52557  44.295  30.451  12.574
84153W        W52558  25.784  39.241  14.081
84154W        W52559  16.146  14.209   0.705
84155W        W52560  18.096  26.531   1.480
84156W        W52561  26.583   4.226  14.401
84157W        W52562  21.539  25.111   0.586
84158W        W52563  10.693  18.904   2.944
84159W        W52564  28.674  16.581   0.861
84160W        W52565  41.289   7.895  13.469
84161W        W52566   3.866  16.867   2.530
84162W        W52567  35.711  20.630   0.439
84163W        W52568   2.344   8.470   9.885
84164W        W52569  43.993  20.119   0.758
84165W        W52570  15.335   7.467   3.857
84166W        W52571  20.963  29.056  12.533
84167W        W52572  44.497   5.762  14.460
84168W        W52573  30.700  23.039  10.693
84169W        W52574  40.843  24.819  11.043
84170W        W52575   3.811  35.106   1.248
84171W        W52576   6.156   6.659   2.343
84172W        W52577  33.457   8.708   4.031
84173W        W52578  30.994  34.887   0.988
84174W        W52579  40.077  40.364  11.489
84175W        W52580  22.506   5.386   2.189
84176W        W52581   7.794  35.106  14.879
84177W        W52582   7.590  28.424  13.137
84178W        W52583  32.814  38.564  13.517
84179W        W52584  17.933  43.161   3.357
84180W        W52585  16.225  43.065   3.954
84181W        W52586  16.101  41.095  12.613
84182W        W52587  18.981   9.038   9.510
84183W        W52588  38.698  39.033   1.720
84184W        W52589  43.235  30.468   1.991
84185W        W52590  10.123   4.978   0.943
84186W        W52591  20.569  27.492  13.938
84187W        W52592  15.763  11.619  13.039
84188W        W52593  23.161  16.865   2.328
84189W        W52594  27.646  14.309   3.029
84190W        W52595  25.118  22.876   4.168
84191W        W52596  24.987  39.615  14.796
84192W        W52597  20.025  37.085   0.913
84193W        W52598  30.683   9.878   2.937
84194W        W52599  19.828  21.738   1.564
84195W        W52600   7.719  20.205  14.134
84196W        W52601  39.913  23.616  11.499
84197W        W52602  28.913  41.510   0.796
84198W        W52603   5.420  35.566  13.188
84199W        W52604  10.934  15.028  11.143
84200W        W52605  21.661  39.515  12.422
84201W        W52606   0.469   1.710   2.099
84202W        W52607  11.560  16.154  14.024
84203W        W52608  22.668  16.416   0.404
84204W        W52609  18.679   5.213   0.252
84205W        W52610  25.675   1.209   0.644
84206W        W52611  26.677  34.076  12.814
84207W        W52612  18.963  13.882  13.681
84208W        W52613  29.924  38.851  10.210
84209W        W52614  25.453  28.589   1.696
84210W        W52615  26.226  36.887  13.336
84211W        W52616  36.937  13.030  11.215
84212W        W52617  10.748  23.059   0.915
84213W        W52618  39.853  34.348   0.944
84214W        W52619  28.214  43.096   0.274
84215W        W52620  21.297  19.777  12.950
84216W        W52621  43.304  22.211  13.978
84217W        W52622  16.247  33.443  14.699
84218W        W52623  14.108   1.259  14.322
84219W        W52624  15.327  33.238   3.260
84220W        W52625  21.045  39.879  14.467
84221W        W52626  30.855  36.291   0.806
84222W        W52627  40.235   1.970  11.094
84223W        W52628  23.618  36.792   1.320
84224W        W52629  14.832  29.192  11.476
84225W        W52630  11.357  19.779   3.218
84226W        W52631  30.380   1.820   2.770
84227W        W52632  38.360   9.429   1.273
84228W        W52633  40.671  25.471  11.230
84229W        W52634  42.534  23.489  10.687
84230W        W52635  19.975  36.049  12.332
84231W        W52636  14.564  10.596  14.793
84232W        W52637  40.066  14.670   2.193
84233W        W52638  23.556  27.673   3.431
84234W        W52639  26.475   9.284  12.835
84235W        W52640  27.225  36.011  12.836
84236W        W52641  21.528  24.755   1.410
84237W        W52642  33.696  32.390  13.486
84238W        W52643  37.545   5.940  14.318
84239W        W52644  11.819  21.220  14.296
84240W        W52645  36.347  25.187   4.384
84241W        W52646  15.299  28.490   0.455
84242W        W52647   3.412   9.201  10.344
84243W        W52648  39.764  14.696  14.952
84244W        W52649  28.317   9.436  12.454
84245W        W52650  16.149  16.491   0.751
84246W        W52651  30.409  20.617   4.522
84247W        W52652  25.036  15.962  13.446
84248W        W52653  16.193   6.243  13.559
84249W        W52654  29.537  23.163   2.842
84250W        W52655   0.462  27.666   1.265
84251W        W52656  36.893  35.664   0.436
84252W        W52657  24.014  21.266   5.050
84253W        W52658  36.101  21.075   4.889
84254W        W52659  25.564  25.754   1.293
84255W        W52660  42.968  44.217  10.606
84256W        W52661  41.925  14.095  14.551
84257W        W52662  30.586   6.339   1.776
84258W        W52663  13.036  15.061   1.355
84259W        W52664  39.811  19.183   0.233
84260W        W52665  11.425  24.397  12.542
84261W        W52666  38.604  19.835   1.375
84262W        W52667  14.626  23.784  10.869
84263W        W52668  35.902  27.482   4.178
84264W        W52669   0.901  36.362  14.498
84265W        W52670   3.405  31.990   2.226
84266W        W52671  32.873  10.915   0.385
84267W        W52672   4.572  40.015   9.809
84268W        W52673  42.998  26.414   1.467
84269W        W52674  30.114  29.551   2.786
84270W        W52675   2.520   0.880   2.728
84271W        W52676  43.482  40.328  12.000
84272W        W52677   4.038  42.480   1.246
84273W        W52678  20.261   7.428  11.003
84274W        W52679  21.251   8.335   2.080
84275W        W52680  34.810   1.028  13.490
84276W        W52681  39.967   6.840   0.249
84277W        W52682  33.949  30.421  10.739
84278W        W52683  26.572  14.498   2.868
84279W        W52684  12.354  27.973  11.846
84280W        W52685  27.731  23.612  14.762
84281W        W52686   2.532  13.330   1.762
84282W        W52687  41.470  38.591  13.815
84283W        W52688  24.368   9.756  12.583
84284W        W52689  15.671  16.303   2.380
84285W        W52690  43.330  41.730   1.678
84286W        W52691  11.863  35.951   3.357
84287W        W52692  44.124  41.853   5.043
84288W        W52693  32.533  29.490  13.979
84289W        W52694  32.540  24.520   3.218
84290W        W52695  26.979   8.397  14.868
84291W        W52696  22.017  24.936  13.384
84292W        W52697   7.841  19.346  14.374
84293W        W52698   3.867  11.133   3.572
84294W        W52699  19.724  37.611   4.241
84295W        W52700  18.624   0.322  12.130
84296W        W52701   8.279  40.305  14.919
84297W        W52702  20.761  12.921   3.587
84298W        W52703  19.288  40.279  12.469
84299W        W52704  27.415  13.108   3.847
84300W        W52705  38.885   3.358  14.827
84301W        W52706  21.168  41.098   0.017
84302W        W52707   4.016  26.550  12.479
84303W        W52708  30.594   6.713   3.770
84304W        W52709  39.143  32.014  14.462
84305W        W52710  22.214  10.863  12.389
84306W        W52711   8.733  24.732  11.147
84307W        W52712  20.746  19.194   0.332
84308W        W52713  14.214   2.511   0.848
84309W        W52714  34.756  36.755   3.917
84310W        W52715  41.277  34.906  11.936
84311W        W52716  21.638   4.333  13.481
84312W        W52717  35.850  13.528  12.957
84313W        W52718  34.848   5.823   3.717
84314W        W52719   7.132  13.429   4.093
84315W        W52720   1.275  39.760  11.252
84316W        W52721  31.119  20.283   1.952
84317W        W52722  26.977  18.210   1.786
84318W        W52723  34.431  16.925  12.845
84319W        W52724   5.947  15.906   2.205
84320W        W52725  36.380   9.873   0.371
84321W        W52726   5.693  37.442  10.252
84322W        W52727   3.703  13.708   0.018
84323W        W52728  36.613  28.773  10.424
84324W        W52729   3.827  25.198   2.834
84325W        W52730  24.708  31.168   1.411
84326W        W52731  38.495  19.320   0.543
84327W        W52732  33.125  23.070   2.933
84328W        W52733  19.067  23.567  14.470
84329W        W52734   7.725  27.233   2.297
84330W        W52735  24.645  41.846  10.347
84331W        W52736   2.631  12.756   0.034
84332W        W52737  37.862  22.506  10.655
84333W        W52738  28.787  33.297   0.326
84334W        W52739  22.736  10.473   2.682
84335W        W52740  25.279  11.750   2.740
84336W        W52741  36.688  23.327  10.437
84337W        W52742   4.146  37.033  12.952
84338W        W52743   0.370  10.268   4.781
84339W        W52744  44.752  27.117  12.405
84340W        W52745  35.783  26.247  10.662
84341W        W52746  14.213  21.186   0.214
84342W        W52747  33.779  27.124  11.525
84343W        W52748  15.262  41.337   3.679
84344W        W52749  22.161  20.442   3.394
84345W        W52750  41.411  10.262  11.984
84346W        W52751   6.367  25.595  13.931
84347W        W52752   1.374  13.518   2.239
84348W        W52753  39.105  30.308  11.592
84349W        W52754  12.538  22.628  13.549
84350W        W52755  27.178  10.384  14.010
84351W        W52756   8.347   6.189  12.839
84352W        W52757   8.185  12.622   3.534
84353W        W52758  38.927   5.774   1.927
84354W        W52759   2.397  22.192   2.828
84355W        W52760  16.808  34.497   1.474
84356W        W52761   6.494   0.534  14.697
84357W        W52762  24.357   8.578  14.469
84358W        W52763  16.545  36.701  11.143
84359W        W52764  36.255  15.929  10.306
84360W        W52765  18.147   9.180  11.771
84361W        W52766  18.315  42.930  11.445
84362W        W52767  11.779  42.135   1.946
84363W        W52768  18.851  11.003   0.884
84364W        W52769   1.851   9.830  10.541
84365W        W52770  38.811  29.730   2.541
84366W        W52771  28.628  23.212   2.859
84367W        W52772   9.222  10.910  10.476
84368W        W52773   9.042  27.093  11.980
84369W        W52774   7.253  38.942   0.360
84370W        W52775  11.306  19.424   0.418
84371W        W52776  37.276  17.244   4.342
84372W        W52777   5.237  27.222  11.912
84373W        W52778  18.169   0.356  10.744
84374W        W52779   9.414  11.867   4.677
84375W        W52780   1.878  18.293   3.245
84376W        W52781   9.856   7.216   1.158
84377W        W52782  14.068  15.733   1.811
84378W        W52783  38.581  42.613  11.409
84379W        W52784  33.310  26.358   0.409
84380W        W52785  11.632  16.670  13.277
84381W        W52786   1.327  17.830  12.541
84382W        W52787  32.048   9.423  13.534
84383W        W52788  15.728  29.973  13.434
84384W        W52789  39.833  40.398  14.733
84385W        W52790  33.231  21.425   2.290
84386W        W52791  39.320  41.488   3.328
84387W        W52792  18.085  32.609   0.675
84388W        W52793  33.797  40.369   0.013
84389W        W52794   7.590  22.182  14.853
84390W        W52795  35.928   7.894   1.757
84391W        W52796  38.327  32.059   1.561
84392W        W52797  39.359   2.664  10.642
84393W        W52798  16.393  19.062   1.945
84394W        W52799  44.058   9.810   1.431
84395W        W52800   7.274   6.726   2.145
84396W        W52801  41.937  29.618  11.290
84397W        W52802   8.189  26.821  14.058
84398W        W52803  11.202   4.394  10.868
84399W        W52804  10.467  13.882  11.587
84400W        W52805  22.670  14.839   2.793
84401W        W52806   3.358  17.579   0.689
84402W        W52807   4.263  23.737  10.340
84403W        W52808  25.042  15.806  10.721
84404W        W52809  14.329  30.578   1.879
84405W        W52810   1.952   1.854   2.927
84406W        W52811  12.698  10.603  14.341
84407W        W52812  23.738  31.705  12.678
84408W        W52813  12.742  44.239   4.651
84409W        W52814   2.184  40.212  11.128
84410W        W52815  20.441  29.240  13.364
84411W        W52816  10.791  41.339  11.596
84412W        W52817  22.155   2.464   1.037
84413W        W52818   3.256  40.282  11.215
84414W        W52819  28.682  39.758  12.970
84415W        W52820   8.953  34.468   3.285
84416W        W52821  16.294  34.904  11.191
84417W        W52822  29.235  21.714  14.421
84418W        W52823   9.179  12.735   1.223
84419W        W52824  20.530  44.051   4.736
84420W        W52825  40.615  28.382  13.412
84421W        W52826  36.714  17.256  11.969
84422W        W52827  29.017  25.105   0.345
84423W        W52828  23.499   4.315   2.932
84424W        W52829  40.032  39.833   1.907
84425W        W52830  14.509  32.418  12.963
84426W        W52831   6.147  18.804  12.104
84427W        W52832  18.232  36.458  10.451
84428W        W52833  35.773  35.437  14.253
84429W        W52834  14.644  43.294   2.008
84430W        W52835  15.299  19.178   2.190
84431W        W52836  20.853  27.102   5.084
84432W        W52837  37.451   0.173   1.775
84433W        W52838  19.264  19.976   2.067
84434W        W52839  41.108   9.702   2.883
84435W        W52840   1.153  29.120  14.804
84436W        W52841   5.337  13.076   0.777
84437W        W52842  15.800  23.448   3.037
84438W        W52843  33.722  19.292  14.357
84439W        W52844  23.002  27.038  13.042
84440W        W52845  40.328  19.016   3.286
84441W        W52846  16.132  29.079  11.975
84442W        W52847  27.233  43.870  12.485
84443W        W52848   9.327  35.615  13.908
84444W        W52849  11.693  12.569  11.563
84445W        W52850  38.056  12.133  14.870
84446W        W52851   6.225  17.880  13.866
84447W        W52852   5.690  34.487  13.982
84448W        W52853   2.512  14.261   3.755
84449W        W52854  23.948  16.039  14.051
84450W        W52855  37.002  32.186   0.745
84451W        W52856  31.033  17.382  14.365
84452W        W52857  41.571  44.456  12.275
84453W        W52858  41.320  41.538   4.768
84454W        W52859  35.092   9.161   3.315
84455W        W52860  25.992   8.603  12.535
84456W        W52861  18.745  16.618   2.412
84457W        W52862  40.035  26.172  14.856
84458W        W52863  25.571  24.209  13.915
84459W        W52864  40.567  13.466   0.938
84460W        W52865  43.066  28.083   4.994
84461W        W52866   1.905  11.950  13.242
84462W        W52867   4.491  10.346   3.312
84463W        W52868  28.097  34.929   1.300
84464W        W52869  16.159  26.023  12.588
84465W        W52870  32.869  34.644   1.740
84466W        W52871  44.538   2.301  13.537
84467W        W52872   5.557  18.828  12.074
84468W        W52873  41.822   9.221   2.968
84469W        W52874  41.051  31.229  11.021
84470W        W52875  13.306  33.310  11.534
84471W        W52876  39.025  14.573  12.464
84472W        W52877   0.934  17.866   4.173
84473W        W52878   2.565  37.397   3.081
84474W        W52879  17.356  11.209   4.097
84475W        W52880  21.455   3.201  12.536
84476W        W52881  12.159  33.952   0.247
84477W        W52882   1.306   7.887   1.754
84478W        W52883   3.834   7.390  10.353
84479W        W52884  19.225  32.139   1.418
84480W        W52885  17.031  20.624   3.923
84481W        W52886  29.085   6.140  14.459
84482W        W52887  38.308  16.161  12.629
84483W        W52888   4.736  32.883  12.000
84484W        W52889  10.685  25.703   2.347
84485W        W52890   9.789   1.006   0.803
84486W        W52891  19.750  21.946   0.259
84487W        W52892  29.592  25.807  13.298
84488W        W52893   4.990   4.657   2.887
84489W        W52894  25.777  44.961  12.924
84490W        W52895  17.520  25.144   1.382
84491W        W52896  35.470  24.360   4.971
84492W        W52897   8.519  17.430   1.452
84493W        W52898  22.176  41.756  12.722
84494W        W52899   0.090  33.415  13.123
84495W        W52900   5.306  25.766   0.615
84496W        W52901  19.064  32.588  11.655
84497W        W52902  17.632   2.589  12.994
84498W        W52903  37.482  18.083   1.031
84499W        W52904   8.607  26.252  12.349
84500W        W52905  31.643  36.523  14.015
84501W        W52906  36.481  15.435   1.691
84502W        W52907  12.657  33.372  14.375
84503W        W52908  11.786  40.126   3.141
84504W        W52909   5.990   8.411   3.774
84505W        W52910  25.667  41.560  12.114
84506W        W52911  44.930   0.391  13.330
84507W        W52912  41.125  14.766  14.423
84508W        W52913   1.533  42.295  12.558
84509W        W52914  43.039  25.707  12.995
84510W        W52915   5.394  19.233   2.940
84511W        W52916  15.068  20.783   4.025
84512W        W52917   8.852  34.616  10.299
84513W        W52918  38.713   8.710   1.352
84514W        W52919  18.045  32.145  14.721
84515W        W52920  44.356   5.376   1.651
84516W        W52921   5.788  41.967  11.197
84517W        W52922  15.129  28.110   3.347
84518W        W52923  38.062  12.404   3.716
84519W        W52924   4.216  20.605  11.939
84520W        W52925  24.905  22.035   4.102
84521W        W52926  35.594  27.209   1.489
84522W        W52927  23.208   9.793   0.259
84523W        W52928  42.027   7.846   0.251
84524W        W52929  42.870  25.965   1.737
84525W        W52930  18.362  43.864   2.897
84526W        W52931  12.563  23.057  13.849
84527W        W52932  20.551  37.448   4.345
84528W        W52933  36.665  12.395   3.817
84529W        W52934  20.908  43.129  10.787
84530W        W52935  43.407   0.798   3.328
84531W        W52936  42.812  44.216  13.132
84532W        W52937  34.839   8.649   4.562
84533W        W52938  40.953  35.776   3.211
84534W        W52939  10.863  23.300   3.616
84535W        W52940  41.920  39.592  13.001
84536W        W52941  42.329  15.398  11.199
84537W        W52942   6.712  30.974  10.271
84538W        W52943  16.224  19.947  14.493
84539W        W52944   0.726   3.565   2.410
84540W        W52945  27.974  12.034  12.533
84541W        W52946  17.303   3.908  14.719
84542W        W52947   0.494  42.784  13.536
84543W        W52948  28.192   6.850   1.215
84544W        W52949  39.394  28.202   1.925
84545W        W52950  39.810  31.871  14.826
84546W        W52951   8.183   4.034  12.416
84547W        W52952  34.154  14.835   0.189
84548W        W52953  11.704   7.255  12.026
84549W        W52954   6.219  32.480   2.264
84550W        W52955  18.040  35.630   0.982
84551W        W52956  35.361  38.774  11.612
84552W        W52957  17.787  12.240  13.919
84553W        W52958   2.948  39.450   0.262
84554W        W52959  19.732  32.420  10.977
84555W        W52960  40.506   0.432   0.354
84556W        W52961  25.979  19.497   1.459
84557W        W52962  10.101  17.284  14.549
84558W        W52963  19.938  25.488   3.942
84559W        W52964  36.511  40.612  11.176
84560W        W52965  13.777   5.796   3.545
84561W        W52966  23.026   6.962   3.326
84562W        W52967  20.095  17.978  13.854
84563W        W52968  36.064  40.484  10.965
84564W        W52969  41.765  43.337  10.653
84565W        W52970  11.054  38.501  10.942
84566W        W52971  17.119  28.556   2.881
84567W        W52972  44.274   0.388   4.095
84568W        W52973  13.553  19.185  14.903
84569W        W52974   1.748  41.866  12.378
84570W        W52975  11.488  21.350  11.065
84571W        W52976  30.138   5.199  13.883
84572W        W52977  31.744  32.599   2.233
84573W        W52978  17.119  41.307   1.330
84574W        W52979   0.257   3.829   4.723
84575W        W52980  31.701  15.611   2.364
84576W        W52981   0.753  28.716   2.794
84577W        W52982  40.340   1.318  12.742
84578W        W52983   1.513  38.475   4.150
84579W        W52984  32.989  13.892  11.107
84580W        W52985  43.685  31.513   3.424
84581W        W52986  41.375  13.225  13.026
84582W        W52987  12.892  42.964   3.606
84583W        W52988   6.681   3.411  13.488
84584W        W52989  41.865  38.156   3.423
84585W        W52990  21.753  29.104   1.062
84586W        W52991  37.594  30.599   2.771
84587W        W52992  20.192   3.395  12.635
84588W        W52993  32.181  16.564  11.608
84589W        W52994  36.613  16.076  14.926
84590W        W52995   9.831   3.646  13.592
84591W        W52996  39.815  43.954   1.411
84592W        W52997   8.290  23.427  11.757
84593W        W52998  10.011  11.883  14.026
84594W        W52999  42.871  15.704   1.196
84595W        W53000  33.936  24.745   4.226
84596W        W53001   7.502  37.526  11.543
84597W        W53002  11.918   3.824   1.328
84598W        W53003   8.382  28.996  11.691
84599W        W53004  23.867   9.362   2.754
84600W        W53005  26.568  34.836   2.073
84601W        W53006  18.181  43.040  12.856
84602W        W53007  41.955  33.087   2.829
84603W        W53008  37.574  18.140  14.385
84604W        W53009  33.832  36.855   4.702
84605W        W53010  21.254   0.478   1.195
84606W        W53011  22.060   6.907   1.910
84607W        W53012  44.462  37.046   1.405
84608W        W53013  26.692  35.410   1.289
84609W        W53014  44.171  37.575  12.870
84610W        W53015  18.953  29.401  13.712
84611W        W53016  27.207  32.036  13.566
84612W        W53017   9.507  37.528   0.967
84613W        W53018   0.075  25.708   1.883
84614W        W53019   1.744  21.211  11.622
84615W        W53020  38.128  22.644  13.039
84616W        W53021   2.410  11.210  13.524
84617W        W53022  31.101  37.901   4.570
84618W        W53023  23.130  14.194  14.336
84619W        W53024  33.090  42.840   0.345
84620W        W53025   1.862  18.336   2.270
84621W        W53026  42.272  42.534  11.514
84622W        W53027  20.056  23.678   0.217
84623W        W53028  40.866  39.909   4.323
84624W        W53029  35.094  17.776   0.335
84625W        W53030   3.279  20.715   4.329
84626W        W53031  11.034  22.311   4.102
84627W        W53032  36.726  17.075  10.136
84628W        W53033  22.054  10.252  13.830
84629W        W53034  27.021  37.092   0.195
84630W        W53035  15.306   7.642   0.837
84631W        W53036   8.913  21.163  11.359
84632W        W53037  37.272  42.916   0.021
84633W        W53038  30.203   2.403   2.092
84634W        W53039  19.321  32.153  11.605
84635W        W53040  30.653   8.688  10.170
84636W        W53041  40.353   2.731  14.821
84637W        W53042   1.710  12.347   0.421
84638W        W53043  15.925  34.640  10.248
84639W        W53044   4.406  14.330  13.990
84640W        W53045   9.064  24.071  13.847
84641W        W53046  22.966   0.371  13.099
84642W        W53047  17.588  26.247  10.530
84643W        W53048  22.168  22.046  14.358
84644W        W53049   9.011  20.262  10.916
84645W        W53050   6.475  39.450   0.486
84646W        W53051   6.448  10.858  11.365
84647W        W53052  38.958  43.891   4.382
84648W        W53053  23.727  12.703  11.601
84649W        W53054  21.568  35.928  10.960
84650W        W53055  22.450  44.467  12.300
84651W        W53056   1.557  10.177  12.032
84652W        W53057  14.226  34.647   3.765
84653W        W53058  40.029  36.581  10.733
84654W        W53059  18.514  38.509  12.914
84655W        W53060  25.451  27.942   0.847
84656W        W53061   3.679  10.155   3.661
84657W        W53062   5.501  20.515  11.637
84658W        W53063   6.835   2.315  14.568
84659W        W53064   4.429   9.925  14.333
84660W        W53065  43.200  14.872   1.301
84661W        W53066   4.747  13.292  10.841
84662W        W53067   4.685  27.674  10.653
84663W        W53068   9.416  21.250   1.174
84664W        W53069  13.759   8.739  14.483
84665W        W53070  19.809  27.286   4.159
84666W        W53071   0.570   7.876  11.541
84667W        W53072  27.808   0.467  12.359
84668W        W53073   0.312  14.406  13.882
84669W        W53074  42.989  30.788  14.834
84670W        W53075  44.425  21.381   4.620
84671W        W53076   2.772  33.412   4.595
84672W        W53077   1.008  35.392   2.304
84673W        W53078   8.857  35.557  12.086
84674W        W53079  31.743  28.126  10.971
84675W        W53080  44.499  19.878  14.234
84676W        W53081  13.081  44.359   2.699
84677W        W53082  30.849  41.024   9.759
84678W        W53083  13.248  32.060   3.664
84679W        W53084  43.358   5.774   1.758
84680W        W53085  20.231   5.971  10.553
84681W        W53086  13.806  26.228  12.846
84682W        W53087   6.728  38.187  14.890
84683W        W53088  23.247  28.079   1.839
84684W        W53089  20.040   3.474  11.049
84685W        W53090  31.990  17.628   0.334
84686W        W53091   1.750   4.766   2.947
84687W        W53092   9.322  31.966   0.686
84688W        W53093  12.889  29.979   4.899
84689W        W53094  35.196  18.687   1.128
84690W        W53095   9.354  30.633  12.877
84691W        W53096   5.814   3.449   4.689
84692W        W53097  35.395  15.109   1.472
84693W        W53098  41.891   0.351  14.079
84694W        W53099   1.264  16.799  13.902
84695W        W53100  20.736  31.046  14.410
84696W        W53101  25.726  11.416  10.397
84697W        W53102  39.798   9.713   3.359
84698W        W53103  13.361  41.406   2.249
84699W        W53104  37.272  14.378   0.044
84700W        W53105  16.599  23.538   0.247
84701W        W53106  33.731  27.318   1.886
84702W        W53107  12.280  37.907  11.245
84703W        W53108  12.679  12.223  11.492
84704W        W53109  41.683  41.094  10.164
84705W        W53110  13.038  36.108  14.745
84706W        W53111   1.396  42.443  13.924
84707W        W53112  29.351  31.431   0.713
84708W        W53113  26.695  16.724  11.696
84709W        W53114   9.427  19.347  12.059
84710W        W53115  15.712   5.731  11.684
84711W        W53116  28.518  22.438   2.172
84712W        W53117  41.007  30.944   4.749
84713W        W53118  30.916  23.634  13.838
84714W        W53119  21.373  21.179   4.085
84715W        W53120  21.643  40.554  12.371
84716W        W53121  11.777  38.034   4.203
84717W        W53122   8.121  24.015  14.316
84718W        W53123  36.657  10.053   3.129
84719W        W53124  14.331  38.021   3.324
84720W        W53125  30.019  33.539   2.719
84721W        W53126  13.922  13.311  13.094
84722W        W53127  22.021  10.103   2.078
84723W        W53128  29.995  27.929   4.166
84724W        W53129  10.456  20.211   4.257
84725W        W53130  26.907   1.790   2.916
84726W        W53131   1.082  28.661  13.494
84727W        W53132  31.983  38.637  12.545
84728W        W53133   9.653   5.372   1.497
84729W        W53134   0.951   5.705   3.045
84730W        W53135   1.332   9.790   3.346
84731W        W53136   0.499   7.649   1.369
84732W        W53137   1.192   1.975  12.540
84733W        W53138   0.351  13.114  14.424
84734W        W53139  30.010  34.901  14.944
84735W        W53140  42.691  21.624  10.538
84736W        W53141  30.518  20.690   0.326
84737W        W53142  20.126  16.226  10.912
84738W        W53143  42.562  30.621   3.733
84739W        W53144  17.810  38.567  10.879
84740W        W53145   6.620  32.356  13.413
84741W        W53146  42.433  29.000  13.320
84742W        W53147  14.858  19.426   2.280
84743W        W53148  30.709  18.546  13.433
84744W        W53149  28.508  37.598   1.385
84745W        W53150  13.905  27.681   3.222
84746W        W53151  23.509  38.086   3.675
84747W        W53152  14.750  42.811   1.356
84748W        W53153  18.725  21.774   3.234
84749W        W53154  27.592  28.036   1.364
84750W        W53155  34.310  41.359  13.177
84751W        W53156  41.037  23.899  11.979
84752W        W53157  42.637  23.565  12.894
84753W        W53158  10.215   6.388   0.656
84754W        W53159   2.792  12.166  10.944
84755W        W53160   8.341  18.812   2.315
84756W        W53161   4.489  28.122   3.596
84757W        W53162  30.895  36.443   2.909
84758W        W53163  21.494  33.335  10.931
84759W        W53164   0.296  37.194   1.097
84760W        W53165   2.630  10.477  13.579
84761W        W53166  26.522  32.611   4.132
84762W        W53167  11.297  12.368  12.697
84763W        W53168  23.169  23.270  12.368
84764W        W53169   3.409  15.859   0.365
84765W        W53170  11.566  39.648   3.106
84766W        W53171  29.936   1.333  14.538
84767W        W53172  20.239  14.486   4.717
84768W        W53173  30.552  13.741   2.814
84769W        W53174   1.040  16.065   0.230
84770W        W53175  44.305  14.757   1.748
84771W        W53176  22.926  14.054  13.290
84772W        W53177  40.117  41.722  13.687
84773W        W53178   3.960  18.344  14.853
84774W        W53179   2.455  18.630   0.653
84775W        W53180   7.232  30.585  12.458
84776W        W53181  10.859   4.751  13.959
84777W        W53182  23.649   5.434   3.191
84778W        W53183  35.450   5.580   4.574
84779W        W53184  44.307  40.977  14.068
84780W        W53185  35.408  42.120   0.244
84781W        W53186   7.105  28.634  11.892
84782W        W53187  12.292  22.319   0.856
84783W        W53188  29.747  38.584   4.138
84784W        W53189  41.087  10.224   3.306
84785W        W53190   0.908  40.295  14.893
84786W        W53191  25.123  25.724   4.700
84787W        W53192  12.262  13.969   3.950
84788W        W53193  30.210  31.541  12.964
84789W        W53194  10.973   4.225   0.170
84790W        W53195   2.906  25.262  10.585
84791W        W53196   5.161  33.471  13.384
84792W        W53197   9.857  42.753  13.794
84793W        W53198  21.494  37.327   2.655
84794W        W53199  43.480   9.323   3.282
84795W        W53200   2.344  14.717  10.653
84796W        W53201  24.652  17.881  10.482
84797W        W53202  31.192  42.935  14.265
84798W        W53203  28.568  25.483   0.122
84799W        W53204  30.047  34.363  13.954
84800W        W53205  34.758   6.897  13.942
84801W        W53206  29.201  44.955  13.419
84802W        W53207  28.322   1.968   0.961
84803W        W53208  27.005  24.637   2.342
84804W        W53209  26.423  26.400   3.771
84805W        W53210   4.376  31.110  14.451
84806W        W53211  17.638  19.042  14.392
84807W        W53212  40.043  17.102   4.060
84808W        W53213   6.096  20.002  10.982
84809W        W53214  19.192  29.777   3.646
84810W        W53215   5.778  10.678   1.502
84811W        W53216   3.738   4.576  13.078
84812W        W53217  17.413  43.009   3.197
84813W        W53218   8.237  14.701  12.701
84814W        W53219  34.378  32.534  13.110
84815W        W53220  33.026  32.501  14.839
84816W        W53221  40.903   4.975   3.678
84817W        W53222  20.807  12.203   4.579
84818W        W53223  40.300   1.244  14.948
84819W        W53224   9.797  11.801   4.367
84820W        W53225  25.707  16.172  11.131
84821W        W53226   8.688  14.115  13.307
84822W        W53227  21.471  17.133  14.516
84823W        W53228  20.660  14.384   2.156
84824W        W53229   5.709  10.197   1.360
84825W        W53230  27.960  15.483   3.784
84826W        W53231   6.130  41.461   2.470
84827W        W53232   0.429  42.967  14.029
84828W        W53233  37.901   4.010   0.672
84829W        W53234   1.897  11.871  11.658
84830W        W53235   9.230  29.415  12.172
84831W        W53236  17.616   1.836  12.529
84832W        W53237  35.084  30.627  11.140
84833W        W53238   2.819   6.823   3.054
84834W        W53239  11.471  34.939  11.670
84835W        W53240   3.256  39.312   0.658
84836W        W53241  11.829  39.443  10.497
84837W        W53242  24.655  31.428   2.321
84838W        W53243  29.055  29.566   4.658
84839W        W53244  37.697   9.318   5.128
84840W        W53245  41.417  23.585   4.812
84841W        W53246   2.846  24.984  14.974
84842W        W53247   7.819  18.833  14.419
84843W        W53248  13.757  20.509  14.966
84844W        W53249   1.787  18.869  10.898
84845W        W53250   2.408  12.322   3.306
84846W        W53251  29.961  43.364  11.308
84847W        W53252   9.010  12.955  10.683
84848W        W53253  25.197  42.214   4.114
84849W        W53254   7.870  25.454   2.718
84850W        W53255  41.231   5.637   5.013
84851W        W53256  37.019  43.734   0.683
84852W        W53257  19.542  27.400  13.389
84853W        W53258  14.612   2.511   2.380
84854W        W53259  23.231  15.409   2.289
84855W        W53260  44.765   4.499   2.194
84856W        W53261  15.749  42.567   2.245
84857W        W53262  24.041  35.393   2.131
84858W        W53263  33.501  12.258   2.735
84859W        W53264   5.887  39.533  13.943
84860W        W53265   5.897  25.275   1.875
84861W        W53266  21.766  13.179  11.953
84862W        W53267   5.777  17.984  12.974
84863W        W53268  23.876  17.718   0.398
84864W        W53269  34.462   2.855  12.556
84865W        W53270  41.899  26.221  11.255
84866W        W53271  31.144  22.125  12.592
84867W        W53272   2.271  18.745  13.076
84868W        W53273  35.944  31.592  13.107
84869W        W53274  34.634  30.058  11.586
84870W        W53275  11.913  15.099   4.601
84871W        W53276   4.475  18.672  13.321
84872W        W53277  20.601   5.831  12.406
84873W        W53278  32.711   4.137  13.957
84874W        W53279  34.020   2.419   4.667
84875W        W53280   9.691  19.341  14.018
84876W        W53281  15.294   8.693   0.652
84877W        W53282  20.088  21.281  14.720
84878W        W53283  26.911   5.324  11.929
84879W        W53284  18.342  18.102   4.669
84880W        W53285  18.678  21.022  14.687
84881W        W53286   4.937  41.876  12.965
84882W        W53287  12.070  22.816  12.771
84883W        W53288  15.299  15.715  13.375
84884W        W53289   5.668  30.723  13.590
84885W        W53290  24.606   7.292   0.361
84886W        W53291   5.464  31.047   3.657
84887W        W53292   4.376   8.446  13.968
84888W        W53293  32.682  18.658  11.963
84889W        W53294  39.175  14.177   1.343
84890W        W53295  18.011  43.014   2.464
84891W        W53296  37.596  39.669   0.450
84892W        W53297   9.316  29.969   4.607
84893W        W53298  13.526  16.136   3.195
84894W        W53299  30.057  19.671   0.813
84895W        W53300   8.851   7.157  10.567
84896W        W53301  35.134  37.545  11.461
84897W        W53302  18.361  19.362  14.366
84898W        W53303   1.873   6.746   2.683
84899W        W53304   3.283  33.362  14.009
84900W        W53305  19.375  22.285  10.562
84901W        W53306  26.644  35.049  10.586
84902W        W53307  21.547  11.558  12.287
84903W        W53308   5.141  16.719  13.496
84904W        W53309  24.135  31.174   2.298
84905W        W53310  30.531  31.432  11.126
84906W        W53311  36.881  32.972   4.880
84907W        W53312  31.634   7.242   3.411
84908W        W53313  27.051  26.548  11.151
84909W        W53314  40.111   1.311  10.556
84910W        W53315  33.199  25.957   0.010
84911W        W53316  42.790  44.529  13.606
84912W        W53317   7.661  34.502  11.094
84913W        W53318   8.377  25.922   4.720
84914W        W53319  40.743  23.705  14.716
84915W        W53320  14.335   4.536  13.423
84916W        W53321   8.850  30.937  10.639
84917W        W53322  35.111  19.541  11.678
84918W        W53323  34.931  34.843   4.181
84919W        W53324  38.377  34.913  14.824
84920W        W53325  40.479  42.246   1.915
84921W        W53326   0.763  43.361  14.014
84922W        W53327  26.642  39.103   0.284
84923W        W53328   7.805  26.555   4.509
84924W        W53329  16.532  23.428  12.170
84925W        W53330   5.179  14.107  14.468
84926W        W53331  11.966  23.654   3.745
84927W        W53332  35.028  39.337  12.551
84928W        W53333  24.593  42.887   3.830
84929W        W53334  31.056  16.684   0.723
84930W        W53335  17.520  23.999  14.667
84931W        W53336  25.260   5.071   0.317
84932W        W53337  31.079  11.525  12.660
84933W        W53338  38.014  11.320  12.610
84934W        W53339  34.604   5.020   4.086
84935W        W53340  41.377  33.062  14.456
84936W        W53341  10.236  34.551   2.581
84937W        W53342  32.229  26.619  14.408
84938W        W53343  20.046  27.631   0.750
84939W        W53344  33.156  16.532   4.172
84940W        W53345   2.743  27.634   3.644
84941W        W53346  26.909   4.701   4.092
84942W        W53347  39.003  43.214  11.911
84943W        W53348  40.981  28.240  13.789
84944W        W53349  22.631  24.310   2.253
84945W        W53350  23.144  26.647   0.871
84946W        W53351  41.596   6.652  13.013
84947W        W53352   9.922   6.497  11.995
84948W        W53353   7.672   7.143  13.413
84949W        W53354  38.893  22.953  11.088
84950W        W53355  39.216  36.484  13.863
84951W        W53356   4.403  18.176  11.877
84952W        W53357   6.353  16.167   9.859
84953W        W53358  41.493  19.166   0.929
84954W        W53359   1.410  36.419  10.469
84955W        W53360  10.101  37.610  12.636
84956W        W53361   9.168   2.728   4.167
84957W        W53362  33.174  28.509  10.100
84958W        W53363  11.111  32.563  11.944
84959W        W53364  20.019  43.882   0.354
84960W        W53365  29.664  10.253   2.221
84961W        W53366  18.255  42.766   0.954
84962W        W53367  36.522  17.124   1.179
84963W        W53368  40.038   0.564   2.901
84964W        W53369  15.699  41.366   0.996
84965W        W53370  31.988   9.257  14.386
84966W        W53371  25.069  37.473  11.477
84967W        W53372  30.671  40.115   9.779
84968W        W53373  33.616  16.211   4.158
84969W        W53374   1.151  22.646   1.756
84970W        W53375  21.998   9.863   2.799
84971W        W53376  14.278   0.436   1.771
84972W        W53377  25.620   9.745   3.846
84973W        W53378  42.494  38.450  12.137
84974W        W53379   0.854  15.265  11.844
84975W        W53380  44.778   7.274   1.478
84976W        W53381   9.887   1.874   2.943
84977W        W53382  31.447  37.547  13.984
84978W        W53383   0.996  14.748   1.020
84979W        W53384  14.043  17.313   4.522
84980W        W53385  32.277  24.294   2.850
84981W        W53386  36.211  16.011   2.881
84982W        W53387  39.573  37.455  12.948
84983W        W53388  10.903  30.457   3.349
84984W        W53389  44.842  18.974  14.485
84985W        W53390  12.803  34.566   1.249
84986W        W53391   3.696  43.267  12.513
84987W        W53392  41.880   4.478  14.335
84988W        W53393   3.736  42.236  11.774
84989W        W53394   3.403  19.048   3.214
84990W        W53395  15.748   0.014   0.375
84991W        W53396  40.360  23.635  11.728
84992W        W53397  35.778  36.765  13.859
84993W        W53398  14.139  40.089  13.445
84994W        W53399   3.356  31.964  11.858
84995W        W53400  33.363  24.321  12.853
84996W        W53401   1.887  20.613   4.383
84997W        W53402  25.263  15.002   0.951
84998W        W53403  38.557  25.036  13.951
84999W        W53404  33.526  19.810   4.285
85000W        W53405  30.992  44.254   0.667
85001W        W53406  41.298  16.832   2.880
85002W        W53407  20.223  23.767  14.736
85003W        W53408  41.014  11.849   1.010
85004W        W53409  23.542   1.306   4.540
85005W        W53410  14.235  27.904  13.424
85006W        W53411  20.567  39.238  11.643
85007W        W53412   7.247  31.353   4.631
85008W        W53413  39.101  14.630   3.134
85009W        W53414  15.118  42.055  12.234
85010W        W53415   0.784  28.003  14.467
85011W        W53416  33.966   7.219  14.886
85012W        W53417   6.321  23.897   3.872
85013W        W53418  25.326  44.740  13.908
85014W        W53419  38.217  42.942  11.279
85015W        W53420  20.623   1.735  12.879
85016W        W53421   2.992  36.406   4.983
85017W        W53422  14.504  14.650  14.367
85018W        W53423  37.359  16.008   3.206
85019W        W53424  40.822   8.826   0.575
85020W        W53425  29.380   7.115   3.644
85021W        W53426   2.394   9.599  13.929
85022W        W53427  17.712  38.636   1.338
85023W        W53428  27.032  37.753  13.359
85024W        W53429  19.154  34.445   1.685
85025W        W53430  10.715  34.445  11.205
85026W        W53431  43.760  42.160   3.388
85027W        W53432  36.777  31.283   2.878
85028W        W53433  24.565  25.206  14.135
85029W        W53434   1.989  15.399  11.549
85030W        W53435   4.752   0.014  12.404
85031W        W53436  29.356  26.667  13.499
85032W        W53437  17.039  33.593  11.878
85033W        W53438   8.580  30.185  12.145
85034W        W53439  18.824  39.740   0.137
85035W        W53440  22.908  42.003   1.354
85036W        W53441  19.807  23.196   3.115
85037W        W53442  12.945  18.486  13.455
85038W        W53443  27.744  19.720   0.870
85039W        W53444   0.001   4.701   4.249
85040W        W53445  15.118  25.140   5.081
85041W        W53446  15.193  10.814   0.485
85042W        W53447  23.553   8.418   4.205
85043W        W53448  28.201  16.531   3.112
85044W        W53449  13.254  28.270   2.133
85045W        W53450  44.296  30.652   1.027
85046W        W53451  32.628  19.775  14.876
85047W        W53452  11.670   5.184   2.656
85048W        W53453  42.254   0.813   0.348
85049W        W53454  23.716   2.398  11.392
85050W        W53455   7.143  27.110   4.146
85051W        W53456  25.772  14.337   3.099
85052W        W53457   2.455  26.932   1.273
85053W        W53458  39.856  44.675   1.745
85054W        W53459   0.352   7.204   2.547
85055W        W53460  17.437  17.232  12.969
85056W        W53461   2.361  28.664  11.977
85057W        W53462   6.730  27.631  12.973
85058W        W53463  34.931  11.178   4.361
85059W        W53464   6.480  29.247  11.923
85060W        W53465  21.540  22.294   4.584
85061W        W53466  37.382  25.165   4.102
85062W        W53467  11.177  37.283  14.373
85063W        W53468  24.766  14.194  12.933
85064W        W53469  33.383   7.177  12.910
85065W        W53470  25.187  10.096  13.467
85066W        W53471  31.996  43.456  11.986
85067W        W53472  36.348  14.099  12.422
85068W        W53473  21.738   2.910   1.554
85069W        W53474  34.587  34.387  11.914
85070W        W53475  33.088  15.119  12.568
85071W        W53476  10.548   4.911   1.289
85072W        W53477   6.768  44.768   0.967
85073W        W53478  42.351   1.417  12.897
85074W        W53479  22.170  18.679  11.727
85075W        W53480  15.095  27.006   2.283
85076W        W53481  28.911   9.128   3.187
85077W        W53482  25.151  31.667   2.235
85078W        W53483  32.236   0.432  12.704
85079W        W53484  39.522  36.974   3.101
85080W        W53485   4.791   7.845   2.458
85081W        W53486  26.760  31.933   5.037
85082W        W53487   9.402  31.436   2.244
85083W        W53488  25.973  33.570   0.735
85084W        W53489  33.873  37.587   0.771
85085W        W53490  20.651  14.902   1.248
85086W        W53491  13.275   9.935  10.732
85087W        W53492  29.804  35.302   1.325
85088W        W53493  12.738  24.620  14.992
85089W        W53494  16.283  21.766  13.833
85090W        W53495  31.556  42.377  11.808
85091W        W53496  42.819   4.633  12.946
85092W        W53497   6.828  25.665  13.684
85093W        W53498   2.885   2.005  14.747
85094W        W53499  17.102  23.985   1.652
85095W        W53500  18.081  14.309   3.208
85096W        W53501   4.218  26.751  14.398
85097W        W53502  12.308   3.021  12.407
85098W        W53503   7.653  14.092  14.183
85099W        W53504  21.743   3.868  13.101
85100W        W53505  11.633  15.372   2.385
85101W        W53506  34.975   0.489   2.835
85102W        W53507   8.056   1.891   2.475
85103W        W53508  35.125  32.174   3.815
85104W        W53509  37.605  13.782   2.832
85105W        W53510   4.961  19.682   2.185
85106W        W53511  42.767  31.162  14.292
85107W        W53512   1.233  27.367  11.504
85108W        W53513  20.529  11.323  13.391
85109W        W53514  13.155  35.637   3.796
85110W        W53515  18.186  33.854   0.089
85111W        W53516  36.055   4.261   0.953
85112W        W53517  42.314  26.424  11.024
85113W        W53518  36.318  18.738   3.332
85114W        W53519  25.725  12.593   3.766
85115W        W53520  44.378  27.810   3.298
85116W        W53521   4.123  22.685   3.046
85117W        W53522  18.735  12.469  14.770
85118W        W53523  14.113  18.999  14.479
85119W        W53524   8.110  14.436   1.285
85120W        W53525  31.476  27.236  11.774
85121W        W53526  12.451  31.490   2.169
85122W        W53527  39.768   2.533   4.520
85123W        W53528  22.023  11.623  14.453
85124W        W53529  15.735  25.076   1.410
85125W        W53530  41.655  11.284   0.967
85126W        W53531  25.550  13.208   4.969
85127W        W53532   7.803  15.846   1.657
85128W        W53533   9.399  32.129  10.753
85129W        W53534  13.659  27.793  11.708
85130W        W53535  43.754  24.908  14.553
85131W        W53536  24.040  28.890   2.673
85132W        W53537  23.425  30.146   2.150
85133W        W53538  36.927  30.593  13.430
85134W        W53539   0.389  42.946   4.544
85135W        W53540  30.660  19.541   1.459
85136W        W53541  17.721  44.428  11.435
85137W        W53542   0.229   4.186   0.838
85138W        W53543  12.627  22.617  14.517
85139W        W53544  18.072   9.820   2.897
85140W        W53545  13.788   6.902  11.699
85141W        W53546  25.483  37.448  12.246
85142W        W53547  32.093   8.697  13.399
85143W        W53548  25.256  38.513  14.225
85144W        W53549  17.292  18.675   0.472
85145W        W53550   0.635  11.054   4.273
85146W        W53551  30.982  42.290  10.268
85147W        W53552  36.825  26.995   0.981
85148W        W53553  40.396  44.346  10.471
85149W        W53554  11.112  42.556   2.969
85150W        W53555  20.483  12.516  13.006
85151W        W53556  41.443  23.226  12.482
85152W        W53557  22.722  29.741  14.459
85153W        W53558  37.972  33.770  13.468
85154W        W53559  28.212  23.134   2.562
85155W        W53560  41.925  22.991   0.307
85156W        W53561  18.413  39.776  11.918
85157W        W53562  17.234  43.989  11.001
85158W        W53563   2.710  41.817   2.312
85159W        W53564  28.703  19.549   4.135
85160W        W53565  14.901   7.441   4.175
85161W        W53566   9.684  12.127  12.054
85162W        W53567  28.107  39.374  11.629
85163W        W53568  14.619   0.944  11.224
85164W        W53569   9.591  41.229  14.962
85165W        W53570   5.250  44.399   1.427
85166W        W53571  41.927  21.318  14.468
85167W        W53572   5.824   8.160  11.089
85168W        W53573  20.347   6.328  14.351
85169W        W53574   7.020  31.438  10.352
85170W        W53575  30.607  40.087  14.026
85171W        W53576  21.086  41.475   1.490
85172W        W53577  27.224  14.874   2.361
85173W        W53578  12.280  38.877   1.912
85174W        W53579  27.132  38.505  10.607
85175W        W53580  38.750   4.779   2.739
85176W        W53581   8.820  22.560   0.815
85177W        W53582  44.045   6.427  11.516
85178W        W53583  35.443  40.305  13.308
85179W        W53584  11.427   0.033   1.755
85180W        W53585  42.127  23.585  13.008
85181W        W53586  38.859  29.839   4.023
85182W        W53587  15.981  41.124  14.345
85183W        W53588  35.903  28.376   0.919
85184W        W53589   9.841  26.072   2.863
85185W        W53590  40.260  22.568   2.961
85186W        W53591  29.153  42.708   1.713
85187W        W53592   2.348  25.671  14.374
85188W        W53593  41.897  24.727   5.080
85189W        W53594  21.483  33.097  13.048
85190W        W53595  42.598  37.350  10.792
85191W        W53596  10.751  26.438  10.846
85192W        W53597  30.965  10.376  13.880
85193W        W53598  27.990  30.813  10.383
85194W        W53599   6.809  29.144   4.046
85195W        W53600  44.462  38.430  13.427
85196W        W53601  21.745  37.508  13.528
85197W        W53602   7.837  12.814   4.445
85198W        W53603   3.218  25.920   0.837
85199W        W53604  10.069   3.260  14.546
85200W        W53605  43.975  42.633  10.702
85201W        W53606  16.787  22.572   0.960
85202W        W53607   0.465  17.865  12.817
85203W        W53608  29.578  38.142  14.294
85204W        W53609  38.296  27.608  10.766
85205W        W53610  28.062  36.069   1.812
85206W        W53611  12.696  36.569  11.174
85207W        W53612   7.432  31.486  12.311
85208W        W53613  11.189  15.776  14.934
85209W        W53614  34.958  41.104  13.473
85210W        W53615  10.881   3.847   3.138
85211W        W53616  19.526  33.898  14.890
85212W        W53617  33.560  25.591   0.876
85213W        W53618  44.333   6.336  13.605
85214W        W53619   8.807   4.487  14.224
85215W        W53620  33.600  15.072   1.323
85216W        W53621  24.905  30.000  11.660
85217W        W53622   8.422  12.603  11.714
85218W        W53623  43.302  11.074   2.137
85219W        W53624  35.297  23.707  13.815
85220W        W53625   9.618  26.604   1.747
85221W        W53626  22.490   7.394   3.535
85222W        W53627  33.815  30.857   4.391
85223W        W53628  44.059  19.106  11.058
85224W        W53629   5.543   0.746  10.853
85225W        W53630  44.592  20.003   1.926
85226W        W53631  10.191  43.949   1.378
85227W        W53632  24.930  29.062  11.694
85228W        W53633  36.263  33.540  11.496
85229W        W53634  39.933  37.818   4.332
85230W        W53635  38.605  37.828   3.011
85231W        W53636   2.972  13.251  14.779
85232W        W53637  39.644   4.814   2.953
85233W        W53638  42.097  23.148   2.822
85234W        W53639  44.764  38.086   3.496
85235W        W53640  18.719  28.221   4.510
85236W        W53641  23.091  33.813   3.306
85237W        W53642  36.919  43.062   0.409
85238W        W53643  42.599  27.949  11.081
85239W        W53644  43.999  33.335   1.378
85240W        W53645   2.890  33.237   3.275
85241W        W53646   8.612  31.043  11.064
85242W        W53647  31.958  36.784  12.078
85243W        W53648  27.896  42.839   3.644
85244W        W53649  37.138  18.629   3.710
85245W        W53650  35.804  16.199  12.881
85246W        W53651   3.724   9.702  14.843
85247W        W53652  14.896  27.096  11.161
85248W        W53653  39.974  44.905   4.191
85249W        W53654  11.746  38.339   3.778
85250W        W53655  39.857  38.675  11.903
85251W        W53656  26.503  12.731   0.185
85252W        W53657  42.910  39.421   1.742
85253W        W53658  30.899  15.352  14.373
85254W        W53659  42.355  12.840  11.529
85255W        W53660  31.530  29.617  12.569
85256W        W53661   2.063  14.241  10.588
85257W        W53662  32.924  17.736   3.780
85258W        W53663  31.694   4.374  10.884
85259W        W53664  31.015  29.867   0.559
85260W        W53665   7.631  37.864   3.305
85261W        W53666  11.368   8.365   3.266
85262W        W53667  27.267  34.103   3.753
85263W        W53668  38.272  26.563  10.684
85264W        W53669  30.969   6.269  13.423
85265W        W53670  29.894  43.953   4.193
85266W        W53671   9.583  24.006  14.708
85267W        W53672  26.158  14.816  13.899
85268W        W53673   3.449  27.912   1.181
85269W        W53674  23.970  38.576  12.974
85270W        W53675  20.757   0.815   3.868
85271W        W53676  19.158  22.622  14.803
85272W        W53677  10.199  44.788   1.992
85273W        W53678   3.879  34.514  11.008
85274W        W53679  42.079  15.647   1.171
85275W        W53680   9.748   1.391  14.911
85276W        W53681   2.784  16.226   0.755
85277W        W53682  34.150  15.867  13.393
85278W        W53683  36.332  16.567   1.864
85279W        W53684  39.997  17.040   3.539
85280W        W53685   4.443  13.408   2.252
85281W        W53686  27.559  21.817  14.343
85282W        W53687  44.953  30.746  12.008
85283W        W53688  40.491  19.681   1.855
85284W        W53689  39.562  20.136  12.528
85285W        W53690  26.103  10.251  10.567
85286W        W53691  39.325  25.252  11.208
85287W        W53692  19.550  11.174  12.406
85288W        W53693   1.707   3.742   5.013
85289W        W53694  30.582  29.093   3.310
85290W        W53695   4.753   5.671  14.862
85291W        W53696   3.422  36.406  14.298
85292W        W53697  24.142  31.174  13.208
85293W        W53698   0.772  42.729   1.753
85294W        W53699   9.068  18.179   5.616
85295W        W53700  12.029  31.902   3.017
85296W        W53701  13.208  15.339   0.517
85297W        W53702  30.978  37.320  13.847
85298W        W53703  27.137  18.124   3.211
85299W        W53704   0.896  23.711  14.723
85300W        W53705  40.951   4.909   5.074
85301W        W53706  12.648  26.964   0.422
85302W        W53707  15.076   7.459  14.757
85303W        W53708   4.932  32.088   1.290
85304W        W53709   3.671  22.357   3.092
85305W        W53710   3.034  20.793   1.900
85306W        W53711   0.447  32.617   0.749
85307W        W53712  14.714  41.892   3.138
85308W        W53713  18.692  20.732   3.181
85309W        W53714   1.342  35.344  13.499
85310W        W53715  10.458   6.981  10.274
85311W        W53716  33.339  38.572   2.091
85312W        W53717  14.829  13.849  11.112
85313W        W53718  18.139  17.417   4.082
85314W        W53719  37.429  24.578  14.350
85315W        W53720   2.786  25.038   4.205
85316W        W53721   5.589   4.473  11.916
85317W        W53722  39.033  26.267   1.342
85318W        W53723  32.944   3.677  13.069
85319W        W53724  37.625  11.663   0.358
85320W        W53725  22.014  24.730  11.013
85321W        W53726  23.468   1.946  10.672
85322W        W53727   4.199  29.616   2.875
85323W        W53728  22.554   7.879   1.988
85324W        W53729  10.850  36.260   2.735
85325W        W53730  30.451  20.166  12.522
85326W        W53731  29.977  42.067  13.357
85327W        W53732  41.416   0.427   0.412
85328W        W53733  12.831  22.806   2.330
85329W        W53734  40.765  18.688   3.676
85330W        W53735  17.464   7.121   1.220
85331W        W53736   1.301  27.647   2.366
85332W        W53737  17.136   2.517   1.033
85333W        W53738  19.631  32.641  10.519
85334W        W53739  35.131  12.190  12.504
85335W        W53740  26.923  17.949  10.657
85336W        W53741  28.152  17.656   3.335
85337W        W53742   5.638  33.683  14.493
85338W        W53743   8.139   9.581   3.260
85339W        W53744  16.313  40.888  14.726
85340W        W53745  30.134  19.563  10.562
85341W        W53746  40.314  32.854   2.686
85342W        W53747   2.508  41.349   1.389
85343W        W53748   4.649  43.226  12.364
85344W        W53749  38.248   2.248  10.285
85345W        W53750  19.537  22.030   4.116
85346W        W53751  40.340  22.857  14.964
85347W        W53752   2.695  25.216  11.051
85348W        W53753  21.767  20.117  11.656
85349W        W53754  41.883  30.408   1.389
85350W        W53755  33.977  17.242  14.260
85351W        W53756  25.519  38.886   3.792
85352W        W53757  36.918   8.162   0.197
85353W        W53758   9.147  23.005  11.269
85354W        W53759  44.783  42.658   1.295
85355W        W53760   7.617  30.332   2.853
85356W        W53761  31.293  39.412   3.091
85357W        W53762  21.256  30.612  10.608
85358W        W53763  40.881   7.873   4.630
85359W        W53764  27.168  11.698   4.205
85360W        W53765  28.179  31.872  14.061
85361W        W53766  30.118  12.530  14.650
85362W        W53767  44.977   0.997  10.686
85363W        W53768  11.993  36.536   3.978
85364W        W53769  11.636  30.211   1.854
85365W        W53770  31.737  28.452   1.803
85366W        W53771  33.158  25.761   2.064
85367W        W53772  22.441  44.536   3.383
85368W        W53773  23.237   8.460  11.642
85369W        W53774  33.948  29.108  13.427
85370W        W53775  18.012  27.193   0.381
85371W        W53776  14.751  36.926  10.498
85372W        W53777  37.605  22.966  11.414
85373W        W53778  24.182  25.926  14.023
85374W        W53779  41.485   3.922  14.199
85375W        W53780  26.153  20.047   2.163
85376W        W53781  18.868  37.280   3.811
85377W        W53782  32.159  23.921  14.158
85378W        W53783  15.127   8.345   1.332
85379W        W53784  12.845  22.979  11.647
85380W        W53785  34.337  13.410  13.732
85381W        W53786  33.459  21.226   1.848
85382W        W53787  17.870  22.238  10.709
85383W        W53788  39.433   1.510  12.099
85384W        W53789  26.168  33.463   1.658
85385W        W53790  34.931  43.683   0.162
85386W        W53791  41.588   4.898   4.318
85387W        W53792  16.177   1.412   2.535
85388W        W53793  30.991  40.210   1.791
85389W        W53794  23.447  43.098   0.886
85390W        W53795  18.831  43.420   4.605
85391W        W53796  19.576  16.049   0.857
85392W        W53797  33.882  40.482  11.123
85393W        W53798  37.628  14.822   1.641
85394W        W53799  43.057  26.893   1.820
85395W        W53800   2.812  20.611   0.456
85396W        W53801  31.493  29.616   3.768
85397W        W53802  32.299  21.435  11.069
85398W        W53803  30.898  35.949   3.724
85399W        W53804   2.949   8.054   4.177
85400W        W53805   8.672  40.874  11.552
85401W        W53806  17.728   5.012  13.541
85402W        W53807   2.254  43.402   3.252
85403W        W53808   1.946   7.382   0.166
85404W        W53809  12.880  17.896   4.059
85405W        W53810  28.527  13.380  14.382
85406W        W53811  23.833  13.791  12.295
85407W        W53812  42.403   6.325   1.197
85408W        W53813  26.449  43.452   2.724
85409W        W53814  43.856  42.099   4.659
85410W        W53815   0.460  18.891   2.297
85411W        W53816  21.627  17.770  14.063
85412W        W53817  26.613   1.317  12.642
85413W        W53818  21.702  18.996  14.824
85414W        W53819  23.201  21.520  13.539
85415W        W53820  16.374  35.566   3.266
85416W        W53821  44.421  29.473  11.444
85417W        W53822  31.718  20.986  13.050
85418W        W53823  17.211  23.298  14.334
85419W        W53824   9.283  25.429   4.684
85420W        W53825   0.472  24.900  12.005
85421W        W53826  33.882   1.434   0.548
85422W        W53827  18.785  42.345   0.839
85423W        W53828  35.224   5.841  10.312
85424W        W53829   7.227   8.633  14.924
85425W        W53830  44.539  12.792  12.519
85426W        W53831  36.295  42.896   1.415
85427W        W53832   3.252   7.310   1.773
85428W        W53833  40.902  41.331  11.564
85429W        W53834  27.741  37.056   1.326
85430W        W53835  10.159  14.378   1.216
85431W        W53836  29.276  41.287  12.346
85432W        W53837  29.022  12.220  13.457
85433W        W53838  23.790  10.793  13.093
85434W        W53839  31.921   5.464   3.692
85435W        W53840   8.961   7.931   1.856
85436W        W53841   5.842  44.983   1.224
85437W        W53842  21.679  41.105   3.845
85438W        W53843  20.064  22.041  13.507
85439W        W53844   0.079  25.041  11.229
85440W        W53845  23.782  27.243  14.379
85441W        W53846   6.773  32.655   4.534
85442W        W53847  30.901   4.983  13.256
85443W        W53848  38.884  20.016   2.290
85444W        W53849  17.922   7.168   1.429
85445W        W53850  24.757  44.929   4.660
85446W        W53851  21.192  34.709  13.881
85447W        W53852  18.029  24.638   1.917
85448W        W53853  22.197  24.245   4.650
85449W        W53854  43.438   7.812  14.377
85450W        W53855  16.533   0.728   3.750
85451W        W53856   2.640  15.359  12.125
85452W        W53857  24.290  39.926  12.900
85453W        W53858  34.557  34.477   3.201
85454W        W53859  21.529  12.752  12.161
85455W        W53860  43.561  44.995   0.896
85456W        W53861  13.617  23.043  13.785
85457W        W53862   0.858  26.681  14.422
85458W        W53863  22.209  13.039  13.501
85459W        W53864   6.862   8.212   4.610
85460W        W53865   9.925  37.126  10.422
85461W        W53866  20.094   6.468  10.707
85462W        W53867  27.557  10.353   0.416
85463W        W53868   7.488  30.402  13.812
85464W        W53869  43.775   7.723  10.738
85465W        W53870  30.663  20.671   4.078
85466W        W53871   6.323  39.944   4.370
85467W        W53872  34.893  22.158  11.445
85468W        W53873   8.917  20.555  12.509
85469W        W53874  38.358  25.135   1.440
85470W        W53875  29.277  20.868   0.802
85471W        W53876   9.406  13.893  12.067
85472W        W53877  43.941  35.570   2.993
85473W        W53878   6.899  33.685  12.914
85474W        W53879  19.300  24.310  12.486
85475W        W53880  15.799  14.579  13.908
85476W        W53881   0.440  43.957  13.969
85477W        W53882  19.970   3.367   2.106
85478W        W53883  19.570  33.098  13.821
85479W        W53884  41.351  38.781  13.350
85480W        W53885  18.092  41.551   4.650
85481W        W53886  12.430  37.539  14.384
85482W        W53887  10.182  40.225   3.196
85483W        W53888   8.447  15.241   2.651
85484W        W53889  28.193   8.513  12.860
85485W        W53890   0.480  40.016  14.947
85486W        W53891  24.978  39.108   0.569
85487W        W53892  36.311  16.243  11.184
85488W        W53893  13.311  43.037   1.817
85489W        W53894  14.745  12.089  14.918
85490W        W53895   4.951  38.824   4.605
85491W        W53896  38.861   1.227   3.319
85492W        W53897  18.442  11.759   1.324
85493W        W53898  35.398   5.195   0.314
85494W        W53899  44.457  33.568  14.784
85495W        W53900  22.679  15.045   1.410
85496W        W53901  10.684   1.417   2.656
85497W        W53902  26.951   7.125  12.424
85498W        W53903  41.457   5.178  10.258
85499W        W53904  39.132   9.777  13.184
85500W        W53905  26.245   9.758  11.737
85501W        W53906  20.775  26.426   2.117
85502W        W53907  25.881  16.089   0.773
85503W        W53908  34.922  42.485   3.283
85504W        W53909  38.644   5.483   3.013
85505W        W53910   6.975  34.556  11.566
85506W        W53911  14.237  43.935  13.612
85507W        W53912  43.294  30.004   2.226
85508W        W53913  33.945   5.779   1.591
85509W        W53914  29.948  16.465   2.189
85510W        W53915  15.705  43.935   1.453
85511W        W53916  24.578  44.395   0.806
85512W        W53917  20.472   2.001   0.517
85513W        W53918  31.444   6.942  11.791
85514W        W53919  32.367   6.073  13.855
85515W        W53920  22.745   0.366   4.017
85516W        W53921  22.018  37.070  11.591
85517W        W53922  23.829  41.858  11.936
85518W        W53923  17.745  18.318  13.898
85519W        W53924  25.405   9.146   0.400
85520W        W53925  30.230  42.834   0.415
85521W        W53926  27.477   3.782   3.598
85522W        W53927  43.743  16.114  11.479
85523W        W53928  26.262  39.347   3.707
85524W        W53929  22.620   8.790  12.393
85525W        W53930   8.950  10.717  14.493
85526W        W53931  19.940  31.933  13.398
85527W        W53932  43.937  43.768  12.505
85528W        W53933  41.012  17.976   1.787
85529W        W53934  14.876  23.402  14.876
85530W        W53935  25.986  31.667  14.206
85531W        W53936  41.843  13.795  12.423
85532W        W53937  26.265  26.696  13.333
85533W        W53938  14.628  43.039   4.078
85534W        W53939  33.425  42.786   0.825
85535W        W53940  31.117  13.856   1.341
85536W        W53941  42.952  37.449  14.071
85537W        W53942  13.758  32.565   5.066
85538W        W53943  30.899  28.084   0.451
85539W        W53944   8.664  37.915  13.858
85540W        W53945  23.972  28.152   9.969
85541W        W53946  30.981  15.974   4.669
85542W        W53947  39.499   1.742  11.647
85543W        W53948  29.388  31.503  13.437
85544W        W53949  28.701  30.975  14.432
85545W        W53950   7.697  35.557  12.862
85546W        W53951  44.840  17.751   0.907
85547W        W53952  38.439  17.929  14.587
85548W        W53953  18.060  30.331  12.465
85549W        W53954  26.702   4.650  12.169
85550W        W53955  13.865  20.642  13.017
85551W        W53956   5.501   3.497  11.116
85552W        W53957  41.491  38.992   1.506
85553W        W53958   9.954   3.468  14.060
85554W        W53959  28.558  26.094   4.458
85555W        W53960  34.194  40.873   4.946
85556W        W53961  17.621  19.230   1.086
85557W        W53962  11.532  34.477   2.327
85558W        W53963  35.800  33.036   0.075
85559W        W53964  15.393  32.140   0.555
85560W        W53965  19.400  29.097   0.814
85561W        W53966  32.647  18.617   1.366
85562W        W53967   3.366  11.606  13.539
85563W        W53968  37.356   3.800  10.985
85564W        W53969  20.301  12.702   0.229
85565W        W53970  29.922  43.351   1.604
85566W        W53971  32.876  12.625  12.442
85567W        W53972  13.139  26.894  11.110
85568W        W53973  42.946   3.931   4.981
85569W        W53974  28.268   4.775  14.831
85570W        W53975  33.415   2.224   0.067
85571W        W53976  29.524  15.152  13.338
85572W        W53977  36.346  22.175   1.911
85573W        W53978   2.413  16.803   3.725
85574W        W53979  28.494   0.825   2.805
85575W        W53980  27.484   1.405  12.098
85576W        W53981  14.877  27.239   4.229
85577W        W53982  24.882  37.832   0.074
85578W        W53983  23.010  20.748  14.761
85579W        W53984  32.089  36.410   4.516
85580W        W53985  35.008   9.918  11.143
85581W        W53986   0.735  29.920   4.556
85582W        W53987  27.617  25.489  12.450
85583W        W53988  25.481  15.361  12.143
85584W        W53989  37.554  40.040   1.921
85585W        W53990   2.983  15.044  12.310
85586W        W53991   8.624  18.852  11.157
85587W        W53992  19.284   4.462  11.555
85588W        W53993  39.428  24.223   3.306
85589W        W53994  10.749  26.926   4.120
85590W        W53995   7.154  14.084  11.605
85591W        W53996  33.086  25.085   0.250
85592W        W53997   3.949   8.330   2.300
85593W        W53998  19.731  17.066   3.768
85594W        W53999   6.499  28.617  14.493
85595W        W54000  25.545  39.447   4.141
85596W        W54001  24.475  41.004   2.704
85597W        W54002   2.854  26.494  11.723
85598W        W54003  34.074   1.006  14.772
85599W        W54004  35.029  38.245  14.964
85600W        W54005  42.759  19.147  12.462
85601W        W54006  38.770   3.108  12.985
85602W        W54007   4.011  38.871   4.866
85603W        W54008  40.006  32.968  14.758
85604W        W54009  32.419  16.376  14.766
85605W        W54010  22.114  23.938   0.380
85606W        W54011   8.219  43.103  11.204
85607W        W54012   9.656  43.399   2.322
85608W        W54013  24.567   4.947  13.900
85609W        W54014   5.440   0.416  14.995
85610W        W54015  11.091   0.934  11.870
85611W        W54016  15.229   2.424   5.111
85612W        W54017   9.162  21.456  13.030
85613W        W54018  25.491  39.139   2.281
85614W        W54019  23.560  12.106  13.833
85615W        W54020  34.424  21.658  12.960
85616W        W54021  33.967  35.628   0.250
85617W        W54022  27.020   9.217   0.406
85618W        W54023  25.965   3.720   4.824
85619W        W54024  42.900   9.137  14.067
85620W        W54025  14.505  36.140   3.372
85621W        W54026   8.358  36.782   0.807
85622W        W54027  34.168  44.509  14.786
85623W        W54028  34.126  34.928  14.916
85624W        W54029  12.376  44.479   0.291
85625W        W54030   1.767  16.393  11.756
85626W        W54031   6.555   2.328   3.274
85627W        W54032  26.098  15.808  13.780
85628W        W54033  37.462  18.791  13.734
85629W        W54034  21.827  24.974   2.379
85630W        W54035  40.085  42.483   0.722
85631W        W54036  35.886  33.550   4.231
85632W        W54037  29.230  20.809  11.200
85633W        W54038   6.637  17.649  11.175
85634W        W54039  40.446  38.113  11.668
85635W        W54040   6.353  29.113   0.360
85636W        W54041  36.405  38.547  14.953
85637W        W54042  14.914  41.257   4.488
85638W        W54043  18.201   1.435   2.104
85639W        W54044  17.259  36.062   2.219
85640W        W54045  18.393  22.230  10.684
85641W        W54046  27.048  24.743   1.409
85642W        W54047  20.295   5.624  11.994
85643W        W54048  43.214  33.020   0.062
85644W        W54049  42.831   4.322   0.435
85645W        W54050  32.833  42.885   3.830
85646W        W54051  12.277  41.281   0.806
85647W        W54052  32.516  22.230  14.620
85648W        W54053  30.094  11.010  11.153
85649W        W54054  28.348  13.825   4.342
85650W        W54055   6.431  44.026  13.432
85651W        W54056  20.496  17.850  11.101
85652W        W54057  33.912  19.075   1.226
85653W        W54058   7.692  18.145  11.676
85654W        W54059  41.384  37.808  12.581
85655W        W54060   0.269  28.902  12.642
85656W        W54061  34.870  43.027   3.227
85657W        W54062  37.396  11.654  12.603
85658W        W54063   3.982  22.257  13.847
85659W        W54064  40.434  27.542  13.858
85660W        W54065   1.546   0.048   1.632
85661W        W54066  18.748   5.881   1.959
85662W        W54067   9.618   6.111  12.197
85663W        W54068   6.283   4.436   4.021
85664W        W54069   0.508  17.697  10.601
85665W        W54070  25.156  24.109  14.277
85666W        W54071   7.449   6.233  13.324
85667W        W54072  28.038  20.977   0.307
85668W        W54073   0.071  24.038  11.321
85669W        W54074  17.695  44.470  14.365
85670W        W54075   0.901  26.771  12.208
85671W        W54076  21.065  44.456   0.872
85672W        W54077   4.710  21.829   4.505
85673W        W54078  23.234  44.413  11.604
85674W        W54079  11.476  15.203   0.785
85675W        W54080   3.885  17.845  13.966
85676W        W54081   6.584  41.590  12.005
85677W        W54082  43.512   7.461   4.100
85678W        W54083  16.960  12.220  14.415
85679W        W54084  40.404   2.990   0.343
85680W        W54085  39.452  28.224  14.318
85681W        W54086  21.757  10.380   0.994
85682W        W54087  18.115   7.867  14.919
85683W        W54088  37.548   7.048   2.728
85684W        W54089  18.351  24.903  14.969
85685W        W54090  39.339  10.843   3.204
85686W        W54091  17.646  15.332   2.775
85687W        W54092  30.684  26.300  11.544
85688W        W54093  27.656  29.209  10.952
85689W        W54094  29.553  42.438   0.535
85690W        W54095  12.326  40.790   2.813
85691W        W54096  20.077  39.107   1.377
85692W        W54097   6.174  14.659   2.822
85693W        W54098  20.455   4.531   3.708
85694W        W54099  39.580  44.434   1.360
85695W        W54100   8.786   4.910  11.647
85696W        W54101  22.252  13.357   4.350
85697W        W54102  17.673  26.733   0.808
85698W        W54103  43.707  37.004  13.261
85699W        W54104   9.845  19.328   2.734
85700W        W54105   6.209   5.934  14.074
85701W        W54106  25.411  30.891   1.927
85702W        W54107   3.919   3.760   2.955
85703W        W54108   1.454  41.058   3.360
85704W        W54109   3.732  30.942  10.226
85705W        W54110  32.555  27.115   0.036
85706W        W54111  30.456  33.909  13.298
85707W        W54112  17.751   7.931  13.932
85708W        W54113   6.937  12.416   3.252
85709W        W54114  13.101  36.064  10.100
85710W        W54115  12.645  43.229  13.891
85711W        W54116  38.063  12.860   2.852
85712W        W54117  25.117  18.878   4.167
85713W        W54118  41.943  20.104  11.805
85714W        W54119  42.326   8.609   1.429
85715W        W54120  15.648  22.551  12.514
85716W        W54121  20.852  29.982  11.135
85717W        W54122  17.164  10.172   3.379
85718W        W54123   2.202  15.341   0.281
85719W        W54124  38.267  38.356  10.642
85720W        W54125   8.699  32.347  11.070
85721W        W54126  25.535  11.664   4.148
85722W        W54127  25.138  33.045  11.286
85723W        W54128  14.349  12.275   0.899
85724W        W54129  42.031  18.312  13.943
85725W        W54130  28.227  10.702   4.143
85726W        W54131  13.115  41.307  10.649
85727W        W54132   5.879  30.382  11.509
85728W        W54133  14.350   8.771  10.724
85729W        W54134  26.437  30.570  12.137
85730W        W54135  39.933  16.564   4.894
85731W        W54136  14.721  41.280   3.594
85732W        W54137  19.612  31.831   5.092
85733W        W54138  18.027   2.212  12.071
85734W        W54139   1.365   2.429   2.706
85735W        W54140  14.151   9.042   2.909
85736W        W54141  34.970  16.967   1.650
85737W        W54142  12.875  43.033   2.712
85738W        W54143  25.520  18.146   1.828
85739W        W54144  11.392  18.790   4.140
85740W        W54145   1.998  10.917  13.087
85741W        W54146  33.331  38.102   1.706
85742W        W54147   4.263  44.240   2.691
85743W        W54148  33.093  18.337   0.723
85744W        W54149   5.375   5.972  11.054
85745W        W54150  15.262  36.319   2.229
85746W        W54151  19.601   9.632  12.361
85747W        W54152  27.020  33.501  14.809
85748W        W54153  25.607  42.790   3.684
85749W        W54154  41.281  36.559  11.198
85750W        W54155  23.380  36.521  11.458
85751W        W54156   3.277  19.169  13.907
85752W        W54157  12.866  40.856  12.561
85753W        W54158   4.167  37.931   4.619
85754W        W54159  44.494  19.377   4.916
85755W        W54160   1.768   8.983  12.126
85756W        W54161  24.528  34.613   1.257
85757W        W54162  24.425  17.107  11.612
85758W        W54163  43.207  37.091  13.333
85759W        W54164   8.946  21.129  14.543
85760W        W54165  37.872  32.022   2.877
85761W        W54166  44.394   4.673  13.959
85762W        W54167  37.150   6.759   4.105
85763W        W54168  30.802  10.206   4.577
85764W        W54169  38.907  10.989  12.367
85765W        W54170  41.076   3.491   3.685
85766W        W54171  33.539  26.248  11.592
85767W        W54172  15.657   6.443  12.887
85768W        W54173  39.730  30.123   2.717
85769W        W54174  27.618   3.956  13.972
85770W        W54175  43.881   4.434   2.295
85771W        W54176  15.534  40.883   3.737
85772W        W54177  25.449   1.933  13.929
85773W        W54178  17.713  29.603   3.853
85774W        W54179  34.297   8.379   4.642
85775W        W54180  35.083   3.923  11.140
85776W        W54181  27.974  10.724   3.685
85777W        W54182  22.474  24.152   2.725
85778W        W54183  10.103  30.002  10.951
85779W        W54184  43.207   2.889  13.057
85780W        W54185  28.974  18.478  13.921
85781W        W54186  32.119  16.153  14.334
85782W        W54187  32.338   9.708   1.255
85783W        W54188  11.500  10.543   4.166
85784W        W54189  36.002   0.960   4.617
85785W        W54190  41.112  11.406   2.645
85786W        W54191  13.880  34.852  12.799
85787W        W54192  42.316   9.208   2.842
85788W        W54193  37.054  44.924  14.516
85789W        W54194  30.040  26.165  10.754
85790W        W54195  10.508   0.760   2.795
85791W        W54196  23.946  17.773  12.449
85792W        W54197  28.067  37.861   2.345
85793W        W54198  28.506  30.365   3.307
85794W        W54199  23.865  35.523  14.402
85795W        W54200  10.795  39.795   1.628
85796W        W54201   2.140  17.213  11.537
85797W        W54202  41.993  37.022   4.230
85798W        W54203  10.277   8.090  14.935
85799W        W54204  21.554  14.008  12.458
85800W        W54205  21.046  27.881   0.419
85801W        W54206  37.841  44.411  11.296
85802W        W54207   8.073  38.362  13.331
85803W        W54208  30.493   5.992   1.281
85804W        W54209   3.376  16.765  14.322
85805W        W54210  32.171  18.143  11.150
85806W        W54211   3.879  22.793  11.204
85807W        W54212   6.736  43.022   2.746
85808W        W54213   8.318  16.297  14.190
85809W        W54214  42.165  41.506   0.316
85810W        W54215  27.732  23.052  11.182
85811W        W54216  28.644  38.144  12.383
85812W        W54217  24.121   5.946  14.312
85813W        W54218  14.853  16.127   1.693
85814W        W54219   4.935  35.781  11.981
85815W        W54220  38.875   0.290   0.727
85816W        W54221   6.469  39.382   3.124
85817W        W54222  13.836  36.652   3.236
85818W        W54223   5.470   5.766  12.059
85819W        W54224   3.592  29.308   4.648
85820W        W54225   3.959  16.136   3.156
85821W        W54226  18.216   5.436  13.936
85822W        W54227  44.530   5.115   2.615
85823W        W54228  28.084  11.624  14.810
85824W        W54229   6.622  12.334   2.832
85825W        W54230  25.741  41.595   4.599
85826W        W54231  10.472  42.293  14.909
85827W        W54232  10.377   7.485  13.105
85828W        W54233   6.789  31.601   4.611
85829W        W54234  44.215  32.851  14.358
85830W        W54235  12.737  41.897  11.083
85831W        W54236  36.458  42.683   3.651
85832W        W54237  40.777  27.934  14.463
85833W        W54238   6.416   8.974  14.779
85834W        W54239  40.899  35.406  12.839
85835W        W54240  21.533  21.276   0.457
85836W        W54241  12.626  25.359  12.548
85837W        W54242  10.664  36.980   4.899
85838W        W54243  19.488  14.351  12.099
85839W        W54244  11.764  23.022   2.666
85840W        W54245  39.490   1.047   0.813
85841W        W54246  35.022  12.475  12.088
85842W        W54247  34.866  27.449   0.304
85843W        W54248  30.277  39.006   5.099
85844W        W54249  33.888  25.215   3.471
85845W        W54250  40.421  19.504   4.888
85846W        W54251   7.483  39.436   1.705
85847W        W54252  34.667  30.624  14.957
85848W        W54253  11.367   9.705   0.706
85849W        W54254   6.394  34.908  12.821
85850W        W54255  10.446   7.864  13.494
85851W        W54256  39.967  35.833  12.472
85852W        W54257  20.778  42.490   0.456
85853W        W54258  41.779  12.846   0.237
85854W        W54259  43.352  14.633  12.821
85855W        W54260  10.600   6.437   3.422
85856W        W54261  17.759  28.191   1.710
85857W        W54262  22.513  14.341  14.545
85858W        W54263  30.716  21.021   1.953
85859W        W54264  40.743   7.610  13.062
85860W        W54265   5.912  19.215  13.859
85861W        W54266   1.177  14.350  14.133
85862W        W54267   8.105   9.664  11.867
85863W        W54268   1.352   7.654   4.069
85864W        W54269  16.959  21.480   3.910
85865W        W54270   2.549  29.945   1.811
85866W        W54271  13.198  27.508  14.958
85867W        W54272  33.836   2.830  11.122
85868W        W54273  16.584  11.288   5.314
85869W        W54274   0.755  44.019  12.169
85870W        W54275  32.487  42.219  11.702
85871W        W54276  22.795   0.650   0.888
85872W        W54277  10.387  17.809   4.636
85873W        W54278  26.547  25.234  11.589
85874W        W54279  12.236   8.169  13.299
85875W        W54280  13.173  12.790   3.161
85876W        W54281  34.630  17.396  12.765
85877W        W54282  38.903  40.252   3.245
85878W        W54283  24.636  20.739  10.774
85879W        W54284  27.565  37.146  14.055
85880W        W54285  39.696  43.508  11.670
85881W        W54286  14.574  28.126  13.941
85882W        W54287   6.937  42.522  13.375
85883W        W54288   6.576  27.685  13.470
85884W        W54289  35.492  20.717  13.346
85885W        W54290   1.507   9.642   2.871
85886W        W54291  13.550  17.125  13.760
85887W        W54292  44.868  16.700   3.305
85888W        W54293  33.145  24.018   1.214
85889W        W54294  35.574  40.989  14.833
85890W        W54295  22.644  21.011  10.459
85891W        W54296  16.762  38.439  13.307
85892W        W54297  32.985  34.144   1.751
85893W        W54298  34.942  13.802  13.117
85894W        W54299  30.892  21.470  12.300
85895W        W54300  15.617  10.002  14.336
85896W        W54301  26.073  23.785  10.695
85897W        W54302  42.503  32.909   0.221
85898W        W54303  27.995  21.904  12.410
85899W        W54304  26.504  21.691  13.467
85900W        W54305  18.118   5.861   1.266
85901W        W54306  33.906  12.835  11.958
85902W        W54307  42.992   7.304   3.784
85903W        W54308  13.771  42.987   3.737
85904W        W54309   6.844  22.402  10.643
85905W        W54310  35.478  23.170   0.427
85906W        W54311  39.943   7.427  13.628
85907W        W54312  37.053  29.577  10.679
85908W        W54313   6.155   4.946   1.787
85909W        W54314  11.354  22.535  10.593
85910W        W54315  41.414   6.759  14.812
85911W        W54316  42.942  32.568  10.750
85912W        W54317   2.809  34.118   2.331
85913W        W54318  20.521  23.726   3.085
85914W        W54319  30.578  18.762  12.442
85915W        W54320  25.457  27.443  14.819
85916W        W54321  28.511  14.413   0.541
85917W        W54322  10.438  20.869   2.653
85918W        W54323  24.425  23.001   0.126
85919W        W54324  14.771  36.434   3.960
85920W        W54325  37.025  37.116  12.004
85921W        W54326  31.506  30.403  11.096
85922W        W54327  13.135  15.620   2.399
85923W        W54328  33.561  26.530  12.037
85924W        W54329  43.626  25.482   4.157
85925W        W54330  27.185  11.887   2.809
85926W        W54331  37.270  37.486   3.127
85927W        W54332   6.229   0.988   3.149
85928W        W54333  30.568  21.068  12.281
85929W        W54334  25.962  27.596  13.754
85930W        W54335  40.706  20.935   3.820
85931W        W54336  22.024  35.146   0.199
85932W        W54337   7.106  33.062   4.080
85933W        W54338  21.269  10.397   3.568
85934W        W54339   3.046   5.156   1.420
85935W        W54340  28.465  25.173   1.878
85936W        W54341  24.152  12.593   5.260
85937W        W54342  17.279  32.535   3.176
85938W        W54343  23.149  43.487  13.834
85939W        W54344   2.986   0.236  12.972
85940W        W54345  11.619  24.727  13.849
85941W        W54346  42.555  14.891   0.833
85942W        W54347  41.314  38.019  11.249
85943W        W54348   8.180   3.990   0.204
85944W        W54349  20.754  44.444  12.946
85945W        W54350  22.543   6.122   0.012
85946W        W54351  33.073  37.119  13.367
85947W        W54352  28.934   4.330   0.229
85948W        W54353  44.285  18.978   1.676
85949W        W54354  33.873  43.515  11.526
85950W        W54355  11.516  32.276   1.404
85951W        W54356  15.275  23.227   5.636
85952W        W54357  26.873   7.759   0.529
85953W        W54358   9.281  12.900  11.987
85954W        W54359  20.147   2.250  13.789
85955W        W54360  29.750  18.807   2.406
85956W        W54361  39.378  42.537  11.478
85957W        W54362  26.478  10.873   2.774
85958W        W54363  35.128   9.185   4.832
85959W        W54364  36.241  13.106  13.943
85960W        W54365  43.326  10.410  12.555
85961W        W54366  29.487  44.453  11.828
85962W        W54367  11.777  18.051   2.673
85963W        W54368  29.061  35.328  13.416
85964W        W54369  25.896  32.074   0.071
85965W        W54370  14.227   0.039   3.395
85966W        W54371  31.112   9.336   4.695
85967W        W54372  16.316  32.420  12.856
85968W        W54373   6.069  34.041  14.328
85969W        W54374  19.812   4.744  13.449
85970W        W54375  42.027   4.588   1.435
85971W        W54376  32.129  12.855  12.921
85972W        W54377  14.799   5.712   1.863
85973W        W54378  24.269  10.137  10.323
85974W        W54379  28.624  38.071   0.315
85975W        W54380  37.588   8.222  13.042
85976W        W54381  20.746   7.576  13.740
85977W        W54382  41.160  21.917  13.516
85978W        W54383  24.368  44.015  12.841
85979W        W54384  18.288  28.932  14.955
85980W        W54385  21.177   3.856  11.672
85981W        W54386  10.880  20.756   2.907
85982W        W54387  14.728  30.053  13.122
85983W        W54388  31.744  16.218  13.028
85984W        W54389  29.442   5.360   4.229
85985W        W54390   3.272   5.438   2.904
85986W        W54391   1.485   5.079  13.015
85987W        W54392  22.700  35.109  11.616
85988W        W54393  44.813  33.294  10.120
85989W        W54394  14.798  29.149   0.291
85990W        W54395   4.343  26.144   3.367
85991W        W54396  41.359  15.644  10.231
85992W        W54397  33.508   9.839   3.199
85993W        W54398  22.960  38.903  12.480
85994W        W54399   0.775  11.899   4.923
85995W        W54400  23.657  17.092   4.094
85996W        W54401  40.085  20.932  12.423
85997W        W54402   6.346  18.634  12.548
85998W        W54403  41.283  33.897   1.806
85999W        W54404  22.163  30.748   1.246
86000W        W54405   6.446  44.528  11.121
86001W        W54406  15.115   6.743   4.983
86002W        W54407  30.584   1.493  10.803
86003W        W54408  37.348  33.688  10.796
86004W        W54409  33.048  27.286  13.867
86005W        W54410   5.909  33.452   2.339
86006W        W54411  15.954  29.547  14.798
86007W        W54412   2.242  30.284   1.196
86008W        W54413   2.381  34.399   2.359
86009W        W54414  15.235  27.152  11.529
86010W        W54415  33.173   9.738   4.679
86011W        W54416   9.346  41.987   1.274
86012W        W54417  43.021  21.279   3.426
86013W        W54418  26.172  42.897  13.014
86014W        W54419  18.586  42.967  10.593
86015W        W54420  12.773  17.977  11.571
86016W        W54421   6.605  15.244   2.277
86017W        W54422   2.930  33.776   3.189
86018W        W54423  25.845  34.659  11.534
86019W        W54424   5.402  33.062  13.591
86020W        W54425  36.814  30.907  12.519
86021W        W54426  41.430  16.850   2.366
86022W        W54427  19.186  13.587  11.128
86023W        W54428  21.486  34.376  11.574
86024W        W54429  17.826  32.984   1.804
86025W        W54430  28.023  44.614   4.153
86026W        W54431  11.121  29.177   2.194
86027W        W54432  19.695   9.574   1.375
86028W        W54433  39.365  25.960   5.023
86029W        W54434  21.661   6.767   3.149
86030W        W54435   1.575  29.087   0.106
86031W        W54436  21.004   2.947   2.781
86032W        W54437  30.496  10.261  14.802
86033W        W54438   0.879  23.087   2.956
86034W        W54439  37.935  19.023  12.404
86035W        W54440  38.287  21.459   0.860
86036W        W54441  25.081  26.175  12.005
86037W        W54442  24.038  26.917  13.866
86038W        W54443  12.467  43.906  12.027
86039W        W54444  42.402  26.646  11.478
86040W        W54445  20.283  12.640  11.033
86041W        W54446  31.132  11.507  14.502
86042W        W54447  13.074   4.854  13.580
86043W        W54448  11.797  21.549   0.928
86044W        W54449   4.248  22.132   2.317
86045W        W54450  39.555  34.953   1.690
86046W        W54451   9.462  18.292   4.704
86047W        W54452  41.313  16.178  12.946
86048W        W54453  28.067  12.111   4.220
86049W        W54454  25.316  24.502   0.514
86050W        W54455  27.691  41.811  11.983
86051W        W54456  39.286  21.236   0.246
86052W        W54457   2.046  33.374  14.487
86053W        W54458   5.485  38.292  14.228
86054W        W54459   6.408   6.195  12.491
86055W        W54460  38.354  43.905   1.444
86056W        W54461   4.911  40.507   2.027
86057W        W54462  33.969  38.751  13.047
86058W        W54463  38.046  20.721  12.036
86059W        W54464   2.510   0.552  13.834
86060W        W54465   4.561  14.406   4.243
86061W        W54466  14.777  10.104  13.947
86062W        W54467  24.723  32.161   2.835
86063W        W54468  30.495  16.181  13.424
86064W        W54469  42.049  36.883   2.823
86065W        W54470  24.736  23.064   3.832
86066W        W54471  33.887  23.653   3.245
86067W        W54472  14.213  29.287  13.330
86068W        W54473   6.123  29.360   1.874
86069W        W54474  32.403  25.032   0.844
86070W        W54475   0.725  31.995  13.336
86071W        W54476  23.976  31.236  12.727
86072W        W54477  15.229  37.142  14.984
86073W        W54478   2.534  37.463  14.756
86074W        W54479  21.509  11.731   1.450
86075W        W54480   7.282  40.035   2.303
86076W        W54481  16.159  16.624   1.280
86077W        W54482  40.014  22.777  11.860
86078W        W54483  31.138  20.276  13.016
86079W        W54484   4.648  42.027   1.158
86080W        W54485  10.001  33.922  14.518
86081W        W54486  25.122  16.826   9.864
86082W        W54487  31.539  19.112   4.173
86083W        W54488  12.043   0.013  11.212
86084W        W54489  38.911   2.193   1.241
86085W        W54490  39.724   4.851  14.728
86086W        W54491  39.808  23.176  10.575
86087W        W54492   2.838   4.977   0.440
86088W        W54493  21.562   4.255  12.227
86089W        W54494   6.940  31.687   3.197
86090W        W54495  38.611   3.460   1.843
86091W        W54496  34.314  34.062   2.421
86092W        W54497  12.980  11.877   3.288
86093W        W54498  37.892  12.166   0.466
86094W        W54499  21.130  27.188   4.653
86095W        W54500  17.386  38.065   3.258
86096W        W54501   2.673  34.973   3.788
86097W        W54502   1.292  15.767   1.234
86098W        W54503  32.489   9.102  13.478
86099W        W54504  15.608  16.659   1.466
86100W        W54505   2.017   9.302  10.791
86101W        W54506  28.022   1.294   1.802
86102W        W54507  17.685  35.309   3.187
86103W        W54508   8.446  34.317   2.819
86104W        W54509  36.928  34.992   4.883
86105W        W54510  42.271  40.332   0.415
86106W        W54511  43.800   5.245  12.158
86107W        W54512  19.500  10.886  12.851
86108W        W54513   4.721   2.513   0.265
86109W        W54514  44.342  25.265   0.123
86110W        W54515  10.145  21.969   4.063
86111W        W54516  43.672   1.327   1.635
86112W        W54517  11.630  44.923   3.632
86113W        W54518   8.421  17.140   3.235
86114W        W54519  35.585  35.853  11.223
86115W        W54520   7.182  31.250   3.765
86116W        W54521  13.842  41.769  10.779
86117W        W54522  21.376  38.282   4.201
86118W        W54523   8.084  14.347  14.347
86119W        W54524  42.960  24.227   2.333
86120W        W54525  27.630  14.757   1.717
86121W        W54526  32.716  37.502   2.311
86122W        W54527   2.008   9.438  12.016
86123W        W54528   0.480  36.135  12.591
86124W        W54529  40.547  31.727   1.283
86125W        W54530   4.709   0.411  14.398
86126W        W54531   1.821   4.443  10.718
86127W        W54532  31.933  13.343   3.177
86128W        W54533  36.686  11.350  10.798
86129W        W54534  31.669   9.449  13.923
86130W        W54535  11.089  38.206  13.004
86131W        W54536  27.540  23.292   2.268
86132W        W54537  39.290  18.322   2.109
86133W        W54538   4.907  29.961  11.085
86134W        W54539  37.110  26.209  12.004
86135W        W54540  23.131  39.582   0.252
86136W        W54541  23.615   7.407  13.864
86137W        W54542   4.663  35.998   2.965
86138W        W54543  42.674   7.885  11.565
86139W        W54544   0.104   8.404  13.883
86140W        W54545  31.907  43.731  11.256
86141W        W54546  30.606  44.467  14.417
86142W        W54547  34.184   4.820   0.835
86143W        W54548  43.019  38.309   3.611
86144W        W54549  25.043  12.549   4.452
86145W        W54550  22.216  22.144  13.849
86146W        W54551   5.484  26.023  13.566
86147W        W54552   0.933  38.755   2.854
86148W        W54553  13.597  31.894   4.040
86149W        W54554  16.265  43.320   1.741
86150W        W54555  15.143   6.520  13.538
86151W        W54556  18.804  17.597   2.836
86152W        W54557   6.918  25.785   0.184
86153W        W54558  14.375   7.337   4.174
86154W        W54559  34.044   6.714  10.725
86155W        W54560  27.651  28.538  11.681
86156W        W54561   7.675   3.284  10.653
86157W        W54562  44.356  37.010   1.903
86158W        W54563  31.628  32.963   3.886
86159W        W54564  37.939  39.390   2.272
86160W        W54565  21.232  13.043  14.346
86161W        W54566  22.760   6.270  12.945
86162W        W54567  13.273   6.246  13.702
86163W        W54568  12.467  16.763   5.757
86164W        W54569  26.052  12.226  10.857
86165W        W54570  26.511  23.579   4.073
86166W        W54571  11.092  35.325   0.973
86167W        W54572  24.058  26.652   0.753
86168W        W54573  22.034   0.785  10.502
86169W        W54574  35.342  32.497   1.778
86170W        W54575  15.161  28.608   3.800
86171W        W54576  39.543   9.767  12.838
86172W        W54577  13.830  30.963  13.109
86173W        W54578  27.147  32.122   0.444
86174W        W54579  13.446  14.291  12.866
86175W        W54580  41.695  37.956  13.020
86176W        W54581  40.259  25.658  13.456
86177W        W54582  19.408  31.282  10.658
86178W        W54583   1.545  17.340  13.424
86179W        W54584   0.432  19.189   1.802
86180W        W54585  12.793  38.815   0.722
86181W        W54586  33.806  33.348   4.183
86182W        W54587  10.687  41.856   4.706
86183W        W54588  23.765  10.197  11.006
86184W        W54589   6.869   1.086   0.413
86185W        W54590  21.159  39.562  14.874
86186W        W54591  41.526  13.942   1.769
86187W        W54592  17.085  36.852  10.495
86188W        W54593  27.975  44.271   1.414
86189W        W54594  43.582  24.246  11.159
86190W        W54595  43.228  42.529  13.337
86191W        W54596  15.861  11.585  10.024
86192W        W54597  44.468  26.657  14.538
86193W        W54598   4.826  36.077  10.623
86194W        W54599   4.478  27.232  13.493
86195W        W54600  33.401  24.766  12.596
86196W        W54601   5.042  13.227   3.231
86197W        W54602  43.864  14.557   4.318
86198W        W54603  37.878   9.281   4.646
86199W        W54604  26.233  38.377   0.924
86200W        W54605  15.209   8.459  10.260
86201W        W54606   3.707   1.985  11.997
86202W        W54607  23.613  43.998  13.983
86203W        W54608  29.839  33.886  14.946
86204W        W54609  41.428   9.555  11.111
86205W        W54610  37.079  26.128  11.212
86206W        W54611  38.323  30.543  11.182
86207W        W54612  37.509  39.147  11.339
86208W        W54613  40.139  41.016  13.018
86209W        W54614  20.692  36.411  10.808
86210W        W54615  27.344   1.410  14.830
86211W        W54616  44.566  16.930   2.344
86212W        W54617   7.850  10.189  12.448
86213W        W54618   3.792   6.813   4.164
86214W        W54619   1.191  13.867  14.849
86215W        W54620  14.767  35.552  13.894
86216W        W54621  32.113  13.349  12.212
86217W        W54622  14.838  13.290  10.544
86218W        W54623  11.766   8.904   1.048
86219W        W54624  30.633  28.877   1.480
86220W        W54625  27.485  38.455  11.028
86221W        W54626  22.566  33.398   0.917
86222W        W54627  44.762  32.172  10.669
86223W        W54628   1.855  41.080  14.586
86224W        W54629  43.021  10.312  14.282
86225W        W54630   2.217  39.911   3.811
86226W        W54631   3.909  15.891   4.630
86227W        W54632  29.521   3.631   0.045
86228W        W54633   8.764  20.769   0.925
86229W        W54634  40.339  10.143  13.051
86230W        W54635   9.769  44.803  10.732
86231W        W54636  27.100  20.357   1.717
86232W        W54637  26.139   8.292   1.637
86233W        W54638  16.538  21.219  11.662
86234W        W54639  39.475   1.247  10.191
86235W        W54640  35.923   4.821   2.807
86236W        W54641  22.210  28.571   2.306
86237W        W54642  42.483  15.710   1.522
86238W        W54643   2.969  20.722   2.672
86239W        W54644  29.608  32.645  14.034
86240W        W54645  36.800  39.946   3.724
86241W        W54646  15.918  41.434  12.084
86242W        W54647  35.121  20.107   3.751
86243W        W54648  41.539  21.918   4.553
86244W        W54649   4.297  40.415  13.373
86245W        W54650  13.780  40.752  14.230
86246W        W54651  13.241  13.671   3.663
86247W        W54652  16.272  40.380   2.675
86248W        W54653  28.673   1.887  13.587
86249W        W54654  28.045  20.660  10.114
86250W        W54655  31.524  39.328  11.041
86251W        W54656  39.329  43.237   1.908
86252W        W54657  35.149   6.763   0.995
86253W        W54658  12.260  26.903   0.808
86254W        W54659   2.523  24.026  12.538
86255W        W54660  28.464  25.866  12.882
86256W        W54661   8.391  10.309   4.364
86257W        W54662  24.795   5.704  12.537
86258W        W54663  26.126  22.446   1.825
86259W        W54664  31.220  18.107   5.018
86260W        W54665  27.157   5.925   2.245
86261W        W54666  43.333  14.734   1.779
86262W        W54667  18.920  32.576   2.673
86263W        W54668  27.279  29.554   3.163
86264W        W54669  16.611   8.678  11.143
86265W        W54670  31.409  12.306  12.456
86266W        W54671  27.994  18.531  13.896
86267W        W54672   3.973  10.195  14.886
86268W        W54673  26.379  32.333   4.979
86269W        W54674  26.688  20.651  14.408
86270W        W54675  42.818   0.513   0.445
86271W        W54676  13.206  19.799   3.635
86272W        W54677  35.803  27.556  12.046
86273W        W54678   7.916  34.444  10.652
86274W        W54679  30.284  26.529  11.106
86275W        W54680   0.797  13.534   1.537
86276W        W54681   0.675  37.318  11.876
86277W        W54682  20.304  21.405  13.505
86278W        W54683  17.337  30.901  12.868
86279W        W54684   7.917  44.934  11.045
86280W        W54685  40.852  44.771   3.266
86281W        W54686  33.881  13.790  14.397
86282W        W54687  41.736  35.496   4.621
86283W        W54688  12.235   3.940  10.374
86284W        W54689  37.452  17.386   5.095
86285W        W54690  39.289   7.988  14.256
86286W        W54691  29.940  41.226  14.885
86287W        W54692  32.083  38.077   1.468
86288W        W54693  40.693  31.633  13.272
86289W        W54694  19.866  43.679   5.127
86290W        W54695   3.689   1.820  13.334
86291W        W54696  29.398  43.189   5.444
86292W        W54697  36.152  26.466   1.607
86293W        W54698  43.478  28.325  12.435
86294W        W54699   3.429  44.240   0.866
86295W        W54700  36.513   3.388   4.582
86296W        W54701   8.726  40.171  10.777
86297W        W54702   9.863  30.591   1.161
86298W        W54703   4.301   4.681  10.539
86299W        W54704  35.526  19.853   1.342
86300W        W54705  32.830  40.393  13.947
86301W        W54706  32.437  14.792   2.366
86302W        W54707  16.318   2.439   2.115
86303W        W54708  36.527  17.307  10.595
86304W        W54709  39.858  14.026   3.001
86305W        W54710   1.773  29.693  14.490
86306W        W54711   3.349   9.473   2.865
86307W        W54712   3.734  29.585   0.990
86308W        W54713  24.673  40.741  11.440
86309W        W54714  25.961  31.194  14.409
86310W        W54715  40.044  15.592   2.175
86311W        W54716  17.156  15.534   2.784
86312W        W54717   3.466   8.080   4.131
86313W        W54718  32.953   0.950  13.383
86314W        W54719  13.280  28.783   2.255
86315W        W54720  29.066  38.062   3.683
86316W        W54721  25.204  22.020   3.664
86317W        W54722  19.603  44.004   4.737
86318W        W54723  22.596   8.333   1.216
86319W        W54724  17.267  31.022   4.070
86320W        W54725  40.451  36.666  13.533
86321W        W54726  40.113  28.896   1.376
86322W        W54727  23.990  37.568   4.488
86323W        W54728  32.694   4.845  14.747
86324W        W54729  39.238   9.523  10.707
86325W        W54730   0.178  31.383  12.833
86326W        W54731   7.308   8.929   1.322
86327W        W54732  39.089  26.574   4.176
86328W        W54733  19.816  18.739  13.450
86329W        W54734   1.991   1.734  14.879
86330W        W54735  34.231   3.113   0.885
86331W        W54736   3.788  19.024   1.777
86332W        W54737  22.004  39.432  11.527
86333W        W54738  19.633  36.256   4.661
86334W        W54739  25.381  34.795  12.354
86335W        W54740   1.964  21.160  13.981
86336W        W54741  10.358  13.269   3.323
86337W        W54742  40.571  25.988  11.172
86338W        W54743   0.376   4.241  14.016
86339W        W54744  15.842  17.547   4.305
86340W        W54745  16.993  40.529   2.819
86341W        W54746  24.261  19.974   0.032
86342W        W54747  10.623  12.715   3.179
86343W        W54748  18.924  10.150   4.005
86344W        W54749  20.169  44.884   0.968
86345W        W54750   6.369  24.617   2.043
86346W        W54751  40.796  24.236  13.077
86347W        W54752  23.481  28.678   0.420
86348W        W54753  23.698   1.351  13.907
86349W        W54754  13.848  19.029   3.526
86350W        W54755  13.639  26.454  12.388
86351W        W54756  31.316  22.249  10.976
86352W        W54757  21.215   8.180   4.389
86353W        W54758  30.461   3.224   2.044
86354W        W54759   3.279  32.524   2.678
86355W        W54760  31.093  30.707   2.685
86356W        W54761   2.315  43.281  13.858
86357W        W54762  21.378  23.058   4.724
86358W        W54763  39.092  13.240  12.595
86359W        W54764   6.125  20.584   4.629
86360W        W54765   4.236  16.304  14.667
86361W        W54766  25.000  38.497  12.932
86362W        W54767  16.641  16.789   3.369
86363W        W54768  14.383  32.116   0.245
86364W        W54769  25.626  15.639   2.357
86365W        W54770   9.910  27.693  12.313
86366W        W54771  16.202   2.684  12.577
86367W        W54772  28.137   1.756  10.109
86368W        W54773  29.923   6.209   4.564
86369W        W54774   9.329  34.092   2.359
86370W        W54775  25.527  28.191   2.024
86371W        W54776   1.579  11.618  13.452
86372W        W54777  31.135  14.680  14.988
86373W        W54778   4.774   2.365   0.769
86374W        W54779   4.934  14.592  12.858
86375W        W54780   3.746  26.141  10.301
86376W        W54781  34.505  17.084   3.882
86377W        W54782  25.176  35.971   3.654
86378W        W54783  22.270  34.061   4.499
86379W        W54784  12.394  43.416   4.180
86380W        W54785  36.443   9.301   4.010
86381W        W54786  36.002  14.632   3.857
86382W        W54787  28.559  44.307   2.794
86383W        W54788  11.835  18.017  11.611
86384W        W54789  44.663  20.278   4.036
86385W        W54790  32.765  20.594  11.162
86386W        W54791  24.803  39.811  12.013
86387W        W54792   9.825  29.963   2.918
86388W        W54793  35.950   4.176  14.476
86389W        W54794  40.885   7.927   2.690
86390W        W54795   0.375  23.096  14.330
86391W        W54796  44.417  34.546   0.172
86392W        W54797  15.077  11.850  12.535
86393W        W54798  18.907  22.109  10.673
86394W        W54799  12.602   6.820  11.168
86395W        W54800  21.092  13.762   3.756
86396W        W54801  17.693  20.015  13.449
86397W        W54802   8.928  19.778  10.198
86398W        W54803  38.019  11.189   1.278
86399W        W54804  20.428  15.079  11.940
86400W        W54805  13.697  29.327  14.758
86401W        W54806   6.842   4.202   1.661
86402W        W54807  28.077   6.882   3.150
86403W        W54808  33.220  31.584   4.969
86404W        W54809  43.703  43.000   0.144
86405W        W54810  43.085  29.562   0.370
86406W        W54811   6.911  35.717   4.815
86407W        W54812  19.040   6.323  11.987
86408W        W54813   8.890  27.139   1.861
86409W        W54814  21.103  30.041   5.153
86410W        W54815  28.029   9.334   0.269
86411W        W54816  25.100   1.961  13.542
86412W        W54817  26.606  34.687  12.040
86413W        W54818   3.960  43.013   0.355
86414W        W54819  32.172  27.416   4.174
86415W        W54820  19.515  20.627  10.961
86416W        W54821  34.102   9.644   4.513
86417W        W54822  18.194  12.209   1.273
86418W        W54823  12.392  28.711   2.270
86419W        W54824  41.297   2.429   4.460
86420W        W54825   9.006  38.597   1.966
86421W        W54826  18.464  26.179  12.552
86422W        W54827  24.607   1.727   2.170
86423W        W54828  37.541   2.512   3.025
86424W        W54829  30.484  12.820  13.846
86425W        W54830  32.042   3.950  11.123
86426W        W54831  32.712  15.246   1.643
86427W        W54832  17.000  17.092  11.685
86428W        W54833  11.711  12.147  12.450
86429W        W54834   5.431  15.624  12.510
86430W        W54835  15.073   1.209   0.355
86431W        W54836  33.185  35.589   1.965
86432W        W54837  24.475  14.780   2.279
86433W        W54838   9.375  27.387   5.006
86434W        W54839  38.554   0.594   3.767
86435W        W54840  28.633   9.516  12.850
86436W        W54841  37.982   3.201  12.262
86437W        W54842   7.260  23.982   2.408
86438W        W54843  20.704  21.079  13.555
86439W        W54844  37.344  23.263  12.147
86440W        W54845  35.948   0.487  10.599
86441W        W54846  26.746  29.550   1.278
86442W        W54847  20.787   2.831   3.307
86443W        W54848  34.892  27.218   0.771
86444W        W54849   1.384  32.045   3.693
86445W        W54850  21.623  31.105   3.999
86446W        W54851  33.348  12.431  12.600
86447W        W54852  20.165  10.358  14.840
86448W        W54853   8.716  29.078  14.451
86449W        W54854  41.521  25.045   3.692
86450W        W54855  40.209   1.903  13.389
86451W        W54856  18.629  40.242   5.382
86452W        W54857  13.945   9.132  14.797
86453W        W54858   1.050   0.060   2.703
86454W        W54859  15.542   0.486   0.316
86455W        W54860  34.753  38.753  13.880
86456W        W54861  10.024   5.930  13.996
86457W        W54862  22.997  10.565  10.386
86458W        W54863   7.277  14.800   0.792
86459W        W54864  35.395   0.915   2.235
86460W        W54865  36.667  11.232  11.608
86461W        W54866  23.707  34.817   4.549
86462W        W54867   5.382  24.457   0.728
86463W        W54868  15.549  29.129   4.180
86464W        W54869  26.914  24.211   3.127
86465W        W54870  37.078  35.807   2.337
86466W        W54871  19.484  34.974   0.843
86467W        W54872  27.698  19.173   1.518
86468W        W54873  37.529  14.880  12.492
86469W        W54874  13.409  34.869  14.429
86470W        W54875  15.444  32.588  12.194
86471W        W54876  29.239  31.063  12.170
86472W        W54877  24.501  35.907  14.026
86473W        W54878  39.970  31.551  10.641
86474W        W54879  33.205  29.086  11.627
86475W        W54880  35.530   4.255   2.631
86476W        W54881   2.935  28.631   1.498
86477W        W54882  32.364  42.091  13.441
86478W        W54883   2.609  25.061  14.012
86479W        W54884  21.139  40.836  12.391
86480W        W54885   9.359  18.297   1.416
86481W        W54886   0.681   1.265   1.881
86482W        W54887  36.321  31.567   1.403
86483W        W54888  35.637  11.459  13.967
86484W        W54889   8.287  26.619   3.135
86485W        W54890  32.167  42.606   3.313
86486W        W54891  12.098   7.373  11.684
86487W        W54892   5.690  36.886  12.022
86488W        W54893  32.163  11.183   2.426
86489W        W54894  41.770  12.770   3.201
86490W        W54895   2.504  17.990   1.169
86491W        W54896  25.982  41.383  12.615
86492W        W54897  33.115  43.222  10.552
86493W        W54898   6.106  36.333  12.668
86494W        W54899  12.247   3.147   3.106
86495W        W54900  20.462  29.537   2.684
86496W        W54901  14.294  38.399  12.791
86497W        W54902  26.938  43.448  12.580
86498W        W54903  36.241  26.492  13.117
86499W        W54904  33.627  38.505  13.972
86500W        W54905  32.107  11.031  10.336
86501W        W54906  38.334  44.034   0.397
86502W        W54907  39.456   5.655   4.981
86503W        W54908  30.088   9.148  14.338
86504W        W54909  13.506   1.284   3.246
86505W        W54910  38.588   7.130   4.606
86506W        W54911  40.161  30.563   3.830
86507W        W54912  24.673   3.918   4.260
86508W        W54913   8.871  30.855  12.849
86509W        W54914  13.575  38.009  10.880
86510W        W54915  16.125  14.671   0.448
86511W        W54916  35.357  19.315  13.331
86512W        W54917   8.825  15.085  10.017
86513W        W54918  41.029  40.287  12.976
86514W        W54919  32.338  44.054  14.542
86515W        W54920   1.317  19.633   3.580
86516W        W54921  14.373  44.217   3.757
86517W        W54922  21.238  20.032   1.383
86518W        W54923  38.076  43.827  14.413
86519W        W54924  28.737  25.256   3.891
86520W        W54925  25.303  16.157  13.031
86521W        W54926  43.458  41.919   0.317
86522W        W54927  32.379   5.753   2.834
86523W        W54928  19.790  13.991  12.352
86524W        W54929   2.976   3.131  10.950
86525W        W54930  37.555   9.938   0.846
86526W        W54931  12.723   7.916   3.842
86527W        W54932   1.597  23.542   2.615
86528W        W54933  40.384  37.690   0.440
86529W        W54934  16.479  31.563   2.735
86530W        W54935  19.893   8.383   4.096
86531W        W54936  18.942  26.578  11.159
86532W        W54937  13.130   8.637   4.196
86533W        W54938  11.203  17.280   3.321
86534W        W54939  28.239   3.470   4.205
86535W        W54940   8.862  16.523   2.726
86536W        W54941  16.477  29.558   4.520
86537W        W54942   4.657  44.445  10.735
86538W        W54943   2.023   6.104  13.423
86539W        W54944  30.675  14.771   1.912
86540W        W54945  40.604  34.431   0.546
86541W        W54946  39.377  24.659   2.682
86542W        W54947  10.046   5.970  13.035
86543W        W54948   0.935  36.604  10.688
86544W        W54949  38.366  24.489   0.797
86545W        W54950  13.328  32.956   0.488
86546W        W54951  15.268   1.519   9.892
86547W        W54952   6.715  42.943   0.358
86548W        W54953   8.571  29.711   3.277
86549W        W54954  29.388   4.871  11.181
86550W        W54955  28.120  16.444   2.147
86551W        W54956  14.295   5.641  12.587
86552W        W54957  34.077  44.261  14.337
86553W        W54958  36.296  17.704   0.867
86554W        W54959  31.710  31.137  14.423
86555W        W54960   6.888   7.381   0.381
86556W        W54961   8.335  13.931  12.066
86557W        W54962   6.676  21.607   0.841
86558W        W54963  20.304  13.922  14.488
86559W        W54964  42.417  18.062   3.340
86560W        W54965  23.033   6.318  13.390
86561W        W54966  30.902  20.828  14.225
86562W        W54967   7.144  15.916  10.305
86563W        W54968  38.100  31.084   0.283
86564W        W54969  38.739  10.272  13.387
86565W        W54970  10.715   9.437   1.124
86566W        W54971  35.238  23.303   0.880
86567W        W54972   5.085  20.394   0.475
86568W        W54973  41.420  14.216   1.255
86569W        W54974   2.214  29.224   2.309
86570W        W54975  37.158  41.820  11.009
86571W        W54976  15.204  44.421  13.045
86572W        W54977  12.726  24.656  14.441
86573W        W54978  18.656  30.185  13.838
86574W        W54979  12.374  30.992   2.805
86575W        W54980  42.349   8.012   5.027
86576W        W54981  36.189  44.399   2.788
86577W        W54982  28.076  41.877  11.063
86578W        W54983  12.797  40.677  13.051
86579W        W54984  44.391  21.273   0.508
86580W        W54985  36.534   0.950  11.921
86581W        W54986  43.955  14.703   2.456
86582W        W54987   1.864  41.360  11.742
86583W        W54988  39.447  16.394   4.620
86584W        W54989  25.039  19.813  12.022
86585W        W54990  34.863  37.873   0.807
86586W        W54991  14.824  32.601  13.313
86587W        W54992  40.722   6.148  13.131
86588W        W54993  38.390  22.694   1.370
86589W        W54994  20.553   3.245  13.024
86590W        W54995  24.139  18.112  12.103
86591W        W54996   3.192   9.566   1.473
86592W        W54997   5.021  20.922  13.557
86593W        W54998  28.101  15.147   2.561
86594W        W54999  35.881  12.652  12.504
86595W        W55000  34.116  21.143   0.970
86596W        W55001  40.902  44.541   4.546
86597W        W55002  18.209  15.939  13.926
86598W        W55003  34.850  10.665   0.303
86599W        W55004  20.261  14.135  12.062
86600W        W55005  16.262  11.299   1.029
86601W        W55006  15.955  34.848  14.117
86602W        W55007   9.313  34.626   2.467
86603W        W55008  39.751  13.257  13.825
86604W        W55009  43.658   7.142  14.681
86605W        W55010  16.830  29.615  12.974
86606W        W55011  38.862  22.531   3.181
86607W        W55012   7.011  42.923   3.160
86608W        W55013  35.458  25.903  14.509
86609W        W55014  44.805  39.874  14.558
86610W        W55015   7.216  35.461  10.748
86611W        W55016  29.397  32.943   4.615
86612W        W55017  27.491   4.147   3.234
86613W        W55018  28.451  26.394  12.943
86614W        W55019  40.114  24.411  12.651
86615W        W55020  32.997  34.180  11.071
86616W        W55021  18.758  36.002   0.404
86617W        W55022  29.128  39.478  12.859
86618W        W55023  25.676  15.526  12.591
86619W        W55024  31.442  44.345   2.120
86620W        W55025  35.712  31.421   1.356
86621W        W55026  16.523  15.090  11.106
86622W        W55027  32.065  10.817  14.063
86623W        W55028  42.753   5.880  14.668
86624W        W55029  40.474  30.241   1.253
86625W        W55030  37.574  38.520   0.977
86626W        W55031  43.953  22.530   1.033
86627W        W55032   2.321  42.241  13.949
86628W        W55033   0.001   0.311  11.053
86629W        W55034  36.546  29.266   3.000
86630W        W55035  21.613  10.148  10.251
86631W        W55036  44.084  32.514   1.502
86632W        W55037   7.138  28.526   2.659
86633W        W55038  41.423  36.389  10.745
86634W        W55039  28.085  38.847   2.156
86635W        W55040  16.894  31.933  13.870
86636W        W55041  29.236  27.816  10.077
86637W        W55042  18.586  41.293  10.974
86638W        W55043  32.026  36.402   3.674
86639W        W55044  44.583  15.311  13.299
86640W        W55045  15.595   4.224  11.919
86641W        W55046   3.773  12.416   3.547
86642W        W55047  19.001   5.806  10.807
86643W        W55048   6.717  28.066   1.213
86644W        W55049  35.242  28.284   4.480
86645W        W55050  27.612  22.025  12.029
86646W        W55051  15.078  12.206  13.292
86647W        W55052  31.694   0.427  12.346
86648W        W55053   4.673  30.671  13.488
86649W        W55054  12.167  39.039   3.384
86650W        W55055  24.128  21.365   3.781
86651W        W55056   5.809  41.810   0.471
86652W        W55057  37.807  43.373   0.956
86653W        W55058  11.700   6.408   1.823
86654W        W55059   9.069  17.504   2.178
86655W        W55060  37.286  32.637  11.316
86656W        W55061  21.349  29.085  11.063
86657W        W55062  27.023  43.824  10.795
86658W        W55063  32.440  19.584  11.068
86659W        W55064  42.540   8.215  12.959
86660W        W55065  29.009   7.778   0.030
86661W        W55066  23.498  20.566   4.166
86662W        W55067  37.077   5.720   2.290
86663W        W55068   4.830  34.309   2.334
86664W        W55069  20.179  16.603  13.344
86665W        W55070  32.962  40.016   1.275
86666W        W55071  21.606  15.475  12.536
86667W        W55072  15.493  42.775   3.738
86668W        W55073  29.876  28.864   2.314
86669W        W55074  20.639  18.097   3.877
86670W        W55075  29.574   4.407   1.359
86671W        W55076  24.350  27.628   4.640
86672W        W55077  14.931   0.936  13.946
86673W        W55078  31.141   8.382   3.812
86674W        W55079   0.014  42.883  12.452
86675W        W55080  25.634  35.891  14.183
86676W        W55081  42.826  26.444   1.977
86677W        W55082  38.984  35.868   4.467
86678W        W55083  38.519  12.191  10.548
86679W        W55084  11.886  11.152  11.017
86680W        W55085   5.264  14.910  14.858
86681W        W55086   8.166  31.450  14.384
86682W        W55087  40.344  11.313  12.585
86683W        W55088  38.329   2.537   4.523
86684W        W55089  34.430  41.832   2.957
86685W        W55090  12.108  32.020  14.915
86686W        W55091  33.927  14.657  14.756
86687W        W55092  18.036  15.914   4.177
86688W        W55093   2.484  23.181   2.774
86689W        W55094   3.216  35.420  13.285
86690W        W55095   3.046  27.602  11.492
86691W        W55096  20.676   3.606  12.673
86692W        W55097   3.903   7.809  13.339
86693W        W55098  37.926  14.800   4.123
86694W        W55099   7.774   6.653  13.317
86695W        W55100  35.370  20.094  10.838
86696W        W55101   0.670  22.542  11.705
86697W        W55102  19.825  23.125  14.521
86698W        W55103   0.877  34.451   0.422
86699W        W55104  27.777  42.723   2.160
86700W        W55105   2.046  23.127  11.590
86701W        W55106  25.554  13.714   0.228
86702W        W55107  42.459  34.691  14.327
86703W        W55108  42.268  22.060   3.510
86704W        W55109  15.878  37.450  12.883
86705W        W55110  40.184  12.687  10.450
86706W        W55111  26.631   4.243   3.684
86707W        W55112  43.572   7.756  13.495
86708W        W55113  43.532  26.165   3.678
86709W        W55114  25.453  18.499   0.718
86710W        W55115  36.062  30.299  13.510
86711W        W55116  16.007   0.337  12.854
86712W        W55117   1.098  33.057  11.116
86713W        W55118  17.834   8.271   4.528
86714W        W55119  10.236   6.093   3.636
86715W        W55120   9.971  37.105   0.479
86716W        W55121   4.426   6.143   1.243
86717W        W55122  20.749  30.887   2.860
86718W        W55123  25.135  41.682  13.263
86719W        W55124  14.863  35.088  12.188
86720W        W55125  20.901  14.603   4.176
86721W        W55126  43.355  33.916   4.119
86722W        W55127   6.754  13.571   3.532
86723W        W55128  37.972  17.978  10.645
86724W        W55129  30.903  18.319   2.949
86725W        W55130  16.887  27.502  14.204
86726W        W55131   5.772   2.256  12.169
86727W        W55132  31.287  20.256  13.560
86728W        W55133  25.084   7.394   3.376
86729W        W55134  35.769  28.407   4.445
86730W        W55135  23.019  36.680   1.758
86731W        W55136   7.733  29.754   0.023
86732W        W55137  10.374  28.020   3.356
86733W        W55138  32.638  37.337  10.733
86734W        W55139  38.103   6.124   4.097
86735W        W55140   5.343  34.108  14.848
86736W        W55141  24.994  20.691   2.421
86737W        W55142   7.663  10.341  11.482
86738W        W55143  12.444  16.216   4.246
86739W        W55144  24.183  18.045   0.741
86740W        W55145  23.692  17.591   4.134
86741W        W55146  35.127  25.218   2.847
86742W        W55147   9.163  21.055   0.750
86743W        W55148   5.938   7.261  11.128
86744W        W55149   9.101  22.978  12.157
86745W        W55150  35.802   6.445  12.554
86746W        W55151  31.356  14.470  13.895
86747W        W55152  14.601  35.832   1.753
86748W        W55153  11.723  21.505  12.873
86749W        W55154  31.076  43.664  14.175
86750W        W55155  23.817  11.472   1.335
86751W        W55156  19.848  40.996  13.755
86752W        W55157  22.250  27.396  12.370
86753W        W55158  38.609  30.212  11.504
86754W        W55159  12.649  37.493   0.817
86755W        W55160  10.385  25.000   1.787
86756W        W55161   9.977  21.115  13.169
86757W        W55162  29.713  11.146   0.687
86758W        W55163  29.833  40.781   3.566
86759W        W55164  32.592   9.806  12.706
86760W        W55165  39.943   1.820  14.566
86761W        W55166  41.956  28.972   4.570
86762W        W55167   1.707  18.263   4.201
86763W        W55168  13.038   1.587   0.174
86764W        W55169  32.477  13.998   2.712
86765W        W55170  23.241  18.068  14.490
86766W        W55171  11.202   2.446  11.144
86767W        W55172  37.959  13.220   1.492
86768W        W55173   6.160  38.269  13.516
86769W        W55174  36.567  16.069  10.737
86770W        W55175  21.771  29.217  10.819
86771W        W55176  32.498  32.557   0.910
86772W        W55177  27.566  33.194   0.894
86773W        W55178  27.121  11.888  11.401
86774W        W55179  16.427  25.925   0.679
86775W        W55180   0.290  13.253  10.707
86776W        W55181  28.424  26.746   1.594
86777W        W55182   9.664  20.802   1.162
86778W        W55183  31.456  13.365  11.622
86779W        W55184  36.316  37.098  12.452
86780W        W55185  37.633  30.089   2.722
86781W        W55186   0.214  11.138  13.486
86782W        W55187   7.853  31.659   1.478
86783W        W55188  10.801  10.552   0.604
86784W        W55189  22.194  12.986   0.301
86785W        W55190  31.020   9.193   1.015
86786W        W55191  19.649  13.349   0.104
86787W        W55192   3.589  34.390  13.183
86788W        W55193  42.741  24.478  11.087
86789W        W55194   9.966  13.864   4.167
86790W        W55195  38.341  41.012  14.445
86791W        W55196  29.549  16.255   0.598
86792W        W55197  27.757  30.489  12.642
86793W        W55198  16.755   1.493  13.101
86794W        W55199   7.834  30.696  10.641
86795W        W55200   9.310   5.847  11.896
86796W        W55201  25.646  39.528  13.653
86797W        W55202   1.360  20.191  11.566
86798W        W55203  39.376  31.684  13.321
86799W        W55204  23.207  12.706  11.509
86800W        W55205  16.116  41.493   3.268
86801W        W55206   8.902  20.696  11.172
86802W        W55207  21.766   4.206  12.714
86803W        W55208  13.644  36.205  12.625
86804W        W55209   7.260  39.342  14.997
86805W        W55210  40.067   9.210  13.766
86806W        W55211  41.549  32.574  12.132
86807W        W55212  18.154  33.671  12.395
86808W        W55213  15.161  35.365  14.654
86809W        W55214  38.477  11.332  13.334
86810W        W55215  30.594  36.360   4.381
86811W        W55216  28.487  15.605  12.026
86812W        W55217  16.208   5.944  14.923
86813W        W55218   0.763  28.589  10.906
86814W        W55219  32.966  34.273   0.427
86815W        W55220  33.842  19.150   4.619
86816W        W55221   8.973  42.522  14.382
86817W        W55222  18.343  10.795   0.175
86818W        W55223   5.454   4.241  11.455
86819W        W55224  21.974   7.260  14.415
86820W        W55225   8.339  30.143   3.106
86821W        W55226   3.284  15.777  10.654
86822W        W55227   6.382  44.911   0.484
86823W        W55228   9.715  18.623   5.434
86824W        W55229  29.095   2.284  13.026
86825W        W55230  14.409   5.141  12.465
86826W        W55231   6.988  19.172   2.855
86827W        W55232  42.956  14.624  14.896
86828W        W55233  23.159   1.240  11.034
86829W        W55234   4.082   1.151   2.253
86830W        W55235   8.474  13.388   2.655
86831W        W55236  32.059  39.198  11.654
86832W        W55237  30.199  19.031   2.267
86833W        W55238  41.618  37.970  14.841
86834W        W55239  17.202  30.512   4.056
86835W        W55240  27.720  43.247  11.735
86836W        W55241  29.553  41.282  14.537
86837W        W55242  27.128  35.551  14.059
86838W        W55243  18.414  42.387  10.681
86839W        W55244  37.462   0.845   1.042
86840W        W55245  20.743  10.486  12.203
86841W        W55246  26.153  43.751   1.893
86842W        W55247  38.078  24.574  12.427
86843W        W55248   7.310  22.482   3.263
86844W        W55249   6.897  36.874   2.879
86845W        W55250   9.938  16.180  12.627
86846W        W55251  32.451  30.604  12.019
86847W        W55252  29.683   6.360  13.817
86848W        W55253  26.805  19.353   5.065
86849W        W55254  31.471  32.391   2.617
86850W        W55255   3.986  32.008  10.735
86851W        W55256  24.217  31.707   2.314
86852W        W55257   1.013   2.614  12.053
86853W        W55258  13.318  10.746  10.390
86854W        W55259   7.704  19.681  13.520
86855W        W55260  35.048  38.604   4.110
86856W        W55261   4.600   0.037  14.778
86857W        W55262  27.020  18.297   2.723
86858W        W55263  29.543  42.994   4.572
86859W        W55264  13.468   2.836   4.160
86860W        W55265  13.723  30.432   0.929
86861W        W55266  28.700  38.442   1.738
86862W        W55267   7.436  15.965   1.987
86863W        W55268  20.241  33.787   1.832
86864W        W55269  32.465   2.784  10.975
86865W        W55270  29.711  19.594   4.626
86866W        W55271   1.205  41.411   1.850
86867W        W55272  39.528  29.125  14.114
86868W        W55273  13.656   8.393   3.388
86869W        W55274  20.912   3.475  14.740
86870W        W55275  26.589  16.971   2.774
86871W        W55276  10.829   9.700   0.702
86872W        W55277   2.734  43.834  11.655
86873W        W55278   0.704  13.031  14.812
86874W        W55279  41.995  29.361   3.733
86875W        W55280  20.122  19.627   0.149
86876W        W55281  44.440  33.220  11.944
86877W        W55282  30.367  17.598  11.809
86878W        W55283  16.495  18.129   4.054
86879W        W55284  33.394   1.275  11.618
86880W        W55285   4.417  30.370  10.470
86881W        W55286   0.637  29.096  11.214
86882W        W55287   5.888  40.849   3.840
86883W        W55288   2.391  34.138  12.488
86884W        W55289  20.274  37.220  14.298
86885W        W55290  22.575   6.880   4.680
86886W        W55291  33.194  32.946  10.719
86887W        W55292  12.163  27.777   1.093
86888W        W55293   2.692  13.986  11.153
86889W        W55294  26.289  16.716   4.568
86890W        W55295   0.947   6.434   2.299
86891W        W55296  37.000  10.382   4.774
86892W        W55297  42.974   0.795  12.924
86893W        W55298  36.888  27.485   3.249
86894W        W55299  39.080  40.333   4.810
86895W        W55300  36.193  37.035  13.629
86896W        W55301  33.345  37.334  14.806
86897W        W55302  19.076  39.464  14.142
86898W        W55303   6.035  44.404   4.540
86899W        W55304  28.678  40.390   4.445
86900W        W55305  15.877  23.177  14.659
86901W        W55306  34.624  39.632   4.172
86902W        W55307   2.037  39.346  12.368
86903W        W55308  24.560   1.767  12.521
86904W        W55309   2.323   3.245   4.243
86905W        W55310   8.789  34.275   4.244
86906W        W55311  16.752  15.897   3.618
86907W        W55312   7.427  14.252   3.324
86908W        W55313  17.519   2.828  11.271
86909W        W55314  19.350  24.031   0.700
86910W        W55315  30.994  41.862  11.130
86911W        W55316  17.194  19.474   4.091
86912W        W55317  17.755  11.141   1.482
86913W        W55318  15.195   5.486   3.296
86914W        W55319  30.894  34.933   1.928
86915W        W55320  14.102  24.728  12.238
86916W        W55321  26.085  42.906  14.494
86917W        W55322   2.625  38.330  10.772
86918W        W55323  29.496   1.182  14.749
86919W        W55324   3.957   3.279   3.131
86920W        W55325  31.155  19.840   4.198
86921W        W55326  32.439  25.677  10.702
86922W        W55327  33.341   6.610  14.311
86923W        W55328  26.086  30.144   0.079
86924W        W55329  34.037  15.104  13.908
86925W        W55330  14.791  15.536   0.248
86926W        W55331  21.754  17.061  14.930
86927W        W55332   3.710   1.446  14.941
86928W        W55333   1.566  39.537  12.104
86929W        W55334  41.636   4.440   4.044
86930W        W55335  12.942   5.727   0.933
86931W        W55336  31.562  29.495   1.888
86932W        W55337  43.623  13.769   0.955
86933W        W55338  31.558  24.729  12.896
86934W        W55339  26.147  42.018   0.015
86935W        W55340  32.724  42.562   2.773
86936W        W55341  26.123  13.770   4.931
86937W        W55342  30.666  17.539  13.932
86938W        W55343  10.386  37.963  10.621
86939W        W55344   6.274  18.188   5.480
86940W        W55345  30.268  22.053  12.556
86941W        W55346   1.283  38.465  10.497
86942W        W55347  22.577  35.734  10.736
86943W        W55348   5.944   3.654   3.796
86944W        W55349   1.436   2.862  11.366
86945W        W55350  25.652  35.129   2.484
86946W        W55351  43.755  37.596  14.339
86947W        W55352  15.162  18.545  13.101
86948W        W55353   4.604   4.705  14.870
86949W        W55354   7.940  32.500  12.963
86950W        W55355  29.766  11.960   0.950
86951W        W55356   3.185   6.868  11.650
86952W        W55357  18.697   1.385   4.725
86953W        W55358  13.644  44.979   1.146
86954W        W55359   0.773  16.062   2.168
86955W        W55360   8.973   7.325  12.885
86956W        W55361  26.849   6.690  10.584
86957W        W55362  26.455  16.349   4.971
86958W        W55363  25.901   8.187   0.287
86959W        W55364  15.827  32.382   1.843
86960W        W55365  16.937   8.065   0.390
86961W        W55366   4.267   9.368   2.906
86962W        W55367  36.136  34.088  12.805
86963W        W55368  10.864   4.198  12.623
86964W        W55369  19.551  26.481  13.993
86965W        W55370  42.335  43.426   1.665
86966W        W55371  25.554  17.855   2.249
86967W        W55372   9.721  17.575   0.335
86968W        W55373  17.250  41.475   0.843
86969W        W55374  13.050  32.899  10.719
86970W        W55375  35.133  32.086  14.373
86971W        W55376  25.738   8.219  14.407
86972W        W55377   3.694   1.874   3.421
86973W        W55378  33.451   7.528  11.580
86974W        W55379  15.195  41.571  13.258
86975W        W55380  40.351  40.241  12.449
86976W        W55381  14.243  15.038  13.171
86977W        W55382  43.942  15.256   4.805
86978W        W55383  29.363  42.008   5.010
86979W        W55384  42.868   1.876   1.526
86980W        W55385  19.153  19.306  13.280
86981W        W55386   6.764  39.883   0.385
86982W        W55387   6.206  21.635  11.927
86983W        W55388  41.467  41.788  14.736
86984W        W55389  34.850  44.018  13.435
86985W        W55390   8.193  44.901   4.230
86986W        W55391  16.011  29.031   1.940
86987W        W55392  24.192  37.007  12.411
86988W        W55393   3.816  21.473   0.221
86989W        W55394  41.329  23.928   3.075
86990W        W55395  31.392  37.355   2.891
86991W        W55396  10.827   7.423   3.198
86992W        W55397  36.007  36.570   2.787
86993W        W55398  42.008  40.255   3.988
86994W        W55399  24.958   8.888  10.553
86995W        W55400  12.900  41.549   1.508
86996W        W55401  13.274  31.150   1.849
86997W        W55402  27.205  21.364   0.841
86998W        W55403  10.772  15.963   1.288
86999W        W55404  37.603   4.148   0.278
87000W        W55405  11.049  31.087  14.729
87001W        W55406   8.051  19.572  14.922
87002W        W55407  32.055  12.095  13.422
87003W        W55408   0.793  25.501  12.476
87004W        W55409   3.209   9.285  12.855
87005W        W55410   9.415  42.782   1.805
87006W        W55411  36.121  12.267  10.634
87007W        W55412  28.611  19.132  14.331
87008W        W55413  25.127   2.951   2.677
87009W        W55414  10.233  19.031   3.185
87010W        W55415  14.336  22.735   2.759
87011W        W55416  44.482   4.159  13.928
87012W        W55417  18.165  16.097   0.388
87013W        W55418  19.836   0.293   1.701
87014W        W55419  28.117  31.037   2.365
87015W        W55420   3.227   8.177   1.391
87016W        W55421  15.679  43.345   1.883
87017W        W55422  22.093  38.140   0.646
87018W        W55423   3.926  15.758   0.583
87019W        W55424  19.133  29.918   1.387
87020W        W55425   7.300  11.366  10.588
87021W        W55426   1.594  23.025   0.348
87022W        W55427  32.472   0.764  13.845
87023W        W55428  44.106  19.515  14.148
87024W        W55429  39.536   4.748   3.448
87025W        W55430  24.692  22.432   3.292
87026W        W55431  39.965  33.680  14.417
87027W        W55432  29.713   2.320   1.917
87028W        W55433  28.423  11.731   2.372
87029W        W55434  29.886  13.730  12.986
87030W        W55435  20.143  23.729   4.270
87031W        W55436  16.644   7.744  12.609
87032W        W55437  23.092  40.118  14.139
87033W        W55438  30.876  38.999  14.728
87034W        W55439  33.011  21.370  11.557
87035W        W55440  43.935   3.039   4.789
87036W        W55441  44.737  30.999   0.372
87037W        W55442  32.442  29.575  12.415
87038W        W55443  26.247   8.386   2.644
87039W        W55444  19.134  36.493   1.411
87040W        W55445  42.390  30.086  10.614
87041W        W55446   9.176  12.460  10.640
87042W        W55447  14.592  11.625  12.564
87043W        W55448  24.179   4.169  13.845
87044W        W55449   2.963  43.825   3.143
87045W        W55450  25.145   2.053   0.478
87046W        W55451  43.780   5.848   2.697
87047W        W55452  39.297  29.795   2.694
87048W        W55453  15.132  22.493  14.534
87049W        W55454  38.877  34.876   1.004
87050W        W55455  42.267  26.387  10.482
87051W        W55456  40.505  43.417   0.998
87052W        W55457  33.953  27.880   0.430
87053W        W55458  37.784  42.884   3.995
87054W        W55459   6.180  19.062  11.657
87055W        W55460  40.239  44.482   5.010
87056W        W55461   1.411  33.078   0.314
87057W        W55462  22.036  33.623  13.794
87058W        W55463  44.976  35.701  12.035
87059W        W55464  43.340  20.674  12.362
87060W        W55465  14.870   6.425   1.276
87061W        W55466   1.415  24.388   2.425
87062W        W55467  15.117   1.193  12.490
87063W        W55468  36.308  28.603   3.711
87064W        W55469  41.285  41.498  13.802
87065W        W55470  18.467  24.169  10.781
87066W        W55471  26.168  44.767   0.392
87067W        W55472  27.925  11.145   4.066
87068W        W55473  14.651  24.149   3.861
87069W        W55474  36.565  39.567  13.949
87070W        W55475  25.171  18.216  11.169
87071W        W55476  38.317   3.276  13.589
87072W        W55477  39.445  26.192  12.063
87073W        W55478  40.255  42.756   0.266
87074W        W55479  21.290  14.337   1.027
87075W        W55480  43.083   3.956   3.957
87076W        W55481   2.013  21.682   0.717
87077W        W55482  26.446   8.187  11.421
87078W        W55483   4.604  35.484  12.266
87079W        W55484  24.623  40.551   3.777
87080W        W55485  26.600   7.868   2.657
87081W        W55486  40.696  24.372  11.315
87082W        W55487  40.319  24.694   1.825
87083W        W55488  23.540   7.435   1.381
87084W        W55489  23.617   7.886   4.133
87085W        W55490  25.472  37.405  13.588
87086W        W55491  30.909  13.452  11.574
87087W        W55492  42.466  10.696   3.279
87088W        W55493  33.458  29.534  10.627
87089W        W55494  26.191  16.181  10.240
87090W        W55495  24.312   5.181  14.765
87091W        W55496  13.299   6.783   0.291
87092W        W55497   4.844  42.318   1.892
87093W        W55498   2.469  21.183   4.988
87094W        W55499   7.246   3.827  13.915
87095W        W55500  24.008  44.899   3.216
87096W        W55501  34.526  20.850   3.870
87097W        W55502   2.944  38.349  14.851
87098W        W55503  43.254  12.409  12.315
87099W        W55504  17.453   0.343   0.872
87100W        W55505  44.887  26.095  13.003
87101W        W55506  23.198  34.448  10.685
87102W        W55507  33.338  28.489   0.450
87103W        W55508  36.403  21.623   2.036
87104W        W55509  41.888  21.096  11.665
87105W        W55510  34.124  27.660   2.344
87106W        W55511  37.870   2.268  12.636
87107W        W55512  40.954  10.592  14.847
87108W        W55513  17.198   4.453   2.339
87109W        W55514  23.585  35.088  14.393
87110W        W55515   1.522  31.153  12.638
87111W        W55516   6.168  29.065   0.845
87112W        W55517   3.243  13.717   3.738
87113W        W55518  41.502  38.240   4.596
87114W        W55519   8.802   6.464  13.552
87115W        W55520   2.928  35.945  10.807
87116W        W55521   8.628   4.449  14.707
87117W        W55522   6.150  30.758   2.816
87118W        W55523   9.322  38.050  12.403
87119W        W55524  37.121  23.118   2.864
87120W        W55525  16.708  35.608  13.533
87121W        W55526  14.665  15.571  10.501
87122W        W55527  31.675  30.641   0.108
87123W        W55528  20.829   1.297   0.768
87124W        W55529   8.781  23.666  13.613
87125W        W55530  25.689   3.733  14.026
87126W        W55531  30.516  10.667  13.981
87127W        W55532  25.979  34.327  13.030
87128W        W55533  26.175  26.171  13.400
87129W        W55534  32.936   8.421  13.064
87130W        W55535  40.532  44.586  13.047
87131W        W55536  34.610  13.771   0.002
87132W        W55537  17.252  26.552   3.878
87133W        W55538   6.424  30.409  10.641
87134W        W55539   8.262  35.057  13.396
87135W        W55540   6.397   3.218   9.812
87136W        W55541  21.647   3.472   0.282
87137W        W55542  18.576  42.546  13.857
87138W        W55543  32.100  38.837  11.251
87139W        W55544   3.183  34.340  12.060
87140W        W55545  22.652  29.246  11.718
87141W        W55546  24.522  34.910   3.221
87142W        W55547   7.619  16.191  12.924
87143W        W55548   1.802  15.576  12.015
87144W        W55549  15.033  28.755  13.468
87145W        W55550   9.626  26.064   0.460
87146W        W55551  18.159  36.658  11.797
87147W        W55552  26.675  17.257   1.778
87148W        W55553  43.609  17.693   1.454
87149W        W55554  38.168  36.307   3.260
87150W        W55555   6.710  10.913   4.157
87151W        W55556  20.484  11.790   1.264
87152W        W55557  12.074  19.269   3.072
87153W        W55558  27.055  44.006  12.962
87154W        W55559   4.647  11.681  14.938
87155W        W55560  23.452   1.902  13.107
87156W        W55561   8.295  19.642   4.907
87157W        W55562  21.080  22.611  13.888
87158W        W55563  14.338  26.891   0.346
87159W        W55564  21.108  15.165   4.047
87160W        W55565  27.993  34.127  10.372
87161W        W55566  31.439  38.328  13.220
87162W        W55567  31.703  34.180   4.027
87163W        W55568  38.155  13.793  11.158
87164W        W55569  26.102  32.654   2.142
87165W        W55570  35.344  43.377   4.471
87166W        W55571  34.936   2.746   0.843
87167W        W55572  22.006  17.539  14.927
87168W        W55573  16.518  41.926  13.280
87169W        W55574  28.311   4.692   2.878
87170W        W55575  17.854   9.745   3.354
87171W        W55576  40.660  18.106  10.690
87172W        W55577  36.347  37.429  13.101
87173W        W55578   6.450  23.701   3.045
87174W        W55579  20.142  44.535   2.906
87175W        W55580  34.945  39.058  13.002
87176W        W55581  24.237  18.324  14.418
87177W        W55582  15.324  27.631   3.355
87178W        W55583  30.950  12.360   1.266
87179W        W55584  14.382   4.670   4.126
87180W        W55585  28.439  36.120  11.596
87181W        W55586  33.242  13.351  13.436
87182W        W55587  34.345  21.566  11.121
87183W        W55588  24.108  23.077  14.281
87184W        W55589  41.066  25.947   0.354
87185W        W55590  15.704  25.153  12.404
87186W        W55591  10.509  38.826  13.970
87187W        W55592   7.362  17.914   2.963
87188W        W55593  30.128   1.247  11.589
87189W        W55594  23.782  14.787   0.726
87190W        W55595  38.775  23.701   4.176
87191W        W55596  44.004  15.837   1.744
87192W        W55597   0.029  34.077  11.163
87193W        W55598   4.932  39.453  11.405
87194W        W55599  11.863  21.791  12.459
87195W        W55600  22.655   8.845   2.010
87196W        W55601  12.602  26.555   1.726
87197W        W55602   1.074  18.671   4.621
87198W        W55603  19.037   5.636  14.369
87199W        W55604  21.668  37.988   0.358
87200W        W55605   7.441  14.207  11.174
87201W        W55606   6.833  24.729   1.785
87202W        W55607  41.265  36.032  14.677
87203W        W55608  23.158  20.262  11.453
87204W        W55609  20.668  28.977   3.371
87205W        W55610   4.380  17.682  12.929
87206W        W55611  23.640  15.952   4.700
87207W        W55612  17.065  35.480  12.282
87208W        W55613  40.671  40.228   1.395
87209W        W55614  31.658  36.003  12.455
87210W        W55615  33.135  27.229  12.542
87211W        W55616  13.449   1.892   0.948
87212W        W55617  42.122  36.301   3.164
87213W        W55618  35.900  21.765  14.134
87214W        W55619  22.006   1.441  10.996
87215W        W55620  39.861   7.207   4.487
87216W        W55621  43.752  31.132   1.848
87217W        W55622  41.836  28.056   2.704
87218W        W55623  17.197  35.194   1.948
87219W        W55624  17.329  44.532  10.116
87220W        W55625  19.020  32.020   2.280
87221W        W55626  43.023  30.524  13.206
87222W        W55627  43.284  21.254  13.119
87223W        W55628  20.944   7.880  11.696
87224W        W55629  34.284  14.274   3.639
87225W        W55630  29.334  30.016   2.523
87226W        W55631   6.286  26.909   1.192
87227W        W55632  36.557  31.049  14.932
87228W        W55633  25.141   7.321  14.448
87229W        W55634  10.787  25.965   1.205
87230W        W55635  41.887  41.434   3.965
87231W        W55636   4.737  11.690  12.973
87232W        W55637  15.675   5.146  14.936
87233W        W55638   9.139  40.341   2.361
87234W        W55639  10.780  26.560  14.428
87235W        W55640  16.959   4.020  11.087
87236W        W55641  17.778   5.018   5.146
87237W        W55642   5.149   9.843  11.215
87238W        W55643  23.477  28.153  11.552
87239W        W55644   6.232  32.561  11.222
87240W        W55645   9.563  21.174  10.661
87241W        W55646   1.403  18.644   0.456
87242W        W55647  25.773   0.196   4.677
87243W        W55648  37.863   3.968   3.748
87244W        W55649   3.475  39.094   4.205
87245W        W55650   7.020  28.243   9.686
87246W        W55651   8.540  42.355   0.253
87247W        W55652  35.870   0.988  10.602
87248W        W55653  27.030  44.854   2.884
87249W        W55654  44.535  17.833   2.694
87250W        W55655  25.677  25.155   4.334
87251W        W55656  27.634   5.454  14.582
87252W        W55657   6.404  31.199   2.645
87253W        W55658  15.533  10.803   2.383
87254W        W55659  35.137  36.040  10.342
87255W        W55660  43.376   0.418  12.860
87256W        W55661  30.208  11.383   2.906
87257W        W55662  28.537   8.156   1.366
87258W        W55663   6.016  41.318   5.029
87259W        W55664   2.499  35.934   2.268
87260W        W55665  16.044   7.204   2.339
87261W        W55666  25.647   5.402  11.390
87262W        W55667  44.261  33.475   3.181
87263W        W55668  19.090  38.323   0.092
87264W        W55669  33.185   4.692   1.007
87265W        W55670  12.521  31.012  12.523
87266W        W55671   5.373  14.160  11.246
87267W        W55672  27.751   8.440  14.476
87268W        W55673  44.306  12.811  13.911
87269W        W55674  32.104  20.736  10.655
87270W        W55675  26.119   9.412  12.128
87271W        W55676  27.979  34.895  12.389
87272W        W55677   5.785  12.167  11.821
87273W        W55678  17.356  13.666  13.103
87274W        W55679   7.879  30.602  14.112
87275W        W55680  15.315   7.223  14.339
87276W        W55681  11.362  41.366   4.959
87277W        W55682  13.805   4.429  14.781
87278W        W55683   2.317  39.307   4.439
87279W        W55684   4.326  28.302  13.456
87280W        W55685  35.421  25.240   0.745
87281W        W55686   7.919   0.881   4.277
87282W        W55687  43.491  24.623   4.454
87283W        W55688  15.798  23.213  11.618
87284W        W55689  21.984  44.894   0.066
87285W        W55690  15.231  13.689   0.991
87286W        W55691  31.630  24.717   3.450
87287W        W55692  12.912  41.396   1.994
87288W        W55693  37.008  21.957  14.370
87289W        W55694  24.662  34.591  14.367
87290W        W55695  36.477  38.468   3.754
87291W        W55696   9.939  41.322  10.717
87292W        W55697  31.989   5.458  11.971
87293W        W55698   9.244  29.221  11.665
87294W        W55699  27.715  36.799   4.516
87295W        W55700  44.499  19.387  14.434
87296W        W55701  10.979  10.614   2.305
87297W        W55702  31.973  27.709   4.555
87298W        W55703  33.918  36.680   3.381
87299W        W55704  16.130  14.691   1.945
87300W        W55705  44.907  29.663  11.503
87301W        W55706   0.474  43.048   0.327
87302W        W55707  13.696  10.479  14.994
87303W        W55708   7.187  10.766   1.697
87304W        W55709  26.413  21.579  12.960
87305W        W55710  34.595  19.579   1.281
87306W        W55711  42.178  32.475   0.215
87307W        W55712  11.132  19.185   4.331
87308W        W55713  14.100  42.524  10.753
87309W        W55714  41.652  20.677   0.252
87310W        W55715  44.284  27.668   0.886
87311W        W55716  12.305   5.401   2.333
87312W        W55717   6.268  23.185  11.862
87313W        W55718  31.169   6.430  11.628
87314W        W55719   4.271  11.332   4.957
87315W        W55720  30.517   6.405  14.217
87316W        W55721  43.487  16.243   4.131
87317W        W55722  31.629   7.519   2.957
87318W        W55723   3.870   9.947  10.404
87319W        W55724  34.674  34.539  13.346
87320W        W55725  19.102  39.949   3.989
87321W        W55726  38.485  37.104  14.484
87322W        W55727   9.600  28.459   2.410
87323W        W55728  25.522  44.621   4.497
87324W        W55729   8.774  39.031  12.869
87325W        W55730   6.331  21.578   4.570
87326W        W55731  43.928  20.553   3.710
87327W        W55732   0.936  20.536  11.737
87328W        W55733  13.434  32.839  14.608
87329W        W55734   0.012  38.347  10.976
87330W        W55735   4.485  18.342   1.356
87331W        W55736  41.976  38.579   3.720
87332W        W55737  24.594  43.813  11.007
87333W        W55738  34.921  37.042   0.238
87334W        W55739  18.767  18.348   1.664
87335W        W55740  17.096  14.561   0.177
87336W        W55741   5.554  16.071   4.426
87337W        W55742   8.010   9.868  13.031
87338W        W55743  21.127   3.418   4.590
87339W        W55744  26.597   6.621   1.866
87340W        W55745  38.791  29.875   2.037
87341W        W55746  35.291  41.352  14.205
87342W        W55747   9.465  41.916   3.673
87343W        W55748  29.883  31.714  14.368
87344W        W55749   9.660  32.517   2.710
87345W        W55750  42.465   3.437  12.812
87346W        W55751  20.750   0.949   4.956
87347W        W55752   2.166  18.559  11.086
87348W        W55753  44.441  44.358   5.099
87349W        W55754  44.954  38.611   1.860
87350W        W55755  42.787   4.313  12.551
87351W        W55756  15.572  29.447   1.055
87352W        W55757  44.690  18.336  10.752
87353W        W55758  41.052   5.953   5.537
87354W        W55759  39.356  29.907  11.861
87355W        W55760  43.696  19.586  14.448
87356W        W55761  41.294  42.419  10.498
87357W        W55762  28.508  21.768  13.929
87358W        W55763  42.796  43.362  11.836
87359W        W55764  42.449  15.694   3.964
87360W        W55765   5.939  16.715  10.833
87361W        W55766   7.312  10.855  13.513
87362W        W55767  24.240  40.931  14.618
87363W        W55768  22.691   2.703  13.494
87364W        W55769   2.973  29.012   2.630
87365W        W55770  38.881  12.121  11.142
87366W        W55771  27.952   5.148   1.814
87367W        W55772  34.359  20.318  13.435
87368W        W55773  16.950  22.518  12.953
87369W        W55774  16.390  34.519   3.290
87370W        W55775   9.636  17.549  14.421
87371W        W55776  11.028  14.095   5.069
87372W        W55777   2.526   0.954   4.099
87373W        W55778  31.682  21.459   0.502
87374W        W55779  20.369  32.790   0.067
87375W        W55780  33.027  44.786   1.538
87376W        W55781   7.713  12.911   0.407
87377W        W55782  38.511  12.290  13.667
87378W        W55783  12.733  34.748  11.395
87379W        W55784   5.291  24.784   0.331
87380W        W55785  13.263  35.423   4.939
87381W        W55786  22.131   1.780  14.770
87382W        W55787  11.099  14.234  12.630
87383W        W55788  40.579  19.155  14.197
87384W        W55789  16.903  11.252  12.973
87385W        W55790  20.853   5.516   1.504
87386W        W55791   9.291  39.937   1.587
87387W        W55792  13.849  32.434  10.667
87388W        W55793  42.954   6.933  13.327
87389W        W55794  11.257   8.647  12.935
87390W        W55795  18.212  16.601   2.501
87391W        W55796  26.263  35.636  13.779
87392W        W55797  26.472  11.913   2.339
87393W        W55798  44.805  13.420   3.404
87394W        W55799  14.259  17.690   2.434
87395W        W55800  22.648  18.488   3.752
87396W        W55801  33.950   4.633   2.730
87397W        W55802  24.559  30.893   4.256
87398W        W55803  15.153  36.640   5.211
87399W        W55804  27.533  16.325   3.141
87400W        W55805  29.080  29.232  12.870
87401W        W55806   9.757  12.428  13.347
87402W        W55807  38.238  26.553  11.957
87403W        W55808  37.968   0.379   2.990
87404W        W55809  34.016  41.484  14.550
87405W        W55810  38.873  28.156   3.634
87406W        W55811  19.737  25.236  13.146
87407W        W55812  28.027  39.290  13.639
87408W        W55813   3.783  41.224  10.716
87409W        W55814   6.262   6.583   3.271
87410W        W55815  21.609   1.841   2.672
87411W        W55816  33.395  25.194   2.802
87412W        W55817  39.616   8.048  12.006
87413W        W55818  14.923  31.998   0.392
87414W        W55819  10.176  40.880   1.729
87415W        W55820  39.492  27.555   1.266
87416W        W55821  33.364   2.747  10.871
87417W        W55822  25.977  40.787  13.051
87418W        W55823  38.680  23.322   9.971
87419W        W55824  26.437  31.673   2.509
87420W        W55825  25.700  16.966   4.120
87421W        W55826  23.996  32.366  14.000
87422W        W55827  41.877  10.719   1.490
87423W        W55828  34.137  10.611  14.570
87424W        W55829  24.106  43.326  13.493
87425W        W55830   5.181  10.238   1.318
87426W        W55831  10.220   6.941   1.705
87427W        W55832  26.598   3.237  11.537
87428W        W55833  44.859  10.748  10.418
87429W        W55834  23.532  28.546   1.836
87430W        W55835  28.018  20.260  12.001
87431W        W55836  33.344  44.894   5.046
87432W        W55837  39.043  32.413  13.912
87433W        W55838   0.853  32.031   4.532
87434W        W55839  22.242   1.686   2.681
87435W        W55840  26.752  39.211   3.700
87436W        W55841  44.010  39.456   3.696
87437W        W55842  42.231   4.145   1.740
87438W        W55843  20.006  41.425  14.046
87439W        W55844  31.867  15.300  12.967
87440W        W55845  33.165  23.242   0.656
87441W        W55846  23.071  31.122  13.386
87442W        W55847   3.723  38.832  10.276
87443W        W55848  24.192   6.382   3.375
87444W        W55849  18.129  28.095  13.289
87445W        W55850  31.205  14.875  12.395
87446W        W55851   6.399   1.443  13.041
87447W        W55852  15.206  14.073   2.178
87448W        W55853  25.183  44.448   3.319
87449W        W55854  19.873   8.316  12.701
87450W        W55855   3.160   3.555   4.604
87451W        W55856  11.237  34.471   0.284
87452W        W55857  25.748  31.014   2.898
87453W        W55858  39.989   3.615   1.286
87454W        W55859  25.731  38.528  13.379
87455W        W55860  44.934  17.519  11.634
87456W        W55861  22.427  38.496  12.069
87457W        W55862   3.408  14.382   2.307
87458W        W55863  31.611  44.483  14.808
87459W        W55864  33.216   6.445   1.431
87460W        W55865  36.258  38.296  12.030
87461W        W55866  13.160  42.872  12.423
87462W        W55867  13.594  40.485  11.117
87463W        W55868   2.351  35.612  11.202
87464W        W55869   9.254  32.183   2.732
87465W        W55870  29.937  30.981   4.177
87466W        W55871  33.855  23.544   0.978
87467W        W55872  43.839  43.375   3.703
87468W        W55873   4.808  42.917  12.777
87469W        W55874  29.445  11.347   0.293
87470W        W55875   9.232  43.422   2.652
87471W        W55876  41.491  36.939   4.037
87472W        W55877  13.832  42.259   0.392
87473W        W55878  24.074  34.633   0.920
87474W        W55879   6.852  21.263   1.646
87475W        W55880  23.524   9.916  12.277
87476W        W55881  35.553  11.406   0.952
87477W        W55882  25.966  39.539  13.247
87478W        W55883  35.257  27.521  13.815
87479W        W55884  18.603  13.698   4.093
87480W        W55885   9.742  15.660  14.308
87481W        W55886  30.152  38.757   0.395
87482W        W55887  17.057  23.457  11.398
87483W        W55888  15.271  33.750  12.848
87484W        W55889  12.111   0.774  11.605
87485W        W55890  21.003  21.728   2.319
87486W        W55891  42.112  20.669   1.155
87487W        W55892  10.635  23.795   0.354
87488W        W55893  35.913  32.234   2.621
87489W        W55894  20.933  30.664  11.944
87490W        W55895  30.000  20.140  11.413
87491W        W55896  34.597  21.826   2.345
87492W        W55897  29.628  44.041   3.741
87493W        W55898  33.624  18.781   2.708
87494W        W55899  20.293  41.029  14.253
87495W        W55900  23.316  31.718  12.405
87496W        W55901  16.665   2.508  12.123
87497W        W55902  30.478  41.563  14.217
87498W        W55903  33.579  20.782  13.002
87499W        W55904  41.834  21.260   1.922
87500W        W55905  36.145  15.076  12.487
87501W        W55906  33.445  20.212  11.622
87502W        W55907  22.191   8.790   4.574
87503W        W55908   6.993  15.923   4.611
87504W        W55909  39.084   6.477  11.493
87505W        W55910  42.054  27.157   1.256
87506W        W55911  35.391  42.555  11.180
87507W        W55912  42.775  36.612   3.707
87508W        W55913   9.425  32.853  12.432
87509W        W55914  28.191  26.141  11.853
87510W        W55915   0.828   4.721   2.718
87511W        W55916  21.548  28.431  11.630
87512W        W55917  37.814  14.898  12.983
87513W        W55918  43.036  38.621  14.058
87514W        W55919  32.805  11.782   4.327
87515W        W55920  28.492  17.020  12.923
87516W        W55921  14.739  13.816  13.122
87517W        W55922   5.396  28.703  13.123
87518W        W55923  36.932   2.474   5.035
87519W        W55924  15.732  15.808  13.140
87520W        W55925   3.823  17.372  10.378
87521W        W55926   5.455  34.725  14.414
87522W        W55927  15.471  20.761  14.671
87523W        W55928  16.956  11.574  12.506
87524W        W55929  37.573  43.617   0.532
87525W        W55930  23.754   9.221  10.703
87526W        W55931  37.973  41.113  11.560
87527W        W55932  11.728  39.922   2.674
87528W        W55933  12.244  44.817   1.302
87529W        W55934  16.831  12.149   1.759
87530W        W55935  40.790  13.180   2.606
87531W        W55936  31.767   1.689  10.115
87532W        W55937  33.859  19.132  11.731
87533W        W55938  18.195  39.998   3.911
87534W        W55939   9.365  29.044   3.164
87535W        W55940  22.836  21.164   2.799
87536W        W55941   2.269   8.368  14.771
87537W        W55942  16.244   2.789   1.695
87538W        W55943   7.090  36.602  11.558
87539W        W55944  32.966  22.452  14.903
87540W        W55945  26.599  17.636  12.129
87541W        W55946   3.515   7.586  12.362
87542W        W55947  13.203   8.184   3.223
87543W        W55948  22.918  36.781  11.865
87544W        W55949  14.745   3.387   0.215
87545W        W55950  17.603  43.833  12.129
87546W        W55951  38.024   9.285   2.241
87547W        W55952  28.049  23.005   1.592
87548W        W55953   1.467   0.703  11.126
87549W        W55954   0.723  32.765  12.891
87550W        W55955  17.685  34.384   4.677
87551W        W55956  37.328  13.192   2.948
87552W        W55957  27.974  30.347   3.952
87553W        W55958  18.673  10.128  11.074
87554W        W55959  24.155  23.768  10.718
87555W        W55960  17.361  40.269  10.157
87556W        W55961  30.554  40.918  13.042
87557W        W55962   4.913  39.067  14.945
87558W        W55963   3.303  16.102  12.563
87559W        W55964  36.395  40.033   4.225
87560W        W55965  31.474  30.345   4.940
87561W        W55966  36.891  16.296   0.349
87562W        W55967  44.918   2.393  12.963
87563W        W55968   7.854   0.896  13.946
87564W        W55969  10.830  19.700  14.434
87565W        W55970   9.211  40.804  11.600
87566W        W55971  20.543  36.631  13.928
87567W        W55972  10.626  37.371  12.816
87568W        W55973  24.641  42.772  12.593
87569W        W55974  44.126  31.317   4.780
87570W        W55975  25.499  27.383   2.399
87571W        W55976   0.357  30.161   2.458
87572W        W55977  30.976  17.558  10.560
87573W        W55978  20.973  22.677  12.961
87574W        W55979   7.706  30.297   4.550
87575W        W55980  36.270  14.640  10.773
87576W        W55981  20.603  26.348  11.934
87577W        W55982  28.753   0.962  12.708
87578W        W55983  10.427  30.247   3.334
87579W        W55984  42.066   0.944   3.652
87580W        W55985  21.044  19.980   3.730
87581W        W55986  27.513  28.943   2.684
87582W        W55987  13.619  27.756  11.203
87583W        W55988  33.379  21.889   0.723
87584W        W55989  19.560  10.737   3.828
87585W        W55990  15.662  19.185   4.400
87586W        W55991   9.626  25.942   4.194
87587W        W55992  35.543  17.524   0.501
87588W        W55993   6.541  33.558   1.910
87589W        W55994  36.960   2.725  11.048
87590W        W55995  43.781  21.511   4.025
87591W        W55996  14.365   9.281   9.908
87592W        W55997  33.651  31.326   4.117
87593W        W55998  38.842  40.322   1.458
87594W        W55999  24.175  42.444   1.008
87595W        W56000  35.138   7.174  12.566
87596W        W56001   1.504  15.165  10.695
87597W        W56002   0.280  44.270   3.626
87598W        W56003  23.219  21.072  11.620
87599W        W56004  32.621  31.842   0.304
87600W        W56005  20.328   1.717  11.703
87601W        W56006   9.762  40.753   4.164
87602W        W56007  32.607  30.257   2.349
87603W        W56008  22.716  31.903   0.712
87604W        W56009  15.618  32.454   3.696
87605W        W56010  44.950  19.725   4.416
87606W        W56011  17.788  29.607   1.771
87607W        W56012  21.438   8.581   4.162
87608W        W56013  41.318  33.510  14.212
87609W        W56014  30.991   5.944   0.337
87610W        W56015   2.504   2.856  11.876
87611W        W56016  22.980  42.465  11.660
87612W        W56017  19.558  18.772   4.142
87613W        W56018   1.282   5.111  13.965
87614W        W56019   9.662   2.076   3.810
87615W        W56020  10.243  30.271   0.344
87616W        W56021  36.829  11.810   0.841
87617W        W56022  16.112  22.611  10.854
87618W        W56023  40.776  27.136   2.704
87619W        W56024  23.843   9.080  11.786
87620W        W56025  44.740  12.393   4.372
87621W        W56026  16.358   7.478  12.975
87622W        W56027  25.731  17.068   3.181
87623W        W56028   9.107  34.156  14.710
87624W        W56029  13.704  43.181  11.452
87625W        W56030  13.507  28.924  13.837
87626W        W56031  27.061   0.960  12.523
87627W        W56032  22.433  15.808  14.130
87628W        W56033  27.936  16.084  13.838
87629W        W56034  38.355  19.659  13.065
87630W        W56035  41.847  29.996  12.536
87631W        W56036   8.845  33.560   3.057
87632W        W56037  26.906  17.206   0.793
87633W        W56038  21.426  13.601  11.227
87634W        W56039  21.009  40.924  10.974
87635W        W56040  33.037  36.365   2.386
87636W        W56041  43.734  39.427  13.062
87637W        W56042  17.210  15.473  12.502
87638W        W56043  14.083  26.579   4.545
87639W        W56044  13.331  18.544  12.236
87640W        W56045  17.972  26.470   4.519
87641W        W56046   4.792  31.604   2.369
87642W        W56047   4.753  35.796   0.644
87643W        W56048  42.129   7.529   4.988
87644W        W56049  18.565   7.992  13.348
87645W        W56050  11.869  23.679  11.286
87646W        W56051  23.107  44.001  12.419
87647W        W56052  39.598  26.538  11.693
87648W        W56053  19.806   0.748   3.250
87649W        W56054  34.844   9.218   3.816
87650W        W56055  13.746  12.089  14.322
87651W        W56056  26.192  11.368  11.185
87652W        W56057  38.989   6.705   3.205
87653W        W56058   0.423  17.057   0.873
87654W        W56059  25.717  32.976   2.791
87655W        W56060  19.057  24.657   5.204
87656W        W56061  38.090  41.996   0.734
87657W        W56062  24.871  23.362  12.003
87658W        W56063  28.027   0.073   2.264
87659W        W56064  22.966  42.229   3.176
87660W        W56065  23.500  24.603   2.222
87661W        W56066  19.650   6.384  11.026
87662W        W56067   2.243  20.295  14.579
87663W        W56068  28.970  12.040   1.203
87664W        W56069  39.544  37.029   4.585
87665W        W56070  13.129  19.709  10.312
87666W        W56071   6.254   5.691   2.288
87667W        W56072  11.896  41.252   0.459
87668W        W56073   6.668  26.636   2.757
87669W        W56074   6.243  41.365  11.669
87670W        W56075  13.837  36.397  10.751
87671W        W56076   2.981  38.738  13.550
87672W        W56077  44.998  17.807  13.064
87673W        W56078   6.333  17.848  12.060
87674W        W56079   2.251  10.014  10.994
87675W        W56080   5.739  36.420   0.474
87676W        W56081  31.137  40.769  12.378
87677W        W56082  28.951  14.003   4.609
87678W        W56083  20.256  15.507   0.761
87679W        W56084  16.885  32.023   0.819
87680W        W56085  26.157   0.246   2.084
87681W        W56086  13.308  22.028  12.214
87682W        W56087   7.022  22.222   4.089
87683W        W56088   1.539  12.825   0.642
87684W        W56089  38.528  31.913   3.397
87685W        W56090  12.700  21.538   3.514
87686W        W56091  12.376  41.933  12.569
87687W        W56092  11.163  21.622   3.341
87688W        W56093  41.343  16.138  10.412
87689W        W56094  15.286   7.696   1.838
87690W        W56095  23.964  15.175  14.913
87691W        W56096   5.748  28.892   2.751
87692W        W56097  13.723  28.595   1.782
87693W        W56098  22.060  18.038  13.965
87694W        W56099  27.638  43.909  10.614
87695W        W56100  30.182  26.650   3.640
87696W        W56101  34.035  40.240   1.473
87697W        W56102  31.911  32.615   1.376
87698W        W56103  26.458  44.917  11.793
87699W        W56104  13.161  25.420   0.800
87700W        W56105  15.686   7.848   4.011
87701W        W56106  15.126  19.965   1.760
87702W        W56107   4.180   9.783  13.024
87703W        W56108  15.001  17.818  12.535
87704W        W56109  42.239  21.836   4.076
87705W        W56110   6.360  37.682   0.846
87706W        W56111  13.413  41.616  11.980
87707W        W56112  38.409   3.408   2.315
87708W        W56113  34.344  25.700  13.428
87709W        W56114  41.264   1.443  12.806
87710W        W56115   3.407   8.626  13.983
87711W        W56116  29.724  25.690   2.712
87712W        W56117  39.339   2.277  12.545
87713W        W56118   8.125  15.275   2.246
87714W        W56119  32.025  40.474   0.393
87715W        W56120  19.319  26.054   4.660
87716W        W56121  18.124  19.343   1.216
87717W        W56122  13.889  19.854   3.269
87718W        W56123   2.756  16.107  11.628
87719W        W56124  27.959   2.350  12.159
87720W        W56125  31.381  37.552   4.218
87721W        W56126   4.233   0.561  14.509
87722W        W56127  22.943  20.747   3.263
87723W        W56128   5.612   0.096  12.096
87724W        W56129  31.073  16.871  13.552
87725W        W56130   2.161  30.275   1.716
87726W        W56131  13.721  37.574   2.727
87727W        W56132   9.344  14.267   2.121
87728W        W56133  12.994   4.828   3.227
87729W        W56134   5.742  13.398   2.024
87730W        W56135  10.322  31.457  14.057
87731W        W56136  43.677  32.453  12.382
87732W        W56137  21.620  18.017   2.218
87733W        W56138  39.888   3.036   4.419
87734W        W56139   8.224  17.234   3.749
87735W        W56140  14.739  23.560  13.862
87736W        W56141  18.961  19.875   0.876
87737W        W56142   3.978   8.314  14.739
87738W        W56143   8.445   6.604  12.034
87739W        W56144   4.853  29.773   1.367
87740W        W56145   4.876   9.475   3.768
87741W        W56146   2.302  40.995  14.348
87742W        W56147  26.662   6.529   1.281
87743W        W56148  17.340  31.035  10.592
87744W        W56149  44.207  34.311  14.366
87745W        W56150   1.067  38.982   0.567
87746W        W56151  15.694  44.549  13.157
87747W        W56152  11.741  37.547   4.431
87748W        W56153  40.260   8.610  14.024
87749W        W56154   3.531   4.907  11.682
87750W        W56155  14.496  23.124  13.119
87751W        W56156  32.510  32.518  12.319
87752W        W56157   5.017  18.282   3.008
87753W        W56158  16.299  31.366   4.339
87754W        W56159  29.560  25.085   4.130
87755W        W56160  40.908  34.185  13.364
87756W        W56161   1.480  22.255  11.513
87757W        W56162  13.205  31.975   4.642
87758W        W56163  42.506  20.162  11.130
87759W        W56164   2.784  43.295  12.614
87760W        W56165  27.543  16.631   3.691
87761W        W56166  14.305  23.953   3.536
87762W        W56167  12.456  21.571   3.004
87763W        W56168  28.987  14.630  13.731
87764W        W56169   8.562  16.292  14.626
87765W        W56170  26.603  19.789   2.235
87766W        W56171  13.552  24.751   2.087
87767W        W56172   1.875   2.991  11.620
87768W        W56173   3.975  23.643   1.355
87769W        W56174  17.319   0.788   3.203
87770W        W56175   6.135  19.372   1.711
87771W        W56176  23.245  28.368   2.249
87772W        W56177  42.293   2.763  12.136
87773W        W56178  12.211   8.647   0.343
87774W        W56179  22.791  26.219   3.142
87775W        W56180  21.751  21.035  14.488
87776W        W56181  40.077  18.276  12.859
87777W        W56182  41.444  18.375   2.034
87778W        W56183  17.339  36.278   4.442
87779W        W56184  10.616  25.103   3.625
87780W        W56185  12.753  21.222   3.929
87781W        W56186  34.444  17.162  14.515
87782W        W56187  21.114  23.713   4.327
87783W        W56188  14.553  44.722   2.642
87784W        W56189   7.083  16.740  14.376
87785W        W56190   0.961  33.916   0.666
87786W        W56191  32.524  39.547   0.418
87787W        W56192  33.507   0.325  11.829
87788W        W56193  17.231  26.698  13.862
87789W        W56194  31.611  16.643   1.303
87790W        W56195  26.236   5.811   0.431
87791W        W56196  16.295  19.223   2.843
87792W        W56197  11.874   5.534   4.713
87793W        W56198   4.437  30.030  10.869
87794W        W56199   6.398  31.389  10.341
87795W        W56200  16.287  14.387   5.307
87796W        W56201   3.964  43.330   0.792
87797W        W56202   6.727  10.271  11.012
87798W        W56203  16.744   2.261  14.925
87799W        W56204   8.974  44.396   4.097
87800W        W56205  38.795  22.453  11.163
87801W        W56206  13.148   3.003  10.220
87802W        W56207  14.188  44.617   0.359
87803W        W56208  44.165  44.496  13.060
87804W        W56209  30.727  39.262  11.575
87805W        W56210  39.813   8.718   3.673
87806W        W56211  39.998  40.880   0.305
87807W        W56212  33.854  20.376   0.306
87808W        W56213  41.592  27.097   2.370
87809W        W56214  39.468   0.982  12.123
87810W        W56215  11.492  27.499   2.660
87811W        W56216   7.870   6.016  12.644
87812W        W56217  30.619  17.764  12.752
87813W        W56218   8.866  13.699  12.069
87814W        W56219  32.110  38.879  13.860
87815W        W56220  15.519  21.192  12.818
87816W        W56221  41.062  25.731  13.914
87817W        W56222  38.303  28.646   3.636
87818W        W56223  34.669   2.983  10.757
87819W        W56224  39.110  11.973  13.075
87820W        W56225  24.708  18.601  10.581
87821W        W56226  10.077  13.404   1.770
87822W        W56227  24.714  36.088  11.052
87823W        W56228  23.550  13.878  13.955
87824W        W56229  25.939  19.424  13.901
87825W        W56230  13.364   1.877  10.678
87826W        W56231  10.745  20.260  12.463
87827W        W56232  30.137  28.436  11.921
87828W        W56233  20.245   7.740   5.096
87829W        W56234  38.902  21.608  10.118
87830W        W56235  28.143   5.692   3.779
87831W        W56236  19.733  14.533  10.353
87832W        W56237  15.368   6.407   2.230
87833W        W56238  28.313  24.681   3.341
87834W        W56239   2.516  15.705  12.472
87835W        W56240  44.928  19.072   1.797
87836W        W56241  36.370  16.115   1.230
87837W        W56242  31.384   5.556   3.638
87838W        W56243  11.700  19.572   1.453
87839W        W56244  17.052  13.552   2.994
87840W        W56245  10.673   4.586   0.891
87841W        W56246  10.586   9.755  10.551
87842W        W56247  33.105  28.530   4.195
87843W        W56248  24.564  33.900   1.431
87844W        W56249   2.307  11.850   1.003
87845W        W56250  30.961  27.694   4.652
87846W        W56251  25.003   4.227   0.593
87847W        W56252  12.789  24.006   4.626
87848W        W56253  26.454  38.330  11.947
87849W        W56254  42.873  42.181  13.533
87850W        W56255   8.139  42.809  12.181
87851W        W56256  42.363  41.156  14.975
87852W        W56257   4.943   7.206  11.136
87853W        W56258  18.769  30.160   0.133
87854W        W56259   6.675  28.814  12.627
87855W        W56260  34.994  17.535  12.436
87856W        W56261  11.758  33.380   2.266
87857W        W56262  38.961  37.578  11.211
87858W        W56263   2.868  21.677   1.388
87859W        W56264   3.924  36.144  10.710
87860W        W56265   1.727  12.046  13.750
87861W        W56266  19.064  43.383  11.591
87862W        W56267  23.450   7.362   3.802
87863W        W56268  21.508   9.267  14.093
87864W        W56269  41.261   6.974   1.235
87865W        W56270  42.046   7.259   1.430
87866W        W56271  43.266  41.116   0.743
87867W        W56272  20.283  24.424   0.876
87868W        W56273  38.479   0.335  11.788
87869W        W56274  23.490  16.704  14.903
87870W        W56275   0.923   9.026  11.368
87871W        W56276  39.527  38.294  11.884
87872W        W56277  25.161  19.343  11.899
87873W        W56278  20.253  19.993   1.308
87874W        W56279  41.374  30.067   2.649
87875W        W56280   3.069   3.731   4.068
87876W        W56281  12.604  33.355   2.120
87877W        W56282  35.052  17.759   4.780
87878W        W56283  20.704   9.865   4.024
87879W        W56284  22.654  28.040   4.561
87880W        W56285   3.954  32.909  14.442
87881W        W56286  34.128  12.041  10.948
87882W        W56287  21.140   7.850  13.949
87883W        W56288  13.173   5.864   2.707
87884W        W56289   5.247   7.971   9.597
87885W        W56290  11.613  42.942  12.584
87886W        W56291  17.651  37.324   2.331
87887W        W56292  26.223  22.909  13.426
87888W        W56293  23.192   7.780   0.266
87889W        W56294   4.942  17.681  14.383
87890W        W56295  33.078  24.533   1.338
87891W        W56296  35.820  22.118  13.384
87892W        W56297  40.820  36.223  12.657
87893W        W56298  34.077   7.344  12.353
87894W        W56299  20.769  41.971   3.346
87895W        W56300  32.667  37.339   3.190
87896W        W56301  41.992  15.725   1.681
87897W        W56302  37.993  23.563   0.669
87898W        W56303  36.668   5.187   3.140
87899W        W56304  10.836  32.059  12.150
87900W        W56305   2.062  42.680   4.944
87901W        W56306  18.617  28.998  13.790
87902W        W56307  33.466  26.991  13.799
87903W        W56308  39.916  23.920   0.369
87904W        W56309  44.983  43.225   3.143
87905W        W56310  18.605   4.645   3.593
87906W        W56311  21.253  22.146  12.173
87907W        W56312   4.127  34.689  14.295
87908W        W56313   2.321  15.445  14.226
87909W        W56314  41.017  38.114   3.608
87910W        W56315  34.513  25.089   0.461
87911W        W56316  35.530  34.430  11.015
87912W        W56317  28.054   0.995   2.267
87913W        W56318  24.256  39.260   2.730
87914W        W56319  37.698  33.072  11.260
87915W        W56320  33.583  21.133  12.083
87916W        W56321  35.842  30.644   3.142
87917W        W56322  15.376  26.297  14.895
87918W        W56323   3.900  23.716   3.189
87919W        W56324  39.588  13.884  12.106
87920W        W56325  35.622  16.243  14.931
87921W        W56326  12.270  21.481   0.413
87922W        W56327  15.710   3.913  11.528
87923W        W56328  17.072   3.480  12.859
87924W        W56329  17.240  21.269   4.694
87925W        W56330  31.904  19.551  11.095
87926W        W56331  16.450   1.927  13.104
87927W        W56332  25.551  17.247  11.887
87928W        W56333  30.845  21.466   2.210
87929W        W56334  12.384  20.239   0.698
87930W        W56335   3.850  23.255  13.912
87931W        W56336  42.786  13.399  13.973
87932W        W56337  30.038  41.746  14.907
87933W        W56338   8.818   9.747  13.553
87934W        W56339  36.415   7.711   4.002
87935W        W56340  19.382  27.786  13.070
87936W        W56341  20.656  41.028  12.459
87937W        W56342  22.059  31.678  12.036
87938W        W56343  15.197  18.314  11.637
87939W        W56344  21.755  15.448  13.584
87940W        W56345  44.860   8.377  11.700
87941W        W56346   4.704  12.229  12.412
87942W        W56347  14.635   0.232   2.703
87943W        W56348  41.325  33.573   2.637
87944W        W56349  31.933   6.936   0.548
87945W        W56350   8.263  38.925  14.349
87946W        W56351  24.628  21.687  12.479
87947W        W56352   2.956  21.409  14.843
87948W        W56353  23.619   5.261   0.429
87949W        W56354  41.007  21.336  14.371
87950W        W56355  14.545  30.256   1.055
87951W        W56356  26.096   9.446  14.834
87952W        W56357  38.476  39.861  12.882
87953W        W56358  25.565  18.008   4.123
87954W        W56359  26.738  22.846   3.710
87955W        W56360  35.964  35.358  14.930
87956W        W56361  30.911  25.656   0.380
87957W        W56362  23.001  33.960   1.300
87958W        W56363  22.508   5.717  14.136
87959W        W56364  14.724   5.172  10.022
87960W        W56365  35.982  43.042  13.081
87961W        W56366  10.426  36.511   1.259
87962W        W56367  34.294  39.548  14.877
87963W        W56368   7.667  21.525   4.051
87964W        W56369  15.747  18.957   1.311
87965W        W56370  39.479  34.383   3.697
87966W        W56371   9.096   7.896   0.962
87967W        W56372  21.696   3.431   3.999
87968W        W56373  15.168  19.074  12.980
87969W        W56374  12.638  38.318   1.450
87970W        W56375  21.788  40.398  14.724
87971W        W56376  14.320  43.369  10.830
87972W        W56377   1.893  42.248   2.633
87973W        W56378  21.505  15.793   4.614
87974W        W56379  36.237  40.102   0.291
87975W        W56380  30.163   7.065   3.346
87976W        W56381  35.635  23.655   2.358
87977W        W56382  35.822   9.662  10.756
87978W        W56383  13.277   9.733   1.259
87979W        W56384  14.074  37.976   0.354
87980W        W56385  11.354  12.320   4.580
87981W        W56386  44.848  34.317  13.188
87982W        W56387  43.927  21.729   1.907
87983W        W56388  38.568   7.665   4.618
87984W        W56389  30.129   8.783  11.941
87985W        W56390   7.492   7.976  11.213
87986W        W56391  20.122  25.116   3.287
87987W        W56392  14.376  17.572   3.942
87988W        W56393   9.482  24.016   1.362
87989W        W56394  41.557   2.714   3.404
87990W        W56395  14.547  29.563  13.029
87991W        W56396  12.317   8.691   3.391
87992W        W56397  26.116  33.497   3.825
87993W        W56398  27.238  36.978   1.915
87994W        W56399  38.484   1.417   1.232
87995W        W56400  39.195  36.271  12.946
87996W        W56401   8.138  30.332   0.824
87997W        W56402   8.220  22.869  11.685
87998W        W56403  35.847  25.072  14.902
87999W        W56404  44.866  16.220   4.122
88000W        W56405  13.967  10.751   3.476
88001W        W56406  33.393  27.632   1.364
88002W        W56407  18.951  16.211   2.164
88003W        W56408  30.499  20.528  12.154
88004W        W56409  34.878  20.673   4.705
88005W        W56410  30.494  25.823  11.610
88006W        W56411  19.546  27.206  11.493
88007W        W56412  34.088   8.201   2.603
88008W        W56413  44.752  41.505  14.894
88009W        W56414  38.547  42.102  11.511
88010W        W56415  23.367  38.542   0.682
88011W        W56416  29.005  15.694   1.482
88012W        W56417  25.168  39.323   2.799
88013W        W56418  18.660  33.130  14.419
88014W        W56419  23.784  24.091   3.254
88015W        W56420  41.232  43.580  12.911
88016W        W56421  15.090  35.977  12.128
88017W        W56422  21.965  35.571  11.619
88018W        W56423  25.217  14.322  12.010
88019W        W56424  32.451  38.999  10.287
88020W        W56425  30.407  25.230   1.787
88021W        W56426  22.010  27.783   3.442
88022W        W56427  29.413  38.670  12.561
88023W        W56428  17.318  39.522   4.906
88024W        W56429   6.273   4.141   2.189
88025W        W56430  12.762   9.716   1.399
88026W        W56431  43.606  26.798  13.980
88027W        W56432  25.480  33.893   3.307
88028W        W56433  44.718   0.786   2.897
88029W        W56434   0.322  43.320  12.110
88030W        W56435  38.491  12.158  11.459
88031W        W56436  40.002  36.893  13.349
88032W        W56437  32.136  38.285   0.725
88033W        W56438  32.448  36.948   0.929
88034W        W56439   5.102  31.573  14.259
88035W        W56440  34.383  27.632   1.903
88036W        W56441  43.499  13.254  14.349
88037W        W56442  41.926  40.055   0.123
88038W        W56443  24.509  37.909   0.688
88039W        W56444  34.971  27.905  12.017
88040W        W56445  16.421  44.284  11.152
88041W        W56446   8.247   4.794  14.806
88042W        W56447   9.417  36.216  11.171
88043W        W56448  41.393  44.316   4.645
88044W        W56449   4.974  33.167  13.864
88045W        W56450  34.198  35.072   1.271
88046W        W56451  14.371  10.465  13.373
88047W        W56452  22.927   1.392   3.875
88048W        W56453  43.996  38.837  13.846
88049W        W56454   7.820  36.014   3.269
88050W        W56455   7.874  13.607   4.441
88051W        W56456  27.886  35.676   2.686
88052W        W56457   6.427  39.967  13.546
88053W        W56458   6.791   9.135   1.559
88054W        W56459  11.719  22.685   4.517
88055W        W56460  18.399  40.035   4.921
88056W        W56461  35.393   6.627   3.111
88057W        W56462   9.342  21.556   0.753
88058W        W56463   7.335   9.176   3.946
88059W        W56464  26.484  39.341  10.346
88060W        W56465   4.721   8.804   0.786
88061W        W56466  41.927  36.056   4.547
88062W        W56467  16.528  43.497   4.157
88063W        W56468   4.685  14.340  11.072
88064W        W56469  26.683  24.098   1.477
88065W        W56470  42.541  33.563   2.359
88066W        W56471  21.965  18.168   1.756
88067W        W56472   9.839  21.968   4.564
88068W        W56473  16.380   5.157   2.265
88069W        W56474  15.776   0.051  13.274
88070W        W56475  29.681  26.819  14.858
88071W        W56476  34.576   9.435  13.571
88072W        W56477  34.174  31.727  11.123
88073W        W56478  14.731  37.639  14.507
88074W        W56479  36.795  12.863  12.018
88075W        W56480  39.420  16.749  12.579
88076W        W56481   1.804  18.598  12.317
88077W        W56482  36.466   6.166   2.897
88078W        W56483  43.009  25.238   2.674
88079W        W56484  29.167  32.474  14.804
88080W        W56485  14.320  10.899   2.620
88081W        W56486   5.899  34.548   0.370
88082W        W56487  10.174  24.315   0.871
88083W        W56488  21.631  34.446  13.858
88084W        W56489  25.216  37.996  12.890
88085W        W56490  42.891   2.304   0.741
88086W        W56491   4.202   2.717   4.655
88087W        W56492  26.050  41.430   4.156
88088W        W56493  12.692  36.060   2.946
88089W        W56494  25.400  34.376  11.578
88090W        W56495  22.312   4.432  12.759
88091W        W56496  29.207  27.675  13.125
88092W        W56497   2.066  11.225   2.414
88093W        W56498   7.266  13.107  11.666
88094W        W56499  37.984  41.038   2.775
88095W        W56500  16.827  38.357   4.093
88096W        W56501   9.209  21.890   3.959
88097W        W56502  43.987   9.144   3.172
88098W        W56503  22.620  35.174  10.714
88099W        W56504  29.488  44.285   1.461
88100W        W56505  19.220  37.853   2.842
88101W        W56506   9.655  14.827  14.887
88102W        W56507  22.754  18.685   4.215
88103W        W56508  29.662  11.425  13.464
88104W        W56509  26.596  16.669  14.881
88105W        W56510  17.237   1.008  11.188
88106W        W56511   0.478  34.532   2.118
88107W        W56512  21.736  44.502   1.650
88108W        W56513  44.323   6.422  11.053
88109W        W56514  38.059   9.668   1.875
88110W        W56515  36.929  26.480  14.264
88111W        W56516  37.354  18.826   2.190
88112W        W56517   4.762  33.810  13.362
88113W        W56518  30.734  43.760   3.151
88114W        W56519  32.046  42.123  12.296
88115W        W56520   4.649   7.955   1.237
88116W        W56521  32.526  43.328   0.787
88117W        W56522  20.047  44.977   3.887
88118W        W56523  11.041  37.738  11.201
88119W        W56524  36.951  10.505   4.051
88120W        W56525  27.962   3.537   1.171
88121W        W56526  17.686  23.721   0.611
88122W        W56527   6.165   8.676  14.392
88123W        W56528  28.511  44.936   4.939
88124W        W56529  21.853  24.590  14.325
88125W        W56530  43.732  39.285  10.642
88126W        W56531  34.324   7.330  11.216
88127W        W56532  22.386  23.431   2.367
88128W        W56533  37.262  37.388   2.632
88129W        W56534  35.433   7.183   3.120
88130W        W56535  16.069  10.543  14.123
88131W        W56536  40.298  16.329  14.411
88132W        W56537  26.617  22.972  10.481
88133W        W56538   1.759  21.202   1.626
88134W        W56539  25.218  44.463  10.772
88135W        W56540  31.037   4.341  10.808
88136W        W56541  17.448  35.010  11.956
88137W        W56542  42.437  42.442  11.987
88138W        W56543   6.640  12.674  12.991
88139W        W56544  37.505   4.970   0.090
88140W        W56545  35.355  34.049  13.495
88141W        W56546  44.903  44.547  14.779
88142W        W56547  11.519  31.314  14.782
88143W        W56548  29.642  11.081  14.451
88144W        W56549  29.622  43.520   3.707
88145W        W56550  44.555  43.282   0.090
88146W        W56551   6.973  13.900  11.172
88147W        W56552  11.984  21.443   3.964
88148W        W56553  39.328  29.583  11.045
88149W        W56554  43.166   5.016  14.998
88150W        W56555  12.550  26.250  10.712
88151W        W56556  35.628  11.314   3.630
88152W        W56557  36.280   2.009   2.764
88153W        W56558  42.260   0.989  12.122
88154W        W56559  40.160  36.446   1.166
88155W        W56560  31.468  29.941  10.831
88156W        W56561  40.477  43.305   2.881
88157W        W56562  22.745   0.582   1.702
88158W        W56563  14.405  16.983  13.998
88159W        W56564   8.392   3.131   3.183
88160W        W56565  32.128  27.482   3.301
88161W        W56566  35.457  25.123  12.087
88162W        W56567  42.768  19.157   4.986
88163W        W56568  14.610  20.749   3.759
88164W        W56569  17.193  44.696  11.534
88165W        W56570  21.711  30.814   2.993
88166W        W56571  32.846   6.817   1.339
88167W        W56572  34.942  12.540  11.227
88168W        W56573  35.438  40.242  10.497
88169W        W56574  42.905  17.995   3.221
88170W        W56575   9.416  34.058  14.306
88171W        W56576  22.430  31.953   1.149
88172W        W56577   5.278  32.444  12.392
88173W        W56578  25.644   2.795   2.335
88174W        W56579  12.291   8.203   1.116
88175W        W56580   6.269  14.967   0.694
88176W        W56581  40.523  16.613   0.288
88177W        W56582   2.874   0.927  14.010
88178W        W56583   5.641   5.290  13.021
88179W        W56584  41.767  39.328  13.688
88180W        W56585  15.368  13.252  10.483
88181W        W56586  42.209  12.476   5.240
88182W        W56587  21.947   2.650   2.851
88183W        W56588  13.152  25.903   1.502
88184W        W56589  35.997  42.015  13.385
88185W        W56590  10.372  26.947   3.018
88186W        W56591  36.776  23.919  12.175
88187W        W56592  11.862  22.560  10.712
88188W        W56593  43.854   0.950  10.681
88189W        W56594  11.256  36.104   4.940
88190W        W56595   0.426  27.217   4.140
88191W        W56596   4.360  43.023   3.324
88192W        W56597  27.208   7.609   4.906
88193W        W56598  13.587  41.856   2.326
88194W        W56599  28.660  13.115  11.147
88195W        W56600   9.127   8.176  12.240
88196W        W56601  28.567  13.382   1.389
88197W        W56602   4.286   1.660   1.345
88198W        W56603  21.849  36.085   4.220
88199W        W56604  38.070  22.325   3.710
88200W        W56605  20.961   9.128   3.644
88201W        W56606  15.632  20.750  10.687
88202W        W56607   8.301  42.485   0.725
88203W        W56608  12.823  14.149   3.199
88204W        W56609  12.134  10.788   0.565
88205W        W56610  38.161  40.813   3.317
88206W        W56611  29.437   0.367   1.328
88207W        W56612  23.336   2.766  12.154
88208W        W56613  33.324  40.513  12.043
88209W        W56614  22.670  16.621   2.420
88210W        W56615  10.769  32.797  12.877
88211W        W56616  21.003  23.088  10.419
88212W        W56617  35.305   2.729  12.532
88213W        W56618  21.041  18.286   1.223
88214W        W56619  13.739  29.232  11.617
88215W        W56620  43.420  43.285  13.887
88216W        W56621  44.702  23.347   4.483
88217W        W56622  42.497  34.757  13.035
88218W        W56623  19.031  43.434  12.501
88219W        W56624  17.671  20.797  10.297
88220W        W56625   6.761  42.988   4.053
88221W        W56626  39.442   6.600  10.581
88222W        W56627  20.703  41.856   0.996
88223W        W56628  35.673  39.771   0.255
88224W        W56629  19.778  35.563   4.141
88225W        W56630   7.713  24.520   3.847
88226W        W56631  33.142   7.225   0.777
88227W        W56632  33.444  14.085   3.334
88228W        W56633   1.492   9.284   0.387
88229W        W56634  19.226   4.988   4.870
88230W        W56635  12.764  25.568  14.866
88231W        W56636  30.474  34.150  10.751
88232W        W56637   8.555  39.045   1.731
88233W        W56638  34.494  27.087  10.766
88234W        W56639  20.894  38.711   1.683
88235W        W56640  34.558   8.996   1.340
88236W        W56641  31.475  11.189  14.687
88237W        W56642  41.077   2.411   2.289
88238W        W56643  12.675  34.526  10.938
88239W        W56644  14.778  26.548  11.128
88240W        W56645  32.647  43.779   4.300
88241W        W56646  30.847  39.809   3.664
88242W        W56647  14.105   5.038  11.332
88243W        W56648   7.613  28.481  11.961
88244W        W56649  21.118  11.264   3.311
88245W        W56650   7.617  19.612  13.000
88246W        W56651  39.785  32.603  14.486
88247W        W56652  37.200  30.061  10.586
88248W        W56653  27.566   1.312  14.074
88249W        W56654  17.191   3.038   1.197
88250W        W56655   7.180  29.665  13.281
88251W        W56656   3.214  23.789  12.974
88252W        W56657   1.995   5.360   2.541
88253W        W56658  41.553   4.349   2.301
88254W        W56659  24.110  23.782   1.170
88255W        W56660  31.172  38.835   4.643
88256W        W56661  42.947  23.943  14.437
88257W        W56662  22.048  20.989   2.130
88258W        W56663  43.678  39.285   0.620
88259W        W56664  22.877  14.368   2.693
88260W        W56665  13.399   3.209  11.661
88261W        W56666  23.262  23.479  14.610
88262W        W56667  27.052   5.248  13.854
88263W        W56668  24.147  15.375   2.105
88264W        W56669  24.883  19.593   2.453
88265W        W56670  39.646  34.528   1.399
88266W        W56671  37.051  34.591   3.778
88267W        W56672  31.944  42.137   2.263
88268W        W56673  28.218  25.677  10.209
88269W        W56674  30.414  28.257   2.174
88270W        W56675  44.260   9.406  11.652
88271W        W56676  20.530   2.252  12.858
88272W        W56677  41.975   3.583   4.659
88273W        W56678   5.177  24.941   2.064
88274W        W56679   6.404  19.751   1.452
88275W        W56680  35.885  33.909  11.548
88276W        W56681  43.830  25.643   4.610
88277W        W56682  29.910  27.419  11.031
88278W        W56683  33.570  20.681  14.502
88279W        W56684  32.786  14.399   1.455
88280W        W56685   8.748  44.834   2.706
88281W        W56686   0.916  35.422   1.742
88282W        W56687  43.022   7.378   4.309
88283W        W56688  18.757   0.186  12.629
88284W        W56689  20.680  18.731  13.047
88285W        W56690  30.048  36.781  10.965
88286W        W56691  30.248   6.451   0.493
88287W        W56692  35.156  10.997  12.057
88288W        W56693  42.548  33.116  12.742
88289W        W56694   5.907   6.356  12.444
88290W        W56695  37.428  28.268   0.638
88291W        W56696  41.885  29.010   0.237
88292W        W56697  43.242  36.437   3.815
88293W        W56698   5.508   1.438  14.480
88294W        W56699   8.150  12.237   0.702
88295W        W56700  35.004  20.002  14.016
88296W        W56701  39.805   2.535  12.454
88297W        W56702  35.279  36.621  13.886
88298W        W56703  21.059   0.424  12.778
88299W        W56704  12.620  38.948  14.312
88300W        W56705   9.096  24.593  11.590
88301W        W56706  38.000  20.550   1.993
88302W        W56707  23.548   4.238   1.919
88303W        W56708  21.227  40.025   2.724
88304W        W56709  29.947  23.678  11.583
88305W        W56710  24.446  33.016   1.268
88306W        W56711  40.337   2.704  13.362
88307W        W56712  38.853  15.079   3.850
88308W        W56713  34.586  14.228   1.744
88309W        W56714  37.900  39.312  11.073
88310W        W56715  41.842  34.858   0.740
88311W        W56716  32.521  29.954   1.896
88312W        W56717   1.846  35.994   1.842
88313W        W56718  10.939  40.772   4.447
88314W        W56719  31.654   4.680  14.964
88315W        W56720  43.227  20.614   4.901
88316W        W56721  24.725   0.418  13.973
88317W        W56722  42.441  42.511  13.497
88318W        W56723  33.830  32.092   3.298
88319W        W56724  43.432  26.395   5.055
88320W        W56725  18.700  15.735  14.257
88321W        W56726  26.164  25.226  12.470
88322W        W56727   8.522  27.444   5.282
88323W        W56728   5.712  35.912   0.339
88324W        W56729  23.976  42.520   0.525
88325W        W56730  11.600   2.149  10.453
88326W        W56731  12.870  32.211  13.347
88327W        W56732   3.877   9.688   3.813
88328W        W56733   5.156  43.553  11.414
88329W        W56734  40.382  11.285  13.113
88330W        W56735   7.817  31.680  13.572
88331W        W56736  19.606  40.303  13.029
88332W        W56737  36.869  29.698  11.187
88333W        W56738   2.199  38.123   3.606
88334W        W56739  43.973   5.328   3.152
88335W        W56740  19.592  33.242   0.241
88336W        W56741   2.877   0.881  11.267
88337W        W56742   6.868  40.860  13.264
88338W        W56743   3.110   3.146  10.217
88339W        W56744  28.690  38.679  12.313
88340W        W56745  16.333   1.004  11.664
88341W        W56746  43.243  44.252  12.822
88342W        W56747  21.060  42.568  11.686
88343W        W56748  40.858  20.755  13.825
88344W        W56749  41.059  22.076   4.478
88345W        W56750  27.960  41.537   0.819
88346W        W56751  10.175   1.499   2.734
88347W        W56752  21.514  29.455   2.898
88348W        W56753  37.810  40.237  14.430
88349W        W56754  38.381  43.797  10.761
88350W        W56755  24.086   7.173  14.779
88351W        W56756  43.066  35.910  14.180
88352W        W56757  13.734  42.299  14.509
88353W        W56758  40.025  13.592   3.298
88354W        W56759  22.660  16.312   1.838
88355W        W56760  17.050  20.744  10.620
88356W        W56761  10.259  25.616  11.901
88357W        W56762  15.541  28.287   3.613
88358W        W56763  36.904  19.738  13.080
88359W        W56764  13.357  25.733   3.593
88360W        W56765   6.801  35.068   1.253
88361W        W56766   8.715  27.452   2.276
88362W        W56767   9.629  41.942  13.546
88363W        W56768  20.951  36.115   0.086
88364W        W56769  22.451  27.235  11.457
88365W        W56770  19.055  40.098   3.464
88366W        W56771   1.567  16.275   4.402
88367W        W56772   0.703   4.433   0.833
88368W        W56773  23.018  32.512  13.134
88369W        W56774  15.987  16.360   3.610
88370W        W56775  28.257  26.610  12.081
88371W        W56776  18.220   8.414   0.911
88372W        W56777  40.955  14.826  10.746
88373W        W56778  34.075  39.118  10.859
88374W        W56779   8.201  18.176  11.822
88375W        W56780  41.028  28.950   3.315
88376W        W56781  16.730  37.974  12.149
88377W        W56782  34.549  28.546   1.966
88378W        W56783  38.590  22.458   3.615
88379W        W56784  44.252  30.251   1.373
88380W        W56785  30.917  36.975  10.688
88381W        W56786   8.023  17.910  12.625
88382W        W56787  23.163  35.909   4.643
88383W        W56788  33.597  41.777  13.821
88384W        W56789  17.693  28.461  13.912
88385W        W56790  28.957  41.258  12.735
88386W        W56791  18.168  13.894   4.295
88387W        W56792  29.658  10.554  14.574
88388W        W56793  11.097  11.981   3.000
88389W        W56794  10.390  39.917   1.296
88390W        W56795   7.345  17.714   3.995
88391W        W56796  42.680  37.407   4.903
88392W        W56797  16.353  44.298  10.075
88393W        W56798  16.576  36.152  14.417
88394W        W56799  13.606   3.474   2.861
88395W        W56800   4.455  25.095  13.367
88396W        W56801  11.604   1.737  10.817
88397W        W56802   9.737  32.913  12.047
88398W        W56803   8.720  18.702  13.541
88399W        W56804   5.396  18.065  13.360
88400W        W56805   7.848  14.635  11.988
88401W        W56806  37.837  38.409  13.004
88402W        W56807   5.103   0.327  11.030
88403W        W56808  44.849  29.156  12.820
88404W        W56809  26.990  40.909   2.918
88405W        W56810   5.753  42.145  13.510
88406W        W56811  19.836  40.569  14.541
88407W        W56812  33.384   6.137  14.553
88408W        W56813  20.115  26.979  14.360
88409W        W56814   7.115   4.462   4.176
88410W        W56815   3.897   0.314  11.567
88411W        W56816  18.123  32.348  14.259
88412W        W56817  27.012  18.822  12.458
88413W        W56818  39.276  18.252  13.343
88414W        W56819   3.648  27.720  10.894
88415W        W56820  41.294  10.153  13.986
88416W        W56821  21.304  37.805   2.797
88417W        W56822  43.024  35.692   3.229
88418W        W56823  12.285  12.759   1.295
88419W        W56824  32.376  15.112   4.041
88420W        W56825  32.629   9.327   2.238
88421W        W56826  31.571  13.598  12.064
88422W        W56827  10.706  44.402   4.892
88423W        W56828   3.218  26.134   2.225
88424W        W56829   7.782  14.742  14.507
88425W        W56830  42.976  44.723  10.684
88426W        W56831  42.468   3.818  12.002
88427W        W56832  29.330  37.843  11.530
88428W        W56833  18.630  41.429  11.475
88429W        W56834  27.097  13.698   1.009
88430W        W56835  35.808  21.977   0.489
88431W        W56836  37.794  34.996  12.065
88432W        W56837  34.654  12.187   3.148
88433W        W56838  41.993  10.273  11.157
88434W        W56839  34.467  14.699   1.470
88435W        W56840  40.131  38.899  12.620
88436W        W56841   7.158  42.803   1.820
88437W        W56842  10.211  42.025  13.794
88438W        W56843  32.457  21.967   4.614
88439W        W56844   2.438  30.407   0.462
88440W        W56845  31.652  22.751  14.437
88441W        W56846  33.555   3.880   2.311
88442W        W56847   5.053  16.006  13.056
88443W        W56848  29.508  40.353   3.602
88444W        W56849  44.878  30.652  11.513
88445W        W56850  12.793   1.140   2.146
88446W        W56851  29.182  42.471   5.059
88447W        W56852  31.650  29.989  12.920
88448W        W56853   2.382   5.384   3.416
88449W        W56854   8.277  34.152   4.164
88450W        W56855  10.202   9.437   0.317
88451W        W56856  20.311  32.534   4.602
88452W        W56857   9.955   4.747  11.588
88453W        W56858   4.992   8.348   4.090
88454W        W56859  10.773  41.996  12.381
88455W        W56860  32.350   1.442  13.081
88456W        W56861  26.499   5.438  10.953
88457W        W56862  25.167  17.020  14.297
88458W        W56863  41.981  14.286  12.541
88459W        W56864  35.175  36.776  13.375
88460W        W56865   7.108  36.084   2.572
88461W        W56866  31.090  19.285  13.864
88462W        W56867  33.038  10.077   3.252
88463W        W56868   7.238  37.871  12.000
88464W        W56869  31.630  19.366  12.373
88465W        W56870  16.778  35.815   2.378
88466W        W56871  30.116  44.279   4.580
88467W        W56872  32.822   5.416   1.451
88468W        W56873  26.618  14.569   4.531
88469W        W56874  34.015   6.482  12.514
88470W        W56875  10.685  40.232  13.620
88471W        W56876   7.952  43.667   3.792
88472W        W56877  19.691   4.130   2.744
88473W        W56878   1.182  43.093  14.778
88474W        W56879   4.219  36.609   2.874
88475W        W56880  38.345  26.747  13.047
88476W        W56881  22.053   3.628   1.284
88477W        W56882  34.124  36.486   1.755
88478W        W56883   7.943  30.829   0.844
88479W        W56884  35.839  30.903   3.637
88480W        W56885  43.017   1.266  10.738
88481W        W56886  15.839   1.495   3.085
88482W        W56887  43.875  26.491  11.784
88483W        W56888  41.242  19.147   0.447
88484W        W56889  24.454  39.743  11.655
88485W        W56890  15.780   4.849   0.689
88486W        W56891  29.117  39.089   1.205
88487W        W56892  44.867  32.046  10.193
88488W        W56893   9.288  39.479  11.678
88489W        W56894  16.385  37.599  12.893
88490W        W56895  29.854  10.602  13.354
88491W        W56896  20.203  39.312   0.097
88492W        W56897  40.359   1.586  11.405
88493W        W56898  31.827  17.775   0.804
88494W        W56899  28.675  29.286  11.218
88495W        W56900  23.665  32.405  13.407
88496W        W56901  12.352  25.915   4.482
88497W        W56902  36.008  11.926   4.836
88498W        W56903  42.524   0.472  10.713
88499W        W56904   5.828  26.156   1.355
88500W        W56905   9.904  19.741  12.510
88501W        W56906   6.622   2.453  11.435
88502W        W56907  38.345  31.281  11.976
88503W        W56908  40.465   7.318  13.515
88504W        W56909  39.567  37.883   3.984
88505W        W56910  20.076  37.500   1.826
88506W        W56911   6.645  26.957   3.210
88507W        W56912  15.642  33.079   2.368
88508W        W56913  22.880  18.185  11.540
88509W        W56914  40.367  42.458   2.366
88510W        W56915  12.725  32.421  13.804
88511W        W56916  27.903  24.134   4.106
88512W        W56917  24.920  27.083   1.193
88513W        W56918  21.387   8.130  11.649
88514W        W56919  21.675  32.984   1.785
88515W        W56920  25.923  14.546  11.537
88516W        W56921  26.149  39.610   2.630
88517W        W56922   2.403   6.794   2.735
88518W        W56923   4.423  36.114  14.817
88519W        W56924   0.857  31.150  14.892
88520W        W56925  11.391  11.664   3.340
88521W        W56926  40.833   8.235  14.691
88522W        W56927   6.169   0.860  11.394
88523W        W56928   9.753   3.960  14.860
88524W        W56929  26.244   0.447   4.700
88525W        W56930  33.958   6.595  10.215
88526W        W56931  13.685  35.822  14.840
88527W        W56932  14.324   0.466   3.068
88528W        W56933   8.243  25.167   1.940
88529W        W56934   3.833   2.577  10.646
88530W        W56935   2.921  20.367   4.142
88531W        W56936  35.107  29.386   2.405
88532W        W56937   5.241  19.815   1.725
88533W        W56938  39.044  41.985  10.348
88534W        W56939   4.636  31.177  11.590
88535W        W56940  37.845  22.676   3.135
88536W        W56941  17.834  27.130   2.590
88537W        W56942  38.334   4.715   1.316
88538W        W56943  23.765  20.954  10.418
88539W        W56944  16.637   4.870  11.395
88540W        W56945   8.689  32.958  11.966
88541W        W56946  40.819  10.228   0.637
88542W        W56947  36.547  19.197   3.153
88543W        W56948  17.817   2.177   0.385
88544W        W56949  16.467  19.953  12.577
88545W        W56950  19.937  30.491   2.379
88546W        W56951  32.681  26.087   2.837
88547W        W56952   2.669  43.920   4.072
88548W        W56953  18.511  33.587   5.174
88549W        W56954  36.002  30.473  12.360
88550W        W56955   2.759  16.556   1.181
88551W        W56956   7.140  26.102  14.541
88552W        W56957   3.804  15.736  10.512
88553W        W56958   6.415  40.734  12.477
88554W        W56959   2.701  30.782  11.166
88555W        W56960  27.535   4.666   3.331
88556W        W56961  26.056  17.686   4.831
88557W        W56962  29.628  14.315  12.096
88558W        W56963  15.824   9.139  13.891
88559W        W56964   7.739  41.350   3.228
88560W        W56965  43.502  14.253   4.494
88561W        W56966   1.911  18.120   3.753
88562W        W56967   5.361  28.066  11.941
88563W        W56968  27.459  23.114   4.136
88564W        W56969   2.114  36.144  10.450
88565W        W56970  18.267  26.038   4.421
88566W        W56971   7.489  32.032  14.955
88567W        W56972   3.419   8.950   2.932
88568W        W56973   9.471   7.282  12.178
88569W        W56974  34.345  18.105  10.933
88570W        W56975  17.788  22.409   2.455
88571W        W56976  41.219  34.390  12.509
88572W        W56977  23.704  40.012  14.873
88573W        W56978  31.127  36.247   3.353
88574W        W56979  24.002  43.510   0.922
88575W        W56980  19.237   0.035   2.931
88576W        W56981   7.729  34.458   0.869
88577W        W56982  23.240  26.452  11.531
88578W        W56983  12.918  33.711   9.792
88579W        W56984  40.570  35.692   0.835
88580W        W56985   3.433  15.690   4.560
88581W        W56986  20.567  34.844  13.410
88582W        W56987  34.756  40.298   0.342
88583W        W56988  23.479   6.966  14.083
88584W        W56989  41.266  42.515   2.302
88585W        W56990  24.590  29.396  12.061
88586W        W56991  37.391  39.871   4.515
88587W        W56992   9.691  34.349  14.636
88588W        W56993  24.768  24.381  12.044
88589W        W56994  17.956   2.673   4.802
88590W        W56995  38.271  13.546  11.620
88591W        W56996  29.101   9.393   0.655
88592W        W56997  26.318  11.340   1.773
88593W        W56998  29.191  30.692  11.228
88594W        W56999  33.488  12.772  10.764
88595W        W57000  21.963  27.745   2.347
88596W        W57001   0.807  28.664   1.927
88597W        W57002  13.680  15.866   3.623
88598W        W57003  10.254  38.968  14.474
88599W        W57004  43.886   1.989  12.441
88600W        W57005  24.648  31.611  14.789
88601W        W57006  12.375  40.466  14.971
88602W        W57007  40.026  44.721  14.421
88603W        W57008  24.397  20.710   0.438
88604W        W57009  38.356  16.696   4.237
88605W        W57010   9.574  27.166  11.091
88606W        W57011  41.828   9.608  13.941
88607W        W57012  22.774  35.908  12.008
88608W        W57013   0.220   3.277  14.996
88609W        W57014  14.317   9.414   4.638
88610W        W57015  42.785  15.538   4.328
88611W        W57016  19.163  42.973  12.323
88612W        W57017  17.326  11.202  13.914
88613W        W57018  37.804  38.351   4.042
88614W        W57019  19.684  11.655  11.300
88615W        W57020  36.882  22.994   3.318
88616W        W57021  21.646  15.310   3.152
88617W        W57022  40.872   1.303  14.445
88618W        W57023   5.906  36.829  13.508
88619W        W57024  34.562  12.257   4.476
88620W        W57025  16.704  24.850   1.755
88621W        W57026  13.651  32.675  12.865
88622W        W57027  20.080  37.215   4.190
88623W        W57028  15.796   6.792  12.539
88624W        W57029  15.711   1.030  12.471
88625W        W57030  33.063   0.832   4.691
88626W        W57031  20.222   6.520  13.554
88627W        W57032  42.863  16.876   2.209
88628W        W57033   8.019  30.303  12.091
88629W        W57034  13.270  33.860   3.123
88630W        W57035  22.075  34.626  11.246
88631W        W57036  42.931  14.385  12.579
88632W        W57037   9.956   2.290   2.247
88633W        W57038   4.162   8.890  12.198
88634W        W57039  11.962  13.128   4.640
88635W        W57040  36.067  40.096  13.161
88636W        W57041  32.525   9.420  12.375
88637W        W57042   8.636  36.859  14.954
88638W        W57043   0.956  21.997   0.283
88639W        W57044   1.164  41.200   0.350
88640W        W57045  31.165   1.659  12.395
88641W        W57046   4.176  30.457   3.808
88642W        W57047  33.398  38.347   0.774
88643W        W57048  41.555  44.334   2.515
88644W        W57049  34.859  34.432  12.734
88645W        W57050   3.065  39.472  11.552
88646W        W57051   9.300  25.988   4.632
88647W        W57052  15.227  40.403   4.462
88648W        W57053   8.239   1.763   4.558
88649W        W57054   5.156   1.288   1.424
88650W        W57055   8.426  19.988  14.798
88651W        W57056  18.770  13.278  10.411
88652W        W57057  13.526   2.345   4.061
88653W        W57058  24.649  22.103   0.408
88654W        W57059  20.291  38.811   2.660
88655W        W57060  38.297   8.854  13.518
88656W        W57061  38.763  17.699  12.935
88657W        W57062  33.571  25.122  14.481
88658W        W57063   8.113   3.437   4.078
88659W        W57064  15.256  28.580  13.038
88660W        W57065  22.084  32.262   0.792
88661W        W57066   2.678  15.252   0.100
88662W        W57067   5.799  15.624  14.280
88663W        W57068   9.478   4.649  10.273
88664W        W57069  27.893  37.403   4.070
88665W        W57070   2.576  29.932  12.595
88666W        W57071   0.929  41.450  13.412
88667W        W57072  32.152  36.534  12.520
88668W        W57073  18.894  42.172   0.331
88669W        W57074  12.745   1.820  12.919
88670W        W57075  33.175   3.824  10.694
88671W        W57076  15.315   0.460   0.783
88672W        W57077  21.618  38.383   4.651
88673W        W57078   2.637   2.397   2.823
88674W        W57079  40.131  12.482  12.595
88675W        W57080  24.978  27.845   2.880
88676W        W57081  27.365  37.828  10.043
88677W        W57082  35.008  40.398   4.549
88678W        W57083  22.737  27.760  14.294
88679W        W57084  39.202  26.154   1.838
88680W        W57085  41.213  32.889   4.295
88681W        W57086  38.073  18.700   3.657
88682W        W57087   0.642  12.730   5.326
88683W        W57088  25.009  12.191   0.838
88684W        W57089   3.648  34.496   4.348
88685W        W57090   7.611  17.090   2.526
88686W        W57091  18.970  12.778  11.857
88687W        W57092  12.775   8.782  13.428
88688W        W57093  29.012  38.494  14.937
88689W        W57094   1.420  20.377   1.814
88690W        W57095  41.132   4.317   4.042
88691W        W57096  34.469  13.137   2.191
88692W        W57097  38.041  29.529   4.601
88693W        W57098  22.611  30.090  10.409
88694W        W57099   3.980  22.040   1.819
88695W        W57100  15.776  42.369  11.989
88696W        W57101  27.639  32.496   1.456
88697W        W57102  12.200  17.813  13.558
88698W        W57103   0.951  10.068  12.862
88699W        W57104  31.123  37.641   0.289
88700W        W57105  22.020  31.651   0.974
88701W        W57106  36.200  42.215  12.010
88702W        W57107  22.112  13.744  14.805
88703W        W57108  37.479   5.257  11.539
88704W        W57109  28.445  31.514  12.032
88705W        W57110  28.937  18.689   3.256
88706W        W57111  28.381  19.207  10.745
88707W        W57112  11.946  36.173  14.440
88708W        W57113  16.972  28.715   0.916
88709W        W57114  24.720   6.271  14.203
88710W        W57115  40.522  18.864   1.327
88711W        W57116  44.470  21.657   1.741
88712W        W57117  34.452   7.019  13.063
88713W        W57118  44.638  26.180  12.548
88714W        W57119  38.447  13.602  13.045
88715W        W57120  17.014  17.995   0.064
88716W        W57121  26.334  10.785  14.997
88717W        W57122  41.666  12.092   0.541
88718W        W57123   0.203  11.112   4.535
88719W        W57124  20.407   3.195   0.655
88720W        W57125  35.561  33.669   1.723
88721W        W57126  22.977  44.825  14.328
88722W        W57127   2.849  15.957   0.317
88723W        W57128  22.237  27.003   1.895
88724W        W57129  30.394  17.030   4.057
88725W        W57130  27.879  20.519   0.521
88726W        W57131  34.437  30.727  12.318
88727W        W57132  30.283  40.586  11.227
88728W        W57133  41.924  42.866  13.835
88729W        W57134  39.796   6.248   2.476
88730W        W57135  14.104  27.958   2.816
88731W        W57136  10.117  21.515   3.159
88732W        W57137   4.687   8.677   4.425
88733W        W57138  35.453  42.800   2.328
88734W        W57139  35.962  32.745  14.186
88735W        W57140  31.017  39.564   0.455
88736W        W57141  13.696  20.163   4.572
88737W        W57142  40.974  14.629   2.401
88738W        W57143  44.063  12.729  10.717
88739W        W57144  13.736   0.346   2.891
88740W        W57145  26.686  27.583   4.190
88741W        W57146  36.387   0.484  11.778
88742W        W57147  30.126  32.162   0.112
88743W        W57148  40.037  33.593   1.395
88744W        W57149  39.440  21.793  11.404
88745W        W57150  34.606  16.333   0.042
88746W        W57151  37.740  19.167  10.710
88747W        W57152  22.176  11.104   3.266
88748W        W57153  34.907  40.406  13.746
88749W        W57154   7.914  26.497   0.605
88750W        W57155  16.575  22.841  10.131
88751W        W57156  43.620  17.798  11.291
88752W        W57157  44.611  19.797  12.477
88753W        W57158  39.189  41.788   0.732
88754W        W57159  24.184  28.006   1.451
88755W        W57160   2.448  27.692  12.883
88756W        W57161   5.193  34.932   1.545
88757W        W57162   0.126   8.938   9.711
88758W        W57163   9.803  20.235  13.856
88759W        W57164  25.940  13.983   1.408
88760W        W57165  33.600  10.120   0.308
88761W        W57166  44.126  16.173  13.841
88762W        W57167  27.564   5.274   4.491
88763W        W57168  32.488   7.659  14.910
88764W        W57169  32.966  17.758   4.370
88765W        W57170  15.709  42.038   1.348
88766W        W57171  33.951  11.864   0.050
88767W        W57172  44.838  13.616   5.023
88768W        W57173  31.621  14.687   4.262
88769W        W57174  23.127  31.423  11.597
88770W        W57175  41.719  42.071  13.193
88771W        W57176  16.218  43.379  12.653
88772W        W57177  44.054  15.676   2.278
88773W        W57178  15.875  11.764  11.656
88774W        W57179  15.110  28.076  14.689
88775W        W57180   3.073  38.849   4.431
88776W        W57181  19.076  33.220   2.724
88777W        W57182  32.820   9.879  13.234
88778W        W57183  28.727  32.504  11.452
88779W        W57184  32.982   5.176   3.237
88780W        W57185  10.285   2.885  13.456
88781W        W57186  22.277  15.306   1.650
88782W        W57187  19.714   9.740  13.315
88783W        W57188  22.742  41.948  13.449
88784W        W57189  39.362   5.980   9.841
88785W        W57190  28.568  15.067  12.887
88786W        W57191  44.322  36.279   0.812
88787W        W57192  36.906   9.569  12.194
88788W        W57193  22.549   4.725   0.850
88789W        W57194   5.473  25.625  14.888
88790W        W57195  36.046  10.467  14.603
88791W        W57196  42.390  40.947   3.400
88792W        W57197  32.043  20.062  12.840
88793W        W57198  38.609  23.229   2.472
88794W        W57199  12.848  34.823  10.559
88795W        W57200   2.974   8.905   4.650
88796W        W57201  19.013  43.340  13.599
88797W        W57202  18.822  29.359  11.310
88798W        W57203   6.857  43.820   3.077
88799W        W57204  22.963  40.029  10.575
88800W        W57205  33.607  18.814  13.471
88801W        W57206  10.724  19.877   2.607
88802W        W57207  27.645  30.917   0.351
88803W        W57208  22.551  16.540  12.878
88804W        W57209  29.664  32.349   0.864
88805W        W57210  43.761   8.724   2.223
88806W        W57211  41.541  41.991   3.971
88807W        W57212  18.315  21.042   3.352
88808W        W57213  16.603  42.139  12.386
88809W        W57214   3.498  28.788   4.657
88810W        W57215   7.151  15.288   3.306
88811W        W57216  25.707  23.706   0.184
88812W        W57217   5.270  20.160  11.244
88813W        W57218  36.899  30.400  12.386
88814W        W57219  16.106  26.127   3.737
88815W        W57220  26.589  23.742  11.581
88816W        W57221  43.162  18.155  10.596
88817W        W57222   1.021   9.027   4.561
88818W        W57223  40.343   8.356  13.265
88819W        W57224  15.564  10.127  13.003
88820W        W57225  24.949  30.420  11.981
88821W        W57226  34.568  42.341   3.614
88822W        W57227   7.156  30.849   4.573
88823W        W57228   5.875  37.023   0.711
88824W        W57229  22.816  41.831   2.884
88825W        W57230  44.023  35.578   2.008
88826W        W57231  15.650  32.118   1.431
88827W        W57232  32.074  21.587  13.801
88828W        W57233  35.016   5.478  12.921
88829W        W57234  33.659  41.036  14.568
88830W        W57235  24.067  42.063   0.283
88831W        W57236  27.655  32.427  13.520
88832W        W57237  18.484  35.058  13.305
88833W        W57238  37.569   8.134  14.478
88834W        W57239  39.321  39.832  11.675
88835W        W57240   4.149   3.453   1.730
88836W        W57241   1.041  26.867   2.094
88837W        W57242  33.681  11.859   3.096
88838W        W57243  42.259  10.378  13.803
88839W        W57244  18.763  15.290   4.811
88840W        W57245   9.690   9.743  10.418
88841W        W57246   8.632   4.904  14.452
88842W        W57247  27.990  17.078  13.033
88843W        W57248  14.391   3.472  11.048
88844W        W57249   8.915   9.644  14.638
88845W        W57250  29.427  37.918  13.875
88846W        W57251  42.099  36.477  11.548
88847W        W57252  29.614  15.833  11.495
88848W        W57253   2.745  39.139   4.690
88849W        W57254   4.203  13.134   4.142
88850W        W57255   5.416   1.457  12.045
88851W        W57256  29.962   3.124   1.362
88852W        W57257  31.517   6.780   1.909
88853W        W57258  28.069  42.531  14.906
88854W        W57259  29.360   6.651  12.373
88855W        W57260  34.380  12.485   0.080
88856W        W57261  16.778  32.964   0.956
88857W        W57262  15.583   0.734   4.161
88858W        W57263  28.042  13.641  11.702
88859W        W57264  30.339  43.865  13.370
88860W        W57265  14.106   0.060  14.723
88861W        W57266  12.757  17.149  11.937
88862W        W57267  33.038  31.034  12.506
88863W        W57268  41.019   0.332   4.100
88864W        W57269  31.750  11.275   4.797
88865W        W57270  20.770   3.039  12.031
88866W        W57271  40.840  40.791   2.390
88867W        W57272  16.416   5.247  13.384
88868W        W57273  20.230   4.740  11.420
88869W        W57274  44.596  18.099  12.791
88870W        W57275  33.578  41.604  10.766
88871W        W57276  10.374  44.589  12.173
88872W        W57277  11.899  44.576   0.432
88873W        W57278   6.645  32.440  12.557
88874W        W57279   6.984  23.548   4.342
88875W        W57280  16.169   4.966   4.621
88876W        W57281  33.492  40.391   0.889
88877W        W57282   2.949   7.152   1.373
88878W        W57283  32.648   1.218   0.955
88879W        W57284  14.665  43.554  10.488
88880W        W57285  29.575  37.516  10.737
88881W        W57286  33.712  32.095  13.965
88882W        W57287  10.222  20.663  14.045
88883W        W57288   8.909   8.438   3.194
88884W        W57289  14.150  34.574   1.969
88885W        W57290  14.058  27.518   1.170
88886W        W57291  33.001  42.839  11.519
88887W        W57292  20.196  34.358  12.236
88888W        W57293  18.196   1.297   3.575
88889W        W57294  19.234  36.709  12.486
88890W        W57295  12.303  22.631  11.478
88891W        W57296   3.286   6.753   1.407
88892W        W57297  14.333  34.124  11.410
88893W        W57298  28.229  43.920  11.613
88894W        W57299  27.896   5.916   2.289
88895W        W57300  23.228  38.072  10.632
88896W        W57301  40.746   0.978  14.883
88897W        W57302  13.292  12.729  14.539
88898W        W57303   4.125   1.173   1.348
88899W        W57304  16.787  28.031   4.669
88900W        W57305  11.154   9.811  13.460
88901W        W57306   3.858   3.691   3.474
88902W        W57307  22.056  30.846   1.758
88903W        W57308   9.400   0.826   2.131
88904W        W57309  35.426   2.433   2.731
88905W        W57310  40.531   4.452  12.451
88906W        W57311  33.124  43.120  14.904
88907W        W57312  25.044  13.296  12.568
88908W        W57313  25.601  30.678  10.765
88909W        W57314  24.418  26.111  13.128
88910W        W57315  43.947  21.704   0.695
88911W        W57316  15.269  30.452   3.833
88912W        W57317  43.078  21.737  13.392
88913W        W57318  41.376   8.825   2.350
88914W        W57319  20.514   7.297   5.038
88915W        W57320  43.998  27.415   2.679
88916W        W57321  36.385  30.651  14.483
88917W        W57322   4.608  15.401   2.274
88918W        W57323  10.849  14.506   0.182
88919W        W57324  30.656  23.329   2.972
88920W        W57325  14.775  21.556   3.995
88921W        W57326  34.385   0.438   4.229
88922W        W57327   6.940  37.536  14.839
88923W        W57328   9.445  41.194  10.858
88924W        W57329  14.781  11.573   3.663
88925W        W57330  18.108  12.634   1.578
88926W        W57331  26.667   6.562  13.213
88927W        W57332  42.865  36.938  11.264
88928W        W57333  30.058   5.194   1.287
88929W        W57334  27.267  43.649   1.162
88930W        W57335  16.597  19.007  14.319
88931W        W57336   8.622   3.690  14.477
88932W        W57337  34.095   8.160   3.692
88933W        W57338   5.663  10.495  11.589
88934W        W57339   7.768  43.943   3.393
88935W        W57340  14.956   7.865   1.140
88936W        W57341  13.546   6.122  14.512
88937W        W57342  11.114  25.410  13.389
88938W        W57343   5.238  21.111  14.329
88939W        W57344  44.320  37.208   4.972
88940W        W57345  30.174  19.615  14.842
88941W        W57346  39.172   3.470  13.055
88942W        W57347  15.048  26.208   2.948
88943W        W57348   4.979   6.826  11.896
88944W        W57349  43.016  29.384   4.028
88945W        W57350  17.708   4.409  13.610
88946W        W57351  17.108  40.151   0.687
88947W        W57352  26.141  33.614   3.314
88948W        W57353  10.447  37.701   4.111
88949W        W57354   7.642  31.667   1.957
88950W        W57355   9.723   7.298   0.663
88951W        W57356  34.672  43.416  14.305
88952W        W57357   8.110  27.132  14.434
88953W        W57358  39.711  17.190  10.445
88954W        W57359  17.178   6.223   3.224
88955W        W57360  28.231  38.158   9.934
88956W        W57361  39.123  20.508   3.214
88957W        W57362  13.321  31.848  11.921
88958W        W57363  36.996   3.419   2.175
88959W        W57364  38.156  17.313  12.760
88960W        W57365  32.345  30.712   4.967
88961W        W57366  21.113  44.044  11.802
88962W        W57367  25.705  33.519   0.286
88963W        W57368  19.476  12.891   4.323
88964W        W57369  13.116  21.047  10.603
88965W        W57370  10.810   5.695  12.471
88966W        W57371  37.599  34.681  12.638
88967W        W57372   1.446  43.867   0.284
88968W        W57373  41.433  32.621   3.195
88969W        W57374  32.491  12.669   1.397
88970W        W57375  16.926  10.519   2.666
88971W        W57376   1.831  36.139   2.723
88972W        W57377  11.879  11.679   0.108
88973W        W57378  10.675  44.413  13.338
88974W        W57379  14.084  33.192  11.618
88975W        W57380  12.792  31.797   1.899
88976W        W57381  11.661  18.066  12.851
88977W        W57382  43.859  21.195   9.915
88978W        W57383  19.738   8.847  14.056
88979W        W57384  16.809  44.278  10.801
88980W        W57385  16.744   7.931  13.810
88981W        W57386  40.836  29.287   4.225
88982W        W57387  20.071  26.261  12.106
88983W        W57388  43.247  39.392  12.915
88984W        W57389  38.348  12.606   1.158
88985W        W57390   6.540  43.867   0.412
88986W        W57391  37.050  26.597  13.790
88987W        W57392  38.919   0.251  12.077
88988W        W57393  25.511  16.592   4.986
88989W        W57394  20.259  37.427  12.212
88990W        W57395  35.567  27.111   4.382
88991W        W57396  31.472  34.813  10.344
88992W        W57397  12.434  17.794   1.753
88993W        W57398  12.344  24.568  11.160
88994W        W57399  27.652  22.463  14.077
88995W        W57400  10.440   9.059  11.676
88996W        W57401   9.113  31.461  13.395
88997W        W57402  23.009  14.108   0.231
88998W        W57403  16.122  11.693  10.461
88999W        W57404  39.052   1.740   3.337
89000W        W57405  36.427  33.958  12.393
89001W        W57406  38.977  18.612   0.436
89002W        W57407  35.367  39.973   3.332
89003W        W57408  39.783  12.613  11.874
89004W        W57409  19.008   5.799   1.444
89005W        W57410  42.967  39.438  13.445
89006W        W57411  14.390  43.764   2.831
89007W        W57412  15.640  31.542  13.999
89008W        W57413   5.807  42.000  10.694
89009W        W57414  12.938  37.427  14.264
89010W        W57415  40.900  36.011  11.514
89011W        W57416  41.872  42.750   4.330
89012W        W57417  34.423  42.576  12.666
89013W        W57418  26.620  30.093   3.856
89014W        W57419  10.925   2.715   0.475
89015W        W57420  32.201  21.583   1.391
89016W        W57421   1.873  25.691   0.817
89017W        W57422  27.492   5.892  10.653
89018W        W57423   5.639  42.293   0.817
89019W        W57424  41.605  26.370   2.711
89020W        W57425   6.138  17.752  11.178
89021W        W57426   1.427  11.739  12.454
89022W        W57427  37.820  43.347   2.579
89023W        W57428  32.320  31.618  12.403
89024W        W57429  32.455   2.306  11.605
89025W        W57430  32.777   5.915  11.991
89026W        W57431   5.924   0.609  14.338
89027W        W57432   6.793  35.059   4.208
89028W        W57433  26.051   2.859   3.677
89029W        W57434  23.123  19.807  12.379
89030W        W57435  22.710   0.930   3.742
89031W        W57436  18.297  36.643   1.313
89032W        W57437  30.943  33.789  13.592
89033W        W57438  36.820  21.031  13.451
89034W        W57439  13.336  19.649   2.270
89035W        W57440  17.727  21.714  12.678
89036W        W57441  38.457  18.088  12.145
89037W        W57442  12.227  38.764   2.953
89038W        W57443  43.394   4.375   2.660
89039W        W57444   7.321   1.744   2.757
89040W        W57445  39.500  15.823  13.282
89041W        W57446  36.859  44.691   3.827
89042W        W57447  16.855  34.215   3.194
89043W        W57448   0.957  40.498   2.428
89044W        W57449   0.175   5.828  13.043
89045W        W57450  40.939   4.193   0.519
89046W        W57451  12.192  30.238   3.626
89047W        W57452  33.617  42.525  10.862
89048W        W57453  31.484   5.206   0.788
89049W        W57454  18.527  43.408  11.566
89050W        W57455  20.150   6.866   5.125
89051W        W57456  35.342  25.710   3.623
89052W        W57457  17.790  30.075   2.942
89053W        W57458  24.965  13.252  12.068
89054W        W57459  12.339  42.048   0.417
89055W        W57460  20.789  17.844  14.381
89056W        W57461  43.577   8.177   3.604
89057W        W57462   2.725  29.521   0.959
89058W        W57463  22.124  17.136  11.638
89059W        W57464  29.720   0.304  10.750
89060W        W57465  41.314   2.729  12.117
89061W        W57466  16.224  12.752  12.037
89062W        W57467  20.566   6.290  10.803
89063W        W57468   2.827   1.455   1.264
89064W        W57469  27.468  20.486   3.298
89065W        W57470  23.320  37.671   1.230
89066W        W57471  42.550  44.970  10.890
89067W        W57472  12.479  23.230   0.378
89068W        W57473   7.486  23.617  11.222
89069W        W57474  31.984  11.198   0.491
89070W        W57475  12.697  29.856  11.175
89071W        W57476   5.474   4.116   1.306
89072W        W57477   1.232   6.673  11.205
89073W        W57478  22.675  24.754   4.078
89074W        W57479  41.335  16.321   2.871
89075W        W57480  21.160  16.850   0.396
89076W        W57481  23.714  17.153   2.838
89077W        W57482  27.501  32.894  11.720
89078W        W57483   0.013  34.601  12.365
89079W        W57484   9.912  32.609  12.443
89080W        W57485  39.360  39.681   4.259
89081W        W57486  41.728  20.681   0.793
89082W        W57487   0.358   8.417   4.853
89083W        W57488  21.176  19.258   0.856
89084W        W57489   7.486  34.415   0.338
89085W        W57490  21.197  37.512  10.745
89086W        W57491   0.584  35.586  11.397
89087W        W57492  41.200  28.375  11.154
89088W        W57493   0.344  44.303   0.858
89089W        W57494  19.973  13.681  14.846
89090W        W57495  42.067  13.464   2.350
89091W        W57496   0.832  12.829   3.553
89092W        W57497  17.226  43.382   4.618
89093W        W57498  38.590   5.949   4.078
89094W        W57499  13.279  10.291  14.136
89095W        W57500  18.585   7.096  14.344
89096W        W57501  22.865  15.016   2.322
89097W        W57502   9.467  15.152   1.669
89098W        W57503  23.649   5.149  11.149
89099W        W57504   4.351  30.938   3.687
89100W        W57505  28.093   1.393   4.919
89101W        W57506  25.383  10.393   0.008
89102W        W57507  37.333  43.773   2.784
89103W        W57508  29.563   5.881  13.080
89104W        W57509  23.225  15.008  13.528
89105W        W57510  15.821  27.386   1.317
89106W        W57511  29.129  41.722  11.975
89107W        W57512  28.652  36.608   3.048
89108W        W57513  40.930  18.678  13.417
89109W        W57514  30.689  38.371   0.807
89110W        W57515  20.536  21.450   2.294
89111W        W57516  34.522  24.992  14.001
89112W        W57517  26.664  27.101  14.430
89113W        W57518   7.889  44.855   4.653
89114W        W57519  43.868  18.484   2.651
89115W        W57520   4.161  11.141   0.480
89116W        W57521  17.576  41.202   2.285
89117W        W57522  38.150  37.395   0.915
89118W        W57523  32.172  25.682   1.250
89119W        W57524  40.070  26.334   3.355
89120W        W57525  28.197  12.416  11.162
89121W        W57526  36.956  38.011   3.191
89122W        W57527  40.754   3.910   3.662
89123W        W57528  32.504  18.078   2.168
89124W        W57529  37.277  24.627  13.319
89125W        W57530   7.296  38.124   5.100
89126W        W57531  43.012  14.683   2.320
89127W        W57532   0.690  41.780  11.078
89128W        W57533  43.566  10.275   3.109
89129W        W57534   3.765  30.037   2.279
89130W        W57535  32.939  39.110   4.386
89131W        W57536  22.134  38.506  10.714
89132W        W57537  22.696  40.445  14.282
89133W        W57538  30.873  43.163   3.705
89134W        W57539  23.567  22.494   4.898
89135W        W57540  35.446  10.660  13.003
89136W        W57541  23.287  25.184  11.903
89137W        W57542   4.913  28.003  12.564
89138W        W57543   8.151  31.113  10.751
89139W        W57544   7.407  16.669   4.038
89140W        W57545  20.602   8.817   2.585
89141W        W57546  39.319   3.197   4.053
89142W        W57547  32.897  24.984  10.731
89143W        W57548   8.674  32.994   0.410
89144W        W57549  41.510  34.839   4.087
89145W        W57550   0.663  33.032  13.344
89146W        W57551  38.594  24.651  11.531
89147W        W57552  17.490  34.379   2.380
89148W        W57553  39.018  14.092   4.627
89149W        W57554   8.326  23.894   4.818
89150W        W57555  18.235  41.363   2.699
89151W        W57556  17.336   6.738   3.158
89152W        W57557  16.856  40.131  13.356
89153W        W57558  41.265  36.957   2.352
89154W        W57559   9.154   8.772  12.210
89155W        W57560  18.776  20.566  14.499
89156W        W57561  44.202  27.493   3.663
89157W        W57562   0.331   7.134  12.059
89158W        W57563  44.834  21.617   4.397
89159W        W57564  12.778  42.404  10.921
89160W        W57565  16.104  34.881  11.701
89161W        W57566   1.884  31.882   4.499
89162W        W57567  17.028   1.645  10.125
89163W        W57568   0.315  21.079  13.574
89164W        W57569  44.803   4.485   3.797
89165W        W57570   6.102  35.852  11.434
89166W        W57571  30.848  20.506  13.398
89167W        W57572   1.101  38.243  12.104
89168W        W57573  32.905  23.952  11.591
89169W        W57574   3.737  29.586   1.926
89170W        W57575   5.464  12.600  13.631
89171W        W57576  44.225  33.709  12.082
89172W        W57577  21.610  36.096   3.384
89173W        W57578  24.261   2.273   3.289
89174W        W57579  26.856  34.917   4.906
89175W        W57580  22.943  30.111   4.148
89176W        W57581  11.183   8.883  10.700
89177W        W57582  38.050   1.044   3.722
89178W        W57583  31.005  30.598   1.381
89179W        W57584  29.300  12.613  11.839
89180W        W57585  14.527   4.435   2.978
89181W        W57586   7.160  34.448  13.959
89182W        W57587  39.025   7.204  10.106
89183W        W57588   4.137  31.714   0.447
89184W        W57589  16.392  13.387   4.453
89185W        W57590  11.048  28.754  11.929
89186W        W57591  12.746   5.294   1.646
89187W        W57592  23.235  43.082   4.157
89188W        W57593  28.182  17.756  14.885
89189W        W57594   1.839  35.522  14.631
89190W        W57595  10.318   1.903   2.104
89191W        W57596  20.706  42.615   0.985
89192W        W57597   1.804  13.050   2.966
89193W        W57598   5.273   2.745  11.581
89194W        W57599  42.257  13.658  10.635
89195W        W57600  44.503   0.842   2.421
89196W        W57601  15.114  11.805   0.192
89197W        W57602  44.221  34.125  11.552
89198W        W57603  26.822   1.072  11.180
89199W        W57604  44.303  40.407  12.967
89200W        W57605  15.187  37.861  14.410
89201W        W57606  18.693  22.188  14.503
89202W        W57607  39.037   5.582   3.305
89203W        W57608  11.320   3.158  14.010
89204W        W57609   5.679  18.737   0.166
89205W        W57610  33.964  16.539   1.051
89206W        W57611  24.122  22.523   1.765
89207W        W57612  18.225  30.806   1.302
89208W        W57613  19.323   1.669  14.888
89209W        W57614  15.836   4.238  14.974
89210W        W57615  28.237  42.813  14.480
89211W        W57616  36.578  42.240  10.586
89212W        W57617  41.144   9.598   2.366
89213W        W57618  27.173  40.828   4.126
89214W        W57619   7.740  17.677   1.829
89215W        W57620  31.356  31.403   1.690
89216W        W57621  31.609  12.379  11.546
89217W        W57622   6.617  37.090  12.875
89218W        W57623  21.392   9.111   0.414
89219W        W57624  38.514  39.584  13.307
89220W        W57625   5.539  36.781  13.903
89221W        W57626   7.675   3.377  12.885
89222W        W57627   7.599  13.202   4.187
89223W        W57628  21.437  11.141  11.007
89224W        W57629   5.104  15.163  13.162
89225W        W57630  26.807  39.126  10.697
89226W        W57631   6.943   8.722  11.667
89227W        W57632  16.206  29.532   3.617
89228W        W57633  24.044  39.436   1.868
89229W        W57634  21.143   3.833  12.654
89230W        W57635  33.086  36.379   4.737
89231W        W57636  30.130  36.566   1.783
89232W        W57637  35.025   9.797  14.695
89233W        W57638  14.372  31.911  12.909
89234W        W57639   5.493   0.163   2.727
89235W        W57640  12.996  15.123  13.033
89236W        W57641  34.891  28.518   4.806
89237W        W57642  38.718  44.419   4.097
89238W        W57643  18.046   2.706  14.943
89239W        W57644  36.910   3.674   3.740
89240W        W57645  22.061  32.585   2.178
89241W        W57646   3.449  41.823   3.708
89242W        W57647  22.493  24.609  14.992
89243W        W57648   1.930  27.348  12.047
89244W        W57649  27.415  14.235   1.667
89245W        W57650  18.342  17.063   3.039
89246W        W57651   7.247   5.294   0.914
89247W        W57652  23.003  38.563   0.302
89248W        W57653  24.562   5.764   2.891
89249W        W57654  16.800  39.295  13.623
89250W        W57655  41.534  44.931   0.021
89251W        W57656  42.446   2.692   1.833
89252W        W57657  26.581   8.624  12.150
89253W        W57658  19.199  28.438   4.418
89254W        W57659   3.025  14.529   2.672
89255W        W57660  16.779  35.499   1.110
89256W        W57661  23.223  22.312   2.397
89257W        W57662  43.501  36.791  11.060
89258W        W57663  42.994  13.558  14.419
89259W        W57664   5.697  23.027   4.601
89260W        W57665  20.178  19.020   0.981
89261W        W57666   4.766  42.403  13.521
89262W        W57667  42.531  16.331   0.191
89263W        W57668  39.329  33.072   0.448
89264W        W57669  12.318  35.834   4.246
89265W        W57670  22.546  12.689  10.206
89266W        W57671  21.144   1.322  11.815
89267W        W57672  14.609  15.024   0.303
89268W        W57673  39.017  41.096   3.149
89269W        W57674  11.104  21.970   2.094
89270W        W57675  25.118   1.242  14.103
89271W        W57676  31.048  38.354   4.837
89272W        W57677  42.007   1.366   3.341
89273W        W57678  33.678   4.182  11.905
89274W        W57679  15.687  32.873  13.389
89275W        W57680   1.201   5.347   0.842
89276W        W57681  28.617   2.435  12.884
89277W        W57682  29.688  40.319   0.853
89278W        W57683  35.372   9.587  12.868
89279W        W57684  16.079  28.173   3.042
89280W        W57685  30.873  13.211  11.118
89281W        W57686  34.543   2.881   0.511
89282W        W57687   2.898  17.960  13.620
89283W        W57688  17.595  14.043   2.662
89284W        W57689  15.602  32.366  11.598
89285W        W57690  19.507  32.456   2.348
89286W        W57691  34.348   5.981   3.800
89287W        W57692  10.568  21.585  14.363
89288W        W57693  35.564  42.487   1.900
89289W        W57694  31.103  40.186  14.776
89290W        W57695   3.252   5.218   2.268
89291W        W57696  17.273  16.194   0.021
89292W        W57697  38.759  22.650   1.912
89293W        W57698  13.102   4.737  14.585
89294W        W57699  24.315   6.249  10.820
89295W        W57700  36.454  36.634  12.575
89296W        W57701  16.835  38.261   2.673
89297W        W57702   3.288  20.816   0.392
89298W        W57703  12.288  40.996  10.480
89299W        W57704  40.076  10.437  12.214
89300W        W57705  33.294  25.032   1.716
89301W        W57706  41.785  10.947   1.949
89302W        W57707  15.019  32.442  12.865
89303W        W57708  16.318  37.837  13.826
89304W        W57709  25.122  15.569  14.431
89305W        W57710  21.263  30.638   0.229
89306W        W57711  38.967  35.007   9.927
89307W        W57712  30.964   4.386  12.480
89308W        W57713  41.597  36.397  13.048
89309W        W57714  33.830  33.831   1.927
89310W        W57715  40.698  17.417   4.158
89311W        W57716  25.234  44.800  12.201
89312W        W57717  33.471  26.046  12.949
89313W        W57718  33.921  16.078   3.770
89314W        W57719   5.935   4.421   4.826
89315W        W57720  40.992  14.642   1.874
89316W        W57721  18.346  32.578   5.383
89317W        W57722   9.313   7.620   0.564
89318W        W57723   1.637  40.229   1.308
89319W        W57724  12.671  40.061   0.121
89320W        W57725   3.990   8.137  10.843
89321W        W57726  29.216  27.680  11.540
89322W        W57727  23.118  13.373  14.704
89323W        W57728  32.125   7.332   0.823
89324W        W57729  40.503  34.175   2.800
89325W        W57730  19.712   3.503   3.811
89326W        W57731  35.738   1.465   0.934
89327W        W57732  27.598  15.150  10.461
89328W        W57733  15.147  30.551  11.712
89329W        W57734  23.066  42.748  12.499
89330W        W57735  11.850  17.500  10.345
89331W        W57736  18.681  18.464   0.338
89332W        W57737  16.497   3.746  14.988
89333W        W57738  40.717  34.374  12.583
89334W        W57739   7.891  31.004   2.259
89335W        W57740  27.118  16.119  12.781
89336W        W57741  41.961  25.965   1.316
89337W        W57742  37.678  34.943   5.139
89338W        W57743   9.366  41.705  11.547
89339W        W57744  16.804  30.932   1.668
89340W        W57745   8.558  44.062  11.997
89341W        W57746  22.224  30.406   0.131
89342W        W57747  37.559  43.835  14.544
89343W        W57748  39.944  36.616   3.282
89344W        W57749  19.732  11.950   0.532
89345W        W57750  40.532  31.721   4.600
89346W        W57751  22.616   7.320  12.391
89347W        W57752  25.093   8.122   2.294
89348W        W57753  37.795  22.639  10.153
89349W        W57754   9.099   2.856  12.762
89350W        W57755   0.742  41.538   0.307
89351W        W57756  26.646  11.692   4.222
89352W        W57757  16.840  18.934   3.303
89353W        W57758   2.013  36.413   3.703
89354W        W57759  33.830  32.652   3.304
89355W        W57760  37.966  36.990   4.435
89356W        W57761   4.984   7.372  13.040
89357W        W57762   6.930  16.104   1.863
89358W        W57763  13.886  31.638  11.618
89359W        W57764   0.779  32.588  11.992
89360W        W57765  16.035  30.455   1.924
89361W        W57766   1.937  36.411   1.450
89362W        W57767  34.421  26.218  13.383
89363W        W57768   2.507  44.638   3.142
89364W        W57769  40.146  28.622  13.481
89365W        W57770  11.727  12.932  10.316
89366W        W57771   3.864  15.266  14.304
89367W        W57772  31.868   3.702   1.578
89368W        W57773   0.796  19.657   4.404
89369W        W57774  33.524  39.862   0.883
89370W        W57775  33.541  25.692  11.599
89371W        W57776  19.091  29.853   2.177
89372W        W57777  21.583  33.961  13.117
89373W        W57778  29.750  28.066  14.574
89374W        W57779  17.624  35.098  10.604
89375W        W57780   0.799  34.814   2.853
89376W        W57781  18.326  14.739   3.477
89377W        W57782  13.597  43.311   1.158
89378W        W57783  28.999   6.202   4.374
89379W        W57784  12.963  21.705  14.015
89380W        W57785  25.183  17.294  10.626
89381W        W57786  30.166  30.948  11.983
89382W        W57787  23.981  44.038   4.736
89383W        W57788   8.133  33.497   0.983
89384W        W57789  40.053  31.242   2.389
89385W        W57790   4.169  42.403  14.887
89386W        W57791   3.882  36.287   4.022
89387W        W57792  34.436  20.855   2.233
89388W        W57793  10.786   8.116   0.426
89389W        W57794  24.055   3.485  13.353
89390W        W57795  17.549   4.701   3.830
89391W        W57796  10.156  10.543  13.264
89392W        W57797  27.108  39.152   0.469
89393W        W57798   3.437   3.658  11.544
89394W        W57799  16.491   5.385   5.119
89395W        W57800  20.766  35.925   2.394
89396W        W57801   8.861  23.661  14.116
89397W        W57802  35.115  26.759   0.773
89398W        W57803  44.534  40.814   1.889
89399W        W57804  20.685   5.474  11.623
89400W        W57805   9.259  25.798   2.951
89401W        W57806  11.494  42.417  10.684
89402W        W57807  24.049  29.696  13.451
89403W        W57808   3.577  23.284  14.892
89404W        W57809  10.895   1.383   0.333
89405W        W57810  36.789   2.334   1.514
89406W        W57811  13.253  12.166  13.762
89407W        W57812  37.990  24.084  14.271
89408W        W57813  28.508  39.083   0.493
89409W        W57814  13.196   8.054   2.153
89410W        W57815  38.979  40.311   0.867
89411W        W57816  40.764  18.234   3.165
89412W        W57817  23.280  28.914   2.160
89413W        W57818   1.958  15.706  14.494
89414W        W57819  40.014   3.895   0.831
89415W        W57820  24.667  19.823   3.190
89416W        W57821  38.360  24.666  13.364
89417W        W57822  34.381  42.332   1.194
89418W        W57823  20.015  40.793  11.656
89419W        W57824  40.145  19.879   0.784
89420W        W57825  20.969  25.198   2.826
89421W        W57826  16.760  40.222   1.813
89422W        W57827  43.283   4.533   1.310
89423W        W57828   8.308  22.150  12.808
89424W        W57829  17.200   6.388   1.692
89425W        W57830  13.370  34.622   3.724
89426W        W57831  24.206   2.151   0.378
89427W        W57832  19.805  38.691   1.206
89428W        W57833  32.011   7.005  11.393
89429W        W57834  12.187  28.312   3.811
89430W        W57835  38.968  43.663   0.933
89431W        W57836  15.074  11.385  11.614
89432W        W57837  30.583  39.196   4.290
89433W        W57838   1.685  42.246   4.178
89434W        W57839  37.878  41.230   0.478
89435W        W57840  20.158  10.708   3.190
89436W        W57841   9.714   0.676  12.214
89437W        W57842   5.765   5.856   4.567
89438W        W57843   1.829  40.289  10.768
89439W        W57844  26.669  33.380   0.918
89440W        W57845  29.646   4.877  10.719
89441W        W57846  35.068  21.713   0.236
89442W        W57847  27.942  41.972   2.754
89443W        W57848  29.494   6.929   3.161
89444W        W57849  28.987  26.412  13.969
89445W        W57850  23.754   2.878   2.656
89446W        W57851  26.643  38.939  12.924
89447W        W57852  26.666  11.358   2.804
89448W        W57853  24.928  25.677  12.033
89449W        W57854  23.816  32.688  14.811
89450W        W57855  18.859  17.270  13.094
89451W        W57856   6.210  14.824   4.566
89452W        W57857  12.726  34.509  14.817
89453W        W57858  30.228  43.755   2.970
89454W        W57859  19.028  39.674   1.641
89455W        W57860  31.669  13.691   2.215
89456W        W57861   2.206  37.586  11.168
89457W        W57862  37.570  36.989   2.450
89458W        W57863   6.450   4.314   1.309
89459W        W57864  19.147  22.210   1.394
89460W        W57865  10.357  34.949   1.682
89461W        W57866  20.621  40.732   2.821
89462W        W57867  29.910  33.034  13.490
89463W        W57868  11.960  20.819   2.711
89464W        W57869  13.996  40.738   4.234
89465W        W57870  24.101  31.642   4.036
89466W        W57871  15.512  34.449  14.451
89467W        W57872  32.410  29.886   4.088
89468W        W57873  37.511  37.204   9.919
89469W        W57874  22.648  44.948  12.449
89470W        W57875  24.824  33.761  13.981
89471W        W57876  34.691  23.400   4.239
89472W        W57877  22.729  34.139   4.260
89473W        W57878  22.062  14.027  12.514
89474W        W57879  12.306  18.200  11.575
89475W        W57880  27.665   0.953  12.297
89476W        W57881   6.313  35.944   2.144
89477W        W57882  38.059  41.386   4.535
89478W        W57883   0.785  35.311   2.798
89479W        W57884  40.511  36.461  14.874
89480W        W57885  29.436  21.027   1.426
89481W        W57886  24.660  21.673   2.701
89482W        W57887  41.003  34.832  13.977
89483W        W57888   8.385   4.450   4.720
89484W        W57889   7.193  33.940   0.296
89485W        W57890   8.269   4.990  11.662
89486W        W57891  44.189  44.532  11.063
89487W        W57892  38.029  20.966   3.376
89488W        W57893  39.907   1.678  12.067
89489W        W57894  21.030  11.083   1.845
89490W        W57895  40.808  14.916  12.453
89491W        W57896   8.815  33.356  13.703
89492W        W57897  44.022  21.190   4.975
89493W        W57898  27.050  28.223   3.679
89494W        W57899  34.522  32.851  14.487
89495W        W57900  38.779  41.599   3.191
89496W        W57901  37.517  18.339   1.911
89497W        W57902  38.751  41.785  11.850
89498W        W57903  37.232  26.739  11.880
89499W        W57904  31.232   0.711   2.624
89500W        W57905   2.450  12.803  13.328
89501W        W57906   6.368  12.846   3.542
89502W        W57907  36.013  22.994   3.702
89503W        W57908  20.860   1.236   2.843
89504W        W57909  39.514  42.265  11.882
89505W        W57910   2.027  17.545  13.481
89506W        W57911  32.966  36.533   2.868
89507W        W57912  40.980  23.101   3.011
89508W        W57913  11.816  13.755   4.132
89509W        W57914  32.934  15.606  10.653
89510W        W57915   6.198  14.608   0.227
89511W        W57916  35.400  36.110  11.683
89512W        W57917  32.725  28.430   2.745
89513W        W57918   0.268   6.313   0.852
89514W        W57919   9.481   0.191  10.536
89515W        W57920   4.407  28.244   2.228
89516W        W57921   2.278   8.900   2.492
89517W        W57922   4.875   7.484   1.064
89518W        W57923  10.845  14.198  11.738
89519W        W57924  23.679  11.762   1.764
89520W        W57925   4.009  24.004  11.857
89521W        W57926  29.423  31.410   3.356
89522W        W57927  13.763  41.204   0.445
89523W        W57928  39.893   6.177   4.340
89524W        W57929   0.040  29.372   0.385
89525W        W57930  24.206  42.454   2.856
89526W        W57931   8.604  38.362   3.783
89527W        W57932  13.135  30.895   3.941
89528W        W57933  30.893  32.440   1.181
89529W        W57934  27.202  41.773   1.443
89530W        W57935  11.774  20.583  14.879
89531W        W57936   2.853  16.585   4.630
89532W        W57937   3.650   7.800   3.218
89533W        W57938  25.611  21.551  12.390
89534W        W57939  29.332   7.110  13.684
89535W        W57940   2.786  25.058   1.417
89536W        W57941   1.196  35.944  10.448
89537W        W57942  10.220   3.536   3.723
89538W        W57943  19.792  30.129   2.819
89539W        W57944  19.180  29.482  12.866
89540W        W57945  27.639  33.603  14.358
89541W        W57946  33.176  37.110  11.157
89542W        W57947   6.710  31.642   0.398
89543W        W57948   3.106  34.054  11.648
89544W        W57949  16.537  37.362   1.710
89545W        W57950   2.961  44.558  12.073
89546W        W57951  41.434  33.391  11.520
89547W        W57952   6.086  11.382  12.401
89548W        W57953  13.701  23.507  11.405
89549W        W57954  42.618  33.863  10.993
89550W        W57955  38.142  32.409  11.923
89551W        W57956  43.817  24.027   2.785
89552W        W57957   0.282  34.368   3.589
89553W        W57958  24.310   0.993   0.925
89554W        W57959  29.862   1.780   2.778
89555W        W57960  20.311   1.621  10.526
89556W        W57961  42.976  24.625  11.520
89557W        W57962  25.210  14.694   2.684
89558W        W57963   3.255  18.825  14.624
89559W        W57964  27.377   0.278   9.965
89560W        W57965   7.679  31.141  13.388
89561W        W57966  15.219  24.845  14.923
89562W        W57967   3.778   6.933  13.520
89563W        W57968  16.990  40.262   3.263
89564W        W57969  27.429  15.679   0.406
89565W        W57970   4.904  17.108   2.321
89566W        W57971   7.741  28.633  12.647
89567W        W57972  37.138  13.778  13.415
89568W        W57973  25.474  24.946   0.743
89569W        W57974  20.534  23.089   1.439
89570W        W57975  13.295  20.141  11.443
89571W        W57976   9.316  21.368  13.971
89572W        W57977   5.854  24.865   3.163
89573W        W57978  19.931  14.610  12.003
89574W        W57979  35.582  15.574   4.659
89575W        W57980  42.503  19.260   2.187
89576W        W57981  27.200  15.154  12.844
89577W        W57982  38.859  37.854  13.402
89578W        W57983   7.215  32.398   4.691
89579W        W57984  39.032   4.725   3.528
89580W        W57985  13.203  33.082   3.576
89581W        W57986  39.688  14.335   3.748
89582W        W57987   7.185  18.243  11.587
89583W        W57988  33.617  28.405   3.274
89584W        W57989  28.968   0.141   1.220
89585W        W57990   5.240   5.914   4.489
89586W        W57991  25.016  20.766  14.288
89587W        W57992  42.578  44.802   0.858
89588W        W57993  19.569  40.791  11.966
89589W        W57994  40.065  16.518  14.005
89590W        W57995   0.167  20.887   2.396
89591W        W57996  23.462  22.038   2.890
89592W        W57997  33.602  29.610  13.507
89593W        W57998   6.840   6.991   2.229
89594W        W57999   2.742  24.233  13.374
89595W        W58000  32.829  10.158  14.898
89596W        W58001  32.074  11.357  13.013
89597W        W58002   2.686  14.243  13.271
89598W        W58003  32.394  26.606  12.520
89599W        W58004  12.221  42.299   3.589
89600W        W58005  12.592  34.096   4.154
89601W        W58006  44.499  25.430  14.200
89602W        W58007  33.599  40.796  13.611
89603W        W58008  36.001  11.935   3.817
89604W        W58009  21.605   6.929   0.438
89605W        W58010  17.971   6.874   0.980
89606W        W58011  22.994  12.366  11.150
89607W        W58012  25.460  30.904   4.762
89608W        W58013  10.922  21.510   1.951
89609W        W58014  41.920  32.978  14.359
89610W        W58015  37.591  21.949  12.407
89611W        W58016  29.877   1.515   4.487
89612W        W58017  32.487  39.418   2.298
89613W        W58018   4.257   6.509  13.071
89614W        W58019  36.605   5.729   4.258
89615W        W58020   2.763  20.103   0.338
89616W        W58021  23.196  39.337   3.715
89617W        W58022  27.513  21.488   3.092
89618W        W58023  27.043  26.997  10.883
89619W        W58024  20.517  11.095  11.688
89620W        W58025  34.921   6.669   4.267
89621W        W58026  12.706  26.861  10.200
89622W        W58027   8.902  14.573  13.522
89623W        W58028  11.389  16.388  14.726
89624W        W58029  19.221  23.992  11.563
89625W        W58030  16.046  17.306  13.120
89626W        W58031  34.072  34.374  10.530
89627W        W58032  42.645  18.798  14.882
89628W        W58033   3.410  28.736  13.576
89629W        W58034  11.669   6.351   3.126
89630W        W58035  33.617  28.483   4.829
89631W        W58036  40.961   9.059  14.309
89632W        W58037  29.939  25.094   1.633
89633W        W58038   7.215  40.252   0.501
89634W        W58039  31.506  32.659   1.770
89635W        W58040  40.347   9.199   3.644
89636W        W58041   4.794  21.638  11.884
89637W        W58042  39.339  42.635   4.925
89638W        W58043   6.804  39.995  10.812
89639W        W58044   9.607   4.508   0.452
89640W        W58045  38.499  23.134   0.807
89641W        W58046  17.376  38.571  12.202
89642W        W58047  36.895  33.337  14.372
89643W        W58048  24.800  29.646  12.470
89644W        W58049  15.926  36.145  11.974
89645W        W58050  28.001   3.281   2.892
89646W        W58051  12.551  33.407  12.896
89647W        W58052  10.439  28.762  13.414
89648W        W58053  26.600  10.124   2.251
89649W        W58054   5.372  16.790  13.957
89650W        W58055  27.388   9.950  12.427
89651W        W58056  12.359  31.440  11.460
89652W        W58057   9.107  16.024   3.635
89653W        W58058  23.601  14.629   4.898
89654W        W58059   4.408  32.914  14.911
89655W        W58060  13.585  28.068   2.644
89656W        W58061   7.323  27.156  10.768
89657W        W58062   4.163  27.685  10.791
89658W        W58063  10.799  32.870  14.889
89659W        W58064  11.886  44.428   3.343
89660W        W58065  10.858  30.108   2.176
89661W        W58066  21.171  14.035  14.523
89662W        W58067  40.435  29.733   1.285
89663W        W58068  11.410  39.110   1.865
89664W        W58069  21.172   8.805   3.297
89665W        W58070  21.249  21.002   0.804
89666W        W58071  25.901  40.241  13.920
89667W        W58072   5.792  42.795   0.087
89668W        W58073  33.415  26.244  14.523
89669W        W58074   4.771  19.998   1.802
89670W        W58075   0.331  41.842  13.854
89671W        W58076  20.634  35.248   0.018
89672W        W58077  31.105   5.476   4.100
89673W        W58078  19.264  40.356  14.037
89674W        W58079  30.650   2.431  10.715
89675W        W58080   1.577  39.205   4.246
89676W        W58081  16.951  43.304  10.582
89677W        W58082  30.389  18.384   3.818
89678W        W58083  14.764   9.898   3.099
89679W        W58084  44.181  41.337   3.656
89680W        W58085  29.872  20.254   4.169
89681W        W58086  11.247  10.595   4.612
89682W        W58087  25.120  29.631  10.910
89683W        W58088  13.679  18.103   0.326
89684W        W58089  32.060  38.798  13.027
89685W        W58090  22.050   9.204   4.320
89686W        W58091   9.677  18.587  14.366
89687W        W58092  10.600  17.065  13.349
89688W        W58093  23.689  21.270   4.050
89689W        W58094  10.653  12.178   3.205
89690W        W58095  42.744   1.700  10.651
89691W        W58096  42.446  11.393   2.639
89692W        W58097   2.948  33.595  10.484
89693W        W58098   7.620  33.380   0.937
89694W        W58099  43.225  20.795  12.861
89695W        W58100  22.251   6.827  11.541
89696W        W58101  20.999   9.983  13.009
89697W        W58102  26.194  28.145   4.728
89698W        W58103  41.415   3.356   0.499
89699W        W58104   9.460  17.079   3.387
89700W        W58105   6.610   8.312  11.665
89701W        W58106  11.264   2.861  14.475
89702W        W58107  16.606   7.232  12.595
89703W        W58108  10.238   2.816   1.266
89704W        W58109   6.563  35.512   2.995
89705W        W58110  16.026  23.171   4.732
89706W        W58111  19.613  35.278  13.309
89707W        W58112  32.081  38.363  13.873
89708W        W58113  43.601  11.685  14.828
89709W        W58114  32.716  21.285   2.213
89710W        W58115  34.341  33.937   1.912
89711W        W58116  24.624   8.828  13.927
89712W        W58117   0.032   7.208  14.960
89713W        W58118  11.204   8.280  10.672
89714W        W58119   3.428  43.815   4.621
89715W        W58120   6.915  41.969   2.282
89716W        W58121  19.722  36.597   4.293
89717W        W58122  14.847  23.564   2.743
89718W        W58123  20.443  32.650  11.913
89719W        W58124  26.181  39.994  14.310
89720W        W58125  25.413  44.080   1.836
89721W        W58126  31.651  14.821   0.949
89722W        W58127  43.032   2.714   3.271
89723W        W58128  17.275  26.024   0.480
89724W        W58129  37.624  10.705  12.872
89725W        W58130   5.443   1.971   4.103
89726W        W58131  14.350  32.328   1.197
89727W        W58132  27.316  34.840   2.557
89728W        W58133  37.125  25.136   2.663
89729W        W58134  44.058  23.784  13.415
89730W        W58135  36.439  20.708  14.863
89731W        W58136  17.219  15.009   2.735
89732W        W58137  42.283  30.376  13.813
89733W        W58138  21.938  22.138  14.881
89734W        W58139  39.533  10.123  14.979
89735W        W58140  28.403  24.721   1.186
89736W        W58141  40.390  37.690   1.845
89737W        W58142  20.423  31.865  11.163
89738W        W58143   4.629  28.050  13.958
89739W        W58144   1.260  43.898   2.724
89740W        W58145  11.131   4.490  12.931
89741W        W58146  33.569  15.631   1.311
89742W        W58147  15.542  39.028  12.442
89743W        W58148  23.293  39.766   3.486
89744W        W58149  15.837  35.527   2.742
89745W        W58150  40.458  22.108  14.757
89746W        W58151  20.864  25.067  14.894
89747W        W58152  32.997  25.587  10.779
89748W        W58153  21.164  27.531  11.447
89749W        W58154  41.839  18.667  12.378
89750W        W58155  44.723  27.593   3.639
89751W        W58156  12.934  27.663   3.064
89752W        W58157   9.152  43.852   0.345
89753W        W58158  37.184  42.780  12.431
89754W        W58159  24.802  30.541   0.295
89755W        W58160  10.184  26.628  10.791
89756W        W58161  12.172  28.171  10.799
89757W        W58162  21.984  34.303  11.636
89758W        W58163  33.976  44.521  10.564
89759W        W58164  29.625  20.285   3.677
89760W        W58165  21.204  32.197  12.157
89761W        W58166  10.284  43.324  12.442
89762W        W58167  24.460  24.633  12.434
89763W        W58168  43.965  10.322   4.604
89764W        W58169  26.047  17.524   3.471
89765W        W58170   6.631  16.604   2.169
89766W        W58171  29.458  26.675   1.821
89767W        W58172  22.127  25.637  13.900
89768W        W58173  20.701  29.114   2.866
89769W        W58174  13.324  30.403   3.320
89770W        W58175  30.417  28.370   3.614
89771W        W58176  14.555   4.193   4.835
89772W        W58177   5.434  13.860  14.087
89773W        W58178  36.447  32.263   4.552
89774W        W58179   0.670  13.995   3.702
89775W        W58180   8.038  13.541   2.418
89776W        W58181  31.415  30.099   3.206
89777W        W58182  25.866  28.182  12.610
89778W        W58183   0.836  18.198  11.565
89779W        W58184  14.746  33.092   2.309
89780W        W58185  40.119   8.433  12.060
89781W        W58186  20.524  38.375  11.832
89782W        W58187  11.398  25.173   4.174
89783W        W58188  38.857  16.151   0.274
89784W        W58189   9.851  16.611  13.849
89785W        W58190  17.024  18.126  14.405
89786W        W58191  16.332  41.000  11.723
89787W        W58192  16.288  14.648  13.923
89788W        W58193   3.259  23.002  11.148
89789W        W58194  15.618  11.846   4.109
89790W        W58195   0.161   9.066   1.331
89791W        W58196  32.748  14.799   1.915
89792W        W58197  10.444  21.029   0.262
89793W        W58198   1.420  34.025  13.036
89794W        W58199  36.510  15.646   4.587
89795W        W58200  42.139  44.338  14.733
89796W        W58201  30.183   7.818   2.384
89797W        W58202  21.550  12.333  12.535
89798W        W58203   1.699  26.040  12.395
89799W        W58204  44.231  39.914   3.656
89800W        W58205  36.865  29.901  14.892
89801W        W58206  30.487  35.025  10.495
89802W        W58207  28.522  40.170   2.102
89803W        W58208  37.811  42.906  13.827
89804W        W58209  18.590  41.007  11.763
89805W        W58210   4.836  40.512  11.133
89806W        W58211  19.976  10.115  10.689
89807W        W58212  40.963   3.704   0.403
89808W        W58213  43.494  29.964  11.915
89809W        W58214  12.700  27.088  13.459
89810W        W58215  32.052  31.092  13.988
89811W        W58216  37.043  39.319  11.183
89812W        W58217  31.673  30.171   2.690
89813W        W58218  23.518  16.679   2.856
89814W        W58219  23.695  38.401  12.550
89815W        W58220   4.470  30.884  10.731
89816W        W58221  19.655  38.179  11.193
89817W        W58222  18.683  10.625   2.241
89818W        W58223  32.466  21.780   4.134
89819W        W58224  15.658  39.813  12.528
89820W        W58225  26.567  25.792   0.738
89821W        W58226  43.560  14.282   5.009
89822W        W58227   3.782  31.328   0.777
89823W        W58228   9.343   4.256   0.051
89824W        W58229  34.798  35.847  12.581
89825W        W58230   4.499  21.156   3.384
89826W        W58231  15.544  11.410  11.843
89827W        W58232   8.212  40.126   2.629
89828W        W58233  38.056  15.269  12.593
89829W        W58234  26.083  11.692  11.587
89830W        W58235  14.442   7.760  12.046
89831W        W58236   9.726  19.097  14.482
89832W        W58237  23.604  10.375   4.147
89833W        W58238  43.651  17.609   2.714
89834W        W58239   3.371  38.436   2.757
89835W        W58240  40.921  35.205   1.501
89836W        W58241   4.328  19.108  13.552
89837W        W58242  21.725  22.599  10.618
89838W        W58243   4.715  44.353  13.322
89839W        W58244  17.087  30.962   2.124
89840W        W58245  33.104  27.561   2.306
89841W        W58246  25.959   7.215  10.930
89842W        W58247  39.340  28.903  12.203
89843W        W58248  14.212  18.222  13.596
89844W        W58249  10.375  10.305  12.866
89845W        W58250   8.179  33.197   4.268
89846W        W58251  18.169  15.103  12.313
89847W        W58252  10.667  17.821  14.401
89848W        W58253  10.833   9.006   1.431
89849W        W58254  23.098  42.707   4.518
89850W        W58255  15.321  23.719  11.136
89851W        W58256  40.474  39.748  10.643
89852W        W58257  10.865  20.178  11.569
89853W        W58258  28.043  15.334  10.701
89854W        W58259   6.601   6.372  10.653
89855W        W58260  15.373  17.084  10.662
89856W        W58261  43.044   4.829  13.683
89857W        W58262   4.102  13.071  11.473
89858W        W58263  12.856  21.535  10.677
89859W        W58264   7.758   2.337  12.068
89860W        W58265   7.558   1.845   3.222
89861W        W58266   9.402  15.597   3.682
89862W        W58267   5.411  31.162  14.301
89863W        W58268   7.653  44.259   1.173
89864W        W58269  42.656  11.864   0.353
89865W        W58270  42.836  42.889  12.043
89866W        W58271   5.442  21.287   1.664
89867W        W58272  44.216   6.398   1.810
89868W        W58273  17.025  38.834  13.520
89869W        W58274  40.985  27.116   4.714
89870W        W58275  35.922   2.326   4.476
89871W        W58276   9.083  33.470  10.693
89872W        W58277  35.067   7.910   0.857
89873W        W58278   1.474   7.140   0.463
89874W        W58279  17.534  27.920  12.491
89875W        W58280  16.181  24.161  12.213
89876W        W58281  10.960  43.268  14.992
89877W        W58282   0.942   8.948   1.243
89878W        W58283  33.008   0.614  13.814
89879W        W58284   1.796   1.009   4.580
89880W        W58285  21.025  32.690  12.077
89881W        W58286  23.772   4.209   3.892
89882W        W58287  31.565   6.188  13.399
89883W        W58288  36.851  36.292  12.516
89884W        W58289  32.581  38.898   2.227
89885W        W58290  31.238  15.922   2.808
89886W        W58291  21.924  23.393  10.206
89887W        W58292  40.319  30.978   2.768
89888W        W58293  11.797  24.799   3.683
89889W        W58294  27.140  29.179   3.573
89890W        W58295  40.493   7.116  13.045
89891W        W58296  27.678  14.383  10.599
89892W        W58297  26.051   8.138   3.775
89893W        W58298  29.571  16.910  13.861
89894W        W58299   2.698  29.557  10.725
89895W        W58300   9.953  24.432  12.456
89896W        W58301  41.778  16.316  13.127
89897W        W58302  16.107  32.887   1.286
89898W        W58303  18.008   7.251  12.097
89899W        W58304  34.909  38.372   0.964
89900W        W58305  42.820   3.707  11.615
89901W        W58306  44.344  21.211   3.211
89902W        W58307  36.374   4.862  12.077
89903W        W58308  32.318  21.081   0.816
89904W        W58309  29.045  17.265  14.838
89905W        W58310  12.017   6.670  12.531
89906W        W58311  15.112  15.131  14.815
89907W        W58312  29.479  30.984   1.611
89908W        W58313  37.131   5.135  12.414
89909W        W58314  43.889  15.723  12.926
89910W        W58315  42.523  23.525  11.205
89911W        W58316  24.698  40.531  12.569
89912W        W58317  25.726  40.002  13.379
89913W        W58318  32.036   2.368   3.382
89914W        W58319  13.098   4.762   0.892
89915W        W58320   1.898  16.060   1.815
89916W        W58321  20.348  25.335  12.333
89917W        W58322   1.904  22.984  14.411
89918W        W58323  31.374  38.661  10.565
89919W        W58324  16.057  33.523   0.681
89920W        W58325  43.217  22.293   2.538
89921W        W58326  41.936  26.493  11.671
89922W        W58327  11.083  40.507   1.657
89923W        W58328  11.856  18.526  10.231
89924W        W58329  15.036   4.333   4.386
89925W        W58330  13.052  37.786   3.069
89926W        W58331  34.077  33.858   2.811
89927W        W58332  30.115  26.943  12.079
89928W        W58333  12.779  34.126  13.571
89929W        W58334  10.787  25.765  13.160
89930W        W58335  11.715  21.002  10.739
89931W        W58336  17.315  13.746   1.020
89932W        W58337   1.235  43.999   4.587
89933W        W58338  28.568  25.517  12.429
89934W        W58339  43.549  10.976  10.769
89935W        W58340  32.364   2.456   4.966
89936W        W58341  25.672  31.448   3.203
89937W        W58342  15.497  26.733   3.458
89938W        W58343  20.811  15.043  11.072
89939W        W58344  14.794  42.641  13.577
89940W        W58345  28.081  40.914   4.206
89941W        W58346  10.190  33.029   3.825
89942W        W58347   7.524  38.955   9.828
89943W        W58348  30.638  44.136  14.840
89944W        W58349  31.811   8.003   3.851
89945W        W58350  36.852  16.982  12.400
89946W        W58351  40.151  40.475  13.870
89947W        W58352  24.239  35.211  13.062
89948W        W58353  40.652   5.235   9.784
89949W        W58354  33.371  10.423  12.993
89950W        W58355  41.945  18.593   2.359
89951W        W58356  21.109  13.390  13.909
89952W        W58357   2.825   7.487   1.002
89953W        W58358  23.478  38.587  14.750
89954W        W58359  18.376  37.371   4.698
89955W        W58360   3.132   2.614  11.588
89956W        W58361  19.250   3.364  12.536
89957W        W58362  21.484  30.959   1.773
89958W        W58363  43.847  17.935   0.973
89959W        W58364   1.079   3.288  14.521
89960W        W58365  19.742   1.905  12.907
89961W        W58366  30.691  18.074   5.035
89962W        W58367   7.830  25.642  14.612
89963W        W58368  21.558  26.161  14.297
89964W        W58369  20.438  31.353   1.252
89965W        W58370  34.800  36.941   4.795
89966W        W58371   1.699  28.085  14.593
89967W        W58372  33.267  15.582  13.440
89968W        W58373   5.465   5.668  10.550
89969W        W58374   1.279  31.174  11.629
89970W        W58375  41.825  36.410   2.740
89971W        W58376  30.197  37.458  13.520
89972W        W58377  34.127  43.958  11.408
89973W        W58378  20.922  22.902   1.956
89974W        W58379  26.286   9.371   2.407
89975W        W58380  40.024  17.083   1.721
89976W        W58381  17.630  13.308  14.779
89977W        W58382   4.297   2.787   0.052
89978W        W58383  22.124  23.235   0.977
89979W        W58384  33.734  35.826  14.833
89980W        W58385  14.861  43.406  13.716
89981W        W58386  34.335  36.091  12.538
89982W        W58387  11.036   4.449  10.336
89983W        W58388   1.785  24.449  13.327
89984W        W58389   8.837  36.390  14.872
89985W        W58390  24.485  18.815   3.659
89986W        W58391  13.282  26.175   4.877
89987W        W58392  17.221  20.482  11.110
89988W        W58393  39.611  24.114  12.199
89989W        W58394   6.459  16.245  13.534
89990W        W58395  34.958  36.106   1.912
89991W        W58396  34.336  43.385   2.236
89992W        W58397   6.748  35.370  12.525
89993W        W58398   8.334   1.309  11.597
89994W        W58399  12.096  20.872   2.131
89995W        W58400  44.433  25.510  13.124
89996W        W58401  15.630   0.952   0.093
89997W        W58402  24.384  27.227  14.057
89998W        W58403  42.371  33.404   0.323
89999W        W58404  13.117  11.915  11.456
90000W        W58405  23.991  35.482   0.740
90001W        W58406  23.047  44.795  11.858
90002W        W58407  43.864   9.663   3.217
90003W        W58408  39.032  27.902   4.485
90004W        W58409  15.966  30.179   3.826
90005W        W58410  34.803  24.969  12.359
90006W        W58411  21.711  20.581  14.842
90007W        W58412  14.394  21.671   4.338
90008W        W58413  27.938  17.252  13.568
90009W        W58414  42.827  15.491  14.741
90010W        W58415  43.534  33.415  13.052
90011W        W58416  13.711   6.993   2.881
90012W        W58417  35.510   9.689  11.153
90013W        W58418  28.113  44.494  14.909
90014W        W58419  26.359  35.011   5.035
90015W        W58420  20.651  11.260   2.152
90016W        W58421  18.694  21.774   0.921
90017W        W58422  19.662  44.959  12.868
90018W        W58423  40.387   8.099   1.777
90019W        W58424  22.294   0.444   2.794
90020W        W58425  33.961  21.025  13.862
90021W        W58426   9.998  26.576  11.384
90022W        W58427  37.492  23.231   4.233
90023W        W58428  11.079  13.090   2.594
90024W        W58429  24.310  14.370  14.182
90025W        W58430  18.303  26.117   0.331
90026W        W58431   0.758   1.748   1.661
90027W        W58432  21.641  34.443   4.643
90028W        W58433   2.790  33.351  12.596
90029W        W58434  44.465  36.516   3.111
90030W        W58435  40.255   4.383   0.268
90031W        W58436  10.144  24.797   1.067
90032W        W58437  22.061   2.203  13.003
90033W        W58438   0.929   3.409  11.773
90034W        W58439  43.208  14.253  12.119
90035W        W58440  28.499  29.014  10.826
90036W        W58441  18.632  41.490  13.372
90037W        W58442   4.703  12.758  10.771
90038W        W58443  42.870  41.230   0.395
90039W        W58444   5.849  22.996  10.589
90040W        W58445  42.093  21.346   4.045
90041W        W58446  44.318   8.823  13.378
90042W        W58447   8.076  27.651   4.501
90043W        W58448  24.563   6.861   1.287
90044W        W58449   4.350  24.678   2.256
90045W        W58450  13.848  30.517   3.435
90046W        W58451   3.215   1.195  11.860
90047W        W58452  43.223  18.386  11.481
90048W        W58453  27.183  28.862  13.925
90049W        W58454  14.061   7.342   2.110
90050W        W58455  37.124  20.599   3.642
90051W        W58456  38.331  10.661  10.620
90052W        W58457  11.849   6.991   4.081
90053W        W58458  28.532   4.974  11.111
90054W        W58459  23.638   3.215   9.903
90055W        W58460  14.171  30.576   3.841
90056W        W58461   1.305   1.799   1.713
90057W        W58462   4.871   6.138  11.155
90058W        W58463  20.034  22.202   1.461
90059W        W58464   1.832  27.238   0.033
90060W        W58465  22.511  13.240  11.432
90061W        W58466   8.817  40.749  12.969
90062W        W58467   6.890  29.047  11.193
90063W        W58468  17.452   5.066   4.288
90064W        W58469   8.862  10.819   1.000
90065W        W58470  29.017  18.582   1.400
90066W        W58471   9.632  15.784  12.806
90067W        W58472  17.730  14.264  13.909
90068W        W58473  18.812   7.349   1.842
90069W        W58474   8.470  28.515  11.545
90070W        W58475  18.830  14.193   0.297
90071W        W58476  31.071  26.670   3.289
90072W        W58477  10.669   8.929  10.467
90073W        W58478   7.295  15.765   2.433
90074W        W58479  37.621  11.276  12.174
90075W        W58480  10.403  28.142  10.726
90076W        W58481  16.173  40.767  13.011
90077W        W58482  20.137   6.848  10.289
90078W        W58483   1.903   2.499   1.359
90079W        W58484  25.594  24.195  12.839
90080W        W58485  40.418   4.970   4.987
90081W        W58486  13.745  23.985  10.676
90082W        W58487  35.432  16.164  10.889
90083W        W58488  29.430  37.748   2.338
90084W        W58489   7.216   6.832   4.597
90085W        W58490  10.205  31.059  13.026
90086W        W58491  16.811  35.861   3.262
90087W        W58492  12.444  21.180  12.053
90088W        W58493  19.653  28.675   0.486
90089W        W58494  14.274   7.464   4.993
90090W        W58495  35.468  27.151   0.305
90091W        W58496  34.536   4.525  11.628
90092W        W58497  43.756  12.395  12.479
90093W        W58498  21.145   4.370  12.526
90094W        W58499  11.226  40.013   4.841
90095W        W58500  42.685  40.839   2.993
90096W        W58501   6.338   8.209  14.514
90097W        W58502  38.390  19.842  14.101
90098W        W58503  38.946  41.373  11.062
90099W        W58504  30.170  12.126   2.215
90100W        W58505  11.253  29.759  13.779
90101W        W58506  15.238  42.389   4.561
90102W        W58507  17.173  10.395  13.515
90103W        W58508  27.062   0.478  11.934
90104W        W58509  33.878   9.177   0.877
90105W        W58510   5.792  26.921   2.422
90106W        W58511  37.456  31.094  10.575
90107W        W58512   1.007   0.274   3.180
90108W        W58513   4.440  17.047   3.663
90109W        W58514  27.658  40.643   4.110
90110W        W58515  16.125  33.676  12.417
90111W        W58516  18.310  32.050   1.817
90112W        W58517  37.465  32.916  11.696
90113W        W58518  36.420  31.773   1.958
90114W        W58519  29.972  29.613  13.957
90115W        W58520  36.928  40.725  14.368
90116W        W58521  26.397   5.840  14.927
90117W        W58522  14.217  18.126   4.718
90118W        W58523  25.533   2.382  11.907
90119W        W58524  44.137   8.361   2.757
90120W        W58525  32.654   3.263  11.330
90121W        W58526   3.951  17.089   1.932
90122W        W58527   2.435  35.863   4.073
90123W        W58528   7.134  11.161  11.019
90124W        W58529  24.114  21.994  12.999
90125W        W58530   7.916  15.143  11.115
90126W        W58531  40.362   8.365   3.155
90127W        W58532  31.547  37.350   0.443
90128W        W58533  23.036   6.271  11.667
90129W        W58534   5.904  23.193   4.141
90130W        W58535  11.280  38.575   3.706
90131W        W58536   0.367  12.132  14.970
90132W        W58537  41.474   6.312   3.299
90133W        W58538  34.047  36.577  14.334
90134W        W58539   0.537  24.485  13.075
90135W        W58540  32.993   2.923   0.335
90136W        W58541  28.623  34.496  12.896
90137W        W58542   4.499  30.903  13.027
90138W        W58543  10.820   8.716  14.495
90139W        W58544  44.360  23.514  12.897
90140W        W58545  18.068   5.255   9.537
90141W        W58546  19.352   6.185   0.196
90142W        W58547  21.078   2.470   1.802
90143W        W58548  14.101  43.183  12.283
90144W        W58549   3.005   2.436  13.988
90145W        W58550  14.350  30.960  10.502
90146W        W58551  29.943  34.348   1.350
90147W        W58552   6.666  23.800  14.423
90148W        W58553  15.251  19.998  12.272
90149W        W58554  35.865  18.659   2.611
90150W        W58555  13.872  32.315   4.196
90151W        W58556   7.444   7.726   1.929
90152W        W58557  22.182  25.123   3.388
90153W        W58558  12.815  23.747   4.174
90154W        W58559  39.631   9.233  14.555
90155W        W58560  28.325  23.511  14.375
90156W        W58561   8.963  30.614  13.691
90157W        W58562  12.535  37.221  13.944
90158W        W58563  41.061  33.856   4.663
90159W        W58564   4.729  39.040   4.156
90160W        W58565  36.004   3.290   4.592
90161W        W58566  11.418  24.018   0.400
90162W        W58567  17.060  42.303  14.882
90163W        W58568  21.635  30.258  10.614
90164W        W58569  25.420   7.377  13.381
90165W        W58570  44.828  32.071  13.497
90166W        W58571  17.774  21.354   5.425
90167W        W58572  10.174  40.360   1.481
90168W        W58573  23.129   3.342  13.960
90169W        W58574  27.979  22.583   4.549
90170W        W58575  40.027  14.333  10.957
90171W        W58576  13.272  15.779  12.563
90172W        W58577  34.934  25.442   4.364
90173W        W58578  38.379  28.443  12.503
90174W        W58579  21.145  11.866  10.611
90175W        W58580  10.157  44.984   3.907
90176W        W58581  10.288   0.730   0.436
90177W        W58582  30.859  10.379  12.993
90178W        W58583  10.070  10.219   1.661
90179W        W58584  39.694  19.134  11.489
90180W        W58585  37.724  29.041  12.536
90181W        W58586  20.041   0.466  13.505
90182W        W58587  22.529   4.276  10.649
90183W        W58588   5.905  12.709   3.282
90184W        W58589   2.167  21.982  13.877
90185W        W58590   7.201  13.789   0.701
90186W        W58591  11.182  19.354   3.473
90187W        W58592   8.870   7.929  14.270
90188W        W58593  26.164  28.556   0.952
90189W        W58594  29.076  33.059   2.143
90190W        W58595  13.563  24.376  11.341
90191W        W58596  10.222   6.451   5.071
90192W        W58597   9.718  12.834   0.414
90193W        W58598  15.766  22.666   3.645
90194W        W58599  44.489   0.707  13.429
90195W        W58600  17.388  23.561   1.462
90196W        W58601  37.828  39.161   1.659
90197W        W58602  35.546   0.528  11.484
90198W        W58603   1.694  12.163   2.901
90199W        W58604  26.234  40.034   4.168
90200W        W58605  15.352  13.766  11.105
90201W        W58606  10.304   9.470   2.742
90202W        W58607   2.876  31.079   4.148
90203W        W58608   1.630  25.475  13.154
90204W        W58609  26.757   3.002  12.580
90205W        W58610  28.686  30.951   0.304
90206W        W58611   3.887  19.353   2.175
90207W        W58612  39.138  40.587  12.423
90208W        W58613   0.522  38.949   2.076
90209W        W58614  40.151  30.594  13.903
90210W        W58615  40.866  14.289   4.542
90211W        W58616   9.250   8.554   2.715
90212W        W58617  10.218  19.814   5.050
90213W        W58618  33.918  14.162  11.634
90214W        W58619  37.258  37.753   3.550
90215W        W58620  33.974  33.627  13.530
90216W        W58621  38.979  32.627   1.290
90217W        W58622  42.406  28.066   4.390
90218W        W58623  37.746  23.730  12.014
90219W        W58624   4.829  39.257   0.451
90220W        W58625  10.939  26.967   9.827
90221W        W58626  17.208  15.098   3.707
90222W        W58627   5.350  19.358  10.632
90223W        W58628  14.054   2.333  11.341
90224W        W58629  21.254   0.453   1.825
90225W        W58630  24.359  36.449   0.835
90226W        W58631  36.630   9.659   2.795
90227W        W58632  30.822   9.945   1.457
90228W        W58633  37.954  36.581  12.782
90229W        W58634  33.389   9.748  14.027
90230W        W58635  41.250  10.112   2.371
90231W        W58636  20.365  44.268   0.372
90232W        W58637  10.659   6.624  11.685
90233W        W58638  36.235  43.407   0.104
90234W        W58639   6.274  44.766   3.701
90235W        W58640  11.423   1.650   3.198
90236W        W58641  38.123  42.925  13.409
90237W        W58642  18.969  11.591   0.714
90238W        W58643  26.619  23.540   0.320
90239W        W58644  19.058  10.849  12.088
90240W        W58645  18.624   9.419  12.420
90241W        W58646  23.372  21.146   1.624
90242W        W58647   2.265  22.252   3.811
90243W        W58648  44.767  17.712   4.810
90244W        W58649   2.269  23.804   1.246
90245W        W58650  42.269  27.719  11.951
90246W        W58651  40.054  28.154   2.735
90247W        W58652   8.107  21.476  11.569
90248W        W58653  29.460   5.413  13.333
90249W        W58654  14.259   9.312  11.924
90250W        W58655  27.653  30.138  11.870
90251W        W58656  23.348  19.801   2.339
90252W        W58657  15.632  18.283  11.990
90253W        W58658  24.337  40.971   0.136
90254W        W58659   9.754  21.468   2.354
90255W        W58660   1.112   3.021  10.890
90256W        W58661  18.010  30.113  12.012
90257W        W58662  42.801  26.933  14.971
90258W        W58663  41.415   4.348  13.904
90259W        W58664  13.549  15.163   1.357
90260W        W58665  27.173  36.294   2.361
90261W        W58666  10.354   5.868  11.590
90262W        W58667  32.062  35.861  10.724
90263W        W58668  40.125  29.033  12.633
90264W        W58669  34.583  22.288   3.739
90265W        W58670  39.808  10.204  13.100
90266W        W58671  21.264  10.154  11.102
90267W        W58672  20.033  19.807   0.832
90268W        W58673   3.169   9.061   1.474
90269W        W58674   8.124   3.746  13.589
90270W        W58675  31.842   3.499   0.825
90271W        W58676  38.088   5.435  13.346
90272W        W58677   3.281  33.416   4.692
90273W        W58678  23.017   1.831  14.813
90274W        W58679  22.286  17.596   0.764
90275W        W58680  18.580  37.384  12.373
90276W        W58681  28.611  32.567  14.943
90277W        W58682  11.161  22.970  13.943
90278W        W58683  40.372  27.992   0.897
90279W        W58684  27.489   3.732   1.866
90280W        W58685  44.462   8.704   2.522
90281W        W58686   0.954  20.238   2.004
90282W        W58687  16.381  22.138   1.911
90283W        W58688   0.842   5.121  11.391
90284W        W58689  25.532  20.020  13.458
90285W        W58690  19.138  43.910   1.559
90286W        W58691  18.660  24.547  10.476
90287W        W58692   8.322  25.890   1.382
90288W        W58693  15.717  11.125  12.861
90289W        W58694  19.763  27.068   2.144
90290W        W58695  11.598  36.791   2.808
90291W        W58696  30.629  18.727  14.317
90292W        W58697  26.534   1.958  10.762
90293W        W58698  27.692  42.432   2.829
90294W        W58699   1.769   9.769  12.329
90295W        W58700  35.033  27.554   2.724
90296W        W58701   9.958  32.328  10.107
90297W        W58702  33.315  10.090   3.698
90298W        W58703  41.942  28.195   4.218
90299W        W58704   0.037  29.711   2.522
90300W        W58705  10.670   9.634   0.223
90301W        W58706  28.959   2.691   2.315
90302W        W58707  28.719  13.656  13.961
90303W        W58708  29.629  27.336  14.889
90304W        W58709  14.252  12.312   4.663
90305W        W58710   0.650  15.079  10.986
90306W        W58711  35.069  28.194   0.712
90307W        W58712  38.333  19.895  14.979
90308W        W58713  18.608  35.961  12.184
90309W        W58714  12.895  34.983   0.958
90310W        W58715  13.169  11.246  13.912
90311W        W58716  14.452   2.592  13.343
90312W        W58717  44.728  22.934  10.807
90313W        W58718  34.293   1.025  11.997
90314W        W58719  19.852  32.971   3.366
90315W        W58720  19.338   5.870   3.293
90316W        W58721  18.460  16.749   4.546
90317W        W58722  35.539  29.547   0.766
90318W        W58723   4.600  31.470  14.183
90319W        W58724  37.443   4.106  11.402
90320W        W58725  27.007  21.264   4.079
90321W        W58726  34.044  13.154   1.807
90322W        W58727  34.563   3.148   3.855
90323W        W58728   3.303  43.386  11.991
90324W        W58729  13.425  29.226  10.324
90325W        W58730  27.913  28.002  14.854
90326W        W58731  38.012   1.530   3.810
90327W        W58732  33.461  18.796   4.572
90328W        W58733   9.073  21.659  11.294
90329W        W58734  11.645  28.972  14.174
90330W        W58735  25.249  30.813   2.727
90331W        W58736   8.360  21.770  13.623
90332W        W58737  22.422  11.590   1.170
90333W        W58738  16.655  42.322   1.640
90334W        W58739  31.689   0.457   2.612
90335W        W58740  32.508   8.270   0.769
90336W        W58741  34.518   8.438   2.461
90337W        W58742   9.826  13.433  12.470
90338W        W58743  34.963  25.366  13.306
90339W        W58744  38.142  43.426   1.340
90340W        W58745   7.335  34.893  12.135
90341W        W58746  29.941  17.337  12.999
90342W        W58747  28.094  23.550   0.194
90343W        W58748  44.200  32.380   3.570
90344W        W58749  35.619   0.242  12.419
90345W        W58750   4.358  31.381  12.820
90346W        W58751  11.346   6.737   0.011
90347W        W58752  16.265  42.079  11.561
90348W        W58753   9.227   2.096   5.138
90349W        W58754  40.488  20.594  12.370
90350W        W58755  42.912  41.577  12.931
90351W        W58756  21.756  30.471   0.384
90352W        W58757   5.465   9.831   0.400
90353W        W58758  44.475  18.504   1.282
90354W        W58759  44.257  14.699  14.506
90355W        W58760  39.813   9.931   2.454
90356W        W58761  11.151  23.517   3.122
90357W        W58762  38.341  44.724  13.645
90358W        W58763  14.313  27.049   4.855
90359W        W58764  15.717  26.852  10.656
90360W        W58765  16.660  21.114  13.518
90361W        W58766  36.009  22.931   1.153
90362W        W58767   2.733  24.298  11.058
90363W        W58768  12.233  37.789   1.816
90364W        W58769  32.559  20.200   1.796
90365W        W58770  23.303   4.306  13.128
90366W        W58771  21.201  31.404  12.480
90367W        W58772   8.705  38.074  12.956
90368W        W58773  43.217  38.997   1.864
90369W        W58774   1.230  19.599   4.103
90370W        W58775   4.461   2.367  12.512
90371W        W58776   5.344  35.187  14.186
90372W        W58777  26.776  29.412   3.180
90373W        W58778   3.090  36.471  13.868
90374W        W58779   9.177   9.083  11.046
90375W        W58780   8.486  35.113  13.895
90376W        W58781   5.003  33.685  13.818
90377W        W58782   8.329  31.093   1.058
90378W        W58783  38.211  33.357   1.163
90379W        W58784  33.980  15.139  14.522
90380W        W58785  23.983  33.535  13.059
90381W        W58786  18.405  15.122   1.369
90382W        W58787  12.704  19.144   2.860
90383W        W58788  39.494  24.321   1.755
90384W        W58789   2.225  31.564  11.880
90385W        W58790  27.597  43.013  10.875
90386W        W58791  25.040  42.202  11.992
90387W        W58792  40.548  40.235   3.754
90388W        W58793   6.496  29.060   4.993
90389W        W58794  29.272  13.249   0.975
90390W        W58795  20.136  34.358  11.714
90391W        W58796  14.702  31.974  11.250
90392W        W58797  24.125   5.878   1.991
90393W        W58798  10.629   3.129  11.387
90394W        W58799   0.890  24.605  13.435
90395W        W58800  34.840   9.306  14.990
90396W        W58801  17.860  31.031  12.977
90397W        W58802  41.932  38.810   1.238
90398W        W58803   4.441  25.976  13.858
90399W        W58804  27.641  31.916  13.285
90400W        W58805  20.785  16.499   4.087
90401W        W58806  25.267   2.391   2.365
90402W        W58807  36.053  13.885   0.527
90403W        W58808  40.826  21.410   1.925
90404W        W58809  36.639  16.685  13.438
90405W        W58810  38.041  10.193  13.913
90406W        W58811  28.991  27.240   3.563
90407W        W58812  18.160   5.687  12.418
90408W        W58813  11.031  10.260   1.851
90409W        W58814  36.523  37.428  14.403
90410W        W58815  37.701  42.917  11.190
90411W        W58816  41.146  23.762   1.408
90412W        W58817  15.902  31.871   2.845
90413W        W58818  34.879   0.313  12.953
90414W        W58819  15.641  14.332   2.352
90415W        W58820  41.255  25.458   4.532
90416W        W58821  18.684  39.130  14.272
90417W        W58822  23.494  35.510   2.216
90418W        W58823  18.835  17.234   0.789
90419W        W58824  32.660   4.651  13.941
90420W        W58825  40.009  43.483   4.584
90421W        W58826  37.310  37.073   3.434
90422W        W58827  20.674  23.514  14.950
90423W        W58828  27.704  33.247   3.233
90424W        W58829  21.171  40.944   5.068
90425W        W58830  38.477  41.314   1.241
90426W        W58831  26.953  42.138  12.335
90427W        W58832  14.241   0.866   3.369
90428W        W58833  11.850   8.270   2.818
90429W        W58834  37.975  31.965   0.843
90430W        W58835   9.846  34.061  12.099
90431W        W58836  31.428   3.348  13.984
90432W        W58837   0.360   2.842   2.152
90433W        W58838  41.329   7.276  14.957
90434W        W58839   5.706  32.508   2.273
90435W        W58840   1.857  17.661   0.958
90436W        W58841  25.682  27.678  12.591
90437W        W58842  38.628   9.727   3.749
90438W        W58843  21.592   6.435   3.825
90439W        W58844  20.360  12.876   3.253
90440W        W58845   8.446  41.453   1.749
90441W        W58846   9.895  37.293  14.506
90442W        W58847  11.041  41.371  13.444
90443W        W58848   1.742  28.610   3.564
90444W        W58849  20.908  36.714  11.168
90445W        W58850  29.249  41.999   3.761
90446W        W58851  33.411  44.837  12.454
90447W        W58852  10.192  42.474  14.050
90448W        W58853  38.581   5.339   4.901
90449W        W58854  15.582   1.230   1.288
90450W        W58855  35.377   9.614  11.999
90451W        W58856   1.891  21.486   4.292
90452W        W58857  13.874  31.951  13.796
90453W        W58858  41.075  44.084  11.744
90454W        W58859  44.300  34.462  10.162
90455W        W58860  31.000   2.353  14.069
90456W        W58861   6.425  43.729   1.199
90457W        W58862   7.769  10.312  14.456
90458W        W58863  41.791   0.229   0.951
90459W        W58864  16.649  11.760  10.538
90460W        W58865   5.530  35.166  12.328
90461W        W58866  30.057  37.114  11.913
90462W        W58867  44.054  16.741   3.190
90463W        W58868  28.060  36.306   2.360
90464W        W58869  37.326  13.848   2.284
90465W        W58870  27.702  19.624  13.560
90466W        W58871   4.491  13.821  11.136
90467W        W58872  44.072  36.899   2.874
90468W        W58873  27.650  24.126  12.698
90469W        W58874  32.095  38.594   4.355
90470W        W58875  25.571   9.185  12.524
90471W        W58876   7.614  22.504  11.799
90472W        W58877  32.995  14.399  12.081
90473W        W58878   7.305  24.068  11.464
90474W        W58879  16.961  25.603   4.845
90475W        W58880   0.572  24.776   2.744
90476W        W58881   2.994   1.593   3.736
90477W        W58882  36.456  29.697  12.436
90478W        W58883   1.730  30.053  12.963
90479W        W58884  14.161  11.080   0.345
90480W        W58885  28.617  25.116   2.371
90481W        W58886  35.491   7.415   2.252
90482W        W58887  39.805  35.495   2.810
90483W        W58888  12.299  21.475  12.461
90484W        W58889  22.980  22.545   4.979
90485W        W58890  25.710  11.803  14.755
90486W        W58891  44.584  10.450   1.842
90487W        W58892  25.056  36.835   2.200
90488W        W58893   4.327  10.812   2.611
90489W        W58894  12.472  30.480   1.815
90490W        W58895  23.478  31.269  12.561
90491W        W58896   6.223  26.882   3.534
90492W        W58897  38.587  20.190  12.871
90493W        W58898  14.970  30.975   0.677
90494W        W58899  13.115  15.003  14.494
90495W        W58900  43.192  37.450   5.023
90496W        W58901   7.854   5.807  13.478
90497W        W58902  43.463  24.033   3.785
90498W        W58903  38.476  10.155  10.565
90499W        W58904  33.521  29.988  14.351
90500W        W58905  32.948  36.893  10.744
90501W        W58906  37.769  16.627   3.568
90502W        W58907  18.153  15.560   3.686
90503W        W58908  18.187   9.377   3.189
90504W        W58909  30.457   1.828  13.998
90505W        W58910   2.832   8.183   3.694
90506W        W58911  43.490  12.717  13.158
90507W        W58912  37.473  23.483   0.727
90508W        W58913  27.356  20.547   0.430
90509W        W58914   9.816  43.102   1.823
90510W        W58915  40.072   5.383   3.741
90511W        W58916   5.716  40.477  11.178
90512W        W58917  18.754  11.235   1.425
90513W        W58918   3.070  14.701  11.931
90514W        W58919  39.603  33.043  12.418
90515W        W58920  31.410  36.032   3.802
90516W        W58921  26.855  17.022  11.002
90517W        W58922  38.349  43.974   2.782
90518W        W58923  22.467  10.312   4.514
90519W        W58924  42.516  36.838  10.683
90520W        W58925  13.773  13.115  13.555
90521W        W58926  32.501   3.361   2.677
90522W        W58927   9.233  24.903   4.614
90523W        W58928  31.347  13.548  13.780
90524W        W58929  33.758  17.838   4.270
90525W        W58930   9.352  19.775   0.345
90526W        W58931  19.962  29.638   2.759
90527W        W58932  33.661   6.866  14.640
90528W        W58933   3.803   3.328  14.738
90529W        W58934  32.058   3.954   3.644
90530W        W58935  36.949   4.175   3.645
90531W        W58936  28.493  32.357   4.111
90532W        W58937  30.648  37.302  14.430
90533W        W58938   0.767  20.538  10.967
90534W        W58939   4.729  14.290   3.775
90535W        W58940  19.656  32.362  12.413
90536W        W58941  35.731  26.767  11.760
90537W        W58942  43.070  34.414  12.200
90538W        W58943  42.155  11.939   0.467
90539W        W58944  38.143  38.176   1.656
90540W        W58945  35.517  31.811  12.989
90541W        W58946  28.651  14.196  10.708
90542W        W58947  31.156  39.331  14.992
90543W        W58948  36.978  43.530  13.422
90544W        W58949   0.413   5.121  12.053
90545W        W58950  10.954  26.610  11.282
90546W        W58951  22.085  14.624  13.463
90547W        W58952  44.371   8.343   3.312
90548W        W58953  17.773  20.552   2.810
90549W        W58954  11.433  14.128   3.297
90550W        W58955  39.560   8.294   0.435
90551W        W58956   3.128  29.039   3.478
90552W        W58957  21.058  20.317   4.625
90553W        W58958  19.014   1.930   0.261
90554W        W58959  24.620  17.223   3.180
90555W        W58960  13.151  41.049  14.312
90556W        W58961  21.129  20.771  12.958
90557W        W58962  38.494   0.295   2.058
90558W        W58963  13.098  19.299  11.543
90559W        W58964  26.759  34.397  12.424
90560W        W58965  21.807   2.109   1.266
90561W        W58966   1.769   4.672  12.036
90562W        W58967   0.700   8.951  10.359
90563W        W58968  28.382   8.124  10.771
90564W        W58969  28.687   8.222  13.725
90565W        W58970  29.846  13.185  12.967
90566W        W58971  41.348  11.125  12.243
90567W        W58972   1.233  18.480   3.942
90568W        W58973  19.144  26.567   1.732
90569W        W58974  21.118  19.759   0.009
90570W        W58975   3.305   7.998  12.133
90571W        W58976  38.797  18.019  12.521
90572W        W58977  25.147   0.771  13.878
90573W        W58978  11.761  14.986  11.832
90574W        W58979  12.541   6.407  14.780
90575W        W58980  37.846  23.367  12.948
90576W        W58981   9.920  36.024   2.415
90577W        W58982  42.047  36.205  10.186
90578W        W58983  15.573   1.218   2.695
90579W        W58984   5.007  44.344   5.306
90580W        W58985  34.808  21.817   1.106
90581W        W58986  34.914  26.819  10.062
90582W        W58987   7.770  37.104  12.019
90583W        W58988  14.392  16.244   1.500
90584W        W58989  29.826  11.520  11.907
90585W        W58990  42.262   5.877  10.460
90586W        W58991  41.633  34.677   1.519
90587W        W58992  24.971  25.670   3.440
90588W        W58993  12.118  41.302  13.146
90589W        W58994  42.382   9.336  10.726
90590W        W58995  36.285   2.877   2.705
90591W        W58996  39.995  38.007  12.428
90592W        W58997  21.475  31.515  12.015
90593W        W58998  10.148  21.022   3.716
90594W        W58999  10.142  26.518  12.397
90595W        W59000  13.474  29.100  11.182
90596W        W59001  10.516   9.593   2.240
90597W        W59002  33.923  12.404  13.852
90598W        W59003  22.169   3.748  14.488
90599W        W59004   8.959  20.531   0.431
90600W        W59005  38.367  14.266   2.795
90601W        W59006   8.192  42.920   1.458
90602W        W59007   0.362   3.712  13.321
90603W        W59008  26.554  27.755   4.677
90604W        W59009  35.332   2.047   2.408
90605W        W59010  24.577  28.124  11.144
90606W        W59011  13.289  37.014  11.613
90607W        W59012  29.939  12.853  12.555
90608W        W59013  30.101  39.574  13.385
90609W        W59014  44.920  17.203   4.597
90610W        W59015  20.568  23.536  12.996
90611W        W59016   7.808  15.364   1.843
90612W        W59017  34.757  43.593  12.019
90613W        W59018   0.408  33.265   0.483
90614W        W59019  30.456  33.900  12.802
90615W        W59020  43.002  14.774  11.534
90616W        W59021  19.036   9.725   3.693
90617W        W59022  18.031  35.979  10.479
90618W        W59023  41.975  40.332   0.853
90619W        W59024  43.484  21.190   3.202
90620W        W59025  26.989  16.091   4.799
90621W        W59026  27.045  27.621  14.431
90622W        W59027  26.714  13.409   3.338
90623W        W59028  22.157  11.058   4.170
90624W        W59029   1.769  33.343  12.313
90625W        W59030   4.681   3.237  13.456
90626W        W59031   6.829   1.930   2.639
90627W        W59032  40.267  38.066  13.857
90628W        W59033   8.115  40.440  11.129
90629W        W59034  24.148  34.473  12.101
90630W        W59035   3.027  16.566  14.755
90631W        W59036   8.335   9.406  10.654
90632W        W59037   2.336  29.638  14.826
90633W        W59038  26.798  28.087  12.369
90634W        W59039   4.382  12.144  12.931
90635W        W59040  15.285   8.620  14.348
90636W        W59041  33.594  29.479   1.033
90637W        W59042  13.319   9.394   4.617
90638W        W59043  36.532  26.624  13.546
90639W        W59044  28.921  14.813   3.220
90640W        W59045  30.210  20.544   1.419
90641W        W59046  21.546  18.517  12.929
90642W        W59047  36.021  29.088   0.353
90643W        W59048  27.223  22.597  14.825
90644W        W59049  22.286  12.647   3.663
90645W        W59050  29.496  11.586  12.297
90646W        W59051   3.959  25.212   0.533
90647W        W59052  36.617  41.027   1.034
90648W        W59053  43.423  42.860  12.523
90649W        W59054  26.490  20.334   5.003
90650W        W59055  35.996  33.926   4.574
90651W        W59056   5.778   2.864   1.430
90652W        W59057  22.310   5.115   1.374
90653W        W59058  12.092  30.295  14.307
90654W        W59059   1.249   3.268   1.402
90655W        W59060   2.234   5.224  14.332
90656W        W59061   2.180  28.490   1.728
90657W        W59062  17.020   2.711  11.296
90658W        W59063  40.033   6.250   1.637
90659W        W59064   5.162  26.295   3.351
90660W        W59065  21.264  15.833  11.138
90661W        W59066   9.835   4.659   1.820
90662W        W59067  28.456  32.842   3.170
90663W        W59068  20.742  12.751  12.590
90664W        W59069  24.951  16.621   4.200
90665W        W59070  27.938  32.983  13.474
90666W        W59071  18.910  29.566  14.280
90667W        W59072   1.390  10.223  14.081
90668W        W59073  22.240  19.971   3.174
90669W        W59074  10.238  12.270  13.434
90670W        W59075  31.164  17.197   0.699
90671W        W59076  27.461  38.802  11.394
90672W        W59077  19.118  22.506   2.217
90673W        W59078  26.390  37.774  13.391
90674W        W59079  10.053  24.526  10.697
90675W        W59080   1.302  38.924  10.752
90676W        W59081  12.992   3.572  12.771
90677W        W59082  16.117  26.080   2.853
90678W        W59083  41.648  40.059  12.136
90679W        W59084  40.380  24.811  14.884
90680W        W59085  12.186  24.619   3.406
90681W        W59086  33.514  19.631  12.414
90682W        W59087  16.869   2.362   4.208
90683W        W59088   9.387  44.819   2.852
90684W        W59089  16.190  38.546   1.639
90685W        W59090  14.629   3.018   2.279
90686W        W59091   2.184   1.454  11.004
90687W        W59092  39.190  43.476   1.386
90688W        W59093   4.107  39.693   4.493
90689W        W59094   0.877  10.844   0.291
90690W        W59095  26.686  23.609  13.892
90691W        W59096  41.725  37.414  12.480
90692W        W59097   4.890  41.285   0.350
90693W        W59098  28.040  26.961   1.960
90694W        W59099   7.955   1.972   0.609
90695W        W59100  31.440  33.935  12.960
90696W        W59101  13.389  25.091  14.481
90697W        W59102  32.851  22.023  13.798
90698W        W59103  33.704   2.551  12.831
90699W        W59104  29.014  28.827  10.480
90700W        W59105  20.215   9.680   1.358
90701W        W59106  19.740  35.447   1.658
90702W        W59107   2.782   4.616  14.489
90703W        W59108   2.032  36.013  13.042
90704W        W59109   6.196  28.660   1.266
90705W        W59110  43.544  38.380   3.510
90706W        W59111  25.186  10.221  10.292
90707W        W59112   4.290  33.490   0.479
90708W        W59113  29.189  12.725   0.907
90709W        W59114  44.754   0.531   4.189
90710W        W59115  33.002  15.299   3.564
90711W        W59116  43.814  17.906  14.832
90712W        W59117  12.686  16.792   2.747
90713W        W59118   9.767   7.212   1.688
90714W        W59119  33.579  31.101  10.745
90715W        W59120  14.440   6.863  14.983
90716W        W59121   1.411  26.311   1.885
90717W        W59122   2.925  41.074   0.475
90718W        W59123  37.528  39.602  10.831
90719W        W59124  32.406  28.973  13.885
90720W        W59125  32.961  23.534  12.344
90721W        W59126  16.201  42.833   1.457
90722W        W59127  13.150   8.692   2.318
90723W        W59128  12.112  26.021  12.461
90724W        W59129  21.230  42.462   0.856
90725W        W59130  24.132  41.283   1.864
90726W        W59131  17.480  41.377  14.547
90727W        W59132  27.299  29.400   1.320
90728W        W59133  14.311   3.676  13.907
90729W        W59134  17.115  40.877  12.608
90730W        W59135   3.890   9.863  11.828
90731W        W59136  16.622  23.230  14.736
90732W        W59137   9.194  36.421   1.405
90733W        W59138  10.790  26.117  11.839
90734W        W59139  29.696  10.802   3.883
90735W        W59140  14.821  39.481  14.907
90736W        W59141  30.061   5.406   2.686
90737W        W59142  31.940  25.052  12.196
90738W        W59143   8.765   2.434  14.864
90739W        W59144  41.032  19.404  12.973
90740W        W59145   7.653  18.264   0.918
90741W        W59146  26.641  20.136  11.620
90742W        W59147   0.725   3.339  10.790
90743W        W59148  13.365  26.065  13.145
90744W        W59149  22.653  25.232  11.561
90745W        W59150  36.063   8.186  13.849
90746W        W59151  26.376  11.249   4.250
90747W        W59152  14.107   9.614  14.891
90748W        W59153   3.986  32.632   3.964
90749W        W59154  20.021   2.291   3.210
90750W        W59155  29.417  17.526   1.409
90751W        W59156  42.299  25.473   4.532
90752W        W59157  40.271   5.371   5.297
90753W        W59158  20.135  21.186   0.734
90754W        W59159  35.776  29.853  13.543
90755W        W59160   7.195  11.659  11.051
90756W        W59161   7.823   6.797  11.523
90757W        W59162   6.255  13.406  11.656
90758W        W59163  24.242  37.401  10.670
90759W        W59164  28.847  17.578  11.300
90760W        W59165   0.370   1.472  10.939
90761W        W59166  42.220  25.705   1.691
90762W        W59167  25.910  43.212  11.826
90763W        W59168   9.494  32.409  12.689
90764W        W59169  35.143  33.535   3.750
90765W        W59170  24.174  25.951   1.961
90766W        W59171  29.638  11.349   4.771
90767W        W59172   7.537   2.135  11.615
90768W        W59173   3.773   0.774  11.268
90769W        W59174  20.053  15.500   4.734
90770W        W59175  12.323  41.124  12.349
90771W        W59176  32.123  35.245  12.937
90772W        W59177  12.301  27.140   2.845
90773W        W59178  37.225   4.333   4.092
90774W        W59179  21.730  36.438   1.620
90775W        W59180   6.245   3.683  10.563
90776W        W59181  40.783  38.035  13.949
90777W        W59182  27.221  39.943  10.976
90778W        W59183   9.283  40.439   1.392
90779W        W59184  27.377  43.460  10.759
90780W        W59185  34.984  40.326   3.691
90781W        W59186  33.061  36.013  12.682
90782W        W59187  25.401  28.210  11.692
90783W        W59188   7.065   9.319   1.981
90784W        W59189   7.866  41.569  14.213
90785W        W59190  12.439  32.391  14.755
90786W        W59191  33.921  35.902   3.866
90787W        W59192  22.788   3.141   5.221
90788W        W59193  12.802  13.141  11.888
90789W        W59194  30.653  29.602  12.903
90790W        W59195   5.764   6.507   3.617
90791W        W59196   3.615  28.022  13.915
90792W        W59197  35.069  14.356   1.871
90793W        W59198  12.654  20.236   0.240
90794W        W59199  14.334  40.421  10.405
90795W        W59200  21.609  32.481   1.936
90796W        W59201  19.822  28.107  14.804
90797W        W59202  18.084   8.884   3.285
90798W        W59203   8.264  20.704  13.041
90799W        W59204  26.703  39.833  14.973
90800W        W59205  28.082  14.417  14.390
90801W        W59206  43.925   9.750   0.934
90802W        W59207  24.623  37.907   3.813
90803W        W59208  30.482   3.378   0.217
90804W        W59209  32.187   2.410   0.395
90805W        W59210  42.799  18.095   1.310
90806W        W59211  25.373  44.967   1.701
90807W        W59212  29.546  39.687  12.604
90808W        W59213   7.356  11.319  13.783
90809W        W59214  29.351  42.812   2.796
90810W        W59215  30.024   1.750  11.531
90811W        W59216   9.319  25.695  13.832
90812W        W59217  35.894  36.609  14.685
90813W        W59218  44.167  35.623  12.339
90814W        W59219   0.930   5.659  12.652
90815W        W59220  14.227   1.424  11.164
90816W        W59221  36.903   9.419  12.992
90817W        W59222   9.309  13.442  12.933
90818W        W59223  36.034   0.023   0.846
90819W        W59224  27.739  41.392   2.805
90820W        W59225   6.261  17.289  10.264
90821W        W59226  40.397  33.551  14.739
90822W        W59227  43.773  35.958  11.586
90823W        W59228  23.693   9.751  13.442
90824W        W59229  15.127  32.975   0.008
90825W        W59230  30.278  44.579   0.559
90826W        W59231  33.560  21.858  11.129
90827W        W59232  37.431  43.131   0.481
90828W        W59233  43.889  28.574  10.668
90829W        W59234  16.626   8.903   0.328
90830W        W59235  26.040   0.850   3.422
90831W        W59236  37.250  27.070   2.751
90832W        W59237   1.405  33.043  13.906
90833W        W59238  39.842  11.853  10.703
90834W        W59239   2.346  36.237   2.706
90835W        W59240  30.913  18.571  11.032
90836W        W59241   9.892  12.274   0.737
90837W        W59242  16.854  30.940   2.598
90838W        W59243  17.029  16.166  12.977
90839W        W59244  31.466  44.476   0.750
90840W        W59245  28.202  44.412  11.864
90841W        W59246   6.206  35.113   2.625
90842W        W59247  41.967   5.372  10.248
90843W        W59248  39.778  28.352  13.746
90844W        W59249  43.206  33.551  13.902
90845W        W59250  16.649  32.372   4.371
90846W        W59251  18.062  26.846  14.139
90847W        W59252  25.419  25.947   2.175
90848W        W59253  34.551  20.936   1.220
90849W        W59254   6.921   1.515  13.034
90850W        W59255  19.816  30.163  12.855
90851W        W59256   1.729   3.834   2.634
90852W        W59257  40.680  43.966   4.174
90853W        W59258   6.199  34.473   0.879
90854W        W59259   0.740  24.768  14.762
90855W        W59260  15.400  33.870  14.952
90856W        W59261   7.351  43.219  12.210
90857W        W59262  26.045   5.212   2.860
90858W        W59263   1.224  20.825  12.089
90859W        W59264  12.717  25.035   4.514
90860W        W59265  38.985  19.712   2.884
90861W        W59266  34.642  26.068  11.084
90862W        W59267  30.168  18.202   3.400
90863W        W59268   9.420  40.379   0.900
90864W        W59269  22.815   7.782   3.837
90865W        W59270  27.475   5.398  13.569
90866W        W59271  15.811  21.723   0.691
90867W        W59272  25.928  28.518   1.885
90868W        W59273  17.666  14.301  14.844
90869W        W59274  29.930  18.758  11.608
90870W        W59275   5.238   0.059  11.756
90871W        W59276  19.262   4.431   0.403
90872W        W59277  40.269   1.441   1.932
90873W        W59278  18.966  14.733  14.856
90874W        W59279  10.954   0.220   1.871
90875W        W59280   3.804  17.050  13.585
90876W        W59281   5.719  12.209   0.422
90877W        W59282   8.745  31.411   3.349
90878W        W59283   1.460   5.734   1.629
90879W        W59284  33.162  10.159   2.356
90880W        W59285  15.662  34.548   5.407
90881W        W59286  27.235  36.958   2.881
90882W        W59287  27.162  15.654  10.934
90883W        W59288  27.836  39.395  12.505
90884W        W59289  11.079  13.265  13.499
90885W        W59290  30.011  19.112  14.914
90886W        W59291  25.559  27.429   0.875
90887W        W59292  36.808  23.641   3.637
90888W        W59293  34.488  12.794  11.246
90889W        W59294  27.199  24.664  10.762
90890W        W59295  29.990  23.949   2.607
90891W        W59296  19.330   0.207  14.886
90892W        W59297   3.846  40.709  10.683
90893W        W59298   0.560  26.197  11.662
90894W        W59299  42.934  20.279   0.730
90895W        W59300  10.950  34.117   1.678
90896W        W59301  34.405   5.319   3.114
90897W        W59302  19.670  29.367  13.315
90898W        W59303  16.070  43.465  11.142
90899W        W59304  30.831  10.214   3.683
90900W        W59305  35.518  16.409   2.108
90901W        W59306  39.811  30.518  10.414
90902W        W59307  33.560  30.041  13.807
90903W        W59308  42.260  31.077   0.407
90904W        W59309  33.737   4.774   4.471
90905W        W59310  24.880  41.284   1.363
90906W        W59311  16.270  24.689   4.616
90907W        W59312  18.324  13.085   3.923
90908W        W59313  26.999  12.421  11.475
90909W        W59314  34.687  15.675  11.482
90910W        W59315   4.665   2.455   4.669
90911W        W59316   4.059   2.180  13.459
90912W        W59317  25.055  18.678   0.406
90913W        W59318  37.576  23.926   2.157
90914W        W59319   7.959  11.173   1.825
90915W        W59320  13.392  16.840  12.538
90916W        W59321   5.929  27.505   1.812
90917W        W59322   2.387   3.318   3.700
90918W        W59323   6.757   1.545   3.588
90919W        W59324  16.329  11.072  14.878
90920W        W59325  37.490  18.244  11.607
90921W        W59326  15.325   9.808   1.006
90922W        W59327   9.707  25.084   3.570
90923W        W59328  29.979  32.053   1.617
90924W        W59329  42.543  12.620  12.540
90925W        W59330   3.382  17.562   2.432
90926W        W59331  26.005  14.805   3.116
90927W        W59332  28.215   2.091  12.951
90928W        W59333  34.942   5.982  11.682
90929W        W59334  40.822   5.883  10.139
90930W        W59335  21.179  25.479  11.939
90931W        W59336  20.046  12.494   0.764
90932W        W59337  38.992  40.853   0.793
90933W        W59338  41.933  18.801   0.967
90934W        W59339  29.948  33.658   0.653
90935W        W59340  15.548  24.692  10.270
90936W        W59341  33.021   0.576  11.589
90937W        W59342  31.709  25.902   1.835
90938W        W59343  39.019   6.522  14.535
90939W        W59344  12.617  27.004   2.446
90940W        W59345  43.303  34.632  12.595
90941W        W59346  37.485  41.134   1.544
90942W        W59347  22.529  18.551  14.775
90943W        W59348   3.891   2.722  14.195
90944W        W59349  39.442  36.388  11.344
90945W        W59350   6.919  25.433   4.201
90946W        W59351  10.624   2.939  10.190
90947W        W59352   7.883  39.263   2.878
90948W        W59353   9.038  10.149  11.066
90949W        W59354  19.721  19.046  11.230
90950W        W59355  16.648  38.093  14.434
90951W        W59356   9.317  38.447   4.884
90952W        W59357  15.301  29.544  11.981
90953W        W59358  23.842   5.200  14.539
90954W        W59359   6.330   8.657   3.241
90955W        W59360   3.764  44.003  11.744
90956W        W59361  12.982  33.495  10.245
90957W        W59362   4.450  28.782   2.366
90958W        W59363  34.205  29.722  13.942
90959W        W59364   8.410  37.992  10.775
90960W        W59365   9.899   8.142   0.320
90961W        W59366  31.857  14.127  12.511
90962W        W59367  14.864   2.947  14.976
90963W        W59368  24.536  13.075  11.173
90964W        W59369  16.369  40.820  14.197
90965W        W59370  10.291  43.805  12.599
90966W        W59371  35.642   1.265  13.301
90967W        W59372  43.963  39.238  13.512
90968W        W59373  40.774  32.317   2.254
90969W        W59374   8.209  21.703  13.014
90970W        W59375  18.035   2.953  11.235
90971W        W59376  29.358   7.656  12.004
90972W        W59377   2.142  31.699   0.491
90973W        W59378  34.990  36.108   1.259
90974W        W59379  31.809  21.523  11.199
90975W        W59380  28.425  16.051   4.150
90976W        W59381   8.115  29.184  13.455
90977W        W59382  41.000  30.683   3.768
90978W        W59383   4.930   1.058  13.691
90979W        W59384   0.769  27.964   0.004
90980W        W59385   9.422  16.530   2.098
90981W        W59386  15.328   1.025  10.807
90982W        W59387  39.801  35.351  11.064
90983W        W59388  24.949  44.635  11.276
90984W        W59389   0.456  21.030  13.074
90985W        W59390  21.753  41.559  11.211
90986W        W59391   5.276  34.497  13.410
90987W        W59392  38.546  44.243   2.397
90988W        W59393   2.894   6.777   2.565
90989W        W59394   5.716  12.084   2.678
90990W        W59395   6.370  40.419  14.346
90991W        W59396  39.482  27.550  11.688
90992W        W59397  44.495  26.968  11.971
90993W        W59398   6.798  18.628  12.332
90994W        W59399  21.602  41.064  12.348
90995W        W59400  24.984  40.218  13.856
90996W        W59401  36.181  20.149   4.081
90997W        W59402  23.480  38.597  12.102
90998W        W59403   1.742   2.794   2.723
90999W        W59404  41.080  12.649  14.179
91000W        W59405  34.519   3.668  12.036
91001W        W59406  29.710  25.709   0.750
91002W        W59407  16.174  13.399  12.682
91003W        W59408   4.666  32.442  13.487
91004W        W59409   9.161  33.721  11.540
91005W        W59410  21.574  24.466  12.579
91006W        W59411  21.791  30.108  11.072
91007W        W59412  14.962  36.839   0.854
91008W        W59413  17.292  10.212  10.567
91009W        W59414   7.993   2.258   4.417
91010W        W59415  22.982   7.013  14.206
91011W        W59416  23.172  32.718  14.086
91012W        W59417   2.453   0.075  11.160
91013W        W59418  20.061  41.005  14.717
91014W        W59419  40.021   4.834   2.091
91015W        W59420  43.010  17.562  14.443
91016W        W59421  26.476  39.702  10.733
91017W        W59422  19.476  33.717   0.406
91018W        W59423  14.821  33.943  14.088
91019W        W59424  26.009   7.440  14.907
91020W        W59425  29.153  34.878  11.507
91021W        W59426  12.186  21.662  13.525
91022W        W59427  44.869  39.424   4.125
91023W        W59428  40.392  34.523   0.080
91024W        W59429  18.103   7.729  13.466
91025W        W59430  42.431  27.558   3.084
91026W        W59431  15.115  16.869   0.239
91027W        W59432  30.044  18.712   2.823
91028W        W59433  21.135   4.954  10.415
91029W        W59434  34.894  39.922   3.114
91030W        W59435  34.173  44.866   3.209
91031W        W59436   3.745   8.201  12.870
91032W        W59437  27.158  31.451   3.665
91033W        W59438  35.268  11.493  12.097
91034W        W59439   3.480   4.990   2.683
91035W        W59440  42.456  16.119   4.719
91036W        W59441  23.090   2.107  14.385
91037W        W59442  30.614  20.220  13.002
91038W        W59443   6.330  28.247   5.093
91039W        W59444  43.473  16.707  13.323
91040W        W59445   0.774  16.312   3.126
91041W        W59446  22.255  40.744  14.077
91042W        W59447  33.139  27.119  10.896
91043W        W59448  24.263  10.586  12.941
91044W        W59449  27.440   4.280   0.240
91045W        W59450   7.386  30.411   1.417
91046W        W59451  16.452   3.478   0.449
91047W        W59452  28.189  28.466  11.406
91048W        W59453   0.798   5.283  13.486
91049W        W59454  19.651  31.942   4.578
91050W        W59455   6.193  10.192   3.160
91051W        W59456  30.431  15.328  13.022
91052W        W59457  30.043   1.578  12.014
91053W        W59458  19.577  36.552  13.027
91054W        W59459  23.504   3.872   0.517
91055W        W59460  18.310  12.209  13.838
91056W        W59461  15.840  33.477   3.212
91057W        W59462   2.449   0.584  11.345
91058W        W59463  29.683  32.699  13.004
91059W        W59464  34.778  10.336  10.210
91060W        W59465  31.200   8.367  12.352
91061W        W59466  24.233  44.284   4.188
91062W        W59467  25.122  37.557   1.757
91063W        W59468   6.321   0.781   2.297
91064W        W59469  14.335  29.543   2.827
91065W        W59470  29.713   8.875   4.179
91066W        W59471  33.282  14.277   0.428
91067W        W59472  17.748  38.646   4.130
91068W        W59473  15.468  14.291   3.285
91069W        W59474  10.913  15.506  10.445
91070W        W59475   7.491   2.923  12.703
91071W        W59476  12.240  44.205  11.507
91072W        W59477  39.017  35.678  11.726
91073W        W59478   5.170  19.164  12.211
91074W        W59479   1.286  44.565  13.830
91075W        W59480  13.738  10.990   0.034
91076W        W59481  42.870  13.703   3.487
91077W        W59482  39.086   7.032  14.341
91078W        W59483  23.582  18.802   0.806
91079W        W59484  13.603   3.963  14.882
91080W        W59485  23.167  11.298   4.124
91081W        W59486   3.481  15.273  13.934
91082W        W59487   8.901   7.114  11.546
91083W        W59488  28.126  19.203  14.176
91084W        W59489  11.833  25.189  10.726
91085W        W59490   4.340  38.005  12.920
91086W        W59491  43.665   4.477  12.471
91087W        W59492   0.675  34.961   2.373
91088W        W59493  14.290   3.440   1.484
91089W        W59494  22.337  32.093   2.222
91090W        W59495   7.694  20.531  11.988
91091W        W59496  32.135  44.385   3.875
91092W        W59497  22.708  27.931  10.981
91093W        W59498  25.931   4.426   4.268
91094W        W59499  17.661  25.020  13.791
91095W        W59500  42.170   1.757  12.375
91096W        W59501  40.365   5.298   0.179
91097W        W59502   6.190  30.204  11.936
91098W        W59503   4.483  10.329   2.794
91099W        W59504   2.188  33.957   3.148
91100W        W59505  14.184  42.944  13.185
91101W        W59506  18.389  42.439  12.073
91102W        W59507  15.872   0.395   0.729
91103W        W59508   9.069  13.159   1.911
91104W        W59509  11.410  37.577   1.042
91105W        W59510  44.827   8.469  10.194
91106W        W59511  17.723  10.403   9.853
91107W        W59512   9.131   5.477   3.638
91108W        W59513  13.483   0.863   2.063
91109W        W59514  21.068  25.774  11.525
91110W        W59515  10.603  21.585   3.342
91111W        W59516   7.404  16.625  12.661
91112W        W59517  41.969  41.906   3.692
91113W        W59518   3.205  12.252   2.691
91114W        W59519  25.400  14.786  13.543
91115W        W59520  16.427  21.556  11.286
91116W        W59521  17.040  24.649  14.956
91117W        W59522  37.038  37.071  13.634
91118W        W59523  40.845  32.113   4.477
91119W        W59524   0.255  13.141  13.293
91120W        W59525   6.438   0.415   0.664
91121W        W59526  11.336  18.160   0.913
91122W        W59527  28.591  38.649   2.206
91123W        W59528  19.125   7.766   4.173
91124W        W59529  23.493  31.616   0.208
91125W        W59530  15.555  24.141  12.427
91126W        W59531   0.166  39.837   4.038
91127W        W59532  14.232  14.231   1.844
91128W        W59533  21.310  10.153   5.194
91129W        W59534  43.531  22.547   1.420
91130W        W59535  28.051  13.565   1.371
91131W        W59536  36.631  26.600   0.697
91132W        W59537  23.126  23.698  13.144
91133W        W59538  42.873  37.028  14.368
91134W        W59539  44.160  10.709   1.833
91135W        W59540  33.805   1.740   3.108
91136W        W59541  40.810  12.430  11.640
91137W        W59542   2.264  32.979  13.962
91138W        W59543  21.129  35.883   2.755
91139W        W59544  42.166  17.787   1.447
91140W        W59545  15.656  28.265  12.438
91141W        W59546  10.489   0.205  11.912
91142W        W59547  13.380  43.929   2.823
91143W        W59548  24.178  22.172  11.742
91144W        W59549  27.905  38.873  12.585
91145W        W59550  20.648   8.304   0.403
91146W        W59551   1.957  15.878  12.963
91147W        W59552   3.148   7.742  13.603
91148W        W59553  27.622  37.613   2.226
91149W        W59554  42.119  32.985   1.197
91150W        W59555  27.490  40.457  11.018
91151W        W59556  27.128   2.114   1.311
91152W        W59557   5.723  38.155  13.779
91153W        W59558  40.732  12.792  14.605
91154W        W59559  19.284  44.752   0.973
91155W        W59560  34.936   4.383   4.817
91156W        W59561   7.528  41.913  12.887
91157W        W59562   9.864  28.614   0.825
91158W        W59563  26.031  32.156  10.721
91159W        W59564  23.079  24.031  13.564
91160W        W59565  16.375  25.611   2.837
91161W        W59566  22.213   5.455  12.252
91162W        W59567   5.661  21.424   1.087
91163W        W59568  23.298  11.285  11.950
91164W        W59569   1.420  19.168  12.916
91165W        W59570   9.388   6.782   3.362
91166W        W59571  41.581   5.432  10.681
91167W        W59572  32.114  13.682   0.401
91168W        W59573  17.346  14.504   2.653
91169W        W59574  26.876  31.672  13.327
91170W        W59575  42.842  27.523  14.385
91171W        W59576   1.501  14.623   0.320
91172W        W59577  27.019  39.012  12.116
91173W        W59578  12.617  32.464   0.677
91174W        W59579  26.119  34.829  11.958
91175W        W59580  44.850  14.263   3.662
91176W        W59581  22.768  39.830   0.519
91177W        W59582   6.382  36.951  13.880
91178W        W59583   9.257  31.191   4.336
91179W        W59584   1.359  14.218   4.860
91180W        W59585  26.746  39.494  11.467
91181W        W59586   4.445  42.383  10.434
91182W        W59587  35.650   1.233  12.391
91183W        W59588  13.705   9.835  13.411
91184W        W59589  11.811  33.676  12.474
91185W        W59590  27.923  20.203   4.193
91186W        W59591  32.529  32.714   2.714
91187W        W59592  17.580  24.098   4.022
91188W        W59593  15.688  10.149   1.452
91189W        W59594   7.983  43.465  14.354
91190W        W59595   4.877  10.377   4.633
91191W        W59596  39.663  30.869  13.018
91192W        W59597   5.893  14.608  12.918
91193W        W59598  28.128  29.008  13.573
91194W        W59599   7.899  27.177   3.732
91195W        W59600  35.875  20.633  11.526
91196W        W59601  26.245  16.475  13.241
91197W        W59602  40.868  13.800   0.690
91198W        W59603  35.500  29.071   0.522
91199W        W59604  18.166  35.284  10.337
91200W        W59605  13.365  15.941  13.047
91201W        W59606  19.849   5.419   1.483
91202W        W59607  12.929  16.653   0.897
91203W        W59608  41.535  43.417  12.508
91204W        W59609   3.821  10.402  11.705
91205W        W59610  26.289   0.256   4.199
91206W        W59611  32.940  17.790  12.355
91207W        W59612  34.228  18.095  11.423
91208W        W59613  38.566  40.818  14.003
91209W        W59614  33.665  22.358  12.881
91210W        W59615   5.178  40.501   1.019
91211W        W59616  29.525   3.607   5.005
91212W        W59617  10.253  26.839   2.534
91213W        W59618   8.733  20.674  11.652
91214W        W59619  40.946  10.990  11.943
91215W        W59620   9.704   8.084   1.152
91216W        W59621  41.275  17.194   4.759
91217W        W59622  16.012  34.303  14.450
91218W        W59623  15.414  14.187  10.758
91219W        W59624   5.157  34.909   0.579
91220W        W59625  39.082   4.891   2.372
91221W        W59626  38.282  44.498  12.000
91222W        W59627  19.787  33.565   4.589
91223W        W59628  34.111  17.689   0.218
91224W        W59629  38.982  18.824   3.825
91225W        W59630  39.001  19.699   4.654
91226W        W59631  31.568   8.848  13.479
91227W        W59632  30.186  35.523   4.463
91228W        W59633  10.823  16.100   1.797
91229W        W59634   6.320   8.137  10.941
91230W        W59635  39.638   6.269  12.965
91231W        W59636  12.159   3.904   1.775
91232W        W59637  15.047   0.013   1.036
91233W        W59638  31.657  38.818  10.985
91234W        W59639  21.685  26.872   2.369
91235W        W59640  14.742  19.043  13.364
91236W        W59641  19.094  12.643  12.332
91237W        W59642   4.095   1.928  11.165
91238W        W59643  28.263   9.927   4.090
91239W        W59644  38.309  13.247   4.656
91240W        W59645  23.883   9.748  11.743
91241W        W59646   5.401  40.720  14.032
91242W        W59647   7.405  19.653   2.378
91243W        W59648  36.919   8.194   3.125
91244W        W59649  23.299  29.031  12.444
91245W        W59650  15.873  13.334  10.383
91246W        W59651  38.260  34.087  12.238
91247W        W59652  27.145  34.857   1.304
91248W        W59653  42.840  14.518  14.401
91249W        W59654  23.445  12.708   1.875
91250W        W59655  23.931   7.382  13.472
91251W        W59656  12.032  38.513   2.259
91252W        W59657   9.253  32.327   5.452
91253W        W59658  20.710  39.364  10.694
91254W        W59659   0.767  35.734  12.768
91255W        W59660  34.496   6.561  14.836
91256W        W59661  25.001  30.713   4.484
91257W        W59662  42.502  33.494   4.889
91258W        W59663   0.733  24.748   1.412
91259W        W59664  28.674  39.443   3.336
91260W        W59665   9.277   9.846  13.290
91261W        W59666  24.403  27.907  12.998
91262W        W59667  27.999   6.560  11.612
91263W        W59668  15.091  11.245   4.617
91264W        W59669  14.892  24.434   3.018
91265W        W59670   9.922  32.845  10.740
91266W        W59671   0.760  34.414  14.909
91267W        W59672  27.674  22.479  13.105
91268W        W59673  13.279   9.918   2.792
91269W        W59674   4.242   5.640  11.704
91270W        W59675  13.210  34.421  13.457
91271W        W59676   7.122  39.485  12.577
91272W        W59677   7.507  25.413  11.075
91273W        W59678  31.050  32.375  14.735
91274W        W59679  43.796  33.160  14.415
91275W        W59680   0.650  34.847   0.174
91276W        W59681   8.137  37.590   4.116
91277W        W59682  10.179  28.478  13.782
91278W        W59683  31.540   2.146  11.856
91279W        W59684  10.416  25.499   3.350
91280W        W59685   8.447   5.373   2.449
91281W        W59686  39.826   7.929  13.002
91282W        W59687  17.647  16.358   0.347
91283W        W59688   4.888  42.063  11.143
91284W        W59689   2.867  31.353   0.830
91285W        W59690  29.121  11.543  12.647
91286W        W59691  42.081  43.110   1.991
91287W        W59692   8.025  25.168   0.967
91288W        W59693  14.170  10.540  11.404
91289W        W59694  38.496  29.009   2.992
91290W        W59695  25.740  27.780   3.876
91291W        W59696   0.447   6.138  12.102
91292W        W59697   2.059  24.824  13.591
91293W        W59698  43.249  22.129   1.701
91294W        W59699   6.322   8.903   5.138
91295W        W59700  20.262  41.257   4.514
91296W        W59701  37.092   7.233  12.962
91297W        W59702   7.244   2.513  14.331
91298W        W59703   2.761  24.931   3.252
91299W        W59704  35.504  31.028   4.230
91300W        W59705  21.715  26.728   0.668
91301W        W59706  26.000  17.227  14.209
91302W        W59707  40.955  31.470  12.451
91303W        W59708  42.275  26.612   1.187
91304W        W59709  42.705  32.358   2.671
91305W        W59710  16.494  34.623  10.812
91306W        W59711  24.127   4.535   3.171
91307W        W59712   5.612  39.153   1.476
91308W        W59713   0.200  25.599   0.473
91309W        W59714  42.220   8.250   2.844
91310W        W59715  35.119  21.156  12.088
91311W        W59716   0.768  27.585  13.745
91312W        W59717   1.023  39.026  11.632
91313W        W59718  41.166  21.789   4.033
91314W        W59719   6.585  39.905  13.059
91315W        W59720   4.057  11.616  11.786
91316W        W59721  39.541   2.166  10.726
91317W        W59722  33.615   0.448   0.875
91318W        W59723   0.867  37.745  12.890
91319W        W59724  39.924  15.126  10.604
91320W        W59725  19.276   8.673   0.727
91321W        W59726  28.991  10.032   4.591
91322W        W59727   6.134  37.486   3.673
91323W        W59728  30.395  30.235   3.188
91324W        W59729   5.700  41.030  14.308
91325W        W59730  41.971  11.264   2.366
91326W        W59731  24.206  36.637   0.342
91327W        W59732  30.998  42.104   4.994
91328W        W59733  11.923  32.607  12.457
91329W        W59734   9.989  38.891   4.209
91330W        W59735  26.410  20.209  13.918
91331W        W59736  39.411  15.567  11.985
91332W        W59737  39.198  27.976  12.470
91333W        W59738  16.804  35.003   1.277
91334W        W59739  26.159  30.395  13.511
91335W        W59740  33.518  28.677  11.672
91336W        W59741  11.699  31.854  11.183
91337W        W59742  12.055  20.263  13.477
91338W        W59743  37.124  16.091   3.928
91339W        W59744   6.265   0.362   0.177
91340W        W59745  43.492  43.735  14.615
91341W        W59746   6.451   7.715  14.552
91342W        W59747   0.584  24.977  13.674
91343W        W59748   6.860   7.700  13.330
91344W        W59749  39.675   8.263  10.773
91345W        W59750  32.838  27.599   1.179
91346W        W59751  19.976  15.258   3.130
91347W        W59752  20.990  43.906  12.827
91348W        W59753   8.599  14.989   0.457
91349W        W59754  42.305   4.248   3.626
91350W        W59755  28.669  23.552  11.131
91351W        W59756   6.540  41.281  14.142
91352W        W59757  31.119  36.450   1.424
91353W        W59758  35.229  40.305   4.992
91354W        W59759  11.929  29.028   1.102
91355W        W59760  44.149  41.468   4.520
91356W        W59761  12.398  23.930   1.401
91357W        W59762  37.268  32.494   3.335
91358W        W59763  22.609  37.119  12.473
91359W        W59764   4.319  16.603   3.951
91360W        W59765  30.079  42.364   0.689
91361W        W59766   7.657  26.008  14.315
91362W        W59767  30.969  41.094  11.551
91363W        W59768  20.157  16.477   3.448
91364W        W59769  20.182  25.627  12.923
91365W        W59770  17.673  39.862  10.312
91366W        W59771  10.946  17.722  14.836
91367W        W59772  10.773   0.493  14.964
91368W        W59773  29.109  23.837  12.321
91369W        W59774   9.732  36.611  11.230
91370W        W59775  29.613   9.494   1.884
91371W        W59776   1.362  31.475   4.592
91372W        W59777  22.238  11.770  14.896
91373W        W59778   8.811   0.913   3.601
91374W        W59779  27.400  15.330   2.177
91375W        W59780  38.059   7.254   0.523
91376W        W59781  43.299   9.247   3.763
91377W        W59782  17.135   5.133  11.646
91378W        W59783  24.043  25.008   2.798
91379W        W59784  36.634  33.375   1.258
91380W        W59785  43.034   0.425   3.191
91381W        W59786  15.630  36.446   0.327
91382W        W59787  35.928   4.509  12.337
91383W        W59788  40.798   8.539   3.443
91384W        W59789  21.655   1.645  12.478
91385W        W59790  42.802  16.214  14.263
91386W        W59791  44.928  14.690   3.943
91387W        W59792  20.456   3.504  14.401
91388W        W59793  17.357  12.393   4.321
91389W        W59794  40.305  17.653  14.373
91390W        W59795  25.312  43.297  14.851
91391W        W59796  27.157  10.723   0.421
91392W        W59797  13.588   2.951  13.388
91393W        W59798  31.847   4.674   1.243
91394W        W59799  36.891  17.557  13.956
91395W        W59800  24.012  15.720   0.878
91396W        W59801   6.715  41.819   1.301
91397W        W59802  17.927  19.058   3.634
91398W        W59803   4.390  21.028  14.933
91399W        W59804  11.863  26.919   1.944
91400W        W59805  20.136  44.019  13.416
91401W        W59806  26.587  23.080   4.296
91402W        W59807  23.946  42.237  14.135
91403W        W59808  21.516  28.981   3.292
91404W        W59809  27.341  38.754   1.755
91405W        W59810  21.279  20.783   4.493
91406W        W59811  35.520   3.674  12.343
91407W        W59812  10.198  15.331   0.354
91408W        W59813  18.747   7.347   9.886
91409W        W59814  18.330  29.422  11.610
91410W        W59815  29.950  44.814   0.171
91411W        W59816   9.737  11.301   2.112
91412W        W59817  33.519   8.511  11.752
91413W        W59818  18.498  41.017   2.391
91414W        W59819  26.101   2.895   4.194
91415W        W59820  27.702  12.886  13.483
91416W        W59821  28.953  42.624   5.491
91417W        W59822  15.782  44.251   1.870
91418W        W59823  34.537  20.278  11.172
91419W        W59824  36.583  40.941   3.251
91420W        W59825  17.695  32.070   0.083
91421W        W59826   6.955  38.598   0.097
91422W        W59827   3.657  35.474   0.755
91423W        W59828   9.486  44.252  12.020
91424W        W59829   8.924  12.083   4.246
91425W        W59830   6.843  27.646   3.455
91426W        W59831  32.266   6.200  12.780
91427W        W59832  10.407  31.013   0.894
91428W        W59833  41.387  40.018   2.567
91429W        W59834  13.410   6.229   2.396
91430W        W59835  35.662  39.921  14.374
91431W        W59836  33.548   6.433   3.334
91432W        W59837  27.372  29.524   4.261
91433W        W59838  17.568  12.842   4.185
91434W        W59839   6.634  35.480  11.583
91435W        W59840  25.775  33.655  11.809
91436W        W59841  12.944   8.606  13.940
91437W        W59842  24.130  19.522  11.641
91438W        W59843  31.274   2.759  13.870
91439W        W59844  18.138  38.133   1.996
91440W        W59845  17.540  40.515   0.826
91441W        W59846  38.600   6.442   4.063
91442W        W59847  37.061  30.829   2.792
91443W        W59848  23.751  20.579  13.561
91444W        W59849  19.053  20.768   4.744
91445W        W59850  41.487  14.872   2.624
91446W        W59851  10.208  10.527  12.445
91447W        W59852  22.037   5.925  11.246
91448W        W59853  11.115   6.958   1.403
91449W        W59854   9.406  26.625   2.232
91450W        W59855  44.789  38.403   2.305
91451W        W59856   7.370   1.799  11.232
91452W        W59857  27.674  20.644  10.493
91453W        W59858  12.838  18.412   4.180
91454W        W59859  23.223  30.218  11.909
91455W        W59860  43.548  42.486   0.352
91456W        W59861  11.583   9.853   3.502
91457W        W59862  30.086  40.850   4.007
91458W        W59863  44.803  25.141  12.556
91459W        W59864  39.334  29.733  13.338
91460W        W59865  10.766  35.202   4.609
91461W        W59866   4.179  25.593   3.283
91462W        W59867  24.503  31.103   4.720
91463W        W59868   2.043  44.527  14.749
91464W        W59869  11.824  13.786  12.406
91465W        W59870  15.261  28.103   1.196
91466W        W59871  25.971  22.347   0.865
91467W        W59872  41.216  20.587   4.582
91468W        W59873   1.402  34.499   0.353
91469W        W59874  36.425  21.514  13.985
91470W        W59875   3.550  10.340   4.128
91471W        W59876  26.686  29.950   3.339
91472W        W59877  10.199   1.705   4.586
91473W        W59878   6.313   1.984   1.403
91474W        W59879  34.096  25.450  14.844
91475W        W59880  18.255  11.189  11.626
91476W        W59881  20.165  40.981   2.701
91477W        W59882  32.318  19.323  14.422
91478W        W59883  43.906  23.499   2.350
91479W        W59884  12.617  18.924  13.362
91480W        W59885  28.407  43.353  14.320
91481W        W59886  16.279  33.470  11.370
91482W        W59887  40.801  41.727  13.972
91483W        W59888   4.226  23.717   3.972
91484W        W59889  13.969   9.651   4.906
91485W        W59890   0.271  23.099   3.648
91486W        W59891  16.424   3.430   2.455
91487W        W59892  21.299  23.029   1.240
91488W        W59893  20.146  39.969  12.036
91489W        W59894  34.932   4.617  11.965
91490W        W59895   1.522  31.619  14.335
91491W        W59896  16.277  44.011   3.930
91492W        W59897  15.133  11.201   3.746
91493W        W59898  14.703  34.464  14.877
91494W        W59899  20.020  22.610   5.003
91495W        W59900  38.534   6.965  11.497
91496W        W59901   8.694   6.253  11.517
91497W        W59902  29.920  20.060  13.917
91498W        W59903  20.267  40.101  14.884
91499W        W59904   0.840  21.982  13.814
91500W        W59905  25.509  33.989   4.279
91501W        W59906  39.405  23.216  14.104
91502W        W59907  21.791  19.289  11.187
91503W        W59908   2.335  43.446  13.343
91504W        W59909   6.330  23.621  11.584
91505W        W59910  18.981   5.173  11.163
91506W        W59911  18.679   1.197  14.205
91507W        W59912  42.301  24.686   0.806
91508W        W59913  12.589  37.740  13.910
91509W        W59914  43.745  15.099   2.892
91510W        W59915  25.442  25.946   2.697
91511W        W59916  16.233  29.921  14.485
91512W        W59917  39.524  11.722  12.905
91513W        W59918  38.143  11.611  12.218
91514W        W59919  38.105  22.806   0.270
91515W        W59920  21.315   2.751  10.715
91516W        W59921   8.401  33.417   2.369
91517W        W59922  35.798  10.786  12.582
91518W        W59923  12.293  35.334   4.264
91519W        W59924  33.870  22.016  11.509
91520W        W59925  39.898   9.095  12.402
91521W        W59926  14.719  10.248   3.873
91522W        W59927  33.537  30.421   0.679
91523W        W59928   9.892  43.056   4.159
91524W        W59929   4.181  29.669   3.740
91525W        W59930  42.946  22.589  13.973
91526W        W59931  14.773  38.175  14.304
91527W        W59932   3.931   1.002   4.240
91528W        W59933  42.753  18.134  11.566
91529W        W59934   5.667  16.336   3.655
91530W        W59935  42.792  25.948   0.774
91531W        W59936  35.064  40.875   4.324
91532W        W59937  40.883  11.785   2.877
91533W        W59938  44.424  23.825   0.316
91534W        W59939   2.250  13.274   3.093
91535W        W59940  21.169  37.021  14.538
91536W        W59941   9.167  38.538   2.468
91537W        W59942  34.958  33.685  13.266
91538W        W59943  10.688   7.582  13.855
91539W        W59944  40.896  14.131   0.295
91540W        W59945  35.598   4.218  14.054
91541W        W59946  37.314  26.265   4.499
91542W        W59947  20.758  20.154   1.148
91543W        W59948   9.649   9.239  11.137
91544W        W59949  35.326  30.107  13.455
91545W        W59950  40.491  26.675   1.318
91546W        W59951   4.819   2.510  11.575
91547W        W59952   6.383  40.875  10.625
91548W        W59953   7.290  43.456  13.451
91549W        W59954  42.092  43.433   0.693
91550W        W59955  17.134  20.833  11.467
91551W        W59956  16.352  44.035  14.017
91552W        W59957   5.647  12.773  13.183
91553W        W59958  14.659  21.295  13.337
91554W        W59959   7.444  13.182   1.923
91555W        W59960  27.027   4.841   4.918
91556W        W59961   3.877   2.706   2.468
91557W        W59962  32.205   0.626  14.275
91558W        W59963  34.090  32.609  10.975
91559W        W59964  20.090  44.076   2.680
91560W        W59965  41.330   5.789   4.532
91561W        W59966  42.508   6.737   4.549
91562W        W59967   9.053  33.755   1.478
91563W        W59968  12.823  26.730  11.500
91564W        W59969  10.897  13.392   2.152
91565W        W59970  33.725   4.258   3.729
91566W        W59971  20.633  21.179   4.044
91567W        W59972  39.571  29.639  14.309
91568W        W59973   8.752  39.060  13.395
91569W        W59974   7.855   0.400  11.694
91570W        W59975  11.157  44.407  13.798
91571W        W59976   6.500  38.283  13.901
91572W        W59977  31.681  42.877  11.944
91573W        W59978  12.713  29.868  13.668
91574W        W59979   7.817  44.330  12.687
91575W        W59980  17.338  33.954  13.325
91576W        W59981  25.186   6.470  13.301
91577W        W59982  24.191  13.600  10.803
91578W        W59983  37.978   8.308  13.720
91579W        W59984  15.516   5.601  13.317
91580W        W59985  42.883  42.860  12.575
91581W        W59986  20.708  19.229   1.365
91582W        W59987  33.654  10.761   4.607
91583W        W59988  30.969  34.835  14.138
91584W        W59989  42.584   4.249   3.205
91585W        W59990  10.616  31.856  14.877
91586W        W59991  39.948  14.308   4.470
91587W        W59992  42.007   8.950   1.738
91588W        W59993  28.995   6.123  11.557
91589W        W59994   7.865  39.981  12.508
91590W        W59995  13.478  14.307  11.021
91591W        W59996   5.023   1.719  14.311
91592W        W59997  19.975  35.840   0.548
91593W        W59998  35.618  35.644  11.680
91594W        W59999   6.998  19.980   1.256
91595W        W60000  28.715  27.989  11.991
91596W        W60001  15.118   6.995   3.683
91597W        W60002  13.903  27.495  14.280
91598W        W60003  11.419   1.908   2.734
91599W        W60004  21.785  35.394   3.811
91600W        W60005   9.924  35.834  11.622
91601W        W60006  19.306  35.944  14.252
91602W        W60007  31.402  23.378   3.269
91603W        W60008  31.594   7.135  12.822
91604W        W60009  40.788  20.250  14.958
91605W        W60010   7.413  32.632  14.403
91606W        W60011  30.756  16.836  12.275
91607W        W60012   4.423  35.714  10.213
91608W        W60013  25.266  36.250  12.443
91609W        W60014  10.233  34.598  12.441
91610W        W60015  35.380  37.861   3.725
91611W        W60016   5.045  36.398  13.491
91612W        W60017  43.702   9.223   4.494
91613W        W60018   4.771  15.270   3.699
91614W        W60019  17.581  23.650  13.707
91615W        W60020   2.372  31.997  11.492
91616W        W60021  16.318   2.800   3.774
91617W        W60022  43.471   2.417   1.344
91618W        W60023  27.229  29.752   2.172
91619W        W60024  28.300  14.556  10.562
91620W        W60025  30.621  42.271   2.440
91621W        W60026   2.725  14.632   3.147
91622W        W60027  31.846  19.721  14.220
91623W        W60028  20.311  10.186   1.382
91624W        W60029  29.832  11.671   2.068
91625W        W60030  31.074  19.671  11.547
91626W        W60031   3.343  43.349  13.943
91627W        W60032  41.876  13.321  10.533
91628W        W60033  33.019   7.146  10.825
91629W        W60034   7.675  38.954   1.913
91630W        W60035  42.226  23.046   1.503
91631W        W60036  40.104  34.695  11.779
91632W        W60037   3.325  38.845   0.876
91633W        W60038   6.466  30.482  13.357
91634W        W60039  34.177  40.281   0.390
91635W        W60040  17.319  32.774   3.664
91636W        W60041  24.079   3.806  11.122
91637W        W60042  36.838  17.740   4.548
91638W        W60043  41.096   0.551   4.550
91639W        W60044  16.862  34.560  14.219
91640W        W60045  14.286   3.680   4.919
91641W        W60046  16.825  27.616   3.337
91642W        W60047  12.605  13.275   2.625
91643W        W60048  23.732  31.546   3.252
91644W        W60049   5.723  20.174  14.422
91645W        W60050  13.103  36.853  12.918
91646W        W60051  40.685   6.438   2.251
91647W        W60052  29.919  20.730   4.459
91648W        W60053  39.249  26.974  14.747
91649W        W60054   0.254   5.832   3.575
91650W        W60055   7.773   7.663  13.373
91651W        W60056  41.248   1.758  11.102
91652W        W60057  35.168  24.495   0.405
91653W        W60058   7.165  32.158   3.202
91654W        W60059  13.151  29.607   2.730
91655W        W60060  12.607  36.961  12.104
91656W        W60061  31.440   3.801  14.239
91657W        W60062   7.423  28.545  11.506
91658W        W60063   9.723  35.943  12.095
91659W        W60064  39.951  42.536  12.653
91660W        W60065  10.464  21.017  12.871
91661W        W60066  34.606   9.540  14.572
91662W        W60067  14.561  17.788   0.690
91663W        W60068  32.793   7.205  13.473
91664W        W60069  11.402  43.105   4.972
91665W        W60070  31.270  34.689   4.037
91666W        W60071  35.385  43.198  14.899
91667W        W60072  22.970  41.781  10.721
91668W        W60073  35.911  26.909   3.580
91669W        W60074  40.804  27.708  12.033
91670W        W60075  35.280   6.780   4.615
91671W        W60076  41.175  33.303   3.969
91672W        W60077  35.690  11.753  12.136
91673W        W60078  31.560   8.882   3.959
91674W        W60079  15.394  34.629   1.838
91675W        W60080  38.034  12.628   4.600
91676W        W60081  24.961   4.872   1.173
91677W        W60082  44.764  42.949   3.765
91678W        W60083  42.932  31.944  12.031
91679W        W60084  16.331  40.178   2.174
91680W        W60085   1.909  17.627  12.515
91681W        W60086   3.636   9.822   1.669
91682W        W60087  13.759  17.697  11.653
91683W        W60088  17.477  11.562   1.348
91684W        W60089  40.627  30.481   4.088
91685W        W60090  24.447  22.936  11.764
91686W        W60091  43.182  29.300   2.782
91687W        W60092  34.055   5.430   0.374
91688W        W60093  30.115   6.835  12.106
91689W        W60094  31.579   1.926  12.557
91690W        W60095  10.076  11.153  13.969
91691W        W60096  15.713  16.677  13.584
91692W        W60097   1.275  13.092  12.745
91693W        W60098   3.225  17.642  12.000
91694W        W60099  39.814  32.232   4.283
91695W        W60100  15.151  16.760   4.048
91696W        W60101  15.227  27.646  11.738
91697W        W60102   0.378  33.859  12.057
91698W        W60103  21.581   7.620  12.425
91699W        W60104  14.585  25.461   4.455
91700W        W60105   7.147   1.394   0.001
91701W        W60106  20.722  13.322   3.899
91702W        W60107  41.306  17.728   1.052
91703W        W60108  39.428   1.765   0.253
91704W        W60109  15.704   7.946   0.845
91705W        W60110   2.911  15.576   4.640
91706W        W60111   6.688  14.759  13.839
91707W        W60112  39.066   1.094  12.845
91708W        W60113  39.408  44.253   2.285
91709W        W60114  44.175  41.138  13.010
91710W        W60115   2.179   8.651  11.571
91711W        W60116  31.492  25.118  10.747
91712W        W60117  14.152  34.119   2.870
91713W        W60118   9.843  32.970  14.916
91714W        W60119   4.257  35.346   1.883
91715W        W60120  38.047  19.241   1.731
91716W        W60121  42.020  19.456  10.763
91717W        W60122  27.518   0.273  13.816
91718W        W60123  44.803  43.011   0.876
91719W        W60124  33.582  21.557  13.566
91720W        W60125  20.845  15.246  11.537
91721W        W60126  15.794  27.922   1.758
91722W        W60127  39.294  33.009   3.718
91723W        W60128  42.346  24.221   3.126
91724W        W60129   0.433  35.774  12.229
91725W        W60130  36.153  25.075  14.469
91726W        W60131  41.889  15.669   2.717
91727W        W60132   3.056   7.220  10.961
91728W        W60133   4.443   7.200   2.166
91729W        W60134  23.239  27.477   0.428
91730W        W60135   8.343  19.548   3.915
91731W        W60136  17.294  38.005   1.793
91732W        W60137  25.991   8.846  13.012
91733W        W60138   0.831   3.734   0.315
91734W        W60139  16.811  20.475   0.524
91735W        W60140  37.100  34.782   0.616
91736W        W60141  41.942  30.968   3.188
91737W        W60142  38.899  41.245  14.859
91738W        W60143  42.693  25.119  11.580
91739W        W60144  28.559   0.828   4.990
91740W        W60145  33.012  25.112  13.389
91741W        W60146  18.569   0.075   1.374
91742W        W60147  10.769  10.123   0.341
91743W        W60148   0.168   5.321  12.448
91744W        W60149  40.240   0.564   3.426
91745W        W60150   0.329   2.329   2.807
91746W        W60151  39.554   7.638   1.293
91747W        W60152   6.587  26.953  14.539
91748W        W60153   3.509  24.197   3.256
91749W        W60154   8.235  15.021  13.605
91750W        W60155  37.990   4.897   3.311
91751W        W60156  27.448   7.117   0.007
91752W        W60157  16.679  11.289   3.300
91753W        W60158  32.459   5.519   0.401
91754W        W60159   8.444  18.099  13.348
91755W        W60160  10.095  23.249   4.228
91756W        W60161  20.948  22.548  11.954
91757W        W60162   5.943  34.582  14.449
91758W        W60163  43.907  37.365   3.042
91759W        W60164  30.521  25.737   1.714
91760W        W60165  13.529  11.955  13.024
91761W        W60166  24.569   5.371   0.202
91762W        W60167  34.268  12.401   1.303
91763W        W60168   5.400  37.551  14.303
91764W        W60169  14.968   0.351  12.975
91765W        W60170   5.252   3.263  11.516
91766W        W60171  42.493  12.092   3.393
91767W        W60172   4.462   4.297   5.470
91768W        W60173  40.316  28.242  14.458
91769W        W60174  33.853   4.888  11.121
91770W        W60175  38.246  32.000   4.696
91771W        W60176   0.718  24.215  14.719
91772W        W60177  29.534  25.991   2.333
91773W        W60178  27.205  14.314  11.243
91774W        W60179  15.662  41.303   0.442
91775W        W60180  36.320  11.277   1.292
91776W        W60181  44.147  20.864  14.591
91777W        W60182  23.042   1.132   0.251
91778W        W60183  21.469   0.764   2.732
91779W        W60184  35.578   1.760   1.708
91780W        W60185   8.245  39.762   0.523
91781W        W60186   5.201  28.172   4.220
91782W        W60187  33.434  17.697  10.270
91783W        W60188  39.411  28.204  13.383
91784W        W60189  40.540  23.376  12.151
91785W        W60190  34.085  21.589   0.050
91786W        W60191  24.179  13.763  13.929
91787W        W60192  44.376  12.838   2.176
91788W        W60193   0.298  30.860  12.961
91789W        W60194  24.593  22.715  12.636
91790W        W60195  40.219   1.474   3.482
91791W        W60196   1.289  32.436  14.326
91792W        W60197  31.390   8.307   3.235
91793W        W60198  20.693  23.458  11.597
91794W        W60199  28.590  10.994  13.336
91795W        W60200  20.952   9.744  12.556
91796W        W60201   7.819  28.979  11.214
91797W        W60202  24.981  12.330  14.953
91798W        W60203  11.853  16.641  14.213
91799W        W60204  38.987  38.447  12.001
91800W        W60205  12.987  28.961  11.216
91801W        W60206  39.446   1.218  11.673
91802W        W60207  32.513  40.607   1.729
91803W        W60208  33.534  28.666   0.025
91804W        W60209  41.894   3.379   0.291
91805W        W60210  22.139  43.750  12.537
91806W        W60211  40.039  35.882  13.323
91807W        W60212  12.010  37.559  10.329
91808W        W60213   7.735   5.740   2.929
91809W        W60214  18.100  17.046  13.714
91810W        W60215  23.360  29.973  12.357
91811W        W60216   2.810  13.222  13.836
91812W        W60217  35.323  26.193   3.436
91813W        W60218   9.096  23.515  13.006
91814W        W60219  15.728  32.200  13.085
91815W        W60220  42.844  10.846  14.355
91816W        W60221   8.913  19.867   2.556
91817W        W60222  43.299   1.538   0.728
91818W        W60223  25.175  40.880   1.257
91819W        W60224   6.474  25.206  11.203
91820W        W60225   1.641   3.925   2.102
91821W        W60226  19.838  21.581  13.368
91822W        W60227  17.776  28.693   3.316
91823W        W60228  26.552  26.610   2.403
91824W        W60229   0.913   9.454   0.295
91825W        W60230  28.813  19.224   5.338
91826W        W60231   8.431   6.279   4.865
91827W        W60232  14.643  36.391  13.618
91828W        W60233  22.569  28.746  11.557
91829W        W60234  28.940  21.656   2.247
91830W        W60235  34.186  40.889   3.967
91831W        W60236  15.234  37.256   1.288
91832W        W60237   4.982  25.305   3.029
91833W        W60238  18.750  21.195  12.804
91834W        W60239  33.839  26.643   1.275
91835W        W60240  17.906   6.783   5.302
91836W        W60241  12.819  25.984   0.434
91837W        W60242  43.383  16.039  10.575
91838W        W60243  19.474  42.606   2.311
91839W        W60244  36.619  10.897  12.177
91840W        W60245  17.400  11.554  11.669
91841W        W60246  24.829   4.864  10.750
91842W        W60247   2.824  35.175   0.522
91843W        W60248  35.433  13.547   0.225
91844W        W60249   3.048  28.351  10.714
91845W        W60250  39.424  21.119   1.759
91846W        W60251  28.952  42.488   0.396
91847W        W60252  22.212  43.470   0.798
91848W        W60253   2.287  34.108   1.907
91849W        W60254  13.723  18.940  14.031
91850W        W60255  29.882  12.333  10.633
91851W        W60256  17.211  36.609  11.640
91852W        W60257   2.230  26.880   0.173
91853W        W60258  22.086   8.243  13.061
91854W        W60259   7.590  43.018  10.755
91855W        W60260  44.056  31.452  14.417
91856W        W60261  13.552  10.180   1.412
91857W        W60262  40.536  28.818  11.144
91858W        W60263  36.716  41.928   2.406
91859W        W60264  40.515  16.241   1.825
91860W        W60265   1.974  33.917   0.778
91861W        W60266  38.798   5.135   4.268
91862W        W60267  10.819  28.971  13.145
91863W        W60268  13.847  34.989  11.946
91864W        W60269  13.670  23.616   1.321
91865W        W60270  10.360  44.041  13.058
91866W        W60271   1.064   0.380  11.142
91867W        W60272  22.001  37.381   0.758
91868W        W60273  28.593  38.800   4.991
91869W        W60274   1.751  43.752  14.343
91870W        W60275  31.295  15.531   4.652
91871W        W60276  31.544  40.613  10.752
91872W        W60277  36.113  35.317  12.462
91873W        W60278   1.349   8.651  12.065
91874W        W60279   5.324  31.889  13.767
91875W        W60280  19.621  33.399  12.540
91876W        W60281   2.078  11.669  13.634
91877W        W60282  20.779  21.930  11.417
91878W        W60283  16.228  39.984  10.742
91879W        W60284   9.210  43.617   2.152
91880W        W60285  27.973   4.143  12.125
91881W        W60286  24.652  11.768  10.736
91882W        W60287  28.204   7.737   1.312
91883W        W60288  44.838   9.344  14.227
91884W        W60289  41.075  28.956  14.225
91885W        W60290   8.337  33.444  13.916
91886W        W60291   3.408   0.703  14.122
91887W        W60292  30.891  14.672  13.793
91888W        W60293  16.925  34.404   1.969
91889W        W60294  22.105  11.294   0.872
91890W        W60295  22.948  40.615   3.759
91891W        W60296  31.474  38.833   0.952
91892W        W60297  23.767  39.059  14.797
91893W        W60298   7.604  21.425  11.674
91894W        W60299  44.065  18.431   0.100
91895W        W60300  14.235  11.645  10.654
91896W        W60301  40.537   8.162   3.663
91897W        W60302  28.471  35.798   1.641
91898W        W60303   6.223  14.255   1.233
91899W        W60304  21.628  39.443  14.610
91900W        W60305  17.522  25.978  13.316
91901W        W60306   6.385  28.229  11.108
91902W        W60307  25.548  15.060   4.907
91903W        W60308  23.945  43.259  13.993
91904W        W60309  31.426  16.264  12.420
91905W        W60310  39.886  42.960   0.578
91906W        W60311  39.945  18.254  11.861
91907W        W60312  22.325  29.192   1.927
91908W        W60313  42.297  26.194   3.225
91909W        W60314   9.139  30.066  12.883
91910W        W60315   4.194  31.444  12.326
91911W        W60316   8.836  26.181   3.825
91912W        W60317  41.504  33.050   0.426
91913W        W60318  13.544  27.583  13.806
91914W        W60319  14.797  36.344   0.812
91915W        W60320  27.527  39.292   5.192
91916W        W60321  37.756  18.852   3.279
91917W        W60322   3.768  21.014   0.439
91918W        W60323  33.533  24.651  11.623
91919W        W60324  12.853  23.908   1.722
91920W        W60325  10.239  32.044   3.798
91921W        W60326  14.165   1.485   2.167
91922W        W60327  24.174  39.279  13.921
91923W        W60328   4.407   7.339  11.153
91924W        W60329   2.071  38.200   3.122
91925W        W60330  34.563   3.384   0.358
91926W        W60331  39.317   1.321   3.121
91927W        W60332  35.293  19.101  10.717
91928W        W60333  27.652  29.938   3.229
91929W        W60334  41.397  14.213   2.195
91930W        W60335  22.474  21.233  13.866
91931W        W60336  25.196  12.609   2.896
91932W        W60337  32.121  43.940   2.928
91933W        W60338   9.140  22.989  10.754
91934W        W60339  36.135  30.518   0.933
91935W        W60340  35.911  25.691  13.795
91936W        W60341  37.990   0.779   3.300
91937W        W60342  40.785  11.722   4.266
91938W        W60343  20.607  26.479  14.669
91939W        W60344  33.348   4.364   2.373
91940W        W60345  26.565  39.302   2.595
91941W        W60346   2.518  43.915  13.184
91942W        W60347   0.780  33.004  14.992
91943W        W60348   2.500  41.477  14.351
91944W        W60349  25.150  14.949  12.073
91945W        W60350  21.151   5.783  11.256
91946W        W60351  40.490   0.118   3.382
91947W        W60352  22.164   3.520   4.156
91948W        W60353   2.264  37.552   0.560
91949W        W60354  14.730  19.263  13.891
91950W        W60355  17.294  10.766  11.272
91951W        W60356  18.327   8.277   0.233
91952W        W60357  30.142  15.085  11.620
91953W        W60358  27.761  14.934   2.196
91954W        W60359   9.462  42.819   3.161
91955W        W60360  13.794  35.995  12.174
91956W        W60361  22.333  40.109   5.066
91957W        W60362  37.302  40.932  10.439
91958W        W60363  18.803  30.505  12.083
91959W        W60364  39.056  25.898  10.125
91960W        W60365  39.222  41.877  12.079
91961W        W60366  33.239   3.577   4.177
91962W        W60367  40.319  22.154  13.774
91963W        W60368  29.745  34.588  13.597
91964W        W60369  34.163  31.216  11.089
91965W        W60370  36.306   9.906  13.383
91966W        W60371  10.873  27.916  10.604
91967W        W60372  31.448  16.268   4.285
91968W        W60373  26.476  18.727   1.533
91969W        W60374  12.262  13.672  10.910
91970W        W60375  35.537  35.598  13.833
91971W        W60376   7.497   6.236   2.125
91972W        W60377  14.673  18.503  13.342
91973W        W60378  37.645  10.405  11.172
91974W        W60379  14.268  40.381  14.838
91975W        W60380   9.352  35.537   3.382
91976W        W60381  31.405  13.735  14.729
91977W        W60382  30.669   8.510   2.396
91978W        W60383  13.836   1.928  13.760
91979W        W60384  29.048  22.607  13.144
91980W        W60385   2.737  42.804   2.735
91981W        W60386  39.886  16.549  12.690
91982W        W60387  11.309   4.485   0.567
91983W        W60388  13.160  11.347  14.948
91984W        W60389  43.216   8.741  10.860
91985W        W60390  12.253   9.860  13.015
91986W        W60391   8.172  13.931   1.192
91987W        W60392  44.437   1.389  12.352
91988W        W60393  12.677  12.438   1.302
91989W        W60394  33.797  13.434  11.142
91990W        W60395  28.703  16.617   3.294
91991W        W60396  13.649  30.076  11.448
91992W        W60397  43.117  21.745   4.620
91993W        W60398   9.221  38.610  10.621
91994W        W60399  25.707  28.007  13.504
91995W        W60400  12.128  27.634  14.867
91996W        W60401  44.825  36.941   3.898
91997W        W60402  44.604  17.919  11.534
91998W        W60403   6.733  15.613   1.675
91999W        W60404   1.829  39.663   0.069
92000W        W60405  30.434   5.383   0.420
92001W        W60406  14.792  27.040   3.760
92002W        W60407  25.088  28.127   2.355
92003W        W60408  18.200  36.653  13.901
92004W        W60409  35.654  24.171   2.207
92005W        W60410  35.800  18.080  13.431
92006W        W60411  22.078  21.671   2.906
92007W        W60412  37.965  16.755   4.589
92008W        W60413   5.563  42.476  10.635
92009W        W60414  41.787   0.952   4.079
92010W        W60415  32.156  36.100   3.274
92011W        W60416  34.982  39.228   2.326
92012W        W60417  35.411  14.303   0.825
92013W        W60418  41.080  42.147   4.143
92014W        W60419   7.866  21.231  13.854
92015W        W60420  22.755  32.673  11.458
92016W        W60421  34.520  21.429   1.360
92017W        W60422  38.010  28.434  13.328
92018W        W60423   5.523   2.917   0.456
92019W        W60424  20.290  25.530  14.400
92020W        W60425  32.018  42.122   3.202
92021W        W60426   7.944  15.294   2.765
92022W        W60427  40.315  20.367   1.388
92023W        W60428  23.607  42.012   2.450
92024W        W60429  41.472   9.277   2.118
92025W        W60430  44.886  13.859  14.407
92026W        W60431  38.561  39.169  11.733
92027W        W60432   8.390  21.076  12.505
92028W        W60433   5.915  35.393  12.096
92029W        W60434  31.977  21.986   4.030
92030W        W60435   6.431  43.435  11.889
92031W        W60436  37.469  17.142   0.663
92032W        W60437  16.769  12.349   2.237
92033W        W60438  20.679  25.975   1.839
92034W        W60439  29.158  38.447  13.482
92035W        W60440  35.338  27.432  10.665
92036W        W60441  19.711  35.015  12.844
92037W        W60442  32.431  40.368   3.054
92038W        W60443   2.374  34.658  14.819
92039W        W60444  44.329  44.112   4.131
92040W        W60445  41.101  30.468  12.675
92041W        W60446   8.306  37.010  12.222
92042W        W60447  37.334  37.640   4.709
92043W        W60448  23.968  14.892   2.353
92044W        W60449   9.183   2.761   2.178
92045W        W60450   4.848   9.698   2.903
92046W        W60451  43.441  17.692  13.488
92047W        W60452  36.539  20.104   3.718
92048W        W60453   4.434  43.494  14.026
92049W        W60454  33.068   3.948   2.425
92050W        W60455  22.229   9.217  12.053
92051W        W60456  24.739  21.471  13.365
92052W        W60457  29.241   1.471   0.090
92053W        W60458  14.257  26.093  11.617
92054W        W60459  12.341  22.177  13.340
92055W        W60460   4.103   3.735  14.857
92056W        W60461  30.373  35.914   4.116
92057W        W60462  16.757  41.650   1.498
92058W        W60463  22.696  29.683  12.631
92059W        W60464  28.008  43.688   0.651
92060W        W60465  17.346  37.069   1.333
92061W        W60466  34.942   9.209   0.484
92062W        W60467  11.647  43.825   4.160
92063W        W60468  15.125  10.388  12.864
92064W        W60469  36.495   6.623  11.389
92065W        W60470  14.633  20.534   4.235
92066W        W60471   4.816  14.734   2.578
92067W        W60472  14.621  35.328  13.466
92068W        W60473  34.038  15.638   1.146
92069W        W60474  40.637   0.145  11.080
92070W        W60475  25.163  38.251   0.191
92071W        W60476  26.670  43.503   4.013
92072W        W60477  14.358  14.111   2.367
92073W        W60478  24.938  15.046   2.382
92074W        W60479  10.795  34.189   0.336
92075W        W60480  34.402  42.697  11.659
92076W        W60481  13.957  18.241  11.053
92077W        W60482  10.658  39.855  11.502
92078W        W60483  38.407   1.616  11.091
92079W        W60484  41.145   3.919  13.055
92080W        W60485  19.909  34.621  13.781
92081W        W60486   4.591   5.039   2.894
92082W        W60487  20.796   9.238   2.350
92083W        W60488  22.919   3.752  14.749
92084W        W60489  22.750  30.094   1.800
92085W        W60490  42.544  19.588   2.597
92086W        W60491  37.445  12.571  12.868
92087W        W60492   6.497  43.737  14.485
92088W        W60493  20.508  39.829   0.762
92089W        W60494  44.765  29.587   0.014
92090W        W60495  31.612  19.617   4.156
92091W        W60496  19.633  16.635  12.430
92092W        W60497  13.099  16.949   2.384
92093W        W60498  29.414   7.806  10.201
92094W        W60499  39.287  41.597   2.298
92095W        W60500  23.759  21.645  14.712
92096W        W60501  23.066  18.788   0.882
92097W        W60502   0.890  32.981   0.497
92098W        W60503  31.546  41.020  14.089
92099W        W60504   5.278   8.148  14.984
92100W        W60505  40.564  34.317   1.361
92101W        W60506  42.806  39.423  10.551
92102W        W60507  10.223  15.868   2.881
92103W        W60508  22.928  35.532  13.396
92104W        W60509  11.250   0.458  12.867
92105W        W60510   9.067  14.744   4.195
92106W        W60511  27.135  29.690  10.409
92107W        W60512   8.638  28.480  13.833
92108W        W60513  10.412   0.622   2.299
92109W        W60514  25.262  26.073  14.121
92110W        W60515  24.557  44.623  14.797
92111W        W60516  26.569  12.893   3.644
92112W        W60517  28.506   5.322   3.591
92113W        W60518  26.405  11.801   3.769
92114W        W60519   7.069  26.776   0.764
92115W        W60520  15.248  16.679   3.143
92116W        W60521  12.774   3.236  10.603
92117W        W60522  30.584  42.125  11.449
92118W        W60523  28.556  13.199  12.654
92119W        W60524   5.843  44.937  13.828
92120W        W60525  32.033  19.013   4.296
92121W        W60526  38.822  22.684  14.611
92122W        W60527  27.164  16.729   2.388
92123W        W60528   4.086   0.794   0.361
92124W        W60529  19.758  17.303   1.744
92125W        W60530  43.856  36.967  13.755
92126W        W60531  22.815  24.554   3.609
92127W        W60532  18.047  41.941  11.444
92128W        W60533  29.450  18.303   3.857
92129W        W60534  20.814   7.289   2.704
92130W        W60535  21.576  10.007   4.725
92131W        W60536  21.115  11.038   0.983
92132W        W60537  39.331  11.613  13.378
92133W        W60538   5.176  21.730   1.751
92134W        W60539  22.917  21.611   0.828
92135W        W60540  18.619  38.402   0.353
92136W        W60541  36.104  35.345  13.834
92137W        W60542  10.642  24.266   2.659
92138W        W60543   7.876  43.818  10.902
92139W        W60544  16.689   3.071  11.322
92140W        W60545  20.767  22.423  14.329
92141W        W60546  21.458  15.537   2.712
92142W        W60547  35.176  43.837   2.256
92143W        W60548  16.006  39.525  12.862
92144W        W60549  22.263  21.714   4.766
92145W        W60550  35.137  13.124   1.104
92146W        W60551  31.559   5.968  12.058
92147W        W60552  15.420  43.381  12.939
92148W        W60553  43.016   1.268   0.397
92149W        W60554  14.403  40.393   3.441
92150W        W60555  27.602  19.225   3.739
92151W        W60556  10.277  39.197  12.972
92152W        W60557   6.012  22.565  12.556
92153W        W60558  13.335   7.607   2.345
92154W        W60559  42.376   1.771   1.369
92155W        W60560  43.938  31.053  12.609
92156W        W60561  30.501  25.705   3.678
92157W        W60562  29.163  39.457   1.786
92158W        W60563  43.329   6.201   2.645
92159W        W60564  35.114  28.042  11.153
92160W        W60565  34.118  34.969  13.957
92161W        W60566  32.620  17.334  14.860
92162W        W60567  17.875   2.441   2.355
92163W        W60568  28.495  33.476   1.885
92164W        W60569  39.335   2.213  13.345
92165W        W60570  33.085   7.011  11.992
92166W        W60571  17.518   0.659   2.752
92167W        W60572  12.199  37.696  10.786
92168W        W60573  39.893  24.515   1.458
92169W        W60574   9.982  23.494   1.060
92170W        W60575  10.210  36.856  14.528
92171W        W60576  33.360  38.900  14.247
92172W        W60577  12.227  29.185  12.405
92173W        W60578  28.790  41.527   1.996
92174W        W60579  40.784  33.022   4.594
92175W        W60580   9.821  36.330   2.825
92176W        W60581  18.280  37.068  11.507
92177W        W60582  41.849  26.751   1.940
92178W        W60583   2.868  35.677   0.586
92179W        W60584   3.472   3.431  11.096
92180W        W60585  33.042  43.323   3.537
92181W        W60586  18.057   3.398   1.894
92182W        W60587   1.321  28.363   4.534
92183W        W60588  16.935   3.533  14.596
92184W        W60589  20.028   6.418  14.792
92185W        W60590  10.100  14.619   3.114
92186W        W60591  27.816   4.441   0.560
92187W        W60592  15.385  12.416  11.215
92188W        W60593  44.535  28.592  11.451
92189W        W60594  40.001  19.141  13.844
92190W        W60595  42.230   1.643  14.711
92191W        W60596  44.428   6.716   2.287
92192W        W60597  36.619  38.573  12.370
92193W        W60598  22.522  10.400  14.527
92194W        W60599  31.166  33.686   0.045
92195W        W60600  30.635  21.963  13.360
92196W        W60601  25.645   8.570  11.177
92197W        W60602  12.553  30.007  14.282
92198W        W60603  20.794   7.944  12.289
92199W        W60604  39.596  43.777  14.218
92200W        W60605  13.625  12.738   0.808
92201W        W60606  22.879  21.683  10.850
92202W        W60607  10.393  36.629  14.964
92203W        W60608  30.912  25.679   4.007
92204W        W60609  14.941  24.045  13.668
92205W        W60610  23.176  38.028  14.423
92206W        W60611  30.556   2.678   0.879
92207W        W60612   3.179  11.919   0.803
92208W        W60613  21.560  34.904   0.248
92209W        W60614  41.876  27.494  13.104
92210W        W60615  33.984  32.757  14.505
92211W        W60616  22.464  32.564  10.532
92212W        W60617  29.601  23.637   0.210
92213W        W60618  14.835  29.399  12.175
92214W        W60619  19.755  28.679   1.479
92215W        W60620  22.580  32.359  12.335
92216W        W60621  33.842   8.646   4.574
92217W        W60622  33.911  18.002  13.891
92218W        W60623   0.429  21.137  10.236
92219W        W60624  29.644  13.356   4.085
92220W        W60625   4.468  18.745   2.280
92221W        W60626   1.709  28.075   4.323
92222W        W60627  21.508  42.752  14.414
92223W        W60628   0.458  11.159   0.370
92224W        W60629  24.595  29.633   1.836
92225W        W60630  34.993  27.714   3.762
92226W        W60631  18.079  35.060   0.343
92227W        W60632  27.509  41.315  14.462
92228W        W60633   3.964  13.901  10.653
92229W        W60634  29.929  42.850   0.856
92230W        W60635  36.813   6.733  13.295
92231W        W60636  32.489   8.832   1.507
92232W        W60637  43.690  27.304  13.919
92233W        W60638  33.902  11.311   2.222
92234W        W60639  19.279  44.039   4.217
92235W        W60640  40.297  32.970  13.027
92236W        W60641   5.746  27.467  14.303
92237W        W60642  26.515  30.952  14.647
92238W        W60643  40.360  12.730   3.554
92239W        W60644  19.648  42.804  12.385
92240W        W60645  42.460   7.743   2.852
92241W        W60646   4.957  30.994  11.995
92242W        W60647   0.058  24.219  14.056
92243W        W60648   5.653  28.237  13.966
92244W        W60649  38.448   4.922  13.952
92245W        W60650  29.919  10.337   1.772
92246W        W60651  44.060  29.647  12.897
92247W        W60652  26.493  36.275  11.589
92248W        W60653   1.745   1.699  11.173
92249W        W60654  31.352  35.883  13.348
92250W        W60655  15.640  26.182   5.050
92251W        W60656  28.451   2.197   0.437
92252W        W60657  36.037  29.675  13.951
92253W        W60658   0.058   6.350   3.651
92254W        W60659  22.695  15.631   3.835
92255W        W60660  18.264  39.931   2.485
92256W        W60661  12.811  29.453  13.370
92257W        W60662  41.886  31.850   2.325
92258W        W60663  38.476  20.726   2.182
92259W        W60664  20.707   6.680   0.253
92260W        W60665   3.918   9.652   1.251
92261W        W60666  21.805  35.991  13.028
92262W        W60667  16.716  42.801  11.585
92263W        W60668  27.668  43.299   4.661
92264W        W60669  44.431   0.372  11.030
92265W        W60670  30.931  31.655  12.294
92266W        W60671  28.478   8.938   5.079
92267W        W60672  40.264  31.636   3.329
92268W        W60673  39.410  40.168   4.449
92269W        W60674  42.031  12.854   4.026
92270W        W60675   6.400  32.527   2.992
92271W        W60676  24.285  18.096  11.214
92272W        W60677  44.329   9.309  10.403
92273W        W60678   9.109   6.687  11.228
92274W        W60679  25.043  30.846  13.518
92275W        W60680   9.298   5.897  14.471
92276W        W60681  33.278  21.161  10.314
92277W        W60682  36.082  23.649  14.353
92278W        W60683  44.039   2.155  14.759
92279W        W60684  39.991  30.013   1.351
92280W        W60685  41.524   9.772  12.109
92281W        W60686  42.388  39.406   1.683
92282W        W60687  17.244  22.524  10.977
92283W        W60688  38.605  22.701  12.100
92284W        W60689   1.073  12.138  14.767
92285W        W60690  44.480  13.829  13.764
92286W        W60691  34.903  32.129   4.668
92287W        W60692  36.875  22.203  11.983
92288W        W60693  19.187  17.711  10.704
92289W        W60694   9.060  33.126  11.592
92290W        W60695  41.917  44.450   1.212
92291W        W60696  41.558  19.959   3.214
92292W        W60697  16.582  26.571  12.629
92293W        W60698   4.382   7.418  10.290
92294W        W60699  28.989   8.353  13.122
92295W        W60700  25.731   6.742  11.638
92296W        W60701  19.348  24.953   0.885
92297W        W60702   5.680  16.568  12.659
92298W        W60703   1.768   0.259   2.406
92299W        W60704  23.855   7.169   4.664
92300W        W60705  22.737   0.406  14.976
92301W        W60706  13.044  24.220   4.232
92302W        W60707  23.253  16.696  13.619
92303W        W60708  12.322  24.364   1.127
92304W        W60709  33.746  22.782  12.117
92305W        W60710  21.009  10.590   0.741
92306W        W60711  10.653   6.382   1.879
92307W        W60712  29.287  22.102  12.979
92308W        W60713  16.384  15.558   2.347
92309W        W60714   1.745  37.829   3.283
92310W        W60715  38.814  25.414   1.393
92311W        W60716  30.405  19.813  13.597
92312W        W60717  22.834  43.259   1.616
92313W        W60718  31.248  17.530  11.914
92314W        W60719  22.130  25.765   1.470
92315W        W60720  44.326  14.511  11.980
92316W        W60721  31.110  42.196   0.704
92317W        W60722  14.633  23.115  12.121
92318W        W60723  21.605  14.292  14.240
92319W        W60724  30.997  11.247  13.107
92320W        W60725   2.667  10.684  11.153
92321W        W60726  30.908   6.164  10.269
92322W        W60727  43.738  25.238  11.637
92323W        W60728   5.841   9.319   4.848
92324W        W60729  44.957  26.102   3.645
92325W        W60730  34.173  20.762  12.486
92326W        W60731  12.238  12.241   4.231
92327W        W60732  25.142  14.137   2.409
92328W        W60733  31.627  16.393   3.598
92329W        W60734  12.675  17.459  14.327
92330W        W60735   9.438  41.302   1.628
92331W        W60736  16.469  15.551  13.952
92332W        W60737  42.505  10.059   3.160
92333W        W60738  15.856  28.543   1.800
92334W        W60739  33.806  40.920   3.629
92335W        W60740  32.067  21.858   1.816
92336W        W60741   0.384  43.779  11.891
92337W        W60742   5.211  28.293   0.637
92338W        W60743  40.137  29.535  14.898
92339W        W60744  32.539  43.809   3.228
92340W        W60745   6.860  20.256   0.798
92341W        W60746  41.403   0.778  11.159
92342W        W60747  36.138  44.736   3.233
92343W        W60748   6.998  38.588   1.886
92344W        W60749  37.629  13.826   0.869
92345W        W60750  32.584  15.267  13.832
92346W        W60751   3.887  33.102   4.132
92347W        W60752  37.845   6.829   2.173
92348W        W60753  14.785   7.595   4.930
92349W        W60754   2.753   2.665   0.754
92350W        W60755   9.229   0.475   1.550
92351W        W60756  38.905  40.368  12.852
92352W        W60757   7.740  20.885  14.719
92353W        W60758  28.510  44.875   2.479
92354W        W60759  15.817  26.979   1.757
92355W        W60760  13.292   3.558  14.866
92356W        W60761   7.770  28.953  14.405
92357W        W60762   0.540  27.643   0.391
92358W        W60763  22.208  40.251   1.511
92359W        W60764  38.704   7.095   9.723
92360W        W60765  42.369  31.550  14.905
92361W        W60766  42.822  31.061   3.663
92362W        W60767  38.451  25.547  14.534
92363W        W60768  37.537  15.192   3.561
92364W        W60769  36.883  20.705  13.903
92365W        W60770  14.196  24.489   2.333
92366W        W60771   6.017  18.701  14.240
92367W        W60772   8.646  15.264  14.417
92368W        W60773  10.777   4.149   0.632
92369W        W60774  22.559   2.911  14.334
92370W        W60775   2.864  11.126  10.975
92371W        W60776  28.637  40.246  10.379
92372W        W60777  23.914   1.966   1.723
92373W        W60778   4.852  19.953  13.524
92374W        W60779  34.021  42.931  10.591
92375W        W60780   3.938  36.053  13.909
92376W        W60781  38.993  17.341  13.385
92377W        W60782   9.754  43.989   2.724
92378W        W60783  29.612  17.038   3.144
92379W        W60784   0.504  31.869   1.941
92380W        W60785  12.253   4.621   2.850
92381W        W60786   5.277  20.271  13.493
92382W        W60787  35.561   8.502   4.227
92383W        W60788  13.627  32.670  11.993
92384W        W60789  17.494   4.170  11.029
92385W        W60790   3.536   7.190   3.620
92386W        W60791  28.911   6.851  13.825
92387W        W60792  32.371   9.297  11.909
92388W        W60793  17.697   3.751  10.747
92389W        W60794   2.978  44.320   4.246
92390W        W60795   7.268  35.862   4.169
92391W        W60796  26.974  13.550   4.409
92392W        W60797   3.564  15.712  12.372
92393W        W60798  25.800  44.493  13.879
92394W        W60799  24.990  38.792  14.579
92395W        W60800  31.824  23.998   1.857
92396W        W60801  13.764  40.497  10.619
92397W        W60802  23.056  18.592  10.442
92398W        W60803  43.393  21.108   4.215
92399W        W60804  11.669  23.025   0.762
92400W        W60805  40.784  21.423   3.647
92401W        W60806  31.301  39.568   5.298
92402W        W60807  20.409   0.432  10.164
92403W        W60808  22.156  32.653   1.122
92404W        W60809  18.677  20.104  14.295
92405W        W60810  28.342  14.646   5.154
92406W        W60811   0.756  27.758  10.949
92407W        W60812   2.749  12.326   3.759
92408W        W60813  15.680  29.081  11.209
92409W        W60814   7.186   8.736   0.841
92410W        W60815  39.095  33.161   3.202
92411W        W60816  25.060  42.219  13.354
92412W        W60817   9.294  27.572  13.584
92413W        W60818  43.920   5.647   1.776
92414W        W60819   0.433  22.242   2.768
92415W        W60820  20.643   6.348  13.262
92416W        W60821  38.766  14.186  13.579
92417W        W60822  18.209   1.762   1.094
92418W        W60823  15.772  40.864   1.704
92419W        W60824   8.122  32.989  12.825
92420W        W60825  30.406   9.662  12.614
92421W        W60826  29.447  28.951  11.284
92422W        W60827  10.762  38.876   4.727
92423W        W60828  28.790   9.081  10.616
92424W        W60829  26.036  12.795  14.433
92425W        W60830  23.117  42.404   1.034
92426W        W60831  11.900   4.340   1.633
92427W        W60832  29.394  33.550  14.014
92428W        W60833  34.749  17.509   4.125
92429W        W60834  14.852  18.585   0.194
92430W        W60835  14.855   9.561   0.264
92431W        W60836  17.623  31.666   0.396
92432W        W60837  23.962  35.031  14.030
92433W        W60838  40.689   2.063  12.601
92434W        W60839  15.015  44.460   1.418
92435W        W60840  43.240  36.422  10.825
92436W        W60841   9.829  27.615  13.698
92437W        W60842   1.275  22.801  13.081
92438W        W60843  10.797   3.534  13.254
92439W        W60844  24.059   7.865  13.384
92440W        W60845  42.062   2.891   3.348
92441W        W60846   3.760  30.024  13.999
92442W        W60847  36.170  13.131  13.057
92443W        W60848  26.099  24.240  12.557
92444W        W60849  15.875   0.044   3.149
92445W        W60850   9.139   0.865   0.941
92446W        W60851  41.274  11.318  11.133
92447W        W60852  10.182  30.869  10.262
92448W        W60853  22.075  40.325  13.835
92449W        W60854  29.393  38.861  14.833
92450W        W60855  33.287  11.065  11.961
92451W        W60856   6.365   2.457  14.417
92452W        W60857   2.938  25.260   2.804
92453W        W60858  14.616  26.927  14.632
92454W        W60859  36.947  41.842  14.253
92455W        W60860  28.679  28.600   4.021
92456W        W60861   8.512  22.055   0.827
92457W        W60862   8.354  23.707  13.914
92458W        W60863  24.805  24.623   1.758
92459W        W60864  37.462  11.118  13.157
92460W        W60865  10.428  11.170   0.686
92461W        W60866   1.180  20.078   3.866
92462W        W60867   9.315  10.665  13.626
92463W        W60868   2.545  43.874   3.467
92464W        W60869  27.527   6.022  11.982
92465W        W60870   1.052  11.681   0.182
92466W        W60871  26.691  23.074   4.889
92467W        W60872   5.645  22.580  14.281
92468W        W60873  29.222  29.714   1.669
92469W        W60874  30.725  29.385  12.435
92470W        W60875  32.163  26.113  10.486
92471W        W60876  28.204   1.784  13.370
92472W        W60877  40.001   4.907  11.736
92473W        W60878   9.909  28.122   2.674
92474W        W60879  29.498  17.105  11.547
92475W        W60880  16.362   6.187   2.160
92476W        W60881  42.406  24.184  11.825
92477W        W60882  33.175  19.078   3.682
92478W        W60883  25.923  38.445  11.158
92479W        W60884   7.011   3.803  13.420
92480W        W60885  31.435   7.243  10.628
92481W        W60886   7.156   6.337  11.188
92482W        W60887  26.811   4.465  13.540
92483W        W60888  25.704  42.942   4.580
92484W        W60889  35.712  27.102  13.524
92485W        W60890  12.768  31.714   0.653
92486W        W60891  33.278   5.496   4.201
92487W        W60892   5.961   9.804   0.368
92488W        W60893  16.302  32.204   1.797
92489W        W60894   7.519  22.230   1.809
92490W        W60895   3.001   8.539   4.976
92491W        W60896   5.218   5.655  13.045
92492W        W60897  40.038  44.542  13.923
92493W        W60898  27.671  34.099   1.211
92494W        W60899   9.215   5.135   0.465
92495W        W60900  26.891  36.560  13.964
92496W        W60901   6.271   3.250  12.506
92497W        W60902  44.005  27.629  10.925
92498W        W60903  30.639  29.933  12.454
92499W        W60904   3.753  38.381   4.539
92500W        W60905   4.174  28.246  12.954
92501W        W60906  43.639  22.117  10.531
92502W        W60907  26.619  29.043  13.309
92503W        W60908  30.454  41.503   0.254
92504W        W60909  17.531   1.968  12.053
92505W        W60910  28.903   9.642  11.630
92506W        W60911   3.436   0.250  13.861
92507W        W60912   7.729  38.905   0.557
92508W        W60913  38.895  32.944  12.994
92509W        W60914  36.894  40.278  11.138
92510W        W60915  17.262  33.848  13.837
92511W        W60916  29.187  28.856   1.211
92512W        W60917  10.329  33.392  12.480
92513W        W60918  11.004  20.987  12.788
92514W        W60919  12.537  10.202   1.399
92515W        W60920   6.365  36.974   0.433
92516W        W60921  19.319  19.561  12.821
92517W        W60922  31.185  38.402   4.356
92518W        W60923  22.167   5.863  14.565
92519W        W60924  42.532   4.815  13.776
92520W        W60925  10.245   0.230  13.677
92521W        W60926  27.681  37.573  11.023
92522W        W60927   7.762  26.984  13.433
92523W        W60928  37.989  23.090   4.166
92524W        W60929   4.974  37.628  10.701
92525W        W60930  41.531  14.356  12.294
92526W        W60931  44.797  28.474  13.868
92527W        W60932  21.715  24.012  10.919
92528W        W60933   4.693  38.188   1.930
92529W        W60934  28.020  18.008  13.943
92530W        W60935  14.324  10.076   0.698
92531W        W60936  43.340  33.584   4.526
92532W        W60937  17.096  24.859   0.424
92533W        W60938  12.658   1.491   3.502
92534W        W60939  37.615  18.810   1.741
92535W        W60940   4.873  39.292   3.707
92536W        W60941   4.352  41.186   4.530
92537W        W60942  23.230  24.720  14.043
92538W        W60943  36.986  10.447   3.211
92539W        W60944  14.280   2.826  12.459
92540W        W60945  41.285  23.153   2.457
92541W        W60946  19.308  43.798  11.390
92542W        W60947  17.867  21.578  13.164
92543W        W60948  30.893  13.564  12.415
92544W        W60949  10.848  28.325   4.616
92545W        W60950  20.278  38.001  11.558
92546W        W60951   8.304  12.695   3.023
92547W        W60952  43.137  33.331  13.443
92548W        W60953  11.506   4.305   0.122
92549W        W60954   8.222  30.256  13.385
92550W        W60955  16.373  11.193  12.902
92551W        W60956  31.096  22.148   2.789
92552W        W60957   8.730  43.987   3.865
92553W        W60958  42.991  38.006  12.370
92554W        W60959   2.378  20.546  11.899
92555W        W60960  36.936  14.706   1.312
92556W        W60961  12.743   8.698   4.544
92557W        W60962  38.125  29.684  12.036
92558W        W60963   1.989  26.901  13.012
92559W        W60964  29.059   6.677   3.050
92560W        W60965  33.100  19.961  14.563
92561W        W60966  20.611  31.950   4.863
92562W        W60967  19.997  16.759  11.534
92563W        W60968  39.183  41.828  13.367
92564W        W60969  10.484  18.185  12.726
92565W        W60970  43.137  33.587  14.788
92566W        W60971  25.422  40.896   1.767
92567W        W60972   8.618   9.963  11.281
92568W        W60973  30.911  32.246  14.243
92569W        W60974   6.344   0.011  14.787
92570W        W60975  43.769  38.541   2.107
92571W        W60976  41.441   6.178  13.118
92572W        W60977  17.284   3.573   1.845
92573W        W60978  19.586   3.616   0.539
92574W        W60979  35.101  16.584  13.564
92575W        W60980  21.301  14.034  11.961
92576W        W60981  11.313  29.904  12.377
92577W        W60982  18.574   5.616   2.384
92578W        W60983  19.128   3.193  14.882
92579W        W60984  29.935  27.955  11.052
92580W        W60985  36.397  15.575  10.676
92581W        W60986  37.482  32.846  13.147
92582W        W60987  24.521   0.798   3.316
92583W        W60988  25.614  16.733  10.635
92584W        W60989  31.697  37.767   2.919
92585W        W60990  33.844  19.517  14.972
92586W        W60991  23.155  19.099  13.892
92587W        W60992  43.939  42.094   0.456
92588W        W60993  44.958  40.281  13.787
92589W        W60994  41.634  32.491   0.243
92590W        W60995  31.926   5.494   2.905
92591W        W60996  25.537   1.799  10.563
92592W        W60997  39.087  44.284  14.013
92593W        W60998  21.152  14.741   3.767
92594W        W60999  42.008  25.697  14.942
92595W        W61000  27.925  15.985   2.126
92596W        W61001  15.794  40.268  12.344
92597W        W61002  28.218  34.908   0.392
92598W        W61003  20.244  44.747   0.488
92599W        W61004   4.417  27.695  14.553
92600W        W61005  40.714  24.689   3.097
92601W        W61006  31.901   7.702   5.267
92602W        W61007  20.026  42.882   2.772
92603W        W61008  28.512  36.683   4.892
92604W        W61009  20.248  23.995  14.165
92605W        W61010  34.474  30.102  13.728
92606W        W61011  43.776  19.714  14.967
92607W        W61012  39.417  16.693  14.440
92608W        W61013  28.986  36.606   1.746
92609W        W61014   5.369  13.798   4.367
92610W        W61015  30.827   1.490  14.652
92611W        W61016  44.858   8.464   9.676
92612W        W61017  40.875   9.072  11.594
92613W        W61018  31.939   6.948  13.405
92614W        W61019  34.219  36.012   4.303
92615W        W61020   2.608  10.551   0.660
92616W        W61021  28.351  44.389  10.073
92617W        W61022  31.977   5.377  12.476
92618W        W61023  31.396  17.324   9.617
92619W        W61024   4.652   4.469  12.986
92620W        W61025  40.397  21.042  11.233
92621W        W61026  27.996  18.247  14.801
92622W        W61027  42.620  38.276  13.935
92623W        W61028  23.148  29.394   3.652
92624W        W61029  14.714  22.608  12.942
92625W        W61030  17.690  16.024  12.108
92626W        W61031  21.158   4.875   3.576
92627W        W61032  33.338  19.806   1.820
92628W        W61033  41.204  14.735  12.164
92629W        W61034  10.648  20.752   0.783
92630W        W61035  27.650  43.290   4.146
92631W        W61036  19.566  20.602   1.298
92632W        W61037  18.744  42.676  12.389
92633W        W61038  39.884  17.084  13.399
92634W        W61039   0.707  40.408   1.446
92635W        W61040  25.171  16.254  13.867
92636W        W61041   7.959  21.792  12.524
92637W        W61042  13.245  28.738  10.433
92638W        W61043  13.855  23.132   3.687
92639W        W61044  26.585   0.452   1.869
92640W        W61045   9.055  44.383   1.660
92641W        W61046  33.160   7.455  10.394
92642W        W61047  11.149   2.681  13.975
92643W        W61048  36.935  16.444  10.741
92644W        W61049   9.243   7.205  11.179
92645W        W61050  15.767  35.615  10.430
92646W        W61051   7.875  12.780  14.687
92647W        W61052  16.182  42.466   1.867
92648W        W61053  20.234  40.535  11.270
92649W        W61054  25.167  22.057  11.257
92650W        W61055  25.866  37.452  12.589
92651W        W61056  34.160  39.533  13.105
92652W        W61057   4.318   4.658  12.609
92653W        W61058  14.424  29.074   3.790
92654W        W61059  12.852  28.475   2.425
92655W        W61060   3.785  11.035  12.593
92656W        W61061   4.446  36.445   0.456
92657W        W61062   5.207   2.689   0.065
92658W        W61063  17.585   3.191   2.739
92659W        W61064   0.053  38.459   3.246
92660W        W61065  41.783  13.557   2.783
92661W        W61066  37.518  35.458   1.456
92662W        W61067  40.851  27.215   0.911
92663W        W61068  26.577  26.299  11.194
92664W        W61069  31.933  23.255   4.471
92665W        W61070  43.537  39.051  13.721
92666W        W61071   0.457  28.339  11.601
92667W        W61072  30.029  22.623  13.582
92668W        W61073  26.065  11.911  14.385
92669W        W61074  27.058  29.834  13.093
92670W        W61075  12.366  20.367  10.660
92671W        W61076  24.288  26.929  12.991
92672W        W61077  44.346  20.413   4.912
92673W        W61078  21.717  20.383  12.609
92674W        W61079   1.968  10.891   1.651
92675W        W61080  28.442  36.972  13.793
92676W        W61081  17.109   1.739  12.451
92677W        W61082  40.517  11.639   0.969
92678W        W61083   7.378  30.694  13.384
92679W        W61084  40.490  24.061   2.404
92680W        W61085   5.175  14.171   3.127
92681W        W61086   2.127  41.340   3.581
92682W        W61087  11.578   2.176   0.471
92683W        W61088  12.541  28.913  14.214
92684W        W61089  11.324  44.772   4.056
92685W        W61090   8.602  32.328  12.367
92686W        W61091  27.571  10.232   1.306
92687W        W61092  40.001  22.481   0.128
92688W        W61093  26.530  20.674  12.450
92689W        W61094  10.406  38.783   2.903
92690W        W61095   9.305  31.138  10.726
92691W        W61096  36.439   3.971   3.744
92692W        W61097  38.947   1.960  12.326
92693W        W61098   2.571  40.905  13.490
92694W        W61099  22.534   8.341   3.232
92695W        W61100  29.142  43.314  13.021
92696W        W61101  17.205   6.323  10.331
92697W        W61102  13.417   8.876  14.068
92698W        W61103  35.658  21.041  14.502
92699W        W61104   6.682  36.581  12.031
92700W        W61105   9.353  30.798  13.374
92701W        W61106  32.155  15.572   4.134
92702W        W61107  44.131  25.191  10.841
92703W        W61108  40.809  13.081   4.191
92704W        W61109  25.185  31.975   2.660
92705W        W61110  44.536  26.273   3.393
92706W        W61111  23.973  17.340  12.819
92707W        W61112  33.864  23.704  11.339
92708W        W61113  44.055  40.564  14.315
92709W        W61114  16.197  25.997   2.333
92710W        W61115   8.027  43.314   1.179
92711W        W61116  15.785   7.911  13.082
92712W        W61117   9.183  27.119  13.340
92713W        W61118  25.520  36.089  12.028
92714W        W61119   5.652  33.068   1.702
92715W        W61120  42.997  41.024  12.130
92716W        W61121  19.809  16.264  11.696
92717W        W61122  33.700  20.882  11.208
92718W        W61123  42.276  22.597  12.767
92719W        W61124  31.843   6.965  12.413
92720W        W61125  19.609  27.208   0.262
92721W        W61126  37.976  22.847   2.111
92722W        W61127  38.841  26.217   2.863
92723W        W61128  22.051  34.764   1.630
92724W        W61129  15.263  28.501  11.693
92725W        W61130  44.317  23.902  14.462
92726W        W61131  20.179  37.994   0.930
92727W        W61132  24.049   3.330  10.256
92728W        W61133  17.983  37.722  11.962
92729W        W61134  39.150  10.973  13.770
92730W        W61135  20.848  42.446   4.071
92731W        W61136  31.052   9.193   2.741
92732W        W61137  44.552  31.171  11.200
92733W        W61138  13.667   9.306   2.799
92734W        W61139  32.546  20.519   0.778
92735W        W61140  44.058   2.460   4.269
92736W        W61141  41.487  28.689   4.634
92737W        W61142  13.272  25.956   1.020
92738W        W61143  10.631  20.652  11.601
92739W        W61144  21.046   4.241  13.470
92740W        W61145  17.993  12.375  11.101
92741W        W61146  11.489  43.764  12.129
92742W        W61147  24.047  31.107   3.155
92743W        W61148  12.139  28.659   1.813
92744W        W61149  25.729  42.487   1.642
92745W        W61150  42.720   5.908  12.163
92746W        W61151  26.176   5.296  10.582
92747W        W61152   2.762  29.984   4.724
92748W        W61153  34.513   0.508   0.544
92749W        W61154   0.918   1.216  12.871
92750W        W61155   4.819  29.013   4.154
92751W        W61156  12.428  31.105  10.482
92752W        W61157  40.688   7.936   2.192
92753W        W61158  18.858  33.511  11.599
92754W        W61159  14.760  12.878   3.202
92755W        W61160  36.412   3.849  10.318
92756W        W61161   6.516  22.353  11.453
92757W        W61162  37.834  28.467   3.620
92758W        W61163  10.923   0.347  10.618
92759W        W61164   6.253  43.574   2.948
92760W        W61165  32.058   2.843   1.614
92761W        W61166  33.578  43.026  14.658
92762W        W61167  15.347   9.242  11.674
92763W        W61168  27.464  19.727  14.943
92764W        W61169  22.205  24.004  14.276
92765W        W61170  26.928   9.688   0.178
92766W        W61171  23.484  37.872  13.365
92767W        W61172  27.103  19.281   0.337
92768W        W61173  40.335   8.846   0.319
92769W        W61174  25.985  15.870   5.025
92770W        W61175  41.585   7.622   0.440
92771W        W61176  41.451  15.731   5.059
92772W        W61177  35.567  32.933   2.288
92773W        W61178   6.751   4.167  11.016
92774W        W61179  36.113  42.222  14.218
92775W        W61180  33.002  41.992  12.377
92776W        W61181  27.105  37.472  12.018
92777W        W61182  37.030  19.729  10.793
92778W        W61183  38.838   1.498   3.757
92779W        W61184  33.500  14.218   2.829
92780W        W61185  16.791   1.044  11.433
92781W        W61186   5.629   3.247   5.150
92782W        W61187   9.241  16.474  12.145
92783W        W61188   8.667  39.744   3.425
92784W        W61189  43.511  36.437  14.837
92785W        W61190   9.493   5.169   4.878
92786W        W61191  44.750   8.845  14.380
92787W        W61192  31.468  34.962  14.273
92788W        W61193  34.043   4.448  14.273
92789W        W61194  38.710   1.657   5.477
92790W        W61195  39.057  39.638   3.218
92791W        W61196  15.893  39.772  13.521
92792W        W61197   3.419  29.964   0.107
92793W        W61198  39.609  16.116   0.798
92794W        W61199  18.603   6.983   2.905
92795W        W61200  13.451  27.633  12.312
92796W        W61201  37.064   8.268   4.518
92797W        W61202  33.990  20.489   4.620
92798W        W61203  13.701   3.177   2.133
92799W        W61204  39.406   4.176  10.758
92800W        W61205  15.182  31.264  12.359
92801W        W61206  17.216  42.258  10.232
92802W        W61207  11.274  29.233  13.892
92803W        W61208   0.779   9.950   2.169
92804W        W61209  12.219  43.582   0.325
92805W        W61210  30.528  32.389   2.708
92806W        W61211  31.280   7.378   2.600
92807W        W61212  34.413   4.843   1.797
92808W        W61213   1.012  29.460   4.632
92809W        W61214   9.862  23.045   0.822
92810W        W61215   6.336  38.823   2.668
92811W        W61216  19.719  25.236   2.170
92812W        W61217  42.144  43.908   1.681
92813W        W61218  17.256  17.978  11.328
92814W        W61219  35.395  27.597   1.815
92815W        W61220   9.363  44.323  10.632
92816W        W61221  35.087  33.749  10.611
92817W        W61222   9.413  24.871  14.939
92818W        W61223  15.359  23.526   2.782
92819W        W61224  12.954  27.114   4.271
92820W        W61225   8.936  15.636  11.443
92821W        W61226  12.706  32.110   9.726
92822W        W61227  38.033  11.827  14.439
92823W        W61228  21.997  36.980   3.210
92824W        W61229   5.790  37.469   4.058
92825W        W61230  14.752  23.596   5.000
92826W        W61231  37.924  24.019  13.411
92827W        W61232  38.109  30.271   2.907
92828W        W61233   3.452  38.363   0.767
92829W        W61234  38.850  43.979   0.336
92830W        W61235   1.863  20.287   0.685
92831W        W61236  43.995  13.137   1.320
92832W        W61237   4.881   1.917   3.816
92833W        W61238   2.336  16.642  11.124
92834W        W61239  18.985  14.631  10.913
92835W        W61240  10.386  24.223  14.859
92836W        W61241  28.100  29.786   0.737
92837W        W61242   6.150  36.986   3.450
92838W        W61243   7.878  33.092   1.789
92839W        W61244  41.858  43.013   2.454
92840W        W61245   2.838  14.569  10.663
92841W        W61246  37.420  34.684   0.213
92842W        W61247  34.988  41.800  10.779
92843W        W61248  21.260  34.805  14.832
92844W        W61249  15.740   0.268   4.306
92845W        W61250  38.536  25.225   0.973
92846W        W61251  23.233  29.111   2.654
92847W        W61252  29.486  24.742  13.359
92848W        W61253  13.125  40.360   4.170
92849W        W61254   1.225  13.467   4.376
92850W        W61255  26.006  33.071  10.753
92851W        W61256  28.380  44.790   1.976
92852W        W61257  30.715  26.713   0.939
92853W        W61258  15.174  42.438  10.785
92854W        W61259   3.933  43.094  11.519
92855W        W61260  24.527  14.554   0.437
92856W        W61261  35.386  39.881  11.426
92857W        W61262  24.234  19.077  14.745
92858W        W61263  31.696  28.611  11.182
92859W        W61264  18.851   8.411   0.515
92860W        W61265   2.795  22.455   3.224
92861W        W61266  23.806  26.215   1.438
92862W        W61267  36.353   5.527   0.454
92863W        W61268  36.323  39.052   1.310
92864W        W61269  28.752  18.140  13.458
92865W        W61270  37.022  11.330  14.035
92866W        W61271   9.253   9.898  14.352
92867W        W61272   0.083  13.577  12.884
92868W        W61273   5.685  30.310  14.376
92869W        W61274  30.398  10.169   1.722
92870W        W61275  28.407  25.156   3.511
92871W        W61276  38.596  16.479   0.944
92872W        W61277  18.631  16.277   4.695
92873W        W61278  10.210  14.027  14.967
92874W        W61279  10.413  15.171   1.820
92875W        W61280   1.407  41.936   3.376
92876W        W61281  30.224  11.682   0.210
92877W        W61282  27.637  14.426  14.937
92878W        W61283  14.888  32.272   1.743
92879W        W61284  16.783  20.613   1.033
92880W        W61285  38.524  19.089   0.995
92881W        W61286   6.088   6.718   4.810
92882W        W61287  33.150  41.315  10.726
92883W        W61288  30.099  11.293   1.856
92884W        W61289  35.358  42.534   0.567
92885W        W61290  12.830  25.203  11.576
92886W        W61291  15.666  13.669   4.724
92887W        W61292  18.840   0.518   1.452
92888W        W61293  41.834  25.006   1.809
92889W        W61294  31.028  38.048  13.495
92890W        W61295  19.215  37.778  14.880
92891W        W61296  40.954   4.076  14.458
92892W        W61297  31.281   0.416  13.066
92893W        W61298   0.316  36.489   5.054
92894W        W61299  16.554  10.179  11.119
92895W        W61300  41.806   4.989  13.398
92896W        W61301  13.373  10.869  11.964
92897W        W61302  21.320  25.656   3.964
92898W        W61303  18.728   3.672   1.552
92899W        W61304   5.872  29.861  12.584
92900W        W61305   9.057  36.402  13.457
92901W        W61306  40.928  43.484   4.585
92902W        W61307  19.560  22.580  13.198
92903W        W61308   6.223   1.592  13.520
92904W        W61309  32.910  16.605   4.716
92905W        W61310  16.208  35.200  14.402
92906W        W61311  34.064  23.433   3.708
92907W        W61312   0.748  40.737  13.858
92908W        W61313   4.726  29.699  14.970
92909W        W61314  33.458   4.471   4.133
92910W        W61315  20.305  39.409  11.059
92911W        W61316  33.874  44.223  10.976
92912W        W61317  17.321  18.242  10.896
92913W        W61318  36.483   0.224  14.970
92914W        W61319  30.404  18.119  13.556
92915W        W61320  37.474  39.471  12.212
92916W        W61321  27.584  17.688   1.174
92917W        W61322  19.524   3.992  12.012
92918W        W61323  41.102   8.821   0.117
92919W        W61324  43.572  23.594  13.446
92920W        W61325  13.049  34.715   0.303
92921W        W61326   8.363  14.809   2.231
92922W        W61327  31.219  17.001  14.825
92923W        W61328  17.319  19.233   4.553
92924W        W61329  16.536  19.983  14.063
92925W        W61330  44.448   9.712   0.443
92926W        W61331  32.947  43.308   4.093
92927W        W61332  23.951  16.379  12.441
92928W        W61333  34.429  17.149  14.007
92929W        W61334  21.102  26.006   2.172
92930W        W61335  28.494  37.759  14.907
92931W        W61336  36.002  37.447  14.383
92932W        W61337  27.285  44.392   2.145
92933W        W61338  25.490   1.352   2.405
92934W        W61339   7.747  39.258   0.924
92935W        W61340  34.912  17.395  11.022
92936W        W61341  20.766   7.008  12.490
92937W        W61342  23.376  21.580  10.901
92938W        W61343  43.501   5.252  13.024
92939W        W61344  35.416   6.947  12.219
92940W        W61345   5.669  41.896  14.984
92941W        W61346   0.944   1.322  11.529
92942W        W61347  30.760  14.194  10.251
92943W        W61348  27.269   1.754  11.521
92944W        W61349  44.719  25.176  14.602
92945W        W61350  34.799  40.344  14.754
92946W        W61351   8.343  37.315   0.843
92947W        W61352   2.866  17.723   0.883
92948W        W61353  16.897   7.807   0.811
92949W        W61354  10.858  27.841   4.436
92950W        W61355  44.861  10.827   4.241
92951W        W61356  20.005  26.659   2.330
92952W        W61357  20.461  18.779   0.475
92953W        W61358  33.116  44.010   4.301
92954W        W61359  20.132  34.767  13.026
92955W        W61360  42.241   7.779  13.896
92956W        W61361  19.475  14.673  11.069
92957W        W61362  20.230  14.140  14.977
92958W        W61363   3.678  10.780   4.343
92959W        W61364  24.348  30.387  12.884
92960W        W61365   6.783  41.586   3.916
92961W        W61366  41.385  11.670  13.043
92962W        W61367  26.489   4.865   0.843
92963W        W61368  21.242  32.426  13.457
92964W        W61369  25.393  12.096  13.459
92965W        W61370  25.307  31.094  10.781
92966W        W61371  43.212   1.002   2.865
92967W        W61372  28.409  28.237   4.710
92968W        W61373  16.363  41.295  11.189
92969W        W61374  28.245  36.438   4.249
92970W        W61375   8.739  38.109   4.204
92971W        W61376  18.676  19.800   2.190
92972W        W61377   4.728  15.874  10.739
92973W        W61378  23.319   7.171  11.723
92974W        W61379   5.166  39.325  12.542
92975W        W61380  16.096  26.972  13.071
92976W        W61381  18.789   7.965   3.731
92977W        W61382  41.621  33.845   2.308
92978W        W61383  44.749  43.462  13.879
92979W        W61384  26.180  10.387   4.031
92980W        W61385   8.372  41.919   2.715
92981W        W61386  29.143  44.187  12.601
92982W        W61387  21.038  11.299  13.333
92983W        W61388   1.063  13.237   3.822
92984W        W61389  13.704  12.500   1.852
92985W        W61390   5.732   1.957   2.433
92986W        W61391   1.795  36.533   1.941
92987W        W61392  43.417   8.636   0.634
92988W        W61393   3.254  20.488  10.907
92989W        W61394   7.079  23.399   0.319
92990W        W61395  40.564  17.463   2.434
92991W        W61396   9.686  27.533   4.640
92992W        W61397  29.511  24.561   0.575
92993W        W61398  13.343   7.947  13.562
92994W        W61399  36.100  40.165   3.296
92995W        W61400  16.050  36.938   4.596
92996W        W61401  13.288  29.310   2.318
92997W        W61402  37.174   1.342  10.625
92998W        W61403  18.287  26.709  11.398
92999W        W61404   3.640   7.136  11.630
93000W        W61405  43.819  40.396   1.713
93001W        W61406  40.257  35.448   3.754
93002W        W61407   4.242   3.205  12.417
93003W        W61408  15.666  34.567   9.798
93004W        W61409  22.446   7.875  10.742
93005W        W61410  41.662  42.996  11.851
93006W        W61411  18.188  27.643  13.927
93007W        W61412  10.596   4.804  10.281
93008W        W61413  26.693  40.685   1.681
93009W        W61414  23.738  21.140  14.829
93010W        W61415  24.610   0.328  12.614
93011W        W61416  41.568  21.040  13.492
93012W        W61417  14.607  17.338   3.258
93013W        W61418  44.473  10.769   1.388
93014W        W61419   0.882   1.312   4.791
93015W        W61420  10.865  28.219  10.203
93016W        W61421  32.637   0.221  12.990
93017W        W61422  29.505  21.040  14.972
93018W        W61423  39.763   2.245   4.077
93019W        W61424  33.079  44.534  12.707
93020W        W61425   6.766  17.845   0.292
93021W        W61426   7.375  40.746  11.540
93022W        W61427   8.655  22.044  11.156
93023W        W61428  43.950  36.438   3.029
93024W        W61429  12.124  10.649  11.618
93025W        W61430  25.062  21.975   2.675
93026W        W61431  33.911  14.772  12.484
93027W        W61432   6.385  37.023   1.958
93028W        W61433  24.409  23.745  11.169
93029W        W61434  20.728  25.739   0.875
93030W        W61435  27.219  41.926   2.242
93031W        W61436  11.309  30.123  14.967
93032W        W61437  39.907   2.271   0.471
93033W        W61438   2.842  10.072  13.306
93034W        W61439   0.733  14.011   1.362
93035W        W61440  33.543   3.500   3.291
93036W        W61441  13.163  13.568   5.036
93037W        W61442  22.679  12.588   4.631
93038W        W61443   3.429  38.982   1.949
93039W        W61444  40.961  23.480  11.232
93040W        W61445   0.472   8.878  11.560
93041W        W61446  17.267  32.611  14.225
93042W        W61447  42.371   2.927  10.710
93043W        W61448  40.291   2.293   0.083
93044W        W61449  11.822  35.363  10.145
93045W        W61450  18.082  34.553  10.363
93046W        W61451   9.466  43.569  13.343
93047W        W61452  41.143  33.525  10.913
93048W        W61453  29.162  31.084   4.427
93049W        W61454  14.986  43.444  13.201
93050W        W61455  34.869   3.302   2.267
93051W        W61456  27.697  24.671   3.962
93052W        W61457   1.504  40.120   3.034
93053W        W61458  27.049  33.870   4.174
93054W        W61459  38.301   5.926   1.741
93055W        W61460  26.473  32.649   3.300
93056W        W61461  29.219  26.985   2.193
93057W        W61462  19.587  43.707  12.899
93058W        W61463  31.615  11.663  12.910
93059W        W61464   1.260  36.652   4.834
93060W        W61465  35.463  39.993   4.369
93061W        W61466  42.998  20.051   4.662
93062W        W61467  38.010  38.395   2.099
93063W        W61468   4.934  20.785   2.172
93064W        W61469  37.524  39.674  12.682
93065W        W61470  44.800  16.782  12.916
93066W        W61471  44.734   3.790   2.816
93067W        W61472   2.707  28.109   2.211
93068W        W61473  12.440  17.187  11.524
93069W        W61474  36.448  30.035   1.479
93070W        W61475  17.253   4.444  14.916
93071W        W61476   3.488  14.671  12.243
93072W        W61477  10.329  12.990   2.653
93073W        W61478  26.222  27.551  13.328
93074W        W61479  27.939  42.528  12.647
93075W        W61480  34.375   8.312  10.815
93076W        W61481   9.430   0.704  10.605
93077W        W61482  15.851  35.976   0.459
93078W        W61483  18.183  43.068  14.317
93079W        W61484  14.314   2.861   4.854
93080W        W61485  20.708  23.857   0.337
93081W        W61486  42.000  26.513   3.510
93082W        W61487  27.035   2.522   4.075
93083W        W61488  34.894   6.641  13.505
93084W        W61489  11.277   3.426  11.219
93085W        W61490  37.081  34.465  12.557
93086W        W61491   1.772  20.109   3.145
93087W        W61492   5.959  35.393   4.679
93088W        W61493  29.103  39.747  13.651
93089W        W61494  22.044  43.784  10.715
93090W        W61495   6.743  28.562  10.958
93091W        W61496  36.313  44.514   1.483
93092W        W61497  37.005  15.595   1.824
93093W        W61498  42.333  18.342   4.261
93094W        W61499  18.509  22.769   0.353
93095W        W61500   5.747  41.672   4.209
93096W        W61501  36.605  23.179   1.044
93097W        W61502  28.684  16.316  14.332
93098W        W61503  28.575   8.638  11.902
93099W        W61504  40.477   7.184   1.528
93100W        W61505  11.744   4.000  10.089
93101W        W61506  32.913  24.922   0.750
93102W        W61507  17.580  23.000   1.819
93103W        W61508  36.229  37.670  14.802
93104W        W61509  25.447  38.029   3.243
93105W        W61510  32.873   5.122   4.107
93106W        W61511  15.138  33.680  12.341
93107W        W61512  14.256  30.621   1.353
93108W        W61513  44.363   6.640  12.343
93109W        W61514  39.740  43.466  14.909
93110W        W61515  13.279  42.727   4.704
93111W        W61516  44.458  36.700  10.819
93112W        W61517  17.835  34.925  12.456
93113W        W61518  17.799  28.057   3.614
93114W        W61519  16.858  38.567   4.612
93115W        W61520  27.496  43.425  12.569
93116W        W61521  17.714   1.260  10.711
93117W        W61522  35.250  36.947   1.891
93118W        W61523  32.505  31.026  11.625
93119W        W61524  33.004  25.454  13.771
93120W        W61525  31.663  29.971  11.344
93121W        W61526  22.482   4.721   3.592
93122W        W61527  44.030  43.631   2.109
93123W        W61528  26.442  31.592  13.958
93124W        W61529  18.093  15.404   4.188
93125W        W61530  26.051  19.188   3.266
93126W        W61531  38.942   0.570   2.211
93127W        W61532  32.033   2.370   1.948
93128W        W61533   0.114  37.032   4.334
93129W        W61534  36.604  21.729   4.561
93130W        W61535  32.906  43.276  12.895
93131W        W61536  29.079   1.198  13.966
93132W        W61537  28.601  16.658  14.731
93133W        W61538  32.557  24.000  13.405
93134W        W61539  23.489  32.445   2.619
93135W        W61540  16.746  18.306   3.101
93136W        W61541  37.864  39.845   0.871
93137W        W61542   1.763   4.685   0.915
93138W        W61543  16.784  18.058  11.115
93139W        W61544  11.659  27.560  13.082
93140W        W61545  37.940  19.708   4.364
93141W        W61546  29.161  22.310  13.547
93142W        W61547   7.115  17.053   2.688
93143W        W61548  40.872  43.322  11.239
93144W        W61549  17.818  30.946   3.741
93145W        W61550  19.879  29.529   0.434
93146W        W61551  43.607   8.053  13.949
93147W        W61552  22.377  23.481  14.350
93148W        W61553   3.840  31.653   3.225
93149W        W61554  27.498  24.717  13.476
93150W        W61555  44.941  14.272  11.558
93151W        W61556   4.328  36.555  14.526
93152W        W61557   8.589   0.279  13.710
93153W        W61558   2.403   0.362   2.705
93154W        W61559  39.018  41.093   4.342
93155W        W61560   8.641  19.767   3.006
93156W        W61561  18.762  34.029   2.762
93157W        W61562  14.644  28.349  13.474
93158W        W61563  34.966   2.456  11.547
93159W        W61564   0.993   2.139  11.228
93160W        W61565  21.567  39.924  14.828
93161W        W61566  29.164  26.946   3.144
93162W        W61567  32.594  17.093   2.363
93163W        W61568  22.733  40.185   1.416
93164W        W61569  43.091  32.313  13.009
93165W        W61570  31.990  24.626   0.429
93166W        W61571  42.845  19.177  14.180
93167W        W61572  32.653  25.639  11.172
93168W        W61573   4.365  12.324  11.134
93169W        W61574  34.006  25.527  11.400
93170W        W61575   4.943   4.423  10.598
93171W        W61576  22.641  19.079  14.735
93172W        W61577  20.707   9.676   3.149
93173W        W61578  26.074  30.896   4.089
93174W        W61579   8.771  40.401   1.200
93175W        W61580  25.279  16.304  12.024
93176W        W61581  18.750  11.950  14.792
93177W        W61582   2.801  22.139  12.034
93178W        W61583  12.285  34.006   2.203
93179W        W61584  15.122  18.313  12.633
93180W        W61585  11.294   1.750   1.012
93181W        W61586  40.307  10.867  12.350
93182W        W61587  28.096  34.422   0.466
93183W        W61588  26.167  20.469  10.710
93184W        W61589  41.890  41.375  14.902
93185W        W61590  41.920  37.484  12.950
93186W        W61591   7.660  23.046   5.170
93187W        W61592   9.734  15.318  12.622
93188W        W61593   4.300  25.589   0.389
93189W        W61594  21.848  34.915   0.693
93190W        W61595  33.517  15.393  14.587
93191W        W61596  40.353  35.154   0.931
93192W        W61597  18.267  31.528   0.820
93193W        W61598   9.285  36.692   0.950
93194W        W61599   7.859  35.628  14.322
93195W        W61600  41.497  43.040   0.134
93196W        W61601  13.825  10.458   1.798
93197W        W61602  32.753  39.946   3.121
93198W        W61603  21.116  28.402   4.089
93199W        W61604  40.900  11.563   0.597
93200W        W61605  38.429  14.733  11.608
93201W        W61606  30.162  22.490   0.920
93202W        W61607  33.534  40.329  13.425
93203W        W61608  19.752  36.892   4.749
93204W        W61609  31.360  19.591  11.074
93205W        W61610  35.915   8.115   4.303
93206W        W61611  33.522  28.043   0.164
93207W        W61612  43.963  42.993  11.555
93208W        W61613  35.964  20.579  12.057
93209W        W61614   1.496  43.193   1.880
93210W        W61615  13.346  42.309   2.380
93211W        W61616  36.952  23.147   4.200
93212W        W61617  30.900   7.049   2.692
93213W        W61618   6.124  20.022  11.531
93214W        W61619  41.181  18.095  10.699
93215W        W61620  27.266  33.039   2.703
93216W        W61621  13.797  34.353   3.699
93217W        W61622  41.114   7.435   0.410
93218W        W61623  29.437  42.220   4.198
93219W        W61624  31.582   2.924  12.504
93220W        W61625  25.544   3.882  11.069
93221W        W61626  20.582   1.009   0.232
93222W        W61627  30.372  24.639  13.445
93223W        W61628   2.257  13.298  10.581
93224W        W61629  22.137  20.688  13.304
93225W        W61630  10.733  38.080  10.986
93226W        W61631  30.362   7.830  14.502
93227W        W61632  13.571  34.661  12.204
93228W        W61633  20.505  18.730   1.280
93229W        W61634  38.582  22.227   2.202
93230W        W61635   4.905  37.362   4.580
93231W        W61636  22.922  12.716   1.786
93232W        W61637  17.842  37.480   4.617
93233W        W61638  17.293  10.304  12.563
93234W        W61639  10.137  31.531   0.781
93235W        W61640  12.216  34.393  12.888
93236W        W61641  16.870   5.702   4.655
93237W        W61642  19.195  35.651  13.325
93238W        W61643  31.566  19.522   0.984
93239W        W61644  16.117  19.180   2.355
93240W        W61645  35.401  22.673   0.322
93241W        W61646  40.876  32.312   2.952
93242W        W61647  29.984  22.482   3.703
93243W        W61648  22.299   0.998   0.817
93244W        W61649  40.725   1.852  13.403
93245W        W61650   7.629   1.968   2.181
93246W        W61651  24.435  29.594   2.382
93247W        W61652  19.510   2.426  11.048
93248W        W61653  24.125  22.185   1.348
93249W        W61654  18.555  27.497  13.592
93250W        W61655  18.449  28.703   1.777
93251W        W61656  22.317  42.928   0.036
93252W        W61657  24.727  18.567  13.389
93253W        W61658  35.840  38.032   1.768
93254W        W61659   6.942  14.733  12.951
93255W        W61660   6.169  16.690  13.435
93256W        W61661  21.109  13.133   4.190
93257W        W61662   9.304  15.643  10.665
93258W        W61663  28.943  34.937   0.848
93259W        W61664   3.479  39.264   3.726
93260W        W61665   8.248   5.809   4.611
93261W        W61666  41.504  16.612  12.791
93262W        W61667  37.914  15.647   2.938
93263W        W61668   0.991  29.708   4.164
93264W        W61669  12.087  43.374  13.437
93265W        W61670  16.776  42.277   3.526
93266W        W61671  40.032  11.614  12.946
93267W        W61672  10.308  39.066  11.119
93268W        W61673   9.187  26.235   4.189
93269W        W61674  31.512   9.380   1.609
93270W        W61675  39.347  26.150  14.532
93271W        W61676  44.862  24.872  13.598
93272W        W61677   1.838  25.213   3.143
93273W        W61678   6.742  30.056   2.142
93274W        W61679   3.873   0.932  14.234
93275W        W61680  22.210  39.450  12.473
93276W        W61681   2.952   8.373   2.298
93277W        W61682  15.909  34.584   1.670
93278W        W61683  23.530  33.056  14.619
93279W        W61684  41.269  35.772   0.700
93280W        W61685  16.860  14.716  14.747
93281W        W61686  36.250  14.765   5.289
93282W        W61687  34.575  15.594   3.408
93283W        W61688  33.151  19.317  12.593
93284W        W61689  32.774  43.260   2.687
93285W        W61690  37.527  18.062   3.235
93286W        W61691  26.137  12.802  13.478
93287W        W61692  32.996  20.106   2.780
93288W        W61693   1.943  31.512   0.931
93289W        W61694  35.930  22.236  12.371
93290W        W61695  21.540  34.716  14.351
93291W        W61696  20.639   6.832  13.402
93292W        W61697  22.119  41.247  10.982
93293W        W61698   1.448   2.412  11.156
93294W        W61699  34.084   7.890  14.268
93295W        W61700   7.286   9.850  12.270
93296W        W61701  32.367  24.329   0.250
93297W        W61702  44.013  17.315  10.828
93298W        W61703  34.180  38.649  11.021
93299W        W61704  14.765   3.283   4.174
93300W        W61705  23.834  11.311  11.939
93301W        W61706  32.448  10.816   3.751
93302W        W61707  24.623   9.120  12.098
93303W        W61708  34.311  19.306  10.658
93304W        W61709  43.807  15.050   4.352
93305W        W61710  27.586   4.818  12.536
93306W        W61711  43.150  29.023   1.360
93307W        W61712   9.925   7.403   2.780
93308W        W61713   2.819  10.792   3.593
93309W        W61714   6.836  29.923  10.344
93310W        W61715  21.602   0.184   4.134
93311W        W61716  41.758  15.381  14.715
93312W        W61717  25.999  20.579  13.923
93313W        W61718  31.894   3.969   2.798
93314W        W61719  16.365  32.476  11.885
93315W        W61720  35.908   3.235  10.280
93316W        W61721  30.053   8.852   0.759
93317W        W61722  18.062  23.332   3.816
93318W        W61723  23.945  39.734  11.566
93319W        W61724  10.218  23.483  14.382
93320W        W61725  24.050  10.085   1.294
93321W        W61726  14.570  14.610  10.626
93322W        W61727   9.815  11.690  10.881
93323W        W61728   5.762   6.897  13.515
93324W        W61729  25.626  28.825  12.860
93325W        W61730   1.711   2.286   3.101
93326W        W61731  44.042  38.197  13.235
93327W        W61732  25.318  27.047  13.074
93328W        W61733  23.123  35.080  13.557
93329W        W61734  29.919  11.833  12.736
93330W        W61735  18.739  20.993   3.653
93331W        W61736   2.786  23.245  12.086
93332W        W61737   6.407   4.734  14.456
93333W        W61738  19.753   1.453  10.637
93334W        W61739   5.389  17.477   1.666
93335W        W61740  23.525   0.263  14.453
93336W        W61741   2.417   1.527  12.355
93337W        W61742  37.834  23.276   4.955
93338W        W61743  18.202  24.730  10.783
93339W        W61744  44.243  42.939  12.906
93340W        W61745  26.062   5.825  13.970
93341W        W61746  38.304  27.964   0.013
93342W        W61747   5.944  29.347  12.561
93343W        W61748   7.252  22.494   1.189
93344W        W61749   7.033  35.871   1.715
93345W        W61750  18.648  11.224  14.319
93346W        W61751   3.452   8.876  11.160
93347W        W61752  39.579  28.499  11.888
93348W        W61753  36.297  40.877   3.695
93349W        W61754  16.124   1.771  10.194
93350W        W61755  17.293  37.435   2.801
93351W        W61756  41.165  11.193   0.834
93352W        W61757  15.819  32.338   4.156
93353W        W61758   5.058   0.217  10.137
93354W        W61759  23.731  39.843  13.436
93355W        W61760  36.294  32.173  11.889
93356W        W61761   2.786   3.308   0.227
93357W        W61762  19.360  26.982  11.924
93358W        W61763   7.298  41.010   0.692
93359W        W61764   9.709  40.318  14.365
93360W        W61765  21.805  22.351   0.943
93361W        W61766  14.640  29.126   2.881
93362W        W61767  41.935   6.002  13.594
93363W        W61768  21.734  29.590   0.839
93364W        W61769   7.223  34.046  13.596
93365W        W61770  25.654  32.333   3.401
93366W        W61771  22.331  38.001  11.552
93367W        W61772  41.534  10.347   1.347
93368W        W61773  10.278  14.853   2.664
93369W        W61774  14.017  25.935   2.767
93370W        W61775   1.868   3.453   4.600
93371W        W61776   2.331   7.963   1.947
93372W        W61777  26.028  29.195   3.195
93373W        W61778  16.194  40.685   2.244
93374W        W61779  27.458  33.514   2.866
93375W        W61780  10.752  31.888   2.915
93376W        W61781  42.915  28.139   4.507
93377W        W61782  19.679   2.051  14.923
93378W        W61783  26.015   4.985   1.022
93379W        W61784  17.707  36.889   0.296
93380W        W61785  27.044  32.337   2.229
93381W        W61786  12.598  22.706   4.156
93382W        W61787  26.969   6.341   1.638
93383W        W61788  33.283  13.201  14.796
93384W        W61789  13.655  43.473  12.484
93385W        W61790   3.328  40.280   0.292
93386W        W61791  28.829  12.416   2.584
93387W        W61792  24.178  11.100  12.918
93388W        W61793  38.364  29.622  14.517
93389W        W61794  29.592  36.561  14.358
93390W        W61795  23.873  17.011  13.214
93391W        W61796  15.612  27.809  10.304
93392W        W61797  17.722   0.274  12.895
93393W        W61798  25.262   2.362   1.175
93394W        W61799  28.435  11.079  14.015
93395W        W61800   6.914  31.080   2.505
93396W        W61801   6.742  10.408   1.451
93397W        W61802   4.347   3.970   1.836
93398W        W61803  22.013   0.329   0.421
93399W        W61804  25.105  22.660  13.564
93400W        W61805   5.886  23.615   3.719
93401W        W61806  21.043  41.598   2.719
93402W        W61807  22.681  21.636   2.576
93403W        W61808  34.968  38.900   1.890
93404W        W61809  25.220   3.045   4.173
93405W        W61810  43.325   6.744  10.756
93406W        W61811  23.352  30.902   0.832
93407W        W61812   9.191  25.602  14.381
93408W        W61813  17.599  35.017   0.675
93409W        W61814  35.496  14.645   0.193
93410W        W61815   7.523  14.237   0.673
93411W        W61816  35.228  13.492  13.861
93412W        W61817   0.054  29.976  11.141
93413W        W61818  17.430  40.299   2.976
93414W        W61819  32.402  23.614   3.564
93415W        W61820  30.950  28.453  11.615
93416W        W61821  21.003   5.025   1.475
93417W        W61822  13.036  14.558  14.109
93418W        W61823   0.521  21.715  12.404
93419W        W61824   9.321  29.752  11.775
93420W        W61825   5.699  32.890   2.629
93421W        W61826  12.674  11.962  12.631
93422W        W61827  27.691   4.323  13.310
93423W        W61828  18.161  38.528   3.275
93424W        W61829  40.173   9.753  14.489
93425W        W61830   8.896  32.401   1.377
93426W        W61831  44.559  29.525   4.116
93427W        W61832  43.474  37.419   3.769
93428W        W61833   9.663  15.332   4.508
93429W        W61834   6.512  30.061  12.864
93430W        W61835   2.304  12.825   3.363
93431W        W61836  26.506  10.922  12.593
93432W        W61837  14.749  32.618   1.380
93433W        W61838  20.361  25.639   4.221
93434W        W61839  31.149  31.229  13.915
93435W        W61840  24.473  12.113  13.705
93436W        W61841  41.902   1.225   0.333
93437W        W61842  31.497  22.450   0.125
93438W        W61843   2.836  28.893  12.000
93439W        W61844  31.281  37.806  11.748
93440W        W61845  16.729  32.468   1.866
93441W        W61846   6.665  20.600   4.609
93442W        W61847  31.634  25.275  13.000
93443W        W61848  24.168  40.963  14.072
93444W        W61849  26.211  16.988   5.366
93445W        W61850  15.674  12.123   2.694
93446W        W61851   9.700  13.957   2.347
93447W        W61852  33.505  11.156   4.972
93448W        W61853  18.967   9.094   0.750
93449W        W61854  19.008  27.976   2.294
93450W        W61855  36.831  32.633  11.080
93451W        W61856  42.422  42.789   2.255
93452W        W61857  27.122   9.934   4.159
93453W        W61858  28.114   0.645  12.724
93454W        W61859   3.162  11.306   3.307
93455W        W61860  33.956   4.705  13.318
93456W        W61861   4.897  10.089   2.572
93457W        W61862  36.162  24.066   5.201
93458W        W61863   2.210  12.630   2.255
93459W        W61864  19.511  41.406   4.099
93460W        W61865  30.250  17.907   4.285
93461W        W61866   3.431  10.128  14.047
93462W        W61867  26.714  43.288   3.247
93463W        W61868  41.399  32.363   0.983
93464W        W61869  30.757  43.843   1.618
93465W        W61870  12.122  42.843  12.637
93466W        W61871  14.181  42.773   2.691
93467W        W61872  11.236  35.854  14.391
93468W        W61873  12.826  42.185  13.815
93469W        W61874  22.670   5.145   1.760
93470W        W61875  36.865  41.487  13.856
93471W        W61876  24.101   0.401  13.583
93472W        W61877  22.751  29.448  10.811
93473W        W61878   9.127   7.720   3.761
93474W        W61879  38.748  29.927  14.331
93475W        W61880  33.851   1.169  11.347
93476W        W61881   4.560   3.105   4.696
93477W        W61882  33.963   5.948   2.676
93478W        W61883  36.609   5.154  10.098
93479W        W61884   4.469  32.875   2.270
93480W        W61885  11.712  30.568   4.554
93481W        W61886  37.643  34.506  14.756
93482W        W61887  39.370  10.050   2.182
93483W        W61888  28.615   9.615   2.583
93484W        W61889  19.977  19.803   5.074
93485W        W61890  23.298   3.921  11.475
93486W        W61891  30.188  23.116  12.281
93487W        W61892  44.869  17.314   3.111
93488W        W61893  11.648   2.237  10.954
93489W        W61894  15.007  28.042  10.910
93490W        W61895   5.541   5.630   4.164
93491W        W61896  16.782  26.401   1.242
93492W        W61897  20.088   4.285  11.210
93493W        W61898   1.514  17.886  14.743
93494W        W61899   1.695   8.657   2.628
93495W        W61900  44.237  17.813  13.705
93496W        W61901  30.547  19.776  11.358
93497W        W61902  22.015  32.285  14.047
93498W        W61903  28.665  15.779   2.428
93499W        W61904  23.242   8.362   3.787
93500W        W61905  22.002  39.884   0.773
93501W        W61906  11.645  28.640  12.999
93502W        W61907   2.756   3.694   2.611
93503W        W61908  38.247  11.216   2.289
93504W        W61909  27.245  41.420  11.200
93505W        W61910  11.288  20.991   4.523
93506W        W61911  30.601   9.306   1.843
93507W        W61912  43.823  36.153   0.824
93508W        W61913  16.305   1.729  13.589
93509W        W61914  27.740  21.315  14.416
93510W        W61915  38.097  34.574   1.463
93511W        W61916  43.493  23.733  11.654
93512W        W61917  26.862  28.098   1.876
93513W        W61918  21.157  11.744   3.174
93514W        W61919  24.366  28.720   3.970
93515W        W61920  12.848  11.773   3.763
93516W        W61921  44.131  22.066   5.005
93517W        W61922  39.217  21.048  13.737
93518W        W61923   4.796   7.082   1.380
93519W        W61924   0.735  11.744   0.581
93520W        W61925  16.895  39.910  12.882
93521W        W61926  10.452  30.364  13.875
93522W        W61927   6.681  38.815   1.260
93523W        W61928  23.262  29.699   4.069
93524W        W61929   3.868   3.715  14.393
93525W        W61930  41.674  32.573   4.147
93526W        W61931  12.204  20.771  10.943
93527W        W61932   1.745  29.646  10.787
93528W        W61933  34.939   6.726   0.508
93529W        W61934  20.728  16.739  10.930
93530W        W61935   1.281  10.293   4.598
93531W        W61936  29.942  36.044  10.622
93532W        W61937  15.644  37.723  10.798
93533W        W61938  32.329  35.952   4.573
93534W        W61939  22.170  28.448  13.431
93535W        W61940  14.209  18.745   0.822
93536W        W61941  22.452  20.731  11.652
93537W        W61942  19.533  38.226   3.653
93538W        W61943  10.450   1.646  13.825
93539W        W61944  14.306   7.573   0.483
93540W        W61945  13.241   2.452   2.210
93541W        W61946  27.018  39.597  14.500
93542W        W61947  23.469  21.555   2.277
93543W        W61948  42.371  21.676  11.116
93544W        W61949  37.247  41.348   0.705
93545W        W61950  30.702  38.443  10.306
93546W        W61951  31.103  17.503  13.510
93547W        W61952  36.477  43.527   2.568
93548W        W61953  27.870  29.353  11.411
93549W        W61954   4.948  31.350  12.899
93550W        W61955  31.412   4.021  12.476
93551W        W61956   6.195  13.293  14.396
93552W        W61957  42.801  10.920  11.330
93553W        W61958  36.098  36.674  12.184
93554W        W61959   8.481   2.250   3.226
93555W        W61960   2.783   0.707   0.235
93556W        W61961  26.462  37.777  14.445
93557W        W61962  33.168  18.754   2.281
93558W        W61963  19.629  13.432  10.915
93559W        W61964   9.128  38.299   3.871
93560W        W61965  39.460  44.742  13.865
93561W        W61966  12.764  20.722   3.773
93562W        W61967  17.194  36.065  13.908
93563W        W61968  21.117  40.424  10.607
93564W        W61969  20.246  24.856  12.530
93565W        W61970  20.238  35.557  14.825
93566W        W61971  21.865  14.259   3.660
93567W        W61972  21.302   0.836  11.095
93568W        W61973  13.992  16.732   2.145
93569W        W61974  18.407  26.045  14.343
93570W        W61975  22.674  16.138   3.620
93571W        W61976   3.471  35.086  12.955
93572W        W61977  11.939  12.670   1.654
93573W        W61978  43.517  21.551   2.190
93574W        W61979  24.191  36.494  11.964
93575W        W61980  28.081  30.884  14.002
93576W        W61981  43.392  17.405  11.541
93577W        W61982   5.817  40.690   0.209
93578W        W61983  25.722  39.781  12.868
93579W        W61984   5.904   7.800   4.172
93580W        W61985  40.038   3.255  13.403
93581W        W61986  19.740  25.790  13.124
93582W        W61987  35.505  31.646  10.793
93583W        W61988  11.844   4.862   3.049
93584W        W61989  28.487  31.985  14.445
93585W        W61990   8.115  40.000  14.073
93586W        W61991  31.368  39.279  14.161
93587W        W61992  40.955  13.250  13.370
93588W        W61993  15.188  34.316  14.074
93589W        W61994  33.556  27.109   2.727
93590W        W61995  23.211  21.058  12.130
93591W        W61996  43.364  13.772   2.669
93592W        W61997  28.598   7.592  14.245
93593W        W61998  16.757   7.852   2.308
93594W        W61999  37.728  20.308  12.065
93595W        W62000  43.486  22.693  14.053
93596W        W62001  21.144  33.876  14.359
93597W        W62002  12.567  20.036   4.037
93598W        W62003  13.832  44.057  11.133
93599W        W62004   0.884  38.050   2.380
93600W        W62005  19.710  23.961  12.569
93601W        W62006   2.177  38.408  14.350
93602W        W62007  22.816   2.882   2.684
93603W        W62008   3.323  12.596  11.637
93604W        W62009  27.213   9.332  14.942
93605W        W62010   1.196  10.038   2.916
93606W        W62011  37.797   3.538   4.032
93607W        W62012  32.594   0.252  13.839
93608W        W62013  21.587   5.899  11.019
93609W        W62014   7.869  38.047   0.140
93610W        W62015  41.953  36.508  12.042
93611W        W62016  10.323  13.305   4.332
93612W        W62017  35.877  18.561   4.502
93613W        W62018  19.197  41.696   2.173
93614W        W62019  31.496  23.566   1.717
93615W        W62020  18.794   6.204   0.944
93616W        W62021  18.901  41.039  10.257
93617W        W62022  24.219  31.945  14.872
93618W        W62023  44.736  38.495   9.852
93619W        W62024  34.373   8.848  12.468
93620W        W62025   7.725  32.142   1.753
93621W        W62026   9.699  13.779   1.803
93622W        W62027  33.638  15.443   3.123
93623W        W62028   3.448  32.454   1.716
93624W        W62029  31.045   5.878   3.254
93625W        W62030   4.427  11.874  13.404
93626W        W62031  41.359  12.465  12.552
93627W        W62032  21.401  12.047   1.837
93628W        W62033   9.985  38.651  13.604
93629W        W62034  38.070   6.921  14.699
93630W        W62035  10.312  10.427   1.234
93631W        W62036   9.967  39.069  12.576
93632W        W62037  28.017  27.473  11.133
93633W        W62038  26.990   3.773   1.267
93634W        W62039  13.697  23.200   1.785
93635W        W62040  32.218  28.297  13.407
93636W        W62041  25.225  20.561   1.963
93637W        W62042  29.191  29.428  11.136
93638W        W62043  20.910  22.930  13.473
93639W        W62044   4.212  20.720   3.290
93640W        W62045   7.419   9.096   2.348
93641W        W62046  38.458  19.377   2.702
93642W        W62047  37.875   2.606  14.335
93643W        W62048  36.885  21.746  13.910
93644W        W62049  41.142  39.423  11.664
93645W        W62050   5.215  28.573  14.688
93646W        W62051   3.258  11.413  12.611
93647W        W62052  21.185  24.814   0.824
93648W        W62053  26.081  23.093  12.942
93649W        W62054  39.097  28.577  13.576
93650W        W62055  22.641  30.184  11.407
93651W        W62056  40.733  25.119   1.035
93652W        W62057  17.331   8.678  13.942
93653W        W62058  23.979  13.826   2.798
93654W        W62059  16.303  20.058   4.103
93655W        W62060  19.592  10.136   2.781
93656W        W62061   1.910  30.081  11.058
93657W        W62062  24.655  15.762  14.286
93658W        W62063  18.520  22.689  14.483
93659W        W62064  38.941  26.942  13.045
93660W        W62065  22.306  27.523   3.783
93661W        W62066  10.465  26.434  11.595
93662W        W62067  32.901  12.029  11.649
93663W        W62068  38.889  39.160  12.488
93664W        W62069   1.968  40.022   4.262
93665W        W62070  24.723  20.207   0.233
93666W        W62071  16.926  40.560  13.820
93667W        W62072   0.752  14.766   2.381
93668W        W62073  43.499  41.307   4.354
93669W        W62074  21.245  21.601   3.358
93670W        W62075  29.892  11.022   1.435
93671W        W62076   5.462  30.418   3.359
93672W        W62077  39.491   0.266   4.085
93673W        W62078  25.671  21.222   2.345
93674W        W62079   3.428  34.405  13.734
93675W        W62080  35.822  42.907  14.959
93676W        W62081  34.437  33.287   0.244
93677W        W62082   6.065   9.239  14.479
93678W        W62083   1.308  25.589   4.337
93679W        W62084  22.502  41.974   0.375
93680W        W62085  14.179   6.642  11.198
93681W        W62086  41.592   2.206  11.206
93682W        W62087  32.416  36.039  12.017
93683W        W62088  28.219  44.153  12.335
93684W        W62089  40.411  13.142   3.874
93685W        W62090   2.932  18.176   4.796
93686W        W62091   4.256  39.936   2.027
93687W        W62092  44.522   0.069  12.604
93688W        W62093  13.014   3.063   9.716
93689W        W62094   2.757  35.530  10.530
93690W        W62095  28.454  37.991   1.703
93691W        W62096  17.749  41.813  13.368
93692W        W62097  26.104  24.239  14.343
93693W        W62098  28.545  37.889  11.921
93694W        W62099  25.945  36.603  13.685
93695W        W62100  29.481  29.119  10.783
93696W        W62101   9.842   5.797   3.796
93697W        W62102  30.962   8.260   0.871
93698W        W62103   9.452  38.340   3.463
93699W        W62104  26.093  12.273  10.347
93700W        W62105   6.530  37.456   0.372
93701W        W62106  20.431  37.996  13.456
93702W        W62107  26.302   2.431   4.889
93703W        W62108  16.206  15.262   2.760
93704W        W62109  26.643  20.575   1.851
93705W        W62110  40.935   2.556  13.925
93706W        W62111  21.945   7.693  10.805
93707W        W62112   8.700  25.061   2.171
93708W        W62113  31.569  41.490   2.773
93709W        W62114   1.776  37.000   2.174
93710W        W62115  27.769  26.861   3.695
93711W        W62116  23.574  33.010   4.289
93712W        W62117  22.016  16.647  11.622
93713W        W62118   1.839  23.807  11.073
93714W        W62119  30.594  44.059  12.698
93715W        W62120  25.968  32.474  13.637
93716W        W62121  33.312  20.013  13.326
93717W        W62122  28.383  28.424  13.796
93718W        W62123  16.002  24.686   1.822
93719W        W62124  13.257  35.998  13.943
93720W        W62125   9.760  23.639   0.520
93721W        W62126  20.244  32.075  14.678
93722W        W62127  23.767  27.524  11.103
93723W        W62128  26.846  32.386  10.628
93724W        W62129  42.367  10.592   0.813
93725W        W62130  42.927  33.482  10.628
93726W        W62131   2.727   5.654  11.937
93727W        W62132  30.371  20.687   2.179
93728W        W62133  22.707  33.658   3.711
93729W        W62134  10.432   2.855   0.309
93730W        W62135  25.584   3.721  10.567
93731W        W62136   9.969  15.252   1.574
93732W        W62137  32.560  44.809   1.310
93733W        W62138  42.800  26.816   4.096
93734W        W62139   5.917  31.530   3.356
93735W        W62140  37.497  28.312  10.752
93736W        W62141  41.292  22.978  11.120
93737W        W62142  21.733   6.420   0.362
93738W        W62143  29.010  13.369  12.986
93739W        W62144  41.554  28.453   1.355
93740W        W62145  30.514  39.497   2.051
93741W        W62146   7.789  27.197  14.845
93742W        W62147  35.715  26.491  13.110
93743W        W62148  12.621  44.220   1.740
93744W        W62149  23.757  15.268  13.105
93745W        W62150  33.605  33.078   0.949
93746W        W62151  35.975  13.181   1.019
93747W        W62152  21.197  24.615  10.519
93748W        W62153   6.901   0.055   0.514
93749W        W62154  23.680  29.958  11.071
93750W        W62155  41.782  26.483   3.977
93751W        W62156   5.844  11.319  13.437
93752W        W62157  44.510  21.209  13.997
93753W        W62158  33.604   4.637  13.734
93754W        W62159  19.076  44.265  14.298
93755W        W62160  10.048  39.037  13.990
93756W        W62161  36.552  18.023  12.639
93757W        W62162  27.008   7.163  12.943
93758W        W62163  24.499  42.340   0.271
93759W        W62164  10.700  32.363  13.129
93760W        W62165  42.617  28.142  10.609
93761W        W62166   2.426  35.072  12.376
93762W        W62167  25.697   9.907   1.331
93763W        W62168  19.453   9.355   0.951
93764W        W62169  18.612  36.884  12.550
93765W        W62170  20.592  35.564   1.471
93766W        W62171  44.539  39.512  14.905
93767W        W62172  30.097  21.270  14.473
93768W        W62173  18.450  38.909   0.187
93769W        W62174  15.162  36.331   4.789
93770W        W62175   5.247   6.632  12.803
93771W        W62176  28.070  15.772  13.014
93772W        W62177  13.148  21.986   0.341
93773W        W62178   6.661   4.685   4.290
93774W        W62179  21.007  19.091   2.760
93775W        W62180   5.936   2.968   4.469
93776W        W62181  42.941  39.632  13.926
93777W        W62182   5.208  14.989   2.787
93778W        W62183  34.108  16.228  14.946
93779W        W62184  27.915  20.084  13.745
93780W        W62185  27.927  37.455  11.471
93781W        W62186  27.878  12.774   4.542
93782W        W62187  32.992   1.827  12.628
93783W        W62188  17.279  24.625   5.057
93784W        W62189  42.519  22.009   2.279
93785W        W62190  29.324  43.357  10.638
93786W        W62191  28.153  14.155   3.118
93787W        W62192   6.730  19.622  12.113
93788W        W62193   0.224  14.074   1.232
93789W        W62194  12.751  30.889   4.308
93790W        W62195  25.541   6.647   3.278
93791W        W62196  28.629  19.346  13.807
93792W        W62197   9.250  30.438   3.753
93793W        W62198  10.399  26.160  13.975
93794W        W62199   5.446  40.519  10.737
93795W        W62200  31.158  13.459   3.597
93796W        W62201  21.049  38.325   3.808
93797W        W62202  37.932  19.281   3.046
93798W        W62203   4.713  24.159   1.145
93799W        W62204  17.257  14.693  11.951
93800W        W62205  35.112  27.415   2.208
93801W        W62206  38.474  16.739   4.768
93802W        W62207  33.716  34.109   1.130
93803W        W62208   5.970  43.562   1.017
93804W        W62209  41.350  11.303  11.751
93805W        W62210  44.340   5.244   3.991
93806W        W62211   9.208  36.288  10.708
93807W        W62212  33.786  29.506   2.397
93808W        W62213  12.270   0.298   3.098
93809W        W62214  35.681   4.014   0.699
93810W        W62215   4.485  23.680   3.272
93811W        W62216  29.499  42.595   3.299
93812W        W62217  15.762   2.690  12.859
93813W        W62218  44.267   3.797   4.445
93814W        W62219   2.628  12.740  12.088
93815W        W62220   7.380  21.353   4.594
93816W        W62221  25.463  42.231  12.523
93817W        W62222   2.098  43.021   0.983
93818W        W62223  29.112   4.737  12.869
93819W        W62224   5.073   5.366   5.138
93820W        W62225  11.214  35.458  12.972
93821W        W62226   0.422  41.854   1.938
93822W        W62227  43.780  14.835   3.885
93823W        W62228  31.281  16.013  10.810
93824W        W62229   3.341  15.514  14.386
93825W        W62230  36.907  28.538   1.783
93826W        W62231  27.587  40.887   0.696
93827W        W62232  17.787  25.958   2.092
93828W        W62233  40.417  23.480  13.274
93829W        W62234  31.535  39.890   2.848
93830W        W62235  20.481  10.821  11.000
93831W        W62236   5.709  28.348   9.815
93832W        W62237  16.553  27.517  13.820
93833W        W62238  34.915  34.200  10.423
93834W        W62239  41.711   8.424   2.954
93835W        W62240  17.162  43.233   2.277
93836W        W62241  36.340  32.052  13.579
93837W        W62242  15.762  29.155  14.516
93838W        W62243  42.542  34.972   2.957
93839W        W62244  20.989  39.921   2.260
93840W        W62245  16.563   5.386  12.911
93841W        W62246  12.241  17.848   3.392
93842W        W62247   8.554  17.548   2.227
93843W        W62248  34.590  40.503   3.230
93844W        W62249  41.810  28.214   1.710
93845W        W62250  30.588  18.702  14.826
93846W        W62251   3.008   4.835  11.019
93847W        W62252  34.627  31.424  11.125
93848W        W62253   7.130  23.090   0.790
93849W        W62254   7.592  44.745  14.926
93850W        W62255   0.878  25.655  11.195
93851W        W62256  11.129  29.847  14.530
93852W        W62257   6.332  11.175  13.289
93853W        W62258  40.081  28.061   4.587
93854W        W62259  32.977  11.408  13.289
93855W        W62260  34.446  12.439  10.412
93856W        W62261  27.751  44.231  11.668
93857W        W62262   5.123  10.428   2.230
93858W        W62263   1.017   7.913   0.396
93859W        W62264  23.251   3.193  12.987
93860W        W62265  37.502   8.230   1.886
93861W        W62266   2.418  42.197  14.914
93862W        W62267  31.810  26.507   2.719
93863W        W62268  40.764  11.561   3.331
93864W        W62269   2.178  41.358   2.706
93865W        W62270  24.598   0.273   1.919
93866W        W62271  10.824  22.551   4.558
93867W        W62272   3.988  16.827  12.544
93868W        W62273   0.525  30.431   4.140
93869W        W62274  25.607   6.214  14.434
93870W        W62275  31.426  17.331   4.586
93871W        W62276  15.707  26.749  12.157
93872W        W62277  35.405   2.247   4.214
93873W        W62278  34.745  30.423   1.860
93874W        W62279  35.361  39.309  14.335
93875W        W62280  10.809   1.002   2.349
93876W        W62281  16.007   9.863  13.108
93877W        W62282   3.254  44.422  11.045
93878W        W62283   2.529   3.677  13.374
93879W        W62284  44.527   4.222   0.405
93880W        W62285  43.344  10.860   4.325
93881W        W62286  36.377  40.094  11.299
93882W        W62287  20.786  15.371  12.581
93883W        W62288  18.894   3.663   2.426
93884W        W62289  30.582  12.811  12.143
93885W        W62290   5.484  13.782  12.064
93886W        W62291  40.568   7.883   3.127
93887W        W62292  17.552  42.227  13.958
93888W        W62293   1.315  41.294   4.279
93889W        W62294  18.340  13.225   0.405
93890W        W62295  12.939   9.092  14.087
93891W        W62296  25.607  14.663  11.135
93892W        W62297  38.874  36.521   1.771
93893W        W62298  31.590  27.517  13.094
93894W        W62299   4.838  21.658  13.996
93895W        W62300  28.618  40.302  11.777
93896W        W62301  32.259   0.897   0.981
93897W        W62302  11.818  20.056  14.744
93898W        W62303   3.301  25.115  12.434
93899W        W62304  24.091  29.115  11.080
93900W        W62305  43.950  26.511  14.905
93901W        W62306  38.158  29.911  11.555
93902W        W62307  33.897  22.938   2.243
93903W        W62308  36.594  11.123  13.830
93904W        W62309  32.153  29.243  14.317
93905W        W62310   3.085  24.594  13.498
93906W        W62311  34.808  31.089  12.401
93907W        W62312  11.857  41.729   4.148
93908W        W62313  22.066  12.366  12.401
93909W        W62314  28.244  17.297  14.333
93910W        W62315  29.664   7.656   2.342
93911W        W62316   3.644  36.031  13.476
93912W        W62317  29.541  23.798   3.750
93913W        W62318  32.213  21.517   0.561
93914W        W62319   8.739   2.827   4.423
93915W        W62320   9.186   4.800   0.895
93916W        W62321  40.914  26.435  14.414
93917W        W62322   9.889   2.449  11.663
93918W        W62323  32.404  19.329  11.531
93919W        W62324   5.275  26.413  11.570
93920W        W62325  23.589  42.092   1.044
93921W        W62326  14.709  14.032  10.368
93922W        W62327  15.674   9.110  10.277
93923W        W62328  44.466   0.090   0.317
93924W        W62329  15.409  32.923   3.776
93925W        W62330  41.430  20.115  14.024
93926W        W62331  30.165  19.129  12.909
93927W        W62332   8.213   7.796  13.612
93928W        W62333  37.947  11.587  13.970
93929W        W62334  38.612  20.532  13.406
93930W        W62335  37.443  39.993  10.465
93931W        W62336   3.428  14.336   4.248
93932W        W62337  30.154  30.472   4.369
93933W        W62338  12.118  37.440  11.616
93934W        W62339  39.752  18.342   0.366
93935W        W62340  30.439   1.788  14.916
93936W        W62341  17.166  34.299   2.780
93937W        W62342  12.157  10.785   4.149
93938W        W62343  14.237   3.842   4.083
93939W        W62344   3.930   9.897   3.296
93940W        W62345  29.038  35.526   3.759
93941W        W62346  30.678  20.602   1.158
93942W        W62347   4.173  33.693  13.465
93943W        W62348  38.585  26.619   4.252
93944W        W62349  34.519  34.866  14.263
93945W        W62350  17.696  14.335   2.244
93946W        W62351  30.606   0.548  11.656
93947W        W62352  23.562  39.381  11.547
93948W        W62353  16.815  24.864  11.091
93949W        W62354  36.003  34.600  11.090
93950W        W62355   1.260   5.958  12.377
93951W        W62356  35.568  27.081  11.029
93952W        W62357   4.815  12.613   0.552
93953W        W62358  25.290  22.593  14.734
93954W        W62359  29.672   6.749  14.907
93955W        W62360  30.332  38.019  14.912
93956W        W62361  16.143  31.429   3.143
93957W        W62362   0.753  42.794   0.683
93958W        W62363   4.975   5.675  13.508
93959W        W62364  31.772  25.836  12.528
93960W        W62365  41.909  19.405  13.164
93961W        W62366  13.570  19.175  12.848
93962W        W62367   8.911  13.074   2.497
93963W        W62368   7.700  41.653   3.683
93964W        W62369  44.758  31.417   3.245
93965W        W62370  19.256  12.683   2.691
93966W        W62371  38.894  10.579   3.201
93967W        W62372  27.974   2.480   3.266
93968W        W62373  17.296   1.676   0.684
93969W        W62374  37.432  34.353  12.980
93970W        W62375  17.674  16.668   2.588
93971W        W62376   4.036  37.247   4.289
93972W        W62377  24.087   9.376   0.970
93973W        W62378  16.931  18.826  12.855
93974W        W62379  24.429   8.747   4.123
93975W        W62380  21.951   7.356   0.381
93976W        W62381   6.187  13.663   1.893
93977W        W62382  29.654  44.844   2.617
93978W        W62383  10.834  29.016  14.228
93979W        W62384  30.424  41.242   2.257
93980W        W62385  31.698  26.857   3.778
93981W        W62386  20.275  37.553   3.256
93982W        W62387   0.443  15.574   3.112
93983W        W62388   9.855  24.194   0.465
93984W        W62389  38.003   8.126  14.725
93985W        W62390  37.761  25.435   3.281
93986W        W62391  34.675  39.865  11.040
93987W        W62392  20.087  36.536   0.918
93988W        W62393  44.157  38.849   0.568
93989W        W62394  10.699   0.212   1.404
93990W        W62395  18.900  31.282  13.016
93991W        W62396  16.819   8.224  14.921
93992W        W62397  32.640  39.909   2.177
93993W        W62398   1.978  30.737   1.555
93994W        W62399  30.938   8.125   1.800
93995W        W62400  13.570  42.777   4.175
93996W        W62401   0.016  43.242   2.631
93997W        W62402  13.345  26.940  13.071
93998W        W62403  32.122  41.893  11.458
93999W        W62404  41.072  25.219  13.817
94000W        W62405   7.440   8.679  13.441
94001W        W62406  41.826  43.496   1.692
94002W        W62407  31.265   6.407   0.211
94003W        W62408  16.916   0.051   4.172
94004W        W62409  34.983  33.726  11.120
94005W        W62410  23.995  24.258  13.376
94006W        W62411   3.840   7.312   0.255
94007W        W62412  12.065  38.899  12.094
94008W        W62413   1.375  18.008   3.054
94009W        W62414  12.779  24.557   0.938
94010W        W62415   6.443  20.562   0.439
94011W        W62416  28.454  14.125  11.197
94012W        W62417  37.762  40.312  11.194
94013W        W62418  11.311  39.908   1.453
94014W        W62419  24.506   7.789  11.546
94015W        W62420  39.575  39.922   1.697
94016W        W62421  30.660  17.791   9.940
94017W        W62422  12.124  37.613  12.519
94018W        W62423  38.301  42.957  14.561
94019W        W62424  27.685   6.752   1.050
94020W        W62425  19.157  22.965  12.949
94021W        W62426  15.217  22.295   4.135
94022W        W62427   5.887  31.160   2.651
94023W        W62428  42.194  28.657  11.979
94024W        W62429  28.617  35.513  13.206
94025W        W62430  29.745  36.919   3.370
94026W        W62431  39.985  17.800   1.234
94027W        W62432   0.857  24.073   3.698
94028W        W62433   7.779  31.201   1.762
94029W        W62434  20.551  13.631   4.705
94030W        W62435  16.689  35.595   4.588
94031W        W62436  36.062  34.373  11.546
94032W        W62437  26.777  40.409  12.640
94033W        W62438   3.525  19.262  10.491
94034W        W62439  33.998  40.932   2.683
94035W        W62440  27.906  28.674  14.925
94036W        W62441   7.251  33.079   3.587
94037W        W62442   1.638  35.656  13.796
94038W        W62443  38.394  26.413  13.973
94039W        W62444  19.699   7.030  12.966
94040W        W62445  34.484  28.532   3.947
94041W        W62446  10.761   9.727   2.682
94042W        W62447   2.250   7.813   1.148
94043W        W62448  15.444  25.763   4.431
94044W        W62449  37.951   6.683   2.714
94045W        W62450  12.191  24.519  14.413
94046W        W62451  33.554   1.003   4.601
94047W        W62452  36.322  17.877   1.716
94048W        W62453  27.185  35.929  11.981
94049W        W62454  37.691  21.288   0.888
94050W        W62455  14.023  37.030   3.615
94051W        W62456   5.508  22.594  13.362
94052W        W62457  20.259  16.691  10.712
94053W        W62458  19.156  13.287  14.928
94054W        W62459  28.901   3.861   4.894
94055W        W62460   8.438  33.769   2.828
94056W        W62461  15.053  18.152   2.226
94057W        W62462  38.918  21.525   2.372
94058W        W62463  29.545  18.901  10.265
94059W        W62464  42.885  33.776  13.528
94060W        W62465  30.632  17.100   5.185
94061W        W62466  18.123  11.919  12.036
94062W        W62467  39.296   8.505  10.535
94063W        W62468  39.572  43.256   4.381
94064W        W62469   0.291   9.426  14.494
94065W        W62470  44.018  36.364   1.258
94066W        W62471  28.933  14.257  11.141
94067W        W62472  38.325  14.531  13.940
94068W        W62473  38.146   4.426   3.121
94069W        W62474   0.854  19.676   3.779
94070W        W62475  27.902   5.264  13.292
94071W        W62476  24.089  35.090   0.350
94072W        W62477  27.076  13.668   2.987
94073W        W62478   1.413  13.834  13.417
94074W        W62479  27.117   1.327  14.367
94075W        W62480   3.937  15.137   3.123
94076W        W62481  34.835  44.779  12.892
94077W        W62482  12.840  34.255  11.599
94078W        W62483  17.634  38.083  12.076
94079W        W62484  25.440  13.107  14.656
94080W        W62485  17.349  16.212   0.939
94081W        W62486  44.174  40.991  11.205
94082W        W62487  38.364  39.891   1.079
94083W        W62488   7.373  10.834   2.587
94084W        W62489  19.189  17.151   3.312
94085W        W62490  11.507   8.592  10.368
94086W        W62491   8.840   9.618   3.816
94087W        W62492  37.863  16.611  11.543
94088W        W62493  24.636   0.928  14.095
94089W        W62494  10.855  38.009   0.737
94090W        W62495  14.884   5.894   0.934
94091W        W62496  31.159  20.722   4.155
94092W        W62497   2.003  15.553  13.348
94093W        W62498  35.760  14.392  11.200
94094W        W62499   2.521  29.649   2.263
94095W        W62500  16.075  11.375   0.415
94096W        W62501   2.772  40.468   1.355
94097W        W62502  12.465  17.024   3.165
94098W        W62503   0.346  29.653  14.781
94099W        W62504  16.868  35.400  12.749
94100W        W62505   8.151  17.588   3.089
94101W        W62506  29.091  44.692  12.571
94102W        W62507   4.870  12.447  11.166
94103W        W62508  33.272  33.386   4.172
94104W        W62509  13.271  11.193  11.143
94105W        W62510  32.347   4.805  14.354
94106W        W62511  32.335  21.707   2.332
94107W        W62512  23.232  19.192   2.728
94108W        W62513  38.316  43.208  12.994
94109W        W62514   2.938   8.305   5.419
94110W        W62515  40.916   7.474   0.883
94111W        W62516  14.354  24.265   3.122
94112W        W62517   2.833  17.554  12.608
94113W        W62518   3.892   1.904   0.269
94114W        W62519   6.764   3.784   4.547
94115W        W62520  28.308  16.257  11.109
94116W        W62521  27.535  40.139   3.304
94117W        W62522  42.704  19.024  13.683
94118W        W62523   5.174   8.740   3.768
94119W        W62524  25.556   0.854  10.769
94120W        W62525  17.012  17.539  12.834
94121W        W62526  39.030  31.315  13.318
94122W        W62527  29.053  13.574   3.794
94123W        W62528   0.905  32.671   1.980
94124W        W62529  18.357  17.823  14.042
94125W        W62530  44.233  32.874   3.794
94126W        W62531  26.759  20.673   2.788
94127W        W62532  33.937  34.036  13.206
94128W        W62533  18.019  30.107   0.484
94129W        W62534  26.621  33.520   2.421
94130W        W62535  43.434  33.102  12.649
94131W        W62536  39.896  29.165   2.732
94132W        W62537  35.607  35.885  12.127
94133W        W62538  37.063  15.161  10.703
94134W        W62539  39.670  40.999   3.174
94135W        W62540  38.111  20.995  12.500
94136W        W62541  10.218  33.459  14.358
94137W        W62542   8.970  15.607   2.335
94138W        W62543   4.340  24.936  12.079
94139W        W62544  41.459  41.107   2.466
94140W        W62545  38.303  35.516  10.626
94141W        W62546  17.611  35.892   0.378
94142W        W62547  30.436  23.383  13.880
94143W        W62548  41.481  11.103   2.347
94144W        W62549  23.533  12.313   3.857
94145W        W62550  29.502  14.079  14.450
94146W        W62551  26.910  11.547  11.802
94147W        W62552  38.904  27.597   5.255
94148W        W62553   6.899  27.270  14.829
94149W        W62554  11.240  39.399  14.455
94150W        W62555  24.451   9.810  13.941
94151W        W62556  29.706  13.446  13.712
94152W        W62557  31.783  39.253  14.953
94153W        W62558  30.071  26.059   2.628
94154W        W62559  19.200   3.649   3.806
94155W        W62560  26.679  18.315  10.911
94156W        W62561   1.539   7.312   3.737
94157W        W62562  20.286   1.898  14.625
94158W        W62563  32.795   5.940   0.549
94159W        W62564  22.259  34.433   1.312
94160W        W62565  19.700  20.932   0.406
94161W        W62566  14.206   3.729   2.669
94162W        W62567  21.163  30.524   1.669
94163W        W62568   6.976   1.332   1.892
94164W        W62569   6.426  28.114   4.229
94165W        W62570  11.410   6.857   1.817
94166W        W62571  36.045  19.101  14.346
94167W        W62572  10.702  44.476  14.895
94168W        W62573  39.081  43.468  11.009
94169W        W62574  29.663   0.833  14.371
94170W        W62575   1.538  25.188   2.731
94171W        W62576  33.813   9.206  14.710
94172W        W62577  27.548  44.522  13.441
94173W        W62578  12.350  16.651  14.025
94174W        W62579   1.855  24.640   0.664
94175W        W62580  13.782  11.175   2.259
94176W        W62581  31.808  24.203   2.687
94177W        W62582   5.606  36.798  10.643
94178W        W62583  17.433  29.544  14.473
94179W        W62584  30.397  35.835   3.612
94180W        W62585  15.055  42.541   4.029
94181W        W62586  40.483  22.525  10.557
94182W        W62587  43.683   7.752  11.711
94183W        W62588   0.812   8.847  14.374
94184W        W62589  15.813  18.316   4.651
94185W        W62590  16.174  44.291   0.240
94186W        W62591  11.798  28.981   0.566
94187W        W62592  39.418  19.992  11.023
94188W        W62593  30.442  17.868   3.794
94189W        W62594  10.699   6.361   0.445
94190W        W62595  39.749  12.644  14.305
94191W        W62596  31.204  44.870  10.551
94192W        W62597  26.942  18.783   0.288
94193W        W62598  28.838   1.768   2.850
94194W        W62599  38.874  41.793   1.711
94195W        W62600   4.788  24.560   3.743
94196W        W62601  30.045  25.264  10.789
94197W        W62602  32.887  33.796  12.141
94198W        W62603  35.568  17.385  10.551
94199W        W62604  18.679  20.932  12.365
94200W        W62605  10.877  30.186  12.507
94201W        W62606  11.286  24.938  14.972
94202W        W62607  27.514  21.753  12.511
94203W        W62608  33.844  24.735  13.530
94204W        W62609  36.793  17.391   2.315
94205W        W62610  16.544   6.042   2.632
94206W        W62611  40.407  43.042  11.205
94207W        W62612   6.754  17.579   3.331
94208W        W62613  41.068  36.460  11.658
94209W        W62614  36.984  21.667   1.969
94210W        W62615   8.730  38.318   2.307
94211W        W62616  12.621  19.099  11.447
94212W        W62617  12.209   7.671  13.096
94213W        W62618  42.307  34.479   3.754
94214W        W62619  44.063  33.701   0.092
94215W        W62620   7.408  37.028  11.616
94216W        W62621   3.152  32.997  11.666
94217W        W62622   1.763  44.690   4.164
94218W        W62623   3.447  30.106  14.583
94219W        W62624  43.603  25.714   2.015
94220W        W62625  37.991  22.001   4.102
94221W        W62626  19.559   6.367  12.049
94222W        W62627  21.595   0.699   3.323
94223W        W62628  10.888  26.055   2.005
94224W        W62629  26.059  40.803   3.274
94225W        W62630  10.411   6.227  10.951
94226W        W62631  21.326  17.549   2.317
94227W        W62632  16.811  44.913  12.856
94228W        W62633  10.402  11.207  11.605
94229W        W62634  38.132   5.676   4.707
94230W        W62635  35.361  13.193   2.358
94231W        W62636  41.920  10.802   3.281
94232W        W62637   1.673  10.821   3.154
94233W        W62638  39.084  20.215  12.757
94234W        W62639  19.296   1.947   1.259
94235W        W62640  19.318   2.881  13.880
94236W        W62641  30.458  20.717  12.642
94237W        W62642  19.155  33.484   1.781
94238W        W62643  36.380  25.562  14.553
94239W        W62644  36.604  27.682  14.430
94240W        W62645  41.299   9.365  11.546
94241W        W62646  44.437  32.969   3.340
94242W        W62647   9.930  40.687   2.317
94243W        W62648   7.867  14.125  11.978
94244W        W62649  40.365  30.970   4.108
94245W        W62650   9.354  23.075   0.201
94246W        W62651   6.270   4.668   2.242
94247W        W62652  36.799  22.292   3.926
94248W        W62653  39.211  24.322   0.774
94249W        W62654  20.451  26.500   4.233
94250W        W62655   4.339  21.783   0.698
94251W        W62656  38.887  34.000   4.250
94252W        W62657  28.094  33.992  11.396
94253W        W62658  31.118  13.280  12.004
94254W        W62659  27.528  31.689  12.349
94255W        W62660  32.516   0.755  11.541
94256W        W62661  25.683   6.687  12.465
94257W        W62662  11.170  10.143  13.076
94258W        W62663   9.800  17.132  12.389
94259W        W62664  14.386  41.303  12.041
94260W        W62665  27.714  20.517  12.989
94261W        W62666   9.879  26.071  13.895
94262W        W62667  44.893  11.853   2.105
94263W        W62668  12.586  23.261   0.900
94264W        W62669  20.560  34.556  11.937
94265W        W62670   6.709  30.509   0.307
94266W        W62671  14.014  15.184   3.224
94267W        W62672   0.250   2.339   0.898
94268W        W62673  32.397  12.395  12.512
94269W        W62674  28.605  19.466  14.750
94270W        W62675   8.802  43.770   1.392
94271W        W62676   2.049   0.460  14.506
94272W        W62677  20.516  34.735   0.897
94273W        W62678  17.126  44.393   4.508
94274W        W62679  29.124  36.162   2.859
94275W        W62680  30.865   4.487   4.209
94276W        W62681   4.990  43.370   0.201
94277W        W62682   2.879  41.955  11.698
94278W        W62683   6.097  16.074  14.072
94279W        W62684   5.668   7.702  11.836
94280W        W62685  37.464   7.419  12.543
94281W        W62686   0.364  24.074   4.473
94282W        W62687  20.461  24.014   2.646
94283W        W62688  16.853   6.118  12.549
94284W        W62689   0.949   3.281   0.537
94285W        W62690   6.404  29.127  12.956
94286W        W62691  14.495  36.069  13.002
94287W        W62692   6.267  34.321   4.341
94288W        W62693   3.756  12.661   0.975
94289W        W62694  13.690  42.566  11.073
94290W        W62695  30.901   1.797   2.252
94291W        W62696  32.752  43.799  11.581
94292W        W62697  12.502  11.226   2.764
94293W        W62698  17.203   7.368  14.915
94294W        W62699   6.795  11.785   4.297
94295W        W62700   0.621  21.140   2.334
94296W        W62701  42.791  11.925  12.000
94297W        W62702   4.147  40.209   4.525
94298W        W62703  26.606  19.065   2.879
94299W        W62704  28.190   6.357  11.190
94300W        W62705  38.602  14.203   3.767
94301W        W62706  12.241  15.248   4.134
94302W        W62707  16.762  30.694   0.760
94303W        W62708  42.453  41.480   1.207
94304W        W62709  43.136  39.045  14.980
94305W        W62710  25.248   9.733   4.754
94306W        W62711   5.344   9.790  14.403
94307W        W62712  40.920  37.746  12.911
94308W        W62713  42.819  35.037   0.995
94309W        W62714  19.280  37.955   4.093
94310W        W62715  32.023  38.588   1.602
94311W        W62716  17.211  31.463   3.256
94312W        W62717  35.579  39.617  13.966
94313W        W62718   5.941  22.199   2.734
94314W        W62719  43.562  28.506   2.452
94315W        W62720  12.687  14.649   2.147
94316W        W62721   9.581   6.902   3.866
94317W        W62722  40.559  43.416   1.515
94318W        W62723  27.522   7.924  12.829
94319W        W62724   3.370  37.968  12.988
94320W        W62725  20.922  19.343  13.820
94321W        W62726  12.095   7.745  14.060
94322W        W62727  31.908  36.488  13.476
94323W        W62728  28.856   8.047   3.689
94324W        W62729   3.478  16.515  14.995
94325W        W62730   3.790  39.338  11.030
94326W        W62731  35.815  18.853   1.163
94327W        W62732  43.886  16.544  14.770
94328W        W62733  29.600  13.346  14.824
94329W        W62734   7.396  41.354   3.974
94330W        W62735  43.231   6.723   1.298
94331W        W62736  14.277  36.698   4.007
94332W        W62737  17.858  41.607  12.163
94333W        W62738  14.032  23.106  11.062
94334W        W62739  20.488  19.277  12.425
94335W        W62740   9.633  28.106   1.745
94336W        W62741  31.992  22.809   3.417
94337W        W62742  38.268   6.781   3.142
94338W        W62743  40.805  11.819   3.768
94339W        W62744  42.979  16.561  11.174
94340W        W62745  18.223   3.822   1.637
94341W        W62746  36.747  24.886   5.190
94342W        W62747  14.029  18.493   0.359
94343W        W62748  16.200   2.201   4.569
94344W        W62749  14.619  21.237   3.635
94345W        W62750   9.634  39.540   1.161
94346W        W62751  43.299   8.182   1.556
94347W        W62752   4.364  21.100   4.215
94348W        W62753  20.977  20.315   4.128
94349W        W62754   6.216  16.080   2.629
94350W        W62755   2.406  16.886   5.192
94351W        W62756   4.047  43.912  12.148
94352W        W62757  38.438  26.262  11.102
94353W        W62758  27.930  32.851  14.400
94354W        W62759   5.621  33.622  13.586
94355W        W62760   0.046   5.366  11.457
94356W        W62761  32.597   2.313   3.917
94357W        W62762  43.986  28.590   4.222
94358W        W62763  32.108  44.583  12.835
94359W        W62764   7.279  33.403  11.158
94360W        W62765   4.109  37.994  11.391
94361W        W62766  15.688  10.605   0.515
94362W        W62767  26.719  38.103  13.644
94363W        W62768   2.324  10.491  10.826
94364W        W62769  17.800  19.028  10.392
94365W        W62770  37.097  13.708   3.797
94366W        W62771  44.928  19.106  13.632
94367W        W62772   9.146  41.792  14.419
94368W        W62773   9.690  38.853  12.177
94369W        W62774  43.363  13.665  11.475
94370W        W62775   0.344  16.284   0.401
94371W        W62776   0.197  31.097   2.763
94372W        W62777   4.839  13.897   9.899
94373W        W62778  35.872  24.133   1.171
94374W        W62779  27.101  24.150  12.654
94375W        W62780   8.615  35.119  14.411
94376W        W62781  21.744  35.095  11.245
94377W        W62782  33.399  35.630  12.533
94378W        W62783  16.831  16.796  11.118
94379W        W62784  28.369  13.424  10.850
94380W        W62785  17.783  22.181  12.434
94381W        W62786  31.315   1.096  14.008
94382W        W62787  44.388  31.988   3.846
94383W        W62788   6.686  15.626   1.160
94384W        W62789  35.087  34.344   1.018
94385W        W62790  37.151  12.309  10.718
94386W        W62791  41.082  40.821  12.888
94387W        W62792  22.471  12.464   3.042
94388W        W62793   4.148   4.469   1.768
94389W        W62794  24.445  39.291   2.176
94390W        W62795  15.689   3.848   4.481
94391W        W62796   6.564   7.845   2.813
94392W        W62797  11.236  36.968   4.661
94393W        W62798   6.831  25.721  14.699
94394W        W62799  29.700  21.467   1.399
94395W        W62800  20.905   5.881   4.955
94396W        W62801  33.680  17.886   3.094
94397W        W62802  43.304  32.430   2.298
94398W        W62803  15.572  19.202   1.746
94399W        W62804  31.859  22.658   2.924
94400W        W62805  41.399  26.465  13.836
94401W        W62806  30.315   0.851   0.765
94402W        W62807  38.618   5.642   4.493
94403W        W62808  15.735  34.373   2.135
94404W        W62809  25.578  30.197   1.244
94405W        W62810   4.403  28.635  12.634
94406W        W62811  21.242  32.134  11.248
94407W        W62812   3.231  20.327   0.362
94408W        W62813  33.254  44.612   2.203
94409W        W62814  38.879  18.159   0.679
94410W        W62815  44.070  21.472  13.779
94411W        W62816  14.604  29.997   4.576
94412W        W62817  39.800  31.715   4.212
94413W        W62818  19.653  40.784   3.916
94414W        W62819   3.472  12.040   2.305
94415W        W62820  35.584  24.499   1.771
94416W        W62821  32.548   6.013   3.284
94417W        W62822  37.640  15.202   2.236
94418W        W62823  37.768  30.985   0.669
94419W        W62824  24.224  35.494  13.860
94420W        W62825   4.747  33.094  10.572
94421W        W62826  28.742  37.389  12.954
94422W        W62827  42.306   0.730  14.825
94423W        W62828  11.146   5.986  11.184
94424W        W62829  15.639   1.049  13.320
94425W        W62830  25.637  17.069  12.995
94426W        W62831   2.741  34.382   0.887
94427W        W62832   9.658  23.282  12.994
94428W        W62833  19.053  29.176   0.451
94429W        W62834  30.821  39.248  12.358
94430W        W62835   2.398  17.642  12.343
94431W        W62836  16.065  34.036   0.794
94432W        W62837  14.628  38.221  13.806
94433W        W62838  42.827  24.986  14.810
94434W        W62839  34.006  36.640   0.249
94435W        W62840   7.160   0.854  11.597
94436W        W62841   6.269   0.791   3.633
94437W        W62842  16.282   3.152  10.581
94438W        W62843   8.108  21.971   4.855
94439W        W62844  38.535  21.621  11.864
94440W        W62845   7.701  40.379   3.129
94441W        W62846  33.797  19.298  12.182
94442W        W62847  26.445  12.905  14.129
94443W        W62848  23.073   2.847   3.774
94444W        W62849  18.649   1.969   1.389
94445W        W62850   6.681  30.745   0.820
94446W        W62851  19.627  26.970  14.219
94447W        W62852  13.238  22.171   4.539
94448W        W62853  18.197  31.370  10.336
94449W        W62854  44.556   7.920  11.285
94450W        W62855   8.198   8.242  12.518
94451W        W62856  42.853  27.183   2.289
94452W        W62857  10.119   1.713   3.764
94453W        W62858  26.571  40.496  12.058
94454W        W62859  24.299   7.323  11.680
94455W        W62860  19.723  30.386   0.667
94456W        W62861   8.723  15.188   9.513
94457W        W62862   4.760   0.039   3.678
94458W        W62863   3.170   8.147  13.922
94459W        W62864  42.314  17.631  11.480
94460W        W62865  17.224  19.807   4.511
94461W        W62866  38.547  36.712   3.767
94462W        W62867  14.830  10.674  12.499
94463W        W62868  19.437  17.549   0.415
94464W        W62869  31.627  32.363   4.640
94465W        W62870  35.336  14.789  12.839
94466W        W62871  24.054   5.447   1.220
94467W        W62872  44.425   6.537  10.558
94468W        W62873  13.327  11.838  14.543
94469W        W62874  35.348  28.683   2.768
94470W        W62875  31.610  28.639  14.959
94471W        W62876   8.163  23.038   1.311
94472W        W62877  12.001   1.693   2.041
94473W        W62878  27.584  27.016   0.249
94474W        W62879   8.267  15.700   1.818
94475W        W62880   0.422   5.913   3.083
94476W        W62881  24.910  33.876  11.190
94477W        W62882  37.374  11.846   0.783
94478W        W62883  38.113  14.769   3.043
94479W        W62884  32.506  44.925  10.974
94480W        W62885  27.028  19.682   4.090
94481W        W62886  19.367  10.859   4.281
94482W        W62887  16.879  39.231  12.610
94483W        W62888  19.165  33.068  11.887
94484W        W62889  36.856  27.151   2.407
94485W        W62890   1.421  22.299  13.018
94486W        W62891   1.062  42.975  13.496
94487W        W62892  18.307  10.699   3.212
94488W        W62893  16.484  43.337  10.861
94489W        W62894   7.502  35.912   0.317
94490W        W62895  16.805  17.016  13.416
94491W        W62896  15.666  40.591   3.211
94492W        W62897  35.585  29.043   3.292
94493W        W62898  36.538  43.008  14.337
94494W        W62899  15.123  29.996   2.690
94495W        W62900  32.439  39.847  12.809
94496W        W62901   9.191  24.108  10.754
94497W        W62902  36.554  13.663  12.600
94498W        W62903  42.317  38.523   0.972
94499W        W62904  19.985  26.771  13.905
94500W        W62905  18.468  16.659   3.789
94501W        W62906  14.825  16.297  14.023
94502W        W62907  15.712  30.546   3.120
94503W        W62908  25.470  34.004   4.812
94504W        W62909   5.359  30.465   1.311
94505W        W62910  29.146   9.814  14.765
94506W        W62911  16.033   9.440  13.508
94507W        W62912   6.059   7.891   2.822
94508W        W62913  43.452  19.489   1.747
94509W        W62914  43.018  27.333  12.135
94510W        W62915  33.820  44.237   3.812
94511W        W62916  40.761  35.850  10.634
94512W        W62917   1.291  10.389  13.124
94513W        W62918  38.311  31.095  14.064
94514W        W62919  31.590  15.809   4.996
94515W        W62920   7.042  29.160  12.684
94516W        W62921  16.635  33.096   3.248
94517W        W62922   6.815  40.458  11.506
94518W        W62923  22.264  12.077   1.064
94519W        W62924  28.246  21.452  12.352
94520W        W62925   4.858  12.656  12.657
94521W        W62926  31.326  25.095   3.272
94522W        W62927   2.981  43.344   2.884
94523W        W62928  11.311  14.880  11.471
94524W        W62929  19.681  10.735  13.312
94525W        W62930  31.296  12.549   0.337
94526W        W62931  39.916   9.437   4.331
94527W        W62932  28.935  14.133  13.954
94528W        W62933  36.548  18.847   1.799
94529W        W62934  21.250  16.269   4.603
94530W        W62935  27.015  34.051   0.347
94531W        W62936  37.958  39.895   2.296
94532W        W62937   1.948  14.090   4.902
94533W        W62938  16.806  30.905  11.962
94534W        W62939  35.369  37.849   4.490
94535W        W62940  20.022  17.702  13.404
94536W        W62941  31.561  37.364  14.504
94537W        W62942  42.839  22.658  12.065
94538W        W62943   0.264  23.727   3.110
94539W        W62944  44.811  26.622   3.707
94540W        W62945  43.953   3.651   3.518
94541W        W62946  39.229  13.126   1.760
94542W        W62947  43.546   4.958  13.608
94543W        W62948   1.457  37.463  10.703
94544W        W62949  40.512  33.861   4.612
94545W        W62950  26.435  44.813   0.827
94546W        W62951   4.228   7.922   0.924
94547W        W62952  10.250  29.571   0.842
94548W        W62953  35.003  10.640   0.818
94549W        W62954  43.213  27.959  14.402
94550W        W62955  36.352  41.397   1.335
94551W        W62956  29.394  31.428   1.911
94552W        W62957  17.671  27.259   1.721
94553W        W62958  43.642  41.424   3.707
94554W        W62959  14.758  12.347   2.409
94555W        W62960  41.992  43.892  12.812
94556W        W62961  33.604  10.566  14.477
94557W        W62962  29.010  12.247   0.738
94558W        W62963  16.855  44.996   3.178
94559W        W62964  15.591  40.345  10.158
94560W        W62965  13.692  43.532   2.834
94561W        W62966   9.725  12.644  12.002
94562W        W62967  13.261   0.542  12.266
94563W        W62968   9.543  29.021  12.533
94564W        W62969  15.046  27.931  14.154
94565W        W62970  19.810  21.194  11.934
94566W        W62971  40.406  33.413  12.776
94567W        W62972  26.209  23.127   4.686
94568W        W62973   4.347  37.840   0.054
94569W        W62974   7.519  33.857   4.655
94570W        W62975  12.729  16.273   0.045
94571W        W62976   1.492  35.890   0.456
94572W        W62977   0.040  18.607   2.722
94573W        W62978  25.524  12.670  11.959
94574W        W62979  13.445  26.638   1.441
94575W        W62980  20.203   2.870  12.976
94576W        W62981  12.077  18.602   5.003
94577W        W62982  44.963  14.108   2.249
94578W        W62983  38.051  25.071  13.339
94579W        W62984  41.584  11.149   1.471
94580W        W62985  35.887   9.160  10.651
94581W        W62986  27.696  19.243   4.680
94582W        W62987  36.503   3.991  13.903
94583W        W62988  27.936  33.650  10.607
94584W        W62989  20.048   5.442   2.754
94585W        W62990  32.195  37.166   4.207
94586W        W62991  42.018  40.040  14.293
94587W        W62992   2.361  36.180   1.785
94588W        W62993  15.310  44.467   4.638
94589W        W62994  11.835  11.136   0.833
94590W        W62995   7.405  10.332  13.417
94591W        W62996  29.052  12.015   2.796
94592W        W62997  17.300  25.433  12.023
94593W        W62998  21.553  26.233   1.994
94594W        W62999  41.723  37.821   1.696
94595W        W63000  19.495  29.440   3.384
94596W        W63001   1.288   6.148   2.880
94597W        W63002  19.319  32.617  14.420
94598W        W63003  35.063  43.320  10.631
94599W        W63004  26.783  26.822   0.752
94600W        W63005  17.261   7.850   0.055
94601W        W63006   9.414  41.814   1.752
94602W        W63007  37.032   7.253   4.532
94603W        W63008  24.753   8.408   2.001
94604W        W63009  12.763  23.873  12.151
94605W        W63010   9.726  44.837   3.234
94606W        W63011  32.796  44.509  10.044
94607W        W63012  29.091  28.140   3.414
94608W        W63013   7.307  35.494   2.734
94609W        W63014  20.762  26.939  14.864
94610W        W63015  12.968  35.495  12.974
94611W        W63016  14.044  22.682   4.089
94612W        W63017   2.516  15.835   1.889
94613W        W63018  20.510  12.298  12.517
94614W        W63019  28.176   9.161  11.195
94615W        W63020   4.975  25.656   2.644
94616W        W63021  35.851   5.680   2.248
94617W        W63022  27.476  20.650   1.493
94618W        W63023  40.492  38.858   1.081
94619W        W63024  10.287  19.571   2.530
94620W        W63025  33.804   1.306  14.129
94621W        W63026  41.048   8.067  11.873
94622W        W63027   7.765  27.103  10.493
94623W        W63028  18.368  39.926  14.957
94624W        W63029  42.480   3.857  10.615
94625W        W63030  28.026   6.396  10.217
94626W        W63031  24.970  37.687  12.480
94627W        W63032  42.237  26.551   0.682
94628W        W63033  17.059  27.567   1.746
94629W        W63034   2.418  39.459  10.754
94630W        W63035  36.391  17.635   5.114
94631W        W63036   0.782  17.623   4.597
94632W        W63037   1.796  26.215  10.841
94633W        W63038  20.977  15.826   4.594
94634W        W63039  11.633   6.692   3.623
94635W        W63040  37.358   9.151  12.908
94636W        W63041  43.971  35.076   2.753
94637W        W63042  22.803  18.547   4.735
94638W        W63043  28.026  14.592   1.385
94639W        W63044   8.101  20.959  13.464
94640W        W63045  26.448  22.169   1.092
94641W        W63046   0.162  32.486   3.709
94642W        W63047  40.892  12.016  13.028
94643W        W63048  37.052   3.857  14.963
94644W        W63049  38.679   1.277   0.767
94645W        W63050  28.555  24.460  10.909
94646W        W63051  23.676  37.599   0.859
94647W        W63052   6.515  32.712  12.989
94648W        W63053  32.596   1.471  13.575
94649W        W63054   7.316  10.393   2.877
94650W        W63055  16.116  42.038  10.723
94651W        W63056   2.361   6.294  10.774
94652W        W63057  16.352  40.032   0.471
94653W        W63058  30.875   9.841  13.620
94654W        W63059   8.876   7.351   4.865
94655W        W63060   4.154   0.956   0.885
94656W        W63061  20.298  34.387  12.731
94657W        W63062  23.097   0.204   0.999
94658W        W63063  23.200  13.130  11.837
94659W        W63064   8.929   3.002  13.773
94660W        W63065  13.117  22.539   3.629
94661W        W63066  36.485  37.978  11.114
94662W        W63067  13.819  40.671   0.552
94663W        W63068   6.681  42.087  13.244
94664W        W63069   8.840  16.699   4.032
94665W        W63070  39.942  18.121   4.230
94666W        W63071  23.006  28.593   1.846
94667W        W63072  26.270  20.416   3.804
94668W        W63073  10.146  27.794  13.264
94669W        W63074  21.011  17.716  11.281
94670W        W63075  14.513   4.312   0.449
94671W        W63076   5.245   4.231   0.274
94672W        W63077  35.582  38.466   0.334
94673W        W63078  30.980  13.801  14.431
94674W        W63079   8.831  44.454  14.130
94675W        W63080  31.889  37.600   1.495
94676W        W63081  10.826  44.249  10.641
94677W        W63082  35.993  27.962   4.956
94678W        W63083  24.644  10.197   2.464
94679W        W63084  16.194  18.187   1.306
94680W        W63085  27.650   5.259  11.594
94681W        W63086  40.498   2.233   1.498
94682W        W63087  34.646   5.997   4.230
94683W        W63088  35.168  20.715   0.325
94684W        W63089  18.295  23.105   2.959
94685W        W63090  15.869  26.130  14.988
94686W        W63091  35.994   8.475   3.938
94687W        W63092  21.190   2.905  14.776
94688W        W63093  11.384   5.425   4.573
94689W        W63094  43.903   3.448   2.274
94690W        W63095  24.760  28.858   0.834
94691W        W63096  43.883  38.102   1.613
94692W        W63097  27.309  32.955   0.491
94693W        W63098  11.848  40.217  14.432
94694W        W63099  12.307  10.561   3.725
94695W        W63100  18.727  12.802   3.726
94696W        W63101  17.592  28.933  14.020
94697W        W63102  44.915   3.244   0.458
94698W        W63103  16.845   9.699   1.686
94699W        W63104  41.365  41.901   0.707
94700W        W63105   1.349  37.640  13.055
94701W        W63106   1.206  37.075  13.658
94702W        W63107  17.553  13.753  10.397
94703W        W63108   7.812  37.942  13.472
94704W        W63109  22.062   7.970   2.867
94705W        W63110  25.193  26.661   1.266
94706W        W63111  29.649   0.404   0.864
94707W        W63112  28.143  14.039  12.647
94708W        W63113  11.624  23.236  11.149
94709W        W63114  11.365  36.016   4.427
94710W        W63115  29.439  22.508  10.877
94711W        W63116  29.564  18.251   4.933
94712W        W63117  21.181  12.227  11.546
94713W        W63118  18.269   3.183   3.357
94714W        W63119   3.272  34.451   1.661
94715W        W63120  30.239  31.761  14.784
94716W        W63121   6.814  11.240  14.519
94717W        W63122  15.622   1.211  14.297
94718W        W63123   4.644  31.419  12.055
94719W        W63124   0.252   4.698   0.770
94720W        W63125  24.595  13.813   1.189
94721W        W63126  21.311  16.311  12.965
94722W        W63127  37.043   4.227   3.126
94723W        W63128   2.856   2.980   1.727
94724W        W63129  43.977  13.568  12.037
94725W        W63130  39.588  22.450  11.908
94726W        W63131  15.225  20.082   4.556
94727W        W63132  20.797  40.803   4.661
94728W        W63133  34.841  16.253  12.107
94729W        W63134  34.474   2.000   2.512
94730W        W63135  22.182  24.247  11.074
94731W        W63136   7.753   0.791   0.004
94732W        W63137  34.572  34.683  14.752
94733W        W63138  13.120  20.991  12.945
94734W        W63139  10.371  27.074   2.089
94735W        W63140   8.146  23.075  12.159
94736W        W63141  16.912  29.563   9.976
94737W        W63142  13.122  29.590  11.030
94738W        W63143  28.113   7.683  14.511
94739W        W63144  37.782  33.554   9.958
94740W        W63145  15.165  21.796   3.243
94741W        W63146  30.978  18.215  12.207
94742W        W63147  22.571  22.128   1.443
94743W        W63148  11.807  27.637  11.601
94744W        W63149  33.836   2.291   4.172
94745W        W63150  14.462  17.090   4.157
94746W        W63151  24.150  42.146  13.280
94747W        W63152  30.309   2.033  11.952
94748W        W63153  13.831  17.491  14.066
94749W        W63154  25.682  42.013   5.372
94750W        W63155  42.468  35.056  12.616
94751W        W63156  38.528  26.558  12.555
94752W        W63157  36.772  31.001  14.324
94753W        W63158  12.247  20.382   1.192
94754W        W63159  18.126  14.397   0.933
94755W        W63160  16.612   9.863  13.978
94756W        W63161  13.090  25.091  11.132
94757W        W63162   1.297  26.080   0.543
94758W        W63163   4.262  17.700  10.679
94759W        W63164   0.628   8.012   5.124
94760W        W63165  32.353  41.828   2.370
94761W        W63166   6.092  18.368  14.820
94762W        W63167   2.628  38.402  13.799
94763W        W63168  41.965   6.905  10.983
94764W        W63169   3.493   5.365   4.971
94765W        W63170  25.291  21.216  12.088
94766W        W63171   2.892  27.300  11.891
94767W        W63172  13.105  34.452  12.952
94768W        W63173  23.318  39.956   1.165
94769W        W63174  10.293  13.209  12.451
94770W        W63175  13.793  34.443   4.658
94771W        W63176  33.361  34.003  10.214
94772W        W63177  44.244  29.003  11.642
94773W        W63178   9.267  36.941  14.263
94774W        W63179   3.988  21.468  11.568
94775W        W63180  35.838   1.389   0.099
94776W        W63181   7.457   4.887  11.159
94777W        W63182  43.392  27.451  11.700
94778W        W63183  36.183  16.068   1.724
94779W        W63184  37.026  44.833   4.355
94780W        W63185   3.010  28.482   4.243
94781W        W63186  15.753   6.382  10.422
94782W        W63187   9.328  39.244  12.151
94783W        W63188  13.437  16.234   2.678
94784W        W63189   8.408  37.429   3.216
94785W        W63190  29.559   9.614   0.004
94786W        W63191  29.973  42.062  11.975
94787W        W63192  25.797  14.214   0.271
94788W        W63193  41.781  16.704  11.598
94789W        W63194  20.100  24.510  13.489
94790W        W63195  23.375  23.280   1.968
94791W        W63196  39.935  44.795  10.627
94792W        W63197  33.500   3.192  11.678
94793W        W63198   9.623  20.964   3.761
94794W        W63199  23.760  27.203   4.610
94795W        W63200  36.423  30.097   0.858
94796W        W63201   2.502  22.660  14.776
94797W        W63202  12.786  39.193   5.092
94798W        W63203  12.929  39.413   1.834
94799W        W63204   2.706  13.683  14.972
94800W        W63205  12.517  23.727  14.928
94801W        W63206  34.204  34.131   1.284
94802W        W63207   8.702  20.332  13.943
94803W        W63208  30.958  16.044  13.165
94804W        W63209  18.167  13.578   3.847
94805W        W63210  17.702  30.676   1.296
94806W        W63211  17.294   4.864  12.048
94807W        W63212  22.571  25.261   4.130
94808W        W63213  36.196  36.465  12.982
94809W        W63214  27.117  39.225   2.692
94810W        W63215   9.823  18.563   4.494
94811W        W63216  25.962  25.089   0.836
94812W        W63217   7.260   9.342  12.458
94813W        W63218  16.713  36.428   3.254
94814W        W63219  34.327   5.197  14.798
94815W        W63220  18.028   5.372  11.980
94816W        W63221  33.276  11.785   4.503
94817W        W63222  33.499  32.414   4.391
94818W        W63223  32.176  28.681   1.952
94819W        W63224  20.722  28.233  14.433
94820W        W63225  25.521  11.109  12.849
94821W        W63226   4.960   7.900   1.980
94822W        W63227  21.560   3.166   1.967
94823W        W63228  30.929  19.172  14.346
94824W        W63229  23.071  23.587   4.505
94825W        W63230  39.457   0.756  12.590
94826W        W63231  24.563  35.840   4.200
94827W        W63232   4.354  33.186   0.902
94828W        W63233  13.800  11.064  12.830
94829W        W63234  25.797  28.415  11.993
94830W        W63235  10.394  25.787  14.818
94831W        W63236  12.099  20.272  14.342
94832W        W63237  26.953  25.607   3.569
94833W        W63238  44.322  35.429   4.869
94834W        W63239  31.413  16.743  13.918
94835W        W63240   4.931  13.163   1.777
94836W        W63241  42.755  33.857  12.999
94837W        W63242   5.406  15.696   0.481
94838W        W63243   5.320  37.378   3.862
94839W        W63244  43.229  23.093  13.477
94840W        W63245  17.227  34.877   1.527
94841W        W63246  14.160  10.866   0.884
94842W        W63247  23.546  32.553   3.634
94843W        W63248   2.007   7.762  12.969
94844W        W63249  38.603  17.310   0.289
94845W        W63250   8.583   8.699   4.989
94846W        W63251   0.397   9.145   0.475
94847W        W63252  21.070  41.693  12.845
94848W        W63253  11.681   4.790  14.954
94849W        W63254  12.443   8.480  11.098
94850W        W63255  35.010  32.924   1.803
94851W        W63256   3.265  20.327  14.461
94852W        W63257  35.386   6.228  11.709
94853W        W63258  41.031  11.641  12.681
94854W        W63259  12.123   3.806  12.831
94855W        W63260  23.973  24.014  11.130
94856W        W63261   4.970  39.622  12.181
94857W        W63262  22.066  32.441   2.722
94858W        W63263  26.614  41.003   0.734
94859W        W63264  40.778  11.675   1.434
94860W        W63265   4.924  39.916  13.873
94861W        W63266  39.307   8.978   2.818
94862W        W63267   9.355  13.354  11.011
94863W        W63268  42.013  13.613  14.670
94864W        W63269  15.397   3.232  10.756
94865W        W63270  35.440  30.519  11.656
94866W        W63271  13.525  20.118   1.346
94867W        W63272   8.908  41.866  11.684
94868W        W63273   7.687  39.995   4.684
94869W        W63274  22.475  23.563  13.849
94870W        W63275  43.248  16.116   1.874
94871W        W63276  18.804  10.953  14.980
94872W        W63277  38.405  36.117   4.620
94873W        W63278  39.429  16.488   1.150
94874W        W63279  18.244  24.902  13.776
94875W        W63280  30.975  41.424  11.992
94876W        W63281   2.948  25.089  13.327
94877W        W63282   2.493  11.369  14.867
94878W        W63283  14.139  36.020   4.768
94879W        W63284  40.456  18.013   1.130
94880W        W63285  29.621  42.254   1.006
94881W        W63286  35.095  14.284  14.442
94882W        W63287  21.223  28.729  12.905
94883W        W63288  24.772  19.581  10.931
94884W        W63289  17.993  44.900  10.426
94885W        W63290  35.384   8.013   0.315
94886W        W63291  19.557  25.256   1.257
94887W        W63292  19.241  17.290  10.405
94888W        W63293  31.863  17.217  13.001
94889W        W63294  44.412  32.831  12.462
94890W        W63295  29.181   2.213  10.551
94891W        W63296  15.570   5.816   4.119
94892W        W63297   3.925  24.517  11.724
94893W        W63298  23.316  10.349  12.075
94894W        W63299  31.982  41.012   0.356
94895W        W63300  36.010   0.369  12.114
94896W        W63301  21.366  12.314  13.814
94897W        W63302  29.301  11.370  11.846
94898W        W63303   5.349   1.987   3.600
94899W        W63304   5.772  42.459  12.862
94900W        W63305   2.490  40.136  11.538
94901W        W63306   1.731  13.367   4.449
94902W        W63307   2.312  30.056   4.994
94903W        W63308  18.593  13.275   2.288
94904W        W63309  29.499  40.816  13.347
94905W        W63310  29.628  22.305   1.686
94906W        W63311  41.020  24.219   2.438
94907W        W63312  39.077   0.235  14.459
94908W        W63313   3.420   8.265   5.082
94909W        W63314   5.144  25.430   2.206
94910W        W63315   2.447   8.699  14.053
94911W        W63316  14.530  30.914   4.817
94912W        W63317  37.585  11.313   3.343
94913W        W63318  20.676  19.166   3.852
94914W        W63319  11.817  41.131   0.949
94915W        W63320   5.355  24.698  13.585
94916W        W63321   4.432  30.911   1.339
94917W        W63322   2.528  14.376   2.721
94918W        W63323  35.607  11.676   3.997
94919W        W63324   1.788  38.410   3.529
94920W        W63325  27.646  26.318   2.894
94921W        W63326  30.441   0.766  14.965
94922W        W63327  31.937  34.946  10.528
94923W        W63328  37.061  23.310   1.906
94924W        W63329  29.586  37.859   3.244
94925W        W63330  16.220  21.672   1.721
94926W        W63331  29.179  43.303   1.012
94927W        W63332   6.896  10.507  11.472
94928W        W63333  35.415  12.207   1.821
94929W        W63334  31.049  11.378  11.619
94930W        W63335  36.834  37.008  11.362
94931W        W63336  16.478  39.768   1.399
94932W        W63337  17.636  25.515  10.738
94933W        W63338   4.729   4.968   0.307
94934W        W63339  18.650   0.518   4.495
94935W        W63340  14.306  11.300  14.899
94936W        W63341  16.089  10.308  12.347
94937W        W63342   6.866  32.161  10.781
94938W        W63343  24.302  25.515  12.869
94939W        W63344  40.811  16.285  11.649
94940W        W63345  32.356  30.220   0.101
94941W        W63346  10.193  21.007   0.720
94942W        W63347   5.164  35.896  13.521
94943W        W63348  27.678   2.930   2.661
94944W        W63349  27.150   1.650   0.324
94945W        W63350  36.774   7.757  11.145
94946W        W63351  30.391  33.190   3.423
94947W        W63352  36.768  14.011   1.938
94948W        W63353  41.544  42.833  14.660
94949W        W63354   5.184  41.257   2.343
94950W        W63355  37.252  36.788   2.085
94951W        W63356  33.682  38.861  14.895
94952W        W63357  20.812   9.879  11.005
94953W        W63358  18.516  40.037  11.484
94954W        W63359   1.948  35.497   3.517
94955W        W63360  26.561   4.019   1.436
94956W        W63361  10.818   4.732  10.749
94957W        W63362   1.464   1.484  11.574
94958W        W63363  19.394  38.448  13.389
94959W        W63364  42.030   0.747   0.902
94960W        W63365  13.145  36.874   2.694
94961W        W63366  23.189  18.566   3.946
94962W        W63367  18.984  38.313   2.903
94963W        W63368  23.270  44.675   4.483
94964W        W63369  28.036  20.311   1.731
94965W        W63370  19.091  33.545  11.141
94966W        W63371  25.767  20.544  13.401
94967W        W63372  34.005  17.823  13.427
94968W        W63373   2.759   3.439   1.497
94969W        W63374   6.957   8.255   3.685
94970W        W63375  34.701  38.351  11.074
94971W        W63376  24.923   4.181   2.606
94972W        W63377  37.054  16.804  11.080
94973W        W63378  19.632  24.737   1.275
94974W        W63379  28.571  13.624   4.748
94975W        W63380   2.299  31.067  11.686
94976W        W63381  32.396  30.419  13.613
94977W        W63382  22.614  40.236   3.677
94978W        W63383   7.810  12.711   3.172
94979W        W63384  14.403  26.240  12.098
94980W        W63385  38.526  31.924  10.786
94981W        W63386  44.882  37.153  13.908
94982W        W63387  21.590  33.370  13.829
94983W        W63388  42.449  18.596   0.322
94984W        W63389   1.422   0.908   1.960
94985W        W63390   0.466   7.460   4.127
94986W        W63391  38.183  20.995   4.325
94987W        W63392  31.925   2.905   3.593
94988W        W63393  15.122   9.811   4.412
94989W        W63394  41.145   6.468   5.520
94990W        W63395  31.534  16.859   0.356
94991W        W63396   7.365  24.990   0.819
94992W        W63397  33.536   1.431   3.671
94993W        W63398  12.326  40.596   2.307
94994W        W63399  35.977  21.561   4.683
94995W        W63400  20.574  34.529  11.424
94996W        W63401  22.675  22.164   2.402
94997W        W63402  24.541  23.215   2.816
94998W        W63403  40.926   2.846  13.065
94999W        W63404  27.095  43.981   2.644
95000W        W63405  34.325  32.863  14.002
95001W        W63406  36.436  35.095   2.185
95002W        W63407  21.239   0.235   4.519
95003W        W63408  33.089   9.437  13.096
95004W        W63409   2.855  21.640  11.886
95005W        W63410  20.347  21.815   3.339
95006W        W63411  25.167  27.237  10.790
95007W        W63412  41.638   9.578  14.859
95008W        W63413  13.073  16.011  10.926
95009W        W63414  12.583  35.861  14.789
95010W        W63415  21.491  39.509  11.577
95011W        W63416  35.667  34.469  13.539
95012W        W63417  25.910  27.187  14.909
95013W        W63418  22.323  18.686   4.504
95014W        W63419  19.796   1.185  14.906
95015W        W63420  36.023  41.735   4.419
95016W        W63421  34.133  24.291  13.468
95017W        W63422  44.324  26.433  13.586
95018W        W63423   7.753  12.891  13.362
95019W        W63424  17.275   5.672  13.998
95020W        W63425   8.942  31.573  10.005
95021W        W63426  24.411  40.513  13.068
95022W        W63427  32.176  14.695  10.497
95023W        W63428  34.559   7.477   0.892
95024W        W63429  37.441  27.630  14.571
95025W        W63430   1.120  25.530   0.118
95026W        W63431  30.013   1.044  12.083
95027W        W63432  22.071  18.315   1.277
95028W        W63433  19.130  10.133   2.082
95029W        W63434  15.571  11.985  13.418
95030W        W63435  15.777  26.862  13.978
95031W        W63436  20.109  43.361  11.706
95032W        W63437  44.696  33.125   2.906
95033W        W63438  31.919  10.283  10.771
95034W        W63439  42.767  43.374   1.410
95035W        W63440   1.016  36.177  12.783
95036W        W63441  44.580   5.929  10.137
95037W        W63442  22.424  36.355  14.316
95038W        W63443  11.257  24.025  10.695
95039W        W63444  20.244   8.019  14.914
95040W        W63445  17.015   4.923  13.887
95041W        W63446  42.377  14.122   1.878
95042W        W63447  42.768  37.865  12.875
95043W        W63448   8.674  10.395  14.864
95044W        W63449  29.880  15.316   1.722
95045W        W63450  38.311  33.743   2.227
95046W        W63451  17.277   6.861  12.101
95047W        W63452  17.608  31.030  11.421
95048W        W63453  27.133  37.878   1.344
95049W        W63454  34.099  32.073  12.210
95050W        W63455   6.770  10.654   4.608
95051W        W63456  23.229   0.609   2.778
95052W        W63457   9.150  19.592   0.799
95053W        W63458  35.565   6.242   3.817
95054W        W63459  13.413  33.878   4.051
95055W        W63460  19.292  35.497  11.950
95056W        W63461  42.466  19.531   0.882
95057W        W63462   1.016  17.049  14.383
95058W        W63463  14.616  29.875  11.251
95059W        W63464  31.644  42.543   3.227
95060W        W63465  14.690   9.631  12.615
95061W        W63466  18.787  20.149   1.282
95062W        W63467  11.030  30.155  10.036
95063W        W63468  41.281  42.483   3.793
95064W        W63469   2.449  36.978  14.978
95065W        W63470   5.823  13.359   0.684
95066W        W63471   5.462  36.104  14.907
95067W        W63472  30.022  26.028   2.116
95068W        W63473  34.175  14.239   1.443
95069W        W63474   8.467   5.020   2.826
95070W        W63475  31.967  40.846  11.328
95071W        W63476  44.740   3.189  10.480
95072W        W63477  13.148   0.806  14.857
95073W        W63478  11.485  30.700   4.996
95074W        W63479  40.265  16.138   0.326
95075W        W63480  10.602  37.872   4.743
95076W        W63481  28.722  26.834  12.048
95077W        W63482  14.786   5.768   2.799
95078W        W63483  33.884  14.702  14.234
95079W        W63484  39.932  33.043  10.724
95080W        W63485  28.967  28.618   3.599
95081W        W63486   2.260  27.368  12.443
95082W        W63487  14.137   7.832  13.013
95083W        W63488   2.787  23.762  11.082
95084W        W63489  37.356  22.628   0.880
95085W        W63490   5.081  44.524  14.150
95086W        W63491   9.558  36.508   3.239
95087W        W63492  19.453  41.414  14.349
95088W        W63493  14.200  15.063  14.209
95089W        W63494   4.727  43.299  13.642
95090W        W63495  31.072  38.929   3.125
95091W        W63496  15.359   2.577   0.863
95092W        W63497  15.187  38.347   1.555
95093W        W63498  34.488  24.148   3.608
95094W        W63499  15.633  20.203  11.477
95095W        W63500  30.885  11.868   3.959
95096W        W63501  13.760   4.734  12.832
95097W        W63502  26.715  19.648   0.386
95098W        W63503  19.299  18.990   1.932
95099W        W63504  18.785  37.126  11.514
95100W        W63505  37.908   1.870   1.443
95101W        W63506  39.395  16.882   3.080
95102W        W63507  20.586  10.192   4.844
95103W        W63508  33.832   5.882  11.010
95104W        W63509  38.998  11.263  13.188
95105W        W63510  35.426  26.731  14.378
95106W        W63511  10.454  16.774   1.343
95107W        W63512  16.087  41.625  14.062
95108W        W63513  24.715  26.047   4.578
95109W        W63514  12.136  15.838   1.847
95110W        W63515   1.762  32.587  12.879
95111W        W63516  44.066  16.528   0.971
95112W        W63517  15.306  12.249   1.133
95113W        W63518  29.165  33.825  12.582
95114W        W63519  25.410  41.871  14.802
95115W        W63520  25.681  18.063  12.445
95116W        W63521  20.586  24.163   4.056
95117W        W63522  14.053  24.243  12.441
95118W        W63523  40.344  15.397   3.415
95119W        W63524   1.207   6.775  11.722
95120W        W63525  29.662   2.511   3.284
95121W        W63526  25.256   3.851  12.625
95122W        W63527   6.953   0.854   4.094
95123W        W63528  34.229  43.112  13.935
95124W        W63529  40.943   1.314  11.873
95125W        W63530   7.861  29.219   0.017
95126W        W63531  25.697  28.287   3.892
95127W        W63532  24.548  32.347  13.714
95128W        W63533  10.637   2.414  10.306
95129W        W63534  38.003  35.508  14.230
95130W        W63535  28.672  29.755  13.522
95131W        W63536  27.503  42.043  11.148
95132W        W63537  31.003  20.062  14.752
95133W        W63538   9.194  10.413   1.940
95134W        W63539  30.666   2.033   4.065
95135W        W63540  29.006  28.959  13.350
95136W        W63541  29.473  10.846   4.716
95137W        W63542  12.836  13.688  14.915
95138W        W63543  23.603  15.091   1.431
95139W        W63544  19.292  22.106  11.968
95140W        W63545   4.217  17.521   3.685
95141W        W63546   4.966   5.806   1.835
95142W        W63547  29.622  26.439   1.365
95143W        W63548  25.337  32.486  13.897
95144W        W63549  33.305  20.288   0.244
95145W        W63550  32.322  18.267   5.000
95146W        W63551  21.194   8.150   4.926
95147W        W63552  22.830  25.925  14.285
95148W        W63553  14.862  10.753   4.650
95149W        W63554  23.834  23.216   2.235
95150W        W63555   4.337   1.867  11.638
95151W        W63556   6.878  17.361  11.537
95152W        W63557  30.065   7.881   0.726
95153W        W63558   5.772   8.394  14.627
95154W        W63559  11.429   3.813  14.387
95155W        W63560  12.371  10.567  13.698
95156W        W63561  34.951  17.706   0.866
95157W        W63562   7.552  39.698  12.786
95158W        W63563  27.426  20.515  13.920
95159W        W63564   8.010  34.909  13.837
95160W        W63565   0.834  32.626  11.059
95161W        W63566  10.011  34.519  10.154
95162W        W63567   9.212   4.976   4.505
95163W        W63568  38.669   7.399  12.616
95164W        W63569   1.120   5.390   4.135
95165W        W63570   9.763   2.381   3.181
95166W        W63571  40.217   9.391   3.200
95167W        W63572  25.540  22.129   2.607
95168W        W63573  16.533   4.294  11.130
95169W        W63574   7.265  40.303  14.878
95170W        W63575  14.944  38.815  13.250
95171W        W63576   2.868  43.399   0.791
95172W        W63577  12.366   0.193   2.606
95173W        W63578  24.747   7.439  14.045
95174W        W63579  22.859  40.529   2.168
95175W        W63580  14.670  44.526  13.402
95176W        W63581  33.367  35.300  11.113
95177W        W63582  34.779  20.083  12.609
95178W        W63583   8.589  11.087   4.770
95179W        W63584  11.762   8.408  12.804
95180W        W63585   4.742  36.422  12.495
95181W        W63586  10.770  28.498   2.219
95182W        W63587  36.381   3.936   1.196
95183W        W63588  28.533   0.897  14.706
95184W        W63589  34.727  43.539   1.488
95185W        W63590  34.477  10.307  13.087
95186W        W63591  24.019  38.551   1.874
95187W        W63592  43.651  30.838  11.873
95188W        W63593  26.116   3.061  14.998
95189W        W63594  25.148  19.654   0.967
95190W        W63595  17.957   0.737  12.894
95191W        W63596  13.036  32.643   2.641
95192W        W63597  24.103  38.280  13.823
95193W        W63598  26.074  32.096   2.897
95194W        W63599  11.316  18.642  11.939
95195W        W63600  25.216  33.816  10.742
95196W        W63601  18.028  40.379   0.721
95197W        W63602   1.818  18.816  12.799
95198W        W63603  31.761   4.921   0.414
95199W        W63604   2.096  26.588  11.004
95200W        W63605   2.265  32.558   2.150
95201W        W63606  41.409  29.194  13.889
95202W        W63607   0.266   6.616  12.112
95203W        W63608   6.851  39.521  11.559
95204W        W63609  26.380  33.056   1.434
95205W        W63610   8.106  35.743   3.814
95206W        W63611   1.080  10.735   1.745
95207W        W63612  14.578  18.159   2.449
95208W        W63613  41.712  33.948   3.226
95209W        W63614  35.870   3.411  12.015
95210W        W63615  33.997  40.613  14.487
95211W        W63616  26.005  11.072  12.623
95212W        W63617  42.401  25.706   1.212
95213W        W63618  24.567  43.915   1.988
95214W        W63619  27.131  14.594   2.804
95215W        W63620  34.106  22.454  11.922
95216W        W63621  16.810  15.383  12.929
95217W        W63622  21.836  32.885  11.584
95218W        W63623  22.081  40.858  12.462
95219W        W63624  15.519  19.342   3.500
95220W        W63625   9.091  24.372  13.418
95221W        W63626   8.501  11.405   3.744
95222W        W63627  33.156   5.598  11.951
95223W        W63628  41.940  19.556   1.399
95224W        W63629  42.106   9.809  10.780
95225W        W63630  32.990  24.194   3.273
95226W        W63631  34.209  36.837   2.958
95227W        W63632   2.488  40.900   0.252
95228W        W63633  14.740  41.710  10.708
95229W        W63634  29.198  13.844  13.088
95230W        W63635  40.883  17.561   1.419
95231W        W63636   1.596  40.009   1.793
95232W        W63637  19.066  27.078   1.803
95233W        W63638  36.852  43.012  13.534
95234W        W63639  10.602  21.004  13.848
95235W        W63640   7.380  23.085  12.495
95236W        W63641   6.760   6.623   4.296
95237W        W63642   9.783   2.466  13.848
95238W        W63643   4.927  17.709   1.544
95239W        W63644   6.698   9.878  14.890
95240W        W63645  44.298  42.362  11.045
95241W        W63646  22.956  40.093   3.324
95242W        W63647  42.062  28.077  14.789
95243W        W63648   9.230  33.270  10.212
95244W        W63649  37.887  36.181  13.651
95245W        W63650  29.011  26.713  11.632
95246W        W63651  38.350   6.349  10.890
95247W        W63652   6.349  12.849  10.786
95248W        W63653  44.489  35.512  14.834
95249W        W63654  10.672   8.154   2.051
95250W        W63655  18.361  44.283   1.843
95251W        W63656   3.703   2.279  13.081
95252W        W63657  17.369   2.210   0.665
95253W        W63658   5.356  28.793   0.717
95254W        W63659  44.567   9.654   1.519
95255W        W63660  18.104  43.770  11.919
95256W        W63661   6.222  42.712   1.313
95257W        W63662  11.272  35.389  10.891
95258W        W63663  22.938  39.402   1.674
95259W        W63664   1.822  15.313   3.143
95260W        W63665  23.635  42.304   0.162
95261W        W63666  17.832   4.586   0.264
95262W        W63667   2.444  42.054  10.744
95263W        W63668  33.190  33.794   2.535
95264W        W63669   5.991  29.614  12.112
95265W        W63670  19.146  38.959  11.667
95266W        W63671  16.321  27.439   4.199
95267W        W63672  24.723  11.155   2.402
95268W        W63673   5.635  31.611  13.392
95269W        W63674  34.481   5.121   0.309
95270W        W63675  21.757  21.639  14.913
95271W        W63676  10.315  17.218   2.363
95272W        W63677  11.729   6.720  12.064
95273W        W63678   8.518  32.835   4.134
95274W        W63679  40.774  30.071   1.639
95275W        W63680  27.955  29.508   3.231
95276W        W63681  40.471   4.993   2.740
95277W        W63682   4.669  16.853  14.085
95278W        W63683  15.576  20.313   0.962
95279W        W63684  43.260  24.833  12.889
95280W        W63685  32.351  35.895   1.844
95281W        W63686  24.096  23.149   3.715
95282W        W63687  25.217  17.157  12.694
95283W        W63688  32.266  38.061   0.254
95284W        W63689  33.489   0.564   4.884
95285W        W63690   5.428  25.105   4.248
95286W        W63691  13.132  15.796   3.393
95287W        W63692  44.881  25.585  12.847
95288W        W63693  13.558  42.840   0.380
95289W        W63694   4.813  23.110   1.933
95290W        W63695  12.869  14.101   2.203
95291W        W63696  39.101  27.090  10.949
95292W        W63697   3.389  33.267  14.546
95293W        W63698  27.980  25.216  10.402
95294W        W63699  11.694  17.285  14.603
95295W        W63700   2.395  21.355   2.407
95296W        W63701  12.035  18.678  12.601
95297W        W63702  44.038  43.198   1.815
95298W        W63703  43.019  14.632   0.858
95299W        W63704  40.072  31.033   1.486
95300W        W63705  31.756  37.900  11.622
95301W        W63706   1.026   7.440   3.661
95302W        W63707  28.173  24.443  14.446
95303W        W63708  16.211  17.813   0.319
95304W        W63709  20.918   8.375   3.371
95305W        W63710  29.523   7.875   4.187
95306W        W63711   2.922  37.314  14.350
95307W        W63712  44.940  10.843   1.120
95308W        W63713  35.519  44.048  11.972
95309W        W63714  13.235  16.177  11.399
95310W        W63715  32.681  20.684   1.936
95311W        W63716  25.815  12.117  13.829
95312W        W63717  38.763  20.328  11.898
95313W        W63718  31.879  40.539   0.893
95314W        W63719  19.561   9.132  12.313
95315W        W63720  12.102   0.477  13.910
95316W        W63721  28.099  40.266   1.820
95317W        W63722   0.008  11.657  14.900
95318W        W63723   8.884  31.001  13.343
95319W        W63724   1.968  26.889   4.216
95320W        W63725   3.833  37.538  11.123
95321W        W63726  17.107  37.521  11.791
95322W        W63727  12.481   5.949   0.967
95323W        W63728  20.523  21.290   4.556
95324W        W63729   9.096  17.523  14.475
95325W        W63730  12.732  13.673  11.165
95326W        W63731  23.145  14.580   4.559
95327W        W63732  42.324  34.412   4.628
95328W        W63733  31.216   8.959   1.448
95329W        W63734   9.985  10.905  14.471
95330W        W63735  16.485  32.826  13.112
95331W        W63736  34.509  43.742  13.738
95332W        W63737   8.883  34.061   2.762
95333W        W63738   0.791  13.260  10.418
95334W        W63739   7.939   5.368   4.655
95335W        W63740   1.847  31.011  10.843
95336W        W63741  26.198  16.155  12.842
95337W        W63742  18.779  43.421  14.896
95338W        W63743  42.657  35.619   3.676
95339W        W63744  42.722  27.139   2.836
95340W        W63745  10.829  16.946   2.356
95341W        W63746  26.850  29.010   4.897
95342W        W63747  33.792  37.122  14.449
95343W        W63748  39.399  35.742   4.776
95344W        W63749  34.280  18.090   2.984
95345W        W63750  12.361  11.135  11.199
95346W        W63751  26.121  42.446  14.223
95347W        W63752  43.035  11.755  12.417
95348W        W63753  23.209  31.127   4.361
95349W        W63754  10.378  20.370   1.448
95350W        W63755  28.179  44.870  10.118
95351W        W63756  30.206  44.310  11.130
95352W        W63757  24.970  18.273   3.263
95353W        W63758   3.796  24.073  13.284
95354W        W63759   3.908  12.637  12.524
95355W        W63760  17.102  34.138  11.214
95356W        W63761  44.881  37.339   2.737
95357W        W63762  44.490  34.034   1.527
95358W        W63763   7.312   8.173   4.048
95359W        W63764  12.645  29.978   1.980
95360W        W63765  34.177   9.370   1.278
95361W        W63766  37.858  41.586   1.854
95362W        W63767  14.825  33.677   1.237
95363W        W63768  38.517  36.091  14.434
95364W        W63769  33.350  30.626  12.972
95365W        W63770  29.499  10.530  10.404
95366W        W63771  20.475   0.991   1.669
95367W        W63772  13.594   6.631   4.763
95368W        W63773  16.102   9.409  14.779
95369W        W63774  41.977  37.402  11.991
95370W        W63775  32.669   6.655   2.741
95371W        W63776  35.498  19.040  12.038
95372W        W63777  15.916  25.019  11.115
95373W        W63778  28.195  40.186  13.368
95374W        W63779  15.544   5.888  10.699
95375W        W63780   7.326  27.041   0.029
95376W        W63781  43.051  22.145  12.687
95377W        W63782   6.745  42.499   2.978
95378W        W63783   6.393  18.539  10.551
95379W        W63784   6.189  12.300   4.320
95380W        W63785   9.396  29.465  14.920
95381W        W63786  34.541  17.391   0.962
95382W        W63787  32.037  13.263  14.216
95383W        W63788  27.560   6.613  14.909
95384W        W63789  10.349   1.465   1.401
95385W        W63790  11.099  38.914   0.873
95386W        W63791  38.606  13.825  14.478
95387W        W63792  15.748  36.578  10.032
95388W        W63793  44.305  14.314   1.410
95389W        W63794  43.734  12.185   2.637
95390W        W63795  22.697  12.322   0.844
95391W        W63796  19.638  42.287  11.067
95392W        W63797  16.577  17.576  11.087
95393W        W63798  19.439  19.737  11.023
95394W        W63799  14.427  27.788  10.102
95395W        W63800  28.593  34.825   1.218
95396W        W63801  21.784  27.079  14.805
95397W        W63802  35.380  14.016   2.862
95398W        W63803  33.580  20.165   4.690
95399W        W63804  40.253  15.885   2.535
95400W        W63805   7.114  19.389   2.019
95401W        W63806  19.855  29.842  12.446
95402W        W63807  23.233   0.341   2.323
95403W        W63808  17.053   2.730   4.524
95404W        W63809  30.402  21.199   0.438
95405W        W63810  30.568  12.670   3.800
95406W        W63811  17.577  18.241   3.199
95407W        W63812  10.363  10.456   0.260
95408W        W63813  12.136   0.702   1.838
95409W        W63814  34.523  16.182  10.742
95410W        W63815  30.898  33.945   1.692
95411W        W63816  13.407   2.780   0.556
95412W        W63817  44.810  26.479  11.314
95413W        W63818   6.021   4.698   0.781
95414W        W63819   3.259  30.660   2.744
95415W        W63820  39.504  28.536   4.082
95416W        W63821   3.214  23.657   2.171
95417W        W63822   5.456   3.914   1.794
95418W        W63823  41.445  26.605   2.238
95419W        W63824  15.818   9.430  10.649
95420W        W63825  30.579  26.570   2.241
95421W        W63826  24.199  22.043  10.758
95422W        W63827  27.574  30.810  14.829
95423W        W63828  41.380   4.774  13.607
95424W        W63829  30.662  35.489  11.230
95425W        W63830  24.986  11.952   2.253
95426W        W63831  30.069  38.068  13.154
95427W        W63832   3.728   5.039  13.435
95428W        W63833  14.736  12.757  14.842
95429W        W63834  42.249  33.914   0.404
95430W        W63835  13.888  26.832   4.117
95431W        W63836  29.844  35.161   4.279
95432W        W63837  27.121  33.402   0.661
95433W        W63838  14.694  14.460   4.468
95434W        W63839  30.541   7.849   2.011
95435W        W63840  23.715  22.207   3.964
95436W        W63841   6.687  11.177   3.700
95437W        W63842  41.506  40.964  11.477
95438W        W63843  43.160   9.241  10.752
95439W        W63844  39.034  39.848  11.239
95440W        W63845  27.720  18.196   0.253
95441W        W63846   8.174  26.762   2.638
95442W        W63847   4.532  10.153   0.843
95443W        W63848  24.222  20.887  14.101
95444W        W63849  43.946  23.651   0.441
95445W        W63850  39.019  26.778   1.356
95446W        W63851   3.736  44.350  13.340
95447W        W63852  21.492  26.184  12.860
95448W        W63853  27.425  19.588   1.307
95449W        W63854  18.737  12.213  11.130
95450W        W63855  28.497  18.677  14.092
95451W        W63856  39.676  12.207   0.798
95452W        W63857  32.964  36.776  12.079
95453W        W63858  17.568   8.524  10.318
95454W        W63859  23.266   8.293   2.490
95455W        W63860   3.301  16.791  10.605
95456W        W63861  27.153  28.609  14.397
95457W        W63862  38.864   3.330  11.168
95458W        W63863  43.979  40.570   2.702
95459W        W63864  35.786  44.932  11.991
95460W        W63865  44.929   1.518  13.099
95461W        W63866  22.157  13.258  12.881
95462W        W63867  18.642   8.687   4.222
95463W        W63868  27.653  25.073  14.015
95464W        W63869  28.464   0.232  14.448
95465W        W63870  44.114   7.772   4.161
95466W        W63871  23.043   0.922  10.617
95467W        W63872  15.660  27.224   4.652
95468W        W63873   6.471  14.546  14.268
95469W        W63874  13.445  40.924   3.661
95470W        W63875  22.186  12.289  14.774
95471W        W63876   1.306   0.463  10.697
95472W        W63877  38.601  20.557   3.201
95473W        W63878  44.638   1.942  13.019
95474W        W63879  36.324  10.291   2.793
95475W        W63880  18.169   0.699   2.052
95476W        W63881   2.442  37.659   3.678
95477W        W63882  37.474  40.498  10.701
95478W        W63883  42.282   6.077   2.582
95479W        W63884  31.739   4.699  13.071
95480W        W63885  33.328  21.422  11.141
95481W        W63886  40.409  21.025  10.723
95482W        W63887   1.418  10.346   1.376
95483W        W63888  26.788   4.912   0.103
95484W        W63889  11.823  32.306  12.047
95485W        W63890  20.179  23.415  12.373
95486W        W63891   9.311   8.944  14.471
95487W        W63892   9.907  41.873  11.431
95488W        W63893   5.123  17.537   4.076
95489W        W63894  38.529   1.854   5.016
95490W        W63895  23.612  38.302  14.304
95491W        W63896  12.781  26.095  14.869
95492W        W63897  13.165  13.740  13.389
95493W        W63898  13.066  23.747  13.447
95494W        W63899  31.723   3.874  10.699
95495W        W63900   8.943  13.206  13.876
95496W        W63901   7.128  22.481   0.189
95497W        W63902   4.523  30.364   2.476
95498W        W63903  38.639  34.170   2.186
95499W        W63904  33.532  13.679  14.773
95500W        W63905  13.260  18.175   4.318
95501W        W63906   1.563  13.426   5.260
95502W        W63907  12.296  23.548  10.628
95503W        W63908  27.289  32.594   1.856
95504W        W63909   2.316  41.952   4.587
95505W        W63910  11.868  39.979  11.654
95506W        W63911   6.863  30.578   2.284
95507W        W63912  30.535  37.319  13.116
95508W        W63913  10.607  13.008   0.528
95509W        W63914   4.939  16.740  10.781
95510W        W63915  27.971  25.615  13.469
95511W        W63916   6.454  12.852  14.400
95512W        W63917  18.648   6.915  13.449
95513W        W63918  11.559   8.337   4.659
95514W        W63919  29.171   2.679   3.664
95515W        W63920  32.409  29.459   3.746
95516W        W63921  31.188  12.471  12.899
95517W        W63922  24.570  42.040   0.949
95518W        W63923  31.063  31.943   0.014
95519W        W63924  40.328  11.701   4.537
95520W        W63925  29.561  24.304   3.719
95521W        W63926  21.212  28.728  13.880
95522W        W63927  33.506  25.717  10.686
95523W        W63928   8.229  36.472  11.647
95524W        W63929  38.984  22.197   1.808
95525W        W63930   6.887  32.588   3.169
95526W        W63931  20.340  15.375  11.491
95527W        W63932  29.094   7.205   2.941
95528W        W63933  37.438  37.338   3.848
95529W        W63934  12.099  17.016   2.740
95530W        W63935  40.786   7.911   0.095
95531W        W63936   2.372  10.135  13.880
95532W        W63937  35.906  31.994  11.593
95533W        W63938  41.290   0.272   1.771
95534W        W63939  41.426  31.617  11.240
95535W        W63940  21.264   5.500  12.662
95536W        W63941   5.623  32.697  13.294
95537W        W63942  32.517  14.456   4.662
95538W        W63943   9.447  19.600   3.576
95539W        W63944  26.108  27.210   3.127
95540W        W63945  15.831  39.358   4.741
95541W        W63946  25.554  31.263  12.053
95542W        W63947   0.722   9.728   3.638
95543W        W63948   8.642  16.651   3.176
95544W        W63949  30.834  15.065   3.245
95545W        W63950  30.135  24.511  11.094
95546W        W63951  31.952   9.134   0.492
95547W        W63952  30.324   6.393   4.910
95548W        W63953  16.428   5.787  14.441
95549W        W63954  22.662   6.670   4.206
95550W        W63955  10.917   8.109  11.095
95551W        W63956   5.746  33.599   4.163
95552W        W63957  12.581  34.485   2.331
95553W        W63958  34.572   2.679   0.040
95554W        W63959  33.645  40.919  12.088
95555W        W63960  14.318   8.536   4.877
95556W        W63961  36.547   2.499  10.431
95557W        W63962  19.234  23.563   1.927
95558W        W63963  13.390  38.069   0.913
95559W        W63964   4.879  42.083   2.733
95560W        W63965  24.755  21.284   1.266
95561W        W63966  22.739  13.347  14.310
95562W        W63967   1.519  33.250   2.353
95563W        W63968  32.130   0.239  10.721
95564W        W63969  31.437   6.694   3.376
95565W        W63970  42.045  25.609   4.069
95566W        W63971   2.419  19.971  14.960
95567W        W63972  37.809  34.931   3.284
95568W        W63973   3.275  17.133  13.832
95569W        W63974  16.755  23.609   1.593
95570W        W63975  25.272  28.360  14.573
95571W        W63976  25.533  29.041   1.956
95572W        W63977  21.171  27.069  12.371
95573W        W63978  28.072  40.463   0.943
95574W        W63979  16.993  22.829   1.402
95575W        W63980  35.308   8.401   4.672
95576W        W63981  26.091   2.679   0.897
95577W        W63982  27.324  12.254   1.787
95578W        W63983   2.307  14.423   0.835
95579W        W63984  11.566   7.132   4.941
95580W        W63985   2.053   9.188  12.508
95581W        W63986  24.261  43.975   0.901
95582W        W63987  11.578  20.756  14.018
95583W        W63988  26.687  38.110   2.155
95584W        W63989  12.046   4.218  13.979
95585W        W63990  18.264  29.589   4.619
95586W        W63991   2.194  26.085  11.133
95587W        W63992  19.037  10.657   3.820
95588W        W63993  26.817  26.269   0.680
95589W        W63994  18.260   8.727  12.020
95590W        W63995  11.378   6.458  11.078
95591W        W63996  44.330   7.667   5.154
95592W        W63997  18.085  28.487  10.709
95593W        W63998   4.339  17.283  14.320
95594W        W63999  20.081  26.655  14.777
95595W        W64000  32.496  23.697   1.349
95596W        W64001  41.796  16.885   3.564
95597W        W64002  26.228  30.826  10.681
95598W        W64003  32.098  32.998   3.596
95599W        W64004  27.996  36.402   0.917
95600W        W64005   4.972  12.733   4.180
95601W        W64006   8.601   6.661  12.873
95602W        W64007  27.049   6.933   0.821
95603W        W64008   6.507  17.875  14.557
95604W        W64009  42.392  34.174  14.369
95605W        W64010  23.609   1.381   0.915
95606W        W64011  31.730  18.009   5.076
95607W        W64012  33.752   4.795  12.848
95608W        W64013  22.199   3.981  12.443
95609W        W64014  35.579  30.071   3.869
95610W        W64015  20.478  34.453   2.373
95611W        W64016  34.920  28.393  12.945
95612W        W64017  38.589  40.049   1.836
95613W        W64018  34.618   5.840  12.038
95614W        W64019  28.971   4.440   2.190
95615W        W64020  26.999  25.588  13.585
95616W        W64021  26.578  14.060  12.461
95617W        W64022   6.268  14.310  11.712
95618W        W64023  13.826  14.302   4.133
95619W        W64024  35.344  35.595  12.505
95620W        W64025  31.154  44.370  12.649
95621W        W64026  12.294  18.466   0.226
95622W        W64027  36.042  27.511   1.424
95623W        W64028  30.475  27.870  12.525
95624W        W64029  30.823   9.070   0.130
95625W        W64030  35.995  40.693   4.634
95626W        W64031  15.888  37.632   0.488
95627W        W64032  19.179   9.637  13.565
95628W        W64033  16.209  43.264   4.840
95629W        W64034  14.235  24.116  10.729
95630W        W64035  31.068   4.791   2.222
95631W        W64036  29.383  32.494   0.427
95632W        W64037  33.563  34.822  11.278
95633W        W64038   5.304  39.368  14.707
95634W        W64039  17.539   7.233  11.882
95635W        W64040   2.394  30.688  12.015
95636W        W64041  33.021   8.705   1.303
95637W        W64042  35.833   8.954   1.712
95638W        W64043  20.794  16.914   2.715
95639W        W64044  44.403   0.797   5.150
95640W        W64045  22.134   3.227  14.325
95641W        W64046   3.114  15.204  14.800
95642W        W64047   2.532  21.149   4.468
95643W        W64048  43.409   0.970  10.414
95644W        W64049  14.701  15.073  13.448
95645W        W64050  35.847   1.883   1.250
95646W        W64051  44.897   5.422   2.440
95647W        W64052  30.850   5.491   4.576
95648W        W64053  31.394  29.627  11.636
95649W        W64054  43.334  25.194  14.881
95650W        W64055  38.464  22.964  14.887
95651W        W64056  15.544  14.645  13.449
95652W        W64057   5.666  29.170   0.971
95653W        W64058   0.302  27.416   0.805
95654W        W64059  44.551   7.595  10.290
95655W        W64060  24.465  38.461   4.241
95656W        W64061   6.963   7.315   0.894
95657W        W64062   6.207   2.234   0.444
95658W        W64063  29.571  41.337  11.953
95659W        W64064   8.345   6.312  13.802
95660W        W64065  25.412  12.849   4.622
95661W        W64066  37.809  36.211  11.325
95662W        W64067   2.731   4.135   3.993
95663W        W64068  11.227   0.060   1.001
95664W        W64069  24.426  23.038   1.430
95665W        W64070  15.093  14.188   1.165
95666W        W64071  23.593   7.362  14.902
95667W        W64072   4.968  37.578  11.548
95668W        W64073  10.143  17.395   0.600
95669W        W64074  38.266  23.655   4.082
95670W        W64075  18.007   7.886   3.790
95671W        W64076  23.715  35.365   1.199
95672W        W64077  12.266  22.847   3.695
95673W        W64078  41.035  14.330  11.670
95674W        W64079  39.881  30.080  12.529
95675W        W64080  29.502   7.602   3.692
95676W        W64081  17.601  44.831   0.263
95677W        W64082   6.412  38.782  13.959
95678W        W64083  41.067  42.930   1.630
95679W        W64084  22.091  14.856  14.037
95680W        W64085   1.888  14.113   0.785
95681W        W64086  11.167   7.809   3.238
95682W        W64087   2.818  44.500   2.715
95683W        W64088  43.724  39.028   1.869
95684W        W64089  32.405  31.618  10.720
95685W        W64090  41.545  40.363   2.210
95686W        W64091  23.127  43.312   2.176
95687W        W64092  14.095  26.111  10.662
95688W        W64093  42.670  22.369   2.662
95689W        W64094  38.040  24.537   3.125
95690W        W64095  42.424   7.330  14.084
95691W        W64096  28.338  15.119   5.480
95692W        W64097  15.889   9.683   2.831
95693W        W64098  27.047  25.727   2.404
95694W        W64099   9.144  13.327  11.502
95695W        W64100  36.608  26.247   4.329
95696W        W64101  20.378   1.050   4.563
95697W        W64102  35.271  42.392   1.053
95698W        W64103  36.796  18.653   4.195
95699W        W64104   4.220  32.365   1.192
95700W        W64105   6.073  18.051   2.215
95701W        W64106  15.811  10.659  11.601
95702W        W64107  24.127  44.788   0.012
95703W        W64108  39.876   1.547   2.305
95704W        W64109   0.968   2.497   4.895
95705W        W64110  27.196  38.239  13.471
95706W        W64111   8.889  40.160  13.782
95707W        W64112  11.308   9.436  12.462
95708W        W64113  26.146  41.337  14.815
95709W        W64114  38.975  34.137  10.606
95710W        W64115  14.426  21.178   1.028
95711W        W64116  22.054  14.530  12.394
95712W        W64117  11.059  43.123  13.452
95713W        W64118  23.118  26.894   3.648
95714W        W64119  18.092   8.090   1.803
95715W        W64120  39.010  23.897  11.201
95716W        W64121   9.962  35.481  12.023
95717W        W64122   4.903  13.633   4.133
95718W        W64123  13.877  21.780   3.576
95719W        W64124  16.241   9.126   3.649
95720W        W64125  26.439  42.458   0.193
95721W        W64126  44.340  22.215  10.136
95722W        W64127   7.377  28.143   4.485
95723W        W64128  25.412  40.942  13.774
95724W        W64129  10.442  33.336   1.219
95725W        W64130  35.950  38.084   2.638
95726W        W64131  31.860  17.596   4.785
95727W        W64132  23.154  39.250  13.871
95728W        W64133   4.793  24.979   4.901
95729W        W64134   5.666  31.618  14.843
95730W        W64135  36.906  14.452  12.857
95731W        W64136  43.477  34.335  12.972
95732W        W64137  38.609  32.041  13.603
95733W        W64138   2.518  28.398  11.547
95734W        W64139  30.244  21.685   2.606
95735W        W64140  23.724  12.117  12.403
95736W        W64141  42.040   0.443   1.349
95737W        W64142  18.170   3.790   3.631
95738W        W64143  21.645  12.199  13.105
95739W        W64144  35.112  11.315  11.641
95740W        W64145  37.419  15.811   2.740
95741W        W64146  41.522  31.015  11.852
95742W        W64147   4.275   3.237   3.851
95743W        W64148   2.159  38.620  13.858
95744W        W64149   9.817  38.980   3.738
95745W        W64150  19.077  24.489  14.435
95746W        W64151   0.852  26.191   2.549
95747W        W64152  38.413  44.810  11.579
95748W        W64153  12.137  34.650   3.203
95749W        W64154  26.109  34.791   4.222
95750W        W64155  16.082  41.968   0.986
95751W        W64156  36.629  14.641   0.899
95752W        W64157  43.081  13.831   2.138
95753W        W64158   5.765  12.326   4.029
95754W        W64159   2.246  41.571  11.068
95755W        W64160  23.506  44.045  13.009
95756W        W64161   3.272  30.895   0.222
95757W        W64162  27.046  43.009  14.966
95758W        W64163   2.388  11.239   3.749
95759W        W64164  23.838  28.951   0.866
95760W        W64165  12.604  38.095   4.081
95761W        W64166  24.965  34.559   0.925
95762W        W64167   7.661   5.868  13.962
95763W        W64168  43.946   1.280  14.249
95764W        W64169   9.753  16.640   3.352
95765W        W64170  30.956  24.581  13.844
95766W        W64171  29.090  32.645   0.864
95767W        W64172  24.918  41.848  14.993
95768W        W64173  27.921  33.679   5.219
95769W        W64174  16.983  29.656   4.601
95770W        W64175  39.510  20.156   3.072
95771W        W64176  44.745  26.992   2.883
95772W        W64177  15.660   3.368   2.766
95773W        W64178   6.915  19.345  14.441
95774W        W64179  19.170  38.379  12.064
95775W        W64180   6.270  12.719   2.123
95776W        W64181   4.140  23.436   3.553
95777W        W64182   3.831  36.516  11.053
95778W        W64183   8.180  26.073   0.421
95779W        W64184  40.452  13.837  13.804
95780W        W64185  30.188  43.725  14.273
95781W        W64186  21.290  43.791   2.024
95782W        W64187   0.772  32.363   2.891
95783W        W64188  23.752   3.529  10.645
95784W        W64189   6.832  14.226  11.990
95785W        W64190  32.177  43.108  14.811
95786W        W64191  24.704  15.324   1.424
95787W        W64192  44.014  42.425  11.492
95788W        W64193  27.126  23.874  13.994
95789W        W64194  36.620  37.503  11.265
95790W        W64195  39.819  36.992   0.016
95791W        W64196  13.212  37.612   2.589
95792W        W64197  38.958  33.493  11.751
95793W        W64198   2.942  40.492  13.564
95794W        W64199  11.353  17.657  14.484
95795W        W64200   7.367  38.055   4.074
95796W        W64201  27.687   7.328   2.904
95797W        W64202   1.481   9.932  11.458
95798W        W64203  35.965  38.582  13.407
95799W        W64204  41.296  41.297  12.339
95800W        W64205  17.410  40.027  12.814
95801W        W64206  41.490  26.747  13.420
95802W        W64207   5.261  20.622  13.893
95803W        W64208  12.267  34.961  11.529
95804W        W64209  37.010  25.670   0.381
95805W        W64210  21.105  37.292   1.820
95806W        W64211  41.014   7.270  10.839
95807W        W64212  34.573  17.633   1.444
95808W        W64213  12.383  13.385  13.888
95809W        W64214   6.617  23.100   0.838
95810W        W64215  35.645  35.499   1.287
95811W        W64216  18.007  27.126   4.162
95812W        W64217  38.722  27.092  12.551
95813W        W64218  27.459   0.953   3.571
95814W        W64219  38.101   0.040   2.287
95815W        W64220  32.943  18.152   1.177
95816W        W64221  12.831  24.204   3.277
95817W        W64222  16.481  14.049  12.760
95818W        W64223   3.448  43.846   1.346
95819W        W64224  26.603   1.465  14.542
95820W        W64225  38.365  16.381  13.088
95821W        W64226   9.413   3.040  12.143
95822W        W64227  15.766  11.239  13.917
95823W        W64228  14.840  39.392  12.067
95824W        W64229  36.678   0.792  12.950
95825W        W64230  39.280  31.683   1.734
95826W        W64231   7.337  22.629  14.750
95827W        W64232  39.701  26.614   3.555
95828W        W64233  29.525  42.379  13.408
95829W        W64234  37.375   1.074   2.727
95830W        W64235  15.775  15.270   0.496
95831W        W64236  11.295   6.909  11.687
95832W        W64237  15.266  26.112  13.135
95833W        W64238  42.271  42.481   3.152
95834W        W64239  23.992  15.160  12.281
95835W        W64240   6.334   4.300  12.553
95836W        W64241  25.212  20.016   1.854
95837W        W64242  16.634  18.647   4.394
95838W        W64243  34.848  15.114   3.775
95839W        W64244  32.347  17.371  13.110
95840W        W64245   3.275  35.762  11.127
95841W        W64246  29.191  35.459   4.254
95842W        W64247  10.885  36.983   2.363
95843W        W64248  12.666  14.655  10.874
95844W        W64249  12.838  36.006  11.139
95845W        W64250  29.565  43.773  13.976
95846W        W64251  32.866  10.382   2.784
95847W        W64252  32.014  42.901  10.777
95848W        W64253   7.195  13.089  12.468
95849W        W64254   7.913  28.959   1.706
95850W        W64255  11.702   8.755   2.580
95851W        W64256  33.046  35.533   4.268
95852W        W64257  42.023  39.131  11.906
95853W        W64258  39.489  14.393  11.096
95854W        W64259  21.045  18.311  14.952
95855W        W64260   6.867  30.263   0.755
95856W        W64261  44.533  32.459  11.592
95857W        W64262  42.968  42.567   1.688
95858W        W64263  39.920  38.476   0.394
95859W        W64264  16.920  35.330   2.368
95860W        W64265  15.716  36.611   1.838
95861W        W64266   9.716  22.246   1.828
95862W        W64267  20.243   2.740   3.374
95863W        W64268  28.651  41.610  13.521
95864W        W64269   7.306   1.765   3.663
95865W        W64270  27.476   5.250  12.938
95866W        W64271  20.090  37.048   3.139
95867W        W64272  37.940   3.601  14.435
95868W        W64273  22.739   4.335   3.844
95869W        W64274   1.544  43.002   3.608
95870W        W64275   1.919   3.034   1.389
95871W        W64276  27.406  27.533  14.079
95872W        W64277  22.041  31.102  14.954
95873W        W64278  20.516  20.783  12.219
95874W        W64279  17.504   9.304  14.543
95875W        W64280  17.804  20.003   2.719
95876W        W64281  11.220   7.691  11.224
95877W        W64282  15.048  34.111  12.049
95878W        W64283  11.376  23.648  11.033
95879W        W64284   2.457  24.356  11.651
95880W        W64285  14.270  41.878   0.700
95881W        W64286  14.449  14.655   3.809
95882W        W64287  39.008  42.261  13.165
95883W        W64288  44.936  18.075   3.735
95884W        W64289  31.170  12.954  10.787
95885W        W64290   2.441  38.938  11.436
95886W        W64291   1.067   1.980  14.796
95887W        W64292  22.250   8.777   2.336
95888W        W64293  19.272  40.586   2.151
95889W        W64294  33.107  29.707  12.894
95890W        W64295  28.149   4.275  14.771
95891W        W64296   5.264  40.736   2.322
95892W        W64297  39.064   6.436  12.501
95893W        W64298  32.941  31.710  14.342
95894W        W64299  16.200  28.139   2.550
95895W        W64300  32.021   2.204  12.777
95896W        W64301  18.832  23.741  13.044
95897W        W64302  18.321  33.639   3.755
95898W        W64303   3.516   3.916  12.584
95899W        W64304  34.433  16.970  11.546
95900W        W64305  12.617  33.519  12.025
95901W        W64306  20.599   2.536  11.927
95902W        W64307  37.018   8.863  14.752
95903W        W64308  11.265  14.645   2.402
95904W        W64309  23.678  27.559  13.477
95905W        W64310   6.322  42.815   4.574
95906W        W64311  44.573   1.004   0.943
95907W        W64312  13.155  28.671   4.213
95908W        W64313  44.725  30.105   1.286
95909W        W64314  21.960  42.409  13.420
95910W        W64315  32.238  11.172   2.962
95911W        W64316  36.116  42.709   2.799
95912W        W64317  18.207  17.699  10.718
95913W        W64318  12.216  10.227  10.009
95914W        W64319  10.721  27.537   2.884
95915W        W64320  22.383  27.927   3.105
95916W        W64321  33.296   2.785  11.939
95917W        W64322  26.056   1.760  12.666
95918W        W64323  24.268  41.751   4.111
95919W        W64324  44.079  43.369   0.237
95920W        W64325  23.166   7.564   4.177
95921W        W64326  36.160  32.602  12.802
95922W        W64327  16.353  39.495  13.453
95923W        W64328   0.308  18.158   2.706
95924W        W64329  41.161  43.935   2.061
95925W        W64330  19.212  27.539   0.209
95926W        W64331   1.769   8.428   3.118
95927W        W64332  10.070  11.369  11.213
95928W        W64333  36.964  23.473  12.441
95929W        W64334  43.257   5.842  14.010
95930W        W64335   8.292   5.217   0.880
95931W        W64336  15.070   9.336   4.161
95932W        W64337  42.734  29.255   1.184
95933W        W64338  19.729  31.771   2.712
95934W        W64339  40.277  17.171  14.603
95935W        W64340  34.846  39.293  13.464
95936W        W64341  33.583  38.671  11.983
95937W        W64342  24.126   9.085   3.773
95938W        W64343  13.654   4.382  13.957
95939W        W64344  36.426  20.528  12.296
95940W        W64345  22.782   2.345   3.801
95941W        W64346  38.607  23.164   1.307
95942W        W64347   8.428  34.684  12.430
95943W        W64348  20.081  14.159   4.330
95944W        W64349  15.093  42.606  11.506
95945W        W64350   1.464  43.340   0.302
95946W        W64351  33.443  23.335  13.028
95947W        W64352  39.672  26.477   3.028
95948W        W64353  37.033  29.032  13.564
95949W        W64354  26.398  34.485   3.613
95950W        W64355  37.013  44.893   2.380
95951W        W64356   1.001  16.122  12.959
95952W        W64357  12.212  36.812   0.285
95953W        W64358   1.303  16.768   2.335
95954W        W64359  21.072  27.269   1.120
95955W        W64360  21.185  11.550   0.791
95956W        W64361  13.283  27.848  10.410
95957W        W64362  26.121  17.636  14.850
95958W        W64363   6.763  10.564  10.547
95959W        W64364  21.246  36.344  12.234
95960W        W64365  31.503  44.516   2.632
95961W        W64366  38.823   7.610   4.176
95962W        W64367  31.024  43.903  12.439
95963W        W64368   4.002  19.122  11.611
95964W        W64369   1.688  42.690  11.797
95965W        W64370  24.950  41.473   0.578
95966W        W64371  19.204   7.494   2.169
95967W        W64372  27.000  19.338  12.483
95968W        W64373  14.826  23.011  10.687
95969W        W64374  23.102   1.757  12.398
95970W        W64375   4.684  23.021   2.826
95971W        W64376   1.431   6.692  14.301
95972W        W64377   7.217  17.168  10.686
95973W        W64378   8.765  18.499   2.214
95974W        W64379  29.019  33.787  14.450
95975W        W64380  41.921  19.664   5.313
95976W        W64381  44.366  20.290   3.598
95977W        W64382  33.179  32.811   0.875
95978W        W64383  41.030  14.263  13.468
95979W        W64384  35.285  41.160   0.442
95980W        W64385  31.787   0.100   1.428
95981W        W64386  13.751  27.601   0.214
95982W        W64387  30.386  23.314   3.926
95983W        W64388  11.568  44.540  11.133
95984W        W64389  17.760   5.407  12.542
95985W        W64390  17.647  38.114   1.382
95986W        W64391   6.244   8.615   0.775
95987W        W64392  40.957  44.012   3.732
95988W        W64393  16.130  12.434   2.773
95989W        W64394  33.716  13.851   2.171
95990W        W64395  16.079  36.434   4.617
95991W        W64396  16.267  19.814   0.429
95992W        W64397  38.262  15.281  14.340
95993W        W64398   8.691  37.438  11.859
95994W        W64399  24.645  10.124   4.333
95995W        W64400  15.879  35.480  12.979
95996W        W64401  12.129   3.028  12.884
95997W        W64402  14.636  18.234  14.905
95998W        W64403   7.406   1.591  13.236
95999W        W64404   2.583  23.696  11.940
96000W        W64405  12.294  19.943  12.641
96001W        W64406  19.175  39.590   3.608
96002W        W64407  27.187   1.238   3.226
96003W        W64408   3.427  30.696  10.580
96004W        W64409  19.013  13.931   2.020
96005W        W64410  10.132  44.386  14.209
96006W        W64411  15.279  40.993   3.277
96007W        W64412  42.897  10.478  13.136
96008W        W64413  26.943  24.601   0.914
96009W        W64414  22.085  16.769   3.174
96010W        W64415   9.774  12.232   4.678
96011W        W64416  16.425  10.700  11.134
96012W        W64417   2.766  40.552   1.871
96013W        W64418  37.913  33.072  10.752
96014W        W64419   5.244  41.422  13.445
96015W        W64420   0.750   0.310  13.867
96016W        W64421  31.665   1.378  12.523
96017W        W64422  27.916  43.858  12.024
96018W        W64423  35.116   8.435   0.895
96019W        W64424  16.792  42.214   3.005
96020W        W64425  14.268  13.093   0.908
96021W        W64426  10.707  40.921   2.823
96022W        W64427  16.798  37.091   0.547
96023W        W64428  12.305   4.764   4.353
96024W        W64429  42.406  31.068  12.552
96025W        W64430  44.377  20.550   4.392
96026W        W64431   5.710  13.131  14.411
96027W        W64432  26.027  25.788   1.517
96028W        W64433  41.816  40.813   0.796
96029W        W64434   1.441   9.805  10.231
96030W        W64435  44.786   8.273  13.100
96031W        W64436  15.148  25.239  12.213
96032W        W64437  26.888  28.762   2.161
96033W        W64438   5.532  35.520   3.740
96034W        W64439  43.859   8.143  14.401
96035W        W64440  10.293  44.809  10.829
96036W        W64441   5.909  36.102   4.220
96037W        W64442  43.905  44.524   2.370
96038W        W64443   1.440   8.665   3.772
96039W        W64444  16.937  37.770  12.636
96040W        W64445  43.466  32.912  11.126
96041W        W64446  14.192  18.112  12.588
96042W        W64447  34.058  37.581  14.409
96043W        W64448   4.442  36.062  13.026
96044W        W64449  22.924   9.990  11.993
96045W        W64450  33.026  39.805  14.695
96046W        W64451  30.985   4.112   1.374
96047W        W64452  35.647  26.570  13.929
96048W        W64453   8.782  30.847   9.703
96049W        W64454   9.516   7.604   1.040
96050W        W64455  31.446  31.911   2.832
96051W        W64456  29.883  15.828   1.759
96052W        W64457  44.687  14.217  14.971
96053W        W64458  32.782  13.923  12.461
96054W        W64459  27.233  26.164   0.337
96055W        W64460  17.596  12.323  11.461
96056W        W64461  36.409  14.352   0.533
96057W        W64462  11.286  28.853   0.503
96058W        W64463  41.894   4.968  12.343
96059W        W64464  30.101   5.210   2.217
96060W        W64465  26.138  25.223   2.369
96061W        W64466  37.974  25.644   0.442
96062W        W64467  18.224   4.942  12.963
96063W        W64468  28.255  37.071   1.206
96064W        W64469  40.801   3.281  12.785
96065W        W64470  23.708   3.965  12.474
96066W        W64471  41.750  32.611   2.762
96067W        W64472  25.693   3.509  10.105
96068W        W64473  44.105   5.412  11.199
96069W        W64474  18.941  43.065   0.345
96070W        W64475  25.644   3.687   3.914
96071W        W64476  16.169  30.440   3.390
96072W        W64477   9.612   9.887  14.750
96073W        W64478   5.124  28.381   4.986
96074W        W64479  22.240  26.897   0.627
96075W        W64480  21.370  42.416  14.783
96076W        W64481   3.705  15.073   1.945
96077W        W64482   9.086   4.163  11.447
96078W        W64483  31.074  14.747   3.761
96079W        W64484  44.784  21.023  13.487
96080W        W64485  15.248   1.369   0.899
96081W        W64486  11.391   3.727   3.274
96082W        W64487  43.374  34.498  14.492
96083W        W64488   9.360   7.272   3.574
96084W        W64489  13.462   8.981   0.899
96085W        W64490  27.953   0.874   3.637
96086W        W64491  16.479  21.246  10.349
96087W        W64492  16.437   8.630  13.507
96088W        W64493  24.513  27.783  14.754
96089W        W64494  19.659  25.909   4.102
96090W        W64495   2.962  25.192  12.829
96091W        W64496  27.253  40.040  13.058
96092W        W64497  36.065  14.900   0.403
96093W        W64498  12.371  16.891   9.688
96094W        W64499  12.391  44.467   3.670
96095W        W64500   7.269  15.756   5.007
96096W        W64501  32.117  20.028  11.090
96097W        W64502  34.369  16.063   0.422
96098W        W64503  38.397   2.713  12.356
96099W        W64504  42.063   1.354   1.418
96100W        W64505  33.794  11.122   4.147
96101W        W64506   1.223  14.706   1.921
96102W        W64507  19.512  13.369   2.343
96103W        W64508  32.235  43.066   1.543
96104W        W64509  21.938  26.947  10.599
96105W        W64510  18.343   5.292   4.929
96106W        W64511  42.016  24.339  11.568
96107W        W64512  28.056  37.511   1.953
96108W        W64513  43.250  14.640   4.772
96109W        W64514  30.975  30.033  12.081
96110W        W64515   4.810  21.121  13.999
96111W        W64516  30.889  42.336   4.550
96112W        W64517  35.021  20.820  11.185
96113W        W64518   5.085   4.582  11.929
96114W        W64519  43.925   2.951   2.430
96115W        W64520  42.578   0.800   1.748
96116W        W64521   1.527  36.482   3.897
96117W        W64522  40.356  29.059  10.331
96118W        W64523  14.348  14.415  12.090
96119W        W64524  15.680  42.390   1.738
96120W        W64525  15.392  19.109  12.042
96121W        W64526  19.192   2.749   0.926
96122W        W64527  21.009   2.772  11.653
96123W        W64528  11.640   2.272  11.993
96124W        W64529  21.569   9.417   3.820
96125W        W64530  14.274  22.418  12.678
96126W        W64531  28.370  41.852   1.817
96127W        W64532  43.464  14.622  11.830
96128W        W64533  33.936  31.767   1.323
96129W        W64534  41.522  18.611   4.637
96130W        W64535   5.454  25.787   4.805
96131W        W64536  38.465  25.283  11.228
96132W        W64537  18.604  38.463  13.415
96133W        W64538  21.190  33.559  11.718
96134W        W64539  14.496   0.143  12.834
96135W        W64540  44.841  15.763  11.969
96136W        W64541  27.710   4.279   3.680
96137W        W64542  22.596  14.276   4.957
96138W        W64543  38.085  24.171  12.948
96139W        W64544  10.395   6.216   2.286
96140W        W64545  13.832  25.015  11.896
96141W        W64546  16.596  44.427   0.507
96142W        W64547   6.671  18.186  12.572
96143W        W64548  15.782  40.082   3.278
96144W        W64549  17.128   0.257  10.637
96145W        W64550   1.399  42.244   0.426
96146W        W64551   6.262  32.431   0.578
96147W        W64552  35.200  22.514   1.821
96148W        W64553  30.978  25.947  10.668
96149W        W64554  15.297  30.119  12.339
96150W        W64555   6.626  12.131   0.994
96151W        W64556  12.697  40.926  12.074
96152W        W64557  43.089  34.371   4.120
96153W        W64558  19.613  35.869   2.459
96154W        W64559  31.289  22.526   4.148
96155W        W64560  38.621  41.676   2.138
96156W        W64561   9.041  12.767  13.290
96157W        W64562  12.540   5.153   4.631
96158W        W64563  11.860   2.245  14.981
96159W        W64564   2.763  41.722  12.535
96160W        W64565  26.699  11.053   1.959
96161W        W64566  37.441   2.381  14.938
96162W        W64567   2.013  16.300   4.110
96163W        W64568  25.536  14.318   2.125
96164W        W64569  42.237  36.354  13.776
96165W        W64570  41.378   5.257   1.041
96166W        W64571  43.283  29.944  10.789
96167W        W64572  31.894   2.816  12.088
96168W        W64573  31.306   6.375   1.200
96169W        W64574   2.646   7.270   2.790
96170W        W64575  44.830  22.541  14.105
96171W        W64576  19.319   1.684   3.533
96172W        W64577  20.991   4.971   4.921
96173W        W64578  26.115  33.598  13.494
96174W        W64579  31.905  16.542  11.100
96175W        W64580  40.559   7.965   5.097
96176W        W64581  44.015  37.604   1.713
96177W        W64582  27.919  28.070  13.067
96178W        W64583  43.436  43.048   3.845
96179W        W64584  43.221  27.796  12.081
96180W        W64585  42.272  33.621   4.249
96181W        W64586  25.125  33.991  14.863
96182W        W64587  15.851  15.927  10.633
96183W        W64588   8.341   2.322  14.016
96184W        W64589  21.707   8.441   3.749
96185W        W64590  35.332  18.018   2.391
96186W        W64591  38.637  22.680  13.554
96187W        W64592  11.714  44.057  13.080
96188W        W64593   7.308  21.996   1.338
96189W        W64594  20.186  21.019   4.283
96190W        W64595  15.380  40.419   1.845
96191W        W64596  26.547  35.491  10.910
96192W        W64597  36.913   4.720   3.268
96193W        W64598   6.649  33.936   3.256
96194W        W64599  20.956   0.906  12.523
96195W        W64600  44.685  43.106  11.087
96196W        W64601  41.792  25.885  13.352
96197W        W64602   1.896   1.897   1.904
96198W        W64603  43.924  14.754  13.186
96199W        W64604  22.981  21.317   2.295
96200W        W64605  30.546  38.524   4.816
96201W        W64606   3.541  29.172  14.749
96202W        W64607  20.490  17.121   2.342
96203W        W64608  10.640  30.517   0.873
96204W        W64609  32.667  13.917   2.219
96205W        W64610  27.463  43.528   1.700
96206W        W64611  13.610  33.146  13.325
96207W        W64612  10.263   2.197   0.871
96208W        W64613   9.929  32.406   1.411
96209W        W64614   9.074   8.143  14.888
96210W        W64615  35.945   6.499  13.421
96211W        W64616  38.610  18.256  14.223
96212W        W64617   8.124  42.039   4.307
96213W        W64618  23.887  41.020  11.717
96214W        W64619  44.910  28.427   0.331
96215W        W64620   7.127  34.302  11.136
96216W        W64621  29.310  14.597   5.010
96217W        W64622  20.607  24.962  13.961
96218W        W64623  12.715  40.873  14.992
96219W        W64624   6.275   0.828  10.195
96220W        W64625  30.155  40.381   1.075
96221W        W64626   5.133  30.355  14.776
96222W        W64627  10.261  39.275   3.611
96223W        W64628  40.433  34.902   0.431
96224W        W64629  26.020   9.904   4.139
96225W        W64630   1.040   1.878   0.716
96226W        W64631  33.388  23.435  14.074
96227W        W64632   5.576  25.667   2.033
96228W        W64633  20.122  41.017  11.139
96229W        W64634  42.201   5.918   0.316
96230W        W64635   1.718  15.092   2.679
96231W        W64636  11.891   2.827   2.839
96232W        W64637  21.089   3.730   2.333
96233W        W64638  10.739  24.768  12.977
96234W        W64639  41.183   0.445  11.728
96235W        W64640  21.060  36.553  14.320
96236W        W64641  27.812  34.368   2.362
96237W        W64642  38.950  21.624   0.416
96238W        W64643  13.836   7.369   3.260
96239W        W64644  13.350  34.861  13.151
96240W        W64645  12.979  11.274   1.799
96241W        W64646  25.970  33.459  14.834
96242W        W64647  15.146  12.624   0.770
96243W        W64648   7.369  24.141   0.479
96244W        W64649  30.712  12.057   2.309
96245W        W64650  40.425  12.659   4.068
96246W        W64651  29.665  24.485  12.899
96247W        W64652  22.635   2.949  10.715
96248W        W64653  38.331   1.952  13.661
96249W        W64654  18.830  26.305   1.229
96250W        W64655  14.184  32.561   3.883
96251W        W64656  39.312  31.942  13.947
96252W        W64657  23.634  18.341   4.610
96253W        W64658  18.553  13.202   1.337
96254W        W64659  20.208  29.595  14.481
96255W        W64660  29.968  27.591   0.189
96256W        W64661  13.159  25.145  13.852
96257W        W64662  33.969  16.552  14.567
96258W        W64663  12.865  36.874   4.133
96259W        W64664  44.530  18.724  14.832
96260W        W64665  21.299   6.383   1.480
96261W        W64666  15.189  30.048  12.836
96262W        W64667  34.703  42.679   2.858
96263W        W64668  27.674  25.206  13.531
96264W        W64669  38.337  14.284  14.431
96265W        W64670  32.946  14.570  12.607
96266W        W64671  19.312   8.096   1.436
96267W        W64672  38.684  23.451   1.961
96268W        W64673  26.705  35.328   0.340
96269W        W64674  17.281  18.586  12.532
96270W        W64675   8.217   9.366  14.296
96271W        W64676  13.612  20.322   0.420
96272W        W64677  42.173  40.109  12.212
96273W        W64678  36.061  27.132  10.844
96274W        W64679  34.537  18.111   4.099
96275W        W64680  22.728  33.042   3.705
96276W        W64681  21.994  23.734   4.250
96277W        W64682   7.859  32.973  13.275
96278W        W64683  35.961  23.672  11.554
96279W        W64684  24.618  38.836   2.390
96280W        W64685  31.444  43.288   1.366
96281W        W64686  38.463   6.623   4.528
96282W        W64687   5.678  10.287   2.233
96283W        W64688   4.354   6.154   2.163
96284W        W64689  34.965  38.476  13.080
96285W        W64690   2.244  44.971  14.970
96286W        W64691  32.309   3.728   5.096
96287W        W64692  27.493  29.385   1.838
96288W        W64693  32.451  29.711  14.985
96289W        W64694  38.359  26.195   0.794
96290W        W64695  21.502  39.887   3.171
96291W        W64696  34.340   9.190  14.864
96292W        W64697  15.579  25.871  10.979
96293W        W64698   3.036   0.746  13.074
96294W        W64699  24.249  43.905  14.220
96295W        W64700  18.171  25.635   1.330
96296W        W64701  30.283  18.628   1.831
96297W        W64702  42.387  17.675   2.988
96298W        W64703  34.980  10.787   2.149
96299W        W64704  35.461  35.114   0.970
96300W        W64705   7.243  34.784  11.141
96301W        W64706   5.506  14.229   4.034
96302W        W64707   8.710  20.078  12.443
96303W        W64708  11.762  31.482   3.626
96304W        W64709  34.572  23.759  12.007
96305W        W64710  40.363  11.824   3.009
96306W        W64711  15.305  20.711   2.633
96307W        W64712  13.361  31.686   1.955
96308W        W64713  10.298  23.219  12.028
96309W        W64714  15.687  30.031  11.166
96310W        W64715  13.299  15.233   4.865
96311W        W64716  39.026  35.899   1.301
96312W        W64717  38.993  12.454   3.647
96313W        W64718   1.296  36.105   4.854
96314W        W64719  31.416   8.929  11.479
96315W        W64720  31.412  42.014  10.193
96316W        W64721  14.638   9.128   0.444
96317W        W64722   1.775  25.092   2.281
96318W        W64723  41.357  38.144   2.768
96319W        W64724  10.818   4.969   1.752
96320W        W64725  42.261   5.880  11.922
96321W        W64726   4.277  27.106   4.137
96322W        W64727  18.058  31.489  13.951
96323W        W64728  31.068   5.673  14.881
96324W        W64729   9.813  41.185   2.445
96325W        W64730  39.840  21.017   2.058
96326W        W64731  22.061   3.953   4.413
96327W        W64732  29.124  40.755   0.274
96328W        W64733   5.376   2.965   3.231
96329W        W64734  34.143  18.777   2.602
96330W        W64735  34.945  21.606  10.744
96331W        W64736  11.717  35.208  10.742
96332W        W64737  39.935   6.418   1.128
96333W        W64738  21.357   8.906  14.939
96334W        W64739  20.746  20.601   3.205
96335W        W64740  11.954  35.146   3.861
96336W        W64741   3.046   4.897  11.514
96337W        W64742  23.544  33.881   4.205
96338W        W64743   8.824  42.188   2.770
96339W        W64744  29.145  26.721   3.611
96340W        W64745  23.527  21.263  13.846
96341W        W64746  12.067  43.491   2.273
96342W        W64747  23.211   6.103  14.498
96343W        W64748  42.734  43.280   4.095
96344W        W64749  29.204  12.213  12.184
96345W        W64750  13.723  29.616   4.645
96346W        W64751  25.083  28.863  14.469
96347W        W64752  43.990   6.677  14.566
96348W        W64753  42.717  10.559  13.925
96349W        W64754  13.265   1.733   1.857
96350W        W64755  38.567  22.113   4.543
96351W        W64756   2.218  25.726  11.526
96352W        W64757   8.744  32.048   4.529
96353W        W64758  31.632  26.126   4.443
96354W        W64759  31.053  14.885  14.520
96355W        W64760   1.242  29.714   3.685
96356W        W64761  20.783   7.716  13.235
96357W        W64762  42.532  25.124  12.214
96358W        W64763  34.575   3.732  14.950
96359W        W64764  42.875   4.334   2.784
96360W        W64765   6.416   5.174   2.285
96361W        W64766  19.957  33.497   2.272
96362W        W64767  18.554  10.297   3.666
96363W        W64768  39.325  44.712  14.821
96364W        W64769   5.735  21.746  12.900
96365W        W64770  27.066  20.628  12.160
96366W        W64771  24.175  11.870   1.914
96367W        W64772  43.951  10.160   2.186
96368W        W64773  35.521  21.044  11.122
96369W        W64774   8.405  33.924  12.566
96370W        W64775  34.913  20.159   4.905
96371W        W64776   1.314  17.156  11.210
96372W        W64777   8.821  29.628   1.954
96373W        W64778  11.761   1.798   3.589
96374W        W64779  40.534  34.360   2.258
96375W        W64780   9.610  22.731   0.483
96376W        W64781  28.046  31.836  12.074
96377W        W64782  40.470  41.898   0.627
96378W        W64783  24.585  25.047  14.631
96379W        W64784   3.927  29.132   1.408
96380W        W64785  16.552  22.324  11.150
96381W        W64786   5.322  23.197   1.308
96382W        W64787  20.075  44.332   4.694
96383W        W64788  12.234   1.324  11.371
96384W        W64789  19.192   1.315  14.096
96385W        W64790   7.499  15.017   2.754
96386W        W64791  12.434  13.743   2.204
96387W        W64792  18.152  13.128  11.534
96388W        W64793  10.292   7.430   2.393
96389W        W64794  17.406  41.635  13.737
96390W        W64795  28.138  14.341   9.829
96391W        W64796  13.350  19.274   1.712
96392W        W64797   7.847   0.764   2.216
96393W        W64798  35.135  36.968  14.757
96394W        W64799  39.139  18.594  12.965
96395W        W64800  22.191   1.858  12.450
96396W        W64801  29.401  21.312  13.847
96397W        W64802  26.500  33.026   2.303
96398W        W64803   8.871  31.793  12.559
96399W        W64804  31.422  43.516  11.298
96400W        W64805  30.208  33.539   4.698
96401W        W64806  39.317  36.915   1.212
96402W        W64807   1.169  32.517  11.647
96403W        W64808  42.481   6.402   0.314
96404W        W64809   1.968  14.392   0.314
96405W        W64810  24.779  12.329  12.871
96406W        W64811  28.469   9.123   2.328
96407W        W64812   1.694   7.803  11.626
96408W        W64813  29.020   8.877  12.061
96409W        W64814   6.649  28.755  12.098
96410W        W64815   1.581   9.663   0.941
96411W        W64816  13.362   9.866   3.651
96412W        W64817  35.006  33.060  14.505
96413W        W64818  19.074  34.957   1.854
96414W        W64819  37.501  18.043   0.492
96415W        W64820  20.101  24.563   0.386
96416W        W64821  28.664  12.812  13.659
96417W        W64822  20.120  35.022  14.993
96418W        W64823  19.035   9.766  12.825
96419W        W64824  39.338  13.292   4.797
96420W        W64825  36.062   5.264   1.717
96421W        W64826  16.590   4.386  12.455
96422W        W64827  25.944  37.642  11.585
96423W        W64828  38.089  15.908  10.112
96424W        W64829  14.695  26.469  13.015
96425W        W64830  21.327  43.730   3.337
96426W        W64831  17.302  22.096   0.392
96427W        W64832  15.892  17.822   2.785
96428W        W64833  29.684  18.283  12.792
96429W        W64834  10.351  17.734   0.933
96430W        W64835  22.243   7.385   1.708
96431W        W64836  11.316  31.761   3.691
96432W        W64837  35.332  10.480   3.680
96433W        W64838  25.174  12.569   3.931
96434W        W64839  35.472  37.938   0.374
96435W        W64840  43.801   9.662  11.642
96436W        W64841   4.959  42.252  11.633
96437W        W64842  18.286  44.269  14.850
96438W        W64843  33.996  16.399   2.848
96439W        W64844  44.258  30.918  14.527
96440W        W64845  11.276  16.310  13.194
96441W        W64846  28.303  35.308  11.191
96442W        W64847  22.978  25.587   4.498
96443W        W64848   4.180  38.067   0.503
96444W        W64849  37.318  15.370  11.109
96445W        W64850  19.080  28.747  14.521
96446W        W64851  33.953   9.146  11.912
96447W        W64852  16.319   6.946   0.152
96448W        W64853   8.347   1.742  11.823
96449W        W64854  29.141  27.194  11.587
96450W        W64855  11.057  31.980   4.109
96451W        W64856  33.676  11.980  11.189
96452W        W64857   2.363  41.840   2.722
96453W        W64858   8.794   0.889  13.883
96454W        W64859  10.339  11.709   1.757
96455W        W64860  13.888  13.907   1.290
96456W        W64861  28.551  16.043  14.898
96457W        W64862  37.110  23.471   3.243
96458W        W64863  42.148  19.837   0.517
96459W        W64864  35.912   5.482  11.630
96460W        W64865  20.726   2.742  13.818
96461W        W64866  19.293  22.350   0.235
96462W        W64867  10.895  40.230   0.079
96463W        W64868  14.202  20.421   4.607
96464W        W64869  28.456  17.805  14.285
96465W        W64870   0.773  19.092   2.693
96466W        W64871  27.375   4.452   4.057
96467W        W64872   7.352  36.584  14.722
96468W        W64873  43.232  15.586  10.297
96469W        W64874  20.500  31.131   4.267
96470W        W64875  24.215  43.326   3.150
96471W        W64876  28.866  31.962   3.208
96472W        W64877   1.009  40.300  13.991
96473W        W64878   6.270  38.852  14.453
96474W        W64879   2.000  33.883   3.644
96475W        W64880  13.308  43.237   4.565
96476W        W64881   0.982  22.022  12.884
96477W        W64882  18.247  22.430  12.978
96478W        W64883  27.129  22.079   2.329
96479W        W64884  37.312   0.305   4.280
96480W        W64885  20.569  21.050  14.649
96481W        W64886  35.271  23.118  11.252
96482W        W64887  31.178   0.299  11.062
96483W        W64888  16.579  24.819  14.808
96484W        W64889   6.672  31.448   2.239
96485W        W64890  41.414  21.468   3.716
96486W        W64891  38.946   5.535   0.458
96487W        W64892  32.434  32.362   1.382
96488W        W64893  37.301   1.998   3.135
96489W        W64894  19.063   4.844   2.921
96490W        W64895  29.400  22.446   4.143
96491W        W64896   4.857  26.493  10.718
96492W        W64897   6.104  10.061   0.847
96493W        W64898  26.624  17.597  11.613
96494W        W64899   1.826  31.392   4.359
96495W        W64900   5.647   4.960   0.425
96496W        W64901  42.984  20.649   4.158
96497W        W64902  19.068  28.116   1.201
96498W        W64903  44.274  41.204   0.793
96499W        W64904  17.806  36.435  10.801
96500W        W64905   2.967  41.537  12.008
96501W        W64906  34.382   6.144  12.368
96502W        W64907  42.422  22.193  11.135
96503W        W64908  40.317  39.417   1.781
96504W        W64909   4.781  36.668   4.087
96505W        W64910  37.468  27.103  12.152
96506W        W64911  18.718  33.860  13.749
96507W        W64912  32.739  17.371  11.600
96508W        W64913  14.017   9.123   0.875
96509W        W64914  23.586  14.272   0.796
96510W        W64915  35.037  10.511  11.951
96511W        W64916  41.135   3.752  10.387
96512W        W64917   6.845   0.909  14.508
96513W        W64918  15.484  43.823   1.917
96514W        W64919  15.663  16.319   4.651
96515W        W64920  17.305  29.125   4.045
96516W        W64921  18.082   2.763  12.123
96517W        W64922  31.116  39.826  14.097
96518W        W64923  35.734  16.780   4.469
96519W        W64924   7.877   7.368   3.641
96520W        W64925  35.556  11.260  12.519
96521W        W64926   2.751  31.178   3.563
96522W        W64927   9.338  38.299  11.895
96523W        W64928  12.827  10.844   2.924
96524W        W64929  10.262  32.407  14.238
96525W        W64930  30.754  41.748   3.732
96526W        W64931   9.332  42.052   4.190
96527W        W64932   8.562   0.375   1.655
96528W        W64933  16.528  34.515   2.371
96529W        W64934  30.173  12.291   0.929
96530W        W64935  35.877  24.797  12.581
96531W        W64936  17.149  37.028  11.924
96532W        W64937  34.776  24.822   1.826
96533W        W64938  33.383   4.942   1.865
96534W        W64939   5.452  20.650   3.395
96535W        W64940  39.388  21.549  14.453
96536W        W64941   1.172  21.968   0.757
96537W        W64942  30.210  12.109   3.416
96538W        W64943  29.616  12.514  14.413
96539W        W64944  38.168  31.469  11.091
96540W        W64945   6.795  31.514  14.907
96541W        W64946  27.468  12.268  11.605
96542W        W64947  33.790   3.990   0.274
96543W        W64948  16.935  18.628  14.175
96544W        W64949  21.568  26.094   2.959
96545W        W64950  23.650   2.215  13.525
96546W        W64951  26.684  43.811   3.234
96547W        W64952  32.149   0.004   0.511
96548W        W64953   1.711  31.080   0.260
96549W        W64954  11.687  32.581   1.002
96550W        W64955  29.521  35.374   5.108
96551W        W64956  15.732  38.000   0.964
96552W        W64957  24.417  13.026   0.555
96553W        W64958  44.946  34.100   2.668
96554W        W64959  22.715   0.947  11.011
96555W        W64960  25.475   3.285  13.869
96556W        W64961  21.447  15.326   1.373
96557W        W64962  28.019  23.240  13.006
96558W        W64963  41.495  17.347   2.183
96559W        W64964   1.415  42.031  10.715
96560W        W64965   1.350  31.436  14.775
96561W        W64966  42.815  14.024  14.490
96562W        W64967   4.740  35.593   1.697
96563W        W64968   9.815   5.394   1.001
96564W        W64969  23.409  31.491   4.702
96565W        W64970  24.205  40.825   4.023
96566W        W64971  28.607  21.593   4.814
96567W        W64972  26.601  44.518   3.708
96568W        W64973  13.952  29.909   1.837
96569W        W64974  37.563  30.861  14.678
96570W        W64975  18.547  26.652   4.630
96571W        W64976  38.828  31.352   4.180
96572W        W64977  17.741  41.588   1.975
96573W        W64978  22.129  28.712  13.871
96574W        W64979  16.387   4.680  12.066
96575W        W64980  25.864  41.822   2.331
96576W        W64981   7.012   6.926  11.766
96577W        W64982  28.107  32.568  14.793
96578W        W64983  39.990  13.111   3.095
96579W        W64984   3.492  23.961  14.247
96580W        W64985  38.602  36.075  14.963
96581W        W64986  43.916  30.604  14.730
96582W        W64987   6.548  21.236  13.899
96583W        W64988  26.165  37.026  13.839
96584W        W64989   0.814  23.245   0.901
96585W        W64990  17.905  27.726   3.224
96586W        W64991  44.712  41.121  13.009
96587W        W64992  20.667  28.019  13.945
96588W        W64993  34.891  36.963  13.911
96589W        W64994  28.056  11.318   0.731
96590W        W64995  26.603  21.261   3.749
96591W        W64996  27.020  44.077  11.221
96592W        W64997  28.833   1.762  12.145
96593W        W64998  21.942   8.684   1.326
96594W        W64999  38.627  19.729   5.027
96595W        W65000  25.162  33.478  13.393
96596W        W65001  43.079  31.806  12.858
96597W        W65002  37.518  35.549   3.718
96598W        W65003  27.887   2.211  13.443
96599W        W65004   3.558  19.213   1.318
96600W        W65005   5.449  16.970  10.847
96601W        W65006  10.167  24.503   2.494
96602W        W65007  15.670   2.939   4.584
96603W        W65008  35.422  17.450   2.368
96604W        W65009   0.769   7.603  10.343
96605W        W65010  29.536   6.327  12.810
96606W        W65011  33.756   6.208   3.766
96607W        W65012   9.763  36.642  12.588
96608W        W65013   9.395  24.152  11.585
96609W        W65014  24.519   5.978  13.831
96610W        W65015  32.016  42.768   4.526
96611W        W65016  15.634   8.841   2.433
96612W        W65017  27.915  34.926   0.806
96613W        W65018   8.590  19.989   3.725
96614W        W65019   8.938  18.253  13.873
96615W        W65020  36.467  38.076   4.124
96616W        W65021  39.472   5.277   3.187
96617W        W65022  32.187  44.835  13.906
96618W        W65023  38.142  26.740   4.487
96619W        W65024  12.895   6.242   2.481
96620W        W65025  23.291  19.648  14.900
96621W        W65026   1.140  15.938   0.743
96622W        W65027  39.207  32.251   4.206
96623W        W65028  20.549  31.945  14.294
96624W        W65029  11.130  13.406   3.074
96625W        W65030  15.751  40.393   4.206
96626W        W65031   8.868  37.924  11.883
96627W        W65032  39.413  25.978   3.881
96628W        W65033   6.854   2.288   4.752
96629W        W65034  41.750  44.259  11.077
96630W        W65035  41.475  44.476   0.259
96631W        W65036   6.676  32.417  14.773
96632W        W65037  35.229  15.695  11.642
96633W        W65038  34.129   9.596  13.871
96634W        W65039  32.434  30.074  14.596
96635W        W65040  29.669  30.953  11.158
96636W        W65041  18.049  24.837   4.050
96637W        W65042   4.284  32.148  14.416
96638W        W65043   7.252  23.958   4.180
96639W        W65044   3.699  25.189  11.110
96640W        W65045  13.543  36.839  13.863
96641W        W65046  41.778  41.537  10.645
96642W        W65047   3.471  28.261   0.249
96643W        W65048   9.324  28.977  11.206
96644W        W65049  22.527  40.948  13.126
96645W        W65050  31.490  44.474  10.362
96646W        W65051  25.621   4.917  11.172
96647W        W65052  31.140  40.684   1.811
96648W        W65053  35.942  16.701   2.206
96649W        W65054   8.837  43.491  13.213
96650W        W65055  30.416  10.860   2.270
96651W        W65056  40.633   7.263   0.482
96652W        W65057  38.496  37.489   5.047
96653W        W65058   1.151  14.332  14.631
96654W        W65059   4.260  40.420   0.547
96655W        W65060   3.598  36.439  13.795
96656W        W65061  22.985  29.734   4.506
96657W        W65062  34.454  22.640   1.341
96658W        W65063  30.604  19.698  10.354
96659W        W65064  13.472  37.761  12.906
96660W        W65065   2.020  23.185  13.929
96661W        W65066  26.791  10.136   0.925
96662W        W65067  21.595  14.291   2.248
96663W        W65068   7.176   0.566   3.224
96664W        W65069  18.143   3.472   4.617
96665W        W65070  18.512   4.957  12.120
96666W        W65071  19.835   7.198   2.708
96667W        W65072  17.952  36.315   3.217
96668W        W65073  16.344  13.379   0.250
96669W        W65074   9.908  23.013   3.764
96670W        W65075  35.504  17.424   3.049
96671W        W65076  39.864  37.049  12.851
96672W        W65077   6.261  38.468   1.263
96673W        W65078  22.878   6.505   2.248
96674W        W65079  33.337  42.322  12.616
96675W        W65080  31.647  20.038   3.320
96676W        W65081  10.425   6.242  13.817
96677W        W65082  37.140  34.888  14.326
96678W        W65083  18.691  39.732   0.651
96679W        W65084  28.750  40.824  12.996
96680W        W65085  25.146  17.306  12.192
96681W        W65086  36.839  40.619  12.063
96682W        W65087  40.941  12.176  10.643
96683W        W65088  23.418   9.756  10.467
96684W        W65089  11.868  42.947   2.971
96685W        W65090  43.982  32.490   3.094
96686W        W65091  16.745   3.199   0.954
96687W        W65092  39.091  27.037   4.940
96688W        W65093   6.184   8.523  14.898
96689W        W65094  27.782  42.988   5.076
96690W        W65095  43.039  18.203  12.917
96691W        W65096  40.508   4.209   3.302
96692W        W65097   5.239  21.980  12.838
96693W        W65098  44.381   7.304   0.197
96694W        W65099  27.293  38.600  14.314
96695W        W65100  15.563  27.746   4.668
96696W        W65101  12.192   1.697   3.288
96697W        W65102  28.516  18.132  14.788
96698W        W65103  19.863  32.605   3.782
96699W        W65104   2.410  40.607   3.188
96700W        W65105  26.818  33.688   3.229
96701W        W65106  12.562  19.166   2.215
96702W        W65107  38.434  21.190   3.111
96703W        W65108   6.226  31.054   0.903
96704W        W65109   4.268  20.053  12.524
96705W        W65110  25.952  43.812   3.654
96706W        W65111  22.580  38.057   4.629
96707W        W65112  34.959  27.935   2.210
96708W        W65113  34.352  32.411   0.319
96709W        W65114   4.694  21.246  12.154
96710W        W65115  19.854  41.014   4.310
96711W        W65116   3.311   3.981  10.139
96712W        W65117  41.849  43.428  12.079
96713W        W65118  18.675   7.176  11.216
96714W        W65119   7.105   6.266  10.686
96715W        W65120  12.717  31.569   1.169
96716W        W65121   8.700  25.079   3.724
96717W        W65122   9.276   9.356   3.901
96718W        W65123  34.436   6.926   3.856
96719W        W65124  44.871  16.071   0.372
96720W        W65125  18.645  31.127  10.499
96721W        W65126  10.446  29.903  12.435
96722W        W65127  17.646  16.265  11.645
96723W        W65128  33.802  27.649  11.541
96724W        W65129  38.630  24.239   1.723
96725W        W65130  20.195  38.605  10.896
96726W        W65131  37.451  13.389  13.578
96727W        W65132  11.853  28.592   1.358
96728W        W65133  15.106  37.455   3.122
96729W        W65134  33.100   1.589  13.620
96730W        W65135  37.849  22.080  13.955
96731W        W65136  14.223   2.447   1.834
96732W        W65137   8.185   2.426  13.519
96733W        W65138  42.263  18.994  12.465
96734W        W65139  39.260  28.877   0.031
96735W        W65140   0.543   0.753   1.002
96736W        W65141  13.163  12.384  11.673
96737W        W65142  23.817  43.310  12.707
96738W        W65143  29.027  37.401   2.224
96739W        W65144  39.083  27.571  14.968
96740W        W65145  15.421   4.599   0.338
96741W        W65146   1.553  42.869  13.649
96742W        W65147  38.424   5.969  10.089
96743W        W65148  24.470  27.167  12.568
96744W        W65149  13.747  23.511  10.906
96745W        W65150   6.145   8.349   1.830
96746W        W65151  22.762   9.696   2.257
96747W        W65152  19.330  41.052   4.409
96748W        W65153  18.188  11.771  10.293
96749W        W65154  23.580  19.630   0.346
96750W        W65155  37.345  13.556   3.324
96751W        W65156  42.692  14.210   0.918
96752W        W65157  43.595  25.991   4.164
96753W        W65158  18.062  31.827  14.337
96754W        W65159   3.164  11.628  11.606
96755W        W65160  11.269  39.017   4.618
96756W        W65161   0.996   7.514   9.653
96757W        W65162  29.464  38.501   2.820
96758W        W65163  34.906  19.759   1.896
96759W        W65164  14.213   8.185   3.990
96760W        W65165  40.466  22.682   3.548
96761W        W65166   2.342  35.019  13.421
96762W        W65167  12.617  32.677   0.168
96763W        W65168  14.582  29.384  14.888
96764W        W65169  40.507  24.649   4.802
96765W        W65170  23.287  11.633  13.280
96766W        W65171  29.411  26.031  10.954
96767W        W65172  21.392  31.580   4.471
96768W        W65173  31.699   7.936  11.562
96769W        W65174  21.119   6.729  14.695
96770W        W65175  37.416  30.901   2.406
96771W        W65176  43.789   0.886   1.380
96772W        W65177  44.060   3.806  12.926
96773W        W65178  22.102  21.014   3.384
96774W        W65179  12.782  20.358   2.817
96775W        W65180   0.916  18.694  14.833
96776W        W65181  36.209   7.850   2.174
96777W        W65182   1.292  24.701   0.436
96778W        W65183  25.644  35.156  12.924
96779W        W65184  24.368  21.453  11.970
96780W        W65185  23.276  43.499   2.710
96781W        W65186  32.594  22.012   2.720
96782W        W65187  24.151   4.469  11.439
96783W        W65188   9.253  22.525   4.252
96784W        W65189   2.313  37.088   2.714
96785W        W65190  32.898  19.839   0.957
96786W        W65191   9.444  33.318  14.766
96787W        W65192   8.280  19.123   1.314
96788W        W65193  42.200  19.087   2.808
96789W        W65194  25.151  11.971  12.967
96790W        W65195   5.621  30.749   0.677
96791W        W65196  15.460  38.101  14.803
96792W        W65197  20.962  14.606   3.322
96793W        W65198  36.990  27.996  13.462
96794W        W65199   8.254  27.216   1.196
96795W        W65200  25.113   6.423   0.223
96796W        W65201  31.922  11.034  12.639
96797W        W65202  20.510  32.791  13.701
96798W        W65203  35.601  19.677  13.723
96799W        W65204  27.134   8.736   3.693
96800W        W65205  29.767   6.685  11.179
96801W        W65206  43.295  42.743   5.080
96802W        W65207   3.396  21.691   3.291
96803W        W65208   0.853  38.249   0.538
96804W        W65209  30.589  28.990  13.082
96805W        W65210  36.026  11.243  14.897
96806W        W65211  28.669  14.550  14.119
96807W        W65212  18.250  21.971   4.997
96808W        W65213  16.422  34.470   1.850
96809W        W65214  17.193  22.289  13.983
96810W        W65215  30.423   0.969  13.411
96811W        W65216  23.086   7.675   1.294
96812W        W65217  38.347   0.564   4.574
96813W        W65218  33.912   7.784  11.606
96814W        W65219  18.213  41.019  14.032
96815W        W65220  28.649  29.587   4.313
96816W        W65221  29.012  34.996   2.089
96817W        W65222  42.268   4.146   0.757
96818W        W65223   0.348  30.410  11.652
96819W        W65224  43.872  15.222  10.884
96820W        W65225  19.229  25.634  14.268
96821W        W65226  21.473   8.283  11.175
96822W        W65227  43.492   6.607  12.061
96823W        W65228  23.649  21.107  12.898
96824W        W65229  23.219   5.678   2.471
96825W        W65230  33.712  13.270   3.746
96826W        W65231  31.005  25.823   2.243
96827W        W65232   4.661  24.716  10.502
96828W        W65233  41.476   5.791   4.033
96829W        W65234  32.489  42.905   1.118
96830W        W65235   1.350  12.155  10.956
96831W        W65236  24.734  38.506   2.841
96832W        W65237  24.932  15.399  12.392
96833W        W65238  21.741  17.967  10.715
96834W        W65239  37.446  33.385   2.383
96835W        W65240   5.859  29.951   2.692
96836W        W65241  17.575  41.051   1.231
96837W        W65242   8.891  17.570   4.539
96838W        W65243  34.978  10.625   4.573
96839W        W65244  29.391  33.789   1.701
96840W        W65245  29.032  19.449  10.246
96841W        W65246  12.227  16.591   3.003
96842W        W65247   3.911  33.243   1.158
96843W        W65248  17.000   1.227  14.364
96844W        W65249  31.626  18.848  10.647
96845W        W65250  13.585   7.732   4.082
96846W        W65251  29.126  18.251  12.951
96847W        W65252  26.124  20.958  11.610
96848W        W65253  37.027  29.409   2.466
96849W        W65254  14.426  27.554   3.219
96850W        W65255  18.872   0.173   1.828
96851W        W65256  35.657  37.497  11.466
96852W        W65257  25.683  39.755   0.998
96853W        W65258  35.199  26.500  13.062
96854W        W65259  39.746  20.677   0.623
96855W        W65260  12.491  12.684   4.299
96856W        W65261  22.958  14.837   3.254
96857W        W65262  32.630  26.284   0.507
96858W        W65263  36.869  18.300  13.365
96859W        W65264  12.591  27.782   0.785
96860W        W65265  15.539  22.242   4.822
96861W        W65266   1.818  24.510  11.736
96862W        W65267  22.168  15.207  11.222
96863W        W65268  13.728  26.506   2.417
96864W        W65269   4.803  35.052  12.520
96865W        W65270  40.276   5.855   3.857
96866W        W65271  36.793  37.861   0.808
96867W        W65272  43.175  22.507  14.442
96868W        W65273  15.790  37.937   3.266
96869W        W65274  33.419  44.582   3.859
96870W        W65275  43.820  30.588  12.788
96871W        W65276  41.899  32.609  12.554
96872W        W65277  14.314  24.319  11.986
96873W        W65278   7.424   3.481   2.222
96874W        W65279  38.074  44.322  14.012
96875W        W65280  38.524  29.597   3.726
96876W        W65281  43.397  27.425   0.192
96877W        W65282   4.404  31.349  13.695
96878W        W65283  30.068   0.362  14.945
96879W        W65284  41.997   8.416   0.434
96880W        W65285  37.465  22.420  11.474
96881W        W65286   2.524  32.945  11.759
96882W        W65287  28.958   0.814  13.648
96883W        W65288   8.760   6.429  14.429
96884W        W65289   2.485  33.795  10.687
96885W        W65290  42.782  20.514  12.930
96886W        W65291  12.568  24.223  14.183
96887W        W65292   6.509  28.116  12.951
96888W        W65293   2.015   9.637   2.801
96889W        W65294  22.123  26.499   0.968
96890W        W65295   9.947  34.702   1.961
96891W        W65296  39.535   9.151   0.471
96892W        W65297  38.543   1.793  10.209
96893W        W65298   2.036  30.018  12.449
96894W        W65299  17.549   1.692  11.608
96895W        W65300  16.867   0.315   0.055
96896W        W65301  30.483  25.941  12.969
96897W        W65302   0.710  33.140   3.297
96898W        W65303  28.599  43.887   2.442
96899W        W65304   7.785   4.345  12.579
96900W        W65305   9.568  33.725  13.777
96901W        W65306  15.867   9.382  12.037
96902W        W65307  36.822   5.983  11.629
96903W        W65308  24.962  15.024  13.701
96904W        W65309  39.910  34.508   4.843
96905W        W65310  44.841  10.291   4.031
96906W        W65311  14.752  27.883  10.498
96907W        W65312   1.713  14.586  11.867
96908W        W65313  33.011   3.860  12.096
96909W        W65314  29.632  42.901  13.419
96910W        W65315   2.333  33.396   2.149
96911W        W65316  34.886  43.558   3.267
96912W        W65317  12.447   9.906   2.357
96913W        W65318  14.149  35.898   3.047
96914W        W65319  43.466  30.420  12.133
96915W        W65320  43.902  21.012   1.348
96916W        W65321  25.213   5.229   0.904
96917W        W65322  22.699  19.693   4.240
96918W        W65323  43.761  26.690  12.253
96919W        W65324  41.004  22.669   1.286
96920W        W65325  43.135  18.795  12.276
96921W        W65326  10.869  20.092   0.809
96922W        W65327  38.376  12.048  12.518
96923W        W65328  44.240  33.143  12.896
96924W        W65329  13.884  10.313  13.554
96925W        W65330   5.865   0.981   2.187
96926W        W65331  25.447  31.961  14.848
96927W        W65332  40.060   8.111  12.590
96928W        W65333  43.360  32.555  14.142
96929W        W65334  35.885  37.976  11.545
96930W        W65335  36.911  38.155   2.670
96931W        W65336   8.201   8.477  14.698
96932W        W65337  38.050   7.307   1.396
96933W        W65338  24.962  21.528  13.860
96934W        W65339  13.240   5.288  12.520
96935W        W65340  30.000  42.401   0.182
96936W        W65341  28.580  22.309  13.865
96937W        W65342  33.813  41.708  11.227
96938W        W65343  13.137   6.246  10.708
96939W        W65344  16.442  16.833   1.958
96940W        W65345  16.663   3.697   3.374
96941W        W65346  36.506   6.390  14.901
96942W        W65347   2.325  41.934   1.852
96943W        W65348   1.731  43.763   0.723
96944W        W65349  32.113  26.587   1.518
96945W        W65350   1.959  32.317  14.951
96946W        W65351  21.545  44.664  14.387
96947W        W65352  21.648  43.770   1.166
96948W        W65353  13.360  27.375  13.343
96949W        W65354  35.540  38.305   2.866
96950W        W65355  40.132  32.024  13.347
96951W        W65356   9.853  10.873  12.472
96952W        W65357  17.561  18.680  10.710
96953W        W65358   6.719  11.252  11.930
96954W        W65359   0.430  13.235  11.706
96955W        W65360  27.040  23.240  14.872
96956W        W65361  38.128  21.993  12.487
96957W        W65362  40.448  32.344   2.640
96958W        W65363  25.943  24.249   4.133
96959W        W65364  15.103  13.241   1.214
96960W        W65365  10.207   9.733   1.511
96961W        W65366  21.055   7.048  10.791
96962W        W65367  36.919  35.113  13.150
96963W        W65368   8.424  39.372  14.153
96964W        W65369   7.120  12.197   2.827
96965W        W65370  26.840  11.736   0.499
96966W        W65371   6.712   8.819   0.675
96967W        W65372   7.872   7.988   0.361
96968W        W65373   4.625  20.311  11.782
96969W        W65374  33.430  35.765  11.327
96970W        W65375  41.401  37.778  11.684
96971W        W65376   0.844  30.408  11.561
96972W        W65377  24.714  19.634   4.043
96973W        W65378   1.402  41.303  14.494
96974W        W65379  43.565  13.205  10.701
96975W        W65380  17.095  25.218  12.462
96976W        W65381  30.021  28.477   1.416
96977W        W65382  12.319  16.628   3.499
96978W        W65383  36.351  31.489   4.148
96979W        W65384  18.107  27.504   0.806
96980W        W65385  32.354  40.352   4.291
96981W        W65386  29.732  15.601   2.186
96982W        W65387  27.820  41.754  12.558
96983W        W65388  35.840  34.123   1.692
96984W        W65389  10.749  41.733   2.012
96985W        W65390  39.228  34.555  10.308
96986W        W65391  32.528   0.273   1.081
96987W        W65392  43.987  14.597  13.664
96988W        W65393   9.366  31.682   4.542
96989W        W65394   0.479   6.214   2.258
96990W        W65395   7.234   1.556   2.286
96991W        W65396  27.448   9.436  12.440
96992W        W65397  39.866   5.297  14.484
96993W        W65398   2.982  42.420   0.308
96994W        W65399  12.681  37.434  10.813
96995W        W65400  40.883  15.093   1.631
96996W        W65401  28.451  14.928   1.458
96997W        W65402   7.053  20.479   1.299
96998W        W65403  11.804   3.014   3.758
96999W        W65404  10.398   7.946  11.132
97000W        W65405  38.761   0.765   4.230
97001W        W65406   1.747  22.746   3.042
97002W        W65407  30.441   2.425  13.340
97003W        W65408  33.500   0.867  13.987
97004W        W65409  28.392  36.516  14.029
97005W        W65410  40.896  35.679  11.909
97006W        W65411  29.674  26.480  10.922
97007W        W65412  18.787  10.638  13.819
97008W        W65413   5.310   8.659  12.424
97009W        W65414  25.279  41.656   1.420
97010W        W65415  38.946  35.945   3.552
97011W        W65416  17.691  34.794   4.072
97012W        W65417  26.137  41.564  14.341
97013W        W65418  23.436  13.341   3.779
97014W        W65419  39.008  25.107   2.282
97015W        W65420   7.265  27.951  14.516
97016W        W65421   4.919   9.016  12.364
97017W        W65422  29.369  12.389   2.640
97018W        W65423   6.141  13.182   4.247
97019W        W65424  18.047  27.688  11.525
97020W        W65425  22.694  15.723   4.899
97021W        W65426  11.547  10.808  13.534
97022W        W65427  13.353  42.449   1.492
97023W        W65428  26.516   4.904  10.621
97024W        W65429  22.671  10.289  10.706
97025W        W65430   5.942  32.803   3.076
97026W        W65431  25.035   0.922   3.207
97027W        W65432  15.734   6.130  13.821
97028W        W65433  41.647  32.534   1.768
97029W        W65434  31.589  21.993   5.041
97030W        W65435  28.298  30.016  13.791
97031W        W65436  10.168  32.987  11.149
97032W        W65437  12.594  12.992   3.894
97033W        W65438  11.307   6.121   4.058
97034W        W65439  33.969   0.561  10.672
97035W        W65440  15.087  28.659   1.911
97036W        W65441   3.302  39.509  12.873
97037W        W65442  34.226   4.733   4.308
97038W        W65443  42.416   6.325   3.359
97039W        W65444  12.826   1.353  13.158
97040W        W65445  33.531  10.821  14.927
97041W        W65446  20.576  23.901   4.502
97042W        W65447  28.107  28.413   2.179
97043W        W65448   0.729  27.352   4.529
97044W        W65449  33.150   6.461   2.739
97045W        W65450  24.252  38.197  14.307
97046W        W65451  35.601   4.265  11.653
97047W        W65452  43.196  39.434   0.433
97048W        W65453  38.096   9.784   3.766
97049W        W65454  14.541   8.195  12.937
97050W        W65455  40.000   0.823  10.410
97051W        W65456  38.364  30.740  12.028
97052W        W65457  20.962   4.418   3.740
97053W        W65458  39.434  36.331   1.829
97054W        W65459   8.028   5.274  10.575
97055W        W65460  16.062   5.883  10.945
97056W        W65461  12.579  44.347   2.689
97057W        W65462  18.515  36.873  11.079
97058W        W65463  36.991   0.431   1.807
97059W        W65464  39.412  43.932   3.574
97060W        W65465  26.145  18.199  14.487
97061W        W65466  42.874  30.040  12.475
97062W        W65467   7.406  24.439  14.951
97063W        W65468  28.605  10.239   0.536
97064W        W65469  17.742   1.377  14.873
97065W        W65470  36.903  17.746  11.929
97066W        W65471  41.552  23.719  10.717
97067W        W65472  11.936  44.924   3.207
97068W        W65473  34.280   7.689   4.232
97069W        W65474  20.776   5.263   0.612
97070W        W65475  16.869  31.960  12.158
97071W        W65476  31.417  27.039   3.379
97072W        W65477  12.254  11.849   4.592
97073W        W65478   5.255  21.860   0.294
97074W        W65479   0.397  42.561   3.696
97075W        W65480  29.001  36.014   4.693
97076W        W65481  34.600  14.672   0.452
97077W        W65482  13.328  33.068  12.854
97078W        W65483  36.277  28.407   4.559
97079W        W65484  28.636   4.160   4.559
97080W        W65485   7.171   0.322  12.534
97081W        W65486   7.584  44.359  10.274
97082W        W65487  25.147  26.178   4.336
97083W        W65488  41.026  15.780  11.663
97084W        W65489  31.222  29.073  12.380
97085W        W65490   8.607  26.080  14.160
97086W        W65491   5.983  29.111  11.962
97087W        W65492  37.602  11.410  11.180
97088W        W65493  44.332  31.420  13.811
97089W        W65494  27.122  12.328   4.880
97090W        W65495   5.859  34.038  14.804
97091W        W65496  37.087  42.892   0.860
97092W        W65497  43.295  29.878   3.934
97093W        W65498   1.096   4.869  13.377
97094W        W65499   9.398   4.388  12.011
97095W        W65500   8.927   2.220  11.970
97096W        W65501  20.186  40.379  10.777
97097W        W65502  12.792  41.106  11.610
97098W        W65503  17.050  11.837   3.018
97099W        W65504  27.780  32.482   1.984
97100W        W65505   0.069   0.732  11.511
97101W        W65506  26.478   7.821   0.904
97102W        W65507  37.488  18.523   0.228
97103W        W65508   3.332  31.586   0.816
97104W        W65509  37.839  18.634   2.346
97105W        W65510  26.788   7.877  13.429
97106W        W65511  30.978  33.416   2.671
97107W        W65512  39.435  40.540  14.379
97108W        W65513  14.578  35.663   3.189
97109W        W65514  30.606  19.833   3.388
97110W        W65515  16.451  25.119  11.972
97111W        W65516  31.958   2.106  10.391
97112W        W65517   5.854  13.609   4.247
97113W        W65518   5.919  37.078   2.726
97114W        W65519  28.040  31.035  13.503
97115W        W65520  18.841   2.711  11.691
97116W        W65521  25.058  16.355   4.878
97117W        W65522   8.270  21.045   0.950
97118W        W65523  34.348   8.081  11.313
97119W        W65524  40.941  12.347   4.703
97120W        W65525   5.961  32.001   0.074
97121W        W65526  19.140   8.230  11.268
97122W        W65527   9.027  31.888   5.329
97123W        W65528  23.871  36.386  11.414
97124W        W65529  44.946  43.775  12.645
97125W        W65530  14.306   3.403  14.913
97126W        W65531  18.355  37.441   3.836
97127W        W65532  43.254   8.599   2.337
97128W        W65533  42.494   3.477   1.304
97129W        W65534   2.699   1.482  11.034
97130W        W65535  12.082  17.212   4.599
97131W        W65536  26.806  36.503   3.275
97132W        W65537   2.258  41.829  12.473
97133W        W65538   5.954  20.681  13.297
97134W        W65539  20.028  18.089   0.620
97135W        W65540  11.545  27.484  11.172
97136W        W65541  20.534  43.980  13.058
97137W        W65542  23.389   9.428   4.401
97138W        W65543  15.665  27.968   0.373
97139W        W65544  11.840  39.393   2.725
97140W        W65545  42.841  43.520   2.440
97141W        W65546  24.521   5.647   1.201
97142W        W65547  32.407  11.787  11.693
97143W        W65548  20.070  23.070   2.682
97144W        W65549  28.939  13.668  11.482
97145W        W65550  27.585  32.385  11.816
97146W        W65551   1.092   5.902   9.972
97147W        W65552  14.145  17.636  12.862
97148W        W65553   4.853  13.884  10.444
97149W        W65554   4.631   4.363  11.942
97150W        W65555  29.200  31.672   2.957
97151W        W65556  10.807  43.126  12.936
97152W        W65557   8.628  27.695   2.736
97153W        W65558  26.161   4.296   3.395
97154W        W65559   3.627  36.153  12.973
97155W        W65560  10.691  32.939   1.428
97156W        W65561  26.543  12.816   1.879
97157W        W65562  23.717  12.230  10.766
97158W        W65563  18.810  13.287   3.870
97159W        W65564  24.920  26.405  14.838
97160W        W65565  18.624  42.930   4.607
97161W        W65566  36.318   3.890   4.685
97162W        W65567  42.942  32.059   0.413
97163W        W65568  36.975  39.385   0.247
97164W        W65569  33.963  34.334   2.724
97165W        W65570  26.055  37.979  10.968
97166W        W65571  29.430  12.629   3.583
97167W        W65572  15.541   9.079   1.921
97168W        W65573  25.125  19.047   1.781
97169W        W65574  20.275   7.237   4.582
97170W        W65575  10.103  38.307   1.414
97171W        W65576  16.179   3.999  14.256
97172W        W65577  13.344  41.771   0.709
97173W        W65578  29.661   6.226  14.858
97174W        W65579  22.679  27.696  12.376
97175W        W65580   7.799  17.780  14.430
97176W        W65581  17.049  18.805   4.677
97177W        W65582   7.881   0.111   2.790
97178W        W65583  26.900  12.564   1.592
97179W        W65584  36.148  27.364   3.717
97180W        W65585  22.734  15.141  12.870
97181W        W65586  37.330  29.349   5.007
97182W        W65587  13.099   3.609   1.023
97183W        W65588  32.090  19.463   4.565
97184W        W65589  21.048  22.205  14.745
97185W        W65590  21.372  18.655  13.433
97186W        W65591  42.167   8.846  10.682
97187W        W65592   0.406  40.842   4.379
97188W        W65593  22.737  19.279   2.875
97189W        W65594  13.466  28.000   4.634
97190W        W65595  44.767  11.211   1.427
97191W        W65596  43.823  15.732  11.111
97192W        W65597  29.125  34.027  11.198
97193W        W65598  21.847   1.379   2.598
97194W        W65599  20.753  14.799  14.611
97195W        W65600   2.789  19.793   0.750
97196W        W65601  42.757   2.526  13.960
97197W        W65602  27.644  19.540   1.881
97198W        W65603  11.312  39.818  11.166
97199W        W65604  20.226  35.642   4.874
97200W        W65605  21.664  34.467   1.904
97201W        W65606  15.808   5.888   0.867
97202W        W65607  26.784  27.512  10.692
97203W        W65608  22.578  10.785   4.362
97204W        W65609  26.133   3.418   3.969
97205W        W65610  14.647  29.757   0.876
97206W        W65611  17.160  27.464   0.719
97207W        W65612  32.380  19.730   3.663
97208W        W65613  36.782   7.203  11.115
97209W        W65614   9.528   0.362   2.892
97210W        W65615  44.001  23.252  12.328
97211W        W65616   7.496  11.723   0.753
97212W        W65617  42.411  41.468   2.214
97213W        W65618   3.522   5.288  13.857
97214W        W65619  34.665   1.328   2.851
97215W        W65620  23.227  35.484   3.317
97216W        W65621  16.470   5.855   5.546
97217W        W65622  19.966   4.386   3.756
97218W        W65623  31.551  23.290   4.123
97219W        W65624  24.652  19.388  12.223
97220W        W65625  19.323  29.932   4.165
97221W        W65626   1.423  29.459   4.218
97222W        W65627  28.984  12.714  14.827
97223W        W65628  34.815   2.338   1.727
97224W        W65629  30.534   7.724   0.475
97225W        W65630   7.598  33.816  12.405
97226W        W65631  31.106  19.116   0.507
97227W        W65632  25.552  44.453   2.925
97228W        W65633  18.467  11.630  13.514
97229W        W65634  30.244  34.606  10.695
97230W        W65635   4.442   6.064  11.489
97231W        W65636  36.485  28.518  14.971
97232W        W65637  33.552   1.763   0.286
97233W        W65638  11.487   2.116  12.486
97234W        W65639  39.016   5.470   5.132
97235W        W65640  18.377  23.678   3.642
97236W        W65641  10.383  42.342   1.699
97237W        W65642   6.411  25.483  14.925
97238W        W65643  37.561  25.936   3.119
97239W        W65644  10.742  32.902   3.161
97240W        W65645  37.430  29.424  13.761
97241W        W65646  25.517   5.489  13.841
97242W        W65647  40.859  21.414   1.045
97243W        W65648  11.629  19.486   0.943
97244W        W65649   6.119  44.377  13.716
97245W        W65650  25.937  43.858  14.996
97246W        W65651  33.154  39.780   3.420
97247W        W65652  40.876  35.273  12.321
97248W        W65653  41.897  15.156   2.694
97249W        W65654  30.395  19.839   2.508
97250W        W65655  25.990  28.119   0.044
97251W        W65656   4.346  40.021  10.496
97252W        W65657  37.493  33.328  12.981
97253W        W65658  44.416   5.277   4.499
97254W        W65659   0.435  40.529  12.937
97255W        W65660  35.553  35.570  14.685
97256W        W65661  35.941   3.887  10.582
97257W        W65662  44.325  35.564   0.341
97258W        W65663  19.793  21.389   2.871
97259W        W65664  28.999  44.556   4.160
97260W        W65665  24.796  37.419   5.124
97261W        W65666  16.648   9.661   4.234
97262W        W65667  30.725   0.770   0.423
97263W        W65668   1.699  41.567  14.120
97264W        W65669  43.295  19.668  14.775
97265W        W65670  10.227   3.224   3.315
97266W        W65671  19.326  24.426   4.141
97267W        W65672   5.233   7.665   0.755
97268W        W65673  16.728  35.326  11.432
97269W        W65674  11.877  36.104   4.304
97270W        W65675  23.754  31.716  14.764
97271W        W65676  28.026  34.635   4.000
97272W        W65677   3.662  10.661   0.809
97273W        W65678  36.401   0.640  12.298
97274W        W65679  16.553  36.628   4.539
97275W        W65680  18.161  39.958  11.097
97276W        W65681  37.357  12.849  14.786
97277W        W65682   1.438   7.244  14.960
97278W        W65683  27.778  30.333   0.010
97279W        W65684  14.166  18.071   3.825
97280W        W65685  34.775  27.015   2.091
97281W        W65686  38.041  19.261  12.857
97282W        W65687  18.471  30.070   4.584
97283W        W65688   8.842  22.255  10.726
97284W        W65689  13.213  12.314   1.730
97285W        W65690   2.804  27.562  13.882
97286W        W65691  34.780  41.348   4.206
97287W        W65692   2.761  44.268  11.201
97288W        W65693  25.861  11.224   4.268
97289W        W65694  15.011  44.484  12.062
97290W        W65695  42.859  30.877   2.726
97291W        W65696  43.000  13.538  11.091
97292W        W65697   6.427   2.320  12.502
97293W        W65698  16.523   9.153   4.123
97294W        W65699  31.997  37.820   4.637
97295W        W65700  33.434   8.902   1.017
97296W        W65701  28.096  10.271  13.025
97297W        W65702  27.336   8.687  12.881
97298W        W65703  17.068  24.526   2.447
97299W        W65704  21.271  30.550  13.916
97300W        W65705   0.013  39.493   3.629
97301W        W65706  44.548   4.744  13.008
97302W        W65707  15.237  10.348   0.205
97303W        W65708  42.268  10.084   0.520
97304W        W65709  19.988  12.864   4.280
97305W        W65710  39.548  32.754   1.295
97306W        W65711  28.461  39.271   5.128
97307W        W65712  33.046  42.882  13.274
97308W        W65713  21.553  29.946   3.166
97309W        W65714  19.038  30.967  10.833
97310W        W65715  23.915  21.061   1.657
97311W        W65716  23.679  11.259  12.913
97312W        W65717  11.905  21.114  11.210
97313W        W65718   2.662  12.114  12.786
97314W        W65719  24.814   0.943   0.147
97315W        W65720   2.703  32.525   2.408
97316W        W65721  11.504   3.487  11.714
97317W        W65722  21.897  27.249   3.685
97318W        W65723   6.955  25.940  11.700
97319W        W65724  21.590  20.751   0.355
97320W        W65725  30.870   9.457   2.295
97321W        W65726  16.422  28.141   3.422
97322W        W65727  39.369  27.977   0.940
97323W        W65728  36.930  19.209  12.960
97324W        W65729   6.886  44.790  13.535
97325W        W65730   6.664  27.690   4.451
97326W        W65731  23.006   7.160  12.667
97327W        W65732  10.645  18.635   3.772
97328W        W65733   4.438  37.403  13.989
97329W        W65734  34.416  11.172   3.505
97330W        W65735  41.009  17.129   2.194
97331W        W65736  21.733  25.086  11.232
97332W        W65737  23.456  44.947  13.059
97333W        W65738   8.600  28.102   0.847
97334W        W65739  40.473  44.731  11.324
97335W        W65740   6.130  35.405  11.649
97336W        W65741  36.942   2.767   3.748
97337W        W65742  23.271  17.769   3.887
97338W        W65743  32.694   7.022  12.334
97339W        W65744   6.345   8.586   4.329
97340W        W65745  25.048  36.371   4.611
97341W        W65746  19.260   9.670   2.250
97342W        W65747  10.407  35.585   4.539
97343W        W65748   2.858   2.828   3.579
97344W        W65749  26.880  10.154   1.808
97345W        W65750   3.796  29.085  13.707
97346W        W65751  42.197  14.074   0.927
97347W        W65752  13.249   3.256  13.136
97348W        W65753   6.367  24.918   4.662
97349W        W65754  38.778  20.365   1.318
97350W        W65755  42.579  41.896   0.920
97351W        W65756   1.364  27.762  13.915
97352W        W65757  26.610  29.980  13.340
97353W        W65758  15.589  21.752  14.839
97354W        W65759  28.096  13.709   3.440
97355W        W65760  28.045  37.469  10.544
97356W        W65761  19.237  10.420   1.663
97357W        W65762  33.957  10.614  12.674
97358W        W65763  35.192   3.266  12.427
97359W        W65764  26.236   2.198   2.127
97360W        W65765  31.564  22.869   4.422
97361W        W65766   3.709  20.218   3.722
97362W        W65767  16.015  28.066  12.050
97363W        W65768  10.169   5.656   4.179
97364W        W65769  31.376  40.642   0.880
97365W        W65770   7.780  41.866  11.178
97366W        W65771  39.392  12.875   3.429
97367W        W65772   0.843  20.653  14.733
97368W        W65773  30.491  29.563  10.679
97369W        W65774   8.706   2.018   1.193
97370W        W65775   0.858  22.883   4.447
97371W        W65776  36.810   9.224   1.623
97372W        W65777   7.837  15.764   4.892
97373W        W65778  27.651  37.924   1.325
97374W        W65779  34.553  41.168  11.431
97375W        W65780  10.258  11.709   4.643
97376W        W65781  12.754  36.446  12.053
97377W        W65782   9.749  20.043   2.216
97378W        W65783  27.774  34.011  12.536
97379W        W65784  17.823  13.536   0.940
97380W        W65785  43.548  38.963   1.391
97381W        W65786  35.399  39.514   3.641
97382W        W65787  35.021  32.132   2.328
97383W        W65788   3.469  43.358   4.341
97384W        W65789  23.186   3.132  11.077
97385W        W65790  26.049  15.501  11.500
97386W        W65791   5.010  42.477  12.539
97387W        W65792  35.056   3.451   0.566
97388W        W65793  32.314  33.317   1.030
97389W        W65794  43.692  18.874  13.878
97390W        W65795   5.681  43.312  12.623
97391W        W65796  27.710  22.737  10.754
97392W        W65797  43.924   6.870  12.137
97393W        W65798  41.297  34.979   1.770
97394W        W65799   9.656  37.117   0.082
97395W        W65800   7.932  16.642   2.616
97396W        W65801   8.695  40.578  14.398
97397W        W65802  40.341  43.989   3.153
97398W        W65803   0.232   4.199   3.708
97399W        W65804  11.597  41.201   2.173
97400W        W65805  17.351  30.617  10.925
97401W        W65806   3.889  31.853  14.236
97402W        W65807  26.875  26.216   2.369
97403W        W65808   7.626  10.335  13.910
97404W        W65809  22.608  38.987  12.121
97405W        W65810   3.015  20.976   3.109
97406W        W65811  29.920   2.305   4.937
97407W        W65812  35.515   0.012  11.571
97408W        W65813  26.164  29.800  10.681
97409W        W65814  15.936  25.156   3.777
97410W        W65815  42.879   0.691  11.576
97411W        W65816  33.041  39.675   0.900
97412W        W65817   1.621  28.540  10.700
97413W        W65818  44.980  42.215  13.906
97414W        W65819  38.356  12.262   3.092
97415W        W65820   7.443   7.765  14.569
97416W        W65821  15.738  29.094  10.161
97417W        W65822  40.487  23.468  10.774
97418W        W65823  22.438  22.008   2.826
97419W        W65824  32.571  21.101  14.277
97420W        W65825  20.608   7.240  11.701
97421W        W65826  16.949  39.920   4.399
97422W        W65827  31.408  31.581  13.266
97423W        W65828  31.842   4.208   0.868
97424W        W65829  11.218  42.879   4.001
97425W        W65830  40.668  42.646  14.299
97426W        W65831  42.516  11.151   4.239
97427W        W65832  39.111  42.240  12.646
97428W        W65833  30.692  35.420   1.895
97429W        W65834  24.544  26.048  10.799
97430W        W65835   3.800  40.485   0.304
97431W        W65836  23.484   6.404   4.073
97432W        W65837  12.653  12.751  13.801
97433W        W65838   0.775  15.599   0.893
97434W        W65839  23.792  25.670   0.776
97435W        W65840   1.987  44.382   9.982
97436W        W65841   3.749  20.319  11.968
97437W        W65842  43.291   6.377  14.990
97438W        W65843  27.004  37.354   1.599
97439W        W65844  31.219  23.491  14.228
97440W        W65845  41.490  17.363  14.906
97441W        W65846  26.414  14.713  13.355
97442W        W65847  24.943  40.832   2.890
97443W        W65848   5.936  28.004  11.229
97444W        W65849  14.723  36.929   4.115
97445W        W65850  31.862  14.338  12.983
97446W        W65851  25.266  43.861   1.208
97447W        W65852  18.514   7.884   2.410
97448W        W65853  17.540  21.691   1.412
97449W        W65854  33.563  11.196  11.551
97450W        W65855  24.382  42.268  14.465
97451W        W65856   7.651  30.421   0.969
97452W        W65857  13.890   3.278   1.129
97453W        W65858  19.428  31.221   3.596
97454W        W65859  22.998   7.188   1.363
97455W        W65860  39.799  17.963   2.826
97456W        W65861  19.102  32.030   5.001
97457W        W65862  40.275  22.983  10.766
97458W        W65863   5.336   3.418  12.435
97459W        W65864  10.369  16.057  12.394
97460W        W65865  41.991  29.490  10.811
97461W        W65866  29.421  23.443  12.454
97462W        W65867   8.968  36.130   1.844
97463W        W65868  30.589  16.327   4.635
97464W        W65869   4.496  43.897   1.278
97465W        W65870  21.166  35.088   2.007
97466W        W65871  32.343  29.900   1.411
97467W        W65872  13.297  40.281  10.729
97468W        W65873  13.841  36.985  11.485
97469W        W65874  14.482   8.563   3.759
97470W        W65875  43.438  12.294  11.229
97471W        W65876  10.191   6.332  11.442
97472W        W65877  33.717   5.820   4.176
97473W        W65878  20.893  35.134   0.848
97474W        W65879  33.008   3.007  11.589
97475W        W65880   9.340  11.240   3.797
97476W        W65881  44.417   7.736   1.421
97477W        W65882   8.907  39.750  10.521
97478W        W65883  32.605   4.430  10.592
97479W        W65884  20.348  26.963  10.456
97480W        W65885  28.687  22.474  10.956
97481W        W65886   0.296  27.898   2.667
97482W        W65887  10.620  21.313   2.818
97483W        W65888   7.361  29.217  11.021
97484W        W65889   8.247  31.545  11.927
97485W        W65890  35.883  37.366  12.861
97486W        W65891  17.592  20.302   1.746
97487W        W65892  35.066  41.787   4.475
97488W        W65893  15.049  15.745   1.979
97489W        W65894   2.846   5.008  13.528
97490W        W65895  29.949   5.116  13.407
97491W        W65896  16.570  21.119   3.578
97492W        W65897  35.520  39.002   1.828
97493W        W65898  20.202   1.803   3.997
97494W        W65899  10.297   9.554  11.592
97495W        W65900   9.326  31.637  10.735
97496W        W65901  11.200  11.546   2.279
97497W        W65902  35.297  37.398   0.140
97498W        W65903  34.879  10.577  14.754
97499W        W65904   0.479   4.958  12.958
97500W        W65905   9.878   5.156  14.358
97501W        W65906  44.499  19.466   0.958
97502W        W65907  30.907   8.752  12.535
97503W        W65908  24.995  44.508  12.604
97504W        W65909  13.636   8.650  13.567
97505W        W65910   1.770  21.989  11.185
97506W        W65911  20.392  21.368   5.043
97507W        W65912   2.558  11.115  12.079
97508W        W65913   0.717  15.742   4.003
97509W        W65914  41.309  27.479   0.783
97510W        W65915  29.826  16.714   1.255
97511W        W65916  28.023   6.983   0.736
97512W        W65917  31.629  16.221   1.673
97513W        W65918  28.505   6.301  11.610
97514W        W65919  11.017  19.613   1.730
97515W        W65920  20.119  19.135   2.997
97516W        W65921  13.758  13.803   0.805
97517W        W65922  20.927  36.788   1.886
97518W        W65923  38.525  25.618  11.622
97519W        W65924  24.396  41.879  14.921
97520W        W65925  36.396  32.069   2.417
97521W        W65926  27.390  13.301   0.840
97522W        W65927   5.433  29.384   3.422
97523W        W65928   3.157  21.405  13.545
97524W        W65929  39.968  37.651   1.256
97525W        W65930  10.785  11.062  11.959
97526W        W65931   1.826  22.010  12.854
97527W        W65932  23.739  31.213  13.984
97528W        W65933  16.291   6.862  14.645
97529W        W65934  22.287  20.207  13.517
97530W        W65935  44.876  32.953   4.589
97531W        W65936  24.745   2.464  11.216
97532W        W65937  15.313  33.682  11.858
97533W        W65938  10.727  33.446   2.721
97534W        W65939  41.529  15.709  10.718
97535W        W65940  11.048  25.521  10.607
97536W        W65941  36.047  34.887  11.512
97537W        W65942  35.827   8.460   1.935
97538W        W65943  29.821  14.645  13.130
97539W        W65944  21.459  24.244   1.314
97540W        W65945  43.737  36.394   3.880
97541W        W65946  37.473  24.241  13.949
97542W        W65947  12.614  37.446   1.700
97543W        W65948  20.800  25.786   4.589
97544W        W65949  39.150  19.827  11.461
97545W        W65950  24.704  12.797  11.579
97546W        W65951  44.992  25.889  10.734
97547W        W65952  11.834  15.030  14.844
97548W        W65953   1.881  12.388  14.500
97549W        W65954  24.995   7.357  14.972
97550W        W65955  20.978   7.880   3.272
97551W        W65956  26.535   0.813  12.580
97552W        W65957  22.026  12.887   4.080
97553W        W65958   4.639  24.002  11.092
97554W        W65959  31.588  35.384   4.529
97555W        W65960  15.926  33.277  10.641
97556W        W65961  28.915  35.328  12.436
97557W        W65962  38.972   8.121  13.835
97558W        W65963  19.367  11.149   5.354
97559W        W65964  37.962  18.044  11.497
97560W        W65965  39.020  19.518   1.318
97561W        W65966   6.838  40.767   3.960
97562W        W65967   0.915   8.848   2.861
97563W        W65968   4.391  10.277  12.991
97564W        W65969  29.675  42.420  12.914
97565W        W65970  16.217  43.813   0.501
97566W        W65971  24.045  36.968   2.247
97567W        W65972   5.889  26.095   1.888
97568W        W65973  34.444  23.574  14.082
97569W        W65974  11.623  31.566   1.754
97570W        W65975  24.248  27.466   2.169
97571W        W65976   8.331  44.361  14.318
97572W        W65977  19.548  12.311   0.860
97573W        W65978   5.861   4.349   3.469
97574W        W65979  10.333  19.001   1.737
97575W        W65980  41.560  41.674  14.199
97576W        W65981  13.568  20.323  11.068
97577W        W65982  42.970  42.455  12.878
97578W        W65983   8.793  42.385   2.281
97579W        W65984  20.961  24.435   3.117
97580W        W65985  29.380  28.578   0.826
97581W        W65986  27.692  15.110   1.224
97582W        W65987  36.211  29.261  12.502
97583W        W65988   2.491  36.867   3.143
97584W        W65989  31.347  10.450   0.958
97585W        W65990   2.832  36.721   1.860
97586W        W65991  30.045  37.798  11.087
97587W        W65992  40.161  13.962  13.381
97588W        W65993  26.478   6.118  14.024
97589W        W65994  34.952  38.462   1.488
97590W        W65995  28.642  22.193   1.704
97591W        W65996   1.960  20.554  11.102
97592W        W65997   3.778  29.810  12.067
97593W        W65998   7.350   7.670   4.198
97594W        W65999  10.927  27.359   4.294
97595W        W66000  11.878  20.748  13.446
97596W        W66001   2.293  27.228   2.269
97597W        W66002  26.453   6.131   1.694
97598W        W66003   9.181  11.915   1.839
97599W        W66004  13.045  25.468  11.968
97600W        W66005  36.140  37.126  11.942
97601W        W66006  21.941   1.760  14.251
97602W        W66007   2.444  22.450  13.884
97603W        W66008   6.215  40.786   2.803
97604W        W66009  12.735  30.856  13.916
97605W        W66010  31.661  24.894  13.367
97606W        W66011  11.732  42.988   0.873
97607W        W66012  29.167  27.510  13.615
97608W        W66013  44.179  43.636   4.229
97609W        W66014  38.109  10.862   3.719
97610W        W66015  24.744  40.942  14.811
97611W        W66016   8.235  21.753   0.470
97612W        W66017  25.543   4.835  13.099
97613W        W66018  26.400   6.851  10.832
97614W        W66019  38.362   8.567   4.793
97615W        W66020  30.844  25.957  14.104
97616W        W66021  15.739  21.211  14.332
97617W        W66022  38.328  29.443  10.468
97618W        W66023  28.965  15.418  12.062
97619W        W66024  12.246  41.826   4.486
97620W        W66025  30.130  33.504   2.182
97621W        W66026  16.523  29.667   0.729
97622W        W66027   6.690   0.749   3.209
97623W        W66028   3.412   9.750   0.404
97624W        W66029  33.848   5.405  12.486
97625W        W66030  19.328  17.405  11.528
97626W        W66031   9.440  20.080  12.863
97627W        W66032  22.497   8.247   0.704
97628W        W66033  11.637  30.650   1.501
97629W        W66034  43.295  23.553  12.153
97630W        W66035   8.310  37.419  13.119
97631W        W66036  42.940  19.956  10.888
97632W        W66037  38.624   1.738  14.823
97633W        W66038  12.244  13.392  11.681
97634W        W66039  12.611  11.300   3.700
97635W        W66040   0.861  28.020  12.872
97636W        W66041  11.229  32.109   2.374
97637W        W66042  25.657  44.089   3.294
97638W        W66043  28.602  31.132  13.964
97639W        W66044  22.902  22.977  11.180
97640W        W66045  21.276  18.005  10.951
97641W        W66046  10.644   6.820   3.805
97642W        W66047   6.602   1.317   4.563
97643W        W66048   3.789  26.976   4.786
97644W        W66049  34.936  24.803  11.225
97645W        W66050  34.539   9.315   3.195
97646W        W66051  18.555  28.667   3.649
97647W        W66052  19.846  20.215  13.605
97648W        W66053   2.547   3.661   4.025
97649W        W66054  42.144  38.591   2.228
97650W        W66055  38.438  13.722  10.722
97651W        W66056  34.603   1.913  14.021
97652W        W66057  10.323  25.250   0.726
97653W        W66058  22.661  12.095  14.904
97654W        W66059  42.250   4.711  13.318
97655W        W66060  37.218  27.717  12.118
97656W        W66061  40.975  16.784  10.674
97657W        W66062  40.245  44.527  12.591
97658W        W66063  41.821   3.981  12.299
97659W        W66064  36.428  38.568   4.262
97660W        W66065  23.262  29.554  14.441
97661W        W66066   1.250   1.681  13.315
97662W        W66067  43.503  23.684   1.293
97663W        W66068  11.368   2.933   2.810
97664W        W66069  42.772  17.350   2.423
97665W        W66070  35.537  32.639   4.592
97666W        W66071   6.284  15.660   9.972
97667W        W66072  36.051   7.400  11.620
97668W        W66073  22.073  16.163  11.516
97669W        W66074   3.275  16.093   1.652
97670W        W66075   8.351  38.539   4.382
97671W        W66076  28.511   6.455   0.079
97672W        W66077  34.377  42.398  11.224
97673W        W66078  35.815  32.638   4.146
97674W        W66079  34.569  33.365  12.017
97675W        W66080   7.709  10.326   4.203
97676W        W66081  16.606  38.927   0.965
97677W        W66082  37.304  22.314   4.020
97678W        W66083   1.903  35.381  11.361
97679W        W66084   2.407  37.660   1.047
97680W        W66085   3.725  15.708  14.079
97681W        W66086  40.738  32.650   0.515
97682W        W66087  28.854   2.412   4.052
97683W        W66088   5.307  16.741  11.529
97684W        W66089  11.185  29.283  14.530
97685W        W66090  23.232  16.103  14.309
97686W        W66091   5.202  31.866  14.724
97687W        W66092  10.337  32.878  12.393
97688W        W66093   4.938  31.434   4.828
97689W        W66094  18.152  12.660  14.706
97690W        W66095   4.479   5.968  10.642
97691W        W66096  10.450  43.279  14.961
97692W        W66097  43.438  29.079   0.938
97693W        W66098  29.398  22.499  10.359
97694W        W66099   2.465  12.526  10.044
97695W        W66100  29.987   4.514   4.119
97696W        W66101   0.218   0.310   1.890
97697W        W66102  31.077  36.554   4.366
97698W        W66103  30.643  29.219   1.889
97699W        W66104  13.826  25.736  14.045
97700W        W66105  17.907  22.677   4.325
97701W        W66106  35.975   1.647  12.411
97702W        W66107  21.750  12.036  13.600
97703W        W66108  41.817  37.903   4.332
97704W        W66109  24.806  23.475  11.028
97705W        W66110  40.537  20.214   0.923
97706W        W66111  29.405  27.385   2.952
97707W        W66112  43.511  18.629   1.411
97708W        W66113   9.098  26.687  13.981
97709W        W66114  22.574  22.555   1.127
97710W        W66115  41.987  42.958  11.437
97711W        W66116  16.613   1.411  10.608
97712W        W66117   5.234  41.472   3.303
97713W        W66118   5.587  19.147   0.956
97714W        W66119  27.897  41.079  14.191
97715W        W66120  14.253  21.537  13.031
97716W        W66121  35.168  16.164   2.398
97717W        W66122   8.827  14.610  10.962
97718W        W66123  20.084  33.855   4.261
97719W        W66124  29.864  35.793  13.879
97720W        W66125   1.567  27.467   1.744
97721W        W66126  20.644  42.240   2.335
97722W        W66127  29.100  19.714  14.918
97723W        W66128  16.394  16.028  14.904
97724W        W66129  34.329  29.142   1.238
97725W        W66130  13.383  11.804   3.705
97726W        W66131  41.325   6.252   4.292
97727W        W66132  35.154  24.660  12.098
97728W        W66133   6.591  22.614  11.026
97729W        W66134  25.959  38.361  13.912
97730W        W66135  20.485  36.865   2.148
97731W        W66136  15.219  14.835  11.348
97732W        W66137  40.303  24.664   2.766
97733W        W66138  34.569  29.512  13.001
97734W        W66139  20.347  11.819   1.792
97735W        W66140  40.429  33.677  11.886
97736W        W66141  17.599   6.897  10.671
97737W        W66142  21.593  18.696  13.936
97738W        W66143  29.101  11.082  12.226
97739W        W66144  10.310  32.690   0.033
97740W        W66145  32.349  22.642  10.245
97741W        W66146  25.398  37.506   3.847
97742W        W66147  42.398   4.960  12.866
97743W        W66148  44.551  25.953   1.228
97744W        W66149   2.090  21.529   1.957
97745W        W66150   6.514  31.586   4.187
97746W        W66151   5.509   6.315  10.043
97747W        W66152  37.839  17.229  11.136
97748W        W66153  16.058  35.948  10.661
97749W        W66154  28.582  18.740  10.792
97750W        W66155  12.455  11.730   3.421
97751W        W66156  22.507  18.753   0.259
97752W        W66157  19.545   3.237   1.790
97753W        W66158  34.107  34.136  12.716
97754W        W66159  10.154  13.280  14.489
97755W        W66160   1.749  19.697  10.909
97756W        W66161  39.532  30.884  13.926
97757W        W66162  16.545  25.607  10.703
97758W        W66163  18.324  27.476  12.388
97759W        W66164  17.498  29.013   0.474
97760W        W66165   5.293  20.984  12.027
97761W        W66166  17.045  17.599  14.339
97762W        W66167  38.291  43.846  13.936
97763W        W66168   2.543  12.325   1.964
97764W        W66169  11.197  37.979  14.785
97765W        W66170  36.434  14.635   1.389
97766W        W66171  34.133  14.720   2.872
97767W        W66172   7.674   9.143  13.462
97768W        W66173  12.248  41.314   3.891
97769W        W66174  16.635  34.540   3.746
97770W        W66175  32.625  43.499  11.175
97771W        W66176  20.752  14.759  13.581
97772W        W66177  35.028   3.695  12.146
97773W        W66178  25.350   6.118  12.959
97774W        W66179  37.768   0.290   1.372
97775W        W66180  31.733  15.815   2.931
97776W        W66181   7.714  18.952   3.664
97777W        W66182  37.931   3.332   1.740
97778W        W66183  14.248   1.242  13.810
97779W        W66184  40.270   5.745   0.915
97780W        W66185  31.368   0.253   0.487
97781W        W66186  44.332  39.464   1.784
97782W        W66187  40.011   2.487   0.936
97783W        W66188  29.189   6.932  11.970
97784W        W66189  14.971  15.298  12.191
97785W        W66190   8.456  16.677  12.484
97786W        W66191  34.336   8.868  10.770
97787W        W66192  18.109  10.224   3.271
97788W        W66193  18.423   5.343  14.823
97789W        W66194   1.795  40.804   2.911
97790W        W66195  32.369  11.197  14.514
97791W        W66196  27.907  14.835  10.713
97792W        W66197  29.675  23.565  12.007
97793W        W66198  29.422  32.113   5.061
97794W        W66199  27.909  10.836   2.682
97795W        W66200  22.168  28.486  14.374
97796W        W66201  20.296  28.796   4.074
97797W        W66202  42.468  28.839  11.102
97798W        W66203   6.315   5.973   1.843
97799W        W66204  33.958   1.329   2.298
97800W        W66205  39.821  24.678   4.382
97801W        W66206  20.765  36.026  12.987
97802W        W66207  19.756  12.540   2.661
97803W        W66208  32.126   9.768  11.856
97804W        W66209  42.521   1.011  13.174
97805W        W66210   1.225  41.217   1.320
97806W        W66211  14.147   5.743  11.143
97807W        W66212  29.481  25.525  11.006
97808W        W66213  13.692  15.205  11.148
97809W        W66214  37.641   1.266  14.289
97810W        W66215  14.913   2.256  10.289
97811W        W66216  37.596  19.989  14.579
97812W        W66217  28.846  30.406  11.568
97813W        W66218   4.840  26.869   0.420
97814W        W66219  16.059  21.079  10.672
97815W        W66220   3.519  43.659   2.240
97816W        W66221  41.828  33.911   4.124
97817W        W66222  37.860  22.649   1.115
97818W        W66223  35.975  13.476   1.882
97819W        W66224  10.419  16.475  11.583
97820W        W66225  42.197  41.558   2.715
97821W        W66226  23.963  36.114  12.657
97822W        W66227  44.224  17.991   5.129
97823W        W66228  32.108  24.532   2.417
97824W        W66229   4.636   8.328  13.094
97825W        W66230   1.374   7.788   3.550
97826W        W66231  31.181   9.140  12.714
97827W        W66232  35.351  26.226  13.544
97828W        W66233  30.732  31.709   4.588
97829W        W66234  12.926  23.748  11.048
97830W        W66235  14.494  39.531  14.496
97831W        W66236   9.849  34.806   2.831
97832W        W66237  39.582   4.651  12.454
97833W        W66238  35.993   9.782   1.008
97834W        W66239   5.873  18.185  10.482
97835W        W66240   0.729  24.056  12.030
97836W        W66241   4.631   0.722  13.956
97837W        W66242  39.459  15.644   2.233
97838W        W66243  28.499  32.958  11.406
97839W        W66244  38.767  12.401  12.500
97840W        W66245  30.615  11.302   0.263
97841W        W66246  16.064  30.970   3.749
97842W        W66247  41.267   4.915  14.585
97843W        W66248  38.483  41.042   0.801
97844W        W66249  30.612  11.662  11.565
97845W        W66250  19.569  20.680  12.396
97846W        W66251   2.450  32.773  12.254
97847W        W66252  34.422  39.990   2.907
97848W        W66253   8.458  14.345   2.985
97849W        W66254  15.509  27.955  12.044
97850W        W66255  23.212  12.768  13.579
97851W        W66256   3.408  21.817  14.384
97852W        W66257  35.843  38.332  14.017
97853W        W66258  40.804  11.183  12.838
97854W        W66259   6.599  29.417   5.365
97855W        W66260  29.218  15.652  13.786
97856W        W66261   0.218  44.531   0.370
97857W        W66262  25.166  37.575  13.198
97858W        W66263  19.243  20.110   4.140
97859W        W66264   3.904  34.351   3.887
97860W        W66265  32.079  15.778  13.045
97861W        W66266  30.577  43.054   1.281
97862W        W66267   2.444  20.654   4.907
97863W        W66268  39.445   5.967   0.932
97864W        W66269   2.784  19.027   4.840
97865W        W66270   0.399  33.009   4.564
97866W        W66271  25.654  29.171   5.039
97867W        W66272  12.189  43.548  10.786
97868W        W66273  25.048  13.207   2.160
97869W        W66274  26.470   1.749  14.984
97870W        W66275   2.984   1.407  10.569
97871W        W66276  17.782  33.234   3.253
97872W        W66277  10.277   0.414  10.081
97873W        W66278  31.460  28.363  14.029
97874W        W66279  34.815  15.764   4.875
97875W        W66280  43.839  34.266  13.767
97876W        W66281  10.749  10.578   2.804
97877W        W66282  32.215  37.061   3.209
97878W        W66283   3.241  36.824   4.409
97879W        W66284  24.696  38.347  13.387
97880W        W66285   8.168  28.403  11.129
97881W        W66286   0.977  18.140   1.302
97882W        W66287  25.319  26.174   1.159
97883W        W66288  42.554  27.723   1.363
97884W        W66289  32.808   9.733   1.466
97885W        W66290  19.693  16.311   4.905
97886W        W66291  10.453  26.722   0.782
97887W        W66292   4.321  38.167   1.556
97888W        W66293   6.222  19.564  11.230
97889W        W66294   8.822   2.518  13.037
97890W        W66295  29.918   8.998  13.837
97891W        W66296  23.503  15.177  10.604
97892W        W66297  16.224  18.597  11.057
97893W        W66298   9.843  16.525   0.363
97894W        W66299  32.131   7.187   3.789
97895W        W66300  41.695  34.009  11.929
97896W        W66301  32.564   9.005   4.142
97897W        W66302  42.900  42.433   4.552
97898W        W66303  44.267  23.141   2.257
97899W        W66304  35.881   9.501   1.748
97900W        W66305   8.178  10.098  11.616
97901W        W66306   9.780  20.213   1.723
97902W        W66307  26.195  39.081  13.163
97903W        W66308  21.867   4.785   3.246
97904W        W66309  18.507  36.058  10.687
97905W        W66310  42.231   0.195  13.227
97906W        W66311  18.407   3.972  13.858
97907W        W66312  19.618  14.921   4.592
97908W        W66313   2.471  23.283  13.379
97909W        W66314  11.350   1.459  11.460
97910W        W66315   0.476  12.537   2.284
97911W        W66316  43.896  17.799   4.774
97912W        W66317  22.970   9.783  14.795
97913W        W66318   1.804  17.255  12.904
97914W        W66319  14.092   1.705  13.098
97915W        W66320   4.412  26.721  13.443
97916W        W66321  28.999  12.733   2.242
97917W        W66322  41.956  37.861   1.242
97918W        W66323  20.255  33.900  12.505
97919W        W66324  12.258  14.660  12.930
97920W        W66325  38.531   4.179  11.277
97921W        W66326   8.230   9.153   1.358
97922W        W66327  36.276  35.834   3.197
97923W        W66328   7.186   3.909   4.856
97924W        W66329  27.376  23.700  12.453
97925W        W66330  12.182   5.430  11.571
97926W        W66331  37.851   9.293   1.276
97927W        W66332  44.559  33.501  13.071
97928W        W66333  32.986  11.159   2.256
97929W        W66334  34.575  23.657  14.611
97930W        W66335   3.186  33.548  13.507
97931W        W66336  40.401   9.398   4.132
97932W        W66337  22.636  27.317   4.173
97933W        W66338   2.154  24.263   1.437
97934W        W66339   5.369  41.735   2.231
97935W        W66340   3.291   1.719  14.877
97936W        W66341   1.882  16.276   0.263
97937W        W66342  34.535  43.924   0.408
97938W        W66343  17.447  29.851   4.688
97939W        W66344  21.567  18.878  12.558
97940W        W66345  13.323  34.803   4.230
97941W        W66346  41.344  33.391   1.637
97942W        W66347  10.912  26.503  10.047
97943W        W66348  14.382  23.023   0.431
97944W        W66349  15.699  10.194  13.854
97945W        W66350  10.271  37.937   3.132
97946W        W66351   8.716  14.649   0.060
97947W        W66352  34.103  28.078  13.394
97948W        W66353  28.150  24.167  13.983
97949W        W66354   8.777   3.227   1.966
97950W        W66355  15.058  42.930   0.910
97951W        W66356  24.335  35.528  10.528
97952W        W66357  17.762  42.818  11.564
97953W        W66358  37.889  16.690   2.168
97954W        W66359  13.558  39.266  12.042
97955W        W66360  41.008  11.703  11.419
97956W        W66361  18.875   4.697  11.351
97957W        W66362   4.805   9.014   3.567
97958W        W66363  18.717  36.470  13.815
97959W        W66364  14.307   0.417   4.292
97960W        W66365   6.725  31.108   3.505
97961W        W66366  11.828   1.852  11.288
97962W        W66367   4.859  21.841  14.953
97963W        W66368  21.290  39.887  11.280
97964W        W66369   5.829  11.109   3.080
97965W        W66370  17.201  16.172  10.735
97966W        W66371  32.710  44.773  13.989
97967W        W66372   1.574  38.504   2.231
97968W        W66373  23.017   5.299   3.820
97969W        W66374  44.036  34.082   4.888
97970W        W66375  30.396  42.424   4.670
97971W        W66376  39.815  39.767   4.031
97972W        W66377  26.984  41.763   3.154
97973W        W66378  41.738  32.125  12.546
97974W        W66379   1.312  12.068  13.408
97975W        W66380  33.800  12.585   4.841
97976W        W66381  14.751   7.871  14.652
97977W        W66382  24.138  25.725  12.408
97978W        W66383  19.519   9.281  13.685
97979W        W66384   9.816   8.603  13.358
97980W        W66385  40.251   5.721  10.612
97981W        W66386  39.396   4.198   0.093
97982W        W66387  22.540  35.504   4.547
97983W        W66388  44.519  34.945  12.558
97984W        W66389  31.961  17.573   1.688
97985W        W66390  10.178  43.713  12.106
97986W        W66391   8.113  39.423   4.097
97987W        W66392  17.651  37.609   3.192
97988W        W66393   0.341  32.548  11.712
97989W        W66394  28.667  24.038   3.275
97990W        W66395  15.232   9.216   0.755
97991W        W66396  37.474   3.739  13.578
97992W        W66397  14.026  42.075   4.234
97993W        W66398  44.283  12.359  14.845
97994W        W66399  28.989  35.654   2.869
97995W        W66400  43.167  43.684   0.563
97996W        W66401   8.926   4.793   4.097
97997W        W66402  43.246  30.936   3.410
97998W        W66403   0.385  22.641   3.415
97999W        W66404  26.173  36.405   2.463
98000W        W66405  26.313  26.532  10.781
98001W        W66406  22.948  12.214   2.004
98002W        W66407  35.476  30.375   1.307
98003W        W66408  18.830  20.932   5.537
98004W        W66409  29.999   6.325   3.655
98005W        W66410  24.170   9.823   1.875
98006W        W66411   4.741  26.587   3.555
98007W        W66412  38.092  29.407  12.563
98008W        W66413  24.117  25.711   3.466
98009W        W66414  29.230  41.475   3.756
98010W        W66415  36.981  18.606  13.768
98011W        W66416  32.818  30.973   4.200
98012W        W66417  13.863  33.698  11.988
98013W        W66418  38.623  35.356  11.930
98014W        W66419  44.505  14.993  11.994
98015W        W66420  24.412  15.389  12.476
98016W        W66421   8.433  29.021   1.666
98017W        W66422  18.801  11.387  11.511
98018W        W66423  12.617  19.544  11.187
98019W        W66424  29.597   6.573  10.664
98020W        W66425  42.850  41.053  13.829
98021W        W66426  32.132  19.719  10.664
98022W        W66427  13.320  38.855  11.014
98023W        W66428   0.790  25.984  13.845
98024W        W66429   6.912  38.555  12.491
98025W        W66430  41.910   2.281   4.047
98026W        W66431  11.611   7.728   0.975
98027W        W66432  41.996  28.976   3.242
98028W        W66433  27.561  28.346  14.649
98029W        W66434  44.000   4.290  14.466
98030W        W66435  34.135  27.641  11.156
98031W        W66436  26.237   1.321   3.704
98032W        W66437  10.665  10.616  13.989
98033W        W66438  10.199   9.617   3.702
98034W        W66439  17.199  39.480   3.862
98035W        W66440  14.652  43.799  10.945
98036W        W66441  12.743  38.435  12.400
98037W        W66442  37.647  36.663   0.760
98038W        W66443  18.836   4.640   2.153
98039W        W66444  39.367  28.990  11.716
98040W        W66445  21.958  31.079   0.871
98041W        W66446  29.592  22.695   0.265
98042W        W66447   7.661  26.885  14.414
98043W        W66448  29.431  19.337   3.402
98044W        W66449   9.284  37.285   9.978
98045W        W66450  14.109  39.379   4.158
98046W        W66451  34.543  16.597  11.184
98047W        W66452  31.163  29.264   2.108
98048W        W66453  41.344  24.120  13.347
98049W        W66454  29.124  13.113  11.484
98050W        W66455  18.009   0.835  10.626
98051W        W66456  20.992  28.384   0.279
98052W        W66457  39.869  20.046  14.935
98053W        W66458  39.446  40.487   4.056
98054W        W66459  10.616  24.372  11.762
98055W        W66460  15.305   6.886  10.713
98056W        W66461   6.274  14.573   4.108
98057W        W66462  10.817  12.219   1.752
98058W        W66463   8.068  16.457   0.394
98059W        W66464   1.248  18.634  12.591
98060W        W66465  11.230  15.682   2.454
98061W        W66466  15.847  43.107  14.109
98062W        W66467  40.816  34.186   1.839
98063W        W66468  12.444   5.785  12.573
98064W        W66469  10.633  28.567   0.043
98065W        W66470   7.275  15.605  10.698
98066W        W66471   6.742  20.190   2.644
98067W        W66472   0.428   9.657   0.432
98068W        W66473   6.334  15.566  14.997
98069W        W66474  41.330   2.246   3.307
98070W        W66475  40.763  14.135  11.261
98071W        W66476  39.551   7.308  12.330
98072W        W66477  30.195  36.180  14.002
98073W        W66478   5.969  38.514  12.605
98074W        W66479  35.049  13.019  14.782
98075W        W66480  44.240  28.868   4.862
98076W        W66481  44.438  42.703  11.602
98077W        W66482  39.100  23.234   4.216
98078W        W66483  30.128  23.767   5.368
98079W        W66484   9.000  39.786   0.634
98080W        W66485  21.784  20.504   0.801
98081W        W66486  22.285  32.411  14.513
98082W        W66487  12.754  39.349   4.599
98083W        W66488  31.464  31.136   1.256
98084W        W66489   2.300  42.557  12.898
98085W        W66490  37.049  35.440   4.646
98086W        W66491  13.217  12.679  12.483
98087W        W66492   1.654  22.527  14.425
98088W        W66493  18.685  18.112   4.226
98089W        W66494  11.698   2.980   4.585
98090W        W66495  19.353   1.866  13.262
98091W        W66496  37.839  33.525  10.497
98092W        W66497  29.246   0.397   2.536
98093W        W66498  14.118   1.934  12.654
98094W        W66499   7.627  19.135   1.307
98095W        W66500  11.754  15.572  12.872
98096W        W66501  29.416  33.046  13.279
98097W        W66502  12.285  20.184   2.666
98098W        W66503  29.095   2.234  13.887
98099W        W66504  29.609  26.962   1.416
98100W        W66505  44.578   0.970  12.916
98101W        W66506  17.612  33.156   0.424
98102W        W66507   3.861  41.464   1.886
98103W        W66508  33.528  34.879   5.098
98104W        W66509  19.342  14.204  11.620
98105W        W66510  44.869  29.177   0.846
98106W        W66511  25.629  27.088  14.469
98107W        W66512  34.426  32.572  10.580
98108W        W66513  26.757   4.824  14.001
98109W        W66514  43.093  28.634   2.206
98110W        W66515  12.121  19.167  14.926
98111W        W66516   2.514  43.457   2.737
98112W        W66517  23.212   1.501  10.580
98113W        W66518   5.334  30.500  11.676
98114W        W66519  22.202  18.241  10.959
98115W        W66520   5.389  29.614  12.711
98116W        W66521  40.205  38.932   4.049
98117W        W66522   6.839  23.678  14.911
98118W        W66523   9.177  11.931  13.819
98119W        W66524  24.223   6.835   0.907
98120W        W66525  35.146  25.313   1.485
98121W        W66526   8.410   9.650   2.804
98122W        W66527   0.843  10.586  12.985
98123W        W66528  16.496   1.820   3.295
98124W        W66529  30.385  18.624  12.950
98125W        W66530  27.268  19.148  14.861
98126W        W66531  21.640   0.667   4.311
98127W        W66532  39.915   5.397   1.377
98128W        W66533  25.029  31.643  11.599
98129W        W66534  11.813   7.657   4.839
98130W        W66535   6.651  12.891  12.494
98131W        W66536  15.417   1.935   0.894
98132W        W66537  26.326  22.123  13.830
98133W        W66538  33.032   6.611   4.164
98134W        W66539  29.651  33.406   4.543
98135W        W66540  42.314  28.174  11.674
98136W        W66541   5.522  28.094  10.847
98137W        W66542  11.400  33.959  10.745
98138W        W66543  27.981  23.604  10.620
98139W        W66544  40.450  31.577   2.289
98140W        W66545  15.756  11.789   2.226
98141W        W66546  30.508   2.213   1.740
98142W        W66547  44.277  36.374   4.557
98143W        W66548   0.693   5.391   0.934
98144W        W66549   5.744  39.351   4.730
98145W        W66550  23.473  29.385  12.791
98146W        W66551  29.269  28.452  13.950
98147W        W66552  41.443  37.437  12.057
98148W        W66553  30.609  22.531   1.222
98149W        W66554  36.062  35.668  11.954
98150W        W66555  26.804  36.403   4.272
98151W        W66556  44.645  39.413   4.602
98152W        W66557  33.002  37.388  13.801
98153W        W66558   7.677  28.951   4.225
98154W        W66559  33.759  11.331  14.901
98155W        W66560   5.788  23.237  13.034
98156W        W66561  34.451  15.792   0.889
98157W        W66562  12.318  29.682  12.496
98158W        W66563   3.083   3.183   2.862
98159W        W66564  29.623  27.381  11.461
98160W        W66565  35.811   7.587  10.680
98161W        W66566  21.992  34.674  12.956
98162W        W66567  34.277   1.847  13.044
98163W        W66568  12.755  32.912   3.785
98164W        W66569  19.830  10.050   1.247
98165W        W66570  40.207   7.641  10.916
98166W        W66571  32.457  14.770  13.927
98167W        W66572  31.515  31.774   4.817
98168W        W66573  36.841  18.855   2.314
98169W        W66574  40.090   1.417   1.039
98170W        W66575   9.912  32.166  13.962
98171W        W66576  25.007  21.316   4.938
98172W        W66577  26.012  32.661   3.590
98173W        W66578  10.673  30.315  14.720
98174W        W66579  19.654  18.217  12.269
98175W        W66580  22.975   6.251   4.136
98176W        W66581  12.739   3.766  12.329
98177W        W66582  28.921   4.651  14.329
98178W        W66583  15.269  36.448   3.793
98179W        W66584   9.568  42.843  12.459
98180W        W66585   1.266  23.289  12.829
98181W        W66586  23.658   6.766   2.097
98182W        W66587  19.800   4.204   4.215
98183W        W66588  43.932  10.260   1.118
98184W        W66589  22.355  23.370   1.841
98185W        W66590   9.820  40.239  14.876
98186W        W66591   4.394  17.626   0.732
98187W        W66592   9.944  24.697  13.350
98188W        W66593   4.257  28.829  13.600
98189W        W66594  16.480   0.531   2.196
98190W        W66595  22.643  16.166   0.859
98191W        W66596  34.482   8.272  12.914
98192W        W66597  16.183  12.648  14.873
98193W        W66598  25.514   9.840  10.625
98194W        W66599  30.207  13.526  11.175
98195W        W66600  30.722  16.019   2.783
98196W        W66601  37.350  12.688   3.238
98197W        W66602  31.701  32.683   0.355
98198W        W66603  30.293  26.783   4.973
98199W        W66604  40.319  38.012  13.119
98200W        W66605  21.578  22.782   3.768
98201W        W66606   5.838  38.653  11.634
98202W        W66607  13.242  31.388  10.870
98203W        W66608  35.049   5.855  14.989
98204W        W66609  10.937  24.857   3.301
98205W        W66610  31.871  21.916  13.428
98206W        W66611   9.704  35.298   2.698
98207W        W66612  11.857   6.319  11.200
98208W        W66613  38.462  21.688  13.391
98209W        W66614  23.631  27.817   2.933
98210W        W66615   7.783  16.719  13.046
98211W        W66616  36.050  32.154   4.249
98212W        W66617  19.278   7.754   3.696
98213W        W66618  20.129  21.021  10.245
98214W        W66619   1.776  10.131   2.769
98215W        W66620  30.489  42.149   5.099
98216W        W66621  44.346  29.700   3.269
98217W        W66622  19.663  19.368  14.092
98218W        W66623  43.575  19.169  13.454
98219W        W66624  34.161  44.005  14.825
98220W        W66625  10.393  24.256   0.386
98221W        W66626  23.397  37.077   1.828
98222W        W66627  12.640   9.385   0.867
98223W        W66628  15.862  10.955   4.536
98224W        W66629  40.966  29.125  12.261
98225W        W66630  39.017  38.572  11.081
98226W        W66631  34.081  29.590  13.293
98227W        W66632  26.437  22.675   4.620
98228W        W66633  39.990  28.064  14.087
98229W        W66634  12.265  40.987  11.504
98230W        W66635   7.819   1.863  10.976
98231W        W66636  11.146  16.361   0.191
98232W        W66637   1.782  37.648   0.379
98233W        W66638   8.817  17.089   2.891
98234W        W66639   3.697  28.767  12.045
98235W        W66640  33.084  43.546  10.950
98236W        W66641  23.708  20.992  11.356
98237W        W66642   1.303  44.072   0.738
98238W        W66643  11.796   1.315   3.331
98239W        W66644   0.487  35.747   0.979
98240W        W66645   3.708  38.989   3.328
98241W        W66646  32.204  15.356   1.761
98242W        W66647  17.297   8.766  11.879
98243W        W66648  27.490  34.950  13.422
98244W        W66649  14.715  22.559  12.402
98245W        W66650   8.706  36.017   4.585
98246W        W66651  18.369  38.927  14.666
98247W        W66652  22.652  12.268  13.511
98248W        W66653  36.925   8.734   4.691
98249W        W66654   3.417  29.530   4.190
98250W        W66655  23.669   9.935   0.020
98251W        W66656   8.818  30.962   0.102
98252W        W66657  24.119  17.894   2.920
98253W        W66658  24.244   6.968  13.492
98254W        W66659  15.858  19.821  11.160
98255W        W66660  35.176  11.680  11.274
98256W        W66661  28.716  22.560  11.449
98257W        W66662  13.923  33.925   4.109
98258W        W66663  36.750  39.842  12.510
98259W        W66664  38.951  31.039   0.463
98260W        W66665  41.365  26.069   3.348
98261W        W66666  37.834   2.484   4.674
98262W        W66667   4.223  21.589   1.658
98263W        W66668  16.428   2.602   4.248
98264W        W66669  24.899  24.886  13.357
98265W        W66670   3.262  43.871   4.112
98266W        W66671  16.330  42.638   2.326
98267W        W66672  37.104  21.040  12.570
98268W        W66673  20.085   6.529  12.749
98269W        W66674   4.079   4.224   1.290
98270W        W66675  27.435  24.174  12.235
98271W        W66676  43.688  15.759   0.178
98272W        W66677   9.140  44.138   2.114
98273W        W66678  18.661  18.712   0.793
98274W        W66679   4.771  22.491  11.862
98275W        W66680   5.752  15.459   3.802
98276W        W66681  21.057  32.655  13.028
98277W        W66682  35.156  29.991   3.087
98278W        W66683  31.651  20.716   4.285
98279W        W66684  44.609  21.647   3.409
98280W        W66685  12.583   2.479  11.767
98281W        W66686   2.733   6.344   0.310
98282W        W66687  24.741   3.794   2.872
98283W        W66688   6.208  35.584   0.750
98284W        W66689  43.395  40.534  11.529
98285W        W66690  28.127  34.815  14.551
98286W        W66691  12.857   4.800  12.969
98287W        W66692   0.401   7.980   4.046
98288W        W66693   1.508  11.093   1.782
98289W        W66694  36.861  17.279  11.026
98290W        W66695  29.773   7.894   3.337
98291W        W66696   7.171  42.835   4.868
98292W        W66697  35.358  43.954   2.730
98293W        W66698  26.547  27.912  13.171
98294W        W66699  13.170   2.241   2.740
98295W        W66700  11.332  44.951  12.938
98296W        W66701  42.427  43.793  14.901
98297W        W66702  30.048  37.516   0.857
98298W        W66703  21.062  35.797  11.199
98299W        W66704   0.153  22.175   0.009
98300W        W66705  29.501  41.109   0.402
98301W        W66706  40.796   1.030  13.526
98302W        W66707  39.798  24.968  11.189
98303W        W66708  26.184  17.762  11.837
98304W        W66709  23.118  10.289   1.432
98305W        W66710  42.063  39.455   2.208
98306W        W66711  35.845   1.332  14.585
98307W        W66712   2.058   2.399   1.824
98308W        W66713  22.467  26.268  14.255
98309W        W66714  31.462  20.137   2.820
98310W        W66715  30.095  10.729  14.299
98311W        W66716  23.194  44.646  14.799
98312W        W66717  40.092  27.528   3.762
98313W        W66718   0.536  40.842   1.834
98314W        W66719  28.563  13.460   0.282
98315W        W66720  22.304  30.872   3.756
98316W        W66721  43.994   6.775   2.602
98317W        W66722  41.456   6.742   0.796
98318W        W66723  27.922  38.999   5.027
98319W        W66724  32.859  19.609   2.746
98320W        W66725   5.456  41.371  14.818
98321W        W66726  39.965  28.962   0.452
98322W        W66727  43.763  18.345  12.588
98323W        W66728  14.187  25.658  14.900
98324W        W66729   7.724  14.252  14.714
98325W        W66730  24.977   6.993  10.562
98326W        W66731  15.012   8.390   3.458
98327W        W66732  29.361  19.398   1.245
98328W        W66733  29.605   5.457   1.413
98329W        W66734  32.093  29.126   0.272
98330W        W66735  28.930  36.814  11.444
98331W        W66736   0.964  37.503   4.582
98332W        W66737  32.594  18.470   0.869
98333W        W66738  11.902  29.382  14.357
98334W        W66739   7.790  28.776   0.838
98335W        W66740  19.212  25.486   3.331
98336W        W66741  12.201  38.027   1.346
98337W        W66742  28.875  23.752   0.816
98338W        W66743  22.622  33.045  14.431
98339W        W66744   8.365  20.462   3.716
98340W        W66745   5.942  14.635   0.952
98341W        W66746  44.459  36.680   4.978
98342W        W66747  14.049   3.657   5.395
98343W        W66748  37.945  15.382  13.066
98344W        W66749  19.238  35.477  10.860
98345W        W66750  11.407  18.514  12.824
98346W        W66751   3.812   2.807  14.703
98347W        W66752  42.363  21.026  12.561
98348W        W66753  12.328   1.021  14.702
98349W        W66754   6.723  41.312   1.842
98350W        W66755  27.740  28.328  11.231
98351W        W66756  11.808  21.711   2.398
98352W        W66757   3.945  26.062   3.738
98353W        W66758   5.622  16.697  14.404
98354W        W66759  33.982  39.475  11.235
98355W        W66760   6.573  36.090   9.851
98356W        W66761  41.833  44.025   4.774
98357W        W66762  26.361  29.029   0.993
98358W        W66763   5.848  39.256   3.731
98359W        W66764  30.134   7.927   0.217
98360W        W66765  26.981  23.757   4.389
98361W        W66766   1.921   5.339   0.296
98362W        W66767  23.224   0.870   4.617
98363W        W66768  39.547  19.561  11.721
98364W        W66769   4.665  40.843  11.983
98365W        W66770  36.135  29.933  10.709
98366W        W66771  35.862  40.454   4.204
98367W        W66772  12.203  15.281  14.303
98368W        W66773  22.387   1.551   0.210
98369W        W66774  41.541  26.548   3.198
98370W        W66775  19.566  34.894   2.826
98371W        W66776  18.060  33.379  13.417
98372W        W66777  31.259   6.350  12.977
98373W        W66778  31.074   7.288   3.157
98374W        W66779  10.789  36.414  11.568
98375W        W66780   7.453  44.840   1.900
98376W        W66781  32.631   6.698  10.714
98377W        W66782  41.500  19.662   1.140
98378W        W66783  41.836  23.436   4.526
98379W        W66784  31.467  38.422  13.738
98380W        W66785  21.971  13.247  14.911
98381W        W66786   3.428  28.298   4.517
98382W        W66787   9.686  31.942   4.187
98383W        W66788  44.053  13.817   4.624
98384W        W66789   3.328  20.813   4.859
98385W        W66790   9.196  13.267  13.423
98386W        W66791  42.221   1.889   4.158
98387W        W66792  37.969  19.999  13.763
98388W        W66793  11.713  16.205  13.514
98389W        W66794   4.646  17.170  13.655
98390W        W66795  32.112  23.993  13.667
98391W        W66796  33.586  25.807   1.356
98392W        W66797  10.518  44.043  11.911
98393W        W66798  29.926   7.078  13.110
98394W        W66799  16.350  21.284  12.560
98395W        W66800  16.243  18.643  12.511
98396W        W66801  42.817  16.336  10.717
98397W        W66802  43.560  27.057   0.550
98398W        W66803  44.321  24.784   1.356
98399W        W66804   1.961  27.190  10.677
98400W        W66805  11.658  13.545   4.600
98401W        W66806  25.650   8.124   4.601
98402W        W66807  35.842  24.091  14.463
98403W        W66808  29.593  42.998   9.640
98404W        W66809   6.347  15.971   0.963
98405W        W66810   2.662   1.426  13.930
98406W        W66811  33.217   6.953   4.551
98407W        W66812  16.572  44.536   1.538
98408W        W66813  31.589   4.032   3.830
98409W        W66814  18.283  15.727  10.726
98410W        W66815   6.710   7.257   1.668
98411W        W66816  14.204  39.990   4.239
98412W        W66817  41.294  32.913   1.833
98413W        W66818   5.300   1.761   2.165
98414W        W66819  20.744   6.305  11.279
98415W        W66820  37.084  43.447  10.707
98416W        W66821  21.094  40.775  14.540
98417W        W66822  34.499  43.269  13.361
98418W        W66823  14.690  36.057   1.266
98419W        W66824  24.580  26.209   1.737
98420W        W66825  36.553   0.959   3.580
98421W        W66826   2.226   9.354   5.070
98422W        W66827   4.230  34.601  11.972
98423W        W66828  15.882  36.638  13.946
98424W        W66829   4.750  44.014   2.702
98425W        W66830  43.119  30.170  11.616
98426W        W66831  22.174  24.145  14.878
98427W        W66832   1.361  30.449   1.302
98428W        W66833  29.162   0.949  14.417
98429W        W66834   6.262  22.582   0.168
98430W        W66835  21.557  20.996  13.430
98431W        W66836  14.290  36.881   4.494
98432W        W66837  32.862  37.548  14.769
98433W        W66838  27.035  20.508   1.225
98434W        W66839   7.516   2.965  14.267
98435W        W66840   0.695  19.319   1.319
98436W        W66841   2.109  19.703  13.435
98437W        W66842  25.346  17.813   0.253
98438W        W66843   6.683  40.890  14.476
98439W        W66844   7.154   3.963   0.307
98440W        W66845  16.813  28.968  12.173
98441W        W66846  39.785  11.867  13.330
98442W        W66847  35.073  36.638  14.365
98443W        W66848   9.422  23.520  14.945
98444W        W66849  39.375  16.810   2.084
98445W        W66850   6.189  10.907  12.574
98446W        W66851  31.660  37.822  12.136
98447W        W66852  31.708  36.151  10.465
98448W        W66853  34.526  44.861  13.887
98449W        W66854  29.166   0.288  11.451
98450W        W66855  38.826   5.737  12.022
98451W        W66856  22.215  16.557  13.871
98452W        W66857  39.276  35.693  13.415
98453W        W66858  34.595  36.114  14.486
98454W        W66859  22.829  36.962  11.132
98455W        W66860  25.675  14.210  12.886
98456W        W66861  35.583   8.804   2.431
98457W        W66862  16.592  16.510   1.017
98458W        W66863  37.792  38.427   3.050
98459W        W66864  38.572  34.419  14.783
98460W        W66865  31.057  36.017  10.825
98461W        W66866   1.945  20.960   1.225
98462W        W66867  24.502   0.054  11.529
98463W        W66868  20.801  26.057   1.319
98464W        W66869   7.720  19.035  13.940
98465W        W66870  17.118   3.041   4.926
98466W        W66871  23.461  26.911   3.251
98467W        W66872  11.168   9.593  11.971
98468W        W66873  44.866  44.278  12.517
98469W        W66874  43.100  36.134  10.221
98470W        W66875  38.128  27.590   0.361
98471W        W66876  14.206  42.361  12.814
98472W        W66877   1.994  10.040  12.717
98473W        W66878  23.196  31.629   4.152
98474W        W66879   9.876   1.854   4.212
98475W        W66880  44.083  30.694   2.320
98476W        W66881   6.957  34.159  13.130
98477W        W66882  20.714   4.664   0.999
98478W        W66883  38.617  25.555  14.037
98479W        W66884  16.289   5.357   3.231
98480W        W66885  36.776   3.449   5.019
98481W        W66886  10.977  11.027  14.225
98482W        W66887  22.828   2.305   1.438
98483W        W66888  35.183  27.069  12.500
98484W        W66889  12.329  16.620  12.634
98485W        W66890  14.563  10.692   2.232
98486W        W66891  36.564  23.518  10.894
98487W        W66892   4.996   3.391   2.762
98488W        W66893  25.683  16.757  12.612
98489W        W66894   3.814  18.798  12.444
98490W        W66895  21.345  27.906  11.144
98491W        W66896   9.325  27.906   4.730
98492W        W66897  21.277  39.387  11.127
98493W        W66898  11.007  39.974  13.081
98494W        W66899  27.704  32.047   2.270
98495W        W66900  21.716  39.213  11.942
98496W        W66901  10.652  18.562  12.085
98497W        W66902  39.337  36.847   0.261
98498W        W66903  43.010  16.780   4.541
98499W        W66904  41.396   8.559  11.305
98500W        W66905   0.921   9.484  13.857
98501W        W66906  14.643   0.341   0.230
98502W        W66907  31.613  38.372   0.677
98503W        W66908   7.321  27.307  12.282
98504W        W66909  19.111  44.306   3.335
98505W        W66910   2.615  42.444  11.090
98506W        W66911  16.717  29.702   3.847
98507W        W66912  33.566  27.529   0.408
98508W        W66913  19.219  12.170   4.305
98509W        W66914   9.025   2.373  14.406
98510W        W66915  18.772   6.177  12.873
98511W        W66916  27.081   9.702   1.618
98512W        W66917  22.204  21.539  13.326
98513W        W66918  26.626   7.239  11.695
98514W        W66919  31.076  11.237   1.717
98515W        W66920  15.106  13.108  11.730
98516W        W66921  32.771   2.132   4.869
98517W        W66922  18.019  16.611   2.979
98518W        W66923  41.854  26.523  12.895
98519W        W66924  35.071  23.801  14.781
98520W        W66925   9.243   5.333  10.653
98521W        W66926  35.577  17.100  12.894
98522W        W66927   2.317  17.668  11.357
98523W        W66928   5.774   4.404   0.337
98524W        W66929   7.968  31.537  12.369
98525W        W66930  17.674  30.051  11.614
98526W        W66931  40.445   7.315   3.116
98527W        W66932  40.379   2.125  14.591
98528W        W66933  15.179  40.979   4.816
98529W        W66934   8.267  33.107   2.851
98530W        W66935  30.683  12.325  13.914
98531W        W66936  39.302  26.009  11.617
98532W        W66937  39.928  41.494   4.669
98533W        W66938   9.821  29.860  11.895
98534W        W66939  18.791   1.405   4.214
98535W        W66940  35.859  22.626  14.358
98536W        W66941  41.318  35.514   2.335
98537W        W66942  27.071  39.300   4.124
98538W        W66943  10.687   8.439   3.612
98539W        W66944   0.222  17.798  11.980
98540W        W66945   3.970   4.364  11.554
98541W        W66946  30.593  35.337  12.999
98542W        W66947  26.510   0.975  14.409
98543W        W66948  42.811  24.724   2.495
98544W        W66949   3.137  24.178  13.875
98545W        W66950   8.391  27.837  14.831
98546W        W66951  43.042  15.725  11.577
98547W        W66952  23.145  43.039  10.939
98548W        W66953  33.939  10.132  11.945
98549W        W66954  35.563  13.912  11.095
98550W        W66955  14.736   8.429   2.725
98551W        W66956  26.028  28.014  13.089
98552W        W66957  38.502   4.529   0.440
98553W        W66958  44.539  38.520   3.174
98554W        W66959  36.083  18.834  13.731
98555W        W66960  43.932  12.319   4.571
98556W        W66961  17.082  15.521  11.597
98557W        W66962  18.985  16.713   1.961
98558W        W66963  13.177  24.711  11.453
98559W        W66964   9.812  10.559   1.316
98560W        W66965  35.025  20.218   2.146
98561W        W66966  44.330  31.567   2.380
98562W        W66967  21.687  19.366  14.447
98563W        W66968  12.001  29.460  12.817
98564W        W66969   2.420  22.647  10.902
98565W        W66970  26.160  39.177   0.395
98566W        W66971  35.347   4.409   1.645
98567W        W66972  35.878  24.022  12.078
98568W        W66973  43.887  17.628   3.735
98569W        W66974  12.912   1.784  14.241
98570W        W66975  22.289  34.171  12.064
98571W        W66976   2.322  17.105  12.063
98572W        W66977  20.530  29.077  12.874
98573W        W66978   7.349  21.583   2.327
98574W        W66979   3.982  33.630  11.463
98575W        W66980  36.781  42.584   2.964
98576W        W66981  33.618  30.357  13.332
98577W        W66982  29.085  34.146   0.389
98578W        W66983   8.559  39.496  13.603
98579W        W66984  20.015  27.581  11.544
98580W        W66985  13.713  12.632  12.626
98581W        W66986  42.481  39.532   0.026
98582W        W66987  17.001  24.964  12.012
98583W        W66988  43.877  37.967   1.078
98584W        W66989   1.751   1.123   3.667
98585W        W66990  42.040   3.719   1.448
98586W        W66991  40.977  30.956  12.585
98587W        W66992  26.377  26.715   3.358
98588W        W66993  40.031  31.128  13.252
98589W        W66994  12.966  36.005   0.729
98590W        W66995  13.832  38.928   4.221
98591W        W66996  27.953  29.382  11.918
98592W        W66997   3.807  27.492   4.674
98593W        W66998  43.536  43.787  14.111
98594W        W66999  41.893  21.486   2.761
98595W        W67000  14.740  36.373   1.994
98596W        W67001  19.811  14.925  10.724
98597W        W67002  23.477   1.834  11.504
98598W        W67003  40.988  38.527  14.017
98599W        W67004  24.796  16.149  11.196
98600W        W67005  44.074  37.643   0.675
98601W        W67006  29.357  30.266  11.635
98602W        W67007   3.702   4.343   4.189
98603W        W67008  37.603   4.741   4.147
98604W        W67009  16.600  11.730   5.036
98605W        W67010  12.967  33.882  12.754
98606W        W67011   2.566  42.615   2.231
98607W        W67012   4.334  33.420  10.493
98608W        W67013  15.617  21.208  11.399
98609W        W67014  21.255   6.127   3.519
98610W        W67015  43.406  19.720  10.745
98611W        W67016   9.331  14.702   3.739
98612W        W67017  19.164  26.678  10.694
98613W        W67018   9.419  25.815  12.419
98614W        W67019   2.128  38.803   3.541
98615W        W67020   7.679  29.969  11.237
98616W        W67021  10.814  30.501  12.928
98617W        W67022   9.361  37.916   1.675
98618W        W67023   7.821  10.666  13.375
98619W        W67024  35.921   3.418   1.594
98620W        W67025  41.477   9.006   3.710
98621W        W67026  44.002  24.263   4.179
98622W        W67027  31.434  38.407   0.181
98623W        W67028  18.261  34.414   1.143
98624W        W67029  13.857  26.481  11.559
98625W        W67030   6.175   8.998  10.940
98626W        W67031   3.174   0.193   1.201
98627W        W67032  17.567  21.034  11.912
98628W        W67033  10.076  44.260  13.443
98629W        W67034   8.239  39.505   3.161
98630W        W67035   5.719  39.693   2.748
98631W        W67036  15.982  22.177   2.752
98632W        W67037  21.237  19.530   2.842
98633W        W67038  13.664  33.480   5.188
98634W        W67039   1.490  42.830   1.096
98635W        W67040  30.485  30.528   2.331
98636W        W67041  17.454   8.915  10.643
98637W        W67042   3.849  14.924   0.221
98638W        W67043  10.130  14.381  10.371
98639W        W67044   0.856  43.291   2.333
98640W        W67045  27.462  31.081   3.899
98641W        W67046  28.926  44.853   2.149
98642W        W67047  25.998  33.145   2.322
98643W        W67048  11.715  12.126   0.979
98644W        W67049  27.460   5.152  11.136
98645W        W67050  22.468  42.951   1.416
98646W        W67051  30.461   7.688  12.474
98647W        W67052  11.211   1.744  14.387
98648W        W67053  31.883  27.449   1.625
98649W        W67054   3.752  43.924   2.692
98650W        W67055  35.541  27.950   2.335
98651W        W67056  41.352  14.704  13.594
98652W        W67057   9.005   4.104  13.618
98653W        W67058  31.496   3.805  13.734
98654W        W67059  11.060  11.511   2.779
98655W        W67060  25.403  20.175  11.141
98656W        W67061   1.300  24.612   4.249
98657W        W67062  42.374  20.201   2.246
98658W        W67063  25.122  42.062  13.848
98659W        W67064   9.225  28.393   1.609
98660W        W67065  43.047  12.787   2.757
98661W        W67066  27.611  10.306  12.747
98662W        W67067  20.814  13.684   0.403
98663W        W67068  38.508  11.662   2.295
98664W        W67069  20.791  15.599  11.938
98665W        W67070   8.765  14.340   4.024
98666W        W67071  43.532  35.053   3.676
98667W        W67072  17.512   6.605   4.083
98668W        W67073  32.513  24.436  13.112
98669W        W67074   8.624  38.758  14.797
98670W        W67075   5.205  20.023   2.668
98671W        W67076   5.109  27.682  12.185
98672W        W67077   6.716   1.803  14.841
98673W        W67078  26.613  19.967   4.073
98674W        W67079  33.934   3.373  11.895
98675W        W67080  19.121  25.692  12.527
98676W        W67081  12.873  24.159  10.733
98677W        W67082   0.816  30.933  11.592
98678W        W67083  24.896  22.058  12.781
98679W        W67084  28.458   9.738   0.262
98680W        W67085  10.087   6.919  11.111
98681W        W67086  15.351  27.648  14.509
98682W        W67087  18.921  23.176   1.302
98683W        W67088   7.754   2.695   3.624
98684W        W67089   0.571  40.095   3.150
98685W        W67090  36.076   1.455  10.713
98686W        W67091  41.490  16.733   4.918
98687W        W67092  28.897  24.643  13.868
98688W        W67093  16.620  12.944  14.708
98689W        W67094  30.951   3.871   2.664
98690W        W67095   4.814  23.141  12.487
98691W        W67096  36.166   0.768  10.973
98692W        W67097  14.345  23.829  12.552
98693W        W67098  42.956  12.898  12.302
98694W        W67099  12.540  40.543   1.442
98695W        W67100  40.076  36.881  12.413
98696W        W67101  31.037   8.658   1.865
98697W        W67102  42.502  17.083   3.702
98698W        W67103  24.632  30.419   2.449
98699W        W67104  29.473  19.820  13.456
98700W        W67105  16.616   7.909   4.087
98701W        W67106  24.016  14.631  10.778
98702W        W67107   1.290   9.757   0.527
98703W        W67108  36.420  13.760   2.243
98704W        W67109  29.681  40.844   0.848
98705W        W67110  28.816   2.325   3.557
98706W        W67111   1.872  35.341  14.140
98707W        W67112  14.345   5.165  11.946
98708W        W67113  15.044  13.490  11.413
98709W        W67114  24.692  23.485   0.593
98710W        W67115   3.540  28.176   3.517
98711W        W67116  40.759  24.733   0.673
98712W        W67117  41.045  11.014   2.119
98713W        W67118  13.469  34.107  11.027
98714W        W67119  11.643  24.352  14.386
98715W        W67120   7.780  44.127  14.368
98716W        W67121  39.385  44.363  11.161
98717W        W67122  15.052  13.704  13.538
98718W        W67123  26.225   6.598  12.467
98719W        W67124  40.631  17.505  14.754
98720W        W67125  27.293   8.558   4.536
98721W        W67126  33.130   0.928  14.330
98722W        W67127  23.509  29.194  11.617
98723W        W67128  18.541  26.295  11.220
98724W        W67129  44.803   7.619   4.729
98725W        W67130  10.199  20.944  11.594
98726W        W67131   1.875   3.189  12.088
98727W        W67132  15.388  38.244  12.050
98728W        W67133   2.572   7.995  13.875
98729W        W67134  17.380  39.888   1.308
98730W        W67135  17.160  27.944   0.548
98731W        W67136  14.052  11.999   1.252
98732W        W67137  26.607   8.939   0.394
98733W        W67138  17.114   6.161  13.996
98734W        W67139  41.046  35.988  13.583
98735W        W67140  29.383   6.220   4.811
98736W        W67141  20.100  16.884   1.778
98737W        W67142  38.451   7.782  11.442
98738W        W67143  37.177   7.785   1.459
98739W        W67144  40.305   0.713  14.936
98740W        W67145   9.402  20.724  12.486
98741W        W67146  12.344  36.571  12.382
98742W        W67147  39.761  11.845  13.848
98743W        W67148  30.729   2.051  11.629
98744W        W67149  17.138  26.190   2.991
98745W        W67150  14.605  27.357  14.945
98746W        W67151  39.401   0.707  11.618
98747W        W67152  23.523   4.204  14.447
98748W        W67153  32.435  42.347   2.366
98749W        W67154  26.672  26.159   0.204
98750W        W67155  40.947  32.884  13.856
98751W        W67156  37.453  39.516   3.974
98752W        W67157   7.998  20.728  12.368
98753W        W67158  28.871  41.932   1.672
98754W        W67159  11.734   8.690  12.195
98755W        W67160  15.555   7.219  11.035
98756W        W67161   4.507  25.561   0.869
98757W        W67162  17.060  18.110  12.639
98758W        W67163  39.442  33.521  14.321
98759W        W67164  11.886   8.379   3.393
98760W        W67165  14.840  29.596   2.856
98761W        W67166  42.865  38.764   4.731
98762W        W67167  37.985  38.290   4.547
98763W        W67168  31.560  26.646   2.279
98764W        W67169  19.483  44.277   0.803
98765W        W67170  26.461  19.016   4.180
98766W        W67171   5.370  11.872  12.193
98767W        W67172  26.467   5.550   2.870
98768W        W67173  44.866  25.221   1.899
98769W        W67174   3.927  22.520  11.673
98770W        W67175  44.423  19.978   1.040
98771W        W67176  42.095  43.608   2.119
98772W        W67177  32.799  42.562  11.105
98773W        W67178   7.622  15.592   5.342
98774W        W67179  35.822  24.498  13.433
98775W        W67180  39.277  39.517   1.839
98776W        W67181   2.619   6.006   4.527
98777W        W67182  25.119  34.021   2.253
98778W        W67183  37.122  33.538  13.881
98779W        W67184  15.698  18.503   3.871
98780W        W67185  39.116  13.815  14.386
98781W        W67186  11.384   2.546  12.804
98782W        W67187  42.527  41.053  11.927
98783W        W67188  27.155  14.632  14.925
98784W        W67189  39.809  14.856   4.587
98785W        W67190  34.826  29.643  12.485
98786W        W67191   7.571  40.260  12.180
98787W        W67192  11.105  34.155   2.391
98788W        W67193  26.718  28.152  13.594
98789W        W67194  38.445  38.092   1.217
98790W        W67195   9.107  32.922   4.107
98791W        W67196   4.335  39.025  14.435
98792W        W67197  25.837   8.469   4.946
98793W        W67198  44.823  21.803  14.612
98794W        W67199  17.357   2.356  11.176
98795W        W67200  38.822  38.355  12.829
98796W        W67201  33.915  22.030   3.795
98797W        W67202  33.715  35.116   1.431
98798W        W67203  17.525  30.070  12.819
98799W        W67204   3.892  11.826  13.716
98800W        W67205  19.412  31.690   2.264
98801W        W67206  37.499   9.003   1.053
98802W        W67207  34.131  18.760  12.011
98803W        W67208  21.683  25.376   4.233
98804W        W67209  21.462   2.433  12.866
98805W        W67210   8.355   6.277  11.125
98806W        W67211  24.879  40.313  13.017
98807W        W67212  11.910  16.761   3.766
98808W        W67213  27.031  21.785   4.084
98809W        W67214  40.336  40.929  12.161
98810W        W67215   0.023   2.282  12.112
98811W        W67216  19.680  29.665  11.584
98812W        W67217  15.242  41.507   0.727
98813W        W67218   0.442  32.639   2.186
98814W        W67219  13.219  19.961  12.179
98815W        W67220  38.866  43.345  14.296
98816W        W67221  22.616  22.129   4.294
98817W        W67222  42.983  14.143   3.187
98818W        W67223  36.354  44.546   3.746
98819W        W67224  31.647  12.689  12.958
98820W        W67225  28.518  32.894  12.793
98821W        W67226  36.781  37.273  12.433
98822W        W67227  36.133  10.192   4.842
98823W        W67228  35.930  22.172   2.242
98824W        W67229  26.117   0.662   1.767
98825W        W67230  12.179  23.341  14.956
98826W        W67231  27.404  35.711  10.920
98827W        W67232  40.795   4.115  12.156
98828W        W67233  28.354  18.115   1.853
98829W        W67234  26.646   2.169   4.108
98830W        W67235  18.009  24.836   5.521
98831W        W67236   5.291  15.309   4.597
98832W        W67237  41.403  26.678   3.672
98833W        W67238  15.654   7.873   2.612
98834W        W67239  10.369  43.996   3.282
98835W        W67240  14.838  34.970  11.682
98836W        W67241  15.887  23.459  11.103
98837W        W67242   0.370  38.858   2.596
98838W        W67243  12.862  37.990  12.594
98839W        W67244  26.739  28.069  14.419
98840W        W67245   0.997  33.752   3.473
98841W        W67246  24.179   9.433  10.959
98842W        W67247  12.717   3.271   1.053
98843W        W67248  30.599   3.537  12.587
98844W        W67249  15.443   6.651   3.907
98845W        W67250   2.457  14.603   0.365
98846W        W67251   9.035  29.080  12.544
98847W        W67252  31.086   1.596  10.636
98848W        W67253   0.304  15.195   0.783
98849W        W67254  26.241   7.109  13.056
98850W        W67255  43.714  14.896   1.444
98851W        W67256   2.040  18.064  13.427
98852W        W67257  38.944  44.771   1.717
98853W        W67258  21.645  39.090  10.886
98854W        W67259  25.751  27.276   3.792
98855W        W67260   5.572  26.504   1.923
98856W        W67261  29.212  32.415  14.292
98857W        W67262  24.490  17.368  14.352
98858W        W67263   0.428  40.447  12.042
98859W        W67264  22.539  21.227   3.844
98860W        W67265  13.858   6.261  11.285
98861W        W67266  39.268  27.956   2.361
98862W        W67267  29.529  28.228   0.482
98863W        W67268  30.433  42.657  14.915
98864W        W67269  36.142  29.469   2.291
98865W        W67270  33.372   5.168  12.898
98866W        W67271  34.353  25.501  13.961
98867W        W67272  26.368  23.667   1.343
98868W        W67273   9.338  38.070  10.723
98869W        W67274   9.369   7.693  11.235
98870W        W67275  25.197  17.607  13.925
98871W        W67276  30.914  25.173  14.611
98872W        W67277  18.687  31.522   3.075
98873W        W67278  24.589   4.901   4.737
98874W        W67279  26.697  24.251  11.616
98875W        W67280  10.997  33.812  12.950
98876W        W67281  26.417  44.041   3.612
98877W        W67282  19.445   3.127  10.234
98878W        W67283  17.216  36.332  12.540
98879W        W67284  28.620  39.395  11.723
98880W        W67285  36.807   1.283  11.591
98881W        W67286  25.940  15.082  10.715
98882W        W67287  16.201   8.906  11.364
98883W        W67288  17.549  15.846   2.883
98884W        W67289   4.361  16.411   2.963
98885W        W67290  41.490  34.829   0.194
98886W        W67291  29.271  29.734  12.957
98887W        W67292  14.803  43.964  14.873
98888W        W67293  27.988  15.010   5.061
98889W        W67294   5.837   8.340   2.921
98890W        W67295   6.497  29.222   3.631
98891W        W67296  44.960  33.125  11.846
98892W        W67297  11.781  33.174  11.674
98893W        W67298   2.892  41.847   2.857
98894W        W67299   5.242  21.551   0.728
98895W        W67300  20.209  40.358   1.946
98896W        W67301  15.663  15.084  13.932
98897W        W67302  23.040  40.495  12.891
98898W        W67303   9.155  17.763  10.687
98899W        W67304   8.458   7.842   1.810
98900W        W67305  21.517  11.484  14.398
98901W        W67306   2.430  18.106   3.898
98902W        W67307  25.260  37.834   2.359
98903W        W67308   2.433  41.324  12.469
98904W        W67309  24.974  20.600   3.326
98905W        W67310  12.575  28.979   3.206
98906W        W67311  28.551  41.586   1.385
98907W        W67312  28.504  28.712  14.243
98908W        W67313  17.294  36.937   0.686
98909W        W67314  32.664  10.451   0.310
98910W        W67315   7.383  42.845  14.073
98911W        W67316   9.799   0.494   0.943
98912W        W67317  35.577   7.938  13.988
98913W        W67318   3.991  31.213   1.301
98914W        W67319  21.002  28.544   0.767
98915W        W67320  20.035  20.539  12.019
98916W        W67321   0.506  15.643   2.606
98917W        W67322   3.062  43.164   3.661
98918W        W67323  38.021  38.183   0.296
98919W        W67324  42.183  43.934   0.939
98920W        W67325  13.308  18.426  10.471
98921W        W67326  16.012   3.790   0.232
98922W        W67327  23.093  13.158  10.594
98923W        W67328  41.356   3.431   4.111
98924W        W67329   0.224  11.297  12.470
98925W        W67330  17.179  29.031  14.992
98926W        W67331  36.134  33.017   4.354
98927W        W67332  24.517  28.030  14.264
98928W        W67333  18.169  33.426  11.926
98929W        W67334   3.016  44.384  14.918
98930W        W67335  19.047  30.435  13.000
98931W        W67336   4.806  10.880   2.333
98932W        W67337   0.301  14.137   3.382
98933W        W67338  13.150   3.701   2.736
98934W        W67339  33.105  27.461  14.668
98935W        W67340   7.841  42.802   3.263
98936W        W67341  21.519  28.476   3.200
98937W        W67342   0.598  31.366   1.783
98938W        W67343   2.758  32.110  14.570
98939W        W67344  36.589   4.713   9.810
98940W        W67345  37.943   5.239   0.275
98941W        W67346  30.215  15.342  12.544
98942W        W67347  19.195  42.469  13.077
98943W        W67348  27.498  30.162  14.085
98944W        W67349  14.742  18.461  11.878
98945W        W67350  32.387   8.884   2.338
98946W        W67351  41.264  27.284   2.723
98947W        W67352   7.214  17.185  10.169
98948W        W67353  27.058  44.690   0.311
98949W        W67354  21.233  43.225  14.425
98950W        W67355  29.136  38.543   2.002
98951W        W67356  13.860   3.930   5.007
98952W        W67357   5.638  24.010   0.543
98953W        W67358  15.138  41.788   4.701
98954W        W67359   1.599   8.389   1.338
98955W        W67360  27.975  21.613   3.228
98956W        W67361   6.324   4.045   3.681
98957W        W67362  41.170  12.785  13.594
98958W        W67363   6.820   4.311   3.312
98959W        W67364  33.794  41.315   4.406
98960W        W67365  41.504  20.550  14.308
98961W        W67366   9.781  13.648   3.743
98962W        W67367  26.026  10.291   1.417
98963W        W67368   7.659  21.513   1.922
98964W        W67369  22.855   0.288  14.056
98965W        W67370  29.135   1.423   3.728
98966W        W67371  23.194  18.774  12.635
98967W        W67372  35.348   1.928   2.919
98968W        W67373  32.179   5.267  10.721
98969W        W67374  43.573  40.644   3.175
98970W        W67375  14.452  13.287   4.130
98971W        W67376  42.801  35.418   2.841
98972W        W67377  29.271  29.403   3.649
98973W        W67378   0.985  38.892  10.334
98974W        W67379  13.463   4.743   9.978
98975W        W67380   6.190  21.334   4.143
98976W        W67381  43.372  43.305  10.706
98977W        W67382  29.187  11.246   0.778
98978W        W67383   8.442  16.027  13.385
98979W        W67384  32.455   6.820  13.532
98980W        W67385  29.509  23.608   1.951
98981W        W67386  30.630  24.911   2.140
98982W        W67387  30.365  32.949   4.268
98983W        W67388   4.129  37.973  14.606
98984W        W67389  37.439  39.335   2.452
98985W        W67390  15.275  34.863   4.624
98986W        W67391  25.429  38.260  12.011
98987W        W67392  35.808   3.291   0.694
98988W        W67393  25.999   5.612  10.970
98989W        W67394   0.026   1.189  12.704
98990W        W67395  40.349  17.772  13.873
98991W        W67396  24.260  15.254   1.112
98992W        W67397  44.839   7.081  11.568
98993W        W67398  33.644   0.773  14.510
98994W        W67399   1.030  19.797   2.750
98995W        W67400   6.790  44.027   4.960
98996W        W67401   8.648  33.969   3.841
98997W        W67402  11.457  18.275   4.214
98998W        W67403   1.515  34.542  13.944
98999W        W67404  42.516  35.702   4.185
99000W        W67405  22.939  34.991   0.457
99001W        W67406  21.222  28.220  13.006
99002W        W67407  40.861   0.019  13.045
99003W        W67408  14.884  37.991   1.777
99004W        W67409   9.699  14.279  13.286
99005W        W67410  23.747  11.335  10.731
99006W        W67411  15.138  19.104  10.554
99007W        W67412  42.477  41.932   1.956
99008W        W67413  10.429  37.442   3.227
99009W        W67414  28.668  38.905   2.682
99010W        W67415  25.101  20.727  12.154
99011W        W67416  23.253  40.265   2.397
99012W        W67417  10.385  29.648  11.229
99013W        W67418  31.707  14.242   3.223
99014W        W67419  23.492  26.168   3.754
99015W        W67420  23.956  10.718  12.096
99016W        W67421  19.703  13.657   1.905
99017W        W67422  16.965  15.450  13.781
99018W        W67423   6.593  30.590  11.084
99019W        W67424  22.230  29.740   1.889
99020W        W67425  36.604  15.787   5.068
99021W        W67426  13.918   6.475  12.639
99022W        W67427  19.315   7.329  11.636
99023W        W67428  25.230  42.210   2.831
99024W        W67429  14.502  27.214  11.557
99025W        W67430  44.150  25.998  11.946
99026W        W67431  25.887  32.950  13.429
99027W        W67432  24.993  31.183  11.176
99028W        W67433  25.244   3.231   1.558
99029W        W67434   2.769  17.226  12.999
99030W        W67435  15.280  12.095  14.773
99031W        W67436  31.131   4.124  12.054
99032W        W67437  38.885  21.249  12.923
99033W        W67438  27.787   8.245   0.836
99034W        W67439  11.362   4.899   1.810
99035W        W67440  39.369   1.300   2.110
99036W        W67441  26.992  38.412  13.948
99037W        W67442   7.838  10.608  11.043
99038W        W67443   7.243  41.855  10.784
99039W        W67444  34.857   7.611  12.486
99040W        W67445  15.164  14.291   4.625
99041W        W67446  20.313   4.151   4.084
99042W        W67447  13.783  20.595   1.282
99043W        W67448   5.900  37.158  13.905
99044W        W67449   5.683  43.906   3.680
99045W        W67450   1.249  25.610   3.775
99046W        W67451  40.625  19.974  11.055
99047W        W67452  39.346  21.475  12.787
99048W        W67453   2.717   0.986  14.808
99049W        W67454  42.416   9.150  13.863
99050W        W67455  16.007  18.959  10.739
99051W        W67456  10.755  37.616  14.398
99052W        W67457  19.183   0.675   0.547
99053W        W67458   6.395  44.452  14.816
99054W        W67459  30.083   2.234  13.004
99055W        W67460  38.900  15.281  11.194
99056W        W67461  23.000  26.114   0.824
99057W        W67462  24.921  23.994  11.156
99058W        W67463  35.825  37.888   3.137
99059W        W67464  15.147  20.966  13.423
99060W        W67465  16.719  22.150   2.319
99061W        W67466   1.099  39.913   1.709
99062W        W67467  41.442  36.318  13.529
99063W        W67468  32.519  17.856  13.108
99064W        W67469   4.590  11.736  14.405
99065W        W67470  17.890  31.912  10.093
99066W        W67471  30.356  26.078   3.307
99067W        W67472  13.932  43.004  10.970
99068W        W67473   2.855  17.677  10.534
99069W        W67474  14.843   8.828  10.957
99070W        W67475  22.697  40.295   0.313
99071W        W67476  41.894  38.699   1.766
99072W        W67477   2.981   3.286   2.339
99073W        W67478  40.760  35.385  10.843
99074W        W67479  10.289   9.243   1.318
99075W        W67480  13.906  24.752  14.913
99076W        W67481  25.644  10.379  11.503
99077W        W67482  11.321  38.298   0.184
99078W        W67483  41.949  28.547  14.555
99079W        W67484  37.606   4.607   2.357
99080W        W67485   3.703   3.962   0.053
99081W        W67486   2.915  25.100  11.503
99082W        W67487  29.573  12.763  10.769
99083W        W67488  35.893  44.509  14.949
99084W        W67489  36.568  10.250   0.679
99085W        W67490  20.349  41.173  13.745
99086W        W67491  24.683  19.086  13.931
99087W        W67492  18.626   4.666  10.371
99088W        W67493  37.010  17.291  14.432
99089W        W67494  30.878  37.405   2.763
99090W        W67495  19.893  38.524  13.323
99091W        W67496  30.058  40.418   2.791
99092W        W67497   7.304   8.307   3.040
99093W        W67498   4.821  43.580  11.030
99094W        W67499   4.463  22.308  10.678
99095W        W67500  19.617  23.193  11.207
99096W        W67501   5.395  27.448  12.561
99097W        W67502  33.085  17.077   0.085
99098W        W67503  33.385   9.011  12.973
99099W        W67504  22.428  22.988  10.777
99100W        W67505  15.718   5.998   3.146
99101W        W67506  18.680  22.713  13.012
99102W        W67507  30.393   4.798  14.573
99103W        W67508  14.781   5.176  14.444
99104W        W67509  32.073  15.137  10.724
99105W        W67510  21.464  26.665   0.011
99106W        W67511  43.317  20.333   1.415
99107W        W67512  27.807  15.539  10.234
99108W        W67513   3.054  43.997   2.266
99109W        W67514  23.494  44.858   2.231
99110W        W67515   0.759  16.624  10.576
99111W        W67516  43.465   4.139   2.212
99112W        W67517  31.803  43.685   1.453
99113W        W67518  13.082  43.576   4.041
99114W        W67519  40.352  40.271  14.751
99115W        W67520  39.910  21.009  11.452
99116W        W67521  27.342  32.995   4.524
99117W        W67522  17.632   3.120   0.060
99118W        W67523   4.170  20.859  12.865
99119W        W67524  36.821   7.156   4.051
99120W        W67525  32.930  24.469   4.199
99121W        W67526   4.233   7.987   3.759
99122W        W67527  11.063  30.437  11.289
99123W        W67528  41.892  12.101   4.623
99124W        W67529  27.481   6.041   3.597
99125W        W67530  22.167  40.744   1.379
99126W        W67531  21.119  32.589   3.150
99127W        W67532  37.885   2.072  14.304
99128W        W67533  35.444  18.735  12.468
99129W        W67534  10.323  19.510   1.187
99130W        W67535  22.479  37.058   4.688
99131W        W67536  19.755  28.644  12.865
99132W        W67537   7.901  10.149  13.458
99133W        W67538  11.110  41.284   3.569
99134W        W67539  11.225  41.850  14.481
99135W        W67540  18.577  11.646   9.948
99136W        W67541  16.831  28.449  13.755
99137W        W67542  39.835  13.613   0.507
99138W        W67543  17.884  16.081  13.426
99139W        W67544  43.066  11.253  11.639
99140W        W67545  25.669  42.969   1.859
99141W        W67546  26.584   7.515  13.080
99142W        W67547  35.191  13.504  14.774
99143W        W67548   5.224  10.277  10.923
99144W        W67549  41.265  38.562  11.260
99145W        W67550  42.857  19.482   1.259
99146W        W67551  20.249  44.082  10.419
99147W        W67552  20.002   9.455   1.779
99148W        W67553  10.533  15.422  12.964
99149W        W67554   8.803  12.128  12.998
99150W        W67555  34.995  10.769   4.064
99151W        W67556  20.251  15.318  12.974
99152W        W67557   8.381  43.818  14.278
99153W        W67558  36.529   3.298   1.967
99154W        W67559  18.641  30.515   1.165
99155W        W67560  40.189  42.025  14.721
99156W        W67561   5.330  35.752   2.548
99157W        W67562  18.647  33.979   5.541
99158W        W67563   9.470  13.574   5.202
99159W        W67564  25.716  34.340   1.691
99160W        W67565  25.611   4.731  13.602
99161W        W67566  30.835   3.107  12.410
99162W        W67567  37.568  25.589   3.749
99163W        W67568   6.339  13.101  13.045
99164W        W67569  20.301   5.387   0.865
99165W        W67570  13.375  30.990  12.861
99166W        W67571  16.016  11.664   3.849
99167W        W67572  43.117  14.253  13.491
99168W        W67573  21.184  11.101   0.484
99169W        W67574  44.987   6.782  12.980
99170W        W67575  27.960   6.938   2.647
99171W        W67576  22.780  19.468  12.592
99172W        W67577   9.662  13.694  13.782
99173W        W67578  27.092  19.713   3.086
99174W        W67579  42.468  42.448  12.955
99175W        W67580   5.463  32.970   2.170
99176W        W67581   2.808  21.053   2.311
99177W        W67582  35.234   4.811  11.094
99178W        W67583  23.227  12.399   0.873
99179W        W67584  25.724   8.832  10.745
99180W        W67585  14.144  18.175   0.780
99181W        W67586  27.144  42.776  10.707
99182W        W67587  12.424  11.377  14.440
99183W        W67588   5.922  43.341   3.851
99184W        W67589  13.262   6.646  14.750
99185W        W67590  44.294   9.744  12.959
99186W        W67591   4.253  40.491  12.834
99187W        W67592  20.779  12.238   2.318
99188W        W67593  22.666  35.154   3.278
99189W        W67594  34.554   8.833   0.397
99190W        W67595   5.471  11.758  11.228
99191W        W67596  18.766  20.482  13.575
99192W        W67597  27.154  14.780   4.264
99193W        W67598  25.057  43.703   2.628
99194W        W67599  24.163   8.802   0.274
99195W        W67600  24.611  41.415   0.042
99196W        W67601  27.338  11.674   0.385
99197W        W67602  32.856  19.924   0.335
99198W        W67603  39.667  14.020   1.209
99199W        W67604  25.577   8.543  12.987
99200W        W67605  44.070   0.883   0.925
99201W        W67606  38.257  36.599   1.332
99202W        W67607   8.718   4.426  13.309
99203W        W67608  42.507  31.953   2.922
99204W        W67609   1.919  13.883  11.693
99205W        W67610  15.749   8.828   3.811
99206W        W67611  21.663  23.016   0.011
99207W        W67612   9.745  14.206  13.808
99208W        W67613  25.105  40.756   3.948
99209W        W67614  14.297  25.101  12.538
99210W        W67615  31.564  20.255  12.637
99211W        W67616  31.828  13.341  13.732
99212W        W67617   9.657  12.754   2.204
99213W        W67618  25.959   2.901  11.457
99214W        W67619   0.703  42.482  14.409
99215W        W67620  29.711  23.467   5.035
99216W        W67621  42.770  43.085   0.787
99217W        W67622   6.660  17.029   2.449
99218W        W67623  37.437   4.690   0.963
99219W        W67624  35.486  41.476  10.886
99220W        W67625  11.686   3.177  14.421
99221W        W67626  36.414  29.585  14.696
99222W        W67627  40.296   1.809  12.421
99223W        W67628  37.610  21.034  12.571
99224W        W67629   9.103   3.238   4.160
99225W        W67630  42.988  24.161   1.816
99226W        W67631  34.875  31.465   1.521
99227W        W67632  13.355  30.166   4.185
99228W        W67633  11.322   0.162  14.291
99229W        W67634  42.846  20.465  13.775
99230W        W67635  37.107  37.924  13.026
99231W        W67636  20.032  33.028   0.386
99232W        W67637  16.128  17.647  10.837
99233W        W67638  26.208  35.425   0.344
99234W        W67639  25.790  44.449   2.433
99235W        W67640  10.981  26.789  12.244
99236W        W67641  21.446   1.409   1.758
99237W        W67642  28.069   2.498  13.840
99238W        W67643  16.016  43.745   1.973
99239W        W67644  44.490   0.285  14.833
99240W        W67645  40.875  44.336   1.851
99241W        W67646   5.618  42.272   3.072
99242W        W67647  23.778  29.711  12.483
99243W        W67648   8.598  14.753   2.706
99244W        W67649  44.906  19.224  13.107
99245W        W67650  12.295  22.496   4.535
99246W        W67651   7.707   5.379  12.819
99247W        W67652  33.996   4.864  14.587
99248W        W67653  33.981  10.149  12.939
99249W        W67654  32.449   2.875   2.236
99250W        W67655  16.519   5.347   4.610
99251W        W67656  25.506  22.135  14.921
99252W        W67657  25.806  38.936  10.355
99253W        W67658  22.816   9.393  14.474
99254W        W67659  17.661  19.789  11.758
99255W        W67660  36.427  25.100   0.936
99256W        W67661  14.359  40.456   4.465
99257W        W67662  35.429  16.124   3.377
99258W        W67663   8.937  35.878  14.868
99259W        W67664  25.945  18.814   4.230
99260W        W67665  37.827  40.943   4.687
99261W        W67666  28.726  17.153  14.437
99262W        W67667  42.485  31.562   4.169
99263W        W67668  23.074  28.990   0.733
99264W        W67669  41.847  31.471   3.164
99265W        W67670  29.149  12.165   3.683
99266W        W67671  12.320  17.280   1.814
99267W        W67672   7.795  44.455  11.226
99268W        W67673   8.625  17.806  14.520
99269W        W67674  35.232  16.251   2.912
99270W        W67675  35.886  38.621  14.923
99271W        W67676  24.252  12.056  11.649
99272W        W67677  26.408  37.457   4.086
99273W        W67678  41.299  38.061  12.145
99274W        W67679  10.069  34.936  11.850
99275W        W67680  36.712   0.461   3.552
99276W        W67681  34.161   4.592  13.780
99277W        W67682  28.404  18.489  13.073
99278W        W67683  17.676  10.098  10.265
99279W        W67684  15.095  27.636  14.990
99280W        W67685  12.170  23.455   1.355
99281W        W67686  18.773   0.190   2.750
99282W        W67687  21.240  11.312  12.862
99283W        W67688  21.619  25.057  14.297
99284W        W67689  20.799   4.934   3.188
99285W        W67690  38.537  32.596   2.841
99286W        W67691   7.110  15.271   2.408
99287W        W67692  38.602   8.266  11.588
99288W        W67693  31.931  22.322   1.343
99289W        W67694   3.261  10.461   3.698
99290W        W67695   0.799  44.027  11.634
99291W        W67696  39.211  10.475   1.341
99292W        W67697  18.689  17.242   4.592
99293W        W67698  41.014  19.497  13.938
99294W        W67699   0.751  24.985   3.190
99295W        W67700  14.492  17.697  12.439
99296W        W67701  26.544  37.278  13.362
99297W        W67702  18.827  21.113   5.037
99298W        W67703   0.099   1.794   2.908
99299W        W67704   8.439  11.752  13.391
99300W        W67705  32.127  19.741   2.338
99301W        W67706  42.177  16.558   1.229
99302W        W67707  40.092  43.472   1.318
99303W        W67708   0.221  23.080  14.838
99304W        W67709  19.142   6.397   4.715
99305W        W67710  33.704  26.139   2.944
99306W        W67711   5.081  36.067   1.233
99307W        W67712   9.892  32.469  13.033
99308W        W67713  24.502  38.765  12.039
99309W        W67714  38.118  34.414   2.839
99310W        W67715  31.863  19.631   3.638
99311W        W67716  43.512  29.001   2.322
99312W        W67717  24.336  34.909  12.638
99313W        W67718   0.903  10.404  14.062
99314W        W67719  13.700  21.888   2.161
99315W        W67720  32.125  14.201   3.558
99316W        W67721   1.717   8.146   2.687
99317W        W67722  11.762  29.441  13.857
99318W        W67723  23.682   2.934  11.495
99319W        W67724  10.728  27.173   0.719
99320W        W67725  43.014  16.175   1.399
99321W        W67726  11.304  42.139  12.407
99322W        W67727   5.850   1.389  13.003
99323W        W67728  29.986  27.375  11.859
99324W        W67729  40.423  37.338   0.049
99325W        W67730  30.906   5.465   1.012
99326W        W67731  41.313  15.679  13.434
99327W        W67732   3.417  41.094  12.412
99328W        W67733  43.639  21.320   1.744
99329W        W67734   4.786  37.576  12.376
99330W        W67735  24.103  25.299  10.600
99331W        W67736  36.740  24.232   4.347
99332W        W67737  18.952  30.200  11.592
99333W        W67738  30.365  31.904  12.608
99334W        W67739   7.113   7.715   0.024
99335W        W67740  22.654  38.560  13.486
99336W        W67741  25.945  12.753  13.008
99337W        W67742  23.063  42.173   4.650
99338W        W67743   3.800  30.116   3.717
99339W        W67744  10.560  26.822  14.810
99340W        W67745   0.406  43.992   3.189
99341W        W67746  20.566  35.057  12.076
99342W        W67747  40.752   9.254   2.307
99343W        W67748   0.476   4.822  13.465
99344W        W67749  23.179  10.113  10.160
99345W        W67750  28.611   7.413   0.135
99346W        W67751  39.026  42.016   2.163
99347W        W67752  27.212  26.443  14.726
99348W        W67753  43.712  36.465  13.888
99349W        W67754  17.359   7.812   1.009
99350W        W67755  27.658   6.730   3.425
99351W        W67756  19.576  22.420  12.281
99352W        W67757  21.141  29.002   1.336
99353W        W67758  18.799   9.315  12.971
99354W        W67759   2.489  34.089   4.835
99355W        W67760   6.197  25.168  13.280
99356W        W67761   0.344  24.407  11.839
99357W        W67762  40.962  14.820   4.651
99358W        W67763   8.492  38.270  11.875
99359W        W67764  25.677  20.216   2.020
99360W        W67765  42.772  12.684   3.500
99361W        W67766  43.014  19.408   0.151
99362W        W67767  22.982  44.423   3.529
99363W        W67768   8.333  41.939   0.498
99364W        W67769   8.707  26.643   2.663
99365W        W67770  29.391  21.468   4.223
99366W        W67771  18.223  35.626  12.051
99367W        W67772  26.436  22.881  14.535
99368W        W67773  40.239  14.043  11.325
99369W        W67774  34.371  41.830   1.426
99370W        W67775  24.365  29.377  14.491
99371W        W67776   4.445  26.052  11.506
99372W        W67777  21.779  44.983   1.340
99373W        W67778  14.786  18.351  10.754
99374W        W67779  40.320  13.199  12.091
99375W        W67780  31.040  15.283  12.091
99376W        W67781  13.679  20.549   2.711
99377W        W67782  26.179  28.985  14.084
99378W        W67783  20.043  44.857  11.535
99379W        W67784  34.654  10.884  11.935
99380W        W67785  29.523  36.563   2.968
99381W        W67786  24.954  17.121   0.988
99382W        W67787  18.012  39.556   3.273
99383W        W67788  40.708  27.396  13.451
99384W        W67789  44.343  11.917   0.946
99385W        W67790   1.571  16.977   4.583
99386W        W67791  25.683  35.284   3.600
99387W        W67792  39.697  40.581   1.300
99388W        W67793  29.208   6.868   2.167
99389W        W67794  22.642  14.050   2.327
99390W        W67795  27.892   9.235  12.204
99391W        W67796  25.742  11.559   2.832
99392W        W67797  34.977  22.686   1.369
99393W        W67798   5.611  32.600  12.027
99394W        W67799   4.775  30.447   0.562
99395W        W67800  14.181  12.105  13.416
99396W        W67801  22.027  19.016   3.259
99397W        W67802  29.879   8.332  12.665
99398W        W67803  29.659  43.496   0.842
99399W        W67804  26.536  26.099   4.470
99400W        W67805   1.268  12.832  11.396
99401W        W67806  39.964  17.265   1.234
99402W        W67807   9.170  15.279  13.385
99403W        W67808   1.930   4.383   2.660
99404W        W67809  36.569  41.437   3.114
99405W        W67810  15.216  29.943   1.141
99406W        W67811  26.676  33.344   1.922
99407W        W67812   2.713   2.309   2.308
99408W        W67813   0.500  40.996  13.464
99409W        W67814  19.706  16.311   1.299
99410W        W67815  23.529  33.908  13.469
99411W        W67816  28.693  35.551   0.134
99412W        W67817  40.824  22.119  13.895
99413W        W67818  26.109  18.789   9.745
99414W        W67819  16.510  43.513  11.452
99415W        W67820   8.220   2.808   1.354
99416W        W67821  34.228  18.253  12.110
99417W        W67822  29.209  13.273   3.367
99418W        W67823  18.242  23.066  13.548
99419W        W67824   6.894  16.275   0.888
99420W        W67825   5.642   2.655  12.541
99421W        W67826   7.588  23.950  11.948
99422W        W67827  25.754  14.219  11.910
99423W        W67828  44.186   5.467   0.794
99424W        W67829   1.925  35.244   2.143
99425W        W67830  31.084  21.250  13.826
99426W        W67831   7.601   1.403  10.624
99427W        W67832  36.336  16.742  12.950
99428W        W67833  12.471  24.707  12.061
99429W        W67834  39.453  18.309   3.068
99430W        W67835   5.676   4.850   3.539
99431W        W67836   1.790  20.100  12.025
99432W        W67837   2.971  28.111  11.555
99433W        W67838  43.770   5.858  14.058
99434W        W67839  33.911  43.589   4.744
99435W        W67840  31.526  38.081   1.397
99436W        W67841  44.498  23.080   3.256
99437W        W67842  26.302  36.995  11.955
99438W        W67843  18.862  13.151   0.407
99439W        W67844  44.950  37.873  11.216
99440W        W67845  31.332  38.584   3.386
99441W        W67846   7.917  39.313  14.230
99442W        W67847  26.789  15.744  11.922
99443W        W67848  16.800  12.434  13.302
99444W        W67849  28.278  37.538   5.007
99445W        W67850  42.481   7.421  11.666
99446W        W67851  12.772  27.786  11.477
99447W        W67852  41.156   6.443  10.025
99448W        W67853  10.819  21.410  13.000
99449W        W67854  26.340  37.119  14.410
99450W        W67855   7.429  18.692  10.703
99451W        W67856   1.217  32.785  12.137
99452W        W67857   9.193  30.835  12.450
99453W        W67858  40.893  25.791   4.695
99454W        W67859  11.276   2.422   2.748
99455W        W67860  35.553  29.011   0.024
99456W        W67861   9.901  26.184  13.273
99457W        W67862  25.597  31.451  13.942
99458W        W67863  39.475  28.675   0.474
99459W        W67864  22.786  17.058   5.073
99460W        W67865  35.102  33.320  12.940
99461W        W67866  36.638  19.992   2.869
99462W        W67867  44.470   1.942   3.088
99463W        W67868  42.226  16.626   3.693
99464W        W67869  29.455   3.723   2.776
99465W        W67870   3.550   1.093   2.371
99466W        W67871   1.309  21.296  11.875
99467W        W67872  18.090  19.007   0.791
99468W        W67873  18.201  37.272  11.040
99469W        W67874  30.228  35.403  14.810
99470W        W67875  10.981  44.552  12.473
99471W        W67876  28.415  15.114   4.059
99472W        W67877  26.505  39.635  14.537
99473W        W67878   3.328  39.863   2.444
99474W        W67879  38.364  37.607   1.373
99475W        W67880  37.404  16.136   0.478
99476W        W67881  35.976  33.592   3.070
99477W        W67882  34.608   2.398  13.468
99478W        W67883  35.971   1.747  14.271
99479W        W67884  12.555  25.683  13.525
99480W        W67885   4.581  34.520  14.527
99481W        W67886   2.537  25.850  12.185
99482W        W67887  43.238  32.823  13.642
99483W        W67888  36.098  23.223  12.549
99484W        W67889   7.215   0.054   3.167
99485W        W67890  37.003  27.487  11.475
99486W        W67891  43.897  21.226   2.284
99487W        W67892  17.201  21.252  12.194
99488W        W67893  30.487  11.348  11.127
99489W        W67894  34.056  10.585   3.320
99490W        W67895  22.754  18.064  14.728
99491W        W67896  22.830  17.573   0.705
99492W        W67897  37.637  41.778   3.721
99493W        W67898  41.479  29.552  10.692
99494W        W67899  24.876   0.429   3.165
99495W        W67900  21.736  15.735   0.447
99496W        W67901  42.474  42.417  14.461
99497W        W67902  37.926  39.030   2.633
99498W        W67903   0.570  11.617  13.673
99499W        W67904  28.824  18.780   4.950
99500W        W67905  30.547  35.652   2.328
99501W        W67906  12.180  31.876  14.412
99502W        W67907  40.838  32.418  14.056
99503W        W67908  35.037  34.357   1.538
99504W        W67909  41.105  15.787   1.130
99505W        W67910  23.535  38.869  11.639
99506W        W67911   9.380   5.788   1.398
99507W        W67912  22.053  37.418  14.932
99508W        W67913  33.504  34.923   3.288
99509W        W67914  17.985   6.912  11.493
99510W        W67915  25.479  27.115   4.627
99511W        W67916   2.737  31.688  11.208
99512W        W67917  17.033  25.596  11.593
99513W        W67918  19.565  33.443  13.435
99514W        W67919  11.624  28.712   3.255
99515W        W67920  36.808   8.496   2.232
99516W        W67921  41.393  28.277   2.845
99517W        W67922  19.168  35.860   0.096
99518W        W67923  30.508  13.400  14.755
99519W        W67924   5.748  17.363   2.812
99520W        W67925  40.084   2.028  12.897
99521W        W67926  22.161  15.570  13.293
99522W        W67927  26.257  11.714  14.832
99523W        W67928   5.583  33.529   1.938
99524W        W67929  41.311  37.315  13.452
99525W        W67930  25.086  24.278  10.738
99526W        W67931  19.208  39.930  12.034
99527W        W67932  28.112  22.128  14.019
99528W        W67933   0.452  40.554   0.009
99529W        W67934  44.793  10.149  11.172
99530W        W67935  13.374   4.450  13.528
99531W        W67936   9.723  39.077   2.423
99532W        W67937   4.480   4.377   3.680
99533W        W67938   7.743  35.528   3.043
99534W        W67939  31.390  13.266  11.135
99535W        W67940   4.449  36.424  11.643
99536W        W67941  36.451  27.449   2.409
99537W        W67942  29.044  25.690  12.587
99538W        W67943  20.106  37.503   4.614
99539W        W67944  21.286  20.133  13.473
99540W        W67945  29.652  11.090  12.170
99541W        W67946  38.304   9.439   2.632
99542W        W67947  11.144   7.307   1.870
99543W        W67948   1.970  36.573   4.220
99544W        W67949  29.180  30.702  11.822
99545W        W67950  25.998   7.389   3.241
99546W        W67951  36.086  18.012  11.619
99547W        W67952  21.609   2.317  10.659
99548W        W67953  35.402  38.614   3.246
99549W        W67954  21.829   8.890  11.967
99550W        W67955  32.338  14.564  10.972
99551W        W67956  19.686  12.632  12.905
99552W        W67957  16.684   6.224  13.368
99553W        W67958   8.156  34.022  14.811
99554W        W67959   4.002  16.046  13.339
99555W        W67960  11.281  31.453  12.475
99556W        W67961  18.983  28.992  12.912
99557W        W67962  29.580  32.833   2.153
99558W        W67963   8.311   7.597   1.374
99559W        W67964  15.882  34.596   2.586
99560W        W67965  43.230  44.193   0.472
99561W        W67966  19.704  30.056  14.701
99562W        W67967  44.661  28.226  13.050
99563W        W67968   7.714  34.325   1.383
99564W        W67969   6.311  40.454   0.308
99565W        W67970  23.296  39.408  11.107
99566W        W67971  11.158   4.733  13.466
99567W        W67972  14.677  40.506   0.149
99568W        W67973  39.414  38.273   2.124
99569W        W67974   7.329  37.459   0.861
99570W        W67975  20.619  44.509  14.266
99571W        W67976  39.602  21.093  12.495
99572W        W67977  22.599  40.369  11.550
99573W        W67978  22.593  14.293   0.970
99574W        W67979  20.725   0.371   1.910
99575W        W67980  38.234   2.994  12.754
99576W        W67981  33.117   0.384   0.732
99577W        W67982  22.531  32.619   3.480
99578W        W67983  32.066  41.352   1.499
99579W        W67984  18.874  36.505  13.319
99580W        W67985   0.564   0.905   2.561
99581W        W67986  25.046  20.652   4.221
99582W        W67987  12.197  36.341  13.963
99583W        W67988  26.762  26.095   4.014
99584W        W67989   5.248   9.123  14.977
99585W        W67990  25.038  14.352   1.377
99586W        W67991  43.047  22.709   2.792
99587W        W67992  13.155  32.100  13.768
99588W        W67993  19.798   3.686  11.707
99589W        W67994   5.667  35.969  13.570
99590W        W67995  16.645   1.076  13.378
99591W        W67996  30.071   4.736   3.559
99592W        W67997  42.958   7.662  14.326
99593W        W67998  31.939  25.688   0.355
99594W        W67999  35.550  15.722   4.167
99595W        W68000  21.704  41.287  12.851
99596W        W68001   8.278  19.715  11.296
99597W        W68002  14.339  37.110   1.322
99598W        W68003  22.570  40.575   1.121
99599W        W68004   8.169   4.519   0.237
99600W        W68005   5.848   7.723  11.363
99601W        W68006  37.764   5.653  12.024
99602W        W68007  32.906  34.172   2.720
99603W        W68008  30.216  20.549  14.870
99604W        W68009  10.585  19.597   4.777
99605W        W68010   6.881   4.881   0.935
99606W        W68011  33.876  16.997  12.198
99607W        W68012  16.602  29.137  10.758
99608W        W68013  14.668   1.756   2.810
99609W        W68014  29.544  43.617  10.154
99610W        W68015  41.742  37.049  14.740
99611W        W68016   7.398  33.997   1.987
99612W        W68017   5.926  13.431   1.529
99613W        W68018  33.078  19.976   3.830
99614W        W68019  41.786   5.248  14.032
99615W        W68020  13.897   0.456   3.396
99616W        W68021  43.404  27.143   4.743
99617W        W68022   8.592  18.039  11.508
99618W        W68023  30.606  31.714   3.329
99619W        W68024  30.980  20.645  10.523
99620W        W68025  16.599   3.522   4.148
99621W        W68026   8.681  23.064   0.785
99622W        W68027  13.712  16.016  12.340
99623W        W68028  22.141   2.805   3.393
99624W        W68029  28.219  44.024  13.971
99625W        W68030  42.480  43.803  13.579
99626W        W68031   8.608   6.730   2.673
99627W        W68032  13.095  35.354  11.891
99628W        W68033  37.301  39.968   1.418
99629W        W68034  31.118   0.027  11.486
99630W        W68035  37.060   0.092  12.362
99631W        W68036  41.579  41.800   1.674
99632W        W68037   3.724  23.775   0.470
99633W        W68038  34.124   7.800   2.913
99634W        W68039  24.569  28.219   2.179
99635W        W68040   3.852  24.727   2.528
99636W        W68041  39.049   3.378   4.493
99637W        W68042  17.101   1.478  11.475
99638W        W68043  10.060  33.500  12.925
99639W        W68044  29.038   2.439  12.089
99640W        W68045  19.264  41.643  12.165
99641W        W68046  19.345   3.147   4.040
99642W        W68047  10.938  13.708  11.880
99643W        W68048  32.847  40.893   1.436
99644W        W68049  44.374  17.069  12.927
99645W        W68050  40.355  20.780  13.897
99646W        W68051  28.784  38.630   1.262
99647W        W68052   6.954  20.660  11.544
99648W        W68053  32.115  15.495   5.048
99649W        W68054  22.556   9.921   0.889
99650W        W68055  28.101  42.376  14.176
99651W        W68056  27.524  23.237  10.731
99652W        W68057   4.144   4.984   3.129
99653W        W68058  41.548   1.390   1.368
99654W        W68059  26.440   4.688   1.744
99655W        W68060  43.835  15.857   4.085
99656W        W68061  30.169   8.729  13.468
99657W        W68062  10.953  40.074  14.514
99658W        W68063  26.913  30.327  13.042
99659W        W68064  37.597  30.937  11.479
99660W        W68065  25.155  25.502  14.824
99661W        W68066   2.295   3.754   0.229
99662W        W68067  13.183   6.775   0.905
99663W        W68068  29.353   1.745   2.802
99664W        W68069   8.240   9.521   0.909
99665W        W68070  38.818  22.800   4.101
99666W        W68071  11.769  33.686  11.656
99667W        W68072  27.072  39.186   1.822
99668W        W68073  13.815  11.762   4.035
99669W        W68074  16.638  34.778  14.979
99670W        W68075   5.407   6.381   4.211
99671W        W68076  14.336  26.661  13.979
99672W        W68077  41.324  21.484   1.240
99673W        W68078  15.987  19.045  13.273
99674W        W68079  27.787  34.555   1.467
99675W        W68080  44.417  30.573   2.763
99676W        W68081  21.947  15.249  10.764
99677W        W68082  34.055  44.582  12.153
99678W        W68083  24.190  18.731   1.263
99679W        W68084  12.881  15.277   0.903
99680W        W68085  21.149   9.282  12.651
99681W        W68086  18.090   5.781  14.834
99682W        W68087   7.846   7.725  11.927
99683W        W68088  32.108   4.463  11.182
99684W        W68089  30.023  21.130  13.584
99685W        W68090  13.880  21.220   0.932
99686W        W68091  35.880  27.156  14.002
99687W        W68092  24.014  22.972  11.140
99688W        W68093  43.011  11.726   4.066
99689W        W68094  15.268  24.757   3.262
99690W        W68095  13.136  31.458  12.974
99691W        W68096  24.439  30.085  13.333
99692W        W68097  20.662   6.949   2.284
99693W        W68098  34.239  26.839   3.522
99694W        W68099  10.248  39.146   2.543
99695W        W68100  33.949  16.987  13.793
99696W        W68101  25.217  28.770  14.945
99697W        W68102  22.965  30.047   1.315
99698W        W68103   0.946  42.420  12.975
99699W        W68104  29.234  25.242   3.743
99700W        W68105   3.400  17.651  13.867
99701W        W68106  40.397  24.477   1.343
99702W        W68107  36.998   3.536  13.445
99703W        W68108  29.254   0.762  12.654
99704W        W68109  12.696  26.079  13.896
99705W        W68110  22.857  35.697  11.169
99706W        W68111  17.818  33.088  14.816
99707W        W68112  35.654  30.628   2.654
99708W        W68113  16.753  39.211   2.218
99709W        W68114  10.184   8.777  13.020
99710W        W68115  13.357  28.520  14.205
99711W        W68116   5.553  17.715  14.445
99712W        W68117  18.212  14.608   2.277
99713W        W68118  20.560  33.040   4.533
99714W        W68119  31.943  30.611  13.772
99715W        W68120  25.044   2.265  11.999
99716W        W68121  23.521   9.157  12.610
99717W        W68122   4.642   5.372  12.069
99718W        W68123   8.495  42.886   4.624
99719W        W68124  22.652  41.487  11.584
99720W        W68125  10.627  42.544   3.726
99721W        W68126  21.256   5.318   4.225
99722W        W68127  33.294   2.843  10.368
99723W        W68128   6.326   9.219  13.128
99724W        W68129   7.294  32.954   2.595
99725W        W68130  26.128  39.373  12.228
99726W        W68131  23.447  13.672  13.241
99727W        W68132  41.453  26.897   4.136
99728W        W68133  21.607  17.937  11.517
99729W        W68134  30.329  28.710   0.058
99730W        W68135   9.086  14.257  14.473
99731W        W68136   8.199  21.629  14.092
99732W        W68137  11.612  43.067   9.852
99733W        W68138  36.880  44.477  14.288
99734W        W68139  38.571  26.786   2.182
99735W        W68140  11.464  16.663   4.010
99736W        W68141  24.449  38.292   3.274
99737W        W68142   6.830  13.365   0.086
99738W        W68143  33.768  24.137  11.893
99739W        W68144  34.848  15.223   0.715
99740W        W68145   1.391  30.231   2.228
99741W        W68146  14.719  30.752   1.111
99742W        W68147  19.811  43.378  12.129
99743W        W68148  41.961  11.745  12.484
99744W        W68149  36.888  43.839  11.567
99745W        W68150   7.933   5.847  14.436
99746W        W68151  18.799  23.145   3.100
99747W        W68152  36.942  21.270  11.260
99748W        W68153  29.641  34.390   0.095
99749W        W68154   8.055   3.111   2.776
99750W        W68155  19.214  13.606   1.070
99751W        W68156  13.386  37.109   4.257
99752W        W68157  24.773   5.911   4.457
99753W        W68158  41.258  32.308  12.489
99754W        W68159  38.563   3.758  12.487
99755W        W68160  11.584  26.623   4.424
99756W        W68161   2.346  26.547   4.088
99757W        W68162  24.343  44.818   0.644
99758W        W68163  39.381  35.669  14.340
99759W        W68164   7.258  21.747  12.076
99760W        W68165   1.453   8.140  14.424
99761W        W68166   8.909  37.879   3.671
99762W        W68167   6.330  38.312   2.454
99763W        W68168   6.817   8.972   2.362
99764W        W68169  14.520  42.321   3.365
99765W        W68170  34.074  12.867  14.824
99766W        W68171  24.172  19.404   2.724
99767W        W68172  28.949  14.757   1.446
99768W        W68173  34.867   4.854   3.680
99769W        W68174   8.436  14.303   2.133
99770W        W68175  19.074   2.092  12.816
99771W        W68176  28.594   1.248  12.230
99772W        W68177  30.926  13.118   3.259
99773W        W68178  17.812  20.211   1.299
99774W        W68179  38.858  38.971   4.311
99775W        W68180  25.589  24.988  10.523
99776W        W68181  32.962  36.413   3.360
99777W        W68182  36.645   0.862   2.272
99778W        W68183  41.861   2.746  14.093
99779W        W68184  28.530   6.799  10.597
99780W        W68185  25.866  15.105   2.344
99781W        W68186  35.285  26.190  12.567
99782W        W68187  37.808  40.524   1.955
99783W        W68188  10.109  28.933   1.165
99784W        W68189   9.556  15.158  10.752
99785W        W68190  26.070  36.031  10.922
99786W        W68191  12.708  36.203  13.901
99787W        W68192  22.870   9.895   4.619
99788W        W68193  28.428  35.072  14.964
99789W        W68194   2.347  25.773   2.432
99790W        W68195  16.314   9.817  14.525
99791W        W68196   1.560  14.770  11.031
99792W        W68197   1.818  41.793   1.702
99793W        W68198  17.765  23.706   0.075
99794W        W68199  22.017  20.346   1.827
99795W        W68200  27.624  15.371   5.182
99796W        W68201  33.535  12.180  14.604
99797W        W68202  14.669   2.266   0.733
99798W        W68203  13.191  33.842   2.234
99799W        W68204  17.383  28.548  14.964
99800W        W68205  38.856  30.566  11.141
99801W        W68206   4.495  19.861   4.626
99802W        W68207  38.901   0.776   2.868
99803W        W68208  32.922   2.104  14.732
99804W        W68209  41.539  13.648   3.255
99805W        W68210  32.721  16.812  14.823
99806W        W68211   9.667  17.300   0.815
99807W        W68212  30.943   9.434   1.461
99808W        W68213  19.616  40.531  11.469
99809W        W68214  10.833  21.129  14.305
99810W        W68215  31.649   9.723   3.618
99811W        W68216  14.598  22.430  14.807
99812W        W68217  12.375  18.956  12.335
99813W        W68218  44.344  33.672   4.978
99814W        W68219  28.128  21.232  13.308
99815W        W68220  40.222  31.874   2.631
99816W        W68221  22.637  40.159  12.321
99817W        W68222  14.311  28.746  11.031
99818W        W68223  32.160  31.602   4.075
99819W        W68224   7.641  40.557  13.121
99820W        W68225  42.007  26.968   0.387
99821W        W68226  12.676   7.419   0.280
99822W        W68227  30.114  30.218   3.631
99823W        W68228  33.609  14.856  11.448
99824W        W68229  39.060  10.821   0.734
99825W        W68230   2.829   7.251  12.951
99826W        W68231  24.048  18.633  12.257
99827W        W68232  37.758  26.037   2.628
99828W        W68233   3.639  20.616  14.665
99829W        W68234  12.171  42.522   1.815
99830W        W68235  23.926  10.141  12.851
99831W        W68236  14.249   1.838  10.277
99832W        W68237   5.739   5.795  13.021
99833W        W68238   0.005   3.727  14.785
99834W        W68239   5.232  28.659  13.632
99835W        W68240  36.208  19.855   4.797
99836W        W68241  17.615   0.672   4.135
99837W        W68242   6.199  32.408   1.364
99838W        W68243  31.246  18.687   2.808
99839W        W68244   6.068  20.970  12.443
99840W        W68245  11.307   8.961  13.348
99841W        W68246  44.022  26.515  14.031
99842W        W68247  36.803  16.859   0.809
99843W        W68248  22.471   0.369   4.489
99844W        W68249  17.907  10.604   2.869
99845W        W68250   7.202   2.877  13.837
99846W        W68251  18.151  40.499   1.219
99847W        W68252  26.552  11.391   0.776
99848W        W68253  26.793  23.139  12.404
99849W        W68254  35.903  21.503   3.593
99850W        W68255  16.777   2.401  13.958
99851W        W68256  31.194  38.434  14.718
99852W        W68257  43.821  36.169   4.343
99853W        W68258   8.863  19.558   3.597
99854W        W68259  18.570  27.178   1.839
99855W        W68260  44.023  42.452  13.920
99856W        W68261  37.972  28.449   2.217
99857W        W68262   0.025  40.719  14.705
99858W        W68263   3.268  38.123  14.485
99859W        W68264  28.381  43.023   3.696
99860W        W68265  13.158  29.142  10.763
99861W        W68266  32.965  41.562  11.147
99862W        W68267  38.692   6.957   2.865
99863W        W68268  23.170  16.181   3.622
99864W        W68269   3.667   7.756   0.050
99865W        W68270  40.490  17.211   2.874
99866W        W68271  24.459  12.101   2.841
99867W        W68272  34.791  32.078   0.878
99868W        W68273  35.094  24.647   2.172
99869W        W68274  33.479  43.349  11.202
99870W        W68275  18.894   3.343   4.175
99871W        W68276  25.118   2.898  14.850
99872W        W68277  21.769  12.944  10.635
99873W        W68278  13.028  38.089   2.658
99874W        W68279  30.202  39.323  10.215
99875W        W68280  14.020  34.752   5.050
99876W        W68281  38.158  25.421  13.754
99877W        W68282  24.474   3.601   3.292
99878W        W68283  42.898   6.750   0.365
99879W        W68284   6.641  44.457  13.864
99880W        W68285  29.413  22.050  14.896
99881W        W68286   0.280  31.999   1.316
99882W        W68287  44.599  33.768   2.475
99883W        W68288  28.108   1.977   3.321
99884W        W68289  42.717  40.131  12.393
99885W        W68290  35.545  37.291   2.836
99886W        W68291   9.356   7.101  13.169
99887W        W68292  37.860   0.916   2.843
99888W        W68293   1.769  18.124  12.570
99889W        W68294  12.999  11.720   0.920
99890W        W68295  23.494  13.776   4.886
99891W        W68296  30.003  33.431   1.669
99892W        W68297  20.745  28.687   3.841
99893W        W68298   3.598  11.656   0.974
99894W        W68299  42.341  34.042  11.731
99895W        W68300  41.890  17.532  10.609
99896W        W68301  44.046  39.052  12.155
99897W        W68302  19.622  29.597  14.965
99898W        W68303  43.338  15.790   1.001
99899W        W68304  11.388   7.791   1.829
99900W        W68305   7.177  30.626   0.993
99901W        W68306   5.741   2.952  11.573
99902W        W68307   7.771  40.431  14.774
99903W        W68308   8.063  40.289  11.989
99904W        W68309   6.320  42.763  13.012
99905W        W68310  26.965  43.576   3.604
99906W        W68311  22.890  29.351   2.361
99907W        W68312  44.951  40.831  12.579
99908W        W68313   6.580  36.049   2.623
99909W        W68314  25.963  31.954   4.303
99910W        W68315  26.465  15.036   0.509
99911W        W68316   4.352  14.550   4.685
99912W        W68317  25.664  18.961   2.025
99913W        W68318  21.288  43.016  12.438
99914W        W68319  39.389   7.233   0.963
99915W        W68320  25.419  24.936   0.237
99916W        W68321   7.669   8.848   2.797
99917W        W68322  29.105  42.469  11.709
99918W        W68323  10.698  37.874  11.573
99919W        W68324  10.128   4.477   2.712
99920W        W68325   8.297   5.026   0.290
99921W        W68326  36.327  26.724   0.289
99922W        W68327   6.970   8.792   1.902
99923W        W68328  25.727  40.449  12.566
99924W        W68329  11.967  13.841  10.351
99925W        W68330  25.953   1.140   2.315
99926W        W68331  39.357  42.386   1.969
99927W        W68332  16.994  26.454   4.397
99928W        W68333  18.073  17.098   4.479
99929W        W68334  13.394  32.403   1.397
99930W        W68335  20.240  35.914  10.602
99931W        W68336   1.173  33.591  11.712
99932W        W68337  21.565  18.749   3.244
99933W        W68338  26.897  38.360   4.264
99934W        W68339  24.040  11.779   2.883
99935W        W68340  27.253  44.505   3.691
99936W        W68341  34.381  37.144  11.696
99937W        W68342  43.337   2.491  14.373
99938W        W68343  38.232  38.051  11.569
99939W        W68344  38.967  11.090  11.084
99940W        W68345  20.963   2.438   2.927
99941W        W68346  12.705  10.078   4.562
99942W        W68347  25.224  36.365   0.355
99943W        W68348  42.609   2.273   2.662
99944W        W68349  19.592  42.243   3.961
99945W        W68350  44.988  23.005  13.872
99946W        W68351  22.138  34.906   1.123
99947W        W68352  28.608  20.464  10.764
99948W        W68353  33.389  43.902   3.869
99949W        W68354  41.908  31.410  10.787
99950W        W68355  32.043  15.557  11.690
99951W        W68356  15.179  35.962   3.971
99952W        W68357  36.064   3.635   3.852
99953W        W68358   5.511  39.774   3.253
99954W        W68359   4.087  16.652   0.360
99955W        W68360  15.126  21.185   2.409
99956W        W68361  39.768  16.725   1.455
99957W        W68362  15.748  39.404   0.137
99958W        W68363  21.105   8.513  14.702
99959W        W68364  27.936   7.274   1.380
99960W        W68365  26.912  32.644  11.063
99961W        W68366   7.154  24.468  14.471
99962W        W68367  44.190   7.215   2.346
99963W        W68368   6.291  36.482  14.105
99964W        W68369  24.320   7.741   2.655
99965W        W68370  19.389  25.242   4.541
99966W        W68371   0.214  38.074   4.126
99967W        W68372  39.908  29.997  11.668
99968W        W68373  19.461  14.128   1.820
99969W        W68374  36.941  29.608  14.449
99970W        W68375  16.332   5.793   4.815
99971W        W68376  36.528   1.495   0.253
99972W        W68377   8.973   7.270   0.326
99973W        W68378  19.762  31.462  12.577
99974W        W68379  15.703   3.194  11.558
99975W        W68380  19.959  38.972   3.821
99976W        W68381  35.732  25.651   0.920
99977W        W68382  26.561  36.940   4.114
99978W        W68383  12.800  32.847   2.180
99979W        W68384  30.690  38.368  14.803
99980W        W68385  38.095  35.409  13.320
99981W        W68386  32.007   8.499  13.875
99982W        W68387  12.123  20.819  10.438
99983W        W68388  28.880  40.956   1.177
99984W        W68389  24.947  25.981   2.844
99985W        W68390  37.961  11.530   3.044
99986W        W68391   3.746  43.893   1.782
99987W        W68392  33.395   7.297   9.937
99988W        W68393  11.625  24.003   2.638
99989W        W68394  10.636  39.838  14.031
99990W        W68395  13.360  37.025   2.187
99991W        W68396   4.402  42.901  11.467
99992W        W68397  25.671  40.661  14.452
99993W        W68398  11.210  29.357   0.432
99994W        W68399  31.451  23.881   3.274
99995W        W68400  37.050   6.772   1.458
99996W        W68401  18.254  29.453   0.051
99997W        W68402  42.938   6.265   1.266
99998W        W68403  18.202  38.528   1.179
99999W        W68404  19.379  29.496  14.066
    0W        W68405  32.486   1.903   3.593
    1W        W68406  27.102  39.873  11.520
    2W        W68407  23.055  11.454   4.656
    3W        W68408   7.869  16.180   4.222
    4W        W68409  39.354  37.862   0.445
    5W        W68410  20.714  15.820   2.380
    6W        W68411   3.998  15.480  12.506
    7W        W68412  21.296  23.597   1.419
    8W        W68413  23.682  30.588   2.036
    9W        W68414  27.997  41.027   0.976
   10W        W68415  37.926  38.173  12.521
   11W        W68416  35.976  17.725  12.030
   12W        W68417  21.957  36.391  11.944
   13W        W68418  20.669   0.024  14.293
   14W        W68419  22.532  41.159   0.696
   15W        W68420  13.302  10.852   4.539
   16W        W68421  17.309  10.433   5.111
   17W        W68422  29.864  26.615  11.397
   18W        W68423  29.089  13.608   2.220
   19W        W68424  14.310  38.948  10.926
   20W        W68425  24.066   5.432   0.232
   21W        W68426  26.061  16.417   4.163
   22W        W68427  29.007  27.982   2.872
   23W        W68428   0.492   3.707   3.718
   24W        W68429  24.311  33.505  14.856
   25W        W68430  42.468  44.949   3.589
   26W        W68431  30.572   5.314  12.969
   27W        W68432  29.361  21.637   3.142
   28W        W68433  22.566  18.959   0.738
   29W        W68434  13.868   8.418  11.536
   30W        W68435   4.230   5.660  14.802
   31W        W68436  18.121  32.341   0.185
   32W        W68437  29.947  20.207  10.875
   33W        W68438   5.213   8.884  14.069
   34W        W68439   7.326  36.169   3.204
   35W        W68440   9.797   4.145   1.728
   36W        W68441   9.073  21.598  14.365
   37W        W68442  28.220  16.600  13.007
   38W        W68443  11.495  18.349   9.891
   39W        W68444  18.831   9.744   4.307
   40W        W68445  27.816   4.629   0.061
   41W        W68446  15.113   1.015   2.870
   42W        W68447   3.405  32.686  10.818
   43W        W68448  35.934  32.239   1.740
   44W        W68449   2.656  29.251   3.672
   45W        W68450   2.816  42.519  14.820
   46W        W68451  24.032  20.638  11.960
   47W        W68452   0.456  36.134   4.659
   48W        W68453   8.374  12.154   2.172
   49W        W68454  43.843  32.806   4.821
   50W        W68455  26.492  23.948   3.005
   51W        W68456  14.514  17.505   4.456
   52W        W68457  30.365  25.582  12.550
   53W        W68458  19.001  42.013  12.819
   54W        W68459  39.745   9.007   4.585
   55W        W68460  39.912  36.352   1.629
   56W        W68461  29.415  26.029  12.880
   57W        W68462  37.438   0.288  13.273
   58W        W68463  33.020  12.290  12.957
   59W        W68464  27.605  22.999  14.062
   60W        W68465  40.383  41.312  11.794
   61W        W68466  30.332   4.184   3.128
   62W        W68467  38.890  32.635  11.182
   63W        W68468   7.331   6.730  14.942
   64W        W68469  11.643   7.042  12.496
   65W        W68470  16.037  18.670   3.188
   66W        W68471  11.212  13.260  11.960
   67W        W68472  23.273  33.464   4.438
   68W        W68473  17.496  28.656   0.877
   69W        W68474   7.217  13.748  13.356
   70W        W68475  36.639  27.458   0.818
   71W        W68476   4.904  12.034   4.559
   72W        W68477   7.317  12.800  14.774
   73W        W68478  16.092  26.420   4.163
   74W        W68479  19.206   2.834   1.858
   75W        W68480   6.922  31.898   2.384
   76W        W68481   6.430   9.755  10.770
   77W        W68482  30.076  26.732   1.298
   78W        W68483  23.109  25.588  12.148
   79W        W68484  36.218  20.541   0.304
   80W        W68485  28.674   8.109  14.233
   81W        W68486  14.780  30.339   5.023
   82W        W68487   8.777   7.329   1.227
   83W        W68488  29.747  18.012  11.157
   84W        W68489   0.231   3.770   2.671
   85W        W68490   9.695   5.164  12.979
   86W        W68491  38.885  13.631  13.972
   87W        W68492  33.250  12.140   3.168
   88W        W68493  31.231  40.645  13.908
   89W        W68494  40.307   0.521  13.319
   90W        W68495  15.621   3.363  13.413
   91W        W68496  10.027   1.403  13.194
   92W        W68497  42.946   7.208  14.060
   93W        W68498  17.242   4.129   1.882
   94W        W68499   4.393   6.749  12.618
   95W        W68500   8.800  40.304  14.832
   96W        W68501  13.084   5.742  13.242
   97W        W68502  24.074  26.551   4.115
   98W        W68503  41.315  12.730   0.393
   99W        W68504  22.956  19.314   0.762
  100W        W68505  43.793  21.030   2.765
  101W        W68506  17.694  40.862  11.046
  102W        W68507  36.048   1.966   1.719
  103W        W68508   5.378  32.752   4.147
  104W        W68509  34.078  33.690   3.278
  105W        W68510  23.137  16.798  11.168
  106W        W68511  23.981   5.425   2.250
  107W        W68512  39.342   1.446   3.655
  108W        W68513   8.103  24.544   0.289
  109W        W68514  44.827   4.320  13.141
  110W        W68515  11.294  14.333   4.643
  111W        W68516   6.323  11.931  10.754
  112W        W68517  43.949  10.657   3.328
  113W        W68518  36.612   2.401  12.948
  114W        W68519  29.997  31.016   1.404
  115W        W68520  30.296   9.478   2.223
  116W        W68521  13.333  29.830   2.279
  117W        W68522  27.749  10.716   4.356
  118W        W68523  29.554  43.792  12.893
  119W        W68524  30.443  20.321  11.601
  120W        W68525  39.543   2.233  11.565
  121W        W68526   5.761  33.095   3.999
  122W        W68527   6.611  20.302  11.602
  123W        W68528  11.172  12.172   0.023
  124W        W68529  43.668   5.321   2.724
  125W        W68530  11.615  11.191  14.764
  126W        W68531  30.132  39.326  13.867
  127W        W68532  28.696  20.791   2.855
  128W        W68533   9.254  15.145   2.151
  129W        W68534  34.613   1.975   2.019
  130W        W68535   4.875  28.980  12.052
  131W        W68536  44.834  33.822   1.163
  132W        W68537  24.552   0.809   2.246
  133W        W68538  17.083  41.966  11.663
  134W        W68539  42.784  12.355  14.872
  135W        W68540  33.086  36.310   1.866
  136W        W68541  35.038   6.144  13.503
  137W        W68542   4.339  36.185   1.295
  138W        W68543   8.544  39.463  13.078
  139W        W68544  13.683  29.413   1.095
  140W        W68545  31.656   6.946   3.824
  141W        W68546  18.256  33.341  10.743
  142W        W68547   8.338  41.958   1.724
  143W        W68548  19.573  24.776  14.636
  144W        W68549  13.883  37.391  13.766
  145W        W68550   1.283  17.316  13.902
  146W        W68551  24.223  14.414  11.195
  147W        W68552  13.203   9.980  13.333
  148W        W68553  41.015  26.543  13.497
  149W        W68554  22.712  12.174   4.309
  150W        W68555  39.144  22.463  13.855
  151W        W68556  22.278  31.047   4.591
  152W        W68557   3.487  22.801   9.980
  153W        W68558   4.463  28.238   3.091
  154W        W68559   5.751  19.238  14.436
  155W        W68560   8.755  40.713  10.690
  156W        W68561  18.765  22.471  12.519
  157W        W68562   6.842  11.750  11.921
  158W        W68563   0.589   5.738  10.284
  159W        W68564   1.172  10.453  12.597
  160W        W68565  22.714  15.523   2.335
  161W        W68566  19.721  14.805   2.403
  162W        W68567  35.571   4.404   3.134
  163W        W68568  26.566   2.735   1.881
  164W        W68569  15.305  41.483   4.203
  165W        W68570   9.436  39.012  12.637
  166W        W68571  12.833  39.396  14.419
  167W        W68572  44.255  33.387  14.334
  168W        W68573  41.285  36.448   4.203
  169W        W68574  11.331  14.029  11.690
  170W        W68575  41.453  19.170  14.525
  171W        W68576   4.724  18.988   1.676
  172W        W68577   4.326   1.859   2.624
  173W        W68578  33.632  34.216  12.469
  174W        W68579  31.742  33.185   5.184
  175W        W68580   2.366  27.898  10.909
  176W        W68581  13.431  25.991   1.931
  177W        W68582  26.093  20.246  14.761
  178W        W68583  34.675  32.484  13.961
  179W        W68584  14.207  12.685  10.764
  180W        W68585  41.438  13.753  12.996
  181W        W68586  42.377   6.535   2.853
  182W        W68587  11.766  34.705  10.806
  183W        W68588  41.397  37.438   2.197
  184W        W68589   5.776  30.823  14.361
  185W        W68590   7.181   8.238  13.381
  186W        W68591  26.398  16.351   9.793
  187W        W68592  10.019  29.378  14.353
  188W        W68593  35.810  11.249   1.373
  189W        W68594  12.593   2.288   1.445
  190W        W68595  24.521  31.700   2.749
  191W        W68596  43.260   6.947   3.266
  192W        W68597  11.184  34.304   3.252
  193W        W68598   7.935  35.624   0.230
  194W        W68599  30.559  17.965  11.467
  195W        W68600  11.305  20.910   1.293
  196W        W68601  16.105   7.808   4.341
  197W        W68602  38.890   7.825   0.834
  198W        W68603  37.534   5.289   1.030
  199W        W68604  24.107  22.104  11.259
  200W        W68605   1.436  27.200   2.178
  201W        W68606  26.336  27.635   1.275
  202W        W68607  25.986   9.851  10.885
  203W        W68608  19.804   2.995   3.869
  204W        W68609  17.678  16.528  13.275
  205W        W68610  34.707  13.179   0.651
  206W        W68611  27.287   4.770   0.167
  207W        W68612   2.269   2.864  12.347
  208W        W68613  44.552  43.282   1.845
  209W        W68614  12.194  36.258   2.038
  210W        W68615   6.167  44.267   3.741
  211W        W68616  19.345  14.030   3.680
  212W        W68617  13.939  24.149   0.637
  213W        W68618  43.750   6.763   3.171
  214W        W68619  44.227   2.660  11.981
  215W        W68620  22.084   3.867   2.222
  216W        W68621   6.232  15.628  12.036
  217W        W68622  39.386  39.029  12.567
  218W        W68623  15.612  18.229   2.850
  219W        W68624  44.500  30.633  11.139
  220W        W68625  32.469  32.153  13.116
  221W        W68626  19.371   5.758  10.450
  222W        W68627  42.295   1.312   0.966
  223W        W68628  17.596   1.126  13.022
  224W        W68629  37.776  16.464  13.733
  225W        W68630  28.077  11.549   4.656
  226W        W68631  25.591  20.213   2.530
  227W        W68632  39.303  40.991   3.546
  228W        W68633  16.557  12.017  12.523
  229W        W68634   4.130  10.665   0.088
  230W        W68635  35.719  19.719  11.184
  231W        W68636  20.372  13.667  11.168
  232W        W68637  22.959  37.004   0.876
  233W        W68638  20.382  35.820   4.195
  234W        W68639  37.657  33.445   3.272
  235W        W68640  15.284   6.342  10.678
  236W        W68641  22.226  40.473   0.454
  237W        W68642  39.823  35.907  14.203
  238W        W68643  17.696   8.053   2.707
  239W        W68644  10.233  25.023   3.238
  240W        W68645  44.749  25.985  11.162
  241W        W68646  19.413  36.788  14.287
  242W        W68647   3.697  14.844  10.485
  243W        W68648  37.580  13.407   5.042
  244W        W68649  26.878  31.703   0.206
  245W        W68650  20.871  29.581  13.958
  246W        W68651  23.489  21.666   0.999
  247W        W68652  30.088  41.362   4.071
  248W        W68653  11.690  14.890   2.221
  249W        W68654   3.126   5.795   4.330
  250W        W68655  39.946  39.057   1.046
  251W        W68656  29.599  35.282  13.886
  252W        W68657  14.831   6.286   3.100
  253W        W68658  19.822  21.281   4.577
  254W        W68659  32.648  16.378   2.877
  255W        W68660  14.691  32.805   0.914
  256W        W68661  14.092  16.805  13.450
  257W        W68662  34.016  40.925  12.439
  258W        W68663   0.595  15.192  13.501
  259W        W68664  12.343  20.593   2.976
  260W        W68665  35.637  30.574  13.686
  261W        W68666  36.879  10.986  11.172
  262W        W68667  44.022  22.182   2.167
  263W        W68668  14.819  27.962   4.696
  264W        W68669  34.591   4.507   4.037
  265W        W68670   8.914  35.605  12.977
  266W        W68671  32.789  40.383   4.011
  267W        W68672  15.594  43.939  14.854
  268W        W68673  34.407  35.935   4.789
  269W        W68674  29.986  44.988   3.146
  270W        W68675  22.927  41.481  13.768
  271W        W68676   7.944  27.142   4.479
  272W        W68677  27.889  38.967   0.879
  273W        W68678  14.571  37.978   1.351
  274W        W68679   6.285  20.287   4.236
  275W        W68680  36.810  17.660  12.925
  276W        W68681  37.951  40.624   1.465
  277W        W68682  34.695   2.922  11.541
  278W        W68683   3.463  42.260  13.989
  279W        W68684  21.663  34.970   4.727
  280W        W68685  13.874  37.804   1.791
  281W        W68686  26.628  33.967   1.217
  282W        W68687  36.814  28.174  12.956
  283W        W68688   6.779  43.466   4.256
  284W        W68689  32.927  20.632   0.240
  285W        W68690  36.205   0.535   3.669
  286W        W68691   4.253  20.029   1.777
  287W        W68692  15.722  10.364   3.212
  288W        W68693  26.750   5.827  11.210
  289W        W68694  16.336   7.971  13.082
  290W        W68695  28.249  41.992  12.411
  291W        W68696  32.922  31.854   0.708
  292W        W68697   4.345  32.806   4.283
  293W        W68698   8.746  18.216  14.835
  294W        W68699   1.927  21.289   3.806
  295W        W68700  25.470  23.692  13.859
  296W        W68701  20.761  16.832  13.999
  297W        W68702  36.859   9.592   4.195
  298W        W68703  22.881  11.951  13.116
  299W        W68704  26.167  32.202   3.404
  300W        W68705  25.786  10.108   1.823
  301W        W68706   3.963  29.435  10.356
  302W        W68707  35.456  21.272   3.695
  303W        W68708  25.067  34.984  11.982
  304W        W68709  26.679  33.125   3.269
  305W        W68710  34.127   2.552   0.486
  306W        W68711  38.458   5.355  14.226
  307W        W68712  31.444  15.138   2.260
  308W        W68713  33.662   8.984  11.028
  309W        W68714  23.218  21.208  12.648
  310W        W68715  15.548   0.363  13.947
  311W        W68716  20.928   6.920  12.005
  312W        W68717  12.748  15.593   3.086
  313W        W68718   3.323  30.472  14.951
  314W        W68719  29.470  24.961   1.429
  315W        W68720  25.166  16.183   4.394
  316W        W68721  44.717  41.443  13.424
  317W        W68722  22.444  33.056   1.312
  318W        W68723  39.356  30.987   4.793
  319W        W68724   0.422  44.348  14.862
  320W        W68725  16.081   7.922   2.888
  321W        W68726  44.738  18.242   4.884
  322W        W68727  13.617  38.618  14.360
  323W        W68728   3.814  37.572   3.943
  324W        W68729  30.409  29.492   2.335
  325W        W68730  26.435  14.514  11.557
  326W        W68731   7.712  31.607  14.600
  327W        W68732   8.821  29.587  12.853
  328W        W68733   3.617  29.938   3.270
  329W        W68734  23.644  33.835   4.726
  330W        W68735  39.975  18.920   1.238
  331W        W68736  34.004   9.149   4.573
  332W        W68737  40.749  42.215   1.441
  333W        W68738  40.330  42.880  10.702
  334W        W68739  25.549  18.840   4.564
  335W        W68740  24.677  14.636  11.209
  336W        W68741  36.644   6.681   4.134
  337W        W68742  43.808  25.256  12.515
  338W        W68743   5.139  30.865  14.854
  339W        W68744  25.854   1.530  14.734
  340W        W68745  35.017  19.775   2.424
  341W        W68746  26.800  26.541  10.717
  342W        W68747  37.419  11.663  13.968
  343W        W68748  22.730  33.883  12.035
  344W        W68749  36.568   8.357   0.808
  345W        W68750   4.007  10.228   9.991
  346W        W68751  37.525   3.270  10.976
  347W        W68752  31.265  21.740  14.154
  348W        W68753  37.459  30.382  14.523
  349W        W68754  36.600  23.570   2.183
  350W        W68755   4.143  22.928   3.596
  351W        W68756  24.540  33.859   3.141
  352W        W68757  38.104  40.937   4.232
  353W        W68758  42.540  35.328  10.743
  354W        W68759  26.851   0.903   4.564
  355W        W68760  25.430  16.330   0.658
  356W        W68761   3.674  11.201   0.732
  357W        W68762   7.809  23.598   1.796
  358W        W68763  27.593   6.544  11.968
  359W        W68764  12.368  13.298   3.116
  360W        W68765  16.997  23.814  12.954
  361W        W68766  13.068  25.809   4.087
  362W        W68767   8.169  34.410   1.142
  363W        W68768   6.318  44.202   2.423
  364W        W68769   7.886  42.855   1.896
  365W        W68770   7.739   8.703  14.858
  366W        W68771   2.755  16.834  12.060
  367W        W68772  38.876   5.753  13.027
  368W        W68773  42.660  32.116  10.723
  369W        W68774  19.705  29.433  14.474
  370W        W68775   1.398   1.178  13.167
  371W        W68776  29.398   6.811   2.666
  372W        W68777  31.483   8.591  13.014
  373W        W68778   2.844  35.469  14.523
  374W        W68779  33.614  12.161   0.477
  375W        W68780  33.205   2.414   0.508
  376W        W68781  32.166  30.424   1.296
  377W        W68782  17.202   1.238  10.595
  378W        W68783  30.254  43.800  12.408
  379W        W68784   5.384  37.696  12.966
  380W        W68785  29.116  31.884   0.517
  381W        W68786  16.096  26.865   0.743
  382W        W68787  37.831  20.118   2.220
  383W        W68788  43.553  43.496  13.444
  384W        W68789   8.919  12.680   0.785
  385W        W68790   6.396  32.119   2.630
  386W        W68791  16.140  29.600  12.103
  387W        W68792  25.092   6.374   3.298
  388W        W68793   3.503   9.695   4.827
  389W        W68794   2.799  10.822   0.249
  390W        W68795  12.233  34.394  14.961
  391W        W68796  20.072  10.310   4.886
  392W        W68797  43.654  13.317  12.660
  393W        W68798   2.244  10.603   1.956
  394W        W68799  19.978   5.091  13.837
  395W        W68800  30.871  19.430  11.117
  396W        W68801   8.011  22.653   2.541
  397W        W68802   1.400   2.991  12.885
  398W        W68803   0.375  37.825   2.802
  399W        W68804  18.808  21.635   1.841
  400W        W68805   1.819   4.178  11.139
  401W        W68806  10.905  34.140  13.516
  402W        W68807  42.586  12.763  13.045
  403W        W68808  19.237  31.533  12.569
  404W        W68809  28.138  27.937   3.110
  405W        W68810  43.886  19.673  12.881
  406W        W68811  38.534  15.603   5.023
  407W        W68812   2.498   8.842   2.950
  408W        W68813   8.202  19.557   0.832
  409W        W68814  43.696   5.809   4.602
  410W        W68815  40.052  26.043  11.034
  411W        W68816  15.698  15.425   3.671
  412W        W68817  39.301  32.507  14.367
  413W        W68818  40.522  41.841   3.776
  414W        W68819  26.956  31.463  12.009
  415W        W68820  37.248  17.771   4.212
  416W        W68821  29.519  15.427  12.894
  417W        W68822   5.968  33.911   4.546
  418W        W68823  18.208  21.653   3.268
  419W        W68824  35.102  29.009  14.427
  420W        W68825   3.446  28.785  11.561
  421W        W68826   3.258  32.594   3.659
  422W        W68827   4.745  32.393  11.094
  423W        W68828   7.415   3.257   1.749
  424W        W68829   2.913  25.686   2.460
  425W        W68830  29.139  36.126  12.105
  426W        W68831  15.106  19.458   1.763
  427W        W68832  29.095   8.495   0.574
  428W        W68833   1.023  27.076  13.077
  429W        W68834  38.799  10.678   2.152
  430W        W68835  31.410  29.344  13.154
  431W        W68836   5.774  35.902   3.268
  432W        W68837   9.777  22.638  10.896
  433W        W68838   4.770  31.468   2.854
  434W        W68839  23.072   9.852   3.699
  435W        W68840  20.077  10.231  13.895
  436W        W68841  17.775  18.153   1.735
  437W        W68842  25.912  42.773  10.560
  438W        W68843   2.221  10.791   3.952
  439W        W68844   6.906  23.694  12.905
  440W        W68845  38.963  32.909  14.380
  441W        W68846  27.719  15.268   4.690
  442W        W68847  30.183   7.821  11.554
  443W        W68848  35.996  44.503  10.628
  444W        W68849  43.755  41.289  14.820
  445W        W68850  28.709   9.058  12.482
  446W        W68851   8.011   9.169   1.893
  447W        W68852   7.308  13.688   1.203
  448W        W68853   0.368   7.951  12.407
  449W        W68854  26.806  42.731   4.627
  450W        W68855  15.293  43.421   3.676
  451W        W68856   8.483  20.775   0.474
  452W        W68857  17.957   0.515   0.952
  453W        W68858  31.890   4.749   4.099
  454W        W68859  36.487   3.410   3.690
  455W        W68860  12.753  35.698   1.682
  456W        W68861  19.801  37.005   2.715
  457W        W68862  34.836  42.543   1.274
  458W        W68863   0.592  14.501   1.270
  459W        W68864  11.864  16.160   0.428
  460W        W68865  18.286  39.494   1.400
  461W        W68866   9.614  32.439   3.548
  462W        W68867  41.980   1.774   4.592
  463W        W68868  41.652  33.423   4.126
  464W        W68869  27.479  10.953   2.923
  465W        W68870  37.369  12.247   2.949
  466W        W68871   0.925  11.641  14.677
  467W        W68872  38.360  34.927  12.122
  468W        W68873   9.930  25.576  14.973
  469W        W68874   3.320   7.421   0.263
  470W        W68875  27.947  17.423  11.522
  471W        W68876   3.186  19.324   0.441
  472W        W68877  15.205  33.419   2.269
  473W        W68878   7.347  21.037   2.855
  474W        W68879  16.134   5.111  12.142
  475W        W68880  24.991  27.963  14.863
  476W        W68881   7.804  24.971  14.036
  477W        W68882  33.299  10.710  11.482
  478W        W68883  13.597  13.903  14.037
  479W        W68884  43.476  10.664  11.260
  480W        W68885  31.823  28.107  11.484
  481W        W68886  40.372  35.180  12.512
  482W        W68887   2.807   8.114  11.997
  483W        W68888  42.321  21.542   0.238
  484W        W68889  37.957   5.046  14.797
  485W        W68890  35.636  15.844  13.586
  486W        W68891   7.477  34.027   0.719
  487W        W68892  21.184  24.716   2.753
  488W        W68893  33.173  34.326  14.373
  489W        W68894  14.257   9.550   3.795
  490W        W68895   8.335   7.624  10.706
  491W        W68896  37.891  30.666   3.189
  492W        W68897  10.837  16.428   2.285
  493W        W68898  12.675  32.999   2.765
  494W        W68899  35.664  25.290  12.571
  495W        W68900  28.053  28.152   2.641
  496W        W68901  11.488  11.954   4.216
  497W        W68902  29.907  26.914  10.973
  498W        W68903  40.598  44.257   1.404
  499W        W68904  37.497  14.865   0.795
  500W        W68905  43.571  17.202   3.724
  501W        W68906   3.066  13.123   1.663
  502W        W68907  42.557  37.919  13.384
  503W        W68908  30.081  43.302   0.604
  504W        W68909   0.600  13.568   2.667
  505W        W68910  14.112   8.712   4.085
  506W        W68911  43.008  33.639   4.925
  507W        W68912  36.390  21.424   0.521
  508W        W68913  43.659  43.317  12.506
  509W        W68914  28.780   6.135  10.674
  510W        W68915   4.797  39.875   1.359
  511W        W68916  26.809  17.134  14.746
  512W        W68917  44.288  13.681  11.587
  513W        W68918   7.187  25.105   0.341
  514W        W68919  39.476   5.234   2.678
  515W        W68920  36.558   6.193   4.059
  516W        W68921   0.773   0.845   4.610
  517W        W68922  35.977  10.448  11.103
  518W        W68923  39.867   3.303  12.576
  519W        W68924  32.491  23.635   2.261
  520W        W68925  33.029   4.317  10.860
  521W        W68926  36.766  39.360  12.982
  522W        W68927  32.591  37.315  12.498
  523W        W68928   1.394  19.014   2.820
  524W        W68929   4.086  20.224   1.305
  525W        W68930  44.256   2.883  14.284
  526W        W68931  32.381  42.326  13.929
  527W        W68932  35.103  40.413   3.197
  528W        W68933  23.517  22.890   1.639
  529W        W68934  33.582   7.188   2.666
  530W        W68935  23.797  15.583   1.345
  531W        W68936  44.550  43.589  11.159
  532W        W68937  28.110   0.689  11.465
  533W        W68938  22.802  13.050   1.379
  534W        W68939  32.676  35.878   4.185
  535W        W68940  30.995  33.059  13.461
  536W        W68941   3.873  34.634  13.595
  537W        W68942  33.605  32.708  14.882
  538W        W68943  11.377  26.107  11.589
  539W        W68944  21.464  43.900  13.093
  540W        W68945  24.661  41.110  12.753
  541W        W68946  29.519   8.060  11.050
  542W        W68947   7.390  38.811  13.037
  543W        W68948  43.604  34.809  13.749
  544W        W68949  33.637  24.273  13.310
  545W        W68950  26.548  39.368  11.932
  546W        W68951  14.316  36.569   1.215
  547W        W68952  17.681   6.608   2.804
  548W        W68953  23.537  43.151  11.626
  549W        W68954  25.582   5.302  12.378
  550W        W68955  12.640  16.603  13.077
  551W        W68956   9.082  39.037   1.721
  552W        W68957   8.403  17.210  11.552
  553W        W68958  14.762  38.517   0.235
  554W        W68959  43.250  33.417   3.174
  555W        W68960  30.928  28.126  13.501
  556W        W68961  13.529   4.225  12.004
  557W        W68962  20.225  28.425   2.652
  558W        W68963   1.921  19.069   1.683
  559W        W68964   4.243  15.374   2.743
  560W        W68965  12.939  10.049   4.100
  561W        W68966  20.395   2.893   1.364
  562W        W68967   9.398  29.253   2.694
  563W        W68968  13.827  14.920   2.142
  564W        W68969   6.508  38.844   3.151
  565W        W68970  22.967  18.266   1.074
  566W        W68971   9.073   4.828  11.240
  567W        W68972  36.328  24.086  12.348
  568W        W68973  17.850  37.327   1.822
  569W        W68974  40.748  26.147   2.743
  570W        W68975  35.458  18.111   1.312
  571W        W68976  22.519  27.367   1.643
  572W        W68977  24.237  40.016  14.979
  573W        W68978  39.154  13.770  11.875
  574W        W68979  17.239  25.148  14.077
  575W        W68980  15.592  37.443   3.305
  576W        W68981   4.370  43.687  13.095
  577W        W68982  35.632  30.078  12.564
  578W        W68983  43.413  37.382   3.243
  579W        W68984  14.203  43.333  11.794
  580W        W68985   0.411  15.345  12.125
  581W        W68986  19.527  33.801   2.207
  582W        W68987  19.356  16.198  11.927
  583W        W68988   0.177  22.922  11.497
  584W        W68989  37.609   3.397   2.671
  585W        W68990  23.056  30.547  14.614
  586W        W68991   4.720  40.088   1.809
  587W        W68992   5.316   6.218  12.463
  588W        W68993  29.050  23.633   2.217
  589W        W68994  13.331  21.534   2.837
  590W        W68995  16.806   2.222   0.694
  591W        W68996  32.074  26.938  10.584
  592W        W68997   9.846   2.660  11.202
  593W        W68998  13.818   3.506   0.095
  594W        W68999  12.151  42.861   1.117
  595W        W69000  39.738  21.341   2.573
  596W        W69001  36.425  28.402   1.924
  597W        W69002  32.610  23.883  11.080
  598W        W69003  39.777  37.471  12.435
  599W        W69004  14.442  44.305   0.025
  600W        W69005  35.944  11.458   5.066
  601W        W69006   5.923  35.072  13.631
  602W        W69007  31.227  38.829  14.376
  603W        W69008   1.548  34.997   0.290
  604W        W69009  38.021   4.220   2.669
  605W        W69010  24.032  23.794  12.634
  606W        W69011  28.880  41.007   2.122
  607W        W69012  19.520  43.811   0.280
  608W        W69013  44.878  26.514  14.248
  609W        W69014  31.972  30.063   5.010
  610W        W69015  42.114   5.634   3.866
  611W        W69016  41.369   4.353  12.864
  612W        W69017  38.144  44.665  13.176
  613W        W69018   8.358  24.981  11.944
  614W        W69019  25.744   7.098   4.536
  615W        W69020  19.290  27.442  13.872
  616W        W69021  27.220  11.952   0.821
  617W        W69022  20.727   2.936   1.885
  618W        W69023  21.529   1.726   3.587
  619W        W69024  24.651  27.663  12.616
  620W        W69025  37.948  23.035  14.315
  621W        W69026  11.628  13.192  12.431
  622W        W69027   6.889  18.347   0.371
  623W        W69028   1.787  21.982  12.028
  624W        W69029  23.283  38.848   3.561
  625W        W69030   5.686  34.303  11.326
  626W        W69031  42.210  31.479  13.474
  627W        W69032  10.754  18.908   0.981
  628W        W69033  22.741  24.226   3.195
  629W        W69034   1.799  14.680  10.599
  630W        W69035  23.297  17.394   3.202
  631W        W69036  31.071   7.766  14.535
  632W        W69037   3.474   1.227   4.109
  633W        W69038   7.190  21.289  11.166
  634W        W69039  12.312  38.675  12.531
  635W        W69040  37.485  36.056  13.963
  636W        W69041  15.468  23.131   4.680
  637W        W69042   4.312   4.675   1.219
  638W        W69043  34.856  35.593  10.467
  639W        W69044  14.287  25.684   2.090
  640W        W69045  26.094  14.757  12.939
  641W        W69046  35.363  29.504   3.309
  642W        W69047   2.514  43.276  14.350
  643W        W69048  40.398  18.361   3.875
  644W        W69049   3.901   9.284  13.573
  645W        W69050  29.245   3.995   2.391
  646W        W69051  34.827  13.154  13.857
  647W        W69052  36.303  23.067  11.220
  648W        W69053  36.013  16.451   2.682
  649W        W69054   4.954  11.947  13.385
  650W        W69055  36.399  25.479   2.243
  651W        W69056  30.508   9.890   2.450
  652W        W69057  43.513   1.714  13.944
  653W        W69058  44.993  21.409  14.907
  654W        W69059  38.257  38.548  14.879
  655W        W69060  24.191  22.208   2.180
  656W        W69061  28.953   5.936   0.390
  657W        W69062  41.145  31.876   1.750
  658W        W69063  26.846   6.778   3.791
  659W        W69064  14.693   0.914   4.135
  660W        W69065  40.285  29.771   0.378
  661W        W69066   3.723  21.108  14.418
  662W        W69067  12.472  21.691   1.663
  663W        W69068  20.103  40.151  13.988
  664W        W69069  30.715  28.048   1.229
  665W        W69070   0.355  23.557   1.706
  666W        W69071  42.558  34.492   1.217
  667W        W69072   5.971   1.404  12.076
  668W        W69073  18.681  24.528   2.758
  669W        W69074  25.569  19.638   1.776
  670W        W69075  41.814   0.315   2.685
  671W        W69076  20.256  41.504  11.169
  672W        W69077   1.872   5.418   3.533
  673W        W69078  25.939   2.667   1.803
  674W        W69079   8.646  18.024   3.613
  675W        W69080  28.482  39.480  13.840
  676W        W69081   5.875  31.447  12.920
  677W        W69082  22.742  40.887   4.478
  678W        W69083  27.580  43.747  13.892
  679W        W69084  29.458  25.348   4.548
  680W        W69085  43.436  25.330  12.909
  681W        W69086  38.759  18.327  10.434
  682W        W69087  26.185  37.570  12.965
  683W        W69088  26.203  13.254   3.266
  684W        W69089  17.331  39.980   2.070
  685W        W69090  36.789  24.033  12.684
  686W        W69091   1.350  43.847   4.116
  687W        W69092   9.420   7.398   2.064
  688W        W69093  23.180  27.684  11.130
  689W        W69094  10.892  30.255  10.528
  690W        W69095  42.568   3.615   2.339
  691W        W69096  27.067  24.072  14.512
  692W        W69097   2.865  37.799  14.512
  693W        W69098  17.170   2.762  14.319
  694W        W69099  32.407  16.448   4.646
  695W        W69100  42.475  36.413  14.931
  696W        W69101  15.670   1.337   3.711
  697W        W69102  25.434   7.619   1.040
  698W        W69103  26.941  41.398   0.149
  699W        W69104  31.048  25.949  11.517
  700W        W69105  13.998  25.259   1.742
  701W        W69106  39.464   1.941   3.753
  702W        W69107  41.600   4.343  10.556
  703W        W69108  12.866  44.819  12.068
  704W        W69109  17.684  30.137   1.379
  705W        W69110   7.720  31.767  11.862
  706W        W69111  26.753   8.355   2.689
  707W        W69112  24.657  43.685   3.356
  708W        W69113  17.835   8.214  11.571
  709W        W69114  38.518  20.799  11.210
  710W        W69115  32.179  16.742   4.262
  711W        W69116  39.067  29.658   4.477
  712W        W69117   4.784  23.807  11.562
  713W        W69118  18.068  35.810   0.178
  714W        W69119  23.771  41.787   4.256
  715W        W69120   6.096  26.129  14.617
  716W        W69121  10.646  31.465   0.739
  717W        W69122   7.304  25.489   2.750
  718W        W69123  21.471   3.090  11.633
  719W        W69124   0.347  35.902  10.655
  720W        W69125  31.734  27.722  14.775
  721W        W69126  36.553  14.314   2.313
  722W        W69127   0.891   3.348   4.569
  723W        W69128  33.214   9.238  11.065
  724W        W69129  33.928   6.364   2.316
  725W        W69130  22.810  37.760  14.648
  726W        W69131  22.465   2.252   4.196
  727W        W69132  44.691  39.555   0.839
  728W        W69133  21.736  25.879   4.250
  729W        W69134  24.860  44.831   1.734
  730W        W69135  24.988  16.877   3.345
  731W        W69136  37.108  42.414   3.344
  732W        W69137  18.649   8.657   0.071
  733W        W69138  14.801  39.845   3.317
  734W        W69139  33.457  24.482   3.324
  735W        W69140   3.402   9.253   2.394
  736W        W69141  19.237  19.515   2.880
  737W        W69142  38.718  15.164  11.677
  738W        W69143  28.613  10.855   4.671
  739W        W69144   6.738  38.646   2.342
  740W        W69145  42.219  44.985   2.684
  741W        W69146  33.451  44.770   1.205
  742W        W69147  26.685   3.252  11.036
  743W        W69148  16.014  16.104   3.151
  744W        W69149  20.960  43.342  13.491
  745W        W69150  16.463  19.275   3.790
  746W        W69151  22.001  30.380   2.704
  747W        W69152  10.645  35.109   3.213
  748W        W69153  30.731  38.703   4.367
  749W        W69154  40.758  25.125   3.326
  750W        W69155  38.546  34.569  13.376
  751W        W69156   7.279  33.423   4.442
  752W        W69157   1.664  34.882   2.682
  753W        W69158  33.363  17.660   4.012
  754W        W69159   9.195  18.706   2.731
  755W        W69160  34.104   0.921  14.266
  756W        W69161  10.127  22.199  12.031
  757W        W69162  14.312  38.762  11.916
  758W        W69163  23.167  44.007  10.886
  759W        W69164  24.402  22.676   3.651
  760W        W69165  38.914  34.982  12.159
  761W        W69166  30.368  27.139  11.000
  762W        W69167  15.255   5.993   3.387
  763W        W69168  35.554  43.013   4.157
  764W        W69169  27.172  41.584  12.945
  765W        W69170   4.112   7.342  13.450
  766W        W69171  18.031   0.759   2.667
  767W        W69172  30.583  17.601  14.463
  768W        W69173  44.152  12.406   0.771
  769W        W69174  27.069  22.049   4.527
  770W        W69175  29.054  33.606   3.148
  771W        W69176  22.651  37.554   4.736
  772W        W69177   3.469  38.729   3.734
  773W        W69178  22.470   1.503   5.175
  774W        W69179   0.536  26.494   5.115
  775W        W69180  33.002  24.715   3.293
  776W        W69181  31.180  15.041  14.030
  777W        W69182  43.658   2.293  13.385
  778W        W69183   7.955  11.820   1.004
  779W        W69184  13.774   0.546   0.434
  780W        W69185  24.167  25.666   3.960
  781W        W69186  32.944  28.855   1.026
  782W        W69187  30.972   1.333  11.992
  783W        W69188  26.966  44.511   4.116
  784W        W69189   4.356  19.324   0.383
  785W        W69190   1.541  13.805   4.128
  786W        W69191  24.609   3.296   0.980
  787W        W69192  19.577  31.363  12.104
  788W        W69193   3.380  15.361   1.627
  789W        W69194  16.991  43.756  11.407
  790W        W69195  15.781  27.396  12.994
  791W        W69196  14.855   7.435  10.246
  792W        W69197  17.255   2.322   3.264
  793W        W69198  36.393  26.647   1.154
  794W        W69199  31.368  36.082   2.144
  795W        W69200  30.614   7.222  11.534
  796W        W69201  10.370   8.810   4.526
  797W        W69202  31.640   0.043   4.522
  798W        W69203  19.113  42.548   3.725
  799W        W69204  17.481  32.513  10.744
  800W        W69205  20.027  37.315  13.071
  801W        W69206  16.758   6.206  14.364
  802W        W69207  42.867   8.336   0.452
  803W        W69208  40.850  31.465   0.944
  804W        W69209  39.761  21.238  12.968
  805W        W69210  25.120   3.914   1.374
  806W        W69211  27.642  24.238   3.667
  807W        W69212  27.201  41.527   3.696
  808W        W69213  31.986  29.339  12.422
  809W        W69214  37.454  25.691  12.684
  810W        W69215  14.503  41.745   3.575
  811W        W69216  26.034  13.837   2.719
  812W        W69217  11.635  28.399   1.774
  813W        W69218   2.428  14.714  13.393
  814W        W69219  21.619  44.946  13.775
  815W        W69220  44.323  16.644  12.174
  816W        W69221  19.166  21.902  10.266
  817W        W69222  28.656   6.676   1.432
  818W        W69223  31.119  29.066   1.227
  819W        W69224  11.338  43.492   4.619
  820W        W69225   8.136  28.540  13.904
  821W        W69226  34.432  11.832   1.824
  822W        W69227  25.604  39.256  11.968
  823W        W69228  17.175  20.755   4.761
  824W        W69229  12.419  28.772   3.667
  825W        W69230  33.528  31.141  12.545
  826W        W69231   3.153  34.441  10.319
  827W        W69232  14.570  12.210  11.545
  828W        W69233  31.992   7.505  11.567
  829W        W69234   7.130   1.067   3.308
  830W        W69235   0.770   3.468  12.269
  831W        W69236  31.143  22.066   4.787
  832W        W69237  40.215  28.108  13.610
  833W        W69238  25.183  11.085  14.372
  834W        W69239   8.731  16.877  13.462
  835W        W69240  23.632  36.096  10.558
  836W        W69241  15.180  44.996   2.057
  837W        W69242   2.562  38.305   2.250
  838W        W69243  44.026  13.182   2.348
  839W        W69244   9.364  44.484   4.893
  840W        W69245  25.604  10.790  14.183
  841W        W69246  22.252  28.057  11.202
  842W        W69247  30.985  31.396  11.342
  843W        W69248  24.403   0.262   3.267
  844W        W69249  25.032  27.433  12.889
  845W        W69250   3.664  19.271   3.861
  846W        W69251  11.874  18.770   3.231
  847W        W69252   4.377  40.374   3.347
  848W        W69253  12.988  14.425  11.239
  849W        W69254  24.604  40.960  12.267
  850W        W69255  21.657   1.175  12.644
  851W        W69256  31.076  34.418  13.865
  852W        W69257   9.151  28.487  13.779
  853W        W69258  13.644  36.077  11.673
  854W        W69259  39.512   6.262  13.452
  855W        W69260  12.385   4.650  13.983
  856W        W69261   1.917  30.456   3.893
  857W        W69262  33.463  19.398   3.383
  858W        W69263  38.572  19.036   1.880
  859W        W69264  32.838   8.665   2.183
  860W        W69265  14.058  21.528   2.298
  861W        W69266   3.919  29.602   4.184
  862W        W69267  23.837  12.606  12.424
  863W        W69268  27.897  36.429  10.395
  864W        W69269  19.124  35.076   0.467
  865W        W69270   8.348  44.951   1.930
  866W        W69271  32.217   4.378  14.066
  867W        W69272  18.057  11.757   0.982
  868W        W69273   4.736  21.456   1.803
  869W        W69274   7.793   1.529   0.822
  870W        W69275  32.180  24.032   3.781
  871W        W69276   3.028  30.497   4.717
  872W        W69277  24.460  36.942  11.930
  873W        W69278  38.001  34.884  11.178
  874W        W69279  32.472   0.861   0.014
  875W        W69280  27.163  25.091  13.274
  876W        W69281  25.531  37.944  14.978
  877W        W69282  11.163  15.310  14.426
  878W        W69283  36.800   0.752   1.402
  879W        W69284   1.012  42.563   0.296
  880W        W69285  15.890  20.340  14.794
  881W        W69286  31.515  18.275  12.380
  882W        W69287  21.288  28.703  14.902
  883W        W69288  25.393   5.660   1.395
  884W        W69289  39.843  28.523   4.509
  885W        W69290  17.529  17.783  10.702
  886W        W69291  14.764   1.986   3.722
  887W        W69292   1.273  21.592   0.406
  888W        W69293  16.242   6.227   3.792
  889W        W69294  20.114  36.811   0.473
  890W        W69295  31.003  33.900   3.393
  891W        W69296  22.293  22.930   3.184
  892W        W69297   4.355  22.600  11.120
  893W        W69298  22.122  14.868  10.473
  894W        W69299  39.359   3.435  11.833
  895W        W69300   7.828   5.199   4.172
  896W        W69301   7.930  18.727  10.588
  897W        W69302  28.446  40.161  14.421
  898W        W69303  37.557  34.326   2.307
  899W        W69304  12.484  15.823  14.899
  900W        W69305  44.906   5.933   0.253
  901W        W69306  39.563  43.343   0.434
  902W        W69307  16.576  31.436  13.851
  903W        W69308   3.480  31.088   2.519
  904W        W69309  15.399   8.627  12.846
  905W        W69310  38.596  28.539   3.195
  906W        W69311  36.228  10.406  13.332
  907W        W69312  30.678   5.838  13.573
  908W        W69313  12.860  25.266  13.389
  909W        W69314  38.503  32.485  13.937
  910W        W69315  14.744  26.079   1.608
  911W        W69316  27.337   1.023  11.106
  912W        W69317   8.849  27.975   0.384
  913W        W69318  24.482  20.373  14.254
  914W        W69319  22.611  34.457   3.858
  915W        W69320  38.571   0.443   2.547
  916W        W69321   7.904  28.688  14.839
  917W        W69322  28.021  21.077   3.172
  918W        W69323   9.676  14.270  10.641
  919W        W69324  10.122  23.400   1.571
  920W        W69325  43.074  10.786  10.898
  921W        W69326  28.003  11.737   1.447
  922W        W69327   0.968   7.954   2.175
  923W        W69328  16.083   1.358   1.191
  924W        W69329  35.856  13.291   2.338
  925W        W69330   9.270  40.079   3.293
  926W        W69331   0.369  15.488   1.200
  927W        W69332  37.878   6.915  14.216
  928W        W69333   8.787   6.705  10.809
  929W        W69334  35.034   9.756   0.201
  930W        W69335   8.283  12.770  12.614
  931W        W69336  35.432  42.966  10.883
  932W        W69337  13.827  27.044   4.573
  933W        W69338  10.774  10.773   3.679
  934W        W69339  44.486   8.755  13.903
  935W        W69340  27.734  38.237   9.826
  936W        W69341  41.864  14.538  13.578
  937W        W69342  34.163  13.949  13.766
  938W        W69343  28.511  34.849   4.066
  939W        W69344  11.649   9.332  14.407
  940W        W69345  19.115   9.416   2.894
  941W        W69346   5.888  24.118  10.613
  942W        W69347  34.908  43.966   1.812
  943W        W69348  21.535  35.396   2.895
  944W        W69349   6.641   6.878  11.418
  945W        W69350  28.515  35.659   3.791
  946W        W69351  23.177  29.010   4.532
  947W        W69352  21.266  14.603   2.548
  948W        W69353  27.695  11.867   2.854
  949W        W69354  12.387  44.580  10.705
  950W        W69355  10.182  25.489   2.384
  951W        W69356  13.993  17.295   3.256
  952W        W69357  22.196  12.522  13.497
  953W        W69358   9.310   4.890  13.839
  954W        W69359   8.003  20.080   1.340
  955W        W69360   9.142  31.898   2.272
  956W        W69361  11.847  39.964  13.521
  957W        W69362  35.704  18.785  10.768
  958W        W69363  29.275  13.886  11.073
  959W        W69364   6.350  36.914  10.835
  960W        W69365  24.351  38.672   0.419
  961W        W69366  18.195   3.542  14.562
  962W        W69367   7.131  20.500   3.406
  963W        W69368  39.779  31.482  11.922
  964W        W69369  40.001   9.371   0.522
  965W        W69370  27.740  11.633   4.253
  966W        W69371   0.719   5.813   1.219
  967W        W69372   7.855  17.477  12.403
  968W        W69373  10.049  21.612   4.877
  969W        W69374  40.649  41.070  13.104
  970W        W69375  41.174  42.670  12.607
  971W        W69376   9.765  10.655  12.932
  972W        W69377  15.625  24.078   4.251
  973W        W69378  44.811   6.552  13.676
  974W        W69379  40.731  30.516  13.043
  975W        W69380   6.359  12.870  11.641
  976W        W69381  19.341  39.549  10.623
  977W        W69382  31.613  13.604   0.349
  978W        W69383  14.060  18.330   4.261
  979W        W69384   2.602  31.221   1.267
  980W        W69385  26.383   0.741   0.896
  981W        W69386   4.834  30.156   1.699
  982W        W69387  33.414  42.461   2.239
  983W        W69388  37.290  21.712  14.726
  984W        W69389  15.400  36.139  14.966
  985W        W69390   1.014  40.380   3.302
  986W        W69391  15.305  36.412   2.763
  987W        W69392   5.474  34.036   4.445
  988W        W69393  16.910   2.092   1.964
  989W        W69394  44.792  10.376  13.402
  990W        W69395  24.818   2.256  13.840
  991W        W69396  34.959  21.048  13.947
  992W        W69397  27.089   5.424  14.344
  993W        W69398   5.663  28.982   4.763
  994W        W69399  40.045  21.020  13.545
  995W        W69400  32.036  32.504   3.195
  996W        W69401  11.583  21.668  14.346
  997W        W69402   1.462  15.572   2.275
  998W        W69403  31.601  17.360  11.117
  999W        W69404   2.331  38.981  10.932
 1000W        W69405  34.173   6.206   1.324
 1001W        W69406  27.612  42.312   0.027
 1002W        W69407  13.904  15.419  13.058
 1003W        W69408  17.180  14.119   1.387
 1004W        W69409  41.323  19.379   2.381
 1005W        W69410  39.548  10.809  11.078
 1006W        W69411  34.485  44.589  11.872
 1007W        W69412  36.121  10.617   0.354
 1008W        W69413  16.108  40.764   4.565
 1009W        W69414   4.356   3.527   3.405
 1010W        W69415  22.652  26.155   0.235
 1011W        W69416  11.421  31.526   0.246
 1012W        W69417  13.835  25.593   0.532
 1013W        W69418   1.458   1.834  11.982
 1014W        W69419  13.670   1.697   2.242
 1015W        W69420  18.400   2.248   1.047
 1016W        W69421   3.639   2.915   2.893
 1017W        W69422  34.878   5.978   2.292
 1018W        W69423   1.402  37.651   1.833
 1019W        W69424  41.630   8.936  10.635
 1020W        W69425   3.734  34.436   2.407
 1021W        W69426   2.563  21.727   2.741
 1022W        W69427  27.676  38.490   0.253
 1023W        W69428  10.253  36.820  12.313
 1024W        W69429  28.692  22.797   0.870
 1025W        W69430  38.817   3.312  10.669
 1026W        W69431  25.508  30.026   3.172
 1027W        W69432  19.215   1.440   0.350
 1028W        W69433  40.256  22.030  13.082
 1029W        W69434   7.577   9.214  12.058
 1030W        W69435  25.199  35.334   0.369
 1031W        W69436  20.460  38.403   0.779
 1032W        W69437  10.635  42.842  10.657
 1033W        W69438  30.844  28.196  11.169
 1034W        W69439  41.549   7.233  11.482
 1035W        W69440  21.242  42.046   4.974
 1036W        W69441  23.214   5.742  12.465
 1037W        W69442  14.331  26.331   1.380
 1038W        W69443  31.579  41.536   0.963
 1039W        W69444  38.181  39.860  14.393
 1040W        W69445  17.333   0.230   2.504
 1041W        W69446  41.802  35.813  10.470
 1042W        W69447   2.597  31.259  10.971
 1043W        W69448  17.499  33.910  14.292
 1044W        W69449   5.633  19.499   1.597
 1045W        W69450   3.640  13.718   1.891
 1046W        W69451  20.988  25.512  10.334
 1047W        W69452  12.859  30.569   1.400
 1048W        W69453  43.832  35.586   2.486
 1049W        W69454  25.848  30.439  13.082
 1050W        W69455  16.209  42.902  11.034
 1051W        W69456  27.867  22.433   0.898
 1052W        W69457  13.333  22.485   3.148
 1053W        W69458  24.250  13.249   4.552
 1054W        W69459  11.747   3.168   0.152
 1055W        W69460  31.102  40.036  12.774
 1056W        W69461   7.409  26.992  12.660
 1057W        W69462  25.422  28.135  10.310
 1058W        W69463  41.591  12.708   2.172
 1059W        W69464  27.646   7.729   3.254
 1060W        W69465  37.336  16.802  13.745
 1061W        W69466  34.646  15.052  12.650
 1062W        W69467   3.456  27.354  11.699
 1063W        W69468  12.187  43.198  11.660
 1064W        W69469  16.016   7.611  10.369
 1065W        W69470   4.185  32.310  13.025
 1066W        W69471   4.898  43.257  14.144
 1067W        W69472   7.327  31.663  13.738
 1068W        W69473  25.246  34.004   2.765
 1069W        W69474  15.269  40.885  10.510
 1070W        W69475  36.810  33.863  10.691
 1071W        W69476  37.859   4.934  11.380
 1072W        W69477  14.723  38.568  14.682
 1073W        W69478  11.840   1.101   3.960
 1074W        W69479   2.000  15.081  10.877
 1075W        W69480  31.952  12.132   1.457
 1076W        W69481   3.242  34.812   3.116
 1077W        W69482   6.621  20.100   3.910
 1078W        W69483  11.676  42.855   4.242
 1079W        W69484   9.241  43.047  14.954
 1080W        W69485  43.905  27.628   4.058
 1081W        W69486  22.556  43.411   3.433
 1082W        W69487  10.998  29.848  13.327
 1083W        W69488   0.773  34.297   2.839
 1084W        W69489   3.182   7.895   2.331
 1085W        W69490  10.774   0.544  10.162
 1086W        W69491  10.585  34.105  10.760
 1087W        W69492  40.056  40.650  12.540
 1088W        W69493  27.225  39.854  12.093
 1089W        W69494   0.024  13.718   0.888
 1090W        W69495  37.528  12.301   2.475
 1091W        W69496  34.870  26.482   1.219
 1092W        W69497  18.527   6.323  11.918
 1093W        W69498  42.960  22.693  10.728
 1094W        W69499  19.018  28.005  12.414
 1095W        W69500  36.893   0.455  10.598
 1096W        W69501  41.044  13.766  11.023
 1097W        W69502  38.701  22.821   2.778
 1098W        W69503   2.682  35.414  13.294
 1099W        W69504  21.624  28.920  11.641
 1100W        W69505  18.393  25.625   0.472
 1101W        W69506  25.158  18.330  14.547
 1102W        W69507  41.936  26.722   2.494
 1103W        W69508  29.458   4.152  14.975
 1104W        W69509  13.687  19.857   5.024
 1105W        W69510  14.666  42.867   3.297
 1106W        W69511  20.782  20.808   0.066
 1107W        W69512  14.776  43.466   3.664
 1108W        W69513  22.330   4.460  11.087
 1109W        W69514  12.871  32.929  12.387
 1110W        W69515  17.388  18.375   0.041
 1111W        W69516   1.240  13.873   1.379
 1112W        W69517   8.656  30.652   4.449
 1113W        W69518  16.625  10.740  13.010
 1114W        W69519  37.035  16.021  10.442
 1115W        W69520  18.401  38.174   3.623
 1116W        W69521  40.525  42.360  14.985
 1117W        W69522  28.842  34.015  14.918
 1118W        W69523  44.808   6.284   4.951
 1119W        W69524  26.443  31.380  11.913
 1120W        W69525  20.261  14.847  14.342
 1121W        W69526  37.609  23.107   1.052
 1122W        W69527  22.291  15.280  12.680
 1123W        W69528  38.917  13.607  14.835
 1124W        W69529  15.481  28.092  11.092
 1125W        W69530  35.058  13.669  12.636
 1126W        W69531   6.211  41.909  13.410
 1127W        W69532  39.617  36.979  10.688
 1128W        W69533  40.941  39.775  13.011
 1129W        W69534  22.814  25.584   1.690
 1130W        W69535  14.571  15.110  10.735
 1131W        W69536   8.594  16.758  14.391
 1132W        W69537  41.012  13.198   1.113
 1133W        W69538   7.819  12.368  14.309
 1134W        W69539  35.960   1.878   4.750
 1135W        W69540  16.980  40.446  11.107
 1136W        W69541  36.432  39.842  14.873
 1137W        W69542  27.484  34.423  13.821
 1138W        W69543  18.084   5.329   1.400
 1139W        W69544   8.089  38.462   3.772
 1140W        W69545  29.722  17.187  12.519
 1141W        W69546   4.311  30.574   1.798
 1142W        W69547  33.352  43.992  14.545
 1143W        W69548  30.457  25.679  10.751
 1144W        W69549  13.153  37.484   2.092
 1145W        W69550  23.789   0.101  11.466
 1146W        W69551  23.950  14.305   2.599
 1147W        W69552  34.831  17.382  13.268
 1148W        W69553  19.779  17.144   4.659
 1149W        W69554  32.903  32.679   1.770
 1150W        W69555  12.759  22.957   3.703
 1151W        W69556  38.448  26.501   3.100
 1152W        W69557  40.035  16.527   3.387
 1153W        W69558   4.241  31.974   3.262
 1154W        W69559  19.518   2.232  12.021
 1155W        W69560  40.429  24.528  11.847
 1156W        W69561  40.858   4.493   0.953
 1157W        W69562  21.999  25.658  11.982
 1158W        W69563   9.974   4.224   0.252
 1159W        W69564  25.464   2.042   5.030
 1160W        W69565   5.830  40.491  14.736
 1161W        W69566  27.455  44.704   3.251
 1162W        W69567  22.207   9.368   2.738
 1163W        W69568   8.977   8.886  13.520
 1164W        W69569  29.654  26.959  11.758
 1165W        W69570   9.309  13.414  11.976
 1166W        W69571  44.864  27.330   0.483
 1167W        W69572  27.877  25.081   2.676
 1168W        W69573  39.141  34.460   1.370
 1169W        W69574   4.251  28.916   2.871
 1170W        W69575  30.145  35.361   2.174
 1171W        W69576  22.111  26.396  10.080
 1172W        W69577  24.646  21.246  14.872
 1173W        W69578  21.237   2.509   0.952
 1174W        W69579  13.750  15.880  11.478
 1175W        W69580  35.042   5.290  11.201
 1176W        W69581  33.557  44.838  10.727
 1177W        W69582  36.049  37.298   1.356
 1178W        W69583  35.336  28.004  10.696
 1179W        W69584   9.274  28.058   3.306
 1180W        W69585  19.720  41.297   2.751
 1181W        W69586  43.486  10.196  12.113
 1182W        W69587  34.845  27.400   4.163
 1183W        W69588  10.594  23.276   4.092
 1184W        W69589  15.504  16.583  12.798
 1185W        W69590  23.022  27.211  13.959
 1186W        W69591   5.425  40.847  14.898
 1187W        W69592  35.318  24.947   1.816
 1188W        W69593  36.882  38.214  10.866
 1189W        W69594  24.566  32.140  12.466
 1190W        W69595  35.477  16.721  11.232
 1191W        W69596  42.508  20.945   2.833
 1192W        W69597  39.549  27.047  10.699
 1193W        W69598  16.776   4.267   2.094
 1194W        W69599  14.462  43.279  12.698
 1195W        W69600  38.472   3.929   2.393
 1196W        W69601   7.583   4.111  11.646
 1197W        W69602   9.333  22.868  13.530
 1198W        W69603  40.551  10.250  14.821
 1199W        W69604  22.504  12.949  13.080
 1200W        W69605   5.714  12.324   4.544
 1201W        W69606  32.969  41.513   3.901
 1202W        W69607  17.535  33.931   2.100
 1203W        W69608  37.811  13.688   1.386
 1204W        W69609  42.039   0.810  12.921
 1205W        W69610   3.176   3.017   4.588
 1206W        W69611  22.931  29.331   1.452
 1207W        W69612  42.241  26.554  13.232
 1208W        W69613  20.503  10.803   3.605
 1209W        W69614  15.384  36.484  13.997
 1210W        W69615  42.632   9.802  10.777
 1211W        W69616  29.685  22.225  13.338
 1212W        W69617  13.761   6.939   4.365
 1213W        W69618  30.996   5.748   2.321
 1214W        W69619  12.859  42.869  14.385
 1215W        W69620   1.411  34.807   0.773
 1216W        W69621  36.008  14.345   2.326
 1217W        W69622  33.963  33.122   0.575
 1218W        W69623   9.343   1.968  14.344
 1219W        W69624  31.010  17.567   0.381
 1220W        W69625  34.397   8.610  14.108
 1221W        W69626  32.793  38.774   2.882
 1222W        W69627  20.718  34.116  12.664
 1223W        W69628  20.286   1.545   4.524
 1224W        W69629  39.480  24.819   1.581
 1225W        W69630   3.924  29.522   3.306
 1226W        W69631  21.575   1.396  14.091
 1227W        W69632  17.676  20.683  11.294
 1228W        W69633  19.527   0.280   3.271
 1229W        W69634  26.187  15.752   1.978
 1230W        W69635  25.560   1.866   2.356
 1231W        W69636  19.559  30.583   1.380
 1232W        W69637  13.588  43.307   4.117
 1233W        W69638  40.872  15.431  12.491
 1234W        W69639  12.074   7.294   1.150
 1235W        W69640   1.932   8.596  13.237
 1236W        W69641  17.703  16.328  10.747
 1237W        W69642   9.101  27.494   0.413
 1238W        W69643  40.161  38.581   1.406
 1239W        W69644  33.556  25.432  11.141
 1240W        W69645  24.754  19.155  14.825
 1241W        W69646  28.627  34.961  12.656
 1242W        W69647  43.477  34.093   1.410
 1243W        W69648  38.962  30.389   4.061
 1244W        W69649   6.219  20.334  13.583
 1245W        W69650   9.390  20.105  14.789
 1246W        W69651  34.993  10.200  13.841
 1247W        W69652  30.394  36.310  10.683
 1248W        W69653   6.239   9.536  13.939
 1249W        W69654   0.089  19.271   2.242
 1250W        W69655  10.217   3.716   0.834
 1251W        W69656  17.185  11.723  14.976
 1252W        W69657   5.807  15.045   3.499
 1253W        W69658  19.944  35.925  11.495
 1254W        W69659  39.490  24.066   3.811
 1255W        W69660  22.677  38.967  14.030
 1256W        W69661  21.030   2.744  14.318
 1257W        W69662  40.425  41.406  12.322
 1258W        W69663  40.917  13.783  13.364
 1259W        W69664  17.491  44.001   4.510
 1260W        W69665  31.209  40.951  11.008
 1261W        W69666  24.731  19.409   2.920
 1262W        W69667  19.603  37.620  12.962
 1263W        W69668  39.149  32.875  12.564
 1264W        W69669  19.340   1.682   0.811
 1265W        W69670  28.979  39.424  14.034
 1266W        W69671  39.502   5.686  14.591
 1267W        W69672  30.896  37.903   0.704
 1268W        W69673   6.169   7.194   3.999
 1269W        W69674  11.876  19.855  10.601
 1270W        W69675  32.203  21.687   2.849
 1271W        W69676   5.922  24.501   1.410
 1272W        W69677  24.171  34.893   1.932
 1273W        W69678  21.649  38.897   4.616
 1274W        W69679  39.363  35.565   4.269
 1275W        W69680  23.850   1.462   3.381
 1276W        W69681  12.233  20.682  12.047
 1277W        W69682  43.412  39.842  13.122
 1278W        W69683  27.742  32.140  14.043
 1279W        W69684  41.018  16.088   2.062
 1280W        W69685  20.625  33.152   1.054
 1281W        W69686  17.192  28.246   0.951
 1282W        W69687  20.412  39.798   3.694
 1283W        W69688  10.105  11.395  14.456
 1284W        W69689  42.863  16.714  14.897
 1285W        W69690  17.934  34.770   4.972
 1286W        W69691  19.695  38.931   4.640
 1287W        W69692  44.695   9.807   3.839
 1288W        W69693  23.630  28.890   4.288
 1289W        W69694  29.509  10.123   3.393
 1290W        W69695  16.084   1.326  13.341
 1291W        W69696   5.875  22.611  14.830
 1292W        W69697  20.344   0.538   4.545
 1293W        W69698  14.387   8.286  13.853
 1294W        W69699  30.060  44.734  13.806
 1295W        W69700  28.940  44.552   2.579
 1296W        W69701  41.732  20.153   3.674
 1297W        W69702  41.486   8.281  13.841
 1298W        W69703  27.460  27.257  12.003
 1299W        W69704   4.831  35.486  12.781
 1300W        W69705  37.649  17.136  12.794
 1301W        W69706  20.153  32.044   4.553
 1302W        W69707  39.393  26.350  11.261
 1303W        W69708  42.506  10.083  11.199
 1304W        W69709  18.641  44.041   1.483
 1305W        W69710  10.786   8.014   4.911
 1306W        W69711   5.250  44.728  12.172
 1307W        W69712  27.036  37.924   3.231
 1308W        W69713   3.220  36.546   0.440
 1309W        W69714  41.488  21.770   0.844
 1310W        W69715  30.645  12.376  14.818
 1311W        W69716  19.706  17.692  14.048
 1312W        W69717  16.222  36.492  12.566
 1313W        W69718  28.609  22.760   2.589
 1314W        W69719   2.523  15.681   0.597
 1315W        W69720  38.176  37.462   4.359
 1316W        W69721   9.749   7.684  14.275
 1317W        W69722  15.784   4.317   3.687
 1318W        W69723  22.261  25.541   2.850
 1319W        W69724  16.722  35.284  14.838
 1320W        W69725   3.887   9.195  14.869
 1321W        W69726  32.977  18.611   4.416
 1322W        W69727  40.939  39.229  13.029
 1323W        W69728  17.338  36.300  13.478
 1324W        W69729  20.283  28.355  13.905
 1325W        W69730  25.209  43.594   1.651
 1326W        W69731  31.252  21.665   2.789
 1327W        W69732  21.231  10.865   4.461
 1328W        W69733  33.491  40.094   1.362
 1329W        W69734   5.343  22.988  12.885
 1330W        W69735  29.885  34.458   2.906
 1331W        W69736  21.047   2.370   3.423
 1332W        W69737  26.278  30.507  11.090
 1333W        W69738  16.137  35.354   5.463
 1334W        W69739  34.424  39.470   0.491
 1335W        W69740   1.915   4.236   5.007
 1336W        W69741  43.259  42.789   3.407
 1337W        W69742  25.784  41.421   3.709
 1338W        W69743  29.972  10.389  13.902
 1339W        W69744  32.102  27.715   2.349
 1340W        W69745  10.324  10.259  10.659
 1341W        W69746  41.092  32.027  13.839
 1342W        W69747  29.593  12.727   1.424
 1343W        W69748  39.405  30.180  10.366
 1344W        W69749  10.872   5.879   1.155
 1345W        W69750  38.834   0.540  14.820
 1346W        W69751  41.994  25.400   1.340
 1347W        W69752  32.742   1.783   4.031
 1348W        W69753  43.979  37.980  14.620
 1349W        W69754  38.648  10.502   4.560
 1350W        W69755  20.286  43.751  13.851
 1351W        W69756  41.801  35.444   3.096
 1352W        W69757   0.102  44.873  14.171
 1353W        W69758  27.170  40.963   0.383
 1354W        W69759  39.273  37.443   1.340
 1355W        W69760   5.760   5.654   2.477
 1356W        W69761  35.621  28.885   1.915
 1357W        W69762  37.805  34.416   3.381
 1358W        W69763  25.493  22.192  13.409
 1359W        W69764  33.883  41.659   1.335
 1360W        W69765  44.885  15.888  12.806
 1361W        W69766   7.171  19.208  14.874
 1362W        W69767   8.894  17.822  11.138
 1363W        W69768  19.571   4.328  11.124
 1364W        W69769   6.633  19.873  12.895
 1365W        W69770  17.103  30.428  12.798
 1366W        W69771  23.274   9.708   3.222
 1367W        W69772  44.535  34.128   5.145
 1368W        W69773  30.999   3.684  13.872
 1369W        W69774   8.329  21.275   3.299
 1370W        W69775  25.740  19.837  11.990
 1371W        W69776  29.027  22.856  13.578
 1372W        W69777   5.981  44.268  11.236
 1373W        W69778  36.177  25.555   3.795
 1374W        W69779   4.811   6.460   3.769
 1375W        W69780   3.790   8.238   1.268
 1376W        W69781  31.065  23.068  14.499
 1377W        W69782  19.830  21.840  14.747
 1378W        W69783  33.380  25.191  10.733
 1379W        W69784  20.999  14.682  13.114
 1380W        W69785  39.471  34.222   4.729
 1381W        W69786  28.426  21.800   0.738
 1382W        W69787  14.283  23.590   3.895
 1383W        W69788  33.423  36.509   3.152
 1384W        W69789   5.863  12.820  10.634
 1385W        W69790  41.789  28.855  13.858
 1386W        W69791   6.100  15.260  13.366
 1387W        W69792  22.158   7.126   1.219
 1388W        W69793  20.190   1.556  14.995
 1389W        W69794   7.124  40.966  14.730
 1390W        W69795  10.895   9.421  14.816
 1391W        W69796  42.400   3.769  14.779
 1392W        W69797  28.989  33.993   2.428
 1393W        W69798  32.599   2.395   3.416
 1394W        W69799   5.321  17.221  11.310
 1395W        W69800  42.536  30.859   0.781
 1396W        W69801  41.830  34.434   3.961
 1397W        W69802  18.493   5.924  10.690
 1398W        W69803   7.767  17.543  12.894
 1399W        W69804  14.200  33.490  11.185
 1400W        W69805  21.104  44.981   1.043
 1401W        W69806  44.271  11.418   2.175
 1402W        W69807  15.892  35.034   1.356
 1403W        W69808  34.815  17.051  12.417
 1404W        W69809  15.237  39.861   1.222
 1405W        W69810  25.477  30.409   2.216
 1406W        W69811  14.869   8.877   3.617
 1407W        W69812   9.258  44.364   0.266
 1408W        W69813  27.657  33.149  14.088
 1409W        W69814  25.035  25.991   3.849
 1410W        W69815  24.444   8.464  14.977
 1411W        W69816   5.336   3.598   4.929
 1412W        W69817  21.669  15.999   2.841
 1413W        W69818  32.997  16.288   0.475
 1414W        W69819  20.525  20.554  11.780
 1415W        W69820  32.364  31.162   1.847
 1416W        W69821  28.631   6.198  12.603
 1417W        W69822  12.527   8.190  14.568
 1418W        W69823   6.908   3.243  14.877
 1419W        W69824   9.927  20.040   0.755
 1420W        W69825  13.136  38.534   0.998
 1421W        W69826  15.640  28.777   2.262
 1422W        W69827  31.190  16.289   3.814
 1423W        W69828  28.431  23.961  10.702
 1424W        W69829  40.896  30.937   2.717
 1425W        W69830  31.955   0.244  14.665
 1426W        W69831   8.248  14.656   1.743
 1427W        W69832   7.390   2.616  11.444
 1428W        W69833   1.187  29.215   3.737
 1429W        W69834  15.159  41.841  12.784
 1430W        W69835  28.587  25.993   4.979
 1431W        W69836  21.052   3.330   3.727
 1432W        W69837  34.329  43.811  14.276
 1433W        W69838  35.867   0.303   1.260
 1434W        W69839  19.624  24.227   1.312
 1435W        W69840   1.287  36.446   1.833
 1436W        W69841  14.294  40.927   1.195
 1437W        W69842   9.670  23.609   4.653
 1438W        W69843  26.368  19.820  10.322
 1439W        W69844   3.126  16.822   0.227
 1440W        W69845  27.713  29.172  12.765
 1441W        W69846  19.979  36.607   1.962
 1442W        W69847  18.306  44.368  10.765
 1443W        W69848  31.506   1.812  13.439
 1444W        W69849  36.414  26.033   3.898
 1445W        W69850  20.246   8.452   2.691
 1446W        W69851   5.860  22.901   3.247
 1447W        W69852   1.086  15.062   4.437
 1448W        W69853  20.920   1.347   1.696
 1449W        W69854  15.430  41.285  12.005
 1450W        W69855  13.349  24.013   1.916
 1451W        W69856   1.900  13.504   3.582
 1452W        W69857  28.630  18.632  10.320
 1453W        W69858   2.746   3.928   4.977
 1454W        W69859  16.564  30.110   2.700
 1455W        W69860  35.742   2.219  14.349
 1456W        W69861  36.429  17.603  11.704
 1457W        W69862  11.722  43.239  10.766
 1458W        W69863   3.917  24.747   1.961
 1459W        W69864  29.911  30.996  14.015
 1460W        W69865  28.713  25.400  12.905
 1461W        W69866  18.719  38.475   4.258
 1462W        W69867  29.490  12.826  14.834
 1463W        W69868  24.766   6.526  12.810
 1464W        W69869  29.966   5.505   4.073
 1465W        W69870  15.119   9.689  11.601
 1466W        W69871   6.177  31.419  14.231
 1467W        W69872  17.277   1.987   2.877
 1468W        W69873   5.245  40.165  12.903
 1469W        W69874  16.846   2.278  11.103
 1470W        W69875  38.393   3.199  10.966
 1471W        W69876  13.100  41.294  14.796
 1472W        W69877  17.135  30.091   4.317
 1473W        W69878  36.642   1.181  13.339
 1474W        W69879  27.737   2.497  11.581
 1475W        W69880   2.948  25.003   4.784
 1476W        W69881  24.763   3.822   2.270
 1477W        W69882   0.742  18.250   0.856
 1478W        W69883  27.779  37.306   4.803
 1479W        W69884   5.468  27.149   3.792
 1480W        W69885   1.135  12.765  14.802
 1481W        W69886  21.087  34.916   5.111
 1482W        W69887   0.141  26.139  12.527
 1483W        W69888  43.263  14.857   3.831
 1484W        W69889  38.584  42.335  14.092
 1485W        W69890  18.840   9.049   2.647
 1486W        W69891   1.433   3.645   1.732
 1487W        W69892  42.018  21.805  13.323
 1488W        W69893  40.563  12.734   2.017
 1489W        W69894   1.659   1.847  13.596
 1490W        W69895  42.579  24.305   0.571
 1491W        W69896  29.374   1.120   1.889
 1492W        W69897   5.845  38.231   3.666
 1493W        W69898  29.701  15.890   0.925
 1494W        W69899  13.350  37.862  14.274
 1495W        W69900  24.000  18.008   1.231
 1496W        W69901  44.061  44.827  12.634
 1497W        W69902  19.782   9.440   9.943
 1498W        W69903  36.311  32.473   5.007
 1499W        W69904  20.382  38.937  11.234
 1500W        W69905  33.256  11.260  14.885
 1501W        W69906  19.753  11.249   2.829
 1502W        W69907  35.778  44.259   1.910
 1503W        W69908   6.545   3.403   2.709
 1504W        W69909  29.536  30.354   5.010
 1505W        W69910  27.545  12.882  12.684
 1506W        W69911   0.913  25.002  10.839
 1507W        W69912  25.199  19.993   0.229
 1508W        W69913  16.500   5.256  10.031
 1509W        W69914  28.974  39.851   3.316
 1510W        W69915   0.449  28.952  10.739
 1511W        W69916  25.795  26.674  11.630
 1512W        W69917  28.884  42.461   9.823
 1513W        W69918  14.036   0.221   1.386
 1514W        W69919  35.889  18.360   0.514
 1515W        W69920  41.033  26.585   4.038
 1516W        W69921   8.909  30.530  14.831
 1517W        W69922  20.868   8.870   1.280
 1518W        W69923  22.091  34.672  13.840
 1519W        W69924  20.544  25.095  11.038
 1520W        W69925  43.260  34.002  14.470
 1521W        W69926  31.175  24.687   1.403
 1522W        W69927  16.274  39.446   2.226
 1523W        W69928   0.547  20.571   2.292
 1524W        W69929  32.020  24.581  13.057
 1525W        W69930   0.379  37.050   1.627
 1526W        W69931  40.995  20.928   1.929
 1527W        W69932  15.823  39.050  14.203
 1528W        W69933   5.655   6.735   4.549
 1529W        W69934   7.288   5.984   2.832
 1530W        W69935  23.955  31.388  10.737
 1531W        W69936  36.735  42.467   4.754
 1532W        W69937   9.045  40.730  12.076
 1533W        W69938  10.392  20.638  13.564
 1534W        W69939  43.655  12.624  12.042
 1535W        W69940  24.274  42.557   1.632
 1536W        W69941  15.152  16.087   4.729
 1537W        W69942   9.219  22.007   1.851
 1538W        W69943  35.202  23.537  10.890
 1539W        W69944  17.385  39.038   4.106
 1540W        W69945  28.092  14.869   9.749
 1541W        W69946   0.378  18.266  14.064
 1542W        W69947  32.342  38.981  14.310
 1543W        W69948  43.041   2.274   2.958
 1544W        W69949  36.120  33.186  10.974
 1545W        W69950   6.211   0.105  12.419
 1546W        W69951  23.070  23.077   2.850
 1547W        W69952  37.582  34.248  14.283
 1548W        W69953   7.340  29.056  13.899
 1549W        W69954  19.990   6.695  11.198
 1550W        W69955  44.327  16.603  12.697
 1551W        W69956  26.957   7.297   3.712
 1552W        W69957  29.481  16.719   4.347
 1553W        W69958  23.979  12.670   0.569
 1554W        W69959  12.323   1.451  12.411
 1555W        W69960  20.480  13.655  11.948
 1556W        W69961  36.944  22.568   4.860
 1557W        W69962  14.340   4.270   3.811
 1558W        W69963  34.786  21.203   4.181
 1559W        W69964  23.721  40.275   1.265
 1560W        W69965  31.960  28.910   3.253
 1561W        W69966  23.878  37.467  12.431
 1562W        W69967  27.541  27.315   3.552
 1563W        W69968   3.442  11.705  14.084
 1564W        W69969   0.392  38.179  11.317
 1565W        W69970  28.494  12.182   0.383
 1566W        W69971  11.675  17.502   1.273
 1567W        W69972  12.366  36.300  10.893
 1568W        W69973   8.892   3.646   2.718
 1569W        W69974   9.786   0.511  11.745
 1570W        W69975  36.155  21.007   3.614
 1571W        W69976   2.836  18.445   1.313
 1572W        W69977  42.571  19.720   4.559
 1573W        W69978  16.690   5.826  12.160
 1574W        W69979  17.901  26.003  14.283
 1575W        W69980  43.809   3.585   1.740
 1576W        W69981  44.384   9.650  12.098
 1577W        W69982  37.791   1.503  11.520
 1578W        W69983  41.441  42.285   2.788
 1579W        W69984   3.121  38.310  10.937
 1580W        W69985  17.268  16.826  13.262
 1581W        W69986  17.399   6.069   4.076
 1582W        W69987  40.326  22.982   4.903
 1583W        W69988  39.810  42.745  11.632
 1584W        W69989   5.820  39.328  14.861
 1585W        W69990  11.721   9.370   2.389
 1586W        W69991  43.409  25.567  11.447
 1587W        W69992  32.129  22.326   3.262
 1588W        W69993   2.202  21.670  11.189
 1589W        W69994  14.744  39.059  10.203
 1590W        W69995  21.556  25.565  12.265
 1591W        W69996  18.593  24.435   4.726
 1592W        W69997   2.205   1.413  13.045
 1593W        W69998  15.818  36.818   2.306
 1594W        W69999  21.104  13.794  13.575
 1595W        W70000  40.100  14.149   4.007
 1596W        W70001  43.175   8.851   3.336
 1597W        W70002  12.616   5.275  10.672
 1598W        W70003  38.957  28.628   1.851
 1599W        W70004  25.614  12.618  13.795
 1600W        W70005   9.605  35.133   3.167
 1601W        W70006  37.418  42.281  13.580
 1602W        W70007   8.363  27.967  10.762
 1603W        W70008  40.291  42.304   3.683
 1604W        W70009   5.938   0.120  12.924
 1605W        W70010  27.654  19.735   3.729
 1606W        W70011  23.137   7.026  11.191
 1607W        W70012  44.737  23.124   0.086
 1608W        W70013   7.949  43.873  12.416
 1609W        W70014  25.416   0.255  14.995
 1610W        W70015  22.818  30.908  13.788
 1611W        W70016  32.755  36.678   2.076
 1612W        W70017   1.764  28.439  11.174
 1613W        W70018  16.076   9.322  12.607
 1614W        W70019  35.356  11.192  12.985
 1615W        W70020   2.382   2.306  14.795
 1616W        W70021  10.840   2.551  14.402
 1617W        W70022  25.957  29.714   0.337
 1618W        W70023  36.105  26.490  11.410
 1619W        W70024   2.977  33.608  12.163
 1620W        W70025   3.099  37.888  12.551
 1621W        W70026   7.701  31.239  10.513
 1622W        W70027  36.478   3.899  11.316
 1623W        W70028  40.369   4.120   2.450
 1624W        W70029   8.829  11.092  13.281
 1625W        W70030  27.455  15.741  12.625
 1626W        W70031  40.244  24.948   3.197
 1627W        W70032  23.576  26.275  11.911
 1628W        W70033  42.408  24.703   1.324
 1629W        W70034  20.536  39.913   3.178
 1630W        W70035  15.065   6.484   3.538
 1631W        W70036   1.246  13.896  13.921
 1632W        W70037  18.860  12.895  13.405
 1633W        W70038  29.989  28.477   0.405
 1634W        W70039  27.524   7.201   4.642
 1635W        W70040  39.842  36.060  14.735
 1636W        W70041  34.380  26.421  11.325
 1637W        W70042  13.063   9.681  11.134
 1638W        W70043  44.710   1.973   4.822
 1639W        W70044  41.939  32.033   0.364
 1640W        W70045  18.543  14.560   3.918
 1641W        W70046  12.329  11.111   0.990
 1642W        W70047  18.176  36.776   3.065
 1643W        W70048  27.229  23.715  14.873
 1644W        W70049  29.880  16.715  12.350
 1645W        W70050  31.282  18.654   4.999
 1646W        W70051  26.566  20.764  11.402
 1647W        W70052  40.452  37.128  13.818
 1648W        W70053  27.681  33.601   4.542
 1649W        W70054  21.962   2.483   4.100
 1650W        W70055  44.598  34.867   0.841
 1651W        W70056  23.676  18.466  13.514
 1652W        W70057  32.374  26.670   0.267
 1653W        W70058  11.231  36.620  10.636
 1654W        W70059  34.605  17.882   0.058
 1655W        W70060  44.845  31.404   2.402
 1656W        W70061   2.017  20.560  13.349
 1657W        W70062  29.101   9.694   1.684
 1658W        W70063  10.262   7.784   1.105
 1659W        W70064  33.497  14.368  14.448
 1660W        W70065   7.708  17.054  12.647
 1661W        W70066  26.036  16.186  14.781
 1662W        W70067  21.669  11.640   2.465
 1663W        W70068  21.564  29.414   1.465
 1664W        W70069  44.368  19.808  10.695
 1665W        W70070  20.517  20.705  14.264
 1666W        W70071  33.193  34.569   4.772
 1667W        W70072  36.415  13.075   3.185
 1668W        W70073  12.687  38.318   4.532
 1669W        W70074   0.846  24.709   4.561
 1670W        W70075  16.730   5.816   3.283
 1671W        W70076   2.516  32.197  12.934
 1672W        W70077  37.339  16.299  12.106
 1673W        W70078  32.392  32.488  11.593
 1674W        W70079  18.159   6.684   1.727
 1675W        W70080   5.660  27.442  13.413
 1676W        W70081   1.320  36.355   0.285
 1677W        W70082  31.663  30.513   1.924
 1678W        W70083  15.807  39.505   0.776
 1679W        W70084   7.944   1.814   4.144
 1680W        W70085  38.911  32.599   2.205
 1681W        W70086  41.468  27.091  11.137
 1682W        W70087  40.492  39.471  12.901
 1683W        W70088   5.044  35.794   4.300
 1684W        W70089   5.852   0.982  10.478
 1685W        W70090  17.775   4.976  12.205
 1686W        W70091  22.288  43.435  13.127
 1687W        W70092  37.035  43.289  12.441
 1688W        W70093   7.408   3.710   0.771
 1689W        W70094  30.545   9.409   0.439
 1690W        W70095  16.259  40.332  14.342
 1691W        W70096  22.411  25.690  11.451
 1692W        W70097  14.681  25.895  14.322
 1693W        W70098  21.804  42.923  14.839
 1694W        W70099  38.183  42.254   4.694
 1695W        W70100  11.643   0.704   2.197
 1696W        W70101  29.645   2.733   2.805
 1697W        W70102  36.906   8.144   4.033
 1698W        W70103  35.901  37.354   3.211
 1699W        W70104  44.232  44.976   3.390
 1700W        W70105  29.554  33.328   1.941
 1701W        W70106  38.591  12.673   2.135
 1702W        W70107   6.285  22.418   4.897
 1703W        W70108  19.659  14.513   2.832
 1704W        W70109  32.382  17.235   1.702
 1705W        W70110  43.823  21.122  13.319
 1706W        W70111  39.300   3.309  10.880
 1707W        W70112   7.296  30.730  11.097
 1708W        W70113  10.677  34.209  11.674
 1709W        W70114  14.477   2.366   1.273
 1710W        W70115  32.082   3.712  14.999
 1711W        W70116  43.631  27.561   4.518
 1712W        W70117   6.255  36.670   0.859
 1713W        W70118  24.824   6.476   4.535
 1714W        W70119  20.977  34.600  10.766
 1715W        W70120   3.238  40.707   1.696
 1716W        W70121  20.269  39.944   1.218
 1717W        W70122  13.364   6.587  11.614
 1718W        W70123  43.706  10.790  13.921
 1719W        W70124  24.607   4.281   0.917
 1720W        W70125  26.856  24.201   4.181
 1721W        W70126  44.177  16.135  13.299
 1722W        W70127  18.703  38.892   4.559
 1723W        W70128  36.811   7.856   3.621
 1724W        W70129   4.789   8.701   2.640
 1725W        W70130  36.093   3.235   0.256
 1726W        W70131   7.163  34.827   4.513
 1727W        W70132  40.358  34.322  14.024
 1728W        W70133  25.615  43.200  13.502
 1729W        W70134  27.666   4.948   0.490
 1730W        W70135  19.080   5.908   4.443
 1731W        W70136  30.343  30.040  11.395
 1732W        W70137  18.086  26.444  14.496
 1733W        W70138  41.051  42.975   3.641
 1734W        W70139  44.117  15.408   4.140
 1735W        W70140  23.722  27.688   0.265
 1736W        W70141   2.161  31.883  13.753
 1737W        W70142  29.650   0.127  13.099
 1738W        W70143  17.667  28.833  12.537
 1739W        W70144  37.875  14.817   3.506
 1740W        W70145  17.001   5.279   4.408
 1741W        W70146  12.645   5.668   1.981
 1742W        W70147  38.575  36.078   2.231
 1743W        W70148  27.075  36.210   4.677
 1744W        W70149  36.524  41.770  14.963
 1745W        W70150  29.290  24.289  12.528
 1746W        W70151  21.493  18.576   4.886
 1747W        W70152  35.098  34.695  10.785
 1748W        W70153  14.625  33.844  12.204
 1749W        W70154  26.024  34.829  13.942
 1750W        W70155   8.436  44.165  13.869
 1751W        W70156   8.759  32.457   0.387
 1752W        W70157  36.347  22.202  11.923
 1753W        W70158  17.699  27.468  13.859
 1754W        W70159  33.438  36.727  10.915
 1755W        W70160  22.733  20.174  12.021
 1756W        W70161  35.334   7.300  13.487
 1757W        W70162  11.808   1.161   0.430
 1758W        W70163   7.230  21.855   3.754
 1759W        W70164  39.407   9.422  12.497
 1760W        W70165  19.987  33.472  11.165
 1761W        W70166  10.417   0.917  10.219
 1762W        W70167  35.470  11.645   4.491
 1763W        W70168  23.598  12.372   1.242
 1764W        W70169  19.254  23.247  13.372
 1765W        W70170  29.426  22.309   0.751
 1766W        W70171  19.331  26.606  12.419
 1767W        W70172  18.348  27.106   3.766
 1768W        W70173  41.545  39.950   3.789
 1769W        W70174  19.519  17.586  11.088
 1770W        W70175  37.005  27.245  11.931
 1771W        W70176  25.123  16.766  13.815
 1772W        W70177  20.773  29.507   0.493
 1773W        W70178   5.131  17.597  13.489
 1774W        W70179  32.834  23.495   0.975
 1775W        W70180  44.348  27.884  12.834
 1776W        W70181  23.916  11.834  11.973
 1777W        W70182  14.701   4.945   2.304
 1778W        W70183  39.011  38.657  12.467
 1779W        W70184   8.317  20.741  11.335
 1780W        W70185  27.285  31.059  10.655
 1781W        W70186  20.120  30.621  10.762
 1782W        W70187  16.086  13.784  13.522
 1783W        W70188  28.552  34.016  14.469
 1784W        W70189  15.230  42.990   4.239
 1785W        W70190  26.308  36.490  11.144
 1786W        W70191  17.970  26.745   2.291
 1787W        W70192  22.311   1.718   3.189
 1788W        W70193  10.761  21.734   1.488
 1789W        W70194   6.917   3.169  11.004
 1790W        W70195   0.439  23.973  14.360
 1791W        W70196  28.888  23.983   1.360
 1792W        W70197  17.870  11.214   1.978
 1793W        W70198  40.011  39.460  14.525
 1794W        W70199   3.424  14.848  13.225
 1795W        W70200  27.423  11.898  13.927
 1796W        W70201   5.360  13.807  12.583
 1797W        W70202   7.128  16.165   0.441
 1798W        W70203  21.980  27.676  12.032
 1799W        W70204  15.521  40.806  14.739
 1800W        W70205  16.560   1.490  14.401
 1801W        W70206  26.521  33.088   5.006
 1802W        W70207   0.465   9.761  13.926
 1803W        W70208  17.811  17.832  14.020
 1804W        W70209  36.128  17.932   0.274
 1805W        W70210   8.336  30.766   2.441
 1806W        W70211  21.327  30.278  11.177
 1807W        W70212  43.958   5.599   3.723
 1808W        W70213   4.689   3.829  14.009
 1809W        W70214  40.564  14.232  10.409
 1810W        W70215   1.723  43.923  10.689
 1811W        W70216  29.562  15.924  12.878
 1812W        W70217   0.650   9.748   4.152
 1813W        W70218  41.297  15.895  13.892
 1814W        W70219  11.295  22.744   4.838
 1815W        W70220  18.538   3.730   4.402
 1816W        W70221   2.499  16.302  13.833
 1817W        W70222  21.650  11.638   2.980
 1818W        W70223  23.756  38.133   1.695
 1819W        W70224   0.124  32.497   4.500
 1820W        W70225   9.398   0.156  13.917
 1821W        W70226  11.737  16.639   0.694
 1822W        W70227  10.689  14.640   1.145
 1823W        W70228   9.374  16.329   3.104
 1824W        W70229   6.532  17.739  10.270
 1825W        W70230  21.529  20.573  12.093
 1826W        W70231   5.798   2.294  10.734
 1827W        W70232  34.681  21.338  14.299
 1828W        W70233  24.132   7.174  10.815
 1829W        W70234   9.696  34.375  13.063
 1830W        W70235  16.720  14.733   4.092
 1831W        W70236   6.859   5.348  12.150
 1832W        W70237  12.118  34.110   3.214
 1833W        W70238  36.677  28.716  14.516
 1834W        W70239   0.823  31.469  13.568
 1835W        W70240   0.232  29.619  13.756
 1836W        W70241  23.704  24.493  11.553
 1837W        W70242  39.497   2.044  14.290
 1838W        W70243  16.873   7.301   2.683
 1839W        W70244  18.826  40.461  10.756
 1840W        W70245  43.716   8.426  12.156
 1841W        W70246   8.245  18.142  14.692
 1842W        W70247   1.393  42.115  14.934
 1843W        W70248  39.221   9.698  14.865
 1844W        W70249  42.335   2.848  14.964
 1845W        W70250  40.642   8.677  14.912
 1846W        W70251  43.026  20.071  13.492
 1847W        W70252  35.993   8.742  13.920
 1848W        W70253  14.544  22.502   4.217
 1849W        W70254  35.324  41.665   0.432
 1850W        W70255  37.028  25.545   1.347
 1851W        W70256  28.651  29.570  13.033
 1852W        W70257  33.323  22.046   4.280
 1853W        W70258  17.505  40.823  10.564
 1854W        W70259   0.003  18.785  11.440
 1855W        W70260  22.748  43.992   3.367
 1856W        W70261   4.292  38.406   2.911
 1857W        W70262  37.503  25.414   0.369
 1858W        W70263  16.332  28.660   4.230
 1859W        W70264  41.022   2.664  11.695
 1860W        W70265   9.775  40.582   1.235
 1861W        W70266  17.648   2.980   2.274
 1862W        W70267  11.183  39.519  12.605
 1863W        W70268  12.707   1.386   0.956
 1864W        W70269  36.028  18.683   1.608
 1865W        W70270  19.223  44.941  12.603
 1866W        W70271  25.349  26.375  13.478
 1867W        W70272   5.854  41.339   0.216
 1868W        W70273  36.710   9.226  10.482
 1869W        W70274  28.588  29.138   2.495
 1870W        W70275  26.960  19.841  12.604
 1871W        W70276  38.380  18.632   0.114
 1872W        W70277  16.848  44.482   3.192
 1873W        W70278  23.986  11.647   4.305
 1874W        W70279  24.878   8.073   4.614
 1875W        W70280   9.516   0.637  13.347
 1876W        W70281  36.422  22.764   4.600
 1877W        W70282   4.216  24.688  11.282
 1878W        W70283  34.428  26.990  12.952
 1879W        W70284  21.560  17.371   1.241
 1880W        W70285   1.554   7.423   1.430
 1881W        W70286  24.348  12.313  13.200
 1882W        W70287  16.331  10.757  11.644
 1883W        W70288  14.528  33.934   0.886
 1884W        W70289  13.464   7.875  14.055
 1885W        W70290  28.103  12.815  11.946
 1886W        W70291  30.872  23.466   3.813
 1887W        W70292  31.897  33.990   0.718
 1888W        W70293  21.027   0.821   0.544
 1889W        W70294  11.115  43.423   2.626
 1890W        W70295  31.104  20.027   3.355
 1891W        W70296  33.723   3.658  14.743
 1892W        W70297   6.303  30.267   2.890
 1893W        W70298   9.129  29.333  14.131
 1894W        W70299  31.447  43.998  10.612
 1895W        W70300   8.179  14.959   1.298
 1896W        W70301  36.267  40.002  12.674
 1897W        W70302   3.903   7.396  14.761
 1898W        W70303  14.737   5.359   4.189
 1899W        W70304  26.437  10.396   4.477
 1900W        W70305  35.724  37.678  14.986
 1901W        W70306  43.220  21.235  12.596
 1902W        W70307  25.090  24.809  10.707
 1903W        W70308  44.723   0.784  11.120
 1904W        W70309  32.868  32.914  12.538
 1905W        W70310   8.422  32.507  10.662
 1906W        W70311  27.059   8.191   0.326
 1907W        W70312  23.634  30.913   4.104
 1908W        W70313  12.808   4.869  10.923
 1909W        W70314   9.363  30.502  11.247
 1910W        W70315  29.398  35.323   2.763
 1911W        W70316  22.473  30.693   2.886
 1912W        W70317  29.510  26.935   2.705
 1913W        W70318  32.024  12.076   2.875
 1914W        W70319  37.047  39.802   4.144
 1915W        W70320   5.593  43.851  13.602
 1916W        W70321  23.684  15.918   0.461
 1917W        W70322  30.964  34.684   3.580
 1918W        W70323   4.260  33.386  13.949
 1919W        W70324  13.129  31.132  11.726
 1920W        W70325   6.871   6.411  14.867
 1921W        W70326  26.647  37.142  10.516
 1922W        W70327   4.852  30.521  10.744
 1923W        W70328  40.056   7.908   1.120
 1924W        W70329  32.870   9.877   2.799
 1925W        W70330  30.491  26.594   3.203
 1926W        W70331  38.465   8.299  10.752
 1927W        W70332  12.319  20.217  14.828
 1928W        W70333  40.923   8.368   2.432
 1929W        W70334  17.117  17.798   3.771
 1930W        W70335  40.799  13.333  14.785
 1931W        W70336  31.009  20.195   3.852
 1932W        W70337   0.360  31.921  11.500
 1933W        W70338  32.795  40.771  14.855
 1934W        W70339  15.550  11.239  12.361
 1935W        W70340   1.983  43.818   3.377
 1936W        W70341  22.245  41.425  11.947
 1937W        W70342  15.697  24.726  13.338
 1938W        W70343   7.975  39.902  10.243
 1939W        W70344   2.206   3.404   3.226
 1940W        W70345  41.011  37.175  12.074
 1941W        W70346  14.982  40.772   1.034
 1942W        W70347  25.653  38.108  11.529
 1943W        W70348   3.229  16.301  10.723
 1944W        W70349  10.173  35.103  14.894
 1945W        W70350  17.021  11.784   4.731
 1946W        W70351  10.866   8.398  14.976
 1947W        W70352  12.183  34.841   4.224
 1948W        W70353  21.868   7.024   2.740
 1949W        W70354  23.269  35.715  12.975
 1950W        W70355  29.049  38.294  13.986
 1951W        W70356  36.340  19.534   4.385
 1952W        W70357  35.165  42.268   1.587
 1953W        W70358  13.154  13.530  10.939
 1954W        W70359  12.795   2.359  14.962
 1955W        W70360  17.088   3.160  12.448
 1956W        W70361   3.366  34.023   0.721
 1957W        W70362  17.362   7.350   3.606
 1958W        W70363  42.443  16.698  10.636
 1959W        W70364  43.763  25.923  14.246
 1960W        W70365  31.408   1.355  10.299
 1961W        W70366   6.853  35.853   0.703
 1962W        W70367  25.936   6.934  14.850
 1963W        W70368  37.365  43.868  10.643
 1964W        W70369   0.168  24.226   1.834
 1965W        W70370   1.951   1.301  11.460
 1966W        W70371  18.422  21.342   9.829
 1967W        W70372  35.454  35.997   2.094
 1968W        W70373   7.831  26.173  10.908
 1969W        W70374  43.916  14.412  11.629
 1970W        W70375  17.307  39.210   0.852
 1971W        W70376  27.366  40.765  11.924
 1972W        W70377  10.968  14.386   4.227
 1973W        W70378  21.233  19.317  10.856
 1974W        W70379   7.330  32.253   3.743
 1975W        W70380  20.297  39.059  10.687
 1976W        W70381  32.116  20.682   2.700
 1977W        W70382  10.255  13.377  10.989
 1978W        W70383  22.212  38.561   1.480
 1979W        W70384  42.165  28.998  10.128
 1980W        W70385  14.623  31.897  14.841
 1981W        W70386  42.461  38.042   1.159
 1982W        W70387  10.668  16.151   0.194
 1983W        W70388  38.385  41.163  11.865
 1984W        W70389   4.752  15.606   5.049
 1985W        W70390  33.313  42.754   5.316
 1986W        W70391  18.989  23.499  11.606
 1987W        W70392   4.502  33.008   0.438
 1988W        W70393  20.252   9.132  12.901
 1989W        W70394  12.381  28.748   1.364
 1990W        W70395  41.721  13.747  11.540
 1991W        W70396   2.078  34.424   4.861
 1992W        W70397  17.212  41.828   1.321
 1993W        W70398   1.059   3.989   1.723
 1994W        W70399  16.370  14.683  14.985
 1995W        W70400  21.163  31.543   3.401
 1996W        W70401  37.815  34.157   3.856
 1997W        W70402  10.025  44.203  12.023
 1998W        W70403  34.132  10.159  12.420
 1999W        W70404  40.325  18.953   2.378
 2000W        W70405  28.963  31.086  14.868
 2001W        W70406  22.155  44.291  10.559
 2002W        W70407  17.161  44.493  12.849
 2003W        W70408  41.051  30.465   2.417
 2004W        W70409  41.396  43.034  13.877
 2005W        W70410  29.007  16.753   0.058
 2006W        W70411   3.135   0.405   0.470
 2007W        W70412  25.136  27.216   3.063
 2008W        W70413  17.282  31.473  12.557
 2009W        W70414   7.204  10.913   4.772
 2010W        W70415  41.870   7.202  12.690
 2011W        W70416  12.249  32.762   3.694
 2012W        W70417  42.370  22.156  14.792
 2013W        W70418  25.656  28.437   0.843
 2014W        W70419  42.820   1.234   1.906
 2015W        W70420  29.867   8.283  14.710
 2016W        W70421   8.330  41.361  13.984
 2017W        W70422  27.553   2.300   2.456
 2018W        W70423   2.044   5.540  10.198
 2019W        W70424  15.258  10.105  11.864
 2020W        W70425  19.747  41.429   4.588
 2021W        W70426  27.141  28.572   3.318
 2022W        W70427  41.489   7.161  13.045
 2023W        W70428  15.772  44.914  13.828
 2024W        W70429   7.722  24.061   3.593
 2025W        W70430  27.684  37.012  14.942
 2026W        W70431  38.907  14.187  13.088
 2027W        W70432   6.708  34.916   0.403
 2028W        W70433   0.281   3.297  12.186
 2029W        W70434  36.552   1.674  13.478
 2030W        W70435  38.915  14.137  11.577
 2031W        W70436  16.375  19.120  11.065
 2032W        W70437  19.571   4.790  14.312
 2033W        W70438  13.267   2.479  14.731
 2034W        W70439  36.356  35.347   2.965
 2035W        W70440  22.474   7.417   4.592
 2036W        W70441  37.246  26.631  10.685
 2037W        W70442   4.137  30.048   2.605
 2038W        W70443  16.920  32.167  11.671
 2039W        W70444  19.459   0.657   4.130
 2040W        W70445  11.257  33.963   0.231
 2041W        W70446  29.116  40.532   2.101
 2042W        W70447  33.461  25.764  12.486
 2043W        W70448  36.185  29.631  12.010
 2044W        W70449  32.743  43.937  10.884
 2045W        W70450  37.964  27.763   1.342
 2046W        W70451   0.363  44.283  11.696
 2047W        W70452  38.828  32.117  11.230
 2048W        W70453  17.212  26.957   0.729
 2049W        W70454  29.633  44.063   4.615
 2050W        W70455   7.838   4.983   0.024
 2051W        W70456  32.947  23.684  13.314
 2052W        W70457  40.808  33.687   1.974
 2053W        W70458   5.935   4.351  11.572
 2054W        W70459  12.173  33.066   1.263
 2055W        W70460  16.038  15.624   4.033
 2056W        W70461  31.379  20.272  11.684
 2057W        W70462   9.266  39.030  13.518
 2058W        W70463  38.217  44.983   1.274
 2059W        W70464  29.708  29.651   3.519
 2060W        W70465   3.232   0.251   4.213
 2061W        W70466  13.545   1.015  11.583
 2062W        W70467  18.100   8.337  11.153
 2063W        W70468  20.657   1.753   4.232
 2064W        W70469  32.566   4.941  10.554
 2065W        W70470  41.507  11.163  13.037
 2066W        W70471  12.293  29.999   1.200
 2067W        W70472  11.221  34.485  10.991
 2068W        W70473   0.710  14.378  12.859
 2069W        W70474   9.776   6.309   3.741
 2070W        W70475  19.832  25.481  12.207
 2071W        W70476  29.244  33.129   1.063
 2072W        W70477   7.456  31.753   3.060
 2073W        W70478  41.945  14.382  13.058
 2074W        W70479  12.113  23.506   3.232
 2075W        W70480  12.301  15.252  12.523
 2076W        W70481  41.382  24.273  12.119
 2077W        W70482  15.314  17.626   3.509
 2078W        W70483  34.095  35.661  11.992
 2079W        W70484   0.096  16.385   1.351
 2080W        W70485  36.973   5.278   1.234
 2081W        W70486  40.757  27.463   3.110
 2082W        W70487  35.005   7.237   1.485
 2083W        W70488   3.186   7.334  14.298
 2084W        W70489   7.284  20.983   3.370
 2085W        W70490  35.399   6.610  11.381
 2086W        W70491   1.735   4.156  11.992
 2087W        W70492  23.042  11.791   4.282
 2088W        W70493  37.762  30.117   1.209
 2089W        W70494  43.814  10.252  12.504
 2090W        W70495  19.253  22.622   1.715
 2091W        W70496   1.215  24.004   1.309
 2092W        W70497  34.662  31.161   1.145
 2093W        W70498  17.431   0.184   4.078
 2094W        W70499  35.971  23.486  12.085
 2095W        W70500  27.514  33.884   0.350
 2096W        W70501  21.462  23.468   3.157
 2097W        W70502   0.944  24.421   0.122
 2098W        W70503  26.662   2.547   3.181
 2099W        W70504   4.771   8.751  13.850
 2100W        W70505  36.290   5.430  12.371
 2101W        W70506   7.416  21.470   1.397
 2102W        W70507  41.862  37.296   1.980
 2103W        W70508  15.883  13.597   3.715
 2104W        W70509  33.139   1.067   0.833
 2105W        W70510  20.028  37.445  14.935
 2106W        W70511  25.495   8.134  12.661
 2107W        W70512  30.172  10.959   0.948
 2108W        W70513  43.574  29.962   2.654
 2109W        W70514  14.746  10.239   4.696
 2110W        W70515  16.083  11.677  13.910
 2111W        W70516  36.795  30.594  10.917
 2112W        W70517  10.460  20.157  11.890
 2113W        W70518  22.249  27.075  14.573
 2114W        W70519  12.685  31.347   1.681
 2115W        W70520  38.755   8.079  11.119
 2116W        W70521  28.507  15.155   9.561
 2117W        W70522  22.074   7.724  12.271
 2118W        W70523  15.758  29.035  13.133
 2119W        W70524  29.491  34.479  14.602
 2120W        W70525  38.983  37.445  13.695
 2121W        W70526  27.482  41.582   3.246
 2122W        W70527   3.910  10.535  12.583
 2123W        W70528  39.343  32.154  10.559
 2124W        W70529  25.451  30.014   1.717
 2125W        W70530  13.361  29.663   4.226
 2126W        W70531  25.126  43.927   3.273
 2127W        W70532  11.272  17.176   4.080
 2128W        W70533  23.011   4.751  13.150
 2129W        W70534   0.319  12.572  11.128
 2130W        W70535  19.017  26.625  12.021
 2131W        W70536  17.050  14.644  13.342
 2132W        W70537  19.812  24.613  10.591
 2133W        W70538   8.156  12.579   1.332
 2134W        W70539   7.696  14.605   1.027
 2135W        W70540  16.762  31.363   2.302
 2136W        W70541  14.309  37.600   1.074
 2137W        W70542   5.773  27.106  11.994
 2138W        W70543  13.829  29.091   4.633
 2139W        W70544  26.599   9.171  11.064
 2140W        W70545   8.111   6.595   4.120
 2141W        W70546   5.881  25.839   2.805
 2142W        W70547   1.490  15.061  14.314
 2143W        W70548  35.376  10.015   3.201
 2144W        W70549  43.048  21.042   0.300
 2145W        W70550  21.272   2.881  13.004
 2146W        W70551   2.750  16.925  11.237
 2147W        W70552  21.999  10.786  14.975
 2148W        W70553   8.204  28.057  14.155
 2149W        W70554  34.899  20.611  14.890
 2150W        W70555  33.556  23.230   1.428
 2151W        W70556  42.830   0.870   1.252
 2152W        W70557  15.168  32.931  14.493
 2153W        W70558  41.546  35.850  13.715
 2154W        W70559  43.394   9.649  13.059
 2155W        W70560  29.739  19.271   4.221
 2156W        W70561  10.917  16.189  14.740
 2157W        W70562  24.741  21.599  14.488
 2158W        W70563  29.842  37.534   2.670
 2159W        W70564  24.926  19.699   3.600
 2160W        W70565  32.675  42.341  13.089
 2161W        W70566  36.331  23.653   4.951
 2162W        W70567  38.146  12.895   1.987
 2163W        W70568   9.822   1.956   0.701
 2164W        W70569  36.494  18.373  13.002
 2165W        W70570  41.404  39.309   1.928
 2166W        W70571  37.583  22.845  12.338
 2167W        W70572  18.910  28.154  11.585
 2168W        W70573  33.480  13.735  11.922
 2169W        W70574  24.762  33.213   3.776
 2170W        W70575  26.388   7.788  12.667
 2171W        W70576  31.307  34.115  13.464
 2172W        W70577  38.932   5.079   3.166
 2173W        W70578  28.466  39.850  11.552
 2174W        W70579  21.991  29.722   1.386
 2175W        W70580  41.875  21.779  10.979
 2176W        W70581  44.231  14.231   0.907
 2177W        W70582  38.548  39.394   1.179
 2178W        W70583   7.278   6.667  12.550
 2179W        W70584  10.853  28.240   4.097
 2180W        W70585  24.250   4.286   3.622
 2181W        W70586  42.696  22.323   1.880
 2182W        W70587   9.316  40.184   0.433
 2183W        W70588   1.603  30.278  13.399
 2184W        W70589  18.085  12.903   4.350
 2185W        W70590   4.899  28.279   1.344
 2186W        W70591  27.962  28.453   4.818
 2187W        W70592  24.479  23.274   1.892
 2188W        W70593  10.308  25.628  13.993
 2189W        W70594  40.777  38.340   0.004
 2190W        W70595  42.439  10.580  11.154
 2191W        W70596  44.833  14.575   0.327
 2192W        W70597  22.241  31.388  11.591
 2193W        W70598  39.769  27.962   0.547
 2194W        W70599  15.245  29.959  10.879
 2195W        W70600  43.826  11.825   4.676
 2196W        W70601  38.398   2.414  13.475
 2197W        W70602  43.942  27.157   4.804
 2198W        W70603   6.243  31.436  10.833
 2199W        W70604   1.949  17.094   3.749
 2200W        W70605  43.650  28.874   1.394
 2201W        W70606   9.610   9.002  13.941
 2202W        W70607  26.324  23.186  12.175
 2203W        W70608  24.085  44.092  12.333
 2204W        W70609  10.020  35.276   3.626
 2205W        W70610  22.978  21.672  14.453
 2206W        W70611  39.139  43.515   4.710
 2207W        W70612   6.038  42.853  10.161
 2208W        W70613   6.844  16.808  14.854
 2209W        W70614  22.227  12.880   4.557
 2210W        W70615  29.317   8.583   4.954
 2211W        W70616  38.547  13.301  14.532
 2212W        W70617  36.603  28.323  10.675
 2213W        W70618  18.632  38.423   1.455
 2214W        W70619  40.431  10.431  13.486
 2215W        W70620  28.828  13.031   0.417
 2216W        W70621  16.144  43.903  11.388
 2217W        W70622  15.402   3.508  10.298
 2218W        W70623  11.389  14.427   0.206
 2219W        W70624  24.670  26.711  11.643
 2220W        W70625  32.428   0.831  12.448
 2221W        W70626  27.797  13.148  13.938
 2222W        W70627  39.536   0.791   2.184
 2223W        W70628  33.251  44.289   1.202
 2224W        W70629  31.461  14.807   1.437
 2225W        W70630  43.131  11.009   0.679
 2226W        W70631  11.792  20.471   1.971
 2227W        W70632  17.679   2.745  14.147
 2228W        W70633  31.616  10.845  11.490
 2229W        W70634  15.306   2.719  10.705
 2230W        W70635  26.249  22.950   1.933
 2231W        W70636  10.879   1.473   1.310
 2232W        W70637   4.902  10.184   3.073
 2233W        W70638  13.606  32.919  10.647
 2234W        W70639  36.302   5.848  11.055
 2235W        W70640  25.482  38.400   1.796
 2236W        W70641  33.927  19.222   2.407
 2237W        W70642   6.457  29.929   0.684
 2238W        W70643  40.648   7.156   2.665
 2239W        W70644  37.370  35.462   0.513
 2240W        W70645  25.464  30.117  14.487
 2241W        W70646   7.504  28.211   2.426
 2242W        W70647  12.753  21.185  12.474
 2243W        W70648  15.718  16.255  11.396
 2244W        W70649  40.438   5.304   1.188
 2245W        W70650  34.182  44.906  11.591
 2246W        W70651  31.415   8.282   4.643
 2247W        W70652  14.004  25.161   0.764
 2248W        W70653  44.480  41.630  10.483
 2249W        W70654  29.590   5.932   3.399
 2250W        W70655  35.436   7.253  12.974
 2251W        W70656  15.180  38.544  11.043
 2252W        W70657   0.909   4.108  14.045
 2253W        W70658   0.439   4.001   3.287
 2254W        W70659  34.121   5.738  10.609
 2255W        W70660  36.645  22.578   1.728
 2256W        W70661  40.482   6.772   0.276
 2257W        W70662  15.829   2.189  10.164
 2258W        W70663   1.173  34.957   2.529
 2259W        W70664  30.078  13.713  10.704
 2260W        W70665  12.784  25.089   0.704
 2261W        W70666  22.593  28.492  13.816
 2262W        W70667   9.187  43.096   2.201
 2263W        W70668  15.199   6.250   4.751
 2264W        W70669   7.760  15.008   4.516
 2265W        W70670  35.402  33.832  13.011
 2266W        W70671   4.480  13.835  12.370
 2267W        W70672  20.741  30.132  12.646
 2268W        W70673  25.317  38.850  13.135
 2269W        W70674  28.987  25.708  11.638
 2270W        W70675   3.439   2.429   2.371
 2271W        W70676   4.880  21.616  13.011
 2272W        W70677  31.339  43.440   2.356
 2273W        W70678   9.037   8.114  10.674
 2274W        W70679  42.289   9.156   4.904
 2275W        W70680   4.852   8.493  11.164
 2276W        W70681   8.460  24.866   3.249
 2277W        W70682  42.773   6.888  14.838
 2278W        W70683   2.762  24.484   2.274
 2279W        W70684  20.989  20.821   4.072
 2280W        W70685  26.210  33.446  11.986
 2281W        W70686   7.886   3.823  13.116
 2282W        W70687  22.598  40.492  13.791
 2283W        W70688  16.959   3.395   0.489
 2284W        W70689  37.593  37.062   1.794
 2285W        W70690  37.532   7.983   0.945
 2286W        W70691   0.452  25.975   3.759
 2287W        W70692  40.007  37.244   1.794
 2288W        W70693  23.066  35.037  12.194
 2289W        W70694   7.945   8.420   2.383
 2290W        W70695  28.019   1.743   3.795
 2291W        W70696  34.350  31.971   0.060
 2292W        W70697  35.022  16.602  11.500
 2293W        W70698   6.437  22.267  12.451
 2294W        W70699  32.493  18.021  10.758
 2295W        W70700  24.974  14.670   3.177
 2296W        W70701   5.788   9.218   2.376
 2297W        W70702  24.473   4.771   1.894
 2298W        W70703  24.732   8.727  12.967
 2299W        W70704   0.204  15.923   4.402
 2300W        W70705   8.168  41.404   2.203
 2301W        W70706  25.423  16.557   3.314
 2302W        W70707   8.246  21.075  10.055
 2303W        W70708   7.282  23.469   3.258
 2304W        W70709  33.931  37.627  11.179
 2305W        W70710  39.553  35.421   1.888
 2306W        W70711  43.932  38.397  10.571
 2307W        W70712  44.889  10.307   4.549
 2308W        W70713   8.938   3.072  11.951
 2309W        W70714   3.712   9.803  12.314
 2310W        W70715  28.874   7.210  13.430
 2311W        W70716  34.882  12.144   1.821
 2312W        W70717   2.982  34.297   3.152
 2313W        W70718  31.848   1.464   1.492
 2314W        W70719  39.879  28.860  13.856
 2315W        W70720  41.837  16.993   0.481
 2316W        W70721  43.850  25.759   3.738
 2317W        W70722  42.981  23.446  14.298
 2318W        W70723   8.602   9.463  11.092
 2319W        W70724   1.460  40.955   1.932
 2320W        W70725   5.422  35.351   0.228
 2321W        W70726  15.886  12.346  12.080
 2322W        W70727  39.170  42.765  12.469
 2323W        W70728  10.882  34.141  14.397
 2324W        W70729  20.262  38.513   3.338
 2325W        W70730  23.081   7.793   1.818
 2326W        W70731  13.879  21.745  14.522
 2327W        W70732  26.093  11.685   4.168
 2328W        W70733  23.819  10.126   4.563
 2329W        W70734  33.861  10.470   2.849
 2330W        W70735  19.949  25.724   4.920
 2331W        W70736  42.298  21.948  10.686
 2332W        W70737   3.814  12.672  11.292
 2333W        W70738  38.612  34.786   0.304
 2334W        W70739   5.633  36.137   1.266
 2335W        W70740   3.277   7.946  12.662
 2336W        W70741  37.806  25.537  13.371
 2337W        W70742  20.506  41.011   0.761
 2338W        W70743  37.164   5.305   3.162
 2339W        W70744  12.522   6.173   4.597
 2340W        W70745  39.485  37.074  13.324
 2341W        W70746  16.891  24.228   9.974
 2342W        W70747  31.248  23.504  11.221
 2343W        W70748  15.313  26.802  14.802
 2344W        W70749  29.511   7.708   1.167
 2345W        W70750  18.937  26.232  13.055
 2346W        W70751  32.714  35.021   1.401
 2347W        W70752  18.525  31.186  11.557
 2348W        W70753  38.072  11.412   3.555
 2349W        W70754  18.197  17.392  12.093
 2350W        W70755  42.900  21.354   4.279
 2351W        W70756  40.366  26.395  12.874
 2352W        W70757  39.084   0.307   2.625
 2353W        W70758  37.822  27.653   4.410
 2354W        W70759  36.466  27.215   1.266
 2355W        W70760  13.750  22.671   3.420
 2356W        W70761  22.064  43.981   2.759
 2357W        W70762  30.791  21.732  14.360
 2358W        W70763  26.920  44.935  14.874
 2359W        W70764  23.223  31.516   2.192
 2360W        W70765  43.382  40.059  13.972
 2361W        W70766   1.690  13.342  12.588
 2362W        W70767  10.828   6.814  14.872
 2363W        W70768  28.672   3.818  10.605
 2364W        W70769  21.148  32.045   3.029
 2365W        W70770  35.908   2.893   2.305
 2366W        W70771  29.236  34.471  10.960
 2367W        W70772  11.673   4.269   4.253
 2368W        W70773  22.599   6.742  13.976
 2369W        W70774  12.932  28.187   1.692
 2370W        W70775   0.269  12.852   1.919
 2371W        W70776  29.415  18.695  11.615
 2372W        W70777  42.249  43.857  14.041
 2373W        W70778   0.485  33.769   0.570
 2374W        W70779  41.953   9.434   1.945
 2375W        W70780  41.028   0.267   2.210
 2376W        W70781  15.864  27.060  10.206
 2377W        W70782   6.206  23.696  10.615
 2378W        W70783  36.369  40.378   0.723
 2379W        W70784  41.663  43.916   1.930
 2380W        W70785   3.221  43.518  12.498
 2381W        W70786  14.720  15.043   2.718
 2382W        W70787  28.777  41.341  12.249
 2383W        W70788  12.510  10.307  12.892
 2384W        W70789  13.712  22.287   4.810
 2385W        W70790  31.933  38.491   0.272
 2386W        W70791  13.099  24.147   0.874
 2387W        W70792  43.056  35.707   1.738
 2388W        W70793   3.222  17.810   0.257
 2389W        W70794   1.315  10.912   1.318
 2390W        W70795  31.574  25.011   4.286
 2391W        W70796  43.549  31.897   0.818
 2392W        W70797  33.136  26.293   1.919
 2393W        W70798  35.224  43.513   3.679
 2394W        W70799   1.705  11.811   2.099
 2395W        W70800  14.562  42.775   0.864
 2396W        W70801  12.333  18.660   1.455
 2397W        W70802  11.563  13.621   3.270
 2398W        W70803  24.544  31.199   2.859
 2399W        W70804   4.280  22.539  12.077
 2400W        W70805  41.373  27.199   3.699
 2401W        W70806  40.814  30.915   1.698
 2402W        W70807  19.963   0.018   2.896
 2403W        W70808  30.422  29.626  14.241
 2404W        W70809  28.554  25.868  14.234
 2405W        W70810  27.625  35.427  14.155
 2406W        W70811  13.397  30.587  12.506
 2407W        W70812  20.750  18.472   1.685
 2408W        W70813  33.009  14.749   0.558
 2409W        W70814  34.467  39.387  11.033
 2410W        W70815  25.217  15.177  14.127
 2411W        W70816  44.238  27.913  10.164
 2412W        W70817  40.520  41.832   2.408
 2413W        W70818   1.325  26.262   2.401
 2414W        W70819  35.874  38.870   3.080
 2415W        W70820  11.631   7.100   1.397
 2416W        W70821  39.060  10.797   2.743
 2417W        W70822  33.564  43.768   0.510
 2418W        W70823  14.604  34.495  10.460
 2419W        W70824  29.601   1.573  11.101
 2420W        W70825  23.998  22.072   4.422
 2421W        W70826  37.975   0.664  10.683
 2422W        W70827   0.203  15.238  11.192
 2423W        W70828  19.623  30.622  12.719
 2424W        W70829  13.952  25.514   2.461
 2425W        W70830  25.560  42.789  14.896
 2426W        W70831   7.353  35.244  13.091
 2427W        W70832   9.352  34.787  12.947
 2428W        W70833  13.784  22.390   2.213
 2429W        W70834  10.822  42.214   4.346
 2430W        W70835   7.911   0.055   0.471
 2431W        W70836  15.758  34.002  12.723
 2432W        W70837   7.847  23.017   2.864
 2433W        W70838  31.071   2.125  12.722
 2434W        W70839  22.683  28.623  13.329
 2435W        W70840   9.413  44.422   4.349
 2436W        W70841   2.200  29.545  10.538
 2437W        W70842  34.949  30.161  13.929
 2438W        W70843  16.152   5.880  11.444
 2439W        W70844  35.400  10.088   1.300
 2440W        W70845  29.648  44.797  10.628
 2441W        W70846  44.035  23.188   1.733
 2442W        W70847   1.921  39.485   2.583
 2443W        W70848  25.055  14.239  12.503
 2444W        W70849  23.783  31.805  13.929
 2445W        W70850   4.683  44.087   1.753
 2446W        W70851  10.004  43.963  11.068
 2447W        W70852  37.105  11.554   2.150
 2448W        W70853  37.686  27.561  12.050
 2449W        W70854  15.538  21.467   2.341
 2450W        W70855  38.190  25.114   4.392
 2451W        W70856  12.827   0.018   1.864
 2452W        W70857  24.270  18.191   2.458
 2453W        W70858  38.297  42.968  14.039
 2454W        W70859  16.719  21.473  12.090
 2455W        W70860   9.323   9.677   0.164
 2456W        W70861   3.248  27.026   0.421
 2457W        W70862  11.421   8.902   3.286
 2458W        W70863  38.730  40.051  12.478
 2459W        W70864  40.068   8.900   1.190
 2460W        W70865  15.079  32.054   4.559
 2461W        W70866  33.276  20.596  11.138
 2462W        W70867  25.561  35.351   1.646
 2463W        W70868  19.452  37.404   2.970
 2464W        W70869  11.044   1.081  13.420
 2465W        W70870   5.436  30.918   2.723
 2466W        W70871  42.832  25.492   1.035
 2467W        W70872  26.356   7.191  11.245
 2468W        W70873  12.920  42.287  10.444
 2469W        W70874   2.710   9.346   1.445
 2470W        W70875  24.005  32.869  14.340
 2471W        W70876  39.047  21.607  14.888
 2472W        W70877   8.880  22.979  14.280
 2473W        W70878   0.278  40.631   3.861
 2474W        W70879  34.299  44.438  11.154
 2475W        W70880  34.571  10.362  13.598
 2476W        W70881  10.291  29.464  10.760
 2477W        W70882   4.903  31.100  14.425
 2478W        W70883  27.148  34.452   2.878
 2479W        W70884  17.229  18.926  14.876
 2480W        W70885  30.487  26.523  12.102
 2481W        W70886  28.667  26.039   3.966
 2482W        W70887  15.125  23.756   1.455
 2483W        W70888  10.897  22.980  14.472
 2484W        W70889  25.464  34.894   3.861
 2485W        W70890   4.862  40.310  11.622
 2486W        W70891  25.477  12.315   1.033
 2487W        W70892   9.231  43.873   1.693
 2488W        W70893   0.780   5.788   3.594
 2489W        W70894  26.056   6.200   0.131
 2490W        W70895  36.857  32.126  11.171
 2491W        W70896  10.762  39.835   3.639
 2492W        W70897   6.272   7.412   2.826
 2493W        W70898   5.738  17.966   4.563
 2494W        W70899  37.823   8.594   0.304
 2495W        W70900   0.518  24.041   2.143
 2496W        W70901  27.039  35.216   3.285
 2497W        W70902   8.936  22.621  11.792
 2498W        W70903  31.874  30.661  14.283
 2499W        W70904   4.249  18.849   1.430
 2500W        W70905  29.128  32.051  12.898
 2501W        W70906  32.744  30.905  11.195
 2502W        W70907  16.750  33.389  12.662
 2503W        W70908  27.221  43.242  11.653
 2504W        W70909  39.044   4.973   5.269
 2505W        W70910  38.292  35.289  12.850
 2506W        W70911  38.874  29.608   3.054
 2507W        W70912  10.281  24.484  12.951
 2508W        W70913  20.779   3.157   1.040
 2509W        W70914  10.006  39.513  13.833
 2510W        W70915   4.820  42.718   0.660
 2511W        W70916  34.471  40.510   4.689
 2512W        W70917  41.433  22.230   4.105
 2513W        W70918  22.333  43.309   3.895
 2514W        W70919  35.027   6.600  11.021
 2515W        W70920   8.140  29.417   1.899
 2516W        W70921  35.060  20.763  13.017
 2517W        W70922  39.330  24.716   2.115
 2518W        W70923  17.876   6.241   0.455
 2519W        W70924  22.723  18.972  12.496
 2520W        W70925  42.344   8.145  11.889
 2521W        W70926  19.984  19.692  13.447
 2522W        W70927  34.535  43.956  11.092
 2523W        W70928   2.711   6.322   2.780
 2524W        W70929  20.980  25.962  11.991
 2525W        W70930   4.834   1.249  12.002
 2526W        W70931  28.244  40.978  13.104
 2527W        W70932   3.652  32.990  13.996
 2528W        W70933  25.871  38.514   4.420
 2529W        W70934  20.688  33.177  11.098
 2530W        W70935  37.792  29.087   4.884
 2531W        W70936  16.230  34.884  13.083
 2532W        W70937   5.734  10.310  12.065
 2533W        W70938   3.340  18.866  12.658
 2534W        W70939  23.946  12.092   2.320
 2535W        W70940  44.567   7.773  13.786
 2536W        W70941  25.511  29.340  11.097
 2537W        W70942  32.052   9.933  13.502
 2538W        W70943   5.226  37.729   1.201
 2539W        W70944   5.635   2.849   2.468
 2540W        W70945  23.758   3.881   4.597
 2541W        W70946  29.638   1.971   3.232
 2542W        W70947  25.693  23.714  11.672
 2543W        W70948   4.976  22.081   0.870
 2544W        W70949   7.847  38.821   3.151
 2545W        W70950  37.820  32.159  14.288
 2546W        W70951  26.552   7.841  14.426
 2547W        W70952  10.604   7.917  12.959
 2548W        W70953  23.454  35.266  14.863
 2549W        W70954  35.439   1.165  10.826
 2550W        W70955  42.967  39.354  11.592
 2551W        W70956  27.699  19.613  13.013
 2552W        W70957   3.686  43.995  14.017
 2553W        W70958  41.427  20.013   1.972
 2554W        W70959  20.155  26.637   1.802
 2555W        W70960  29.198  37.552   3.628
 2556W        W70961   1.079  26.490  12.591
 2557W        W70962  39.952  39.024  14.934
 2558W        W70963   9.421  37.433   3.145
 2559W        W70964  35.580  23.026   2.810
 2560W        W70965  23.288  27.195  11.035
 2561W        W70966  27.461   2.897  10.614
 2562W        W70967  27.966  43.427  12.314
 2563W        W70968  28.342  17.550  11.218
 2564W        W70969   3.243  27.552   0.297
 2565W        W70970  22.253  40.857  11.285
 2566W        W70971  12.389  34.482  11.645
 2567W        W70972  35.760   5.994   4.995
 2568W        W70973   4.683  14.326  10.204
 2569W        W70974  44.446  25.210   0.629
 2570W        W70975  38.017  11.600  13.444
 2571W        W70976   3.293  44.848  12.852
 2572W        W70977  40.060  43.430   2.359
 2573W        W70978  26.767  40.847  12.959
 2574W        W70979  27.933  43.033  14.846
 2575W        W70980  36.597  15.531  11.615
 2576W        W70981  11.225  22.544   0.278
 2577W        W70982  24.605  29.378   0.876
 2578W        W70983  31.084  43.462  12.187
 2579W        W70984   1.819  17.171   0.806
 2580W        W70985  17.245  22.175  12.219
 2581W        W70986   3.935  21.700   2.407
 2582W        W70987  42.036  22.274  10.397
 2583W        W70988  33.031  41.733  14.152
 2584W        W70989  13.679  13.196   1.069
 2585W        W70990  34.995  17.721  12.923
 2586W        W70991  33.883  11.072  13.308
 2587W        W70992   6.429   0.053  13.403
 2588W        W70993  34.812  28.979   2.182
 2589W        W70994   3.291   3.776   0.856
 2590W        W70995  15.764  17.960   1.497
 2591W        W70996  18.259  33.505   3.196
 2592W        W70997  26.493  39.317  11.067
 2593W        W70998  42.531  43.854   1.345
 2594W        W70999   2.561  43.351  11.630
 2595W        W71000  30.150  10.369  12.450
 2596W        W71001  31.476   9.760  14.301
 2597W        W71002  15.389  40.542   4.931
 2598W        W71003  18.935   7.093  10.299
 2599W        W71004   8.796  25.190   4.620
 2600W        W71005  12.096   7.242  13.405
 2601W        W71006  40.849  41.256  12.075
 2602W        W71007  27.497  39.356  10.093
 2603W        W71008  34.370  10.257   3.567
 2604W        W71009  24.938  26.514   0.833
 2605W        W71010  37.440   6.547   2.787
 2606W        W71011  33.940  13.678  10.715
 2607W        W71012   7.536  29.135  12.561
 2608W        W71013  22.436  14.175   4.468
 2609W        W71014  35.028  24.766   2.656
 2610W        W71015  41.060   0.912  11.525
 2611W        W71016  31.572   8.515   2.762
 2612W        W71017   0.379  12.362   1.041
 2613W        W71018  36.880  16.168  13.464
 2614W        W71019  10.341  16.587  14.276
 2615W        W71020   0.291  12.323  12.040
 2616W        W71021  21.900  19.696   2.279
 2617W        W71022  35.736  37.488  10.713
 2618W        W71023  22.816  10.290   1.883
 2619W        W71024   9.292   1.313   2.299
 2620W        W71025  41.399  27.020   1.892
 2621W        W71026  36.493  33.840   4.214
 2622W        W71027   2.825  29.743  11.710
 2623W        W71028   0.761  22.738   0.784
 2624W        W71029  42.778  23.244  13.657
 2625W        W71030  21.243   3.226  14.347
 2626W        W71031   5.489   7.922   0.397
 2627W        W71032  13.041  10.372  10.599
 2628W        W71033  33.587   6.328  11.031
 2629W        W71034  22.700  44.697  11.478
 2630W        W71035  27.583   0.770  13.957
 2631W        W71036  43.035  27.463   1.282
 2632W        W71037  31.533   7.231   1.170
 2633W        W71038  39.649  32.108  14.366
 2634W        W71039   6.223  43.437   3.431
 2635W        W71040  29.585  36.891  11.991
 2636W        W71041   3.948  39.770  13.959
 2637W        W71042   3.354  26.743   4.617
 2638W        W71043  20.735   5.979  10.442
 2639W        W71044  10.104  40.642  11.983
 2640W        W71045  32.995  22.243  11.760
 2641W        W71046  17.142  30.995   3.024
 2642W        W71047  25.880  34.169  11.722
 2643W        W71048  21.057  17.653  14.777
 2644W        W71049  30.129  23.655   0.091
 2645W        W71050   2.948   5.873   1.938
 2646W        W71051   5.574  11.162  14.332
 2647W        W71052  34.852  41.322  13.927
 2648W        W71053  40.282  17.710   2.873
 2649W        W71054  40.570   4.735   4.045
 2650W        W71055  42.838   1.097   4.075
 2651W        W71056  34.405  43.321  12.826
 2652W        W71057  18.538  32.412  13.983
 2653W        W71058  21.442   4.805   2.624
 2654W        W71059  38.960  21.495   4.765
 2655W        W71060   2.593   8.431   4.125
 2656W        W71061  21.586  23.573   4.555
 2657W        W71062  16.339  10.540  14.997
 2658W        W71063   3.492   0.701   4.140
 2659W        W71064  30.609  16.185  14.685
 2660W        W71065  13.846  32.132  10.255
 2661W        W71066  41.043   4.003  14.983
 2662W        W71067  30.374  28.670   0.683
 2663W        W71068  38.349  33.445  13.395
 2664W        W71069  43.784  41.767   1.942
 2665W        W71070  39.295  10.219   3.903
 2666W        W71071  25.985  30.314  10.715
 2667W        W71072  23.586  13.217   1.766
 2668W        W71073  22.793  28.049   0.161
 2669W        W71074   8.887  39.859   3.857
 2670W        W71075  26.124  20.176   1.667
 2671W        W71076  10.402  27.710   1.457
 2672W        W71077  27.956  11.368   0.234
 2673W        W71078  11.631   2.415  13.276
 2674W        W71079   2.035   7.958  10.655
 2675W        W71080  17.538  20.329  14.934
 2676W        W71081  20.988  44.529  12.498
 2677W        W71082  22.660  19.801  13.462
 2678W        W71083  16.794  19.092  10.673
 2679W        W71084  17.967  21.071  11.585
 2680W        W71085  36.656  23.106  14.650
 2681W        W71086   2.193   1.410   3.540
 2682W        W71087  20.757  20.104  13.380
 2683W        W71088  23.449  28.038  13.776
 2684W        W71089  29.061  43.345  11.652
 2685W        W71090  18.058  13.758   0.520
 2686W        W71091  25.335   5.960  13.466
 2687W        W71092   1.712  33.334  14.884
 2688W        W71093  29.133  25.071   2.280
 2689W        W71094  20.179  42.725   0.716
 2690W        W71095   2.384  39.144   3.846
 2691W        W71096  21.688  12.560  13.488
 2692W        W71097  20.468  13.240  10.386
 2693W        W71098  19.632   7.467  13.839
 2694W        W71099   6.872  40.890  12.249
 2695W        W71100  28.070  26.132  10.560
 2696W        W71101   8.216  26.994  12.161
 2697W        W71102  24.943  14.286   0.516
 2698W        W71103  32.090  35.453   1.834
 2699W        W71104  17.584   7.705   2.215
 2700W        W71105  10.245   0.778   0.945
 2701W        W71106  39.291  16.080  11.951
 2702W        W71107  27.658  26.079   1.292
 2703W        W71108  40.756  31.378   1.917
 2704W        W71109  20.323   6.703   3.068
 2705W        W71110   0.815   2.529  12.525
 2706W        W71111   4.488  10.356   4.306
 2707W        W71112  36.191  23.420   1.259
 2708W        W71113  17.031  10.776  13.834
 2709W        W71114  14.007   4.726   3.126
 2710W        W71115  10.107  37.580   0.297
 2711W        W71116   6.147  18.785   4.515
 2712W        W71117  23.625  25.021   0.229
 2713W        W71118  38.807  27.476  10.756
 2714W        W71119  44.390   0.351   2.565
 2715W        W71120   2.896  21.597   0.859
 2716W        W71121  14.625  32.255  13.617
 2717W        W71122  44.208  29.712   0.685
 2718W        W71123  10.800  36.753   2.887
 2719W        W71124   0.415  24.950   2.209
 2720W        W71125  19.602  27.732   1.021
 2721W        W71126  11.710  12.581   2.093
 2722W        W71127  44.459  24.733  11.558
 2723W        W71128  23.575  10.923  14.093
 2724W        W71129  13.601  19.009   2.656
 2725W        W71130  23.697  30.162   1.726
 2726W        W71131  43.126  10.603  14.716
 2727W        W71132   2.712  38.305  14.367
 2728W        W71133  15.871  22.673   2.588
 2729W        W71134  20.491  21.590   0.962
 2730W        W71135  30.898  20.133   1.330
 2731W        W71136  28.895  12.009  12.542
 2732W        W71137  31.567   6.792   2.455
 2733W        W71138   1.346  37.864   2.554
 2734W        W71139  38.888   3.678  10.269
 2735W        W71140  31.496  25.424   1.919
 2736W        W71141  40.016   9.418   2.470
 2737W        W71142   3.798  13.934   0.502
 2738W        W71143  31.239  36.853   1.737
 2739W        W71144  16.755  28.199   0.330
 2740W        W71145  14.003  36.979  14.041
 2741W        W71146  10.589  28.997   2.194
 2742W        W71147  11.086   5.233  10.690
 2743W        W71148  37.479  40.049   3.195
 2744W        W71149  40.034  31.548   4.660
 2745W        W71150   9.973  29.882   1.195
 2746W        W71151  25.159  41.030   2.221
 2747W        W71152  26.240   8.401   4.194
 2748W        W71153  38.350  13.328   2.788
 2749W        W71154   3.886   6.642   3.679
 2750W        W71155  25.504  31.718  14.399
 2751W        W71156  27.487   3.964   2.756
 2752W        W71157  14.546  20.816  10.365
 2753W        W71158   3.277  31.067  13.759
 2754W        W71159  26.890   6.878   2.879
 2755W        W71160  14.282  28.148   2.351
 2756W        W71161  39.114  17.824   2.230
 2757W        W71162  29.500  21.593  12.945
 2758W        W71163   8.692   8.950  10.984
 2759W        W71164  20.226  33.442  14.471
 2760W        W71165  44.923  27.070  13.047
 2761W        W71166  15.591  28.064   3.149
 2762W        W71167  32.154   4.463   3.755
 2763W        W71168  21.108  18.788  12.767
 2764W        W71169  44.537  24.426  11.161
 2765W        W71170  44.804   4.187  14.938
 2766W        W71171  36.327  20.679   2.329
 2767W        W71172  11.844   8.063  12.403
 2768W        W71173  37.017  18.677   0.116
 2769W        W71174  30.895  38.949   2.258
 2770W        W71175  40.025  35.925   4.248
 2771W        W71176  13.333   3.944  13.510
 2772W        W71177  33.054  37.051  12.523
 2773W        W71178  18.293   6.892  14.705
 2774W        W71179  12.416  18.267  10.686
 2775W        W71180  37.537   0.803  13.213
 2776W        W71181  35.633  18.284  10.884
 2777W        W71182  26.687  29.472   2.677
 2778W        W71183  24.210  41.513   3.646
 2779W        W71184   9.488  26.135  10.495
 2780W        W71185  33.434  28.192   1.443
 2781W        W71186  37.401  21.445  12.344
 2782W        W71187   8.461  19.153  13.563
 2783W        W71188  15.412  27.630   1.022
 2784W        W71189  33.077  10.137   0.385
 2785W        W71190   3.631  33.175  11.533
 2786W        W71191  20.610  15.220   1.699
 2787W        W71192  12.647  35.008  13.740
 2788W        W71193   9.634  37.615  12.372
 2789W        W71194  32.084   8.771   4.113
 2790W        W71195  26.902  28.624  11.044
 2791W        W71196   8.168   9.151  11.114
 2792W        W71197  43.951   9.159   1.755
 2793W        W71198  20.307   3.252  13.917
 2794W        W71199  29.118   9.774  13.787
 2795W        W71200  18.130   3.496  10.911
 2796W        W71201  21.517  13.089   0.818
 2797W        W71202   6.386  27.012  13.828
 2798W        W71203  36.467  20.618  12.792
 2799W        W71204  19.244  33.444  14.919
 2800W        W71205  13.532  34.374  14.424
 2801W        W71206  19.756  33.119  10.696
 2802W        W71207  32.943  23.784   2.473
 2803W        W71208  42.895  42.815   0.344
 2804W        W71209  35.087  13.697  11.216
 2805W        W71210   4.000   0.899  13.304
 2806W        W71211  19.757  41.763   0.482
 2807W        W71212   1.621  20.985  12.631
 2808W        W71213   0.375  14.621  11.627
 2809W        W71214  36.403  39.858   0.826
 2810W        W71215   7.123  13.996  14.049
 2811W        W71216   5.854  28.465  11.446
 2812W        W71217   3.652   1.161   1.145
 2813W        W71218  23.652  40.275   0.397
 2814W        W71219   5.650   6.522  10.510
 2815W        W71220   1.070  15.533   3.695
 2816W        W71221   9.668  44.419  11.068
 2817W        W71222  35.235   1.766   0.046
 2818W        W71223   9.706  35.656   0.396
 2819W        W71224  11.912  21.214   4.563
 2820W        W71225  17.686  35.282   4.185
 2821W        W71226  33.987   9.439   4.032
 2822W        W71227   7.121  10.450  13.813
 2823W        W71228  39.788  27.061  14.821
 2824W        W71229   5.091  37.125  14.240
 2825W        W71230  26.433   8.618   5.049
 2826W        W71231  36.027  21.048  11.847
 2827W        W71232  37.984  34.101  14.585
 2828W        W71233  14.673  31.152  14.367
 2829W        W71234   3.653  34.101   1.417
 2830W        W71235  16.566   0.965  14.435
 2831W        W71236   5.825  36.035  14.566
 2832W        W71237  13.028  11.288   2.698
 2833W        W71238  27.116  43.451   2.408
 2834W        W71239   2.201   9.547  11.217
 2835W        W71240  39.831  27.457  10.522
 2836W        W71241  12.555  14.850   1.679
 2837W        W71242  13.594  18.786  14.535
 2838W        W71243   0.497  42.794   3.132
 2839W        W71244  26.620  27.593  12.498
 2840W        W71245   3.288  11.751   4.122
 2841W        W71246  41.858  32.282   4.510
 2842W        W71247  16.180  42.059   4.123
 2843W        W71248  21.441  12.336   0.489
 2844W        W71249  21.867  42.803  11.644
 2845W        W71250  22.197   5.420   1.787
 2846W        W71251  16.049  36.021  12.445
 2847W        W71252  23.925  14.233  13.875
 2848W        W71253   4.952  12.231   2.201
 2849W        W71254  31.555   4.244  13.472
 2850W        W71255  17.724   0.534   2.279
 2851W        W71256  22.599  19.938  12.460
 2852W        W71257  35.578   4.562  14.443
 2853W        W71258  39.077  15.168   2.867
 2854W        W71259  40.936  34.408  11.969
 2855W        W71260   9.392   1.315  14.522
 2856W        W71261  29.405  24.238  13.272
 2857W        W71262  43.322  15.321  14.481
 2858W        W71263  23.091  19.864   4.506
 2859W        W71264  35.817  19.707   5.100
 2860W        W71265  23.868  44.799   0.450
 2861W        W71266  31.059  10.360   0.492
 2862W        W71267  15.786  26.946   2.664
 2863W        W71268  38.359  24.581   1.346
 2864W        W71269  30.465  19.825   0.510
 2865W        W71270  12.534  32.493  10.070
 2866W        W71271  39.341  22.760   4.137
 2867W        W71272  32.523  24.759   4.369
 2868W        W71273  31.593  21.457  10.744
 2869W        W71274   6.379   0.283   3.689
 2870W        W71275   7.829  13.406   0.464
 2871W        W71276   9.262  28.728   2.724
 2872W        W71277  15.145   3.404   5.125
 2873W        W71278   1.630  14.233   1.254
 2874W        W71279  41.284  41.564   4.221
 2875W        W71280  39.582   7.615  13.319
 2876W        W71281  18.688  13.676  12.701
 2877W        W71282  10.102  19.492  14.837
 2878W        W71283  36.347  18.546   2.443
 2879W        W71284  34.886   6.520   3.123
 2880W        W71285   6.873  25.212  12.140
 2881W        W71286  41.719  19.751  11.148
 2882W        W71287  36.904  25.543  13.818
 2883W        W71288  34.479  40.040   3.415
 2884W        W71289   0.344   3.433   1.404
 2885W        W71290  17.355  25.696   2.849
 2886W        W71291  18.087  10.749   1.599
 2887W        W71292  28.559  16.752   2.299
 2888W        W71293  31.076  20.631   2.756
 2889W        W71294  26.880   4.469   0.377
 2890W        W71295  43.914  21.999   0.262
 2891W        W71296  25.085  35.880  12.776
 2892W        W71297  28.106  22.071   4.570
 2893W        W71298  44.228  40.974   1.274
 2894W        W71299   0.541   4.712  11.147
 2895W        W71300   7.263  43.274   4.598
 2896W        W71301   6.573  44.037  11.083
 2897W        W71302   2.469  30.724   1.363
 2898W        W71303  41.836  24.026  13.453
 2899W        W71304  37.003  18.160  12.868
 2900W        W71305  21.997  22.136  12.604
 2901W        W71306  25.562  20.421   3.245
 2902W        W71307   8.888  35.883  13.431
 2903W        W71308  13.155  39.066   1.215
 2904W        W71309  18.402   2.567  11.152
 2905W        W71310  16.255  30.549   0.899
 2906W        W71311   5.430  12.618  14.510
 2907W        W71312  20.413  22.598   0.843
 2908W        W71313  40.838   6.982   2.206
 2909W        W71314  43.816  27.427  11.355
 2910W        W71315  23.592   3.223  13.380
 2911W        W71316  31.087  37.562   1.325
 2912W        W71317  42.534  11.631  12.463
 2913W        W71318  43.205  26.028   2.131
 2914W        W71319  15.879  37.253   3.703
 2915W        W71320   2.894   4.633   3.146
 2916W        W71321  36.979   1.969   0.310
 2917W        W71322  11.896  34.639  11.650
 2918W        W71323  12.396  22.086  11.743
 2919W        W71324  14.751  37.179   4.562
 2920W        W71325  17.311  10.720  11.798
 2921W        W71326  11.570  40.842  12.105
 2922W        W71327   9.439  16.140   1.775
 2923W        W71328   9.425  15.365   0.800
 2924W        W71329  42.979  13.794  10.636
 2925W        W71330  33.850   6.417   4.556
 2926W        W71331  31.382  13.305   4.032
 2927W        W71332   1.022  23.605  12.059
 2928W        W71333  42.464   0.975  12.651
 2929W        W71334  27.274  15.501  14.932
 2930W        W71335  18.954  15.158   2.279
 2931W        W71336  25.770   1.003  14.722
 2932W        W71337  21.056  16.672   3.305
 2933W        W71338  19.472  29.151  10.737
 2934W        W71339   6.530  30.904   1.304
 2935W        W71340  29.176  13.265   4.277
 2936W        W71341  44.130  26.271  14.453
 2937W        W71342  16.780  44.480  10.322
 2938W        W71343  41.046  44.298   2.412
 2939W        W71344  35.096  37.008   2.923
 2940W        W71345  39.070  37.386   0.837
 2941W        W71346  43.410  41.361   0.279
 2942W        W71347  36.590   5.298  13.470
 2943W        W71348  15.556  20.018   4.154
 2944W        W71349  23.290  30.961  14.856
 2945W        W71350  37.447  13.332   1.559
 2946W        W71351  43.095  35.194   1.821
 2947W        W71352   2.191  41.617  10.549
 2948W        W71353  18.301  33.413  13.897
 2949W        W71354   9.934  17.883  10.788
 2950W        W71355  43.899  37.542   4.041
 2951W        W71356  17.385  23.545  12.380
 2952W        W71357   9.039  40.352  10.421
 2953W        W71358  43.827  41.907   3.827
 2954W        W71359  31.044  32.041  13.148
 2955W        W71360  15.998  36.153  14.486
 2956W        W71361  19.284  38.449  10.688
 2957W        W71362  23.070  26.711  11.114
 2958W        W71363   6.325   4.591   0.367
 2959W        W71364  25.773   9.474  11.544
 2960W        W71365  32.969  18.622  11.065
 2961W        W71366  17.701   5.581   5.107
 2962W        W71367  25.938   7.132   3.687
 2963W        W71368  37.386   6.498   3.713
 2964W        W71369  32.026  32.390   0.738
 2965W        W71370  37.400  17.711  13.963
 2966W        W71371  16.328   9.427  10.707
 2967W        W71372  34.149  15.278  12.545
 2968W        W71373  39.089  35.162   1.926
 2969W        W71374   5.411  42.038   2.654
 2970W        W71375  34.968  40.519  14.282
 2971W        W71376  33.515  36.039   2.018
 2972W        W71377  32.612   7.154  13.955
 2973W        W71378  36.336  13.395   0.356
 2974W        W71379  33.796  18.327  13.483
 2975W        W71380  43.762  18.363   2.022
 2976W        W71381  24.741  30.699   2.873
 2977W        W71382  17.316   8.277  11.636
 2978W        W71383  18.996  15.381   3.960
 2979W        W71384   7.746  30.565  12.481
 2980W        W71385  34.432  25.554   4.157
 2981W        W71386  39.247  27.541  12.196
 2982W        W71387   2.221  23.102  10.711
 2983W        W71388   9.902  37.835  14.485
 2984W        W71389   4.231  10.470  14.510
 2985W        W71390  33.508  42.090   9.978
 2986W        W71391  10.130  17.073   1.005
 2987W        W71392  29.912   6.836   2.649
 2988W        W71393  29.766  14.298  11.565
 2989W        W71394   6.338  33.855  13.894
 2990W        W71395  43.548   1.414   4.380
 2991W        W71396  26.895   6.640  13.978
 2992W        W71397  42.922  19.587  11.672
 2993W        W71398  27.615  10.170   2.208
 2994W        W71399   3.296  20.582  13.984
 2995W        W71400  16.527  22.242   4.533
 2996W        W71401  13.886  43.012   1.891
 2997W        W71402  28.652  15.034  14.885
 2998W        W71403  38.503  15.934  11.740
 2999W        W71404  16.132  44.646   1.849
 3000W        W71405  39.575  24.191  14.476
 3001W        W71406  30.489  33.651  13.736
 3002W        W71407  17.788  23.710   1.118
 3003W        W71408  38.495  35.549  14.410
 3004W        W71409   4.788  36.062  11.516
 3005W        W71410  24.817  12.820   0.315
 3006W        W71411  27.157  39.027  13.124
 3007W        W71412  20.593  15.142   4.072
 3008W        W71413   4.648  18.721   4.757
 3009W        W71414   7.005  17.261  13.855
 3010W        W71415   4.571   0.395  13.186
 3011W        W71416  43.484   5.139   0.447
 3012W        W71417  20.265  21.140   1.241
 3013W        W71418  31.148  40.437   1.344
 3014W        W71419  31.793  14.368  11.577
 3015W        W71420  35.092  13.299  13.390
 3016W        W71421  40.067  14.520  13.456
 3017W        W71422   0.031  40.864   1.839
 3018W        W71423  20.745  24.593  10.163
 3019W        W71424  24.678  44.321  13.824
 3020W        W71425  21.014  26.764   1.827
 3021W        W71426  39.438  36.048   3.347
 3022W        W71427  28.711  30.800  11.019
 3023W        W71428   4.680  15.781  13.985
 3024W        W71429  15.171  10.776   2.015
 3025W        W71430  43.504  20.906   0.486
 3026W        W71431  29.422  21.810   4.604
 3027W        W71432  31.380  11.625  11.924
 3028W        W71433  30.083  25.286  14.712
 3029W        W71434  36.371  28.212   1.429
 3030W        W71435   4.694  35.528   3.245
 3031W        W71436   6.691  11.909  14.984
 3032W        W71437  17.785  36.871  14.379
 3033W        W71438  44.824  20.567   3.624
 3034W        W71439  28.209  33.140   3.514
 3035W        W71440  27.473  12.598   4.002
 3036W        W71441   8.255  42.493  14.839
 3037W        W71442  28.094   0.956  13.591
 3038W        W71443  23.653  22.476  12.482
 3039W        W71444  18.028  28.140   4.058
 3040W        W71445  30.410   3.596   0.871
 3041W        W71446  36.432  18.877  12.903
 3042W        W71447  19.493  28.402   4.833
 3043W        W71448  32.405  11.036  11.877
 3044W        W71449   7.582  17.284   0.092
 3045W        W71450  34.444  12.759   3.585
 3046W        W71451  32.639  20.100  11.071
 3047W        W71452  44.770  24.533  12.702
 3048W        W71453  43.922  13.346   3.740
 3049W        W71454   6.364  40.385  10.735
 3050W        W71455  11.216  42.446   0.982
 3051W        W71456  32.017  18.284   2.187
 3052W        W71457  13.867   4.487   9.751
 3053W        W71458  19.890  32.939   2.198
 3054W        W71459  15.293  24.264  13.970
 3055W        W71460  34.919  32.172  11.916
 3056W        W71461   7.434  37.483  14.947
 3057W        W71462  19.111  33.131   0.450
 3058W        W71463  42.473  25.749   0.231
 3059W        W71464  25.533  10.189   4.112
 3060W        W71465  38.608  24.801   1.751
 3061W        W71466  16.149   7.431   3.213
 3062W        W71467  10.886  35.063  12.393
 3063W        W71468  12.847   9.719  14.556
 3064W        W71469  34.029  41.735  12.945
 3065W        W71470  20.967   2.775   4.157
 3066W        W71471  42.845  40.752   2.129
 3067W        W71472  11.263   7.106  12.830
 3068W        W71473   5.271  41.005   4.499
 3069W        W71474  16.018  18.479  10.547
 3070W        W71475   4.174  44.924   2.848
 3071W        W71476   9.636  44.965  14.721
 3072W        W71477   7.249  14.694   0.290
 3073W        W71478  21.519  27.691  10.563
 3074W        W71479  42.907   2.780  14.887
 3075W        W71480  27.457   4.389  12.870
 3076W        W71481  29.513   3.051   0.840
 3077W        W71482  20.125  14.834   0.372
 3078W        W71483  17.567  18.752   4.664
 3079W        W71484  36.918  41.759   4.205
 3080W        W71485  36.907  11.616   3.873
 3081W        W71486  10.112  43.343  14.566
 3082W        W71487  30.023  40.532   0.157
 3083W        W71488  38.782  23.527   2.862
 3084W        W71489  17.757  17.052  12.024
 3085W        W71490   7.905   2.335   1.925
 3086W        W71491  36.432   8.252   3.261
 3087W        W71492  24.059  11.347  13.371
 3088W        W71493  38.244  31.167   2.498
 3089W        W71494  26.063  36.117  11.884
 3090W        W71495  30.154  27.669  13.298
 3091W        W71496  41.821   3.159  13.792
 3092W        W71497  11.932  39.715  14.447
 3093W        W71498  26.638  26.567  12.577
 3094W        W71499   6.213  16.472   3.972
 3095W        W71500  43.404  39.920   4.366
 3096W        W71501  21.199  31.152   0.309
 3097W        W71502  19.679  30.987   3.143
 3098W        W71503  13.627  18.105  11.403
 3099W        W71504  16.849  31.724  14.339
 3100W        W71505  16.231  17.490   0.754
 3101W        W71506  25.710  11.358  10.901
 3102W        W71507  16.070  10.268   1.824
 3103W        W71508  16.146  23.664  13.955
 3104W        W71509   3.002   3.887  12.503
 3105W        W71510   3.236  26.242  10.301
 3106W        W71511  20.548  37.129  13.872
 3107W        W71512  34.051  37.714  12.112
 3108W        W71513  21.240  23.957   3.217
 3109W        W71514   6.966  20.643   0.456
 3110W        W71515  37.530  15.364  12.639
 3111W        W71516  33.436  36.874   3.983
 3112W        W71517  16.692  22.108  14.919
 3113W        W71518  30.162  35.980  12.368
 3114W        W71519   3.116  31.107  11.867
 3115W        W71520  25.228  32.609   3.325
 3116W        W71521  20.970  44.976  11.017
 3117W        W71522  39.110  32.125  13.479
 3118W        W71523  30.497  32.369   0.430
 3119W        W71524  27.051  18.744   1.717
 3120W        W71525   5.592  26.089   3.191
 3121W        W71526   9.331  15.365  12.927
 3122W        W71527  14.313  40.815  10.794
 3123W        W71528   9.367  31.574   0.304
 3124W        W71529   4.442  37.894   2.288
 3125W        W71530  24.259   9.826   4.523
 3126W        W71531  33.830  30.853  14.808
 3127W        W71532   6.377  10.121   0.411
 3128W        W71533  28.020  38.528  14.810
 3129W        W71534  31.158   4.819  10.989
 3130W        W71535  23.937  24.720  12.562
 3131W        W71536  21.282  21.030  11.367
 3132W        W71537  37.578   0.808   3.716
 3133W        W71538  21.167  33.406  12.597
 3134W        W71539  39.701  19.180  13.366
 3135W        W71540  13.220  44.756  10.398
 3136W        W71541   0.984  17.130   3.692
 3137W        W71542  26.468   4.846  13.564
 3138W        W71543   8.987  10.197  11.590
 3139W        W71544  15.321  30.499  14.463
 3140W        W71545  23.054  18.588  14.827
 3141W        W71546   3.636   8.126   2.821
 3142W        W71547  36.827   4.690  10.285
 3143W        W71548  11.215  25.180   1.410
 3144W        W71549  26.943  43.548   2.877
 3145W        W71550  11.290  17.639   0.942
 3146W        W71551  36.184   3.777   5.479
 3147W        W71552   5.952  24.119  12.056
 3148W        W71553  41.626  19.063  10.692
 3149W        W71554  35.370  23.032  10.771
 3150W        W71555  10.854  16.125   3.496
 3151W        W71556  19.631  29.554   0.919
 3152W        W71557  32.401  41.338  13.900
 3153W        W71558  38.981   1.460  12.497
 3154W        W71559  26.114   8.603  13.478
 3155W        W71560   3.945  25.263   1.863
 3156W        W71561  16.297  26.590   3.672
 3157W        W71562   7.468  34.418  11.544
 3158W        W71563  17.855  32.451   4.638
 3159W        W71564  13.796  34.885   3.593
 3160W        W71565   3.673  31.561   2.658
 3161W        W71566  27.715  43.776   4.031
 3162W        W71567  11.182  39.311  11.216
 3163W        W71568  41.810  36.482  12.544
 3164W        W71569  17.293  21.606   2.882
 3165W        W71570  20.690  17.593   1.619
 3166W        W71571   3.706   2.195   3.823
 3167W        W71572  39.323  41.989   4.101
 3168W        W71573   7.325  29.194  14.380
 3169W        W71574  25.154  39.391   1.851
 3170W        W71575  17.920  11.335  10.388
 3171W        W71576  10.013  15.252   4.881
 3172W        W71577  27.213  27.521  11.608
 3173W        W71578  36.901  35.035  14.774
 3174W        W71579  20.764   8.871  13.794
 3175W        W71580  11.422  33.476  10.486
 3176W        W71581  43.801   7.385  12.334
 3177W        W71582  32.971  28.648  11.536
 3178W        W71583  37.442  18.030  10.263
 3179W        W71584  17.655  19.010  13.592
 3180W        W71585  38.548   3.742  13.809
 3181W        W71586  11.214  27.040  11.854
 3182W        W71587   7.603  33.861   0.003
 3183W        W71588  43.728   8.639  10.928
 3184W        W71589  39.944  11.326   4.564
 3185W        W71590  14.781   2.496   0.204
 3186W        W71591  35.612  20.293  11.813
 3187W        W71592  33.628  41.867   0.804
 3188W        W71593  35.815  30.943  12.435
 3189W        W71594   2.295  42.064  13.039
 3190W        W71595  33.475   6.327   0.958
 3191W        W71596  44.745   7.982   0.899
 3192W        W71597   9.220  41.210   2.109
 3193W        W71598  17.499   7.898   3.590
 3194W        W71599  20.367  36.656  11.153
 3195W        W71600  29.184  30.952   3.529
 3196W        W71601  14.775  16.141  11.699
 3197W        W71602  42.886  33.662   3.452
 3198W        W71603  17.697  38.796   2.212
 3199W        W71604  21.128  40.400  11.653
 3200W        W71605  11.177  12.459  11.055
 3201W        W71606  28.495  30.646   2.320
 3202W        W71607  26.052  40.870  12.524
 3203W        W71608  24.439  35.897   3.313
 3204W        W71609  25.467   8.469  13.997
 3205W        W71610   6.801   0.344  11.586
 3206W        W71611  11.415  30.195   1.320
 3207W        W71612  19.088  38.832  11.120
 3208W        W71613   3.563  11.342  11.751
 3209W        W71614  16.541  18.198  14.560
 3210W        W71615   0.011  10.671   1.657
 3211W        W71616  17.825  23.110  11.182
 3212W        W71617  21.256  14.967  11.333
 3213W        W71618  11.402  26.627  11.582
 3214W        W71619   6.061  39.829   1.777
 3215W        W71620  12.681  41.141   4.229
 3216W        W71621  11.592   9.229   0.672
 3217W        W71622  38.500   4.351  13.089
 3218W        W71623  22.719  33.504   1.389
 3219W        W71624   8.713  28.939   2.153
 3220W        W71625  31.027  24.245  11.864
 3221W        W71626  13.322  32.469  10.658
 3222W        W71627  34.981  10.397  12.913
 3223W        W71628  32.809  37.650  14.238
 3224W        W71629   3.894  43.512  13.972
 3225W        W71630  35.821  13.605  10.785
 3226W        W71631  10.658  30.584  11.584
 3227W        W71632  26.910  23.010  14.436
 3228W        W71633  12.500   4.407   1.751
 3229W        W71634  19.967  14.741  11.173
 3230W        W71635  25.108  17.605   4.976
 3231W        W71636   7.607  41.431   0.744
 3232W        W71637  18.683   3.974   2.826
 3233W        W71638   8.873   0.338   3.740
 3234W        W71639  44.246   0.426  10.525
 3235W        W71640   4.367   9.859  14.858
 3236W        W71641   6.789  32.036   4.951
 3237W        W71642   7.409  21.445  12.500
 3238W        W71643  38.483  41.234   3.929
 3239W        W71644  33.713  40.860   0.065
 3240W        W71645  19.786   6.356  14.340
 3241W        W71646  14.886  10.591  11.162
 3242W        W71647  14.536  33.029  11.803
 3243W        W71648  11.939  27.194  10.046
 3244W        W71649   8.330  17.579  14.086
 3245W        W71650  19.659   2.775  12.155
 3246W        W71651  25.479  26.716   1.731
 3247W        W71652   7.755  26.914  10.962
 3248W        W71653  25.726  11.926  10.229
 3249W        W71654  19.718  21.832  13.826
 3250W        W71655  27.760   9.415   3.194
 3251W        W71656  21.225  26.203   2.619
 3252W        W71657  41.599  33.184   2.458
 3253W        W71658   2.628  32.855  14.904
 3254W        W71659   9.876   5.801  10.606
 3255W        W71660  39.105  28.440   2.316
 3256W        W71661  34.085  16.433   4.113
 3257W        W71662  43.115  32.373   1.813
 3258W        W71663  34.620   4.184  12.982
 3259W        W71664  24.535  36.557  14.952
 3260W        W71665  44.894   8.315  11.209
 3261W        W71666  36.940   4.959  13.285
 3262W        W71667  28.965  15.802   0.455
 3263W        W71668  17.474  32.106   2.265
 3264W        W71669  16.694  28.394  14.260
 3265W        W71670  31.362  23.842   0.151
 3266W        W71671   6.181   7.992  14.959
 3267W        W71672  43.846  16.196   0.413
 3268W        W71673  34.415  10.704   3.840
 3269W        W71674  25.460   8.852   4.964
 3270W        W71675  10.124  18.356  14.434
 3271W        W71676  37.397  21.606   3.622
 3272W        W71677  39.349  16.100  14.377
 3273W        W71678  44.772  42.999  12.903
 3274W        W71679  11.668   7.687  10.986
 3275W        W71680  10.318  24.330  11.111
 3276W        W71681   5.417  20.093  12.651
 3277W        W71682  19.114  11.818  13.965
 3278W        W71683  31.610   5.128  13.358
 3279W        W71684   2.728  24.153   2.665
 3280W        W71685  27.179  23.905   1.688
 3281W        W71686  21.963   9.470  12.464
 3282W        W71687  24.685  36.026   4.692
 3283W        W71688  26.725   1.470   3.378
 3284W        W71689  15.145  14.724   2.681
 3285W        W71690  33.172  10.736   1.523
 3286W        W71691  33.901  37.803  13.008
 3287W        W71692  13.270  17.999   2.312
 3288W        W71693  33.533  39.653   0.388
 3289W        W71694  36.485  38.522  11.074
 3290W        W71695  35.825  26.066   1.666
 3291W        W71696  43.229  16.698   4.084
 3292W        W71697  31.146  25.528   3.049
 3293W        W71698  42.292   4.939  14.512
 3294W        W71699   1.754  37.084   2.710
 3295W        W71700  24.692  24.527   3.122
 3296W        W71701  26.597  34.348   1.880
 3297W        W71702  14.080   1.636  11.817
 3298W        W71703  14.310  11.395  11.172
 3299W        W71704  18.177  24.646   2.840
 3300W        W71705  12.442  41.475   2.220
 3301W        W71706  12.181  27.832   1.622
 3302W        W71707  31.901  20.895  10.190
 3303W        W71708  17.745  25.199  14.298
 3304W        W71709  20.018  13.754  10.816
 3305W        W71710  32.205   0.367   2.661
 3306W        W71711   7.873  26.026   0.883
 3307W        W71712  38.095  42.022   3.720
 3308W        W71713  24.021   5.851  12.076
 3309W        W71714   2.835   0.424  11.000
 3310W        W71715  42.820  36.826   0.825
 3311W        W71716   0.169  25.274  13.512
 3312W        W71717   1.343  34.828  13.548
 3313W        W71718  30.209   8.886   4.355
 3314W        W71719   5.982  38.304   4.517
 3315W        W71720  38.360  20.068   3.650
 3316W        W71721   0.572  25.226  11.201
 3317W        W71722   0.005  12.327   0.682
 3318W        W71723  26.439   7.114  13.535
 3319W        W71724  23.711  35.289   2.643
 3320W        W71725   2.903  30.383   2.269
 3321W        W71726   8.322  33.340   3.787
 3322W        W71727  14.277  32.542  13.397
 3323W        W71728  43.624  32.190  11.586
 3324W        W71729  19.501  26.405   2.922
 3325W        W71730   8.826   6.694  14.870
 3326W        W71731   1.750  17.737   1.443
 3327W        W71732  10.370  28.969  12.888
 3328W        W71733  12.700  14.812  14.946
 3329W        W71734  40.271   9.754   4.519
 3330W        W71735  18.385  37.385  13.753
 3331W        W71736  36.629  43.948   2.123
 3332W        W71737  30.154  42.221  12.883
 3333W        W71738  28.418  39.574   1.334
 3334W        W71739  23.186  38.435  12.565
 3335W        W71740  35.134  41.760   3.964
 3336W        W71741  22.417  36.472  13.472
 3337W        W71742  25.193  29.585  11.418
 3338W        W71743  14.198  27.634  12.972
 3339W        W71744  34.585   3.290  14.315
 3340W        W71745   1.889  31.488  11.054
 3341W        W71746  26.602   1.559  11.085
 3342W        W71747   4.143  26.694   4.533
 3343W        W71748  13.361  25.817   0.548
 3344W        W71749   3.749  13.213  11.137
 3345W        W71750  39.367  10.744   4.139
 3346W        W71751  12.912   3.090   5.431
 3347W        W71752  13.445  10.434  13.243
 3348W        W71753  29.936  14.028   0.823
 3349W        W71754   6.711  38.195   2.086
 3350W        W71755   9.273  40.876   2.856
 3351W        W71756  28.457  39.902   3.533
 3352W        W71757  11.148  22.020   3.689
 3353W        W71758  14.092  13.760  13.321
 3354W        W71759  24.081  23.291  12.507
 3355W        W71760  28.517  14.555  12.886
 3356W        W71761   1.544  21.504   1.961
 3357W        W71762  44.501   6.952   3.672
 3358W        W71763  25.084  25.918   1.578
 3359W        W71764  14.718  43.036  10.619
 3360W        W71765   1.268  41.528   0.899
 3361W        W71766  20.352   0.248  14.855
 3362W        W71767  30.540   5.316  11.604
 3363W        W71768  20.763  38.617   0.296
 3364W        W71769  26.860  17.518  13.002
 3365W        W71770   5.248  42.096  12.034
 3366W        W71771   5.220  18.498  14.991
 3367W        W71772  10.431  21.115   1.567
 3368W        W71773  19.998  26.977  11.431
 3369W        W71774  23.793  33.460   4.416
 3370W        W71775  37.491  28.719  13.362
 3371W        W71776  25.668  43.839  12.399
 3372W        W71777  31.348  35.379  13.479
 3373W        W71778  21.459  39.287   1.889
 3374W        W71779  17.510  35.586  12.527
 3375W        W71780  39.509   7.010   4.080
 3376W        W71781  36.751  10.228   3.616
 3377W        W71782  22.433  27.097   1.210
 3378W        W71783  18.885  15.177   1.115
 3379W        W71784  34.271  12.017   4.095
 3380W        W71785  21.574  43.296   4.629
 3381W        W71786   0.243  14.753   2.185
 3382W        W71787  27.567  33.331  10.842
 3383W        W71788  34.107   0.016   2.580
 3384W        W71789  33.839  38.382  10.745
 3385W        W71790  13.177  36.962   0.321
 3386W        W71791  31.304  32.178   1.835
 3387W        W71792  18.640   6.592  14.432
 3388W        W71793  31.454  40.407   0.066
 3389W        W71794  28.554  11.083   1.947
 3390W        W71795  26.100  21.843   0.920
 3391W        W71796  13.180  38.419  14.014
 3392W        W71797  44.769  42.094  11.214
 3393W        W71798  31.512  44.305  13.051
 3394W        W71799  43.895  25.016  12.977
 3395W        W71800  30.404  29.979  11.926
 3396W        W71801   2.470  41.988  12.025
 3397W        W71802   2.192  15.311   2.726
 3398W        W71803  16.044  35.633   4.166
 3399W        W71804  13.756  44.868   1.628
 3400W        W71805  36.512   9.297   1.184
 3401W        W71806  18.097  10.499   3.734
 3402W        W71807  44.494  21.733  12.266
 3403W        W71808  34.334  38.010   1.701
 3404W        W71809  36.044  37.227   4.150
 3405W        W71810  37.876  31.493   4.144
 3406W        W71811  33.897   9.800  11.429
 3407W        W71812  40.813  14.407  14.868
 3408W        W71813  11.512  44.092  14.014
 3409W        W71814   0.230  23.648  13.995
 3410W        W71815   7.888  20.434   3.874
 3411W        W71816  40.832  44.546  11.663
 3412W        W71817  18.503  27.102  12.703
 3413W        W71818   1.916   6.660   1.782
 3414W        W71819  27.115  44.328   3.131
 3415W        W71820  42.907  40.425  14.821
 3416W        W71821   2.919  32.844  11.001
 3417W        W71822   3.788  44.446   2.723
 3418W        W71823  30.402  42.640  12.719
 3419W        W71824  12.068  14.869   1.872
 3420W        W71825  35.762   5.264   2.583
 3421W        W71826  24.501  44.734   3.301
 3422W        W71827  15.114  26.477   3.748
 3423W        W71828   0.953  35.131  10.583
 3424W        W71829  28.481  31.586  13.100
 3425W        W71830  27.221   8.168  11.646
 3426W        W71831   5.926   2.425   2.616
 3427W        W71832  31.453  28.080  12.329
 3428W        W71833  17.751  15.588  14.895
 3429W        W71834  19.522  15.200  13.512
 3430W        W71835  28.908  26.640   1.822
 3431W        W71836  15.836  19.979   1.290
 3432W        W71837  27.579   0.012  12.513
 3433W        W71838   6.917  33.054   2.243
 3434W        W71839  18.139   2.883   2.136
 3435W        W71840  43.169  29.889   4.951
 3436W        W71841   1.759  16.175  12.584
 3437W        W71842  26.595  40.268  14.460
 3438W        W71843  34.348  37.924   4.311
 3439W        W71844   2.424   8.362  10.677
 3440W        W71845  24.613  31.155   0.899
 3441W        W71846  18.798  17.511   5.027
 3442W        W71847  26.780  11.432  13.321
 3443W        W71848  24.167  28.927  10.529
 3444W        W71849   5.651  29.476   0.379
 3445W        W71850  22.120  38.952   1.132
 3446W        W71851  18.922  17.620   0.448
 3447W        W71852  34.037   2.354  11.999
 3448W        W71853  35.027  17.855  14.763
 3449W        W71854  18.067  10.227  13.841
 3450W        W71855  12.908   1.925   3.653
 3451W        W71856   8.624  22.820   1.231
 3452W        W71857  15.562  36.894   2.764
 3453W        W71858   9.858  25.262  10.867
 3454W        W71859  25.594  14.688  12.064
 3455W        W71860  37.767   5.721   3.905
 3456W        W71861   0.080   5.883  11.559
 3457W        W71862   7.749  44.752   2.319
 3458W        W71863   9.345  40.499  12.429
 3459W        W71864  23.777  10.658   4.578
 3460W        W71865  29.843   2.296   0.336
 3461W        W71866  29.448  29.644  14.436
 3462W        W71867  20.587  16.696  11.948
 3463W        W71868  29.896  10.736   2.261
 3464W        W71869  25.499  36.333   0.829
 3465W        W71870   7.458  37.602  13.608
 3466W        W71871  27.629  41.476  13.952
 3467W        W71872  37.934   7.266   2.442
 3468W        W71873  17.017  18.990   4.194
 3469W        W71874  30.127  18.043   0.026
 3470W        W71875  40.320  37.803  11.288
 3471W        W71876  24.672  36.871  13.579
 3472W        W71877  16.368  15.192  12.676
 3473W        W71878  10.867  13.677  12.851
 3474W        W71879  42.278   1.890  11.888
 3475W        W71880  20.252  18.506   0.859
 3476W        W71881  38.469  33.669   4.972
 3477W        W71882  16.787  30.791  13.030
 3478W        W71883   8.564  43.015  10.797
 3479W        W71884  12.230   0.148  12.990
 3480W        W71885  30.967  30.816  10.645
 3481W        W71886   7.953  34.335  13.289
 3482W        W71887  27.600   4.196   4.455
 3483W        W71888  44.276  20.960   0.918
 3484W        W71889  33.878  29.085   4.707
 3485W        W71890  24.707  15.109   4.498
 3486W        W71891  37.394  10.831   4.040
 3487W        W71892   5.494  12.818   1.296
 3488W        W71893  29.602   9.908  13.739
 3489W        W71894   9.713  11.647   2.521
 3490W        W71895   8.124  15.223   0.433
 3491W        W71896  30.686  40.786  10.295
 3492W        W71897  35.253  14.325  11.153
 3493W        W71898   4.645  42.864   4.673
 3494W        W71899  30.049  20.215   2.725
 3495W        W71900  34.401   5.719   4.587
 3496W        W71901  10.704  35.922  12.392
 3497W        W71902  21.132  38.324  14.028
 3498W        W71903  41.741   6.784  11.944
 3499W        W71904  20.170  29.138  10.826
 3500W        W71905  32.464  18.561  11.504
 3501W        W71906  20.048  10.870  11.679
 3502W        W71907  33.491  19.990  10.824
 3503W        W71908  17.876  22.028   3.170
 3504W        W71909  12.236  16.281  13.500
 3505W        W71910   4.378  22.764  11.605
 3506W        W71911   7.839  23.550   0.024
 3507W        W71912   4.366  21.564  13.412
 3508W        W71913  29.597  36.349   4.629
 3509W        W71914  41.497  44.353   3.798
 3510W        W71915  21.235  23.717  10.983
 3511W        W71916  22.254  19.156  10.443
 3512W        W71917  26.410  40.931  13.319
 3513W        W71918  25.091  30.055  11.177
 3514W        W71919  28.734  16.112   1.722
 3515W        W71920  19.052  36.456   1.930
 3516W        W71921  41.586  25.049   2.940
 3517W        W71922  33.930   4.992  12.141
 3518W        W71923   8.452  19.770  13.992
 3519W        W71924  29.533   1.554  12.010
 3520W        W71925  42.511  30.800  14.022
 3521W        W71926  32.344  39.709  10.976
 3522W        W71927  25.499   0.337  12.169
 3523W        W71928  31.388  39.629  10.648
 3524W        W71929  24.214  35.085  11.290
 3525W        W71930   5.886  26.645  10.785
 3526W        W71931  30.368  11.679   2.101
 3527W        W71932  35.003  34.339  13.935
 3528W        W71933   2.810  44.995   4.300
 3529W        W71934  39.417   4.453  11.757
 3530W        W71935  12.353  28.384  13.429
 3531W        W71936  30.646  21.476   1.712
 3532W        W71937  13.045  13.329  12.854
 3533W        W71938   2.344  20.767  13.004
 3534W        W71939  32.965  28.928  11.099
 3535W        W71940  36.513   0.954   4.454
 3536W        W71941  16.680  12.277   0.743
 3537W        W71942   6.697  41.572   3.384
 3538W        W71943  14.401  36.990  12.485
 3539W        W71944  29.441  30.598   3.119
 3540W        W71945  31.036  25.910   1.740
 3541W        W71946  41.459  30.042   4.154
 3542W        W71947  33.524  34.904  13.109
 3543W        W71948  11.355  27.034   5.705
 3544W        W71949  43.907  19.571  10.718
 3545W        W71950   7.142  39.247  13.999
 3546W        W71951  22.968  26.072  10.598
 3547W        W71952  32.869   1.369   4.362
 3548W        W71953  18.353  18.855  11.953
 3549W        W71954  41.830   6.461  14.882
 3550W        W71955  44.536  15.628  11.398
 3551W        W71956   9.665  32.500   0.022
 3552W        W71957   9.764   2.665   1.952
 3553W        W71958  29.072  10.003   3.718
 3554W        W71959  20.644  12.096  11.487
 3555W        W71960  23.818  40.662   3.664
 3556W        W71961  44.375  17.589   3.510
 3557W        W71962  21.247  31.498  13.998
 3558W        W71963  19.061  10.999  13.507
 3559W        W71964  41.985  10.222   4.850
 3560W        W71965  37.550  20.107  14.082
 3561W        W71966   1.717  41.976  13.341
 3562W        W71967  38.844  10.186   3.609
 3563W        W71968  24.242  32.604   4.214
 3564W        W71969  21.862   6.327  14.395
 3565W        W71970  27.592   8.343   0.371
 3566W        W71971  16.558  19.404  12.871
 3567W        W71972   8.154   3.467  12.430
 3568W        W71973  22.101  11.806   2.775
 3569W        W71974  39.520   4.364   4.084
 3570W        W71975   7.216  13.649   1.801
 3571W        W71976  18.225  13.647   0.036
 3572W        W71977  27.660  24.282   0.375
 3573W        W71978  44.487  20.955  11.687
 3574W        W71979  17.608   6.391  10.644
 3575W        W71980  30.021  27.640   1.607
 3576W        W71981  22.743   1.673   0.883
 3577W        W71982   4.354   4.781  13.903
 3578W        W71983   1.281  27.435   4.526
 3579W        W71984  15.134  18.001   3.861
 3580W        W71985  41.628  26.923   1.429
 3581W        W71986  20.600  37.130  11.854
 3582W        W71987  23.777  43.904   4.280
 3583W        W71988   7.407   8.599   2.184
 3584W        W71989  10.988  30.884   2.846
 3585W        W71990  11.096  30.635  10.793
 3586W        W71991  30.657  16.628   0.386
 3587W        W71992  41.478  14.936   4.792
 3588W        W71993   9.258  26.555   4.595
 3589W        W71994   9.054  23.235  11.717
 3590W        W71995  23.422  15.491  11.507
 3591W        W71996  26.995  43.335   0.371
 3592W        W71997  32.698  18.204  11.189
 3593W        W71998  43.436   9.243   1.759
 3594W        W71999  34.864  28.971  13.846
 3595W        W72000  39.140  20.114   1.021
 3596W        W72001  29.997  14.089   4.482
 3597W        W72002  14.016  41.449   2.879
 3598W        W72003  15.403   1.735   4.961
 3599W        W72004  24.235  26.066   4.271
 3600W        W72005  32.994   2.438   2.471
 3601W        W72006  11.185  19.663  14.937
 3602W        W72007  34.575  22.167  12.763
 3603W        W72008  42.064  16.142  13.847
 3604W        W72009  40.456  25.009  14.061
 3605W        W72010  40.189  23.097  14.276
 3606W        W72011  36.116  42.426   4.603
 3607W        W72012  33.423   9.331  10.601
 3608W        W72013  17.329  25.815   1.905
 3609W        W72014  39.065  23.346  13.296
 3610W        W72015  20.855  23.781  10.640
 3611W        W72016  25.939  11.119  13.959
 3612W        W72017  29.920   2.133   1.416
 3613W        W72018  17.627  30.188  10.759
 3614W        W72019   4.843  19.675  10.615
 3615W        W72020  21.428   0.064  11.263
 3616W        W72021  29.878   2.716   2.336
 3617W        W72022  23.444  36.285   1.324
 3618W        W72023  37.004  32.353  11.618
 3619W        W72024  19.501  42.229  13.379
 3620W        W72025   3.481  14.852   1.503
 3621W        W72026  10.527  13.678   0.915
 3622W        W72027   3.764  12.963   3.365
 3623W        W72028  37.397  22.291  10.135
 3624W        W72029  11.739  43.473   1.384
 3625W        W72030  26.227  28.714   1.497
 3626W        W72031  26.067  11.258   0.662
 3627W        W72032  43.486  44.908  11.572
 3628W        W72033  12.344   6.361  11.093
 3629W        W72034  34.140  13.336  14.595
 3630W        W72035   6.250  25.182   0.343
 3631W        W72036  26.381  26.756   1.876
 3632W        W72037  35.693  26.711   1.617
 3633W        W72038  23.091  31.352  13.988
 3634W        W72039   4.692  23.869   2.508
 3635W        W72040  17.432  11.088  13.098
 3636W        W72041  25.739  16.793   1.357
 3637W        W72042  12.800  17.509   4.616
 3638W        W72043  16.716  17.569   0.872
 3639W        W72044  20.078  24.716   4.518
 3640W        W72045  42.656   2.260  13.500
 3641W        W72046  28.203  18.333  10.949
 3642W        W72047   3.906  31.397  10.440
 3643W        W72048   5.351  20.718   4.159
 3644W        W72049   7.732  10.730   2.931
 3645W        W72050   9.298   1.777   3.095
 3646W        W72051  43.816   1.224  12.892
 3647W        W72052   9.581   6.829  11.103
 3648W        W72053  40.959   8.538  11.614
 3649W        W72054  34.955  22.544   2.274
 3650W        W72055   0.315  43.688   2.773
 3651W        W72056  18.847  34.497   3.869
 3652W        W72057  19.757   4.243  11.618
 3653W        W72058  33.965  16.530  14.043
 3654W        W72059  26.362   3.340  12.529
 3655W        W72060  42.741  44.608   3.881
 3656W        W72061  43.184  11.620   3.195
 3657W        W72062   9.262  40.802  10.588
 3658W        W72063  30.037   1.797   0.385
 3659W        W72064  33.608  19.465   1.467
 3660W        W72065  25.152   7.414   2.858
 3661W        W72066   4.004  18.529  11.040
 3662W        W72067   7.012   0.883   2.816
 3663W        W72068  33.603   6.465  13.349
 3664W        W72069   3.751  26.439   4.752
 3665W        W72070  41.444   2.244  12.211
 3666W        W72071   0.337  15.097   3.231
 3667W        W72072  22.069  24.443  12.433
 3668W        W72073   0.280  17.006   3.156
 3669W        W72074  42.757  33.200   3.191
 3670W        W72075  11.306  43.942   3.365
 3671W        W72076  31.353  34.186  14.899
 3672W        W72077  26.167  31.857   0.822
 3673W        W72078   7.965  34.089  11.041
 3674W        W72079  25.088  38.102   2.797
 3675W        W72080  40.885  37.787   4.153
 3676W        W72081  30.076   4.187  13.833
 3677W        W72082  18.545  17.312  11.153
 3678W        W72083   2.714  26.990   0.334
 3679W        W72084  30.088  34.587   1.769
 3680W        W72085  11.422  31.036  10.128
 3681W        W72086  11.223  43.806   1.295
 3682W        W72087   4.301   1.891  12.438
 3683W        W72088  37.472  17.768  10.713
 3684W        W72089  39.793  16.341  14.444
 3685W        W72090  16.861   1.474  13.932
 3686W        W72091  36.341  14.283   4.607
 3687W        W72092  39.038   5.603  11.148
 3688W        W72093  26.120  30.021  11.133
 3689W        W72094   2.840  41.848   3.357
 3690W        W72095   2.535  37.679   1.534
 3691W        W72096  24.556   0.172  13.546
 3692W        W72097  16.558  41.055   4.525
 3693W        W72098  23.053  42.956  12.975
 3694W        W72099  33.457  11.755  14.881
 3695W        W72100   8.843   1.917  14.895
 3696W        W72101  18.748  21.437   5.423
 3697W        W72102  17.154   4.367   3.872
 3698W        W72103  10.724  43.249  11.631
 3699W        W72104  18.796  32.052   2.754
 3700W        W72105  17.353  31.563  14.958
 3701W        W72106  24.059   6.184  11.671
 3702W        W72107   4.416   9.807   2.629
 3703W        W72108   4.497   5.933   1.693
 3704W        W72109  31.327  21.618  12.519
 3705W        W72110   1.675  22.595   2.523
 3706W        W72111  35.147   2.431  12.965
 3707W        W72112  41.891  16.570   0.156
 3708W        W72113  17.584  25.454  13.414
 3709W        W72114  29.519  18.156  11.602
 3710W        W72115  27.201  13.225   3.385
 3711W        W72116  16.564  20.149   1.760
 3712W        W72117  43.341  12.371   2.938
 3713W        W72118  41.435  25.559   0.675
 3714W        W72119  14.086  35.477  10.756
 3715W        W72120  32.583  36.109  14.050
 3716W        W72121  24.509  15.127   2.686
 3717W        W72122  26.324  15.901   2.737
 3718W        W72123  21.291  10.394  12.907
 3719W        W72124  38.645  20.114  12.348
 3720W        W72125   6.830  42.699  14.884
 3721W        W72126  26.141  22.095   4.456
 3722W        W72127  27.530   4.268  12.395
 3723W        W72128   6.445   1.753  10.762
 3724W        W72129  17.279  39.205   9.907
 3725W        W72130   3.779   5.471   0.282
 3726W        W72131  37.579  20.612  13.359
 3727W        W72132  38.921  18.464   3.453
 3728W        W72133   1.869   3.500   3.650
 3729W        W72134  25.199   1.440   1.978
 3730W        W72135   5.958   7.458  12.971
 3731W        W72136  20.938  27.954   2.254
 3732W        W72137   6.547  15.684   4.499
 3733W        W72138  18.058  17.500   0.920
 3734W        W72139  33.043  17.391   2.280
 3735W        W72140   2.204  17.677   3.693
 3736W        W72141  27.009  37.688  14.730
 3737W        W72142  29.924  24.172  14.499
 3738W        W72143  30.074   8.922  12.956
 3739W        W72144  31.825   7.379  13.687
 3740W        W72145   5.284  33.832   3.107
 3741W        W72146   2.170  12.282  12.597
 3742W        W72147  11.346  30.170   4.933
 3743W        W72148  29.182  19.745   4.091
 3744W        W72149  31.170  40.872   4.615
 3745W        W72150  42.943  20.577  12.037
 3746W        W72151   7.376  22.600   4.202
 3747W        W72152  29.846  38.035  10.665
 3748W        W72153  24.661  31.911  10.687
 3749W        W72154  12.396   4.750  11.471
 3750W        W72155  13.767  11.896  10.703
 3751W        W72156  32.408  23.838  11.560
 3752W        W72157  33.083   5.767  11.473
 3753W        W72158  42.974  37.985  10.683
 3754W        W72159   6.367  24.134  12.354
 3755W        W72160  20.223   0.538  12.453
 3756W        W72161  35.355  31.015   2.803
 3757W        W72162  40.836  10.796   1.702
 3758W        W72163   9.679   4.885  12.539
 3759W        W72164  26.473  18.701   0.521
 3760W        W72165  33.127  31.226  14.363
 3761W        W72166  19.060   3.721  12.003
 3762W        W72167  39.508  39.814   0.031
 3763W        W72168  41.787  39.029  14.793
 3764W        W72169  10.604   6.811   4.323
 3765W        W72170  11.552  27.625  13.993
 3766W        W72171  20.613  34.491   1.357
 3767W        W72172  22.131  10.261   4.881
 3768W        W72173  25.015  36.578  11.582
 3769W        W72174   3.710  14.820  14.043
 3770W        W72175  28.743  16.339  11.710
 3771W        W72176   3.362  27.543  13.933
 3772W        W72177  21.962  38.880  10.097
 3773W        W72178  13.239  27.141   1.413
 3774W        W72179  20.123   4.156   3.298
 3775W        W72180  11.349  37.766   4.128
 3776W        W72181  34.210  40.794   0.273
 3777W        W72182   4.485   0.056  13.554
 3778W        W72183  36.289  19.233  14.948
 3779W        W72184   7.799   8.753  12.097
 3780W        W72185   7.533   7.198   4.352
 3781W        W72186  17.640  28.519   4.622
 3782W        W72187  13.718  33.605   3.196
 3783W        W72188  17.774  39.373  14.530
 3784W        W72189  43.441  10.726   3.346
 3785W        W72190  23.093  27.323  12.456
 3786W        W72191  32.199   8.897  10.995
 3787W        W72192  19.061  42.988  10.885
 3788W        W72193  36.560   2.406  10.938
 3789W        W72194  30.647  39.857   2.431
 3790W        W72195  28.233  16.137   2.573
 3791W        W72196  38.812  36.029   4.934
 3792W        W72197  24.761   9.368  14.010
 3793W        W72198  32.368  29.004  12.150
 3794W        W72199  26.277  34.470   0.396
 3795W        W72200   6.872  36.821   1.879
 3796W        W72201  18.619  37.371  13.286
 3797W        W72202  11.198  29.983  12.869
 3798W        W72203  39.289  19.064  11.963
 3799W        W72204  29.640  41.876  13.704
 3800W        W72205  10.761  15.898   2.386
 3801W        W72206  34.042  15.423   4.202
 3802W        W72207  13.695   1.304  12.564
 3803W        W72208  13.778  22.530  10.609
 3804W        W72209   7.861  41.221   4.952
 3805W        W72210  40.575   6.247   5.027
 3806W        W72211  39.962  35.043   0.519
 3807W        W72212   0.423   3.918   1.231
 3808W        W72213  27.038   2.489   1.717
 3809W        W72214   4.946   4.314  11.499
 3810W        W72215   5.743  28.124  14.948
 3811W        W72216  33.426   3.568   1.889
 3812W        W72217  26.338  18.157  10.497
 3813W        W72218  22.484  32.630   0.383
 3814W        W72219  31.987  16.010  13.511
 3815W        W72220  17.578  43.942  14.523
 3816W        W72221  22.784  39.084   3.880
 3817W        W72222  31.576  36.748   1.349
 3818W        W72223  16.235  37.694   4.258
 3819W        W72224  27.067  24.679  14.443
 3820W        W72225  10.372   5.025  11.743
 3821W        W72226  30.648  30.825  11.907
 3822W        W72227  24.038  15.183  10.748
 3823W        W72228   5.894  17.561  12.114
 3824W        W72229  26.695  11.913  13.536
 3825W        W72230   7.475   7.449  13.012
 3826W        W72231   9.385  13.217   2.306
 3827W        W72232   8.217   0.929  13.065
 3828W        W72233  27.699   9.876  14.333
 3829W        W72234  35.850  21.953  11.410
 3830W        W72235  38.018   6.680  10.656
 3831W        W72236  36.698  29.084  12.543
 3832W        W72237  22.632  12.455  13.010
 3833W        W72238  37.916  31.428   0.878
 3834W        W72239   6.721  31.223  10.723
 3835W        W72240  23.996  14.338  13.370
 3836W        W72241  35.829  44.787   1.380
 3837W        W72242  17.692  40.007  10.811
 3838W        W72243  39.295  16.208  12.954
 3839W        W72244  14.150  40.342  10.889
 3840W        W72245   7.163  22.727   3.725
 3841W        W72246   0.015   9.853  14.292
 3842W        W72247  17.786  10.811   4.353
 3843W        W72248  32.633  43.886  14.984
 3844W        W72249  21.571  42.248   0.513
 3845W        W72250  43.753  14.741   4.804
 3846W        W72251  15.629  31.441   3.024
 3847W        W72252  42.104  40.637   1.257
 3848W        W72253   5.478  39.995   0.893
 3849W        W72254  32.804  14.407   2.325
 3850W        W72255  33.293  18.578   3.580
 3851W        W72256  36.540  14.598  11.634
 3852W        W72257  22.231  20.775   0.864
 3853W        W72258   7.138  10.109   2.435
 3854W        W72259  10.492  42.094   3.407
 3855W        W72260   9.191  39.444   1.415
 3856W        W72261  21.040  36.990  14.025
 3857W        W72262  16.731  31.893   1.828
 3858W        W72263   1.703  15.362   0.493
 3859W        W72264  39.245   0.813  13.424
 3860W        W72265  30.997  32.594   2.621
 3861W        W72266  19.947  31.729  12.015
 3862W        W72267   6.946  18.045   1.264
 3863W        W72268   1.625  35.926   4.493
 3864W        W72269  28.703  42.697   1.206
 3865W        W72270   0.033  39.001   2.226
 3866W        W72271  23.777  21.843  13.376
 3867W        W72272  27.543  29.945  10.628
 3868W        W72273  32.162  33.020  10.698
 3869W        W72274  43.438  36.884   3.065
 3870W        W72275   6.326  38.887  11.677
 3871W        W72276  41.344  25.473   2.758
 3872W        W72277  42.291  32.487  13.345
 3873W        W72278  28.549   4.127  13.817
 3874W        W72279  19.680  43.838  11.905
 3875W        W72280  32.129  19.188   3.791
 3876W        W72281   4.290  27.658   3.766
 3877W        W72282  26.952  20.235  13.928
 3878W        W72283   6.303  43.931  11.971
 3879W        W72284   4.265  43.800   1.753
 3880W        W72285   8.591  41.277  11.097
 3881W        W72286  30.259  26.059  12.023
 3882W        W72287  28.991  19.029  11.576
 3883W        W72288  27.486  32.520   2.420
 3884W        W72289   2.227  16.779   3.245
 3885W        W72290  34.644   2.790  14.546
 3886W        W72291  26.743   4.279   1.837
 3887W        W72292   2.669  41.860   1.330
 3888W        W72293  44.682  29.892   4.927
 3889W        W72294  19.699  39.847   3.122
 3890W        W72295  16.871  26.598   3.474
 3891W        W72296  34.831  20.630   0.881
 3892W        W72297  18.132  15.635  13.515
 3893W        W72298  12.048  10.839  13.401
 3894W        W72299  22.102  28.153   4.436
 3895W        W72300  18.075  20.499   1.664
 3896W        W72301  13.119  25.215  12.561
 3897W        W72302   4.988  27.207  12.359
 3898W        W72303  29.672   1.993  13.217
 3899W        W72304  25.362  30.996  12.579
 3900W        W72305  40.396  17.683   0.171
 3901W        W72306  30.927   0.843   1.242
 3902W        W72307  10.848  25.173   0.768
 3903W        W72308  17.687  25.578   1.144
 3904W        W72309   9.847  10.580   3.667
 3905W        W72310  41.999  33.487   1.341
 3906W        W72311   0.137  13.496  11.384
 3907W        W72312  21.098  28.234  14.799
 3908W        W72313  26.791   2.452  14.477
 3909W        W72314  32.706  21.631   1.437
 3910W        W72315  22.187  31.702   4.008
 3911W        W72316  28.011  21.771  13.264
 3912W        W72317  15.783  42.271   3.758
 3913W        W72318  10.392   4.990  13.039
 3914W        W72319  37.307  40.348   0.663
 3915W        W72320  30.136   8.710  11.033
 3916W        W72321   7.116  23.558  10.521
 3917W        W72322  36.285  15.129   1.307
 3918W        W72323  23.289  21.329   4.359
 3919W        W72324  16.550  22.836  11.125
 3920W        W72325  21.775  21.010   0.819
 3921W        W72326  30.061   0.481  11.970
 3922W        W72327  10.971  42.511   4.766
 3923W        W72328  27.645   7.144  13.944
 3924W        W72329  40.948  26.010  13.416
 3925W        W72330  25.556   2.712   2.836
 3926W        W72331  13.534   8.391  12.835
 3927W        W72332  36.420   9.228  12.905
 3928W        W72333   8.270  11.835  12.403
 3929W        W72334   5.747  14.775   1.426
 3930W        W72335  30.811  20.851   0.717
 3931W        W72336  44.595  17.614  14.447
 3932W        W72337  21.502  13.166   2.783
 3933W        W72338  40.550  41.097  14.946
 3934W        W72339  24.727  40.054  14.783
 3935W        W72340  39.940  41.199   0.726
 3936W        W72341  27.433  15.251   4.196
 3937W        W72342  42.298   7.659  14.856
 3938W        W72343  22.059  40.958   2.447
 3939W        W72344  24.507  16.261   1.208
 3940W        W72345  44.901   8.137   4.143
 3941W        W72346  37.067  14.998  12.688
 3942W        W72347  38.799  37.299   1.264
 3943W        W72348   0.924  16.567   0.093
 3944W        W72349  39.823   2.030  12.468
 3945W        W72350  30.998  21.825   0.938
 3946W        W72351  23.048  37.694  11.900
 3947W        W72352  26.060  36.982  12.434
 3948W        W72353  33.828  13.290  13.046
 3949W        W72354   5.451   2.979  11.127
 3950W        W72355  36.123  16.176   2.229
 3951W        W72356  38.464  34.021  13.363
 3952W        W72357  12.889  29.154   2.833
 3953W        W72358  32.652   1.215  12.716
 3954W        W72359   6.508  31.096   3.971
 3955W        W72360  26.218  29.687  11.527
 3956W        W72361  42.222  16.218  12.411
 3957W        W72362  19.642  26.944  11.023
 3958W        W72363  33.916   0.331  11.485
 3959W        W72364   0.769  26.567   1.106
 3960W        W72365  22.253  39.540   3.171
 3961W        W72366  16.105  37.485   3.250
 3962W        W72367   5.320  34.451   1.763
 3963W        W72368  29.979  17.619   3.573
 3964W        W72369  34.521  24.609  11.004
 3965W        W72370  41.751  37.798  13.989
 3966W        W72371  10.613  10.163  12.419
 3967W        W72372  14.224  32.013  13.401
 3968W        W72373  12.299  13.831  11.397
 3969W        W72374   6.753  22.510  12.142
 3970W        W72375  29.521  23.323  13.520
 3971W        W72376   4.968  17.134   3.659
 3972W        W72377   4.632   8.774   2.161
 3973W        W72378  23.178  36.754  14.933
 3974W        W72379  18.317  15.446  13.978
 3975W        W72380   1.326  38.090  11.323
 3976W        W72381  27.079  29.379  13.893
 3977W        W72382  25.300  37.579   0.818
 3978W        W72383   4.422  19.032  14.047
 3979W        W72384  30.375  24.832   1.401
 3980W        W72385  12.194  18.759   3.630
 3981W        W72386  33.635  11.630   0.393
 3982W        W72387   0.302  10.308  10.471
 3983W        W72388  19.735  14.871  14.436
 3984W        W72389   1.992  20.542  12.237
 3985W        W72390   8.400  16.223   1.879
 3986W        W72391  36.098   8.795   1.272
 3987W        W72392  32.909   3.685   4.927
 3988W        W72393  18.260  42.284  14.673
 3989W        W72394  20.764  27.966  13.028
 3990W        W72395   8.680  11.717  13.880
 3991W        W72396  42.696  19.512  11.171
 3992W        W72397  12.073  35.862  11.618
 3993W        W72398   4.940  34.860   1.067
 3994W        W72399  32.020   9.980   4.640
 3995W        W72400  28.199  25.174  13.327
 3996W        W72401  37.600  25.075  10.666
 3997W        W72402  24.978  39.292  14.401
 3998W        W72403  13.141  34.340  10.679
 3999W        W72404  25.535  29.088   2.466
 4000W        W72405  14.620  11.937  10.907
 4001W        W72406  12.873  24.576  11.075
 4002W        W72407  23.932  36.083  12.140
 4003W        W72408  33.115  34.863  10.498
 4004W        W72409   2.523  27.660   0.763
 4005W        W72410   3.390  16.265  14.528
 4006W        W72411  31.520   2.795   0.137
 4007W        W72412   6.733  27.996   3.120
 4008W        W72413  34.926  38.391  11.562
 4009W        W72414  33.766  37.402   1.244
 4010W        W72415  16.668  21.567   1.119
 4011W        W72416  39.978  31.748  11.117
 4012W        W72417   1.966   2.908   0.022
 4013W        W72418   7.971  10.432   1.218
 4014W        W72419  40.256  34.952   3.082
 4015W        W72420  20.128  33.428   3.239
 4016W        W72421   4.738  44.366   1.327
 4017W        W72422  31.697  16.787   9.532
 4018W        W72423   3.881   5.223  14.825
 4019W        W72424  35.645  33.319   3.830
 4020W        W72425  11.736  35.623   1.719
 4021W        W72426  13.927  19.356   4.195
 4022W        W72427  28.198  32.427   2.877
 4023W        W72428  16.263  23.555   1.750
 4024W        W72429  15.097  20.280   4.091
 4025W        W72430   5.965  30.615   3.278
 4026W        W72431  40.898  37.463  10.667
 4027W        W72432  26.752  21.640  14.482
 4028W        W72433  36.843  16.670   2.100
 4029W        W72434  27.525  32.095  11.384
 4030W        W72435  24.477  30.118  10.468
 4031W        W72436  39.291  12.930  12.960
 4032W        W72437   1.557  29.799   0.471
 4033W        W72438  39.732   2.722   1.370
 4034W        W72439  22.387  12.548   4.191
 4035W        W72440   9.640  37.478   1.811
 4036W        W72441  16.043  35.512  12.491
 4037W        W72442  15.068   9.586  13.598
 4038W        W72443  31.208  38.938  13.813
 4039W        W72444  27.706  30.948   3.171
 4040W        W72445  42.390  37.158  14.564
 4041W        W72446   7.611  32.668  10.684
 4042W        W72447  14.763  37.366  14.952
 4043W        W72448  26.911  40.766  11.692
 4044W        W72449  11.829  21.235  13.300
 4045W        W72450  39.755  35.880   1.805
 4046W        W72451  27.449   7.312  11.599
 4047W        W72452   2.400  17.872  10.363
 4048W        W72453  14.600  12.506   0.275
 4049W        W72454  34.836  36.915  11.565
 4050W        W72455  41.443  14.644   3.187
 4051W        W72456  29.954  30.053  14.855
 4052W        W72457  42.717  20.272  14.919
 4053W        W72458  17.788  22.708   1.064
 4054W        W72459  42.236  22.897  14.336
 4055W        W72460   2.721  30.258  11.225
 4056W        W72461  44.332  14.774   0.385
 4057W        W72462   7.280  19.612  11.169
 4058W        W72463  44.690   5.695  13.117
 4059W        W72464   2.424  36.665  13.303
 4060W        W72465  41.040  42.436   4.571
 4061W        W72466  17.269  18.316   4.669
 4062W        W72467  30.033  13.950  14.391
 4063W        W72468  43.263   4.832  11.933
 4064W        W72469   5.161  27.538   3.909
 4065W        W72470  28.169   4.948  12.830
 4066W        W72471  41.094  36.280  13.114
 4067W        W72472  23.966  41.383   5.098
 4068W        W72473   7.347  40.669  12.476
 4069W        W72474   5.169  12.232   0.437
 4070W        W72475   4.887  35.107  13.951
 4071W        W72476   8.930  39.353   4.517
 4072W        W72477  10.896   8.855   4.538
 4073W        W72478  36.386  15.196   4.337
 4074W        W72479  36.079  10.388  12.365
 4075W        W72480  19.719  16.323   2.410
 4076W        W72481   0.389  26.572  11.982
 4077W        W72482  24.538   8.392   3.774
 4078W        W72483  33.983  43.581  13.910
 4079W        W72484  10.106  32.507   3.609
 4080W        W72485   8.311  42.330   2.115
 4081W        W72486  13.253  34.400   1.433
 4082W        W72487  39.424  28.729  14.504
 4083W        W72488  39.090   6.031  13.651
 4084W        W72489  34.059  23.739  12.008
 4085W        W72490  13.082  34.360   4.081
 4086W        W72491  19.147  25.900   4.190
 4087W        W72492   2.978  21.096   0.717
 4088W        W72493  41.917  29.522  11.781
 4089W        W72494  25.088  16.922   5.049
 4090W        W72495  43.781  36.516   2.529
 4091W        W72496  31.319  12.782   3.131
 4092W        W72497  32.785  13.087  10.788
 4093W        W72498   3.234  19.824  13.111
 4094W        W72499   9.448  15.293   3.255
 4095W        W72500  40.596   9.890  11.016
 4096W        W72501  29.554  32.199   3.797
 4097W        W72502   5.774  43.402  14.427
 4098W        W72503  38.998  35.688   0.057
 4099W        W72504   2.059  18.949  14.066
 4100W        W72505   5.959   4.867  13.288
 4101W        W72506  10.588   6.343  14.935
 4102W        W72507  22.212  41.257  12.870
 4103W        W72508  15.649   2.530  13.326
 4104W        W72509  24.456   1.207  13.348
 4105W        W72510   8.758  35.567  13.983
 4106W        W72511   0.921  22.036   4.467
 4107W        W72512  36.649  12.275  10.612
 4108W        W72513   6.725  22.680  14.958
 4109W        W72514  28.614  11.384   4.489
 4110W        W72515  26.352  27.273  13.981
 4111W        W72516  18.862  25.099   5.406
 4112W        W72517  25.063  12.992  13.378
 4113W        W72518  40.726  14.652  11.984
 4114W        W72519   0.918  35.925  12.329
 4115W        W72520  10.587  25.173  13.957
 4116W        W72521  21.901  36.356  14.316
 4117W        W72522  15.915  12.742  11.612
 4118W        W72523   3.851  13.894   1.425
 4119W        W72524  27.661  31.593  11.469
 4120W        W72525   2.234  25.123   1.401
 4121W        W72526   8.455   8.806  13.484
 4122W        W72527   9.917  42.156  14.371
 4123W        W72528  27.666  16.622   2.292
 4124W        W72529  44.152  27.526   4.514
 4125W        W72530  25.493  33.065   2.318
 4126W        W72531  14.758  31.911   5.184
 4127W        W72532  35.026  33.794   1.230
 4128W        W72533  35.756   7.421  14.521
 4129W        W72534  44.467  12.620  14.400
 4130W        W72535  28.024  37.959  11.606
 4131W        W72536  38.042  28.622   4.089
 4132W        W72537  25.298  39.409   0.870
 4133W        W72538  32.851  10.407  11.519
 4134W        W72539  31.378  32.948   4.343
 4135W        W72540  23.468   3.766   2.147
 4136W        W72541  21.252  18.828  10.686
 4137W        W72542  36.849  40.040   4.579
 4138W        W72543  22.115   3.946   0.859
 4139W        W72544  33.108   3.013   1.250
 4140W        W72545   1.253   0.298   0.729
 4141W        W72546  28.993  11.796  14.323
 4142W        W72547  39.037  21.845   1.416
 4143W        W72548   6.595  19.617   0.429
 4144W        W72549  13.646  31.292   4.664
 4145W        W72550  24.424  11.253  13.804
 4146W        W72551  34.027  39.905  10.416
 4147W        W72552  22.468  34.458  12.948
 4148W        W72553  33.493  35.760  10.844
 4149W        W72554   9.376  17.308   2.898
 4150W        W72555  42.970  18.553   0.246
 4151W        W72556  42.284  28.900  14.724
 4152W        W72557  13.952  21.983   1.343
 4153W        W72558  21.064  36.470  13.266
 4154W        W72559  37.400  18.359  13.453
 4155W        W72560  19.251  32.676  12.471
 4156W        W72561  41.157  39.974   0.724
 4157W        W72562  41.550   0.849  11.660
 4158W        W72563  23.483  16.543  12.179
 4159W        W72564  44.886   6.334  10.308
 4160W        W72565   8.807  15.216   3.054
 4161W        W72566   4.690  38.517  13.753
 4162W        W72567  17.184   2.802  10.823
 4163W        W72568  30.023  30.948  10.690
 4164W        W72569  30.005   6.491  12.608
 4165W        W72570  11.417  27.085  13.116
 4166W        W72571  16.974  32.649   5.472
 4167W        W72572  10.886   5.331   2.129
 4168W        W72573   3.972  15.252  13.794
 4169W        W72574  15.892  20.366  13.070
 4170W        W72575   7.684  38.578   2.324
 4171W        W72576  16.082  24.437  13.496
 4172W        W72577   0.843  34.969   1.442
 4173W        W72578  28.724   7.934  13.287
 4174W        W72579   3.455  16.732   3.856
 4175W        W72580   5.079  17.303   1.271
 4176W        W72581  25.252  36.345   3.317
 4177W        W72582  30.607   2.730   1.880
 4178W        W72583  32.597  15.667   2.404
 4179W        W72584   5.370  28.581   4.544
 4180W        W72585   4.853  33.861   4.679
 4181W        W72586  17.217  18.959  10.986
 4182W        W72587  12.220  38.069  13.982
 4183W        W72588  41.342  17.257   1.271
 4184W        W72589  21.104  24.319  12.449
 4185W        W72590  12.366  23.997  12.514
 4186W        W72591  34.819  10.367   3.793
 4187W        W72592  35.926  42.484   2.341
 4188W        W72593  36.093  16.332   0.841
 4189W        W72594  29.319  20.025  13.955
 4190W        W72595  30.780  12.596   0.288
 4191W        W72596  42.623  27.196  10.675
 4192W        W72597   0.786  26.398   3.899
 4193W        W72598  21.088   2.381  13.960
 4194W        W72599  12.755  40.379  10.732
 4195W        W72600  41.927  34.649  12.100
 4196W        W72601   6.035   0.490  11.080
 4197W        W72602   9.172   7.683   2.835
 4198W        W72603  39.567  18.698   2.350
 4199W        W72604  39.580  14.705   2.406
 4200W        W72605  16.678  36.092   3.697
 4201W        W72606  13.888  18.556  11.621
 4202W        W72607   9.302  36.949   3.295
 4203W        W72608  37.106  43.887  13.004
 4204W        W72609  43.007  36.249  13.176
 4205W        W72610  41.999  22.495   5.115
 4206W        W72611  39.349   9.479   2.680
 4207W        W72612  30.109  10.432   0.872
 4208W        W72613  12.649   3.379  14.586
 4209W        W72614  14.069   9.475  13.461
 4210W        W72615  12.361  24.203  12.045
 4211W        W72616   3.877  23.277   3.957
 4212W        W72617  13.371   5.430  11.200
 4213W        W72618  12.728  10.264  13.933
 4214W        W72619  18.767  26.984  13.120
 4215W        W72620  17.983   1.184  11.154
 4216W        W72621  30.186   5.708  13.809
 4217W        W72622  34.567  13.859   3.780
 4218W        W72623  41.795   7.381   4.544
 4219W        W72624   0.383  10.417  12.391
 4220W        W72625   9.571   3.979  11.658
 4221W        W72626  38.642   3.829   4.229
 4222W        W72627   3.344  16.265   3.660
 4223W        W72628   7.165  28.996   4.405
 4224W        W72629  11.412  30.889   0.668
 4225W        W72630  14.546  38.042   2.857
 4226W        W72631   5.551  41.211   4.107
 4227W        W72632  13.867  23.175  13.325
 4228W        W72633  10.830  25.419  11.129
 4229W        W72634   4.841  41.032  11.114
 4230W        W72635  12.299  17.608  14.015
 4231W        W72636   3.932  23.013  10.717
 4232W        W72637  39.099   4.738  12.110
 4233W        W72638  34.826  21.115   2.690
 4234W        W72639  13.627  23.533  10.417
 4235W        W72640   4.323  16.690   0.807
 4236W        W72641  21.312   1.923   4.661
 4237W        W72642   6.731  24.093   4.158
 4238W        W72643   2.548  39.590   4.078
 4239W        W72644  11.890  27.127  12.911
 4240W        W72645  27.362   3.694  11.030
 4241W        W72646  43.934  38.384   3.832
 4242W        W72647  22.078  33.931   3.124
 4243W        W72648  21.629  28.180   3.624
 4244W        W72649  44.053   1.424  11.528
 4245W        W72650  27.390  24.130  13.149
 4246W        W72651  24.669  39.427   3.587
 4247W        W72652  36.954   4.568   0.739
 4248W        W72653   6.713  40.853   4.464
 4249W        W72654  18.692  23.572  11.193
 4250W        W72655  34.021  38.953   1.649
 4251W        W72656   7.604  40.346   4.041
 4252W        W72657  35.682  25.552  13.137
 4253W        W72658  11.190  25.175  12.945
 4254W        W72659   2.080  21.116  11.230
 4255W        W72660  18.168  18.552   3.355
 4256W        W72661  16.673  40.527   2.390
 4257W        W72662  44.059   4.949   2.733
 4258W        W72663  28.538   6.304   1.080
 4259W        W72664  24.028  22.716   2.242
 4260W        W72665   1.869   0.644   0.682
 4261W        W72666  42.277  11.324  13.940
 4262W        W72667  10.909  36.379  12.121
 4263W        W72668  35.081   8.479   3.059
 4264W        W72669   1.168  34.361   0.833
 4265W        W72670  20.243  40.666  13.881
 4266W        W72671  16.025  13.319   0.967
 4267W        W72672  15.674   3.893   0.969
 4268W        W72673   5.391  30.045   0.505
 4269W        W72674   9.224   3.442   1.785
 4270W        W72675  14.809  42.547   0.472
 4271W        W72676  25.538  36.945  13.877
 4272W        W72677  37.289  20.607   1.203
 4273W        W72678  25.384  25.037  12.154
 4274W        W72679  41.755  35.609  11.852
 4275W        W72680  27.917  40.875  11.964
 4276W        W72681  37.876  16.293  14.208
 4277W        W72682  11.786  30.662  10.187
 4278W        W72683  37.819  12.596  13.227
 4279W        W72684  32.878  18.692   1.842
 4280W        W72685   1.384  23.040  14.487
 4281W        W72686   1.018  20.299   0.713
 4282W        W72687  25.997   1.725   2.056
 4283W        W72688  33.124  16.552  14.118
 4284W        W72689  10.416  14.705  13.620
 4285W        W72690   1.225  18.282   0.035
 4286W        W72691  14.950  28.182   1.848
 4287W        W72692  15.223  12.324   3.660
 4288W        W72693  32.570  36.345   1.713
 4289W        W72694   3.880  30.922  12.121
 4290W        W72695  13.133  18.212  11.287
 4291W        W72696   3.710  21.316   3.721
 4292W        W72697   7.534   4.297  13.968
 4293W        W72698   7.636   9.293  14.320
 4294W        W72699  32.452   5.130  13.912
 4295W        W72700  43.658  20.157   4.246
 4296W        W72701  12.859  11.118   4.559
 4297W        W72702  20.529   4.273  12.175
 4298W        W72703  17.600   3.202  11.600
 4299W        W72704   3.840  31.871  11.207
 4300W        W72705   4.917  15.540   0.365
 4301W        W72706  10.775  22.711   2.643
 4302W        W72707  25.849   6.753   2.780
 4303W        W72708   2.406   3.864   1.170
 4304W        W72709  17.131   8.957  14.341
 4305W        W72710  38.706  30.012   1.548
 4306W        W72711  34.319  39.506   2.770
 4307W        W72712  34.803  27.559   4.651
 4308W        W72713   1.703  18.459  14.940
 4309W        W72714  12.042  12.073  12.000
 4310W        W72715   2.546  15.023   1.430
 4311W        W72716  11.305  19.141   1.733
 4312W        W72717  18.322  10.736   2.597
 4313W        W72718  21.497  35.304  13.550
 4314W        W72719  28.675  29.947   0.988
 4315W        W72720  43.025  17.688  12.472
 4316W        W72721   2.406   8.805   0.479
 4317W        W72722  16.650  19.461   3.310
 4318W        W72723  42.733  28.951   4.096
 4319W        W72724  13.851  13.266  10.749
 4320W        W72725   2.438  30.218  12.197
 4321W        W72726  42.638   7.326  14.552
 4322W        W72727  14.819   4.845   2.804
 4323W        W72728  28.481   5.120  13.855
 4324W        W72729  44.837  23.078  10.325
 4325W        W72730  15.321  23.255   4.183
 4326W        W72731   5.539  21.916   3.318
 4327W        W72732  33.559  43.453  14.950
 4328W        W72733  13.856  33.953  13.090
 4329W        W72734  44.921  11.039   3.198
 4330W        W72735   4.498   7.958   1.754
 4331W        W72736   6.754  25.582   3.725
 4332W        W72737  10.128   9.907   4.163
 4333W        W72738  44.541  21.221  14.600
 4334W        W72739  22.444  42.969   4.288
 4335W        W72740  10.675  34.363  13.957
 4336W        W72741  17.842  42.869   1.247
 4337W        W72742  42.081   9.294   0.945
 4338W        W72743   8.070  16.097   3.745
 4339W        W72744  26.128  21.476  11.558
 4340W        W72745  23.453  40.261   4.447
 4341W        W72746  12.711   3.766   2.444
 4342W        W72747   5.499  26.558   0.948
 4343W        W72748  28.559  29.422   2.920
 4344W        W72749  36.008  39.502  14.876
 4345W        W72750  44.756  13.314   0.684
 4346W        W72751  23.155   5.955  12.946
 4347W        W72752  34.563   6.019  14.849
 4348W        W72753  26.490  21.490  14.909
 4349W        W72754  10.466  44.665  14.486
 4350W        W72755  30.977  21.194   3.648
 4351W        W72756  24.820   1.652   1.707
 4352W        W72757  40.320  38.386   0.931
 4353W        W72758   5.855  12.362  14.921
 4354W        W72759  17.843  26.483  11.655
 4355W        W72760   2.328  33.637  12.611
 4356W        W72761  16.852  14.209   0.440
 4357W        W72762  42.293  32.895   0.705
 4358W        W72763  41.302  14.089   0.755
 4359W        W72764   7.660  10.811   1.444
 4360W        W72765  20.933  40.816  11.873
 4361W        W72766  10.479  34.920  12.148
 4362W        W72767   3.750  40.523  12.609
 4363W        W72768   9.283   1.730   3.686
 4364W        W72769  44.423  15.287   0.260
 4365W        W72770  15.649   3.289   5.008
 4366W        W72771  23.661   1.632   4.903
 4367W        W72772  33.430   3.751   1.213
 4368W        W72773   0.692  34.262  13.964
 4369W        W72774  11.972   1.848  14.074
 4370W        W72775  11.615  37.862   2.699
 4371W        W72776   2.352  43.057  12.961
 4372W        W72777  37.481  19.493  14.776
 4373W        W72778  44.745  11.617  14.049
 4374W        W72779  43.998  43.775  14.496
 4375W        W72780  39.606   7.191   2.825
 4376W        W72781   3.070   0.784   4.984
 4377W        W72782  26.918   4.183   4.128
 4378W        W72783   2.358   9.823  12.057
 4379W        W72784  31.781  36.785   4.752
 4380W        W72785  44.861  18.193   2.456
 4381W        W72786  11.635  22.185   0.180
 4382W        W72787  43.540  35.083  11.707
 4383W        W72788  12.180   8.929   2.418
 4384W        W72789  38.604  29.338  14.866
 4385W        W72790   9.637  19.729   1.782
 4386W        W72791   0.854  27.544   3.233
 4387W        W72792  12.126  13.365  12.380
 4388W        W72793  34.910  12.150   5.109
 4389W        W72794  34.621   6.875  14.429
 4390W        W72795  15.625   0.998   4.605
 4391W        W72796  17.905  32.424   9.861
 4392W        W72797   1.188  38.952  13.890
 4393W        W72798   6.831  39.803   1.354
 4394W        W72799   0.916  43.763   3.252
 4395W        W72800   2.267  27.240   3.237
 4396W        W72801  19.524  22.592  11.810
 4397W        W72802   7.687  35.088   3.308
 4398W        W72803  23.473   6.101   1.721
 4399W        W72804  18.268   2.417   0.330
 4400W        W72805  12.411  18.640   2.416
 4401W        W72806  19.212  37.411   1.601
 4402W        W72807  18.305  34.685   0.675
 4403W        W72808   5.829  13.985  11.108
 4404W        W72809   0.764  11.763  14.197
 4405W        W72810  25.975  16.272   2.859
 4406W        W72811  28.276   9.378  13.164
 4407W        W72812  11.912  10.130   3.071
 4408W        W72813  39.537   0.349   1.241
 4409W        W72814  32.998  41.051  11.160
 4410W        W72815  12.176  15.771  13.732
 4411W        W72816  40.861   8.389   0.872
 4412W        W72817  20.592   0.483   3.287
 4413W        W72818  17.659   0.016  14.247
 4414W        W72819  20.208  13.670  13.429
 4415W        W72820   3.892  20.276  13.620
 4416W        W72821  33.577  26.637   0.757
 4417W        W72822  38.897  15.744  12.007
 4418W        W72823  33.585  35.580   1.643
 4419W        W72824  40.582  25.639   1.148
 4420W        W72825  14.009  42.553   1.652
 4421W        W72826  40.340   5.224  12.018
 4422W        W72827  11.640  41.819   2.864
 4423W        W72828  26.208  21.571   2.767
 4424W        W72829   1.273  19.640   4.618
 4425W        W72830  15.734  40.524  11.498
 4426W        W72831   1.319  27.041   3.183
 4427W        W72832  38.601  42.463  11.890
 4428W        W72833  22.486  36.076   3.449
 4429W        W72834  30.507  16.745  11.270
 4430W        W72835  20.769  21.640   4.248
 4431W        W72836   5.267   0.453  14.480
 4432W        W72837  27.416  22.824   3.159
 4433W        W72838   1.854  17.084  11.062
 4434W        W72839  10.304  11.722  14.940
 4435W        W72840  25.430   6.432   2.824
 4436W        W72841   7.447   7.727  10.767
 4437W        W72842   7.401   9.397  10.731
 4438W        W72843  29.109  34.503  11.851
 4439W        W72844  15.114   8.912  12.535
 4440W        W72845  19.972  27.932   1.384
 4441W        W72846  18.340  18.017  14.807
 4442W        W72847   7.681  23.970   0.857
 4443W        W72848  34.606  35.447   3.480
 4444W        W72849  35.806   8.685   0.223
 4445W        W72850  33.162  31.048   3.837
 4446W        W72851   3.691  20.139  13.135
 4447W        W72852  13.798  33.848  13.898
 4448W        W72853  31.882  41.572   2.344
 4449W        W72854   0.031  38.432   1.029
 4450W        W72855  15.560  25.117  13.900
 4451W        W72856   7.232   8.790  11.251
 4452W        W72857  42.318  35.359  13.077
 4453W        W72858  40.533  39.205  12.458
 4454W        W72859  17.292  13.671  14.948
 4455W        W72860  41.975  44.398   0.217
 4456W        W72861  28.621  15.253   4.517
 4457W        W72862  32.327   6.821   3.085
 4458W        W72863  40.556  15.350   1.948
 4459W        W72864  10.170  35.496   0.210
 4460W        W72865   4.479  10.984   0.846
 4461W        W72866   6.088   4.964   4.875
 4462W        W72867  12.238   9.434   2.309
 4463W        W72868  40.284   1.819   1.303
 4464W        W72869   9.115  37.613   0.575
 4465W        W72870   0.754  20.332   1.154
 4466W        W72871  20.264   6.271   3.305
 4467W        W72872  39.848  15.824   0.413
 4468W        W72873  13.779  21.619   3.104
 4469W        W72874  17.350   9.736   4.561
 4470W        W72875   0.476  28.030  12.486
 4471W        W72876  32.753  14.231   0.461
 4472W        W72877  25.442  19.678   3.604
 4473W        W72878  32.056  43.939  13.105
 4474W        W72879   0.112  41.060   0.094
 4475W        W72880  30.326  12.284  10.900
 4476W        W72881  27.001  10.899  12.469
 4477W        W72882  44.737  43.332  12.483
 4478W        W72883  36.037   1.919   0.755
 4479W        W72884  34.327  32.573   1.297
 4480W        W72885  42.874  12.212  11.570
 4481W        W72886  43.725  22.203   2.605
 4482W        W72887  28.395  41.067   1.293
 4483W        W72888  27.350  13.868  13.567
 4484W        W72889  11.364   1.345   1.342
 4485W        W72890  42.409  40.595  12.226
 4486W        W72891  14.832  20.764  10.784
 4487W        W72892  29.893  28.246  13.347
 4488W        W72893  32.345  32.537   3.673
 4489W        W72894   6.245  42.877  14.389
 4490W        W72895   7.747  11.697   4.324
 4491W        W72896  36.445  39.353   4.795
 4492W        W72897  38.537  40.014   0.545
 4493W        W72898   5.702  39.859   2.216
 4494W        W72899  26.534   3.667  11.848
 4495W        W72900  37.040   1.920   1.334
 4496W        W72901  39.467  17.665  10.597
 4497W        W72902  40.747  38.899   4.030
 4498W        W72903  44.705  44.509  11.937
 4499W        W72904   1.199  19.490   2.130
 4500W        W72905  34.841  44.529   1.834
 4501W        W72906  13.091  37.782  10.757
 4502W        W72907  42.475   5.089   2.675
 4503W        W72908  34.371  11.295   2.746
 4504W        W72909  18.966  19.937  11.069
 4505W        W72910  33.854  39.956   4.688
 4506W        W72911  18.674  17.332   1.369
 4507W        W72912   0.283   6.347   4.645
 4508W        W72913  20.179   3.236   3.604
 4509W        W72914  30.686  29.625   4.693
 4510W        W72915   8.783   9.806  10.759
 4511W        W72916  25.103   9.852  12.998
 4512W        W72917  44.051  27.280   0.602
 4513W        W72918   8.345  22.064  10.756
 4514W        W72919  42.826  29.936   3.153
 4515W        W72920   8.148   4.100  11.710
 4516W        W72921   4.135  30.921   0.891
 4517W        W72922   6.841  24.182  13.124
 4518W        W72923   5.362   9.438   2.179
 4519W        W72924  33.908  22.292  13.333
 4520W        W72925   0.897  24.874   4.068
 4521W        W72926  13.017  39.485   2.350
 4522W        W72927  25.854  38.870  10.856
 4523W        W72928   0.098  43.328   4.325
 4524W        W72929  10.444  13.737   4.077
 4525W        W72930  19.149  34.923   3.956
 4526W        W72931  23.071  10.313  11.636
 4527W        W72932  31.440  33.597   1.414
 4528W        W72933   5.349  34.970   2.047
 4529W        W72934  17.178  11.099   3.165
 4530W        W72935  41.255  21.261  14.816
 4531W        W72936  31.938  42.336  11.043
 4532W        W72937  32.125   6.705   3.935
 4533W        W72938  30.496  15.817   4.786
 4534W        W72939  41.049  25.812  11.167
 4535W        W72940  20.326  16.209  13.003
 4536W        W72941   4.890  35.488  13.330
 4537W        W72942  33.496  13.676   1.248
 4538W        W72943  41.197  31.553  13.375
 4539W        W72944   4.976   1.290  14.587
 4540W        W72945  34.533  28.129   0.722
 4541W        W72946  34.875  28.726   3.637
 4542W        W72947  32.065  37.554   0.278
 4543W        W72948   1.528   9.973  12.944
 4544W        W72949  21.572  28.704  10.722
 4545W        W72950  13.729  35.501   1.832
 4546W        W72951  34.031  28.238   0.793
 4547W        W72952  41.344  24.975   4.174
 4548W        W72953  12.719  15.048   4.266
 4549W        W72954   4.382  24.676   4.682
 4550W        W72955  39.088  40.764  14.936
 4551W        W72956  30.114   4.434   0.796
 4552W        W72957  44.227  10.891  13.957
 4553W        W72958  29.694  43.050   3.207
 4554W        W72959  21.232  12.163  11.039
 4555W        W72960  37.858  43.764  10.728
 4556W        W72961  19.833  31.595  10.617
 4557W        W72962  28.548  44.385  13.768
 4558W        W72963  24.625  37.011   4.796
 4559W        W72964  23.983   4.215   0.709
 4560W        W72965  17.711  14.826   2.406
 4561W        W72966  25.739  39.384   3.667
 4562W        W72967  18.545  20.515   3.729
 4563W        W72968  18.937   8.368  12.587
 4564W        W72969  21.257  29.242  12.918
 4565W        W72970   9.167  25.115   0.412
 4566W        W72971  34.558  24.600   1.265
 4567W        W72972  31.725  43.953   1.899
 4568W        W72973   0.759   5.273  10.437
 4569W        W72974  31.997   4.108   1.893
 4570W        W72975   2.513   4.794  11.463
 4571W        W72976  27.621  23.793   0.230
 4572W        W72977  15.581  35.869  12.260
 4573W        W72978   7.467  38.612  12.539
 4574W        W72979  16.088  30.545  13.873
 4575W        W72980  21.201   0.836   3.640
 4576W        W72981  22.973  44.872   2.296
 4577W        W72982  43.052   1.374  11.959
 4578W        W72983  44.697   7.871  14.285
 4579W        W72984  38.493  11.125   4.627
 4580W        W72985  16.692  27.702   0.478
 4581W        W72986   8.827  31.133   1.027
 4582W        W72987  12.345   0.703   2.752
 4583W        W72988  12.224   8.659  13.484
 4584W        W72989  39.072  35.339  13.103
 4585W        W72990  19.570  17.768  14.952
 4586W        W72991  27.652  28.104   2.281
 4587W        W72992   9.840   6.997  11.948
 4588W        W72993   6.987  22.201  12.524
 4589W        W72994  24.935  27.421  14.783
 4590W        W72995  25.359  33.876  11.617
 4591W        W72996  34.662   1.798  10.849
 4592W        W72997  28.087  29.048  14.093
 4593W        W72998  44.351   4.972   3.162
 4594W        W72999  15.681  16.673   4.267
 4595W        W73000   0.454  30.585  14.350
 4596W        W73001   6.474  15.088   2.741
 4597W        W73002  44.058  36.113  14.045
 4598W        W73003  32.107  27.172   3.723
 4599W        W73004  40.424   0.212  14.894
 4600W        W73005   3.489   8.009  10.770
 4601W        W73006  24.640  10.060   2.998
 4602W        W73007  26.419  21.959  10.716
 4603W        W73008  32.953  13.368  11.973
 4604W        W73009  35.452  26.040  13.070
 4605W        W73010   7.657  15.250   3.185
 4606W        W73011  26.231  39.890  12.941
 4607W        W73012  21.843   2.994   2.371
 4608W        W73013  37.269   0.147   4.767
 4609W        W73014   2.258  19.852   1.362
 4610W        W73015  19.047  43.811  11.842
 4611W        W73016  38.307  36.378  11.982
 4612W        W73017  13.890  19.994  14.957
 4613W        W73018  10.672  32.110  10.832
 4614W        W73019   3.501  13.276  14.751
 4615W        W73020  23.560   0.135   1.241
 4616W        W73021  44.364   0.206   2.043
 4617W        W73022  36.385  27.853  13.097
 4618W        W73023   0.297  25.218  12.986
 4619W        W73024   7.724  31.121  14.363
 4620W        W73025  18.666   8.197  14.818
 4621W        W73026  11.620  42.254  11.981
 4622W        W73027  21.137  29.525   4.996
 4623W        W73028  44.066  38.896  10.469
 4624W        W73029  42.461  29.439  11.910
 4625W        W73030  17.750  29.161  13.002
 4626W        W73031  11.459  12.828   1.699
 4627W        W73032  22.509  44.705  13.494
 4628W        W73033  30.910  17.816   2.813
 4629W        W73034  12.827  35.264   2.605
 4630W        W73035  21.036  33.428   5.113
 4631W        W73036  38.540   4.854   2.261
 4632W        W73037  44.989   2.971  11.459
 4633W        W73038  39.798  32.323   1.519
 4634W        W73039  27.679  39.430   0.750
 4635W        W73040   4.873   4.945  10.183
 4636W        W73041  34.849   4.263   2.280
 4637W        W73042  14.282  22.099  14.572
 4638W        W73043   8.474   5.265  14.786
 4639W        W73044   0.694  34.673   5.211
 4640W        W73045  24.549  42.359  13.544
 4641W        W73046   0.780   0.462  10.654
 4642W        W73047   9.800  21.249  14.070
 4643W        W73048  41.754  16.185   0.483
 4644W        W73049  26.689  26.612   4.176
 4645W        W73050  21.284  30.858   1.261
 4646W        W73051   3.017  25.972   4.362
 4647W        W73052   9.736  44.717   4.631
 4648W        W73053  41.431  30.209   2.140
 4649W        W73054   8.637  21.252  14.930
 4650W        W73055  39.793  11.815   2.343
 4651W        W73056   2.060   9.852  10.039
 4652W        W73057   0.979  36.467  11.630
 4653W        W73058  26.523  36.394   2.855
 4654W        W73059  39.272   4.526   1.020
 4655W        W73060   4.377  39.942   0.764
 4656W        W73061  12.182  19.775   0.773
 4657W        W73062  30.579   9.064  13.358
 4658W        W73063   5.804  28.620  11.921
 4659W        W73064   8.783   5.943  13.559
 4660W        W73065  18.038  41.878   0.882
 4661W        W73066  25.943  20.960  10.684
 4662W        W73067   3.016  41.486  11.118
 4663W        W73068  20.473  38.991  12.301
 4664W        W73069  20.434  15.760   1.920
 4665W        W73070   4.769   3.453  10.128
 4666W        W73071   6.305  24.470  11.638
 4667W        W73072  28.510  43.594  13.868
 4668W        W73073  23.451   9.348  11.129
 4669W        W73074   0.184  22.575  12.285
 4670W        W73075  27.497  32.017   9.984
 4671W        W73076   9.120   9.607  11.106
 4672W        W73077  25.978   1.231  13.384
 4673W        W73078  37.099  20.407   4.145
 4674W        W73079  10.889  15.733  14.489
 4675W        W73080  19.294  43.424   0.007
 4676W        W73081  27.182  40.034  14.320
 4677W        W73082   5.817  25.482  10.837
 4678W        W73083  36.399  25.188  11.961
 4679W        W73084  14.765   9.379   3.711
 4680W        W73085  16.753  28.057  10.809
 4681W        W73086  30.028  32.302  11.044
 4682W        W73087   3.315  33.402   0.066
 4683W        W73088  36.614  16.176   2.046
 4684W        W73089  30.292  35.405   1.154
 4685W        W73090  13.174   8.333   4.610
 4686W        W73091  15.573  37.686   5.084
 4687W        W73092  12.734  14.018  14.508
 4688W        W73093  31.190  33.549  13.219
 4689W        W73094  24.723  18.384  14.285
 4690W        W73095   2.475   6.330  11.651
 4691W        W73096  27.723  13.181   0.450
 4692W        W73097   2.123  25.968  13.964
 4693W        W73098   3.353   0.792  12.169
 4694W        W73099  30.115  27.758  14.218
 4695W        W73100  22.512  33.404  10.625
 4696W        W73101  42.455  24.432  10.663
 4697W        W73102  28.069  27.282  14.440
 4698W        W73103  32.274   0.906  11.968
 4699W        W73104  36.867  44.615  13.495
 4700W        W73105  14.942  17.439   0.812
 4701W        W73106  40.611  28.508  14.821
 4702W        W73107  16.774  26.992   1.309
 4703W        W73108   5.870  40.282   0.539
 4704W        W73109  17.213  11.600   0.467
 4705W        W73110  28.413  40.547   1.363
 4706W        W73111  43.675  37.148   2.611
 4707W        W73112  11.598  10.275  12.829
 4708W        W73113  29.526  14.159  10.322
 4709W        W73114   6.506  30.953   2.206
 4710W        W73115  34.035  21.994  12.825
 4711W        W73116  19.152   6.900  14.707
 4712W        W73117  32.465  37.350   0.617
 4713W        W73118  20.017  42.222   1.174
 4714W        W73119  16.388  25.629  13.960
 4715W        W73120   5.243   7.830   1.252
 4716W        W73121  22.921  13.162   3.652
 4717W        W73122  24.942  40.281   4.078
 4718W        W73123  38.075  22.089  14.472
 4719W        W73124  38.074   2.393   2.179
 4720W        W73125   7.442  14.110  13.683
 4721W        W73126  32.581  18.360  13.126
 4722W        W73127  41.015  36.458  14.885
 4723W        W73128   0.534  20.131   0.213
 4724W        W73129  36.585  10.183   1.759
 4725W        W73130  15.150   0.505  12.037
 4726W        W73131  43.078   5.931  11.241
 4727W        W73132  32.925  22.713   3.278
 4728W        W73133  18.272  37.709   3.424
 4729W        W73134   6.911  23.900   0.427
 4730W        W73135  31.496  22.282  13.317
 4731W        W73136  43.299  31.184  14.852
 4732W        W73137  14.068  22.796   1.808
 4733W        W73138   6.744   4.236   2.750
 4734W        W73139  26.115  41.599   0.815
 4735W        W73140   9.804   6.504   3.252
 4736W        W73141   4.400  38.336  10.554
 4737W        W73142   2.858  13.333   3.762
 4738W        W73143  27.595  34.977   3.528
 4739W        W73144  27.090  22.821   1.650
 4740W        W73145  22.769  28.934   2.932
 4741W        W73146  15.172  22.507   0.852
 4742W        W73147   4.235  41.585  11.571
 4743W        W73148  18.050  41.914  12.785
 4744W        W73149  37.621  14.145   1.310
 4745W        W73150  37.509  38.394   0.469
 4746W        W73151  21.512  26.778  12.146
 4747W        W73152  32.139  29.984  13.144
 4748W        W73153  36.148  16.762   3.111
 4749W        W73154  13.357  14.832   2.715
 4750W        W73155  18.421  43.604   0.739
 4751W        W73156  40.596  31.909  11.652
 4752W        W73157  21.303  22.488   1.103
 4753W        W73158  21.011   3.381  12.351
 4754W        W73159  40.866  36.334  10.471
 4755W        W73160  19.813  39.363  10.686
 4756W        W73161  14.382  10.087  11.483
 4757W        W73162  12.111  14.288  12.564
 4758W        W73163   5.882  34.047  13.797
 4759W        W73164   3.662  19.684  14.847
 4760W        W73165  23.548  13.664  14.916
 4761W        W73166  36.949  41.354  14.470
 4762W        W73167  14.614  28.202   0.549
 4763W        W73168  21.615   2.723   0.554
 4764W        W73169   0.244  20.742  12.091
 4765W        W73170  15.363   6.762   1.838
 4766W        W73171  35.966   8.434  12.488
 4767W        W73172  41.243  21.513   4.484
 4768W        W73173   4.975  13.929  10.969
 4769W        W73174  29.504   4.796   0.788
 4770W        W73175  24.949  21.119   3.148
 4771W        W73176  30.319  21.075   4.302
 4772W        W73177  36.280  37.910  14.358
 4773W        W73178  37.038  30.763   3.599
 4774W        W73179  28.877  38.463   4.019
 4775W        W73180  36.795  44.192   0.727
 4776W        W73181  29.478  22.223   2.200
 4777W        W73182   9.929   7.368  12.904
 4778W        W73183  42.557  38.181   0.645
 4779W        W73184  12.360  34.871  12.010
 4780W        W73185  36.605   4.310   4.762
 4781W        W73186  17.492  24.803   2.593
 4782W        W73187   2.444  32.563   3.128
 4783W        W73188  26.050   6.751  13.420
 4784W        W73189  44.073  27.017   3.513
 4785W        W73190  37.275  14.375  11.956
 4786W        W73191  42.350  13.074  14.022
 4787W        W73192   9.409  38.618  11.473
 4788W        W73193   1.222  41.375  13.995
 4789W        W73194  18.020   9.448  13.720
 4790W        W73195  40.259   6.316  13.991
 4791W        W73196  19.682  27.401  11.944
 4792W        W73197  43.277  32.629  14.716
 4793W        W73198  20.429  30.570   4.644
 4794W        W73199   9.851   0.402  14.475
 4795W        W73200  12.937  37.523  12.933
 4796W        W73201  22.590  23.959   1.374
 4797W        W73202   9.244  20.717   2.412
 4798W        W73203  43.430   9.198  12.042
 4799W        W73204   6.181  24.552  10.681
 4800W        W73205  44.422  40.301   0.407
 4801W        W73206   4.966  31.100   1.381
 4802W        W73207  10.710   2.025   3.292
 4803W        W73208   4.670   1.458   3.643
 4804W        W73209   1.796  44.090  11.489
 4805W        W73210   7.110   6.985  12.962
 4806W        W73211  39.369  38.270  12.364
 4807W        W73212  33.969  25.885  10.448
 4808W        W73213  38.274  41.741   3.291
 4809W        W73214   1.743  29.073  13.113
 4810W        W73215  14.731   3.974  13.902
 4811W        W73216  32.940   9.375  13.570
 4812W        W73217  32.671  24.382  10.859
 4813W        W73218  30.118  30.079   2.750
 4814W        W73219   0.265  23.355  13.051
 4815W        W73220   8.799  10.171   1.723
 4816W        W73221  33.155  16.582   1.026
 4817W        W73222   0.558  21.751   2.715
 4818W        W73223  10.562   1.932   4.885
 4819W        W73224   0.382  26.477   4.631
 4820W        W73225  27.361  16.587   1.887
 4821W        W73226   1.246  43.052   0.699
 4822W        W73227   4.524  43.718  12.027
 4823W        W73228  28.708  44.819  13.524
 4824W        W73229  41.395  26.222  13.359
 4825W        W73230  44.435  31.600   2.880
 4826W        W73231  22.204  33.235   1.766
 4827W        W73232  18.226   4.317   1.384
 4828W        W73233   6.450  35.388   0.286
 4829W        W73234  23.258  11.398   0.023
 4830W        W73235   5.720   6.159   0.782
 4831W        W73236  23.628  18.074   2.976
 4832W        W73237  43.281   0.904  11.946
 4833W        W73238   0.434   7.176   5.011
 4834W        W73239  26.586  36.099  13.842
 4835W        W73240  28.044  10.135  10.971
 4836W        W73241  44.780   5.103  14.824
 4837W        W73242  21.691  14.118   0.177
 4838W        W73243  21.075  16.525  10.616
 4839W        W73244  41.477  13.443  12.555
 4840W        W73245  42.593  39.094  11.270
 4841W        W73246   7.775   0.262   0.006
 4842W        W73247  43.514  27.591  13.003
 4843W        W73248   5.524  31.155   2.253
 4844W        W73249  17.210  35.775   4.532
 4845W        W73250  41.027  18.146   2.299
 4846W        W73251  31.912   6.449  12.481
 4847W        W73252  40.775  23.696  13.934
 4848W        W73253  36.092  38.531  10.713
 4849W        W73254  36.011   8.158  11.269
 4850W        W73255  40.758  33.049   3.572
 4851W        W73256  31.001  27.913  12.558
 4852W        W73257  10.765   9.824  11.026
 4853W        W73258  20.787  18.089  10.752
 4854W        W73259  21.218  20.556  14.980
 4855W        W73260  39.011   0.426   3.920
 4856W        W73261  28.697  24.033  12.554
 4857W        W73262  42.705   2.786  13.010
 4858W        W73263  41.172  17.691   4.916
 4859W        W73264  35.826  32.876   0.554
 4860W        W73265   2.386  19.823  14.387
 4861W        W73266  19.916  40.878  12.890
 4862W        W73267  26.744  14.892   0.934
 4863W        W73268  18.261  17.585   4.580
 4864W        W73269  33.796  42.380   0.840
 4865W        W73270  23.144  27.341   3.391
 4866W        W73271  29.527  39.863   0.679
 4867W        W73272  21.008  21.222   4.427
 4868W        W73273   6.256  24.925   3.765
 4869W        W73274  42.162  41.421   3.543
 4870W        W73275  42.326  26.616   0.177
 4871W        W73276  34.500  41.259   4.715
 4872W        W73277   3.236  35.296   4.275
 4873W        W73278  33.011  43.089   0.884
 4874W        W73279  23.938  36.835   0.826
 4875W        W73280  13.196   5.145  11.625
 4876W        W73281  12.355  21.970  12.521
 4877W        W73282   9.121  22.522   3.167
 4878W        W73283  27.636  18.075  11.963
 4879W        W73284  28.418   4.490   4.184
 4880W        W73285  18.632  24.604  13.454
 4881W        W73286   5.798  20.530   1.763
 4882W        W73287  36.538  14.845  11.175
 4883W        W73288  44.081  14.322   4.797
 4884W        W73289  11.204  18.751   4.632
 4885W        W73290  32.943  11.699  14.835
 4886W        W73291  37.070  16.537  12.472
 4887W        W73292  12.292  37.358  11.151
 4888W        W73293  39.611   9.320  13.572
 4889W        W73294  33.782  40.376  12.964
 4890W        W73295  35.453  41.316  11.857
 4891W        W73296  12.064   4.999  11.175
 4892W        W73297  44.363  20.849  10.723
 4893W        W73298  33.164   8.725   4.459
 4894W        W73299  36.376  31.408  11.721
 4895W        W73300   8.437  32.818  12.424
 4896W        W73301  38.391  34.572  11.330
 4897W        W73302  34.498  26.976   2.983
 4898W        W73303  16.252   7.945   1.932
 4899W        W73304  23.953  21.513  12.976
 4900W        W73305   0.904  44.930  11.939
 4901W        W73306  21.863  40.311  13.353
 4902W        W73307  33.006  25.892   4.363
 4903W        W73308   6.533  41.098   3.176
 4904W        W73309  33.457  30.122  12.866
 4905W        W73310  26.658  37.334  10.022
 4906W        W73311  23.411  18.027  11.673
 4907W        W73312   6.951   6.135   4.502
 4908W        W73313  33.847  43.991  10.514
 4909W        W73314  29.389   4.433  10.716
 4910W        W73315  44.905   5.400   0.259
 4911W        W73316  32.999  42.784   4.862
 4912W        W73317   0.584  39.003   0.779
 4913W        W73318  40.056  14.613   1.689
 4914W        W73319   3.789  33.187   3.190
 4915W        W73320  42.766  20.457  11.572
 4916W        W73321   4.970  10.379   4.090
 4917W        W73322  23.330   6.688  11.544
 4918W        W73323  32.014  20.117   4.969
 4919W        W73324  36.484  35.227  12.876
 4920W        W73325   7.732  23.148  11.080
 4921W        W73326  25.929  42.734  12.081
 4922W        W73327  40.800  34.864   2.905
 4923W        W73328  42.325  30.576  11.486
 4924W        W73329   3.623  20.585  11.532
 4925W        W73330  36.171  21.018   0.857
 4926W        W73331  29.201  20.617   3.698
 4927W        W73332  16.681  18.374   1.353
 4928W        W73333  28.356  17.328   2.861
 4929W        W73334  18.727  44.934   3.649
 4930W        W73335   0.382   6.655  14.383
 4931W        W73336  16.619   4.914   4.351
 4932W        W73337  16.663  24.917  12.393
 4933W        W73338   9.928  33.493  14.812
 4934W        W73339  28.310  40.518  12.113
 4935W        W73340  40.814   7.702  13.615
 4936W        W73341  36.068   8.203   0.919
 4937W        W73342  35.037   9.183   1.362
 4938W        W73343  23.281  30.625   0.239
 4939W        W73344  15.953  25.720   4.623
 4940W        W73345  35.326   0.233  11.143
 4941W        W73346  10.158  31.722   4.183
 4942W        W73347  26.085  44.871   2.427
 4943W        W73348  25.778  35.871   4.944
 4944W        W73349  10.496  17.777   2.325
 4945W        W73350  10.834  40.467   4.856
 4946W        W73351  18.171  13.843   3.405
 4947W        W73352  26.964  21.736  14.942
 4948W        W73353  42.407  19.524   1.756
 4949W        W73354  39.543  16.162  10.420
 4950W        W73355   5.438  38.140   1.439
 4951W        W73356  18.788  35.368  14.795
 4952W        W73357  36.505   6.871   3.686
 4953W        W73358  33.629  33.314  12.775
 4954W        W73359  22.503  25.524  12.666
 4955W        W73360  24.484  26.454  12.075
 4956W        W73361  44.833  14.556  10.714
 4957W        W73362  40.572  25.131  14.529
 4958W        W73363  19.763  32.050   0.216
 4959W        W73364  37.877  44.199  13.167
 4960W        W73365  11.617  14.190  10.560
 4961W        W73366  26.395  23.506   2.660
 4962W        W73367  14.121  31.156  14.696
 4963W        W73368   7.224  43.917  12.142
 4964W        W73369  14.632  21.085   4.142
 4965W        W73370  22.020  22.854  12.161
 4966W        W73371  29.967  28.977  11.929
 4967W        W73372  10.758  34.291   2.981
 4968W        W73373  14.623  14.778   4.876
 4969W        W73374   5.380  12.738   4.561
 4970W        W73375  22.191  26.431   3.813
 4971W        W73376   5.240  38.579  11.873
 4972W        W73377  11.382  16.254   0.640
 4973W        W73378  12.559  22.073   2.856
 4974W        W73379  37.346  19.954   0.048
 4975W        W73380   3.288  32.522   4.590
 4976W        W73381  26.430  14.859  10.721
 4977W        W73382  20.290  29.979  12.845
 4978W        W73383  21.072  44.048  12.336
 4979W        W73384   0.319  16.847  12.908
 4980W        W73385  26.149  11.203   1.173
 4981W        W73386   1.198  37.026  10.561
 4982W        W73387  40.331  15.083   0.953
 4983W        W73388  12.724   5.341  12.488
 4984W        W73389  16.873   9.753   3.074
 4985W        W73390  18.573  22.183   4.413
 4986W        W73391  24.285  12.829   3.623
 4987W        W73392  17.342  17.264  10.755
 4988W        W73393  13.789   4.809   0.153
 4989W        W73394  22.839  30.013  12.251
 4990W        W73395  42.956  30.350  12.077
 4991W        W73396  21.530  23.845   3.991
 4992W        W73397   5.247   0.468   0.475
 4993W        W73398  30.850   7.134   4.063
 4994W        W73399  27.379   1.768   4.636
 4995W        W73400  42.821   4.235  11.625
 4996W        W73401  15.366  17.683  12.006
 4997W        W73402  14.552   7.215   4.625
 4998W        W73403  25.668   7.431   1.859
 4999W        W73404  31.902  43.255  13.838
 5000W        W73405   7.380  22.280  12.926
 5001W        W73406  39.483  20.962  11.177
 5002W        W73407  17.671  24.006  14.169
 5003W        W73408  28.193   1.809   1.849
 5004W        W73409  28.192  12.465  14.338
 5005W        W73410  35.660  34.197  12.678
 5006W        W73411  13.355   2.191   3.603
 5007W        W73412  25.210   7.751   0.213
 5008W        W73413   3.322  11.100  13.544
 5009W        W73414  42.794   5.826   2.607
 5010W        W73415  34.180  22.070  11.096
 5011W        W73416   1.276   0.248  12.822
 5012W        W73417   0.349  28.121   0.322
 5013W        W73418  36.381  31.501   3.231
 5014W        W73419   8.449   1.341  12.116
 5015W        W73420   4.759  10.852  12.581
 5016W        W73421  41.466   8.112   4.015
 5017W        W73422  36.566  37.960  13.945
 5018W        W73423  13.235  22.613  11.731
 5019W        W73424  16.369  36.904   1.915
 5020W        W73425  13.831  23.628   2.721
 5021W        W73426  11.203  16.098   2.157
 5022W        W73427   7.618  40.936   2.854
 5023W        W73428  42.422  42.855  12.324
 5024W        W73429  43.881   2.279  12.881
 5025W        W73430   2.135  25.565   3.855
 5026W        W73431   3.844   0.902   3.261
 5027W        W73432  41.034  44.812   4.134
 5028W        W73433  23.648   9.839   4.145
 5029W        W73434   5.631  39.634   1.263
 5030W        W73435   6.207  34.134   2.738
 5031W        W73436  31.813  41.286  11.907
 5032W        W73437  30.131  15.079  13.999
 5033W        W73438   7.015  24.681  12.302
 5034W        W73439  27.411  32.479  12.671
 5035W        W73440  20.256  37.519  10.301
 5036W        W73441  29.620  30.829   4.546
 5037W        W73442   5.619   5.997   0.236
 5038W        W73443  16.702   9.681  10.981
 5039W        W73444   0.676  39.580  12.617
 5040W        W73445  24.581  19.977  13.413
 5041W        W73446  44.248   2.244  10.671
 5042W        W73447   1.786  42.433  13.548
 5043W        W73448   9.849  39.913  13.061
 5044W        W73449  25.758  30.445   1.780
 5045W        W73450  19.729   7.934  14.043
 5046W        W73451  37.401  41.023  11.451
 5047W        W73452  30.030  21.539  12.163
 5048W        W73453  11.787  17.391   3.459
 5049W        W73454  29.150  34.944   3.060
 5050W        W73455  17.324  21.206   2.157
 5051W        W73456  30.351  16.314  10.458
 5052W        W73457  36.551  26.551   2.909
 5053W        W73458  36.300  19.591   2.869
 5054W        W73459   8.326   4.498   2.686
 5055W        W73460  31.318  34.819   2.634
 5056W        W73461  34.951  39.814   3.636
 5057W        W73462  44.025  36.842  12.381
 5058W        W73463  32.979  17.077   1.021
 5059W        W73464  11.679  29.518   0.714
 5060W        W73465  20.689   8.818  11.220
 5061W        W73466  16.445   1.020   4.195
 5062W        W73467  17.183   0.038  13.978
 5063W        W73468   1.044   3.522  11.171
 5064W        W73469  34.246   0.481   1.244
 5065W        W73470  31.590   9.490   0.320
 5066W        W73471   8.127  40.809  14.835
 5067W        W73472  28.433  12.833   4.838
 5068W        W73473  20.177  32.897  12.832
 5069W        W73474  17.002   1.765  14.366
 5070W        W73475  31.095  10.221   4.150
 5071W        W73476  32.957  14.538   0.098
 5072W        W73477   2.768  30.418   4.271
 5073W        W73478  19.794   0.864  13.297
 5074W        W73479  36.329  23.981   1.994
 5075W        W73480  44.139  13.331  12.473
 5076W        W73481   4.293   9.581  11.581
 5077W        W73482   6.233  25.947   4.586
 5078W        W73483  24.993  15.162   2.889
 5079W        W73484  33.739  39.145   4.075
 5080W        W73485  18.616  24.028   2.914
 5081W        W73486  34.058   1.527   3.646
 5082W        W73487  33.676  41.253  11.682
 5083W        W73488  20.321   0.509   3.732
 5084W        W73489   9.760  25.714  13.534
 5085W        W73490  43.848  39.238  11.602
 5086W        W73491  18.333   4.691   2.135
 5087W        W73492  44.323  22.553  13.316
 5088W        W73493  22.099  19.635   1.265
 5089W        W73494  38.700   7.436  14.368
 5090W        W73495  37.823   6.376  13.421
 5091W        W73496  40.363  28.251  11.553
 5092W        W73497  27.595  26.701   4.175
 5093W        W73498  22.840  39.843   1.028
 5094W        W73499  14.679  44.019  13.328
 5095W        W73500  37.164  30.051  11.515
 5096W        W73501  35.289  17.887   5.305
 5097W        W73502   2.007  15.791   0.454
 5098W        W73503  37.036  19.071   0.475
 5099W        W73504  19.191   2.227   0.800
 5100W        W73505  38.965  35.167  13.586
 5101W        W73506  31.393  19.806  14.992
 5102W        W73507   4.584  26.035  10.986
 5103W        W73508  17.929  11.382   3.241
 5104W        W73509  24.196  15.324  13.469
 5105W        W73510   9.210   1.484  11.154
 5106W        W73511   5.167  43.527  13.494
 5107W        W73512  16.479  36.923   4.934
 5108W        W73513  30.259  29.071   2.596
 5109W        W73514  12.621  41.988   3.732
 5110W        W73515  44.796  37.384   0.283
 5111W        W73516  30.121  22.747   3.283
 5112W        W73517  35.235  35.478  11.357
 5113W        W73518  27.170  33.937   1.286
 5114W        W73519  12.698  35.529   4.019
 5115W        W73520   9.063  31.246   2.688
 5116W        W73521  33.492  12.209  13.599
 5117W        W73522   7.857   8.676   1.943
 5118W        W73523  19.393   2.778   3.635
 5119W        W73524  41.744  12.223  11.198
 5120W        W73525   3.397  18.114  12.975
 5121W        W73526   7.272  44.903   0.950
 5122W        W73527  35.729  16.534  11.633
 5123W        W73528   6.848  17.364  14.830
 5124W        W73529  14.686  28.369  14.887
 5125W        W73530   0.448  34.742   0.670
 5126W        W73531  40.700  39.683   1.375
 5127W        W73532  26.039  25.624  14.985
 5128W        W73533  11.762   0.428  13.034
 5129W        W73534   6.866  39.464   1.776
 5130W        W73535  19.623  30.082   1.442
 5131W        W73536  36.006  20.670   4.123
 5132W        W73537   9.482  35.245  11.162
 5133W        W73538  24.249  23.595  14.338
 5134W        W73539  19.203  31.657  11.419
 5135W        W73540  15.965   2.789   4.142
 5136W        W73541  14.305  27.207   1.852
 5137W        W73542  15.643  29.442   4.828
 5138W        W73543  25.795  38.804   1.664
 5139W        W73544  35.588   2.498   2.257
 5140W        W73545  16.061  30.023   1.589
 5141W        W73546  33.129  42.343  10.771
 5142W        W73547  23.163  26.583  12.792
 5143W        W73548  35.900   4.672  11.871
 5144W        W73549  21.673  11.476   4.879
 5145W        W73550  38.003  27.965  12.059
 5146W        W73551  34.339  22.290   1.732
 5147W        W73552  33.524  35.556  11.967
 5148W        W73553  28.557  17.690  10.370
 5149W        W73554  22.778   2.778   1.648
 5150W        W73555  31.584  36.585   4.332
 5151W        W73556  15.466  40.863  13.717
 5152W        W73557   4.472   6.975  11.953
 5153W        W73558  26.941  26.101   3.380
 5154W        W73559   3.409  42.864   4.982
 5155W        W73560  43.915   5.456  11.686
 5156W        W73561  27.151  21.816  12.121
 5157W        W73562  28.393  21.262   0.036
 5158W        W73563  19.172  25.073   2.376
 5159W        W73564  28.655  24.055   0.426
 5160W        W73565  13.730  43.312  10.598
 5161W        W73566  20.841  10.561   3.303
 5162W        W73567  15.424  40.056   5.028
 5163W        W73568  39.554  29.583   1.886
 5164W        W73569  11.826  31.681   1.262
 5165W        W73570  27.161   6.261   4.531
 5166W        W73571  17.126  37.526  14.923
 5167W        W73572  41.510  27.986   3.272
 5168W        W73573  25.876  21.605  11.119
 5169W        W73574  34.083   0.227  12.499
 5170W        W73575  22.100  20.617   0.390
 5171W        W73576  16.539  15.534  13.421
 5172W        W73577  34.303  12.637  11.700
 5173W        W73578  23.119  32.951  12.877
 5174W        W73579  18.474  17.365  13.841
 5175W        W73580  19.095  40.811  12.495
 5176W        W73581  35.827   9.188   0.358
 5177W        W73582  34.782  28.002  14.331
 5178W        W73583   4.218  36.530   3.736
 5179W        W73584  17.480   1.232   1.938
 5180W        W73585  18.024  18.960   1.555
 5181W        W73586   1.102   5.344  14.959
 5182W        W73587  27.075  38.619   0.921
 5183W        W73588  42.827  17.041   4.117
 5184W        W73589  25.946  12.987  11.926
 5185W        W73590   8.707   3.972  10.791
 5186W        W73591  18.456  26.698   2.428
 5187W        W73592  35.292  22.618   2.661
 5188W        W73593  37.455  19.225  13.982
 5189W        W73594   5.830  31.051  10.752
 5190W        W73595  37.831  10.685  13.830
 5191W        W73596   5.258  33.032   4.588
 5192W        W73597  36.976  13.391  12.050
 5193W        W73598  43.797   1.350   2.130
 5194W        W73599   3.055  22.637  14.703
 5195W        W73600  17.751  26.453  14.909
 5196W        W73601  28.995  33.585   3.652
 5197W        W73602  34.496  23.227   0.344
 5198W        W73603   0.421  32.731   3.153
 5199W        W73604  22.002  29.970   0.321
 5200W        W73605  38.515  42.183  13.367
 5201W        W73606  39.184  43.941  12.412
 5202W        W73607  42.830  40.019   4.111
 5203W        W73608  16.102  36.906   2.802
 5204W        W73609  24.584  39.496   3.071
 5205W        W73610  30.674  13.611  13.391
 5206W        W73611  23.647  19.258  14.975
 5207W        W73612  32.510  36.945  14.415
 5208W        W73613  11.255  26.105  13.598
 5209W        W73614   0.405  27.259   3.462
 5210W        W73615  44.853  44.184   2.900
 5211W        W73616  15.070  24.744  12.299
 5212W        W73617  22.186  13.871  13.798
 5213W        W73618  12.252  39.092  14.998
 5214W        W73619  26.166  24.989   1.854
 5215W        W73620   7.229  15.369   3.800
 5216W        W73621  12.411  27.542  14.433
 5217W        W73622  23.590  12.462   2.329
 5218W        W73623  13.096  27.120  10.638
 5219W        W73624  23.118  19.004  11.908
 5220W        W73625  37.939  12.381  12.671
 5221W        W73626   0.237  42.467  10.515
 5222W        W73627  19.096  13.235  11.629
 5223W        W73628  28.731   0.709   3.378
 5224W        W73629  19.807  15.691  13.375
 5225W        W73630   5.854  39.764   3.663
 5226W        W73631  43.260  33.860  13.104
 5227W        W73632  18.397  19.625   0.868
 5228W        W73633  28.063  35.370   0.524
 5229W        W73634  36.153  39.858   2.341
 5230W        W73635  16.739  28.022  12.964
 5231W        W73636  15.702   7.413   5.169
 5232W        W73637   6.324  30.401   4.565
 5233W        W73638  36.089  40.973   4.157
 5234W        W73639   4.014  44.982   4.157
 5235W        W73640  28.480  32.489  10.619
 5236W        W73641  20.188  40.810  13.376
 5237W        W73642   6.092   9.670   4.075
 5238W        W73643  13.711  16.577  10.775
 5239W        W73644  18.291  27.925   4.453
 5240W        W73645  18.680   1.453  11.581
 5241W        W73646   6.827   5.482  11.661
 5242W        W73647   6.358  37.408   2.736
 5243W        W73648   6.767  27.691   3.954
 5244W        W73649  33.128  24.980  14.734
 5245W        W73650  21.603  39.312   0.101
 5246W        W73651  14.692   4.861  10.974
 5247W        W73652  31.309   5.220   4.508
 5248W        W73653   9.764  31.028   2.253
 5249W        W73654  11.048   2.825  12.508
 5250W        W73655  29.084   1.969   3.262
 5251W        W73656  38.343  42.649   2.286
 5252W        W73657  12.184  30.290   0.764
 5253W        W73658  38.362  28.694  10.992
 5254W        W73659  26.650  31.154  13.723
 5255W        W73660  40.555  40.077  11.115
 5256W        W73661   7.178  42.074   1.292
 5257W        W73662  29.982   7.629   4.269
 5258W        W73663  14.158  16.788   4.485
 5259W        W73664   7.173  44.820  12.708
 5260W        W73665   3.994  39.222  13.939
 5261W        W73666  22.130   6.755  14.233
 5262W        W73667  39.884  24.728  12.983
 5263W        W73668   8.177   1.874   1.986
 5264W        W73669  34.627  38.108  13.340
 5265W        W73670  14.645  24.545   0.576
 5266W        W73671   8.607   6.708  11.285
 5267W        W73672  12.841  33.115   0.368
 5268W        W73673   3.520  33.949   2.469
 5269W        W73674  25.599  12.784   1.223
 5270W        W73675  19.537  22.678  14.419
 5271W        W73676  40.889  41.514  14.881
 5272W        W73677  18.677  27.505  13.092
 5273W        W73678  10.658  28.445  12.049
 5274W        W73679  33.091  39.001  13.827
 5275W        W73680   6.713  14.632   2.850
 5276W        W73681   7.372  18.720   3.181
 5277W        W73682  20.361  39.342   0.600
 5278W        W73683  37.870  27.756  12.522
 5279W        W73684  23.383  11.878  12.822
 5280W        W73685  31.000  22.445   2.250
 5281W        W73686   5.101   8.213  13.267
 5282W        W73687  21.368   0.785  13.534
 5283W        W73688  14.999  41.424   3.177
 5284W        W73689   1.703  40.550   0.904
 5285W        W73690  35.159  21.629  13.315
 5286W        W73691  44.505  20.190  14.982
 5287W        W73692  41.218   1.958  13.394
 5288W        W73693  26.687  38.287   2.637
 5289W        W73694  15.651  33.387   3.687
 5290W        W73695  13.913  10.364   0.864
 5291W        W73696  20.558   2.238  10.452
 5292W        W73697  17.294  35.547  13.020
 5293W        W73698  44.531  11.624  14.608
 5294W        W73699  28.536  27.518   0.230
 5295W        W73700  29.522  33.476   2.947
 5296W        W73701  29.188  36.616  13.169
 5297W        W73702  31.314  43.746  13.635
 5298W        W73703   9.333  12.409   2.972
 5299W        W73704   1.496  15.973  11.927
 5300W        W73705  38.424  14.972   0.657
 5301W        W73706  37.846  12.636  11.963
 5302W        W73707  21.030  10.222  13.885
 5303W        W73708   0.314  16.750   3.601
 5304W        W73709  44.731  38.366   1.453
 5305W        W73710   7.583  38.956  14.010
 5306W        W73711  40.717  22.369   2.677
 5307W        W73712   0.793  12.997   1.587
 5308W        W73713  30.744  27.877   2.344
 5309W        W73714  19.223  34.453   0.659
 5310W        W73715   2.025  31.078  14.835
 5311W        W73716  28.724  33.220   3.397
 5312W        W73717  32.438   4.205  12.576
 5313W        W73718   4.765  34.133   2.844
 5314W        W73719  13.170   8.433   2.777
 5315W        W73720  35.027  11.812   2.274
 5316W        W73721  42.380  32.780   2.711
 5317W        W73722  26.259  33.875   2.876
 5318W        W73723  44.244  19.239  11.565
 5319W        W73724  19.256  19.732   1.356
 5320W        W73725   6.217  17.078   2.872
 5321W        W73726  44.398   1.000  14.235
 5322W        W73727  18.538  44.327  14.289
 5323W        W73728   6.185  37.825   4.660
 5324W        W73729  10.741  18.281  10.957
 5325W        W73730  11.220  19.132   0.852
 5326W        W73731  20.495   5.379  13.048
 5327W        W73732  38.596  28.480  14.902
 5328W        W73733  28.117  42.593  10.770
 5329W        W73734  42.952  40.234  12.865
 5330W        W73735  15.323  36.769  12.348
 5331W        W73736  34.016   0.456  11.972
 5332W        W73737   6.823  27.150  13.549
 5333W        W73738  24.512  27.420  12.136
 5334W        W73739  14.495  35.497   4.076
 5335W        W73740  14.757  13.924   0.824
 5336W        W73741  30.612   3.986   4.600
 5337W        W73742  34.626  20.198   2.790
 5338W        W73743  13.663  19.454  13.914
 5339W        W73744   2.640   1.812  13.488
 5340W        W73745  35.910  25.102   4.657
 5341W        W73746  10.246   6.858   1.155
 5342W        W73747  23.504  13.219   2.793
 5343W        W73748  24.030  25.852   2.456
 5344W        W73749  14.702  28.386   3.326
 5345W        W73750   3.176  32.311  12.243
 5346W        W73751   3.913  44.937  10.682
 5347W        W73752   3.407  44.743   1.287
 5348W        W73753  37.001   6.984  11.559
 5349W        W73754  34.826  44.107   4.694
 5350W        W73755  17.548   5.710  14.860
 5351W        W73756   2.987  38.319  12.281
 5352W        W73757  14.260  18.349   2.838
 5353W        W73758  41.893  30.062   3.880
 5354W        W73759  30.020  29.056  13.064
 5355W        W73760  40.437   6.807  10.753
 5356W        W73761   1.047  29.556  13.381
 5357W        W73762  43.540  26.987  13.507
 5358W        W73763  19.855  26.988   3.625
 5359W        W73764  30.709  34.569   0.685
 5360W        W73765  39.133  41.618  12.536
 5361W        W73766  37.531  38.566   1.952
 5362W        W73767  24.530   9.440  14.791
 5363W        W73768  32.610  33.807  10.631
 5364W        W73769  13.789  24.548  13.511
 5365W        W73770  21.498   2.068  11.716
 5366W        W73771  34.815   4.370  11.080
 5367W        W73772  36.618   9.198   3.058
 5368W        W73773   4.408   5.903   0.787
 5369W        W73774  25.057  11.692  11.729
 5370W        W73775  34.301   5.196  14.273
 5371W        W73776  28.718  32.434   3.012
 5372W        W73777   7.428  33.101  12.389
 5373W        W73778   2.713   7.793   2.847
 5374W        W73779  15.225  22.811   3.228
 5375W        W73780  24.126  19.110  10.539
 5376W        W73781   6.862  26.154  10.755
 5377W        W73782  37.029  17.288   4.795
 5378W        W73783  41.309  14.218   4.076
 5379W        W73784  22.936   1.031   2.851
 5380W        W73785  44.144   1.743  11.151
 5381W        W73786  42.740   5.500  13.347
 5382W        W73787  14.523  21.078   2.908
 5383W        W73788  27.578   6.275  11.535
 5384W        W73789   6.026   2.223  13.456
 5385W        W73790  34.539   0.221  10.706
 5386W        W73791  16.289  12.631   1.236
 5387W        W73792  24.363  32.440  12.077
 5388W        W73793  35.549  40.867  12.096
 5389W        W73794  40.035  12.198  14.801
 5390W        W73795  11.302  16.950  12.537
 5391W        W73796  32.712  39.172   1.781
 5392W        W73797  22.266  29.551  11.562
 5393W        W73798  19.248  25.801   2.917
 5394W        W73799  14.110  34.976   1.179
 5395W        W73800   1.504  39.840  12.502
 5396W        W73801  38.915  20.655  13.004
 5397W        W73802   4.271  39.247   4.304
 5398W        W73803   6.935  36.327   0.908
 5399W        W73804  10.184   9.456  14.403
 5400W        W73805  16.502  28.132  11.250
 5401W        W73806   7.192  18.592   2.683
 5402W        W73807  19.461  26.223   0.944
 5403W        W73808  27.997  15.977   1.239
 5404W        W73809  34.051  10.902  14.998
 5405W        W73810  22.724  26.718  10.296
 5406W        W73811  21.203  41.095  13.976
 5407W        W73812  40.840  23.369   2.593
 5408W        W73813  39.469   8.703   0.736
 5409W        W73814  26.520  15.077   4.061
 5410W        W73815  22.015  25.448  13.425
 5411W        W73816  16.577  41.075  13.036
 5412W        W73817  20.536  34.114   0.050
 5413W        W73818  35.066  29.878   2.573
 5414W        W73819   3.793  32.643  12.984
 5415W        W73820  11.926  40.621   3.149
 5416W        W73821   6.342  18.355  11.986
 5417W        W73822  10.894  43.384   1.299
 5418W        W73823  22.668  43.359   0.506
 5419W        W73824  33.398  15.265  11.675
 5420W        W73825  25.034  23.797   4.560
 5421W        W73826  37.493  31.891  10.858
 5422W        W73827  35.614  11.294   1.847
 5423W        W73828  40.467   9.398   0.262
 5424W        W73829  36.019   2.491  13.481
 5425W        W73830   0.296  19.710   0.416
 5426W        W73831  25.044  40.007  12.420
 5427W        W73832  32.008  18.182  10.656
 5428W        W73833  32.893  17.569  12.810
 5429W        W73834  35.189  41.546  13.367
 5430W        W73835  19.287  30.141   2.748
 5431W        W73836  24.310  15.973  11.149
 5432W        W73837  33.142  16.107  10.686
 5433W        W73838   6.620  12.682  11.166
 5434W        W73839  23.670  26.559  13.842
 5435W        W73840   9.423  22.776   2.835
 5436W        W73841  19.210  24.110  13.345
 5437W        W73842  31.172  43.525  10.679
 5438W        W73843  28.167  36.587   3.735
 5439W        W73844  18.595   1.355   2.751
 5440W        W73845  19.383  32.816  10.942
 5441W        W73846  32.399  10.175  13.005
 5442W        W73847  41.719  31.731   3.599
 5443W        W73848  20.565  11.365  10.996
 5444W        W73849  22.335  19.028   4.105
 5445W        W73850  37.003  28.522  13.333
 5446W        W73851  16.191   5.888   3.394
 5447W        W73852  28.605  26.423   0.663
 5448W        W73853  35.807  15.249   3.572
 5449W        W73854  27.464  13.451   4.224
 5450W        W73855  24.233  33.225   3.677
 5451W        W73856  22.938  16.406   4.060
 5452W        W73857  30.377   5.283   4.326
 5453W        W73858   5.837  29.903  11.217
 5454W        W73859  11.834  32.420  11.138
 5455W        W73860   6.895  26.105   3.613
 5456W        W73861  24.154  30.124   1.269
 5457W        W73862  42.940  38.614   0.310
 5458W        W73863  26.455  12.703  13.041
 5459W        W73864   5.476  15.215  11.643
 5460W        W73865  14.364  16.163   0.999
 5461W        W73866  31.576  15.084  11.066
 5462W        W73867  23.858  38.583   0.547
 5463W        W73868   9.764  33.481   4.401
 5464W        W73869  12.711  28.404   3.934
 5465W        W73870   5.725  24.236  14.051
 5466W        W73871  25.495  21.400  12.879
 5467W        W73872  29.600   4.950  13.029
 5468W        W73873  16.488  28.312  12.527
 5469W        W73874   8.324  11.239   0.014
 5470W        W73875   6.871  18.863  13.004
 5471W        W73876  33.175  31.089   2.280
 5472W        W73877  34.968  21.088   3.720
 5473W        W73878  24.486  21.650  14.017
 5474W        W73879  19.991  37.547  13.573
 5475W        W73880  20.751  19.610   0.950
 5476W        W73881  29.945  28.347   2.369
 5477W        W73882  21.771  26.497  12.495
 5478W        W73883  38.818  25.626  13.554
 5479W        W73884   3.285   6.108   1.244
 5480W        W73885   5.798  29.071   3.233
 5481W        W73886  38.119  23.727   0.184
 5482W        W73887   7.569  32.085  14.428
 5483W        W73888  39.068  36.191  11.670
 5484W        W73889  18.343  23.288  12.529
 5485W        W73890  40.264  11.199  11.111
 5486W        W73891  38.704  33.871   0.328
 5487W        W73892  43.240  19.123   2.685
 5488W        W73893  20.121  22.718  10.583
 5489W        W73894  28.066  26.170  14.778
 5490W        W73895  22.718  33.810   2.330
 5491W        W73896   7.415  40.953   3.355
 5492W        W73897  21.521  35.822  11.456
 5493W        W73898   2.587  21.787  14.970
 5494W        W73899  15.242  17.122  14.813
 5495W        W73900   3.519   0.233  14.913
 5496W        W73901  19.784  19.827  10.644
 5497W        W73902   7.855  23.697   4.827
 5498W        W73903  13.203  17.680  12.491
 5499W        W73904  24.959  24.579  12.483
 5500W        W73905  31.982  20.587   3.885
 5501W        W73906   1.707  42.052   1.264
 5502W        W73907   3.474  36.808  11.890
 5503W        W73908  12.737  18.159  13.051
 5504W        W73909  11.526  44.942  14.742
 5505W        W73910  22.645  23.957   4.539
 5506W        W73911  36.772  17.914   2.219
 5507W        W73912  35.503  20.558   4.153
 5508W        W73913  40.245  15.570   1.164
 5509W        W73914   1.649  38.357  11.680
 5510W        W73915  33.314  21.351   0.730
 5511W        W73916  30.825   4.006  13.218
 5512W        W73917  10.883  43.262   4.285
 5513W        W73918  21.988  19.233   2.504
 5514W        W73919  33.903   1.345  11.868
 5515W        W73920  15.243  43.292   0.001
 5516W        W73921  20.051  18.585   4.263
 5517W        W73922   1.302  26.025  11.135
 5518W        W73923   7.297  15.475   2.848
 5519W        W73924  22.291   7.034   4.271
 5520W        W73925  41.741  14.646   1.268
 5521W        W73926  34.523  35.581   4.418
 5522W        W73927   0.907  22.166   1.950
 5523W        W73928   1.507  29.882  14.020
 5524W        W73929  20.715  10.745   2.359
 5525W        W73930  27.978  40.295  11.188
 5526W        W73931   3.364  28.170   4.012
 5527W        W73932  15.056   1.260  11.572
 5528W        W73933  13.880  33.091  11.108
 5529W        W73934  25.700  13.326  11.618
 5530W        W73935   0.216   2.828  13.846
 5531W        W73936  36.364  17.609   4.344
 5532W        W73937  19.782  15.800   0.312
 5533W        W73938  26.043  37.405  13.515
 5534W        W73939  39.323  30.961  11.073
 5535W        W73940  25.122  41.387   0.101
 5536W        W73941   4.968  44.829   1.295
 5537W        W73942  22.471  22.897   4.825
 5538W        W73943  41.586  17.490  13.148
 5539W        W73944  13.412  38.088   1.759
 5540W        W73945   7.218  40.273  10.642
 5541W        W73946  20.321  23.108  14.366
 5542W        W73947  12.803  22.643  14.007
 5543W        W73948  40.860   0.773  10.441
 5544W        W73949  32.429  25.201  12.426
 5545W        W73950  32.120   6.128   0.613
 5546W        W73951  27.165  19.517   3.576
 5547W        W73952  42.798  26.413   0.025
 5548W        W73953  20.729  20.139  11.540
 5549W        W73954  27.284  25.252   0.367
 5550W        W73955   8.655  28.229  11.164
 5551W        W73956  12.075   5.889  11.042
 5552W        W73957  39.558  31.731  11.517
 5553W        W73958  18.679  32.167  12.974
 5554W        W73959  29.468   0.955  11.985
 5555W        W73960  29.451  21.683   2.243
 5556W        W73961  38.579   6.941  14.485
 5557W        W73962  39.146  37.962  11.976
 5558W        W73963  18.761  12.078   4.108
 5559W        W73964   7.709  43.282   0.772
 5560W        W73965   9.075  30.735  11.623
 5561W        W73966   2.144   3.362  12.483
 5562W        W73967  14.169  23.706   0.203
 5563W        W73968  35.861  39.551  10.718
 5564W        W73969  26.382  30.909   3.673
 5565W        W73970  21.470  17.476  14.994
 5566W        W73971   7.995  13.137   2.828
 5567W        W73972   0.802  15.568  10.869
 5568W        W73973  32.296  33.413  14.515
 5569W        W73974  36.057  36.154  12.122
 5570W        W73975  38.939  19.667  13.464
 5571W        W73976  38.846   4.765  11.196
 5572W        W73977  40.340   7.615  11.779
 5573W        W73978   0.368  14.507   3.746
 5574W        W73979   6.111   9.138  11.920
 5575W        W73980  29.423  36.898  11.503
 5576W        W73981  35.562  14.432   2.597
 5577W        W73982   0.444  43.986   2.178
 5578W        W73983  23.324  44.153  14.876
 5579W        W73984  11.150   0.482   1.290
 5580W        W73985  31.759   0.325  12.848
 5581W        W73986   8.797  36.046   2.882
 5582W        W73987   3.318  10.238  13.169
 5583W        W73988  40.347  17.097  13.114
 5584W        W73989  40.215  13.665  11.631
 5585W        W73990  29.084  38.802  12.005
 5586W        W73991   0.456  15.705  11.228
 5587W        W73992  13.203  40.088   2.766
 5588W        W73993  16.801  42.485   2.101
 5589W        W73994   4.878  15.526  13.566
 5590W        W73995   1.609   8.200  11.984
 5591W        W73996  14.547  21.168  12.831
 5592W        W73997   1.452   7.110   4.199
 5593W        W73998  37.081  32.041   4.119
 5594W        W73999  11.785  23.068  10.687
 5595W        W74000  36.553   6.127   3.411
 5596W        W74001  24.684  16.276   4.500
 5597W        W74002  39.330  10.611  14.947
 5598W        W74003   8.667  42.920   4.147
 5599W        W74004   2.799  15.853  11.174
 5600W        W74005   8.468  10.284  13.427
 5601W        W74006   4.481   6.727   0.313
 5602W        W74007  10.531  24.247  12.567
 5603W        W74008   8.298   6.241   1.889
 5604W        W74009   5.478  41.800   0.885
 5605W        W74010  19.526  10.676   2.892
 5606W        W74011  35.794  20.837   3.221
 5607W        W74012  43.208  39.010  13.336
 5608W        W74013  21.963  10.707  14.482
 5609W        W74014  20.509  11.408  12.415
 5610W        W74015   3.967  43.393  14.497
 5611W        W74016   1.826  36.390  14.494
 5612W        W74017  35.848  25.495  14.487
 5613W        W74018  14.248  35.699   3.644
 5614W        W74019  27.929   6.799  14.233
 5615W        W74020  37.623   7.500   3.771
 5616W        W74021  38.787  35.089   5.105
 5617W        W74022  12.816   4.244   3.307
 5618W        W74023  33.471  34.012   1.614
 5619W        W74024  35.463  36.385   4.301
 5620W        W74025   1.377   4.292  11.409
 5621W        W74026  23.269  30.519  12.862
 5622W        W74027  14.697  31.016  13.016
 5623W        W74028  26.774  22.133  12.892
 5624W        W74029  23.231   4.507  14.068
 5625W        W74030  40.966  37.673  12.002
 5626W        W74031  35.339  39.109   4.238
 5627W        W74032   2.589   8.856   5.123
 5628W        W74033  18.083  25.700  11.650
 5629W        W74034   6.951  12.756  12.040
 5630W        W74035   8.220  38.373   5.006
 5631W        W74036   7.857  37.425  13.342
 5632W        W74037  16.503   4.398  14.371
 5633W        W74038  19.129  11.874  11.997
 5634W        W74039  15.599  39.433   2.339
 5635W        W74040  27.521  41.796   0.780
 5636W        W74041  18.592  34.932   1.623
 5637W        W74042  42.534  37.628   2.772
 5638W        W74043  20.694  27.521   4.813
 5639W        W74044  19.771   1.829  14.467
 5640W        W74045  41.919  17.000  11.980
 5641W        W74046  23.137  23.211  13.352
 5642W        W74047   1.261   3.834  14.383
 5643W        W74048   7.769   6.768   1.972
 5644W        W74049  28.793  23.502  12.542
 5645W        W74050  14.724  43.906   0.394
 5646W        W74051  21.795  25.194  14.759
 5647W        W74052  13.398  36.595   4.099
 5648W        W74053   6.463   2.837  12.894
 5649W        W74054  10.365  25.653   1.351
 5650W        W74055   6.736  34.055   1.183
 5651W        W74056  26.805  29.403  10.694
 5652W        W74057  32.757   5.080   0.267
 5653W        W74058  29.266  32.030   0.054
 5654W        W74059  35.502  25.208   3.209
 5655W        W74060  24.092   4.985  10.308
 5656W        W74061  29.670  42.694   4.151
 5657W        W74062  38.336  24.701  14.290
 5658W        W74063  43.475  33.641  11.750
 5659W        W74064  23.131  15.742   1.425
 5660W        W74065  37.182  41.244  12.244
 5661W        W74066  38.679   6.825   0.518
 5662W        W74067  31.012  40.937  12.849
 5663W        W74068   5.931   0.074  14.330
 5664W        W74069  27.557  20.993   0.578
 5665W        W74070  29.093   8.190  12.642
 5666W        W74071  31.864  32.444  11.590
 5667W        W74072  23.647  36.567  13.004
 5668W        W74073  35.063  22.748  13.953
 5669W        W74074  21.172   9.099  14.505
 5670W        W74075  37.171   5.605   0.851
 5671W        W74076  10.612  33.646   4.511
 5672W        W74077  30.668   4.499   4.686
 5673W        W74078  18.285  39.261  11.989
 5674W        W74079  17.255   8.194  12.127
 5675W        W74080  19.037  27.174   4.328
 5676W        W74081  13.449  24.986   4.551
 5677W        W74082  17.819  35.316   2.210
 5678W        W74083  16.102   9.725   4.856
 5679W        W74084  23.085   1.408   1.146
 5680W        W74085  21.643  20.229  11.181
 5681W        W74086   3.311  33.611  12.552
 5682W        W74087  34.579  36.255   2.876
 5683W        W74088  34.015   5.428  11.891
 5684W        W74089  14.629  20.196  13.281
 5685W        W74090  35.519   5.071   4.661
 5686W        W74091  20.645  31.672  12.660
 5687W        W74092  33.283  22.500   2.582
 5688W        W74093  44.576  41.696   3.172
 5689W        W74094   4.303   6.162  14.652
 5690W        W74095  33.059  15.718  14.587
 5691W        W74096   2.394  20.854   0.288
 5692W        W74097  24.008  19.085   0.921
 5693W        W74098   3.697  31.861  10.304
 5694W        W74099  31.469   1.540   4.902
 5695W        W74100   1.796  29.593   3.899
 5696W        W74101  29.701   3.893  14.088
 5697W        W74102  39.029   5.534  13.515
 5698W        W74103  43.384  24.673  12.407
 5699W        W74104  31.608   5.207  14.219
 5700W        W74105  34.330  15.133   3.848
 5701W        W74106  40.869  37.484   2.948
 5702W        W74107  24.677  13.860   4.155
 5703W        W74108   0.369   5.115  14.269
 5704W        W74109  34.034  33.476   3.729
 5705W        W74110   3.865   6.723  11.386
 5706W        W74111  24.308   4.811  10.735
 5707W        W74112  27.896  16.268   0.826
 5708W        W74113  13.143  31.499  14.150
 5709W        W74114  24.960  21.009   1.695
 5710W        W74115  20.306  44.085   4.268
 5711W        W74116   6.440  37.814   2.320
 5712W        W74117   2.973  26.460  13.980
 5713W        W74118  41.796   1.477   0.777
 5714W        W74119  39.117  19.537   2.426
 5715W        W74120  25.986  40.385   1.296
 5716W        W74121  44.946  14.739  11.221
 5717W        W74122  24.576  31.726  14.295
 5718W        W74123  13.320  21.544   1.279
 5719W        W74124  13.837   4.768   4.289
 5720W        W74125  26.692  10.592  14.094
 5721W        W74126  30.678  44.356   1.470
 5722W        W74127   6.400  17.552   3.768
 5723W        W74128   1.982   2.998   3.691
 5724W        W74129  38.080  28.202  14.206
 5725W        W74130  21.434  32.493  10.900
 5726W        W74131  17.639   4.166  12.908
 5727W        W74132  38.353  26.784   2.668
 5728W        W74133  16.497  20.308  10.707
 5729W        W74134  24.576  40.876   3.245
 5730W        W74135   7.328   4.594  12.772
 5731W        W74136  34.017  42.718   1.196
 5732W        W74137  34.925  21.539  13.763
 5733W        W74138  18.293  44.947  14.092
 5734W        W74139  35.036  27.736  14.854
 5735W        W74140   7.947  38.505   1.887
 5736W        W74141  23.953  22.003   0.041
 5737W        W74142   8.810   6.723   4.567
 5738W        W74143   1.235  33.107   4.159
 5739W        W74144  37.860  19.770  12.879
 5740W        W74145  18.449  31.781  10.212
 5741W        W74146  39.879  10.178  10.656
 5742W        W74147   5.603   8.745  13.780
 5743W        W74148  37.322  25.430   2.283
 5744W        W74149   0.597  38.330  11.992
 5745W        W74150  20.259  37.994   2.729
 5746W        W74151  23.533  30.212  11.494
 5747W        W74152  26.435   7.817   1.824
 5748W        W74153  39.545  30.085  10.864
 5749W        W74154   6.391  31.966  10.991
 5750W        W74155   8.623   9.159   4.661
 5751W        W74156   3.522  32.466  13.947
 5752W        W74157  21.488   6.139  12.516
 5753W        W74158  16.209  16.326  12.574
 5754W        W74159  24.521  44.455   4.721
 5755W        W74160  22.604  32.440  12.830
 5756W        W74161  24.866  17.211  13.947
 5757W        W74162  21.106  35.666   4.172
 5758W        W74163  33.393   3.665   2.767
 5759W        W74164  13.139  14.112  13.838
 5760W        W74165  41.677   5.718   2.614
 5761W        W74166  29.301  44.200  13.110
 5762W        W74167  13.314  12.566   4.919
 5763W        W74168  42.482  35.841   1.916
 5764W        W74169  34.917  20.312  14.435
 5765W        W74170  43.408  14.463   0.490
 5766W        W74171  28.012  17.352  12.046
 5767W        W74172  18.322  32.533  10.592
 5768W        W74173  34.161  12.057   3.210
 5769W        W74174  33.356  44.318  13.348
 5770W        W74175  20.996  27.555  11.926
 5771W        W74176  34.571  40.525  10.594
 5772W        W74177  14.660  18.249   0.913
 5773W        W74178  33.363   2.260  14.025
 5774W        W74179  18.005   9.341   0.884
 5775W        W74180  13.323   6.357   5.175
 5776W        W74181  34.448  30.588   0.409
 5777W        W74182  28.141  31.509   4.623
 5778W        W74183  25.418  10.271  13.052
 5779W        W74184  42.234  22.574   1.760
 5780W        W74185  19.697  32.094  10.588
 5781W        W74186   1.912  44.422  10.697
 5782W        W74187  14.865  14.845  12.980
 5783W        W74188  19.926  37.565   0.786
 5784W        W74189  42.305   7.493   4.146
 5785W        W74190  40.763  22.532   4.414
 5786W        W74191  15.227  33.681   1.786
 5787W        W74192   6.467  13.002   0.296
 5788W        W74193  39.982  27.558  14.944
 5789W        W74194  11.121  26.643  13.063
 5790W        W74195  24.470  30.593  14.373
 5791W        W74196  15.494  10.807   0.055
 5792W        W74197  18.574  28.475  11.415
 5793W        W74198  16.373  13.328  13.567
 5794W        W74199  36.933  39.413   2.609
 5795W        W74200  36.098  17.595  13.459
 5796W        W74201  34.477  17.550  11.558
 5797W        W74202  42.274  35.504  11.151
 5798W        W74203  39.463  38.967  11.707
 5799W        W74204  18.695  27.615  12.041
 5800W        W74205  18.568  26.558  12.931
 5801W        W74206  24.728   3.250   1.487
 5802W        W74207  16.358  20.193   2.239
 5803W        W74208  11.111  16.671   3.584
 5804W        W74209   2.430  38.998  10.430
 5805W        W74210  39.727  26.693   4.969
 5806W        W74211  11.584  40.126   1.060
 5807W        W74212  33.436  34.964   0.458
 5808W        W74213   5.244   3.716   0.429
 5809W        W74214  35.878  33.599  14.439
 5810W        W74215   0.413  33.902   1.954
 5811W        W74216  27.720  12.280   3.672
 5812W        W74217   5.652   1.874  12.872
 5813W        W74218  37.242   2.858  10.199
 5814W        W74219  18.320  36.995  12.146
 5815W        W74220  13.613  35.153  12.432
 5816W        W74221  11.788  42.584  12.978
 5817W        W74222  28.909  32.045  11.535
 5818W        W74223  34.609  24.009  11.566
 5819W        W74224  34.532  33.940   3.407
 5820W        W74225  15.580  34.478   3.533
 5821W        W74226   5.338  42.577  11.513
 5822W        W74227  24.487  17.810  12.346
 5823W        W74228  23.699  43.766   2.879
 5824W        W74229   9.881  21.159  12.660
 5825W        W74230   4.034  14.805  14.430
 5826W        W74231  12.395  33.675  12.454
 5827W        W74232  12.182  37.384   2.712
 5828W        W74233   7.221  39.939  11.915
 5829W        W74234  24.511  39.008  12.490
 5830W        W74235  27.540   3.260  12.351
 5831W        W74236  34.269   2.690  13.759
 5832W        W74237  18.948  29.185  10.800
 5833W        W74238  40.949  27.783  12.596
 5834W        W74239   6.818  30.244  14.842
 5835W        W74240   9.334  34.556  14.936
 5836W        W74241  22.147  43.315   2.346
 5837W        W74242  23.641  21.714   3.785
 5838W        W74243  25.619  27.331   3.298
 5839W        W74244  13.590   7.908   1.217
 5840W        W74245   5.393  14.735  13.059
 5841W        W74246   0.034  34.822  13.972
 5842W        W74247  37.845  36.050   0.454
 5843W        W74248  15.614  31.209  12.854
 5844W        W74249  12.234  40.402  10.619
 5845W        W74250  36.530  26.325  13.972
 5846W        W74251  34.479  30.972  12.766
 5847W        W74252   4.348  30.414  13.817
 5848W        W74253  15.906  32.476  14.765
 5849W        W74254  40.968  12.949   0.088
 5850W        W74255  28.281  13.268   3.194
 5851W        W74256  41.515  14.908  11.355
 5852W        W74257  44.292  41.987   3.627
 5853W        W74258  26.185  25.733  12.425
 5854W        W74259   8.436  27.459  11.450
 5855W        W74260  33.692  14.281   1.854
 5856W        W74261  35.490   4.693   0.430
 5857W        W74262  19.164  18.546  12.902
 5858W        W74263   4.053  39.333  11.526
 5859W        W74264  28.062  40.550   3.798
 5860W        W74265   1.505  14.115   0.428
 5861W        W74266  44.331  30.899  11.600
 5862W        W74267  27.491  10.808   3.399
 5863W        W74268  40.399   8.231   4.705
 5864W        W74269  36.767  44.233   3.601
 5865W        W74270  15.835  42.331   2.713
 5866W        W74271  24.511  24.133  13.544
 5867W        W74272  40.577   5.009  11.106
 5868W        W74273  39.956  41.041   1.232
 5869W        W74274  27.642  42.871  11.371
 5870W        W74275  15.488  40.981  14.228
 5871W        W74276  10.534  30.570   2.386
 5872W        W74277  42.985  10.790   3.131
 5873W        W74278  40.418  12.845   3.055
 5874W        W74279  19.409  10.327   1.193
 5875W        W74280  33.425  20.664   1.030
 5876W        W74281   7.359  26.560   4.216
 5877W        W74282  11.509   1.883  11.692
 5878W        W74283  42.546  28.241   1.414
 5879W        W74284  30.603  32.553  14.541
 5880W        W74285  21.273   0.379  10.884
 5881W        W74286  41.942   3.206  11.548
 5882W        W74287  40.452  40.896   0.978
 5883W        W74288   2.423  10.831   4.900
 5884W        W74289   4.632  19.144  12.495
 5885W        W74290  25.015  34.065   3.219
 5886W        W74291  43.764  19.732  12.018
 5887W        W74292  25.638  39.347  10.628
 5888W        W74293  37.935  41.359  13.089
 5889W        W74294  42.864  37.556   0.255
 5890W        W74295  36.618  22.618  14.823
 5891W        W74296  14.932  44.234  11.047
 5892W        W74297  39.893  22.762  14.681
 5893W        W74298  29.767   7.856  10.617
 5894W        W74299   6.293   5.611  13.696
 5895W        W74300  12.076  22.127   2.209
 5896W        W74301  30.980  21.749  13.711
 5897W        W74302  19.648  27.897  13.527
 5898W        W74303  30.321  44.333  13.103
 5899W        W74304  43.927  30.628  12.274
 5900W        W74305  15.863  43.503  12.155
 5901W        W74306  28.328   5.911  12.205
 5902W        W74307   9.705  36.466  13.833
 5903W        W74308  36.482  44.295  10.488
 5904W        W74309  39.797  31.333   3.323
 5905W        W74310  35.368   8.979   0.212
 5906W        W74311  32.480  37.601   3.571
 5907W        W74312  28.791   6.653   1.941
 5908W        W74313  22.048   9.717  14.619
 5909W        W74314   0.381   0.364  14.915
 5910W        W74315   8.888  17.977   2.206
 5911W        W74316  37.580  38.875  13.072
 5912W        W74317  43.477  11.527  13.393
 5913W        W74318   9.960   7.720  13.368
 5914W        W74319  36.998  11.219  12.890
 5915W        W74320  42.519   5.206   1.811
 5916W        W74321  30.578   7.536  10.321
 5917W        W74322  16.754  21.213  14.469
 5918W        W74323  27.722  39.537   4.282
 5919W        W74324  39.017   2.868  14.046
 5920W        W74325  38.596  28.566  13.429
 5921W        W74326  20.568  33.667   4.176
 5922W        W74327  12.191  24.712  13.004
 5923W        W74328  20.699  21.036  11.654
 5924W        W74329  38.588  34.511   1.283
 5925W        W74330  26.484  14.157   0.072
 5926W        W74331  30.767   5.707  11.352
 5927W        W74332  44.499  16.903   4.760
 5928W        W74333  36.418  18.131   3.744
 5929W        W74334  44.431  35.301   1.741
 5930W        W74335  19.233  37.342  11.697
 5931W        W74336  17.069  21.270  11.717
 5932W        W74337  41.586   3.329   2.235
 5933W        W74338   9.553  21.992   0.936
 5934W        W74339  26.024  39.925   9.763
 5935W        W74340  11.715  37.037  14.975
 5936W        W74341  18.567  14.173   0.767
 5937W        W74342  40.015  10.947  14.229
 5938W        W74343  38.292  43.455   2.714
 5939W        W74344  43.354  11.332   1.699
 5940W        W74345   7.602  16.697  11.517
 5941W        W74346  18.072   2.373   3.741
 5942W        W74347  30.917  38.868   0.922
 5943W        W74348  24.231  20.030  10.682
 5944W        W74349  20.606  31.640   0.763
 5945W        W74350  43.754   8.401   1.359
 5946W        W74351  25.836  15.757   2.828
 5947W        W74352  36.520   2.722   1.708
 5948W        W74353  23.039  37.032  14.373
 5949W        W74354  27.589  34.425   0.353
 5950W        W74355  27.993  32.360   0.329
 5951W        W74356   1.469  32.132  12.947
 5952W        W74357  23.714  35.471  13.883
 5953W        W74358  28.050   4.869   3.291
 5954W        W74359  19.129  37.130   2.236
 5955W        W74360  13.138  37.588   3.529
 5956W        W74361  33.069  28.426   1.746
 5957W        W74362  28.276  38.518   1.366
 5958W        W74363  38.403  19.703  12.070
 5959W        W74364   6.268  25.630   3.241
 5960W        W74365   0.228  24.743  13.998
 5961W        W74366  21.109  15.789  12.529
 5962W        W74367  10.696  19.236   3.341
 5963W        W74368  14.582  29.050  11.903
 5964W        W74369  44.962  12.657   1.316
 5965W        W74370  31.158  33.112  10.830
 5966W        W74371  10.126   5.369  13.905
 5967W        W74372   9.897  44.482   4.175
 5968W        W74373  32.501  14.607  12.157
 5969W        W74374   2.833  44.998   2.910
 5970W        W74375  37.665  14.337   4.164
 5971W        W74376  30.979  30.420   0.530
 5972W        W74377  22.044  19.012  12.464
 5973W        W74378  28.568  26.050  11.524
 5974W        W74379  17.289  36.444  10.770
 5975W        W74380  26.708  32.813  12.105
 5976W        W74381  38.058  27.710   2.722
 5977W        W74382   0.183   5.383   1.833
 5978W        W74383  34.095  10.235  13.452
 5979W        W74384  21.618   0.450   4.802
 5980W        W74385   7.500  17.349  13.618
 5981W        W74386  17.084  22.566   0.535
 5982W        W74387  24.743   7.567  11.948
 5983W        W74388  31.134  19.788  13.765
 5984W        W74389  29.938  30.061  11.066
 5985W        W74390  24.619  35.130   1.299
 5986W        W74391  40.389  17.722   1.597
 5987W        W74392  12.881   0.667   1.311
 5988W        W74393  14.995  26.182   0.301
 5989W        W74394  18.028  20.563  14.992
 5990W        W74395  44.988  12.622  12.358
 5991W        W74396  15.204  23.763   4.187
 5992W        W74397  41.017  41.772   1.337
 5993W        W74398  29.376  20.980   4.369
 5994W        W74399  15.716  11.150   3.690
 5995W        W74400   2.031  31.331   2.856
 5996W        W74401  28.074  28.265   3.527
 5997W        W74402   5.743  19.180   4.295
 5998W        W74403   5.198  15.834  14.001
 5999W        W74404   5.286  27.504   0.532
 6000W        W74405  36.043  22.650  10.492
 6001W        W74406  23.009  11.158  12.381
 6002W        W74407  33.202  38.330  12.078
 6003W        W74408   3.649  18.126   1.826
 6004W        W74409  35.012   8.244   2.596
 6005W        W74410   2.950  44.899  12.468
 6006W        W74411  32.517  20.668  11.628
 6007W        W74412  31.433  25.506   0.497
 6008W        W74413  10.483  19.147   3.788
 6009W        W74414  42.704  16.033   3.197
 6010W        W74415  26.063  23.203   2.359
 6011W        W74416  16.821  31.953   2.743
 6012W        W74417  12.615  22.447   3.686
 6013W        W74418   5.630   1.306  12.514
 6014W        W74419   4.528  35.363  11.008
 6015W        W74420  16.646  23.713  13.811
 6016W        W74421  13.624   2.024   2.895
 6017W        W74422  14.711   5.672  14.487
 6018W        W74423  31.393  12.814  12.463
 6019W        W74424   9.866  27.066   2.788
 6020W        W74425   4.013  10.962   1.046
 6021W        W74426  15.349  38.861   3.336
 6022W        W74427   9.608  27.942  11.999
 6023W        W74428  12.768  17.193  13.343
 6024W        W74429   0.219  29.690   0.767
 6025W        W74430  17.247  29.592   2.636
 6026W        W74431  26.785  18.397  10.409
 6027W        W74432  34.613   2.748   1.463
 6028W        W74433  32.292   3.588   1.853
 6029W        W74434  20.366  41.039   0.246
 6030W        W74435  35.463  35.508   2.269
 6031W        W74436  12.717   4.988   4.115
 6032W        W74437   0.930  11.280   0.566
 6033W        W74438  42.590  15.759  14.377
 6034W        W74439  10.349  25.662  12.888
 6035W        W74440   6.632  42.968   3.540
 6036W        W74441  27.184  20.998   0.225
 6037W        W74442  30.170   3.243  12.636
 6038W        W74443  26.680  25.074   1.243
 6039W        W74444   8.422  31.783   3.214
 6040W        W74445  10.195  19.338   4.546
 6041W        W74446  13.200  19.124  14.510
 6042W        W74447  38.010  10.271   0.744
 6043W        W74448   8.526  25.565  11.181
 6044W        W74449  25.722  18.524  11.650
 6045W        W74450  13.208  35.822  13.362
 6046W        W74451   7.369  38.822  14.869
 6047W        W74452  35.430  18.190  14.784
 6048W        W74453  15.206  16.144   0.820
 6049W        W74454  22.250  25.763  13.089
 6050W        W74455   8.801  36.446   0.861
 6051W        W74456  44.756  31.609  11.429
 6052W        W74457   1.822  31.533   0.021
 6053W        W74458  26.121  25.389  11.861
 6054W        W74459  21.976  43.000  13.106
 6055W        W74460  12.667  21.779   2.134
 6056W        W74461  32.131  30.171  14.035
 6057W        W74462  25.565  28.175   1.340
 6058W        W74463   7.852  32.389   4.753
 6059W        W74464  25.738  19.478  12.723
 6060W        W74465  29.686  35.958   0.195
 6061W        W74466   5.883   6.169  14.407
 6062W        W74467  44.965   0.893  13.242
 6063W        W74468  16.900  16.479  13.379
 6064W        W74469  22.999  19.689   1.938
 6065W        W74470   4.747   4.476   0.311
 6066W        W74471  22.209  33.508   1.307
 6067W        W74472   7.252  44.091  14.324
 6068W        W74473  23.443  41.340   4.182
 6069W        W74474  22.241  16.847  11.207
 6070W        W74475  40.930  43.595   0.791
 6071W        W74476   9.807  28.624  14.847
 6072W        W74477  24.970  12.158   2.772
 6073W        W74478  16.153  11.123   9.804
 6074W        W74479  39.505  27.095  12.168
 6075W        W74480  20.045  42.486  12.494
 6076W        W74481  30.492  13.962   4.251
 6077W        W74482  19.273  29.411   1.281
 6078W        W74483  31.993   8.860   1.693
 6079W        W74484   0.812  37.156   3.635
 6080W        W74485  14.374  38.094   3.820
 6081W        W74486  28.633  34.615   4.540
 6082W        W74487   8.751  29.648   2.779
 6083W        W74488  10.893  42.499  12.435
 6084W        W74489  28.087  22.768  12.866
 6085W        W74490   0.521   0.567  14.397
 6086W        W74491  38.801  39.174   0.270
 6087W        W74492  29.188  44.754   4.816
 6088W        W74493   2.671  15.345   1.004
 6089W        W74494   1.584   4.704   3.611
 6090W        W74495  29.683   3.239   4.057
 6091W        W74496  16.852  39.419  10.105
 6092W        W74497  17.653  16.348  13.789
 6093W        W74498  41.239  42.025  13.957
 6094W        W74499  16.609   6.714  13.265
 6095W        W74500   7.658  40.128   0.174
 6096W        W74501   2.110  43.944   1.026
 6097W        W74502  26.021   2.975  12.067
 6098W        W74503  33.100  21.126  12.532
 6099W        W74504   2.217  21.890   4.187
 6100W        W74505  36.426  33.874  14.966
 6101W        W74506  15.484  44.077  10.813
 6102W        W74507  20.292  21.527   2.903
 6103W        W74508  30.488  34.536   2.094
 6104W        W74509  43.430  10.420   4.616
 6105W        W74510  26.559  37.488   1.899
 6106W        W74511   8.068  41.157  12.073
 6107W        W74512  25.231  22.816   1.190
 6108W        W74513  28.353   9.373  10.326
 6109W        W74514   5.982  32.947   2.203
 6110W        W74515  39.606  10.896  14.628
 6111W        W74516   1.325  22.015  13.575
 6112W        W74517  14.837  13.672   1.328
 6113W        W74518  44.255  27.168  12.511
 6114W        W74519   8.309  40.250   1.386
 6115W        W74520  32.399  27.488  12.527
 6116W        W74521   1.295   7.425  13.382
 6117W        W74522   8.349  24.737  12.902
 6118W        W74523  14.708  27.686  11.436
 6119W        W74524  35.008  39.128  10.965
 6120W        W74525  36.361  12.710  10.679
 6121W        W74526  16.155  44.211   4.915
 6122W        W74527  34.025   3.848  12.062
 6123W        W74528  30.545  43.600   3.973
 6124W        W74529   4.839   2.004  11.593
 6125W        W74530  27.160  37.887   2.266
 6126W        W74531  22.890  41.511  12.040
 6127W        W74532  41.323   6.248  13.966
 6128W        W74533  24.645  20.708   1.379
 6129W        W74534  10.537  38.570  11.030
 6130W        W74535  40.050  15.563  14.059
 6131W        W74536  14.305  34.165  10.846
 6132W        W74537  40.478  31.219  14.444
 6133W        W74538  30.524   2.815   4.066
 6134W        W74539  19.766  10.764   0.346
 6135W        W74540  33.865  13.637   2.778
 6136W        W74541  38.911  43.979  11.672
 6137W        W74542  40.145  23.149   4.193
 6138W        W74543  43.829  18.108  14.359
 6139W        W74544  40.293  21.594   1.886
 6140W        W74545  30.674  18.734  11.908
 6141W        W74546  13.715  11.324  11.927
 6142W        W74547   9.775  13.194  12.029
 6143W        W74548  25.103  36.990  11.281
 6144W        W74549   3.734  37.973  11.750
 6145W        W74550  14.759   3.071   5.058
 6146W        W74551  37.093  38.950   3.692
 6147W        W74552  10.825  30.137   4.560
 6148W        W74553   2.200  17.211  13.967
 6149W        W74554  28.185  30.070  12.461
 6150W        W74555  36.016  43.261   4.175
 6151W        W74556  40.279  34.871   5.008
 6152W        W74557  12.569  23.796   2.318
 6153W        W74558   4.714   6.871  14.865
 6154W        W74559  25.289   3.198   5.267
 6155W        W74560   0.023  16.241  12.026
 6156W        W74561  42.897  41.929   3.778
 6157W        W74562  44.480  17.106  11.973
 6158W        W74563  18.746   5.044  11.674
 6159W        W74564  36.533  27.105  12.126
 6160W        W74565   4.977  11.819  12.519
 6161W        W74566  39.066  23.763  12.993
 6162W        W74567  42.305  32.294  12.424
 6163W        W74568   2.407  12.356   0.968
 6164W        W74569  27.188  17.527   3.635
 6165W        W74570  19.816  13.672  12.784
 6166W        W74571  35.255   1.316   0.835
 6167W        W74572  18.988  42.784   2.243
 6168W        W74573  27.942  15.950   3.988
 6169W        W74574  40.370  19.577  12.856
 6170W        W74575  37.832   9.338   3.775
 6171W        W74576  25.176  18.530  11.596
 6172W        W74577  41.722  17.130  14.499
 6173W        W74578  39.027  26.890   0.210
 6174W        W74579   3.169  32.559  13.554
 6175W        W74580  19.317  28.075   0.723
 6176W        W74581  25.095  14.192   4.303
 6177W        W74582   2.928  24.305   0.910
 6178W        W74583  44.886  14.106  13.960
 6179W        W74584  30.953   3.923  12.724
 6180W        W74585  33.982  25.132  11.043
 6181W        W74586  21.240  33.276   4.631
 6182W        W74587  24.504  28.690   0.305
 6183W        W74588   8.890  24.509   3.887
 6184W        W74589  30.163  31.163  13.620
 6185W        W74590  12.254  40.427   3.605
 6186W        W74591  20.300  19.493   1.159
 6187W        W74592  44.963  30.973  14.331
 6188W        W74593  28.743  38.918   5.483
 6189W        W74594  27.635  26.918   3.203
 6190W        W74595  41.039  35.454  14.915
 6191W        W74596  31.582  36.000  10.939
 6192W        W74597  34.290  32.349   3.344
 6193W        W74598  15.695  10.955  13.377
 6194W        W74599  38.259  14.798  12.084
 6195W        W74600  34.040  24.573  11.759
 6196W        W74601  35.266  30.233  10.368
 6197W        W74602  30.659  35.684   1.440
 6198W        W74603  40.352  15.801  14.907
 6199W        W74604  23.340  21.572   0.501
 6200W        W74605  14.199   0.993   4.258
 6201W        W74606   9.896  24.378   1.328
 6202W        W74607  12.883   2.875  13.880
 6203W        W74608  30.802  10.806   0.340
 6204W        W74609   7.682  38.432   2.824
 6205W        W74610  40.060  26.246   0.792
 6206W        W74611  35.975   2.703  13.958
 6207W        W74612  39.461  15.891   3.170
 6208W        W74613   4.895   8.851  11.520
 6209W        W74614  24.082  32.213  11.689
 6210W        W74615   7.595   7.859   2.869
 6211W        W74616  39.089  12.266   4.110
 6212W        W74617  25.142  30.365   0.947
 6213W        W74618  10.167  26.516  12.909
 6214W        W74619  40.411   6.325  12.425
 6215W        W74620  44.438   7.834  10.769
 6216W        W74621   4.962   9.693   5.012
 6217W        W74622  22.715  32.133  11.390
 6218W        W74623  44.871  44.881  10.766
 6219W        W74624   4.939   5.823  12.140
 6220W        W74625   6.201  37.311  12.643
 6221W        W74626  37.371   7.171   3.217
 6222W        W74627   0.422  25.485   0.923
 6223W        W74628  39.031  25.190  10.783
 6224W        W74629  36.990  16.851   4.129
 6225W        W74630   4.886  31.260   0.114
 6226W        W74631  35.842  42.519   3.735
 6227W        W74632  37.768  18.435  13.961
 6228W        W74633  39.911  20.536  13.758
 6229W        W74634   7.699  17.744  12.000
 6230W        W74635  14.822   5.927  14.937
 6231W        W74636   6.926  17.438   3.811
 6232W        W74637  30.045   3.432   1.758
 6233W        W74638  19.307  22.269   2.744
 6234W        W74639  40.615  33.268  13.767
 6235W        W74640  38.417  36.013  13.483
 6236W        W74641  33.398  12.760   1.326
 6237W        W74642  24.112  30.927  14.233
 6238W        W74643  21.275   7.105  12.552
 6239W        W74644   6.613  39.975  14.425
 6240W        W74645  26.972   2.636   2.719
 6241W        W74646  17.458  10.484   2.624
 6242W        W74647  20.704  37.982   4.121
 6243W        W74648  26.970  30.525   0.801
 6244W        W74649   8.483   8.387   2.387
 6245W        W74650  26.760  32.997   0.503
 6246W        W74651  24.276   5.736  10.779
 6247W        W74652  30.130   1.312   2.582
 6248W        W74653  38.934  14.176   0.441
 6249W        W74654  34.579  11.601  13.848
 6250W        W74655  25.985  16.614   3.264
 6251W        W74656  27.313   2.028   1.792
 6252W        W74657  25.277  40.030  14.678
 6253W        W74658  21.392  10.289   0.655
 6254W        W74659  41.291  41.052   4.580
 6255W        W74660   1.536  40.855  12.585
 6256W        W74661  19.648  16.832   2.029
 6257W        W74662  18.496  28.956  11.521
 6258W        W74663  35.461  39.847   1.930
 6259W        W74664  31.329  43.217   2.819
 6260W        W74665  32.445   8.519  11.590
 6261W        W74666  29.659   4.137   3.740
 6262W        W74667  38.030  37.684   1.775
 6263W        W74668   6.533   6.022  14.962
 6264W        W74669  36.830  37.495   2.320
 6265W        W74670  44.865  39.492   1.669
 6266W        W74671  19.581  29.642   2.389
 6267W        W74672  42.271  27.076  14.928
 6268W        W74673  39.326  15.205   0.893
 6269W        W74674   8.211  32.525   0.798
 6270W        W74675  12.370  16.145   1.312
 6271W        W74676  21.772  13.796  14.106
 6272W        W74677   3.386   1.968   0.402
 6273W        W74678   4.001   5.151  13.942
 6274W        W74679  23.534  21.074   3.074
 6275W        W74680  17.571  20.577   5.053
 6276W        W74681  14.560   6.340   2.656
 6277W        W74682  25.094  10.259  11.306
 6278W        W74683  19.147  42.991   4.569
 6279W        W74684  38.112  23.468  11.676
 6280W        W74685   2.394  38.338   1.730
 6281W        W74686   0.083  17.166  12.590
 6282W        W74687  23.562  17.840   4.559
 6283W        W74688  36.846   8.121  12.393
 6284W        W74689  31.982  27.076  14.401
 6285W        W74690  43.509   1.522  14.429
 6286W        W74691  25.061  15.844  12.135
 6287W        W74692  12.574  39.594   3.271
 6288W        W74693  24.854  40.310  10.704
 6289W        W74694  24.313   9.666   3.077
 6290W        W74695  29.216  35.167   1.241
 6291W        W74696  41.287  43.110  11.001
 6292W        W74697  21.537  19.912  12.498
 6293W        W74698   8.744  29.394  11.512
 6294W        W74699   3.834  28.654   1.688
 6295W        W74700  19.552  41.578  10.665
 6296W        W74701  13.372   0.046  11.612
 6297W        W74702  25.601  34.527  13.834
 6298W        W74703   1.707  14.319   3.189
 6299W        W74704  14.115  13.546  11.635
 6300W        W74705  22.146  10.185  10.251
 6301W        W74706  44.709  14.420   3.174
 6302W        W74707   1.244  43.561   0.767
 6303W        W74708  29.616  44.568   0.493
 6304W        W74709  19.756  31.476  14.504
 6305W        W74710  12.071  29.390   0.397
 6306W        W74711   8.590  34.504   1.878
 6307W        W74712  25.163  19.598   3.172
 6308W        W74713   6.323  17.145   1.712
 6309W        W74714  39.332  37.952  13.644
 6310W        W74715  38.393  11.043  11.565
 6311W        W74716  43.498   6.869  11.226
 6312W        W74717  23.084  28.870  14.712
 6313W        W74718  12.758   7.736  11.963
 6314W        W74719  32.135  24.683   1.394
 6315W        W74720  44.475  43.796  12.402
 6316W        W74721  12.050  14.311   1.192
 6317W        W74722   2.554  29.164  14.872
 6318W        W74723  12.344  26.132   0.302
 6319W        W74724  29.443  34.503  12.230
 6320W        W74725  14.833  41.611   2.693
 6321W        W74726  21.601  19.231   3.035
 6322W        W74727   2.547  18.109  14.800
 6323W        W74728   1.621  25.608  14.973
 6324W        W74729  31.391  29.108  11.902
 6325W        W74730  24.202   3.302  11.196
 6326W        W74731  19.854  12.383   0.282
 6327W        W74732  10.819  25.623  12.653
 6328W        W74733  37.663  37.480   4.317
 6329W        W74734   5.239  23.714  10.663
 6330W        W74735  39.899  37.907  13.388
 6331W        W74736   2.231  40.368   4.562
 6332W        W74737  43.113  37.830  14.849
 6333W        W74738  36.063  38.127  14.959
 6334W        W74739  19.951   5.209   2.296
 6335W        W74740  43.705  39.996   3.727
 6336W        W74741  31.809   5.776   1.775
 6337W        W74742  32.256   6.335   2.940
 6338W        W74743  35.094  20.097   0.837
 6339W        W74744  29.498  32.854  11.808
 6340W        W74745   7.432  19.126  13.453
 6341W        W74746  33.997  17.328   3.893
 6342W        W74747   1.896  19.201   0.707
 6343W        W74748  39.843  37.592   3.141
 6344W        W74749  37.168  20.520  14.315
 6345W        W74750  40.371  28.394   3.807
 6346W        W74751  20.246  41.537  10.114
 6347W        W74752  10.833  35.504  12.137
 6348W        W74753   2.543  27.433  11.527
 6349W        W74754  18.341  25.457  12.022
 6350W        W74755  10.381   7.184  12.652
 6351W        W74756   9.098  27.686  10.734
 6352W        W74757  12.382  42.853   2.699
 6353W        W74758  42.831   1.308   0.917
 6354W        W74759  24.723  18.134  12.662
 6355W        W74760   7.315  41.751   0.166
 6356W        W74761  26.736  16.309   3.569
 6357W        W74762  44.026  10.445  14.760
 6358W        W74763   2.626  15.268   4.320
 6359W        W74764   6.816  18.457   3.590
 6360W        W74765  39.891  33.447   2.866
 6361W        W74766  42.274  35.063  12.098
 6362W        W74767  25.098   3.457   1.112
 6363W        W74768  17.239  11.351   4.573
 6364W        W74769  13.178  24.645  14.710
 6365W        W74770  37.015  32.391   0.243
 6366W        W74771  17.065   1.893   4.151
 6367W        W74772  37.784  28.577   0.427
 6368W        W74773  13.264  29.430   3.752
 6369W        W74774  22.731  42.862   3.517
 6370W        W74775  37.016  41.232   1.804
 6371W        W74776  33.474  32.074   2.130
 6372W        W74777   2.221   7.948   2.718
 6373W        W74778   7.121  12.104  11.668
 6374W        W74779  34.368   4.690  14.951
 6375W        W74780  40.366   4.571  10.950
 6376W        W74781  30.564  23.479  12.382
 6377W        W74782  12.806  31.532  11.712
 6378W        W74783   4.902  19.828   4.150
 6379W        W74784  29.362   1.079  11.070
 6380W        W74785   2.704  18.136   4.335
 6381W        W74786  20.970  22.014  13.284
 6382W        W74787  21.578  40.857  14.241
 6383W        W74788   2.736   5.332   1.893
 6384W        W74789  10.447  25.752  10.271
 6385W        W74790  13.195   0.597   0.360
 6386W        W74791  20.268  43.214  13.902
 6387W        W74792  11.238  34.104  11.984
 6388W        W74793  34.921  30.263   0.839
 6389W        W74794  14.604  10.860   4.201
 6390W        W74795  22.044   7.838   1.887
 6391W        W74796  17.083  42.045  10.693
 6392W        W74797  43.403  39.596  10.877
 6393W        W74798  30.649  24.461  14.775
 6394W        W74799  23.189  22.748  12.478
 6395W        W74800  26.578  24.527   0.190
 6396W        W74801   4.918  18.049   4.863
 6397W        W74802  15.259  44.469   1.893
 6398W        W74803  40.763  11.776  14.108
 6399W        W74804  19.188  24.548  12.974
 6400W        W74805  16.216  34.832   3.726
 6401W        W74806  12.033  37.921   0.408
 6402W        W74807  11.416  17.373  10.613
 6403W        W74808  26.424  38.764   2.630
 6404W        W74809  22.695  17.066  11.148
 6405W        W74810  17.369   0.907   2.315
 6406W        W74811  28.583  29.187  14.482
 6407W        W74812   7.227  10.135  11.747
 6408W        W74813   6.658  15.058   5.165
 6409W        W74814  24.110  33.598   4.040
 6410W        W74815   7.233  11.729   1.729
 6411W        W74816   0.785  30.423   1.450
 6412W        W74817  10.563  32.734   3.625
 6413W        W74818   3.294  24.428  14.304
 6414W        W74819  20.575  22.062   0.691
 6415W        W74820  11.556  12.248  11.960
 6416W        W74821  35.694  17.111   2.690
 6417W        W74822  40.045  12.202  12.148
 6418W        W74823   0.464  27.720   4.157
 6419W        W74824   7.408   8.203   2.534
 6420W        W74825  16.873  29.364   4.194
 6421W        W74826  39.510  19.945   1.847
 6422W        W74827  33.549  18.228  13.029
 6423W        W74828  12.708  18.774  11.040
 6424W        W74829   5.290  38.134  12.122
 6425W        W74830  43.540  37.582   4.685
 6426W        W74831   7.018  26.461   2.335
 6427W        W74832   1.965  43.788   0.253
 6428W        W74833  16.564   7.953   3.178
 6429W        W74834  15.427  37.720   2.836
 6430W        W74835  16.843  33.628   2.236
 6431W        W74836  29.824  36.760   3.874
 6432W        W74837   2.204   9.066   0.911
 6433W        W74838   0.350  32.441  12.239
 6434W        W74839  13.543   7.767  10.541
 6435W        W74840  39.539  23.749   3.187
 6436W        W74841  34.955  25.493  10.479
 6437W        W74842   6.079  27.519  11.985
 6438W        W74843  19.605  11.282   0.275
 6439W        W74844  14.623  24.978  13.908
 6440W        W74845  36.062   5.081   4.878
 6441W        W74846  23.166  11.646   1.765
 6442W        W74847  25.028  44.940  13.524
 6443W        W74848  15.314  25.716   3.315
 6444W        W74849  18.764  12.379   4.509
 6445W        W74850  14.605  40.076   2.880
 6446W        W74851  27.983   4.602  14.415
 6447W        W74852  17.225  37.004  12.873
 6448W        W74853  21.766  29.898   2.707
 6449W        W74854  39.743  30.778   3.364
 6450W        W74855  26.206  37.988  10.438
 6451W        W74856  16.229   3.014  13.172
 6452W        W74857   0.776  34.714  12.857
 6453W        W74858  32.643  37.246   4.457
 6454W        W74859  10.732  39.831   2.175
 6455W        W74860  23.501   7.790  10.641
 6456W        W74861  36.379  32.402  10.944
 6457W        W74862   5.860   6.394  11.563
 6458W        W74863  14.714  17.693   2.665
 6459W        W74864  24.985   0.346  10.520
 6460W        W74865  41.988  13.313  12.660
 6461W        W74866  38.534  25.035  10.804
 6462W        W74867  22.322  41.402   2.313
 6463W        W74868   2.393  13.828   4.702
 6464W        W74869  18.352  15.721   0.723
 6465W        W74870  32.859  35.664  14.487
 6466W        W74871   4.887  25.012   0.680
 6467W        W74872   9.687  30.922  11.033
 6468W        W74873  44.919  24.545   0.480
 6469W        W74874  27.203  23.659  12.951
 6470W        W74875  15.770  25.229  13.403
 6471W        W74876   8.313   6.922  11.633
 6472W        W74877  17.456   0.277   3.209
 6473W        W74878  31.867  34.921   3.721
 6474W        W74879  15.650   7.122  13.975
 6475W        W74880  15.904  25.386   5.005
 6476W        W74881  10.019   3.754  11.292
 6477W        W74882  14.882  36.423  14.072
 6478W        W74883  14.974  25.692   4.207
 6479W        W74884   5.238  43.290   1.126
 6480W        W74885   1.226  29.632  12.504
 6481W        W74886  36.368  32.054   1.536
 6482W        W74887  18.193   7.412  11.136
 6483W        W74888   4.033  35.579   1.110
 6484W        W74889  13.232  20.604   1.254
 6485W        W74890  10.789  39.044  13.027
 6486W        W74891  34.763  28.613  11.030
 6487W        W74892  34.043  15.048   1.910
 6488W        W74893  27.632  14.480   4.037
 6489W        W74894  38.922  43.034   1.234
 6490W        W74895  13.198  27.855  13.497
 6491W        W74896  15.595  36.104  10.522
 6492W        W74897  31.548   2.139  13.987
 6493W        W74898   5.721  39.431   1.899
 6494W        W74899  27.636  39.213   4.674
 6495W        W74900   7.903  40.296  13.487
 6496W        W74901   9.912  28.984  13.799
 6497W        W74902  41.802   3.783   3.095
 6498W        W74903  11.847  28.006   2.509
 6499W        W74904   4.316   3.181  11.486
 6500W        W74905   6.678  28.563   1.408
 6501W        W74906  10.418  34.193   3.389
 6502W        W74907  13.865  17.671   3.745
 6503W        W74908  26.931  11.141   2.397
 6504W        W74909  28.009   5.895  10.065
 6505W        W74910   7.929  34.659   0.152
 6506W        W74911  20.810  26.812  13.381
 6507W        W74912  13.415  41.224  13.408
 6508W        W74913   3.904  26.690  10.896
 6509W        W74914   8.228  17.199  11.055
 6510W        W74915   1.925  34.849  13.977
 6511W        W74916   3.685  20.042  11.506
 6512W        W74917  13.545  31.953  10.663
 6513W        W74918  11.769  32.147   0.721
 6514W        W74919  41.395   3.423  14.021
 6515W        W74920  21.119   8.380   0.659
 6516W        W74921  11.950  12.246  13.336
 6517W        W74922  33.142  14.786   2.268
 6518W        W74923  33.030  39.881  13.103
 6519W        W74924  25.554  41.830   2.773
 6520W        W74925  38.875  24.797  14.950
 6521W        W74926  18.831   4.195  11.514
 6522W        W74927  39.577  34.034  12.092
 6523W        W74928  38.823  14.618  13.908
 6524W        W74929  24.068  22.756  13.786
 6525W        W74930   0.812  35.828   2.782
 6526W        W74931  38.911  20.985   3.253
 6527W        W74932  36.283  31.701  12.743
 6528W        W74933  15.624   3.394   9.825
 6529W        W74934  33.498   5.672  14.349
 6530W        W74935  37.132  13.579  11.218
 6531W        W74936  21.949  32.925  13.327
 6532W        W74937   0.727  25.300   1.459
 6533W        W74938  43.970  43.993  13.923
 6534W        W74939   5.388  27.582   0.031
 6535W        W74940   5.001  16.253   2.030
 6536W        W74941   6.909   5.692   4.126
 6537W        W74942  23.780  23.090  14.802
 6538W        W74943   4.893  37.131  13.735
 6539W        W74944   6.415  34.412   1.359
 6540W        W74945  42.352  34.927   1.481
 6541W        W74946  18.164  32.688   3.753
 6542W        W74947  38.828  35.680  13.683
 6543W        W74948  39.952  25.123   0.662
 6544W        W74949  17.964  21.824   3.699
 6545W        W74950  28.769  24.628   3.111
 6546W        W74951  27.167  13.350  11.565
 6547W        W74952  14.347  36.997  11.460
 6548W        W74953   1.468   0.313   2.820
 6549W        W74954  11.147  28.468  12.961
 6550W        W74955  11.696  28.906   1.909
 6551W        W74956   9.319  10.682   1.216
 6552W        W74957   4.404   4.895  14.423
 6553W        W74958  34.996  40.027   4.147
 6554W        W74959  11.155   4.464   1.067
 6555W        W74960   5.307   3.472   3.205
 6556W        W74961  44.781  33.062  10.613
 6557W        W74962  28.181  37.693  14.454
 6558W        W74963  44.035  26.135  11.447
 6559W        W74964  24.116  36.268  14.848
 6560W        W74965  15.040  26.191   4.277
 6561W        W74966   2.112  36.126   4.549
 6562W        W74967  43.764  27.701   0.437
 6563W        W74968   5.015   1.363   0.941
 6564W        W74969   7.771  37.857   4.375
 6565W        W74970  36.748  19.783  11.210
 6566W        W74971  17.664   5.737  14.367
 6567W        W74972  19.568  12.007  12.225
 6568W        W74973  19.241   8.793   3.605
 6569W        W74974  36.956  35.900  12.809
 6570W        W74975   9.348  12.380  11.123
 6571W        W74976   7.933  12.682  10.419
 6572W        W74977  36.891  31.356   0.547
 6573W        W74978  29.969  18.844   1.484
 6574W        W74979  36.037  25.232   0.370
 6575W        W74980  13.812  43.759  13.396
 6576W        W74981   9.200   8.944  13.039
 6577W        W74982  13.344  38.549   2.777
 6578W        W74983   7.937  42.541  14.406
 6579W        W74984  17.359  21.408   4.226
 6580W        W74985  36.430  10.617   4.725
 6581W        W74986  29.781  39.003  14.480
 6582W        W74987   1.028   0.614   2.793
 6583W        W74988   3.108   6.375   3.134
 6584W        W74989  30.408  33.694  11.931
 6585W        W74990  33.926  13.892   4.129
 6586W        W74991  28.127  20.066  14.264
 6587W        W74992  32.944  40.409   0.809
 6588W        W74993  24.097  38.979   4.582
 6589W        W74994  23.217  27.943  14.238
 6590W        W74995  40.155   7.094   3.500
 6591W        W74996  15.118  15.548   3.793
 6592W        W74997  17.499   5.378  11.964
 6593W        W74998  22.754  21.638   3.559
 6594W        W74999  15.916  26.379  13.928
 6595W        W75000  35.835  23.005  12.038
 6596W        W75001   7.318   0.353   0.711
 6597W        W75002  39.429   8.435  11.754
 6598W        W75003  37.409   4.177  14.294
 6599W        W75004   0.468  35.098  11.381
 6600W        W75005  15.135  37.789   3.950
 6601W        W75006  33.001  27.092  14.338
 6602W        W75007  20.351  30.409  11.167
 6603W        W75008  30.135  41.630   2.094
 6604W        W75009  31.757  11.207  13.848
 6605W        W75010  24.923  33.936  13.418
 6606W        W75011   5.264  37.153  11.926
 6607W        W75012   1.295   6.189  14.057
 6608W        W75013   8.595  44.771  14.461
 6609W        W75014   4.335  11.010  10.512
 6610W        W75015  27.748  22.650   1.376
 6611W        W75016  32.639  40.371  11.484
 6612W        W75017   2.483  23.013   0.627
 6613W        W75018  24.692  21.168  14.202
 6614W        W75019  41.249  29.070  10.682
 6615W        W75020  37.734  24.587   3.526
 6616W        W75021  41.069  24.349   2.957
 6617W        W75022  20.344  44.105   1.857
 6618W        W75023  24.033  40.282   2.713
 6619W        W75024  21.225  29.022   2.764
 6620W        W75025  16.203  43.530   3.755
 6621W        W75026  38.639  28.743  12.877
 6622W        W75027  44.214  44.241  13.522
 6623W        W75028  42.474  18.752   2.321
 6624W        W75029  18.228  17.233   1.682
 6625W        W75030   7.385   6.640   1.278
 6626W        W75031  26.457  19.646   4.802
 6627W        W75032   1.571   5.254   2.811
 6628W        W75033   0.365   1.179   3.565
 6629W        W75034   4.829  24.167  14.734
 6630W        W75035  28.011  12.777   2.045
 6631W        W75036  33.616  20.027   3.770
 6632W        W75037   3.322  33.151  11.123
 6633W        W75038  38.182  22.089  10.722
 6634W        W75039  21.002  44.578   1.460
 6635W        W75040  34.961   9.549  13.243
 6636W        W75041  24.064  25.228   3.673
 6637W        W75042  40.890   7.496   2.950
 6638W        W75043   2.474  33.530   3.207
 6639W        W75044  17.423  25.605   0.197
 6640W        W75045  11.771   3.399  12.916
 6641W        W75046   9.700   9.427  13.291
 6642W        W75047  37.599  17.962  12.034
 6643W        W75048  25.156  24.766   3.140
 6644W        W75049   7.748  29.762  13.484
 6645W        W75050  34.845  35.998   4.542
 6646W        W75051  29.016   4.238  12.966
 6647W        W75052  39.824   7.928  11.111
 6648W        W75053  12.615   6.225  10.682
 6649W        W75054  42.822  34.584  13.961
 6650W        W75055  21.542  28.622  12.120
 6651W        W75056  36.837  36.726   3.826
 6652W        W75057  22.958  30.948   0.496
 6653W        W75058  43.339  26.238  14.952
 6654W        W75059  36.111  21.764  13.157
 6655W        W75060   1.955  25.113  12.961
 6656W        W75061   1.890  33.929  12.864
 6657W        W75062   6.273  17.593   2.925
 6658W        W75063  13.127  33.324   2.193
 6659W        W75064   6.065  42.443  10.492
 6660W        W75065  12.940  32.155   2.727
 6661W        W75066  39.470  34.724   4.627
 6662W        W75067  20.600  37.866  11.935
 6663W        W75068  22.956  22.857   4.094
 6664W        W75069  29.660  35.538   2.365
 6665W        W75070   9.913  44.605   3.673
 6666W        W75071  27.921  39.559   1.415
 6667W        W75072  39.014  37.421  14.947
 6668W        W75073   2.785  30.995  13.613
 6669W        W75074   7.947  35.736   1.401
 6670W        W75075  21.920  36.101  11.282
 6671W        W75076  16.544  23.533   1.109
 6672W        W75077   5.344  18.753  13.599
 6673W        W75078  41.279  39.282  13.393
 6674W        W75079  15.227  41.358   1.705
 6675W        W75080  35.478  12.110  14.783
 6676W        W75081  14.153  30.479  10.654
 6677W        W75082  15.076  18.695  13.601
 6678W        W75083   9.872  28.617  12.481
 6679W        W75084  10.637  24.628   4.301
 6680W        W75085  36.555  31.473   0.944
 6681W        W75086  42.548   0.768   4.553
 6682W        W75087   5.777   4.851  12.789
 6683W        W75088  39.939  35.938   3.115
 6684W        W75089  14.213  20.196   4.084
 6685W        W75090  11.399   0.736  13.286
 6686W        W75091   6.077  23.791   4.709
 6687W        W75092  11.422  32.571   2.542
 6688W        W75093  38.988  27.094  12.106
 6689W        W75094  26.182  38.426  10.710
 6690W        W75095  20.499  41.517   3.201
 6691W        W75096  24.898  36.125   2.674
 6692W        W75097  39.522  22.271  13.577
 6693W        W75098  44.514   0.972   1.903
 6694W        W75099  39.684  38.772   3.970
 6695W        W75100  28.233  43.752  12.661
 6696W        W75101  13.845  12.887   2.482
 6697W        W75102   2.443  29.442  12.460
 6698W        W75103  26.168  26.188  14.047
 6699W        W75104  30.432  26.236   1.867
 6700W        W75105  44.412  16.440   3.484
 6701W        W75106  33.049   0.301   4.696
 6702W        W75107  33.926  24.618   2.126
 6703W        W75108  36.126   3.756   0.753
 6704W        W75109  39.174  36.912  14.736
 6705W        W75110   5.850  26.337  13.768
 6706W        W75111  26.781  26.662  13.482
 6707W        W75112   4.701  39.092  12.546
 6708W        W75113   7.408  13.046  13.797
 6709W        W75114  29.597  30.648  10.760
 6710W        W75115  26.046  29.420  11.935
 6711W        W75116  10.388  13.812  13.614
 6712W        W75117  41.235  39.762   2.139
 6713W        W75118   4.673  14.273  11.913
 6714W        W75119   8.124  15.348  11.528
 6715W        W75120  30.291   0.803  11.332
 6716W        W75121  40.590   5.709   0.470
 6717W        W75122  16.086  20.006  11.606
 6718W        W75123   4.837  22.418  11.190
 6719W        W75124  23.081  17.223   0.388
 6720W        W75125  29.886  15.432   0.733
 6721W        W75126  13.797  10.148  12.986
 6722W        W75127  44.286  38.774   0.056
 6723W        W75128  20.799  43.448   2.781
 6724W        W75129   1.421  16.282  13.957
 6725W        W75130  30.043   8.672   2.341
 6726W        W75131  42.849   7.440  10.873
 6727W        W75132   9.282  29.235   1.367
 6728W        W75133  42.520   1.895   3.740
 6729W        W75134  44.884  23.096  12.357
 6730W        W75135   9.952  23.546  10.792
 6731W        W75136  11.830  27.952   1.972
 6732W        W75137  15.855  40.265   0.442
 6733W        W75138  43.455  14.731   2.666
 6734W        W75139  25.610  14.057  13.882
 6735W        W75140  17.621  26.733   1.737
 6736W        W75141  13.054  28.008  14.889
 6737W        W75142   6.300   7.673   3.255
 6738W        W75143  33.092  41.070  12.979
 6739W        W75144   1.009   9.169   3.715
 6740W        W75145  17.684  36.508   3.653
 6741W        W75146  16.267  43.054   3.312
 6742W        W75147  15.811  20.268   4.524
 6743W        W75148  36.398  40.373  13.468
 6744W        W75149  34.104  39.943  13.764
 6745W        W75150   6.692  41.711   4.467
 6746W        W75151  34.902  24.815   0.010
 6747W        W75152   0.220   7.698   5.026
 6748W        W75153  41.497   0.995   3.005
 6749W        W75154  44.769  22.194  10.433
 6750W        W75155  21.325   0.069  13.070
 6751W        W75156  11.405  40.890  14.225
 6752W        W75157  15.137  19.631  11.364
 6753W        W75158  42.619  26.205  13.125
 6754W        W75159  34.297  18.256  12.610
 6755W        W75160  41.252  35.570  14.037
 6756W        W75161   3.964  27.058  13.440
 6757W        W75162   1.023  25.680   0.702
 6758W        W75163  38.127   0.105  12.884
 6759W        W75164  20.295  41.011   4.054
 6760W        W75165  13.688  21.640  11.702
 6761W        W75166  40.854  14.623   3.314
 6762W        W75167  30.666  33.652  11.494
 6763W        W75168  29.898  19.602  13.080
 6764W        W75169   1.259  12.919   1.087
 6765W        W75170  17.053  18.602  11.777
 6766W        W75171  29.685  37.062   2.854
 6767W        W75172   0.685  18.728   1.852
 6768W        W75173   0.720   0.957  13.280
 6769W        W75174  21.928  18.724  14.441
 6770W        W75175   9.649  30.918  14.354
 6771W        W75176  39.142  25.206   2.781
 6772W        W75177  41.541  10.315  13.388
 6773W        W75178   2.520   5.994   2.288
 6774W        W75179  32.890  15.060   4.013
 6775W        W75180  37.426   7.723  12.956
 6776W        W75181  26.094   2.026  14.788
 6777W        W75182  23.429   4.388  11.693
 6778W        W75183  21.000  43.833   3.721
 6779W        W75184  13.871  18.131   1.216
 6780W        W75185  44.595  40.842   3.273
 6781W        W75186  24.147  34.068  12.427
 6782W        W75187  18.579  16.860   1.585
 6783W        W75188  16.517   9.936   3.419
 6784W        W75189   8.474   4.485  11.581
 6785W        W75190  28.124   4.663   1.754
 6786W        W75191   8.771  40.667   3.665
 6787W        W75192  19.121  18.725  14.659
 6788W        W75193  24.210  41.841   3.204
 6789W        W75194  41.352  19.898   2.457
 6790W        W75195  20.761  43.794   4.344
 6791W        W75196  42.895   0.454  12.556
 6792W        W75197  29.937   5.610   3.163
 6793W        W75198   0.539   8.420  12.267
 6794W        W75199   0.340  11.723  11.659
 6795W        W75200  19.227  21.105   1.244
 6796W        W75201  36.823   9.153  14.351
 6797W        W75202   4.591  25.992  14.688
 6798W        W75203  14.277  29.979  12.838
 6799W        W75204   9.268  37.045   1.820
 6800W        W75205  43.833  11.096   4.213
 6801W        W75206  29.052  23.092  12.370
 6802W        W75207  22.161   0.002   0.950
 6803W        W75208  12.748  24.328  12.442
 6804W        W75209   0.959  18.986  12.032
 6805W        W75210   6.677  24.305  14.465
 6806W        W75211  36.883  36.008   2.764
 6807W        W75212   7.868  31.428  11.463
 6808W        W75213  37.668  41.909  11.021
 6809W        W75214   5.903  13.648   3.271
 6810W        W75215  40.300  27.554  12.020
 6811W        W75216  24.659  32.226   3.779
 6812W        W75217   0.494   1.571   5.037
 6813W        W75218  22.103  19.116   0.967
 6814W        W75219  13.801   5.674   4.522
 6815W        W75220  16.970   2.287  14.429
 6816W        W75221  27.085  27.587   0.768
 6817W        W75222  42.553  10.932   2.836
 6818W        W75223  34.038  39.791   0.280
 6819W        W75224  25.792  35.433  13.948
 6820W        W75225  17.099  34.239  10.384
 6821W        W75226  11.771  25.897   3.163
 6822W        W75227   2.375  26.077   3.762
 6823W        W75228   4.366  26.535  13.935
 6824W        W75229  27.292   7.822  13.354
 6825W        W75230  35.786  28.979  13.473
 6826W        W75231  42.820  20.268   2.467
 6827W        W75232  26.072   9.112  12.569
 6828W        W75233   3.736  13.208   2.791
 6829W        W75234  40.199  25.751  12.607
 6830W        W75235  34.306  25.539   3.612
 6831W        W75236   2.252  19.309   4.340
 6832W        W75237  21.760  36.382  10.884
 6833W        W75238   5.217  30.244  13.077
 6834W        W75239  21.253  27.679  10.036
 6835W        W75240  43.818   7.431   2.654
 6836W        W75241  15.181  27.523   2.337
 6837W        W75242  17.921  23.251  11.674
 6838W        W75243  30.855  31.830  14.527
 6839W        W75244  20.728  39.408   4.651
 6840W        W75245  37.531  28.170  12.029
 6841W        W75246  15.720  43.718   3.623
 6842W        W75247  17.088   7.715   3.891
 6843W        W75248  15.315  19.530   4.582
 6844W        W75249   8.350  26.415   1.394
 6845W        W75250  33.061  12.528  11.555
 6846W        W75251   3.387  25.956  13.428
 6847W        W75252  21.079  44.847   0.053
 6848W        W75253  34.332   3.163  11.130
 6849W        W75254  32.540  35.885   0.361
 6850W        W75255  13.094  24.971   0.328
 6851W        W75256  27.144  34.684  14.931
 6852W        W75257  27.732   3.891  10.738
 6853W        W75258  37.650  36.009  14.846
 6854W        W75259  17.871  39.672   1.141
 6855W        W75260  26.130  18.316   0.444
 6856W        W75261  34.876   8.908   0.906
 6857W        W75262   2.453  17.743  10.868
 6858W        W75263  16.105  31.368   1.517
 6859W        W75264  18.163   4.436  13.894
 6860W        W75265  43.808   7.911  12.180
 6861W        W75266  26.954  26.471   3.730
 6862W        W75267   2.476  20.055   3.207
 6863W        W75268  31.782  12.366  11.057
 6864W        W75269  13.832  36.071   0.278
 6865W        W75270   4.278  42.190  12.901
 6866W        W75271  27.424  10.183  10.161
 6867W        W75272  18.435  34.367  11.809
 6868W        W75273  42.073  11.418   4.104
 6869W        W75274  40.097  24.742  11.537
 6870W        W75275  17.357  13.169   2.691
 6871W        W75276  18.846  34.381  13.870
 6872W        W75277  25.759  14.200  10.227
 6873W        W75278  41.600  36.961   3.513
 6874W        W75279  40.887  40.749   1.307
 6875W        W75280  43.151  10.021   4.855
 6876W        W75281  40.321   7.586   3.527
 6877W        W75282   7.466  41.115  14.346
 6878W        W75283  38.785  16.116  12.842
 6879W        W75284   5.029   0.745  10.689
 6880W        W75285  24.239  30.660  11.120
 6881W        W75286  37.753  11.678   4.165
 6882W        W75287  28.615  11.829  11.776
 6883W        W75288  28.449  27.181  10.894
 6884W        W75289  40.340  24.492  13.989
 6885W        W75290  28.689  41.097   4.842
 6886W        W75291   6.129  43.075   1.705
 6887W        W75292  39.979   3.390  14.283
 6888W        W75293  28.973   0.596   2.157
 6889W        W75294  19.319   7.637  12.132
 6890W        W75295  44.277   4.365   1.429
 6891W        W75296   2.850  19.826   1.748
 6892W        W75297  23.716  22.575  14.793
 6893W        W75298   1.112  13.203   3.280
 6894W        W75299   6.739   5.831   2.129
 6895W        W75300  32.044   8.838  14.683
 6896W        W75301   5.916  40.714  11.582
 6897W        W75302  43.743  44.356  13.313
 6898W        W75303   1.761  37.917  12.860
 6899W        W75304  21.123  25.981  13.872
 6900W        W75305   6.304  44.258  12.937
 6901W        W75306   4.803  29.172  14.942
 6902W        W75307   8.240   6.393   2.819
 6903W        W75308   1.698  39.851   3.866
 6904W        W75309  29.253  38.510   4.361
 6905W        W75310  18.656  22.241   9.799
 6906W        W75311   5.060   7.877  10.073
 6907W        W75312  33.597  42.864  11.279
 6908W        W75313  24.471  24.259  11.141
 6909W        W75314  26.458   2.970   4.682
 6910W        W75315  18.463  15.222  13.538
 6911W        W75316  28.934  34.956  14.940
 6912W        W75317  25.779  14.725   3.585
 6913W        W75318  17.759  31.327   0.746
 6914W        W75319  34.886   9.338   2.776
 6915W        W75320  27.416  19.326  11.559
 6916W        W75321  12.207  26.230  11.998
 6917W        W75322  35.131  31.801   4.976
 6918W        W75323   9.796  24.510  14.756
 6919W        W75324  44.475  33.574  10.769
 6920W        W75325   6.096   3.181   3.614
 6921W        W75326   5.814  14.074   4.416
 6922W        W75327  22.690  35.374   1.746
 6923W        W75328  14.989   1.767   5.279
 6924W        W75329   9.721  33.017   2.669
 6925W        W75330  17.321  21.331  14.984
 6926W        W75331  43.680  35.509   3.873
 6927W        W75332  38.291  30.122   1.963
 6928W        W75333   4.209   2.176  12.032
 6929W        W75334   8.611   4.963  12.590
 6930W        W75335   0.808  17.319   4.157
 6931W        W75336  13.884  21.665   4.325
 6932W        W75337  11.367   5.391   0.617
 6933W        W75338  27.656  21.758   4.458
 6934W        W75339  19.598  22.749   3.435
 6935W        W75340  15.741  20.064  14.370
 6936W        W75341  11.824  16.243   3.808
 6937W        W75342   8.645  44.532   3.132
 6938W        W75343  24.689  21.120  12.867
 6939W        W75344  10.313  35.148  13.166
 6940W        W75345  44.669  14.235  10.278
 6941W        W75346   7.555   4.599   2.873
 6942W        W75347  24.169  29.171   2.248
 6943W        W75348   9.887  25.783   1.897
 6944W        W75349  43.996  37.432  13.909
 6945W        W75350  23.000  25.607   0.274
 6946W        W75351  42.963  19.689   1.729
 6947W        W75352  29.496  35.656  13.500
 6948W        W75353   0.421  34.206   4.113
 6949W        W75354  19.640  23.088  12.061
 6950W        W75355  15.879  32.094   0.364
 6951W        W75356  33.652   5.694   2.349
 6952W        W75357  22.669  38.251  14.543
 6953W        W75358  17.465  25.304   1.870
 6954W        W75359  22.326  22.027  12.130
 6955W        W75360  22.285  36.919  14.918
 6956W        W75361  16.039   9.296   4.093
 6957W        W75362   1.774   6.247   2.736
 6958W        W75363   3.259  26.867   1.912
 6959W        W75364  40.800  34.841   0.798
 6960W        W75365  43.305  37.333   4.229
 6961W        W75366   0.353  31.002  14.661
 6962W        W75367   8.171  39.833  11.586
 6963W        W75368  10.414   9.227  14.872
 6964W        W75369  38.032  42.835  10.801
 6965W        W75370  13.523   3.110  11.170
 6966W        W75371  28.245  21.548  10.659
 6967W        W75372  24.184  10.116   2.293
 6968W        W75373   6.160  22.012  13.090
 6969W        W75374  35.871  14.823   3.267
 6970W        W75375   2.763  24.613   0.468
 6971W        W75376  37.272   1.056   4.087
 6972W        W75377   0.489  30.482  10.754
 6973W        W75378  26.105   4.652  10.398
 6974W        W75379   7.692   3.615  11.620
 6975W        W75380  13.025   2.830  13.375
 6976W        W75381  40.554  20.074  12.541
 6977W        W75382  16.011  29.885  11.687
 6978W        W75383  21.988  33.149  12.875
 6979W        W75384  20.053  25.616   3.453
 6980W        W75385  36.624  30.021   0.363
 6981W        W75386  43.859  19.762   3.294
 6982W        W75387   6.751  27.885   2.626
 6983W        W75388  38.901  20.750   2.806
 6984W        W75389  44.229   3.013   0.261
 6985W        W75390  33.357  36.027   1.476
 6986W        W75391  17.459  19.770   3.175
 6987W        W75392  12.621  43.354  11.946
 6988W        W75393  40.404  44.803   4.602
 6989W        W75394  11.913   5.095   2.180
 6990W        W75395  12.705  12.096   1.690
 6991W        W75396   8.230  13.805   2.856
 6992W        W75397  27.019  12.307  14.802
 6993W        W75398  17.045  16.783   4.552
 6994W        W75399  26.464  37.328   2.799
 6995W        W75400  37.638  14.030  12.005
 6996W        W75401   9.738  12.777   3.868
 6997W        W75402  32.161  33.779  13.853
 6998W        W75403  44.813  31.703  13.100
 6999W        W75404  33.509  13.896  11.440
 7000W        W75405  15.713  43.427   0.473
 7001W        W75406   7.251  44.571   2.328
 7002W        W75407   3.247   7.887   5.409
 7003W        W75408   8.176  33.320   0.432
 7004W        W75409  44.940  36.048   3.136
 7005W        W75410  36.113  44.037  12.117
 7006W        W75411  10.874  24.721   2.786
 7007W        W75412   9.630  13.199   4.880
 7008W        W75413  25.000   4.178  13.887
 7009W        W75414  43.583   6.705   1.789
 7010W        W75415   3.404  40.525  13.804
 7011W        W75416   8.052  34.062   2.622
 7012W        W75417  31.427   0.502  11.915
 7013W        W75418  14.202   7.676  11.170
 7014W        W75419  35.328  12.692  10.511
 7015W        W75420  33.539   0.288  13.257
 7016W        W75421   8.842  37.903  12.477
 7017W        W75422  27.350   7.745  11.364
 7018W        W75423  22.032   4.415  14.291
 7019W        W75424  43.786  40.751  10.703
 7020W        W75425   6.878   7.909   4.188
 7021W        W75426  32.965   9.097   0.344
 7022W        W75427  21.238  41.880   3.114
 7023W        W75428  17.356  18.578   4.210
 7024W        W75429   3.829  29.454   0.488
 7025W        W75430  20.663  28.618  14.934
 7026W        W75431  28.334  31.565   1.814
 7027W        W75432  36.890  25.959   1.040
 7028W        W75433   9.336   8.660  11.278
 7029W        W75434   1.397  35.754   0.956
 7030W        W75435  35.428  17.553  12.715
 7031W        W75436  34.671  32.574   0.872
 7032W        W75437  33.646  24.712  13.053
 7033W        W75438  10.302  18.627   1.153
 7034W        W75439  43.440   9.888   4.451
 7035W        W75440  40.293  19.366   0.908
 7036W        W75441  29.057   6.958   1.226
 7037W        W75442  37.837  19.663   0.930
 7038W        W75443  25.935  30.650   1.332
 7039W        W75444  37.098   5.369  13.584
 7040W        W75445  32.136  42.370  13.072
 7041W        W75446  13.826  19.869   4.194
 7042W        W75447   9.787  32.464  11.701
 7043W        W75448  18.766  42.020  14.790
 7044W        W75449  26.528  24.883  14.817
 7045W        W75450  21.512  21.951   1.060
 7046W        W75451   4.221  35.633  13.514
 7047W        W75452   1.009  38.344  14.458
 7048W        W75453  38.696  23.420  12.921
 7049W        W75454  17.771  24.487   3.753
 7050W        W75455  14.713  43.713   4.583
 7051W        W75456  33.067  42.510  12.141
 7052W        W75457  27.441  18.716   0.122
 7053W        W75458  42.484  34.562   3.289
 7054W        W75459  42.121  32.030  11.629
 7055W        W75460  31.710  16.274   2.674
 7056W        W75461   1.344   3.604   3.162
 7057W        W75462  35.509   0.228  10.677
 7058W        W75463  13.305  10.746  13.908
 7059W        W75464   4.117  38.754   2.593
 7060W        W75465  24.716  16.882  13.504
 7061W        W75466  20.230  27.395  12.559
 7062W        W75467  41.462  18.350   2.546
 7063W        W75468  24.300  26.087   1.335
 7064W        W75469  20.920  19.555   3.230
 7065W        W75470  25.987  30.110  12.691
 7066W        W75471  44.537  16.045  11.066
 7067W        W75472   4.401  41.269  11.182
 7068W        W75473  22.630  36.580   3.738
 7069W        W75474  11.766  11.661  12.658
 7070W        W75475   4.179  22.108  11.071
 7071W        W75476  43.188  27.123  13.980
 7072W        W75477   7.529  33.519  10.723
 7073W        W75478  39.971  27.650   0.936
 7074W        W75479  38.366   4.889  11.415
 7075W        W75480  12.798  35.868   9.663
 7076W        W75481  27.947  15.075   3.048
 7077W        W75482   5.805  27.164  10.690
 7078W        W75483  40.543  22.988  13.217
 7079W        W75484  20.906  21.629   4.752
 7080W        W75485  10.192  28.180   0.761
 7081W        W75486  17.567  27.597  10.677
 7082W        W75487  39.719   6.988  14.348
 7083W        W75488  31.695  41.574  11.506
 7084W        W75489  24.194  12.154   4.323
 7085W        W75490  17.642  43.976   0.588
 7086W        W75491   7.336  42.913  14.908
 7087W        W75492  40.110  17.843   4.632
 7088W        W75493   3.242  19.586   0.928
 7089W        W75494  16.044   0.357  13.773
 7090W        W75495  27.639   3.606   3.157
 7091W        W75496  41.802   2.151   1.708
 7092W        W75497  10.633  28.987   1.314
 7093W        W75498  44.013  42.234   1.773
 7094W        W75499  20.078  13.353   1.643
 7095W        W75500  42.399  43.968  11.524
 7096W        W75501  14.265  20.266  13.978
 7097W        W75502  16.252  30.856  13.039
 7098W        W75503  27.210   9.567  13.816
 7099W        W75504  10.125  25.985   0.316
 7100W        W75505  41.723   7.819  13.817
 7101W        W75506   3.612   6.017   3.180
 7102W        W75507  14.315  36.619  13.297
 7103W        W75508  14.895  41.279  12.017
 7104W        W75509   6.189  34.969   0.440
 7105W        W75510  13.022  20.314  11.841
 7106W        W75511  26.432  42.870   0.983
 7107W        W75512  27.385  14.205   2.572
 7108W        W75513   8.868  21.598   2.545
 7109W        W75514  11.287   3.493  13.049
 7110W        W75515  37.481   1.804  13.423
 7111W        W75516  11.313  16.436  12.680
 7112W        W75517  19.722  37.863  14.829
 7113W        W75518   0.844   8.298   4.185
 7114W        W75519   7.151  34.959   1.628
 7115W        W75520   2.617  36.023   4.581
 7116W        W75521   3.853  36.741   1.987
 7117W        W75522  35.019  34.193  13.138
 7118W        W75523  37.112  14.502   0.819
 7119W        W75524  43.916  12.266   2.142
 7120W        W75525  25.999  23.742  12.599
 7121W        W75526  10.784   2.336  10.797
 7122W        W75527   1.501   6.071  13.297
 7123W        W75528  30.547  27.866   4.927
 7124W        W75529  42.975   6.870   2.835
 7125W        W75530  32.999  44.086   0.743
 7126W        W75531  33.870  44.629   4.569
 7127W        W75532   0.357  12.874   1.035
 7128W        W75533  20.025  38.014   4.612
 7129W        W75534  16.643   0.404  10.550
 7130W        W75535  31.816   7.440   0.399
 7131W        W75536  10.782  18.518   0.217
 7132W        W75537  39.535   7.992   4.442
 7133W        W75538  18.872  30.095   0.964
 7134W        W75539   5.435  34.895  13.746
 7135W        W75540  11.788   7.390   3.168
 7136W        W75541   7.930  42.358  12.058
 7137W        W75542  10.186  34.108   1.278
 7138W        W75543  15.897  18.768  14.763
 7139W        W75544  12.900  26.095   2.406
 7140W        W75545  18.747  36.094   0.899
 7141W        W75546  14.032  43.325  13.534
 7142W        W75547  25.991  18.974  10.522
 7143W        W75548  33.017  30.360   0.924
 7144W        W75549   1.336  28.221  12.686
 7145W        W75550  22.981  24.127   2.754
 7146W        W75551  18.559  25.589  14.588
 7147W        W75552  39.860   4.473  11.069
 7148W        W75553  14.983  18.301   4.271
 7149W        W75554  32.294  22.311   4.269
 7150W        W75555   5.687  35.841  11.085
 7151W        W75556  38.502   3.210   3.654
 7152W        W75557   1.822  26.975   0.485
 7153W        W75558  10.656   9.464  11.949
 7154W        W75559  22.566  22.994  14.396
 7155W        W75560   0.975  34.610  10.595
 7156W        W75561  18.804  35.419   1.745
 7157W        W75562   6.734   4.733   2.528
 7158W        W75563  18.836  16.023   4.307
 7159W        W75564  15.131  38.555   2.981
 7160W        W75565  44.698   6.800   4.137
 7161W        W75566   2.539  44.407  13.314
 7162W        W75567  34.355  43.540   0.700
 7163W        W75568  35.705   4.987   0.811
 7164W        W75569  34.326  44.170  10.691
 7165W        W75570  15.580  29.747   1.486
 7166W        W75571  33.214  32.079  10.648
 7167W        W75572  17.851   7.421  11.535
 7168W        W75573   4.778  33.414  13.039
 7169W        W75574  28.120  30.605  13.009
 7170W        W75575  37.523   7.940  13.484
 7171W        W75576  35.283  43.787  10.456
 7172W        W75577  26.584  11.773  11.476
 7173W        W75578   3.948   7.964   1.898
 7174W        W75579  32.371  21.038   1.687
 7175W        W75580  24.113   0.197  11.052
 7176W        W75581  16.564  34.297   0.157
 7177W        W75582  10.495  38.338  11.478
 7178W        W75583  42.074  37.813   3.072
 7179W        W75584  27.439  13.754   4.642
 7180W        W75585  28.022  17.265   0.857
 7181W        W75586  34.109  39.941   4.220
 7182W        W75587  32.811  40.650  12.926
 7183W        W75588  39.814  35.736   3.576
 7184W        W75589   4.777  17.638  13.890
 7185W        W75590  36.993  28.192   2.164
 7186W        W75591   9.410  39.269   3.637
 7187W        W75592  18.414  43.107   0.595
 7188W        W75593  43.495  12.394   1.524
 7189W        W75594   3.365  40.947  10.733
 7190W        W75595  29.886  36.781   4.688
 7191W        W75596  27.652  17.022   0.498
 7192W        W75597  27.758   0.366   2.656
 7193W        W75598  35.293  40.577   2.754
 7194W        W75599  30.920  38.156  14.383
 7195W        W75600   7.869  25.120   4.528
 7196W        W75601  11.838  33.651  10.768
 7197W        W75602  12.002  15.910   4.187
 7198W        W75603  11.151  10.322  14.687
 7199W        W75604  17.091  34.631  11.364
 7200W        W75605  30.412  22.076   3.767
 7201W        W75606  43.729  35.121   0.550
 7202W        W75607  37.899  28.508   1.703
 7203W        W75608   6.667  31.716  10.637
 7204W        W75609  16.230  37.037  12.642
 7205W        W75610  24.022  13.419  12.610
 7206W        W75611  14.388  44.932  13.293
 7207W        W75612   3.925   0.482   0.830
 7208W        W75613  40.886  10.756  10.587
 7209W        W75614  44.490  13.282   3.800
 7210W        W75615  35.379  36.458  14.778
 7211W        W75616   2.036  29.126  11.606
 7212W        W75617   2.527   3.279  12.157
 7213W        W75618   8.269  44.359   0.350
 7214W        W75619  11.704   5.670   1.372
 7215W        W75620  14.843  18.478  11.301
 7216W        W75621   8.721  16.852  12.946
 7217W        W75622   1.581  25.710   2.580
 7218W        W75623  31.142  38.925   4.133
 7219W        W75624  38.903  17.723   2.720
 7220W        W75625  28.610  34.328   1.131
 7221W        W75626  14.832  37.874  13.467
 7222W        W75627  27.055  20.894   1.768
 7223W        W75628  12.129  11.299  14.852
 7224W        W75629  13.459  19.676   0.058
 7225W        W75630  27.093   0.012   3.792
 7226W        W75631   1.206  23.224  10.746
 7227W        W75632  20.191   1.302  11.422
 7228W        W75633  22.070  27.239  12.823
 7229W        W75634  43.020  30.847   4.077
 7230W        W75635  27.732  37.634  14.136
 7231W        W75636  43.515  11.282   4.613
 7232W        W75637   9.855  17.285   2.631
 7233W        W75638  40.007  43.931  11.616
 7234W        W75639  44.201  32.564   2.007
 7235W        W75640   3.154  17.045   2.596
 7236W        W75641  37.621  22.316   1.509
 7237W        W75642   0.140   3.187   0.943
 7238W        W75643   9.730  34.651   0.563
 7239W        W75644   2.368  34.333   1.439
 7240W        W75645   4.900  21.570  11.392
 7241W        W75646  37.882  41.015   1.860
 7242W        W75647  19.570  22.630  11.283
 7243W        W75648  24.245  35.415   3.178
 7244W        W75649   0.407  34.587   2.622
 7245W        W75650   1.889  29.995   4.671
 7246W        W75651  26.949  12.044  11.885
 7247W        W75652  18.334  29.205   3.180
 7248W        W75653   1.959  17.364  14.421
 7249W        W75654  21.834  24.208   0.938
 7250W        W75655  11.611  16.001  10.591
 7251W        W75656   7.685  11.567  11.137
 7252W        W75657  18.804  15.748  10.846
 7253W        W75658   3.853  14.395   2.620
 7254W        W75659  25.041  41.813   0.971
 7255W        W75660  37.407  15.360   0.871
 7256W        W75661  15.130  39.077   2.286
 7257W        W75662  37.748  10.290   1.202
 7258W        W75663   5.764  32.951   4.494
 7259W        W75664  33.175  20.616  12.656
 7260W        W75665  40.035  33.425  10.019
 7261W        W75666  39.535  11.268  14.275
 7262W        W75667   4.475  31.898  12.169
 7263W        W75668  10.207  22.745   4.124
 7264W        W75669  34.010  42.346  14.376
 7265W        W75670  40.731  34.952   3.400
 7266W        W75671  40.515  42.541  11.174
 7267W        W75672  21.749  26.633  13.474
 7268W        W75673  17.240  38.570   3.863
 7269W        W75674  13.549   4.245   1.702
 7270W        W75675  43.533  37.151  12.420
 7271W        W75676   7.852  12.148   1.392
 7272W        W75677  35.558  44.227  10.543
 7273W        W75678  35.691   4.956  12.472
 7274W        W75679  44.378   8.820   4.115
 7275W        W75680  17.617  26.177   0.851
 7276W        W75681  22.213   4.817  13.572
 7277W        W75682   5.283  15.529   2.730
 7278W        W75683  41.983  43.048   1.481
 7279W        W75684  22.228  23.479  11.483
 7280W        W75685  38.928   6.863  11.863
 7281W        W75686  31.994   3.970  12.807
 7282W        W75687  22.591  10.075  11.605
 7283W        W75688  15.604   8.732   0.180
 7284W        W75689  14.842  15.989   3.615
 7285W        W75690   9.235  32.133   4.371
 7286W        W75691  22.440  30.388  13.410
 7287W        W75692  13.617  21.992  10.510
 7288W        W75693   8.019  19.930   3.812
 7289W        W75694  18.682  10.243   1.840
 7290W        W75695   9.820  34.433   1.505
 7291W        W75696  13.440  35.301  12.884
 7292W        W75697  41.959   3.826   0.060
 7293W        W75698   2.540  16.623  12.511
 7294W        W75699  15.186  35.409  14.149
 7295W        W75700   1.255  40.179   0.246
 7296W        W75701   0.909  31.512  14.486
 7297W        W75702  27.191   9.374   2.446
 7298W        W75703   8.196   0.652  14.769
 7299W        W75704  24.325  21.340   2.522
 7300W        W75705  17.082   4.311   0.404
 7301W        W75706  44.834  32.888  13.943
 7302W        W75707   0.076  10.629  14.772
 7303W        W75708   9.200   0.790  12.138
 7304W        W75709  19.970  30.075  11.472
 7305W        W75710  17.483  40.388  11.146
 7306W        W75711  12.167  36.454  12.963
 7307W        W75712   1.800   4.417  14.901
 7308W        W75713  37.572   9.387   0.029
 7309W        W75714  33.684  18.637   1.400
 7310W        W75715  31.751  16.297  11.536
 7311W        W75716  16.402  19.771   4.536
 7312W        W75717  44.300  24.337   2.123
 7313W        W75718  28.914   4.639  11.901
 7314W        W75719   2.996   5.257  10.726
 7315W        W75720  21.114  24.037  13.705
 7316W        W75721  19.452  39.487   0.117
 7317W        W75722  36.162  24.941  11.040
 7318W        W75723  23.696  25.003  11.610
 7319W        W75724  24.962   9.755   0.928
 7320W        W75725  41.063  35.260   3.098
 7321W        W75726  34.936  15.242  13.051
 7322W        W75727  14.623  29.224   0.775
 7323W        W75728  24.737  42.998  14.036
 7324W        W75729  10.736  23.584   4.499
 7325W        W75730  30.626  41.024  12.483
 7326W        W75731   6.902  28.772  14.913
 7327W        W75732  36.931   8.668  12.170
 7328W        W75733  44.167   1.012  12.563
 7329W        W75734  32.170  14.685   4.274
 7330W        W75735  26.734  18.235   4.586
 7331W        W75736  41.741  36.311  13.947
 7332W        W75737   3.226  18.151  14.025
 7333W        W75738  34.661  41.358   1.611
 7334W        W75739   8.940   1.833   2.725
 7335W        W75740  41.267  18.179  12.569
 7336W        W75741   9.905  23.679  14.945
 7337W        W75742  12.107  36.883   2.899
 7338W        W75743  29.072  40.178   2.451
 7339W        W75744  23.587   2.434   1.753
 7340W        W75745  26.601   9.382   3.809
 7341W        W75746  11.691  12.357  11.090
 7342W        W75747  44.865  33.437  12.654
 7343W        W75748  38.889  43.707  14.882
 7344W        W75749  24.520  18.099   0.359
 7345W        W75750  26.947  28.922  14.735
 7346W        W75751  10.199   0.868   1.888
 7347W        W75752  19.689  35.151  11.934
 7348W        W75753  19.026   0.655  14.859
 7349W        W75754  30.211  16.653  12.980
 7350W        W75755   8.456  30.021  14.481
 7351W        W75756  39.995  41.713   0.555
 7352W        W75757   4.894  11.600  12.054
 7353W        W75758   8.139  18.785   2.777
 7354W        W75759   5.248  28.245  13.297
 7355W        W75760   9.145   3.695  11.612
 7356W        W75761  33.334  24.884  12.068
 7357W        W75762  18.647  18.649   4.603
 7358W        W75763   4.753   9.178   2.836
 7359W        W75764  40.312   3.610   2.498
 7360W        W75765  38.372  41.360  14.851
 7361W        W75766   5.587  31.472   2.935
 7362W        W75767  42.012   1.825   3.682
 7363W        W75768  32.176   3.213  11.121
 7364W        W75769  30.521   0.595  10.524
 7365W        W75770  31.088  17.274  11.051
 7366W        W75771  11.396  22.715  14.803
 7367W        W75772  39.465   1.445  11.223
 7368W        W75773  22.408  17.124  12.082
 7369W        W75774  14.719  27.131   2.741
 7370W        W75775  23.576  41.885   0.528
 7371W        W75776  32.869   0.733  14.726
 7372W        W75777  21.682  41.730   4.864
 7373W        W75778  30.596  26.044  12.456
 7374W        W75779  36.093   1.086   0.896
 7375W        W75780  24.250  15.696   3.605
 7376W        W75781  30.161  32.595  14.825
 7377W        W75782  30.688  12.206  12.874
 7378W        W75783   2.639  37.931  14.970
 7379W        W75784  16.596   5.116  14.732
 7380W        W75785  16.951  17.624  13.377
 7381W        W75786  14.406  34.923   0.761
 7382W        W75787  21.048  20.504   1.410
 7383W        W75788  22.177   7.702  11.758
 7384W        W75789   6.049  39.412   1.449
 7385W        W75790  37.885  11.221   0.314
 7386W        W75791  43.534  38.557  12.593
 7387W        W75792  16.257  39.333  12.003
 7388W        W75793  25.635  40.451  10.152
 7389W        W75794   3.372  22.960   3.794
 7390W        W75795  42.249   9.851  11.593
 7391W        W75796  32.919  32.512  10.722
 7392W        W75797   1.472  15.841   3.606
 7393W        W75798  34.565  24.789   4.680
 7394W        W75799  23.186  18.224  13.539
 7395W        W75800   9.597  15.919   2.753
 7396W        W75801  27.569  30.202   3.683
 7397W        W75802  33.784   0.205  11.008
 7398W        W75803  30.158  34.068   3.755
 7399W        W75804  12.473  42.072  10.669
 7400W        W75805   0.351  13.665   3.129
 7401W        W75806   5.159  25.449  12.608
 7402W        W75807   8.203  10.750   4.597
 7403W        W75808  16.713  20.745  13.168
 7404W        W75809  25.570  14.051  14.822
 7405W        W75810  13.160  18.578  10.931
 7406W        W75811  15.323  24.069   5.177
 7407W        W75812  28.706  37.381   3.686
 7408W        W75813  12.929  13.133   4.279
 7409W        W75814  33.978  41.013  13.349
 7410W        W75815  32.470  44.218   0.684
 7411W        W75816  14.243   9.410   2.026
 7412W        W75817  28.977   9.894   0.317
 7413W        W75818   2.572  26.558   3.631
 7414W        W75819  12.530  12.088   2.180
 7415W        W75820   6.239  39.999   2.258
 7416W        W75821   4.812  13.379  14.405
 7417W        W75822   6.170   3.523  13.487
 7418W        W75823  17.328  11.733   5.151
 7419W        W75824   5.314   4.718  11.474
 7420W        W75825  13.726  34.178   1.520
 7421W        W75826  44.435  40.304  13.955
 7422W        W75827  11.150  13.375  12.460
 7423W        W75828  29.846  15.776  11.943
 7424W        W75829  18.635   3.713  14.252
 7425W        W75830   1.157  14.030  12.111
 7426W        W75831  11.153  31.632  11.990
 7427W        W75832  37.535  36.303  14.429
 7428W        W75833   5.884  29.628   4.603
 7429W        W75834   3.345  40.675   4.036
 7430W        W75835  44.803  18.799  10.959
 7431W        W75836  38.025   4.841   2.173
 7432W        W75837  30.469   4.404  12.895
 7433W        W75838  31.635  13.176   3.600
 7434W        W75839   5.799  28.688   2.275
 7435W        W75840  24.631  24.554  10.732
 7436W        W75841  27.024   8.318  13.591
 7437W        W75842  10.891  40.299  11.483
 7438W        W75843  12.256   3.887   4.770
 7439W        W75844  11.159  32.882   1.190
 7440W        W75845  37.945  21.971   3.326
 7441W        W75846   2.965  35.013  13.082
 7442W        W75847   6.472  32.391   1.805
 7443W        W75848  29.735   4.734   1.725
 7444W        W75849  30.380   8.346  14.552
 7445W        W75850  44.611   8.263  13.979
 7446W        W75851  28.241  21.778   2.793
 7447W        W75852   8.961  21.583  12.555
 7448W        W75853  34.288   2.149   0.783
 7449W        W75854  31.972  41.857   2.759
 7450W        W75855  42.870   8.871  11.242
 7451W        W75856  15.736  33.490   5.075
 7452W        W75857  15.069  12.421  14.032
 7453W        W75858  34.059   1.896   0.400
 7454W        W75859  22.004   5.576   3.592
 7455W        W75860  28.479   7.086   4.653
 7456W        W75861   0.365   0.492  13.064
 7457W        W75862  43.202  33.029  10.656
 7458W        W75863  19.257  31.804  10.655
 7459W        W75864   1.510   3.333   2.758
 7460W        W75865  31.748  18.808  13.658
 7461W        W75866  44.394  27.627  10.573
 7462W        W75867   4.786  17.271   0.836
 7463W        W75868  38.946  20.504   2.362
 7464W        W75869  31.467  41.925  13.538
 7465W        W75870  28.027  28.652  10.384
 7466W        W75871  41.373  27.622  12.920
 7467W        W75872  43.159  44.346  11.952
 7468W        W75873   3.283   0.151  10.313
 7469W        W75874  14.869   1.402   4.234
 7470W        W75875   5.916  36.403   1.941
 7471W        W75876  34.652  13.122  12.451
 7472W        W75877  39.947  21.920  14.894
 7473W        W75878  25.729  43.529   3.266
 7474W        W75879   8.913  25.469  12.949
 7475W        W75880  37.960   0.776   0.842
 7476W        W75881  27.427  14.682  10.238
 7477W        W75882  41.470  26.109  11.007
 7478W        W75883  30.909  36.060  12.129
 7479W        W75884  31.901   9.591  12.849
 7480W        W75885  27.777   0.260  11.487
 7481W        W75886  29.206   4.243  12.034
 7482W        W75887  31.063  43.925  12.958
 7483W        W75888  28.304  18.639   4.925
 7484W        W75889   6.744  37.330  13.822
 7485W        W75890  43.331   0.104   4.418
 7486W        W75891  28.903   7.026   3.386
 7487W        W75892  22.240   4.355   1.790
 7488W        W75893   6.798  13.705  13.725
 7489W        W75894  34.747  28.707   4.341
 7490W        W75895   0.896  24.175   4.598
 7491W        W75896  17.300  27.139  10.618
 7492W        W75897   1.769  33.393   4.566
 7493W        W75898  11.158  10.075   4.773
 7494W        W75899  10.926  40.526  12.495
 7495W        W75900   1.244  33.506   0.542
 7496W        W75901  33.130  19.810  11.650
 7497W        W75902  23.778  41.495  12.840
 7498W        W75903   9.383   3.391  12.528
 7499W        W75904  28.507   3.969  14.968
 7500W        W75905   3.871  41.818  12.049
 7501W        W75906  13.371  36.246  10.557
 7502W        W75907  14.757  20.408  12.831
 7503W        W75908  17.834  33.577   1.365
 7504W        W75909  44.331   3.945  13.382
 7505W        W75910  29.975   1.266  14.027
 7506W        W75911  43.336   4.263   4.669
 7507W        W75912   6.256   9.016   4.618
 7508W        W75913  22.732  12.274  12.091
 7509W        W75914  35.093  11.279   1.992
 7510W        W75915  33.867  39.767   2.824
 7511W        W75916  38.247  24.537   3.618
 7512W        W75917  43.406  33.317  12.152
 7513W        W75918  29.420  39.002   1.909
 7514W        W75919   4.985  22.825   3.232
 7515W        W75920  43.556  35.951  13.943
 7516W        W75921  10.809  33.598  13.511
 7517W        W75922  18.790  28.996   3.233
 7518W        W75923   0.553   3.711  13.870
 7519W        W75924  23.001  25.991   3.748
 7520W        W75925   6.348  23.154  11.361
 7521W        W75926   6.851  39.934   4.295
 7522W        W75927  26.856  35.050   1.689
 7523W        W75928  11.235  40.331  11.096
 7524W        W75929   9.702  35.352  14.968
 7525W        W75930  25.166   8.389  11.207
 7526W        W75931  27.997  34.543  14.083
 7527W        W75932  16.750  44.842  14.243
 7528W        W75933  16.727  27.462   3.887
 7529W        W75934  44.747  25.200  11.598
 7530W        W75935  10.944   3.240   1.773
 7531W        W75936   1.452  33.531   1.903
 7532W        W75937  29.712  35.344  14.894
 7533W        W75938  25.999  37.410  12.074
 7534W        W75939  24.673  34.632  12.028
 7535W        W75940  42.262  34.525  14.771
 7536W        W75941  31.181  31.643   2.125
 7537W        W75942  42.445  34.398   0.246
 7538W        W75943  29.548  23.379   1.509
 7539W        W75944  38.643  31.955   5.020
 7540W        W75945  27.574   2.166   3.301
 7541W        W75946  33.480  27.410  11.186
 7542W        W75947  28.990  19.028  13.975
 7543W        W75948  15.582  18.785   4.848
 7544W        W75949  19.898  36.464  11.293
 7545W        W75950  10.630  36.177   0.377
 7546W        W75951   5.444  26.522   2.462
 7547W        W75952  40.580  10.193   4.502
 7548W        W75953  21.245  29.487   0.013
 7549W        W75954  27.735  17.270  14.405
 7550W        W75955  42.300  19.795  12.045
 7551W        W75956   2.800  40.031  13.831
 7552W        W75957   5.237  37.455  11.132
 7553W        W75958  23.618  39.501   2.755
 7554W        W75959  27.401  29.694   3.678
 7555W        W75960   9.810  39.229   4.596
 7556W        W75961  21.599  44.390   0.726
 7557W        W75962   8.164  37.007  14.881
 7558W        W75963  13.219  16.302   4.726
 7559W        W75964  44.536  25.317   5.083
 7560W        W75965  11.835  37.040  11.735
 7561W        W75966  12.767  31.711  13.354
 7562W        W75967   5.910  40.297   1.929
 7563W        W75968   6.241   4.378   2.684
 7564W        W75969  20.856  11.697  12.813
 7565W        W75970   2.914  21.460   3.293
 7566W        W75971  12.357  42.246  11.210
 7567W        W75972  25.441  13.144  11.193
 7568W        W75973  30.329   1.276  14.910
 7569W        W75974  24.619  24.985   3.401
 7570W        W75975  19.466   5.777   9.732
 7571W        W75976  27.504  32.701   4.118
 7572W        W75977   7.748  42.567  11.638
 7573W        W75978  25.725   5.886   0.402
 7574W        W75979   6.479  36.940   3.839
 7575W        W75980  32.129  27.046  12.496
 7576W        W75981  29.194  24.599   3.407
 7577W        W75982  31.486  43.775   4.191
 7578W        W75983   8.398  44.705   4.661
 7579W        W75984  19.111  13.425  12.572
 7580W        W75985  21.783  43.466  13.961
 7581W        W75986  36.008  12.685  13.354
 7582W        W75987  16.605   9.084  10.443
 7583W        W75988  17.518   5.993  11.609
 7584W        W75989  13.843  37.316   2.279
 7585W        W75990   6.172  15.342   4.604
 7586W        W75991   2.951  12.648  10.796
 7587W        W75992  25.660   6.594   1.475
 7588W        W75993   8.515   0.379   2.921
 7589W        W75994  20.164  42.771   4.575
 7590W        W75995   1.232  37.046   2.278
 7591W        W75996  23.635  23.007  12.451
 7592W        W75997  42.610   0.428  11.221
 7593W        W75998  17.798  29.529   4.369
 7594W        W75999  37.967   9.187  10.851
 7595W        W76000  13.183  41.432  11.521
 7596W        W76001  31.599  15.319  10.584
 7597W        W76002  32.599  19.498  10.582
 7598W        W76003  23.451  31.107   0.340
 7599W        W76004  21.759   7.478  11.948
 7600W        W76005  40.967  43.277  13.479
 7601W        W76006   4.300   6.531  12.158
 7602W        W76007   4.357  27.093   0.336
 7603W        W76008  18.244  31.576   3.811
 7604W        W76009  28.018  43.988  10.172
 7605W        W76010  36.778  12.014   4.152
 7606W        W76011  10.475  42.289  12.031
 7607W        W76012  37.656  19.074  14.502
 7608W        W76013  20.839   7.314   1.297
 7609W        W76014  38.156  24.826  11.321
 7610W        W76015  16.314  17.155  13.517
 7611W        W76016   5.919   1.266  11.584
 7612W        W76017  38.183  34.710   5.084
 7613W        W76018  23.161  17.183   2.761
 7614W        W76019   0.472  19.254  11.880
 7615W        W76020  25.429   2.840   1.870
 7616W        W76021  32.324  38.406   3.763
 7617W        W76022   4.805  27.865   4.060
 7618W        W76023  18.982  13.860   0.683
 7619W        W76024  31.704  39.352   4.030
 7620W        W76025  11.854   8.087   3.871
 7621W        W76026  14.589  23.193   1.017
 7622W        W76027  12.288  19.876  11.397
 7623W        W76028  32.470  28.080   2.361
 7624W        W76029   9.187   0.942   3.215
 7625W        W76030   8.370   2.217  11.981
 7626W        W76031  36.906  13.788   4.282
 7627W        W76032  19.623  35.363   2.650
 7628W        W76033  32.291  19.092  13.559
 7629W        W76034  31.233   7.168   1.696
 7630W        W76035  19.174   7.405   3.246
 7631W        W76036  16.186  28.882  14.271
 7632W        W76037  28.176  26.644  12.577
 7633W        W76038  38.288  11.641   1.195
 7634W        W76039  22.655  10.896  12.101
 7635W        W76040   9.820  29.577   2.599
 7636W        W76041  36.430  24.608   2.689
 7637W        W76042  36.994  21.165   1.907
 7638W        W76043  41.395   0.372  13.856
 7639W        W76044   3.456  32.894   2.370
 7640W        W76045  36.147  34.539   3.948
 7641W        W76046   7.234  34.526   3.665
 7642W        W76047  33.102  14.985  14.859
 7643W        W76048   1.881  12.596   4.145
 7644W        W76049  42.345  18.521   0.815
 7645W        W76050  14.090   0.118  10.847
 7646W        W76051  35.279  13.941  13.492
 7647W        W76052  26.665  42.720  13.014
 7648W        W76053  12.913  28.634  14.460
 7649W        W76054  16.371  27.504  14.325
 7650W        W76055  42.989  19.771   0.830
 7651W        W76056  37.534  38.670   3.719
 7652W        W76057  20.932  43.244   4.569
 7653W        W76058  12.723   1.807  12.352
 7654W        W76059  42.967  26.751   2.572
 7655W        W76060  19.538  20.465   0.253
 7656W        W76061   7.914  35.113   0.416
 7657W        W76062  38.334  13.673   2.300
 7658W        W76063  10.087  13.217   0.443
 7659W        W76064   9.015  31.852  14.794
 7660W        W76065  13.601   4.329   0.761
 7661W        W76066   9.867  14.372   4.859
 7662W        W76067  38.327  18.829  14.633
 7663W        W76068  31.579   1.849   0.536
 7664W        W76069  26.641  20.658   4.625
 7665W        W76070  17.731  30.615   4.146
 7666W        W76071   6.583   2.739   2.071
 7667W        W76072   6.913  29.450   1.246
 7668W        W76073   2.404  22.983  14.275
 7669W        W76074  12.676  35.501  11.114
 7670W        W76075   2.887  34.628  14.055
 7671W        W76076  16.271  29.830   4.088
 7672W        W76077  16.825  17.884  13.817
 7673W        W76078  11.042  21.476   4.534
 7674W        W76079  38.177   5.383   3.178
 7675W        W76080  30.061  10.188   0.415
 7676W        W76081  13.167   4.179  14.002
 7677W        W76082  22.006  22.613  13.906
 7678W        W76083  22.599   8.830   0.992
 7679W        W76084  24.308  34.938  10.807
 7680W        W76085  36.575  20.067  10.789
 7681W        W76086  31.985  32.337  10.371
 7682W        W76087   3.298  34.040  13.405
 7683W        W76088  24.248   3.740   2.772
 7684W        W76089  19.756   0.490   3.704
 7685W        W76090  27.487  19.967   3.300
 7686W        W76091  16.671   2.321  10.606
 7687W        W76092  14.075  19.748   2.632
 7688W        W76093  14.007  19.123   4.719
 7689W        W76094  21.670  37.494   4.846
 7690W        W76095  35.749  19.723  12.478
 7691W        W76096  40.241  27.111   0.077
 7692W        W76097  39.560  17.912   4.520
 7693W        W76098  14.136   5.210  12.895
 7694W        W76099  31.470  34.407   0.397
 7695W        W76100  15.747  13.871   3.287
 7696W        W76101   8.488  35.067  10.459
 7697W        W76102  14.036   5.433   1.238
 7698W        W76103  42.230   5.072   2.223
 7699W        W76104  34.417  16.145   4.736
 7700W        W76105  16.599  39.441  14.105
 7701W        W76106  16.523   8.304   2.303
 7702W        W76107  22.971  34.126  13.914
 7703W        W76108  16.261  23.491  14.448
 7704W        W76109   0.233  22.734  13.231
 7705W        W76110  44.089  25.786   4.186
 7706W        W76111   2.308  42.527   1.731
 7707W        W76112  41.517  23.139   2.003
 7708W        W76113  24.307  35.365   4.122
 7709W        W76114  16.126  27.494  11.389
 7710W        W76115  28.627  19.786   0.173
 7711W        W76116   3.706  37.944   4.289
 7712W        W76117  31.680  18.971   9.752
 7713W        W76118  34.350  14.749  14.464
 7714W        W76119  34.544  29.312  11.158
 7715W        W76120  40.320  18.333  11.507
 7716W        W76121   1.955  34.646   0.307
 7717W        W76122   5.740  30.620   3.750
 7718W        W76123  39.014   1.920   0.515
 7719W        W76124  28.777  40.005  13.983
 7720W        W76125   3.691  22.109   1.382
 7721W        W76126  34.438  14.814  11.948
 7722W        W76127  40.030   5.895  11.064
 7723W        W76128  37.592  23.485  11.593
 7724W        W76129   7.759  19.093  10.892
 7725W        W76130   3.004  42.382  13.030
 7726W        W76131  40.286  15.115   4.656
 7727W        W76132  29.909  31.594  13.393
 7728W        W76133  43.769  28.092   0.858
 7729W        W76134  34.958  18.225   1.050
 7730W        W76135   6.155  33.954   0.258
 7731W        W76136  37.392  37.546  11.976
 7732W        W76137  30.917  33.021   2.337
 7733W        W76138  35.636   9.804   2.733
 7734W        W76139  12.147  21.199   0.840
 7735W        W76140  37.949  14.940  11.698
 7736W        W76141  25.303  28.938   0.788
 7737W        W76142   9.939  29.165   0.715
 7738W        W76143  44.222   9.750   3.655
 7739W        W76144  16.067  42.049   0.493
 7740W        W76145  29.103   7.346   0.340
 7741W        W76146   3.207  13.940   0.846
 7742W        W76147  33.851  37.958   0.354
 7743W        W76148  41.440  18.735   0.192
 7744W        W76149  17.655  14.963   1.895
 7745W        W76150  24.707  22.257  14.049
 7746W        W76151   3.485  27.833  14.906
 7747W        W76152   4.435  37.080   4.599
 7748W        W76153  16.132  39.809  12.217
 7749W        W76154  37.233  15.726  12.905
 7750W        W76155  24.013  16.384  11.049
 7751W        W76156  16.717  31.603  11.430
 7752W        W76157  23.389   3.726   3.720
 7753W        W76158  42.723   5.373   0.882
 7754W        W76159  33.329  27.624  10.746
 7755W        W76160  32.620  41.759  11.474
 7756W        W76161  19.075  33.675  12.555
 7757W        W76162  33.943  33.963  11.136
 7758W        W76163  40.468   4.724  12.998
 7759W        W76164  41.338  21.665   2.799
 7760W        W76165   4.863  28.617   0.860
 7761W        W76166   7.436   1.241   2.926
 7762W        W76167   0.804  43.500  12.160
 7763W        W76168  18.788  39.586  14.590
 7764W        W76169  32.404  17.875   4.661
 7765W        W76170  41.075  19.539   3.756
 7766W        W76171  18.161  23.687   2.815
 7767W        W76172   2.723  12.212   2.889
 7768W        W76173   3.193  40.317   3.658
 7769W        W76174  35.922  25.151   0.855
 7770W        W76175  36.629  12.212  14.342
 7771W        W76176  10.254   2.627  13.924
 7772W        W76177  13.176  34.472  11.932
 7773W        W76178  42.307  11.126  14.987
 7774W        W76179  22.179  41.720   4.567
 7775W        W76180  34.326  21.790  14.500
 7776W        W76181  25.739   1.851   4.258
 7777W        W76182   5.930  19.536  11.651
 7778W        W76183   2.435  26.495   4.963
 7779W        W76184  25.597  21.959  14.436
 7780W        W76185  10.422  33.063  11.590
 7781W        W76186  28.911  25.961   2.983
 7782W        W76187  25.847  33.291  13.828
 7783W        W76188  19.316  14.710  13.484
 7784W        W76189  26.868  28.867  12.896
 7785W        W76190  19.140  41.624  14.002
 7786W        W76191  37.363   4.944   5.562
 7787W        W76192  41.873  39.772   4.120
 7788W        W76193  14.143  42.367  11.931
 7789W        W76194  29.541   8.973   0.987
 7790W        W76195  17.539   2.349   1.308
 7791W        W76196  29.974   2.909  12.320
 7792W        W76197  10.670  15.559   0.368
 7793W        W76198   5.238  36.455  10.815
 7794W        W76199  13.037  20.595  11.402
 7795W        W76200   3.796  14.251   1.804
 7796W        W76201  31.840   5.192   1.273
 7797W        W76202  10.331  33.048  12.865
 7798W        W76203   5.644  28.400   4.111
 7799W        W76204  43.744  20.555  12.026
 7800W        W76205  35.033  13.262  14.320
 7801W        W76206  26.881   9.942  12.525
 7802W        W76207  42.416  27.100   4.336
 7803W        W76208  22.494  21.865  12.581
 7804W        W76209  33.666  18.871   2.134
 7805W        W76210  17.821  15.580  13.923
 7806W        W76211   0.655  19.246  12.938
 7807W        W76212  21.947   9.886   0.097
 7808W        W76213  19.482  18.542   0.446
 7809W        W76214  20.241  23.452   1.203
 7810W        W76215  35.091  17.336   4.478
 7811W        W76216  42.315  11.879   1.286
 7812W        W76217  23.640   1.709  13.556
 7813W        W76218  11.153  14.792   1.917
 7814W        W76219  30.521  26.977  12.946
 7815W        W76220  16.265  13.621   2.303
 7816W        W76221  19.764  25.703  11.232
 7817W        W76222   1.700  18.653   1.895
 7818W        W76223  12.523  40.141  13.813
 7819W        W76224   2.855  44.768  11.126
 7820W        W76225   4.862  18.935  13.513
 7821W        W76226  27.072  18.277  12.592
 7822W        W76227  40.072   4.025  13.888
 7823W        W76228  28.754   5.103   4.806
 7824W        W76229  17.074  39.728  14.169
 7825W        W76230  29.326  15.376  11.039
 7826W        W76231  44.977   5.647  11.035
 7827W        W76232  35.990   8.936  14.400
 7828W        W76233  26.621  43.867  14.782
 7829W        W76234  22.191  28.414   0.778
 7830W        W76235  33.155   3.526  13.516
 7831W        W76236  21.507  39.262   3.774
 7832W        W76237  26.647  28.918   0.598
 7833W        W76238  16.013  18.475   0.877
 7834W        W76239  18.755  20.051  12.647
 7835W        W76240  11.030  38.245  11.391
 7836W        W76241  23.002  39.376   4.267
 7837W        W76242  35.755  13.287  14.042
 7838W        W76243  34.840  30.561   2.371
 7839W        W76244  22.925  43.370  10.604
 7840W        W76245   4.829   2.814   3.887
 7841W        W76246  39.750  12.053  12.549
 7842W        W76247  33.043   9.281  11.598
 7843W        W76248  32.470  19.986   0.685
 7844W        W76249  10.518  22.238   0.688
 7845W        W76250  23.310  11.335   1.326
 7846W        W76251  10.771  29.165   4.071
 7847W        W76252   4.387   6.313  11.043
 7848W        W76253   9.071  22.313   2.705
 7849W        W76254   7.102  13.253  13.407
 7850W        W76255  22.578  20.322   4.601
 7851W        W76256  25.029  44.448   0.516
 7852W        W76257   5.794   9.790   2.177
 7853W        W76258  41.524  26.106  10.504
 7854W        W76259  41.726  37.807   4.832
 7855W        W76260  27.200   8.245  13.105
 7856W        W76261   8.667  38.224  14.822
 7857W        W76262  15.597  27.437   1.775
 7858W        W76263  17.303  44.688   4.095
 7859W        W76264  28.317  16.546  11.942
 7860W        W76265  44.666  18.426   4.017
 7861W        W76266  40.316  18.518  14.831
 7862W        W76267  38.860   4.424   1.332
 7863W        W76268  26.947   8.895  14.928
 7864W        W76269  21.105  36.438  11.599
 7865W        W76270   5.911  33.306   2.838
 7866W        W76271  30.579  41.165   1.111
 7867W        W76272   8.887  33.158   2.208
 7868W        W76273  27.369  39.996  13.560
 7869W        W76274  20.639   9.778   4.523
 7870W        W76275  37.080  21.636  10.534
 7871W        W76276  31.653  42.073  11.418
 7872W        W76277  41.277  11.627   3.670
 7873W        W76278  19.314  24.440  11.819
 7874W        W76279   3.671  44.435   0.461
 7875W        W76280  17.382  27.445  12.792
 7876W        W76281  27.526  39.840   3.719
 7877W        W76282  25.118  36.106  11.350
 7878W        W76283   6.746  15.662  14.307
 7879W        W76284   0.967  14.832   1.506
 7880W        W76285   0.034  41.855   4.098
 7881W        W76286  11.457  18.240  13.295
 7882W        W76287  21.077  27.699  13.941
 7883W        W76288  35.661  11.830  11.260
 7884W        W76289   2.104   5.269   5.013
 7885W        W76290  44.955  36.485   2.847
 7886W        W76291  43.743   7.180  10.866
 7887W        W76292  38.769  22.033   3.241
 7888W        W76293  11.803  22.786  14.458
 7889W        W76294   1.015  15.689   1.883
 7890W        W76295  38.446  17.406  13.194
 7891W        W76296  29.029  42.406  10.317
 7892W        W76297  33.348   8.699   3.005
 7893W        W76298  25.229  37.076   3.577
 7894W        W76299  44.846  28.465   1.625
 7895W        W76300  12.254   8.728   4.322
 7896W        W76301   3.967  27.287  11.618
 7897W        W76302  26.646  42.066   3.399
 7898W        W76303  34.637   4.755  12.557
 7899W        W76304   3.983   3.812  13.503
 7900W        W76305  19.180  18.088   1.426
 7901W        W76306  41.104  19.046   3.490
 7902W        W76307  10.469   5.555   0.384
 7903W        W76308   2.362  10.530  14.983
 7904W        W76309  18.620  26.705   1.494
 7905W        W76310  30.884  18.627  12.944
 7906W        W76311  32.149   0.103   3.397
 7907W        W76312   1.432  18.746  11.975
 7908W        W76313  33.004  20.459  13.131
 7909W        W76314   2.417  42.103   0.913
 7910W        W76315  43.992  40.320   2.228
 7911W        W76316  39.166  19.171  14.381
 7912W        W76317  29.870  21.481  10.190
 7913W        W76318  40.076  21.041   2.943
 7914W        W76319  21.569  43.976   2.937
 7915W        W76320  22.137   4.350   3.198
 7916W        W76321   2.471  38.391  12.152
 7917W        W76322   3.374  34.524  14.251
 7918W        W76323  14.885   3.432   3.682
 7919W        W76324  43.525  24.978  13.328
 7920W        W76325  30.156  16.195   4.924
 7921W        W76326  41.460  21.976   1.365
 7922W        W76327  12.118  37.505   0.787
 7923W        W76328   8.718   9.099  12.884
 7924W        W76329   1.465  33.161   1.365
 7925W        W76330  13.936  29.035  12.923
 7926W        W76331  28.697  26.709  10.801
 7927W        W76332   2.478   3.826   3.062
 7928W        W76333  25.672  42.569  14.435
 7929W        W76334  39.810  41.527   2.300
 7930W        W76335   1.981  29.372   1.420
 7931W        W76336  23.260  14.308  12.998
 7932W        W76337   3.328  16.598  12.040
 7933W        W76338  37.985  39.055  11.521
 7934W        W76339  38.810  31.065  12.091
 7935W        W76340  10.687  41.485   3.809
 7936W        W76341  39.793  13.492  12.533
 7937W        W76342  12.864  39.303  12.312
 7938W        W76343   9.910  18.215   2.768
 7939W        W76344   0.571   5.445   3.279
 7940W        W76345   4.790  18.474  11.584
 7941W        W76346  19.522   3.540   0.040
 7942W        W76347  35.369   8.322  13.260
 7943W        W76348  28.318   8.116   3.840
 7944W        W76349  12.085  23.200   4.044
 7945W        W76350  32.039  31.947  11.609
 7946W        W76351  25.228  39.569  12.684
 7947W        W76352  22.118  42.022  13.992
 7948W        W76353   2.387  17.736  12.835
 7949W        W76354  23.967  24.156  14.804
 7950W        W76355   0.614  11.255  11.567
 7951W        W76356  37.602  13.705  13.212
 7952W        W76357  35.537  32.483  14.541
 7953W        W76358  19.181  29.495  10.464
 7954W        W76359  25.798  26.599  10.780
 7955W        W76360  35.488   9.204   3.977
 7956W        W76361  21.474  19.491   2.038
 7957W        W76362   1.955   2.658  13.956
 7958W        W76363  23.761  40.494   1.721
 7959W        W76364   5.639   8.232   4.758
 7960W        W76365   9.249   0.008   2.405
 7961W        W76366  30.609  16.105   1.289
 7962W        W76367  10.213  11.923  11.221
 7963W        W76368  39.431  22.832   2.374
 7964W        W76369   0.284   7.331  13.817
 7965W        W76370  39.037  22.590  10.727
 7966W        W76371   2.546   9.434   3.628
 7967W        W76372  14.721   1.884  13.869
 7968W        W76373  12.966  26.829  12.729
 7969W        W76374  17.280  20.259  10.645
 7970W        W76375  11.742  39.824   2.183
 7971W        W76376  35.917   4.995   0.318
 7972W        W76377  38.282  27.621   2.220
 7973W        W76378  18.275  13.288   0.916
 7974W        W76379  20.943   9.312  12.187
 7975W        W76380   4.865   9.869  14.661
 7976W        W76381  10.585  25.490  14.422
 7977W        W76382  16.108  37.904  10.669
 7978W        W76383  20.491  26.772  11.633
 7979W        W76384  19.160   6.785   1.781
 7980W        W76385   2.310  15.522   1.332
 7981W        W76386  33.348  36.204  14.875
 7982W        W76387  23.017  21.050   3.671
 7983W        W76388  31.433  13.906   2.870
 7984W        W76389  35.097  26.241   0.825
 7985W        W76390  12.602  16.202  14.037
 7986W        W76391  36.857  16.996  11.535
 7987W        W76392  42.136  41.578  12.518
 7988W        W76393   0.529  21.147  10.747
 7989W        W76394  35.125  14.346   1.320
 7990W        W76395  38.217   7.880   4.937
 7991W        W76396  44.864  23.089  13.362
 7992W        W76397  38.759   4.318   3.634
 7993W        W76398   2.973   6.419  13.523
 7994W        W76399  31.582  26.653  13.092
 7995W        W76400  43.693   2.964   2.904
 7996W        W76401  41.337  35.331   0.366
 7997W        W76402  10.475  14.780  12.155
 7998W        W76403  15.155  22.743  12.598
 7999W        W76404  12.602  28.345   0.887
 8000W        W76405  14.626   0.418  11.404
 8001W        W76406  22.280  14.682   4.597
 8002W        W76407  33.706   3.079  12.707
 8003W        W76408  32.092  30.759   3.698
 8004W        W76409   9.894  26.170  10.828
 8005W        W76410  32.892  20.967   2.595
 8006W        W76411  18.597  10.370  11.524
 8007W        W76412  25.189   7.909  11.893
 8008W        W76413  11.667   2.448   4.565
 8009W        W76414  16.711  19.617  13.509
 8010W        W76415  36.148  40.447  12.446
 8011W        W76416  41.989  19.729  14.311
 8012W        W76417  15.172  23.018   0.896
 8013W        W76418  13.201  30.763  13.305
 8014W        W76419  18.320  40.745   0.498
 8015W        W76420  12.228  29.061  10.336
 8016W        W76421  27.214   7.340   4.204
 8017W        W76422  21.949  32.153   1.271
 8018W        W76423  31.976   8.709   0.178
 8019W        W76424   9.497   5.784   0.888
 8020W        W76425  35.325  25.722  13.477
 8021W        W76426   1.469  30.600  10.430
 8022W        W76427   3.218  14.897   5.056
 8023W        W76428  39.764  36.916  14.524
 8024W        W76429  17.616   9.421  14.064
 8025W        W76430  44.790  30.882  12.892
 8026W        W76431  43.415  36.384   2.880
 8027W        W76432   6.057  13.001   1.273
 8028W        W76433  32.038  19.033  12.455
 8029W        W76434  27.357  31.392   2.994
 8030W        W76435  32.373  18.585   0.400
 8031W        W76436  17.775  38.539  11.876
 8032W        W76437  21.759  23.024   3.130
 8033W        W76438  19.045  28.685  13.607
 8034W        W76439   6.762   4.388  13.496
 8035W        W76440   2.943  14.268  11.505
 8036W        W76441   9.460  11.160   4.294
 8037W        W76442  15.383  43.027  11.554
 8038W        W76443   7.900   2.372  14.881
 8039W        W76444  13.246  23.504   1.725
 8040W        W76445  22.861   0.933   5.050
 8041W        W76446  35.998  36.815   2.330
 8042W        W76447  35.539  15.152   1.999
 8043W        W76448  18.074  17.693  13.614
 8044W        W76449   9.853  23.448  12.121
 8045W        W76450  39.821  15.399   4.649
 8046W        W76451   1.472   8.170   2.216
 8047W        W76452  21.624  15.636  14.044
 8048W        W76453  25.028  39.610   0.327
 8049W        W76454   1.397  36.386   2.903
 8050W        W76455   3.338  26.083   0.312
 8051W        W76456  14.986  12.319   4.120
 8052W        W76457  20.265  41.789   1.344
 8053W        W76458   8.822   5.336   0.763
 8054W        W76459  22.303  37.341   3.484
 8055W        W76460  37.490  32.960   3.226
 8056W        W76461  12.819  30.347  11.956
 8057W        W76462   4.913  40.600   5.125
 8058W        W76463  40.466  35.562  12.184
 8059W        W76464  26.778  31.558   4.607
 8060W        W76465  36.467  33.826  11.106
 8061W        W76466  30.134  33.472  13.274
 8062W        W76467  34.535  18.182   1.456
 8063W        W76468  12.261  31.598  10.546
 8064W        W76469  13.634  12.553   1.333
 8065W        W76470  12.825  34.340   2.767
 8066W        W76471  25.638  24.949   3.414
 8067W        W76472   5.439  28.003   3.319
 8068W        W76473  13.302   4.727   5.019
 8069W        W76474  13.111  34.194   0.988
 8070W        W76475  17.220  27.718  14.667
 8071W        W76476  34.563  41.362  11.935
 8072W        W76477  21.548  18.732   0.262
 8073W        W76478  28.956  36.337   2.302
 8074W        W76479   0.981  12.801   4.060
 8075W        W76480  31.041  23.654  12.527
 8076W        W76481  39.498   6.389  12.204
 8077W        W76482  10.250  11.275   3.280
 8078W        W76483  14.647   6.595  11.464
 8079W        W76484  26.077  19.150   4.637
 8080W        W76485  22.240  44.286  12.854
 8081W        W76486  39.868  38.311   4.141
 8082W        W76487  19.069  19.598  13.683
 8083W        W76488  30.054  29.743   0.951
 8084W        W76489  12.039  11.421   1.353
 8085W        W76490  16.464  37.227   4.532
 8086W        W76491  24.481  18.640  11.036
 8087W        W76492  37.353  26.050   3.589
 8088W        W76493  42.974   0.466   2.343
 8089W        W76494  20.043   0.970   3.672
 8090W        W76495  14.316  29.511  14.438
 8091W        W76496  18.383   3.319   4.155
 8092W        W76497   1.019  20.653   1.620
 8093W        W76498   1.719   2.789   1.814
 8094W        W76499  17.644  22.992  14.364
 8095W        W76500  38.249  40.967  10.611
 8096W        W76501   3.962   6.806   1.879
 8097W        W76502   1.761  34.106   4.079
 8098W        W76503  19.037  21.691  12.132
 8099W        W76504  36.336   5.825  11.574
 8100W        W76505  12.078  22.672  13.265
 8101W        W76506  35.245  39.474   0.144
 8102W        W76507  20.255  16.761  14.437
 8103W        W76508  34.955  31.205  13.853
 8104W        W76509  41.402   9.829   0.392
 8105W        W76510  22.983   0.406   4.479
 8106W        W76511   0.954   2.658  11.205
 8107W        W76512  20.645   7.625  11.346
 8108W        W76513  12.380  10.059   3.666
 8109W        W76514  42.586  30.691  14.519
 8110W        W76515   1.246  24.995  14.543
 8111W        W76516  19.832  15.137  13.987
 8112W        W76517   2.762  17.206  14.009
 8113W        W76518   1.555  19.343  14.876
 8114W        W76519  16.262  28.680   0.095
 8115W        W76520  17.077  26.098  11.426
 8116W        W76521  32.650   8.492  11.083
 8117W        W76522  32.198  26.114   3.746
 8118W        W76523  24.450  35.550   4.609
 8119W        W76524  17.225  14.646  12.860
 8120W        W76525   2.051  10.463   3.137
 8121W        W76526  25.293  15.726   4.577
 8122W        W76527  26.083  22.977   4.205
 8123W        W76528   8.840   6.234   0.356
 8124W        W76529   4.781  44.065   3.999
 8125W        W76530  44.518   9.376  12.535
 8126W        W76531  38.945  35.522   4.878
 8127W        W76532   9.618  17.891   4.992
 8128W        W76533   8.654  44.851  10.700
 8129W        W76534   4.972  43.648  12.264
 8130W        W76535  16.096  28.931  11.487
 8131W        W76536   0.664  20.769   3.658
 8132W        W76537  22.124  27.547   2.814
 8133W        W76538  22.074  40.507   1.948
 8134W        W76539  28.592   1.155   0.492
 8135W        W76540  12.384  33.416   2.963
 8136W        W76541  29.038  15.722   0.959
 8137W        W76542  32.864  27.665  12.428
 8138W        W76543  33.432   7.299  14.796
 8139W        W76544  27.530   2.304   0.946
 8140W        W76545  38.071  20.211   2.668
 8141W        W76546  17.220  12.625   2.424
 8142W        W76547  25.070  13.016   4.960
 8143W        W76548  38.893  10.370  12.916
 8144W        W76549  16.684  15.804   0.280
 8145W        W76550   3.396   8.255   3.262
 8146W        W76551  44.468   1.085   4.740
 8147W        W76552   6.961  20.716   2.943
 8148W        W76553  43.159   9.777  10.666
 8149W        W76554  41.085  10.840  14.410
 8150W        W76555   3.538  18.015  14.897
 8151W        W76556  20.072  27.182  13.009
 8152W        W76557  44.797  14.127   5.082
 8153W        W76558  41.206  33.687   3.632
 8154W        W76559  11.653  29.950   3.683
 8155W        W76560  12.080  15.698   1.358
 8156W        W76561  18.174  35.102  12.109
 8157W        W76562  10.788  34.621   1.716
 8158W        W76563  30.735  35.033  10.948
 8159W        W76564  10.639  21.964  13.856
 8160W        W76565  35.778  33.177  13.908
 8161W        W76566  19.718  32.461  13.463
 8162W        W76567  17.971   7.825   4.304
 8163W        W76568  26.128  11.194  11.671
 8164W        W76569  33.220   2.848   4.760
 8165W        W76570  34.759  17.354   2.919
 8166W        W76571   9.349   4.817  10.767
 8167W        W76572   7.449  20.501   2.970
 8168W        W76573  22.000  15.698  12.793
 8169W        W76574  16.612  44.807   1.981
 8170W        W76575  22.675   9.647  13.418
 8171W        W76576  43.758   3.971   2.603
 8172W        W76577   4.416   8.979   3.231
 8173W        W76578  31.426  36.357   4.768
 8174W        W76579  37.511  24.237  14.741
 8175W        W76580  24.968  17.555   2.992
 8176W        W76581  29.173  40.653  14.569
 8177W        W76582  24.949  31.943   0.031
 8178W        W76583  39.273  12.237  12.464
 8179W        W76584  15.263  26.093  12.623
 8180W        W76585  34.198  24.950   3.794
 8181W        W76586  11.438   2.188   2.295
 8182W        W76587   5.876  21.648   4.839
 8183W        W76588  13.466   3.821   5.352
 8184W        W76589  29.339  27.360   4.476
 8185W        W76590  37.686  27.701  14.106
 8186W        W76591  12.335  39.810  11.934
 8187W        W76592  40.362  38.399  14.703
 8188W        W76593  24.780  13.754   1.662
 8189W        W76594   0.294   1.987   1.697
 8190W        W76595   6.974  20.346   2.193
 8191W        W76596  26.474   7.115   3.206
 8192W        W76597   0.429  41.942   1.107
 8193W        W76598   9.617   9.302  12.453
 8194W        W76599   5.835   0.091   4.498
 8195W        W76600  15.145   2.473  11.155
 8196W        W76601   2.400  42.626  12.397
 8197W        W76602  20.765  17.571   2.172
 8198W        W76603  34.967  21.762   4.477
 8199W        W76604  39.044  11.857   4.610
 8200W        W76605  10.221  14.057  14.027
 8201W        W76606  16.174  16.054  11.577
 8202W        W76607   2.975   9.380   4.411
 8203W        W76608  17.792   2.389   4.370
 8204W        W76609  38.881  28.335  12.609
 8205W        W76610  39.158  13.309  11.681
 8206W        W76611  29.306  19.911  10.321
 8207W        W76612  27.251  40.299  12.403
 8208W        W76613   7.104  27.322   4.613
 8209W        W76614   4.441  38.467   0.703
 8210W        W76615  21.052  14.606  12.612
 8211W        W76616   7.085  28.603  13.923
 8212W        W76617  37.999  35.686  13.744
 8213W        W76618  42.505  12.591  14.035
 8214W        W76619  36.435  43.616   4.979
 8215W        W76620  13.703  20.429   4.137
 8216W        W76621   6.506   5.456  10.682
 8217W        W76622  11.320  37.127   0.770
 8218W        W76623  14.201   9.269  13.921
 8219W        W76624  36.940   1.284   2.207
 8220W        W76625  42.860  24.769  10.673
 8221W        W76626  42.042   0.821   4.504
 8222W        W76627  19.952   3.433  14.270
 8223W        W76628  43.727  33.338  11.212
 8224W        W76629  32.051  14.997  14.726
 8225W        W76630  22.921  32.978  13.383
 8226W        W76631   5.035   0.308  14.002
 8227W        W76632  14.531  40.348  12.117
 8228W        W76633  44.331  24.074   2.579
 8229W        W76634   4.140   8.676  11.723
 8230W        W76635  35.934  30.357  10.427
 8231W        W76636   4.466  35.472   4.578
 8232W        W76637  33.972  18.614   4.671
 8233W        W76638   2.257  16.573  12.069
 8234W        W76639  29.839  10.775   3.127
 8235W        W76640  14.069  39.418  11.341
 8236W        W76641  17.204  43.679  11.859
 8237W        W76642  37.428  14.605   1.229
 8238W        W76643  10.218  35.626  13.373
 8239W        W76644  42.374  19.230   4.610
 8240W        W76645  10.828  29.893  12.086
 8241W        W76646   6.458  10.794  14.628
 8242W        W76647  15.953  26.347   1.367
 8243W        W76648  29.105   2.434  14.403
 8244W        W76649  21.314  36.472   1.917
 8245W        W76650  30.920  33.579   1.328
 8246W        W76651  12.145   9.299  11.093
 8247W        W76652   6.170  23.655  12.106
 8248W        W76653  43.158  10.761  11.652
 8249W        W76654  44.009   0.968   1.861
 8250W        W76655  31.035  44.768  11.918
 8251W        W76656  10.250  32.021  12.872
 8252W        W76657   0.350  26.788  13.991
 8253W        W76658  34.988  44.213  13.875
 8254W        W76659   5.474  12.866  11.836
 8255W        W76660  44.867  29.913   4.402
 8256W        W76661  18.126   9.186   0.391
 8257W        W76662  25.393   3.009  12.616
 8258W        W76663  42.748  16.191  12.412
 8259W        W76664   7.730  38.912  14.511
 8260W        W76665   2.446  17.340   4.920
 8261W        W76666  36.087  39.073  13.459
 8262W        W76667  10.641   5.692  11.140
 8263W        W76668  14.255  13.303  13.504
 8264W        W76669  33.263  14.109  12.444
 8265W        W76670  19.054  44.327   1.238
 8266W        W76671  12.359  31.763  11.061
 8267W        W76672  26.704  12.062  14.453
 8268W        W76673  36.452  11.824   1.208
 8269W        W76674  41.710  23.069  14.245
 8270W        W76675  28.540  36.316   1.682
 8271W        W76676  40.270   5.425  11.048
 8272W        W76677   4.940  44.898   2.295
 8273W        W76678   5.743  41.286   4.581
 8274W        W76679  44.486  31.192  14.957
 8275W        W76680  14.130  19.222  13.302
 8276W        W76681   7.649  28.419   5.043
 8277W        W76682  27.730  23.480   0.894
 8278W        W76683  23.974  42.106  14.738
 8279W        W76684  42.239   8.717  13.671
 8280W        W76685  29.640   9.790  12.910
 8281W        W76686  12.868  16.627  13.948
 8282W        W76687  30.129   3.676  13.890
 8283W        W76688   3.469  16.753  13.337
 8284W        W76689   1.331  20.869  11.576
 8285W        W76690  32.307   0.723  10.590
 8286W        W76691  31.045  43.861   4.438
 8287W        W76692  28.517  31.564   2.299
 8288W        W76693  15.322  36.641  14.856
 8289W        W76694  43.390  21.892   0.289
 8290W        W76695  33.894  24.270   1.725
 8291W        W76696   7.564   8.137  11.712
 8292W        W76697   7.216  17.644  10.409
 8293W        W76698  41.149   3.933   4.831
 8294W        W76699  44.936  37.867   0.399
 8295W        W76700  42.460  11.203  13.310
 8296W        W76701  17.083  19.665  13.905
 8297W        W76702  29.426   6.887  11.523
 8298W        W76703  21.990  15.661   1.910
 8299W        W76704  18.234   9.848  11.216
 8300W        W76705  19.714  14.203  14.925
 8301W        W76706   2.700   2.353   3.726
 8302W        W76707  22.643  19.440  13.098
 8303W        W76708  17.575  24.578   1.268
 8304W        W76709   2.612   5.340   5.081
 8305W        W76710   0.796  36.410   1.596
 8306W        W76711  35.480   5.373   4.078
 8307W        W76712  30.603  34.656   1.580
 8308W        W76713  22.731  37.043   2.627
 8309W        W76714  29.080  22.652  12.649
 8310W        W76715  39.484  22.860  10.313
 8311W        W76716  21.026  10.830  12.953
 8312W        W76717  25.207  15.835  12.635
 8313W        W76718  18.308  18.813   0.273
 8314W        W76719  24.114  38.907   2.295
 8315W        W76720   8.300  38.372   1.053
 8316W        W76721  10.587  21.743   0.990
 8317W        W76722  26.122  28.493   4.366
 8318W        W76723  27.627  38.589   3.217
 8319W        W76724  17.214  43.400   3.772
 8320W        W76725  15.104  29.551  10.605
 8321W        W76726  34.437   4.277  14.597
 8322W        W76727  25.176   4.960  13.442
 8323W        W76728  38.082  34.346  13.476
 8324W        W76729  44.923  26.617  13.763
 8325W        W76730   2.768  16.653   1.702
 8326W        W76731  15.328   3.500  14.416
 8327W        W76732  14.805  36.483  13.127
 8328W        W76733  35.072  15.431   0.273
 8329W        W76734  12.829  12.658   3.551
 8330W        W76735  29.608  24.976   0.857
 8331W        W76736  37.260   6.474   4.993
 8332W        W76737  29.189  32.531  11.108
 8333W        W76738  17.143  30.705  11.406
 8334W        W76739  40.320  26.961  14.007
 8335W        W76740  33.500   1.773  13.317
 8336W        W76741   4.284  18.588   0.944
 8337W        W76742  40.942   0.688   0.395
 8338W        W76743   0.204  27.496   4.559
 8339W        W76744   3.250  35.917   0.829
 8340W        W76745  28.942  41.996   0.639
 8341W        W76746  32.384  30.101  12.254
 8342W        W76747  29.421   6.936  13.208
 8343W        W76748   2.729  35.092  11.940
 8344W        W76749  15.249  15.498   2.390
 8345W        W76750  15.769  13.359   3.196
 8346W        W76751  32.377  42.540  10.801
 8347W        W76752  19.242   2.192  13.944
 8348W        W76753  36.377  22.623   3.728
 8349W        W76754   1.811   4.964  11.588
 8350W        W76755   1.873   5.465   4.559
 8351W        W76756  44.792   9.840   4.333
 8352W        W76757  35.406  16.196   4.378
 8353W        W76758   5.188   8.306   3.120
 8354W        W76759   1.899   8.372  10.932
 8355W        W76760  21.005  18.036   0.755
 8356W        W76761  36.380  44.467  12.830
 8357W        W76762  33.504  42.770   3.065
 8358W        W76763  34.445  24.111  11.087
 8359W        W76764   9.904   9.029   1.596
 8360W        W76765  24.163  21.255  10.238
 8361W        W76766  30.155   5.936   4.959
 8362W        W76767  21.199  10.639  12.443
 8363W        W76768   0.419  29.303   2.231
 8364W        W76769  37.055  12.911  13.052
 8365W        W76770   6.757  44.409   2.255
 8366W        W76771  11.251  30.432   0.422
 8367W        W76772  15.920  16.747  11.168
 8368W        W76773   0.939  26.755  13.500
 8369W        W76774   6.127  39.511  13.489
 8370W        W76775  42.349  40.886  10.417
 8371W        W76776  14.175  30.863  10.989
 8372W        W76777  31.044  34.402   2.803
 8373W        W76778  34.578  38.470   2.761
 8374W        W76779  38.158  15.256   2.223
 8375W        W76780  14.585  22.211   4.653
 8376W        W76781  24.003  44.949   2.359
 8377W        W76782  11.267  38.862   3.273
 8378W        W76783  12.219  23.257   2.760
 8379W        W76784  21.788  26.244  11.587
 8380W        W76785  10.332  35.249   4.940
 8381W        W76786  32.716  20.014   4.868
 8382W        W76787  32.517  24.100   1.967
 8383W        W76788  11.828   7.768  11.959
 8384W        W76789  27.668  33.451   2.406
 8385W        W76790   5.349  35.948  10.702
 8386W        W76791   6.227   4.373  13.443
 8387W        W76792  27.403  25.965  14.825
 8388W        W76793   3.124  29.606   4.596
 8389W        W76794  36.359   6.407   4.482
 8390W        W76795  28.113  30.966   4.553
 8391W        W76796  36.823  44.329  14.817
 8392W        W76797   6.182  30.853   1.824
 8393W        W76798  27.219  14.153   3.245
 8394W        W76799  35.634  39.838   2.418
 8395W        W76800  16.659  14.048   2.216
 8396W        W76801   8.755  24.352  14.851
 8397W        W76802  25.171  43.025  13.283
 8398W        W76803  33.598   3.954   4.158
 8399W        W76804  17.415  14.246  14.340
 8400W        W76805  31.368  23.106  10.922
 8401W        W76806  21.787  14.220  10.979
 8402W        W76807  14.350  27.114  12.899
 8403W        W76808  35.856  16.498   1.700
 8404W        W76809  28.581  14.810  11.479
 8405W        W76810   3.580  26.046  14.811
 8406W        W76811  12.861  13.119  14.527
 8407W        W76812  13.769  35.220   5.037
 8408W        W76813  14.078  20.564  12.365
 8409W        W76814  11.208  43.368   0.523
 8410W        W76815  29.270  17.207  14.292
 8411W        W76816   1.353  41.110  10.574
 8412W        W76817  42.020  40.462   4.874
 8413W        W76818  12.218   6.423  12.131
 8414W        W76819  41.057  18.846   0.927
 8415W        W76820   2.347   0.705   1.380
 8416W        W76821  43.695  41.518  12.539
 8417W        W76822   0.753   4.499  13.186
 8418W        W76823   4.636   0.925  11.534
 8419W        W76824  36.809  36.068  11.436
 8420W        W76825  44.409  36.012  12.573
 8421W        W76826  33.373   9.550  14.546
 8422W        W76827   3.143  37.016  12.757
 8423W        W76828   1.984  30.029  10.549
 8424W        W76829  41.038   0.941   3.613
 8425W        W76830  41.845  10.142   2.933
 8426W        W76831  37.050  35.311  12.185
 8427W        W76832  24.211  12.953  12.454
 8428W        W76833  29.832  29.935   3.951
 8429W        W76834  37.697  24.909   3.081
 8430W        W76835   7.710  36.479  14.012
 8431W        W76836  13.292  20.710  14.809
 8432W        W76837   2.861  29.411   4.159
 8433W        W76838  10.467  12.069  13.860
 8434W        W76839  42.332   8.983  14.923
 8435W        W76840  18.707   9.377   4.636
 8436W        W76841   2.518   5.955  13.459
 8437W        W76842  28.289   5.647   2.942
 8438W        W76843  21.464   7.002  11.197
 8439W        W76844   3.767  20.241   1.717
 8440W        W76845  32.438  27.488  10.908
 8441W        W76846  34.015  23.996  10.499
 8442W        W76847  25.042  31.597   4.281
 8443W        W76848  11.604   5.719  11.177
 8444W        W76849  11.914  26.514   1.235
 8445W        W76850   9.331  36.996  12.377
 8446W        W76851  20.549   5.339  11.137
 8447W        W76852   5.833  33.172  13.846
 8448W        W76853  23.515  24.130   0.338
 8449W        W76854  33.470  41.998   1.293
 8450W        W76855  16.179   3.306   3.850
 8451W        W76856  33.563  21.818   1.211
 8452W        W76857   2.435   4.840  10.972
 8453W        W76858  36.607  16.385   0.812
 8454W        W76859  34.999  41.287   2.389
 8455W        W76860  39.581   5.282   3.686
 8456W        W76861  35.187  35.988   4.134
 8457W        W76862  42.748  10.438  11.701
 8458W        W76863  26.638  21.167  14.229
 8459W        W76864  43.076  41.976  13.990
 8460W        W76865  10.283  18.316   0.309
 8461W        W76866   6.875   6.385   2.171
 8462W        W76867  42.827  23.133   5.168
 8463W        W76868  11.846  21.804  11.601
 8464W        W76869  19.872   6.317   4.485
 8465W        W76870  30.951  39.770  12.389
 8466W        W76871  31.566  17.012   2.241
 8467W        W76872  31.967   4.469  12.643
 8468W        W76873  40.624  36.514  12.099
 8469W        W76874  18.493  34.915  14.721
 8470W        W76875  13.122  23.812  12.556
 8471W        W76876  25.648  22.238   4.345
 8472W        W76877  32.465  28.315  14.390
 8473W        W76878   4.609  18.620   3.131
 8474W        W76879  14.315  19.393   1.550
 8475W        W76880   1.239  18.230   4.407
 8476W        W76881   4.881  12.142   3.647
 8477W        W76882  32.334  28.489  12.615
 8478W        W76883  44.969  16.533  11.578
 8479W        W76884   6.344  35.828   4.135
 8480W        W76885  27.129  34.967  10.445
 8481W        W76886  34.639  16.088   1.761
 8482W        W76887   9.660   8.735  12.171
 8483W        W76888  35.644  21.051   0.771
 8484W        W76889   9.783  14.306  14.845
 8485W        W76890  24.480   6.815   4.292
 8486W        W76891  10.081  44.552  10.368
 8487W        W76892  11.917   5.757  14.900
 8488W        W76893   8.643  18.865  11.924
 8489W        W76894  21.151  26.993   3.197
 8490W        W76895  28.424  11.904   3.228
 8491W        W76896  29.761  25.294   3.686
 8492W        W76897  14.673  41.719  12.181
 8493W        W76898  11.648  36.944  10.786
 8494W        W76899  14.874  35.142   0.274
 8495W        W76900  34.586  21.149   0.714
 8496W        W76901  37.964   5.316   3.645
 8497W        W76902   0.526  42.775  12.600
 8498W        W76903  21.348  18.755   2.563
 8499W        W76904   4.210  12.228  12.436
 8500W        W76905  14.780  24.085   3.359
 8501W        W76906  27.729  43.701   3.239
 8502W        W76907  41.276  20.844   4.130
 8503W        W76908  29.854   4.324   3.273
 8504W        W76909   6.796  25.549  10.997
 8505W        W76910  26.741   9.125   2.361
 8506W        W76911  10.360  31.411   4.529
 8507W        W76912   9.762  41.571  12.123
 8508W        W76913  10.736  27.953  11.959
 8509W        W76914  14.242  42.238   3.780
 8510W        W76915   3.765  35.381  11.897
 8511W        W76916   1.422  15.289  14.782
 8512W        W76917   1.445   8.250  11.201
 8513W        W76918  34.278  15.631  13.884
 8514W        W76919  19.203  13.790  10.654
 8515W        W76920  44.901   9.714   0.687
 8516W        W76921  31.319  24.009   1.922
 8517W        W76922   5.091  38.200   4.079
 8518W        W76923  32.506   1.716   0.965
 8519W        W76924  32.414  28.900   2.784
 8520W        W76925  38.277  12.103   0.930
 8521W        W76926  22.107   7.636   3.780
 8522W        W76927  32.602  31.140  10.739
 8523W        W76928  38.134  24.914   2.762
 8524W        W76929   5.406   2.203  12.557
 8525W        W76930  20.079  25.782   1.933
 8526W        W76931   3.967   2.230  11.579
 8527W        W76932  29.646  29.856   2.933
 8528W        W76933  41.843  38.296   0.982
 8529W        W76934  29.543  15.265   4.743
 8530W        W76935  21.957  32.124   3.147
 8531W        W76936  40.806   3.941  13.452
 8532W        W76937   9.270  10.377   4.409
 8533W        W76938  30.320   3.680   4.285
 8534W        W76939   3.879  10.947  11.651
 8535W        W76940  39.970  17.203  11.481
 8536W        W76941  15.965  23.711   4.897
 8537W        W76942  41.386  43.776   4.614
 8538W        W76943  38.988   1.476  10.144
 8539W        W76944  40.111  11.860  11.574
 8540W        W76945  36.443   0.568  14.545
 8541W        W76946  36.814  30.395  10.451
 8542W        W76947  26.367  37.462  12.464
 8543W        W76948  24.275   1.306  11.714
 8544W        W76949  34.246  32.869  14.965
 8545W        W76950  37.047  35.401  14.452
 8546W        W76951  43.325  13.709  12.509
 8547W        W76952   9.764  44.373  13.847
 8548W        W76953  19.066  33.986  12.997
 8549W        W76954  10.223   3.767  14.442
 8550W        W76955  33.920  17.311  13.375
 8551W        W76956  27.478  22.489   1.796
 8552W        W76957  33.324   2.303   2.876
 8553W        W76958  41.222  18.738  14.727
 8554W        W76959   6.004  36.395   3.253
 8555W        W76960  38.808  21.023  13.403
 8556W        W76961  16.195  25.032  11.542
 8557W        W76962  42.614  39.803  13.542
 8558W        W76963  40.658  21.616  11.920
 8559W        W76964  25.584  30.517   3.379
 8560W        W76965  23.956  23.507  11.142
 8561W        W76966  17.444  17.062  14.919
 8562W        W76967  14.362   8.439  12.522
 8563W        W76968  39.854  25.589   2.354
 8564W        W76969  24.975  21.771   1.352
 8565W        W76970  30.993  14.268  11.217
 8566W        W76971   4.243  24.630   3.763
 8567W        W76972  27.962  21.303   2.685
 8568W        W76973   3.804  12.358  14.524
 8569W        W76974  34.265  17.532  13.081
 8570W        W76975   7.617   5.758  11.251
 8571W        W76976   3.122  27.698  13.483
 8572W        W76977  32.478   9.106   2.782
 8573W        W76978  26.457  28.707   4.697
 8574W        W76979   0.928   5.711   4.502
 8575W        W76980  12.097  34.977  13.723
 8576W        W76981  13.782  39.501   3.605
 8577W        W76982   8.913  32.048  14.317
 8578W        W76983  31.196  31.638  12.784
 8579W        W76984  22.357  37.578  12.484
 8580W        W76985  13.714  35.433  13.670
 8581W        W76986   3.857  21.229   4.240
 8582W        W76987  44.381  41.484   1.255
 8583W        W76988  28.112  27.977  11.144
 8584W        W76989  16.126  30.666  12.352
 8585W        W76990  26.654  19.098   1.859
 8586W        W76991   7.952   7.752   1.834
 8587W        W76992   7.397  14.378  11.934
 8588W        W76993   3.190  36.380  14.896
 8589W        W76994  33.699  31.035  13.019
 8590W        W76995  26.162  38.952   1.317
 8591W        W76996  29.867  25.069   3.219
 8592W        W76997  33.815  38.626   0.883
 8593W        W76998  22.720   9.358   1.861
 8594W        W76999  33.949  24.102  11.005
 8595W        W77000  24.712   9.720  14.398
 8596W        W77001  34.133  25.181   4.422
 8597W        W77002  17.102   7.438   2.251
 8598W        W77003  38.288  20.147   3.132
 8599W        W77004   8.887  36.980  13.892
 8600W        W77005   3.906   2.510   4.223
 8601W        W77006  30.830  11.727   3.440
 8602W        W77007  26.642  44.905   4.050
 8603W        W77008  16.035  30.004   0.482
 8604W        W77009  44.939   4.832  12.190
 8605W        W77010  11.885  31.818  10.261
 8606W        W77011  30.352  33.944  14.906
 8607W        W77012   6.693  40.283   1.195
 8608W        W77013  38.091  36.751   3.997
 8609W        W77014   6.156   9.950   3.630
 8610W        W77015  39.853  19.694   0.372
 8611W        W77016  10.701   0.084  10.995
 8612W        W77017  39.515  14.776   0.452
 8613W        W77018  36.667   7.997   2.301
 8614W        W77019  40.550  35.970   4.189
 8615W        W77020  13.327  29.414  14.342
 8616W        W77021   3.825  15.106   4.047
 8617W        W77022  40.663  20.641   1.663
 8618W        W77023  16.923  27.109   3.263
 8619W        W77024  38.556  17.565  12.021
 8620W        W77025  37.850   1.463   0.011
 8621W        W77026   8.362  43.412   4.183
 8622W        W77027  29.723  37.474   3.642
 8623W        W77028  41.600  27.969  13.222
 8624W        W77029  39.577  38.907   5.008
 8625W        W77030  35.519  23.326   4.617
 8626W        W77031  27.989  17.800   0.878
 8627W        W77032  28.446  35.122  13.639
 8628W        W77033  30.506   7.809   1.472
 8629W        W77034   3.996  35.813  13.084
 8630W        W77035   1.367  31.674   4.089
 8631W        W77036  17.449  34.360   4.130
 8632W        W77037   5.368   3.916  12.976
 8633W        W77038  20.067  36.154   4.932
 8634W        W77039   2.724   6.533  14.805
 8635W        W77040  32.393  34.945   4.224
 8636W        W77041  23.531  33.116   1.468
 8637W        W77042  17.627  28.370  12.847
 8638W        W77043   6.091   0.369  13.902
 8639W        W77044  35.667  14.739   0.689
 8640W        W77045  21.394  16.771  12.211
 8641W        W77046  24.301  42.466  12.920
 8642W        W77047  27.790  40.863  11.176
 8643W        W77048  35.059   5.740   2.758
 8644W        W77049  12.540  32.240  14.272
 8645W        W77050  38.100  13.153  14.767
 8646W        W77051   9.134   6.872  13.579
 8647W        W77052   1.354  13.755  12.903
 8648W        W77053  41.346  33.482  14.744
 8649W        W77054   0.477   9.275   3.707
 8650W        W77055  23.158  18.812   1.882
 8651W        W77056   4.978  32.387   1.762
 8652W        W77057  38.484  30.538  10.686
 8653W        W77058   8.812  39.073   1.238
 8654W        W77059  20.848  33.214   3.236
 8655W        W77060  44.362  18.312   2.608
 8656W        W77061  12.046  39.926   3.892
 8657W        W77062  31.436  37.806  13.083
 8658W        W77063   0.734   3.084  12.614
 8659W        W77064  15.300  34.158  12.495
 8660W        W77065   7.665  18.452   3.561
 8661W        W77066  11.728  31.521   3.114
 8662W        W77067   2.694  44.911  13.368
 8663W        W77068  29.217  37.035  13.515
 8664W        W77069   6.130  25.233  14.539
 8665W        W77070  42.034   3.570  10.539
 8666W        W77071  18.444   1.353  11.137
 8667W        W77072  24.049  13.383  13.470
 8668W        W77073  21.477  10.762  14.826
 8669W        W77074   8.210  32.707  11.115
 8670W        W77075  38.349  16.327  14.384
 8671W        W77076   2.753  12.380  13.268
 8672W        W77077  32.092  34.686  12.028
 8673W        W77078  16.778  10.952   1.327
 8674W        W77079  23.599  19.907   4.631
 8675W        W77080   4.786  29.426   0.413
 8676W        W77081   5.448  44.257  12.012
 8677W        W77082  13.902  12.632   3.675
 8678W        W77083   8.925  18.759   4.071
 8679W        W77084  20.534  27.563  11.641
 8680W        W77085  39.521   4.395   2.674
 8681W        W77086  24.077  13.761   4.649
 8682W        W77087  41.295   0.802   4.076
 8683W        W77088   9.271  44.635  13.831
 8684W        W77089  39.980  22.508  13.622
 8685W        W77090  37.338  42.949   1.314
 8686W        W77091  42.525  38.898  14.422
 8687W        W77092  12.266   2.324  14.133
 8688W        W77093  32.831  22.512  13.899
 8689W        W77094   9.789  26.499   1.267
 8690W        W77095  20.939  15.111  12.024
 8691W        W77096  43.615  24.624   2.949
 8692W        W77097   1.625  31.548   0.504
 8693W        W77098  10.145  39.436   1.699
 8694W        W77099  18.598  43.803  12.094
 8695W        W77100  43.248  14.187   0.072
 8696W        W77101  12.434  31.574   0.274
 8697W        W77102  41.734  18.740  13.829
 8698W        W77103   2.394  41.581  12.900
 8699W        W77104  36.100  27.151   4.561
 8700W        W77105  29.869  39.733  14.813
 8701W        W77106  42.941  25.026   1.243
 8702W        W77107  27.714   1.760  10.685
 8703W        W77108   7.272  25.383  13.404
 8704W        W77109   5.688  11.696  12.626
 8705W        W77110   0.796  33.407   0.807
 8706W        W77111  12.146  34.612  13.345
 8707W        W77112  41.829  32.357  13.532
 8708W        W77113  26.248  40.355  12.532
 8709W        W77114  35.565  44.734  12.438
 8710W        W77115  32.701  44.954   4.265
 8711W        W77116  22.253  39.274  13.993
 8712W        W77117  20.626  35.326  13.178
 8713W        W77118  33.484  35.132   1.906
 8714W        W77119  29.017  22.155  12.506
 8715W        W77120  35.086   4.519   1.219
 8716W        W77121  44.589  23.525  12.435
 8717W        W77122   7.809   8.348   1.545
 8718W        W77123  21.466  33.349  10.428
 8719W        W77124  28.787  37.062   2.839
 8720W        W77125  23.471  43.635  12.497
 8721W        W77126  17.558   5.959   3.467
 8722W        W77127   2.122  12.047   1.884
 8723W        W77128  29.634  32.594  13.523
 8724W        W77129  13.297  32.351  14.482
 8725W        W77130   9.529  29.470  14.427
 8726W        W77131  21.659   8.106   4.151
 8727W        W77132  28.649   0.946  10.360
 8728W        W77133   7.106  22.610  13.349
 8729W        W77134  39.126   9.148   0.804
 8730W        W77135  35.826  43.502  12.740
 8731W        W77136  13.676  26.975  13.473
 8732W        W77137  38.972   8.319  12.918
 8733W        W77138   6.066   6.252  14.904
 8734W        W77139  37.448  17.050  13.271
 8735W        W77140  32.136  32.033  13.953
 8736W        W77141  42.807  11.094  14.825
 8737W        W77142  26.278  31.601  11.461
 8738W        W77143  22.517  30.566   1.981
 8739W        W77144  26.057   1.947   0.324
 8740W        W77145  34.168   2.945  14.322
 8741W        W77146   0.880  18.781   4.166
 8742W        W77147   7.998   2.886  14.478
 8743W        W77148  41.266   7.457   4.689
 8744W        W77149  24.536   0.502  14.450
 8745W        W77150  36.794   0.362   2.266
 8746W        W77151  39.750   2.225   3.414
 8747W        W77152   8.561  21.526  11.260
 8748W        W77153  14.119   0.549   2.608
 8749W        W77154   3.147  10.735   0.744
 8750W        W77155  40.804  15.310   4.572
 8751W        W77156  39.872   5.951  11.983
 8752W        W77157  25.100  35.326   4.755
 8753W        W77158   8.902   7.406   3.369
 8754W        W77159  28.231  38.049   5.196
 8755W        W77160  40.247  32.654   0.372
 8756W        W77161  19.841   6.358  11.554
 8757W        W77162  41.309   9.630  14.007
 8758W        W77163  15.568  14.479  11.663
 8759W        W77164  15.702  10.163  11.601
 8760W        W77165  29.502  18.970  11.179
 8761W        W77166  26.443  41.991  14.345
 8762W        W77167   1.961  12.385  11.678
 8763W        W77168  26.883  13.219   0.819
 8764W        W77169  19.711  23.440  12.635
 8765W        W77170   3.806  20.070   2.783
 8766W        W77171  18.814  21.655  13.586
 8767W        W77172   1.444  18.258   3.513
 8768W        W77173   8.300   2.700  13.047
 8769W        W77174   9.258   0.136  12.905
 8770W        W77175  31.405  13.321   3.149
 8771W        W77176  14.202  23.034   4.638
 8772W        W77177  29.192  20.205   5.024
 8773W        W77178  38.520  15.198  14.780
 8774W        W77179  23.278  12.203   3.378
 8775W        W77180  29.368   0.869   4.106
 8776W        W77181  21.866  38.968  13.802
 8777W        W77182  20.828   1.793  10.493
 8778W        W77183  10.213  22.096   1.680
 8779W        W77184  28.757  16.583  13.013
 8780W        W77185  32.451  10.860  13.725
 8781W        W77186   8.527  18.331  11.094
 8782W        W77187  42.496  36.340  13.314
 8783W        W77188   1.027   5.895   0.642
 8784W        W77189  28.149  23.283   1.174
 8785W        W77190   1.937  10.402   1.421
 8786W        W77191   2.971  11.868  12.467
 8787W        W77192  21.328  15.755  14.439
 8788W        W77193  18.773  28.431   1.493
 8789W        W77194  28.258   0.407   5.032
 8790W        W77195  15.619  41.075  12.921
 8791W        W77196  35.835  17.850  14.817
 8792W        W77197   5.475  13.895  14.902
 8793W        W77198  35.503  40.436   3.615
 8794W        W77199  30.091   6.148  14.040
 8795W        W77200  19.846   0.241   0.738
 8796W        W77201  38.890  12.626  12.040
 8797W        W77202   0.016  37.784  11.724
 8798W        W77203  36.923  32.118   2.428
 8799W        W77204  26.119  20.707  11.155
 8800W        W77205  44.722  41.353  11.737
 8801W        W77206  30.609  35.835   0.389
 8802W        W77207  20.926  26.613   2.726
 8803W        W77208   7.099  30.557  14.133
 8804W        W77209  33.229  34.408   3.158
 8805W        W77210  43.325  25.723   3.822
 8806W        W77211  23.647  27.395   0.738
 8807W        W77212  24.493  14.676  12.938
 8808W        W77213  35.156   8.801  11.153
 8809W        W77214  20.085  19.233  10.430
 8810W        W77215  30.085  12.739   1.190
 8811W        W77216  42.407  19.743  13.992
 8812W        W77217   3.893   0.594  14.907
 8813W        W77218  19.466  39.245   2.777
 8814W        W77219  30.448   2.852  12.022
 8815W        W77220  13.331  39.241  10.688
 8816W        W77221   2.953  20.113  10.337
 8817W        W77222  10.416   2.850  14.512
 8818W        W77223  21.727  25.556  11.035
 8819W        W77224  15.397  20.879  12.409
 8820W        W77225  31.199   7.903  11.629
 8821W        W77226   2.230   8.327   4.507
 8822W        W77227   5.344  12.806   3.145
 8823W        W77228  10.261   7.473  10.238
 8824W        W77229  18.747  23.537   1.754
 8825W        W77230   7.755  10.096  11.014
 8826W        W77231  16.098  38.548   2.147
 8827W        W77232  32.362  19.489   1.868
 8828W        W77233  42.516  41.777  13.457
 8829W        W77234  32.370  32.110  12.601
 8830W        W77235  11.796  28.915  11.109
 8831W        W77236  35.543  20.916  12.477
 8832W        W77237  38.268  10.315   1.251
 8833W        W77238  30.552  33.130  10.801
 8834W        W77239  18.713  29.685  14.796
 8835W        W77240  39.843   9.834  14.050
 8836W        W77241  37.876  42.965   1.311
 8837W        W77242  18.144  37.393   2.649
 8838W        W77243  28.705   9.356   1.473
 8839W        W77244  11.528   4.471   2.847
 8840W        W77245  21.061  14.093  12.427
 8841W        W77246  34.868  25.783  11.483
 8842W        W77247   7.712   1.367   4.437
 8843W        W77248  39.121  13.282   0.862
 8844W        W77249  36.503  26.394  14.904
 8845W        W77250   5.830   2.242   4.781
 8846W        W77251  39.365  39.624   1.306
 8847W        W77252  44.517  16.170  11.987
 8848W        W77253  22.815  33.394  14.961
 8849W        W77254  30.028  43.229   4.686
 8850W        W77255  42.024  37.442   4.571
 8851W        W77256  28.711  25.463   5.106
 8852W        W77257  34.549  32.640   4.660
 8853W        W77258  21.470  22.582   9.673
 8854W        W77259  18.039  14.963   1.012
 8855W        W77260  17.764  18.820  11.721
 8856W        W77261  33.115  35.284  13.918
 8857W        W77262  43.381   0.374   1.864
 8858W        W77263  43.148  16.999   1.760
 8859W        W77264  30.507  14.806  11.386
 8860W        W77265  31.247  28.176  10.353
 8861W        W77266   7.369  19.491   4.278
 8862W        W77267   6.769   1.365  10.745
 8863W        W77268  27.759  29.064   1.358
 8864W        W77269  12.703  30.445   0.071
 8865W        W77270  25.449  39.527  14.492
 8866W        W77271  26.463  35.397  12.495
 8867W        W77272  18.578  21.156  13.507
 8868W        W77273  38.587  15.298   0.289
 8869W        W77274   1.372  12.891   2.744
 8870W        W77275   0.188  21.793   4.035
 8871W        W77276  27.629  19.471  11.093
 8872W        W77277  29.581  27.672  11.891
 8873W        W77278   9.040   7.160  14.773
 8874W        W77279  17.159  17.089  12.553
 8875W        W77280  22.311  22.903  13.073
 8876W        W77281   4.266  26.357  11.925
 8877W        W77282  36.077  13.149  10.731
 8878W        W77283  43.900  12.041  11.212
 8879W        W77284  10.427  31.986  13.994
 8880W        W77285   5.382   4.002  13.483
 8881W        W77286  39.883  15.314   1.397
 8882W        W77287   0.815  25.288   2.308
 8883W        W77288  24.413  27.737  11.740
 8884W        W77289  30.683  12.714  11.643
 8885W        W77290  16.142  35.348   3.691
 8886W        W77291   6.222  35.458  13.943
 8887W        W77292  37.459   2.589   4.323
 8888W        W77293  35.118  35.458  11.861
 8889W        W77294  19.256  28.935  11.161
 8890W        W77295   4.350   6.451   3.542
 8891W        W77296  38.364  29.354   0.369
 8892W        W77297  38.502  24.021   3.755
 8893W        W77298  25.135  19.545   0.455
 8894W        W77299   2.963  26.003  11.931
 8895W        W77300  40.436  21.955   1.509
 8896W        W77301   4.204  32.381   3.563
 8897W        W77302  31.559  24.462   1.700
 8898W        W77303  38.430  36.947  13.454
 8899W        W77304   6.292  13.688   0.866
 8900W        W77305  13.636  36.824  12.897
 8901W        W77306  12.179  20.161  12.185
 8902W        W77307  42.979  40.272   4.543
 8903W        W77308  33.827  25.634   4.365
 8904W        W77309  24.756   7.271   4.268
 8905W        W77310  36.478   0.269  10.258
 8906W        W77311  15.495   5.805   0.445
 8907W        W77312  12.038  18.884   2.741
 8908W        W77313   2.729  13.248   0.258
 8909W        W77314  35.302   8.642  12.848
 8910W        W77315  39.725  39.677  14.145
 8911W        W77316  33.543  15.300   4.314
 8912W        W77317  19.545  41.317   0.318
 8913W        W77318   8.396   2.779   4.792
 8914W        W77319  16.015  10.327  12.849
 8915W        W77320  37.837   3.951  14.838
 8916W        W77321  25.558  22.775  13.304
 8917W        W77322  33.022   5.204   4.585
 8918W        W77323  44.766  22.284   2.618
 8919W        W77324  23.905  36.387   1.116
 8920W        W77325  30.706  22.497  12.033
 8921W        W77326  24.464  42.286   3.261
 8922W        W77327   7.386  27.670   3.242
 8923W        W77328  36.795  25.313   3.111
 8924W        W77329   9.884  44.090   3.755
 8925W        W77330  11.645   2.707  11.155
 8926W        W77331  36.973   4.887   0.297
 8927W        W77332  38.837  37.497   3.344
 8928W        W77333  17.719  35.974  13.338
 8929W        W77334   6.915  38.095  13.649
 8930W        W77335  24.018  32.450   2.663
 8931W        W77336  35.431   6.936  10.994
 8932W        W77337   7.674  13.760   4.913
 8933W        W77338   4.158  43.835  14.349
 8934W        W77339  22.278  23.329   3.498
 8935W        W77340  30.392  25.479   4.119
 8936W        W77341   8.307  37.828  11.675
 8937W        W77342   2.859  18.049  10.900
 8938W        W77343  18.962  21.096  11.526
 8939W        W77344  32.894  42.422   3.609
 8940W        W77345  40.549  24.376  12.354
 8941W        W77346  38.858   3.316   1.374
 8942W        W77347  44.074   1.926  10.272
 8943W        W77348  41.500  14.285  13.310
 8944W        W77349  27.440  21.079  14.768
 8945W        W77350  28.909  29.101   4.428
 8946W        W77351   5.637   0.366  12.588
 8947W        W77352  15.048  35.408   2.295
 8948W        W77353   2.725  16.031  13.396
 8949W        W77354  13.319  26.188   3.346
 8950W        W77355  35.445  10.732   4.385
 8951W        W77356  21.008  33.696  12.201
 8952W        W77357   2.948  14.682  13.386
 8953W        W77358  22.462  16.600  11.998
 8954W        W77359  36.318  38.710   3.322
 8955W        W77360  15.931   1.204   1.702
 8956W        W77361  24.468   6.879  10.573
 8957W        W77362   4.884  13.850   4.596
 8958W        W77363   6.533  32.514   3.517
 8959W        W77364   1.626  44.759   2.037
 8960W        W77365  10.890  20.770   0.321
 8961W        W77366  34.413  43.353  12.310
 8962W        W77367  27.930  20.162  10.705
 8963W        W77368  28.701   1.198   3.519
 8964W        W77369  36.049   0.878  14.435
 8965W        W77370  11.425  21.060  13.567
 8966W        W77371  40.726  36.921   2.330
 8967W        W77372  26.193  31.314   0.921
 8968W        W77373  35.604   8.797  14.746
 8969W        W77374  22.702  38.527   1.290
 8970W        W77375  31.254  21.217  12.031
 8971W        W77376  36.889  26.971  11.520
 8972W        W77377  39.801  40.353  11.038
 8973W        W77378  42.204   9.832  12.886
 8974W        W77379  41.908   4.537  12.032
 8975W        W77380  33.820   1.029  13.297
 8976W        W77381  39.527  43.884  14.707
 8977W        W77382   6.402  35.691   4.656
 8978W        W77383  15.110   3.777   0.195
 8979W        W77384  30.559  39.690   4.158
 8980W        W77385  38.048  29.785   2.712
 8981W        W77386   6.142  40.588  12.045
 8982W        W77387  34.639  27.229  13.390
 8983W        W77388  43.212  31.403   3.620
 8984W        W77389  43.499  10.461  10.780
 8985W        W77390   0.211   8.723  11.129
 8986W        W77391  21.192  12.760   1.561
 8987W        W77392  43.589  25.536   2.875
 8988W        W77393  33.330  42.088  11.962
 8989W        W77394  38.547   3.873   0.312
 8990W        W77395   0.696  44.358  13.060
 8991W        W77396   7.573  12.564   4.078
 8992W        W77397  12.348  37.117  12.546
 8993W        W77398  32.998   4.629   3.224
 8994W        W77399  39.855  30.116   4.557
 8995W        W77400  43.709  42.378   1.261
 8996W        W77401  40.317  35.496   4.312
 8997W        W77402  29.144   1.958  13.405
 8998W        W77403  32.861  29.244   3.601
 8999W        W77404  16.210  27.747  14.778
 9000W        W77405  31.886   4.187   1.388
 9001W        W77406  18.613  38.380   2.460
 9002W        W77407  24.242  27.722  11.082
 9003W        W77408  21.971  41.323   4.254
 9004W        W77409  33.179  11.866   0.324
 9005W        W77410  32.455  28.008   3.698
 9006W        W77411  42.382  42.392   2.652
 9007W        W77412  23.979  29.435  11.603
 9008W        W77413  28.468  34.957  10.806
 9009W        W77414  39.281  41.896   2.707
 9010W        W77415  21.681   0.961   4.825
 9011W        W77416  22.273   7.766  11.233
 9012W        W77417   4.475  35.497   3.705
 9013W        W77418  44.496  13.423  11.112
 9014W        W77419   5.268  18.168  12.841
 9015W        W77420  16.550  28.203  13.417
 9016W        W77421  43.150  30.890   1.294
 9017W        W77422  27.708  35.185   2.715
 9018W        W77423  12.402  33.932   1.702
 9019W        W77424  39.988  23.499   3.182
 9020W        W77425  44.049   1.272   4.493
 9021W        W77426  40.010  42.953   4.503
 9022W        W77427  33.518  12.848   1.880
 9023W        W77428  39.951  13.334   2.289
 9024W        W77429  38.806  19.729   4.170
 9025W        W77430  11.748  28.682   4.251
 9026W        W77431  44.378   5.415   3.495
 9027W        W77432  39.195   3.497   1.022
 9028W        W77433  26.178  23.377  13.727
 9029W        W77434  25.955  41.867  10.923
 9030W        W77435  28.610  44.832  11.536
 9031W        W77436  14.322  37.925  13.487
 9032W        W77437  27.670  32.940   1.752
 9033W        W77438  21.556  25.394   2.111
 9034W        W77439  39.402  21.611   4.155
 9035W        W77440  35.472  38.431  13.355
 9036W        W77441  11.941  19.188   3.791
 9037W        W77442  37.167  44.022  14.266
 9038W        W77443   4.491  43.192   0.854
 9039W        W77444   0.583   5.590   4.865
 9040W        W77445  14.648   2.985   3.616
 9041W        W77446   9.956  38.131  13.543
 9042W        W77447  30.603  14.734  14.294
 9043W        W77448   1.748  31.374  10.492
 9044W        W77449  31.860  28.332  12.508
 9045W        W77450   3.310  29.712  10.579
 9046W        W77451  19.622   9.079   1.464
 9047W        W77452  29.681  34.921  12.387
 9048W        W77453  18.157  44.048  12.890
 9049W        W77454  11.724  40.454   3.620
 9050W        W77455  33.165  42.729   1.853
 9051W        W77456  19.949  43.502  13.548
 9052W        W77457  30.404  26.630  14.134
 9053W        W77458  36.070  13.171  11.615
 9054W        W77459  41.496   1.913  12.905
 9055W        W77460   0.808  31.313   3.212
 9056W        W77461   0.085  17.508  14.412
 9057W        W77462  39.172   7.573  12.578
 9058W        W77463  15.610  12.213  12.502
 9059W        W77464  22.048   9.249  13.773
 9060W        W77465  39.903   1.754   0.441
 9061W        W77466  12.370  35.056  13.292
 9062W        W77467  25.560   5.876   4.035
 9063W        W77468  38.107  32.015   2.440
 9064W        W77469  33.062   7.565   2.802
 9065W        W77470  30.821  16.585   1.469
 9066W        W77471  16.235  43.878  11.891
 9067W        W77472  44.470  30.387  11.631
 9068W        W77473  11.893  31.100   9.935
 9069W        W77474  22.660  10.196  10.203
 9070W        W77475  26.958  35.628  14.935
 9071W        W77476  41.509  40.447   4.724
 9072W        W77477  27.452  27.985  13.833
 9073W        W77478  12.437  16.762  11.213
 9074W        W77479  33.540  23.418   4.784
 9075W        W77480  11.770   7.557  12.455
 9076W        W77481  40.794  18.452   2.715
 9077W        W77482  22.307   0.230   1.820
 9078W        W77483  23.274  24.136  12.882
 9079W        W77484   2.430   4.992  12.720
 9080W        W77485  40.848  38.456   0.908
 9081W        W77486  43.840  17.481   0.694
 9082W        W77487  20.708  27.881   1.745
 9083W        W77488  23.049  13.137   0.446
 9084W        W77489   7.896  42.533   2.826
 9085W        W77490  19.597  10.806   1.877
 9086W        W77491  41.977  12.405   2.325
 9087W        W77492  40.248  10.448   0.226
 9088W        W77493  23.985   6.921   4.216
 9089W        W77494   8.356  42.586  11.138
 9090W        W77495  18.564  16.135  13.004
 9091W        W77496  34.589  37.356  13.235
 9092W        W77497  18.792   6.258   0.374
 9093W        W77498   7.295  35.660  14.424
 9094W        W77499  33.929   1.711  12.618
 9095W        W77500  18.919  17.844   3.283
 9096W        W77501  41.513  32.711   2.260
 9097W        W77502  36.768   9.465   2.328
 9098W        W77503  32.205  30.175   2.673
 9099W        W77504   9.079   3.675   3.245
 9100W        W77505  10.146  24.550  11.566
 9101W        W77506  28.248   0.969   3.228
 9102W        W77507  42.861  21.580  11.020
 9103W        W77508  12.233  41.325   4.405
 9104W        W77509   4.777  25.821   3.105
 9105W        W77510  32.362  18.083  11.631
 9106W        W77511  16.462  25.263  11.168
 9107W        W77512  15.906  36.485  14.881
 9108W        W77513   1.357  41.004  11.085
 9109W        W77514   7.375  42.236  13.510
 9110W        W77515  22.419  38.091  12.422
 9111W        W77516  39.973  27.643   2.812
 9112W        W77517  19.338  43.570  10.660
 9113W        W77518   9.824   5.302   3.929
 9114W        W77519  30.103  27.858   2.399
 9115W        W77520   2.369  19.151  12.266
 9116W        W77521  44.475  27.295   3.277
 9117W        W77522  12.840  21.692   2.620
 9118W        W77523  43.411  42.698   4.221
 9119W        W77524   8.856  29.188  11.068
 9120W        W77525  34.890  24.405   3.404
 9121W        W77526  39.974  10.437   4.056
 9122W        W77527  10.842  38.019   2.379
 9123W        W77528  18.604   3.505  12.043
 9124W        W77529  16.595  31.650  12.968
 9125W        W77530  11.940  41.203   1.790
 9126W        W77531  16.346  29.154   3.283
 9127W        W77532   5.859  29.612   3.260
 9128W        W77533  24.718  31.382  13.953
 9129W        W77534  17.620   5.208   3.811
 9130W        W77535   5.946  32.593  11.636
 9131W        W77536  41.726  19.635   2.219
 9132W        W77537  14.460   7.564  14.312
 9133W        W77538  37.669   8.829  11.042
 9134W        W77539  26.575   8.652   2.293
 9135W        W77540  32.325  31.089   4.132
 9136W        W77541  32.896  18.342  12.354
 9137W        W77542  37.990  26.487  11.516
 9138W        W77543   9.758  38.332  12.187
 9139W        W77544  37.529   5.990  10.978
 9140W        W77545  31.781   5.267   4.834
 9141W        W77546  37.301  43.383   0.961
 9142W        W77547  20.476  34.202   0.926
 9143W        W77548  38.532  13.164   2.312
 9144W        W77549  33.511  21.286  13.102
 9145W        W77550   1.800  39.557   0.579
 9146W        W77551  30.400   8.741  11.489
 9147W        W77552  42.863  37.110   4.405
 9148W        W77553  24.870   0.774  12.457
 9149W        W77554  38.359  20.494   4.960
 9150W        W77555  27.594  12.621   2.299
 9151W        W77556  17.786   2.442   3.296
 9152W        W77557  23.059  25.554  11.621
 9153W        W77558  16.499   4.746   1.894
 9154W        W77559  16.570   5.584   2.829
 9155W        W77560  38.341   9.874  12.120
 9156W        W77561  36.336  41.279   0.228
 9157W        W77562  20.206   8.703  12.598
 9158W        W77563  27.602  29.431  10.482
 9159W        W77564   9.248   4.460   2.698
 9160W        W77565   9.439  44.913  11.151
 9161W        W77566  12.629  37.163   2.919
 9162W        W77567   0.847   1.898  14.321
 9163W        W77568   0.765  17.581   0.039
 9164W        W77569  35.514  33.076  11.208
 9165W        W77570  37.084  20.025   3.810
 9166W        W77571  14.980  35.977   3.180
 9167W        W77572  17.082  21.058   3.644
 9168W        W77573  42.443  34.492  11.493
 9169W        W77574  19.898   4.772   4.116
 9170W        W77575   1.979  29.041   1.842
 9171W        W77576  20.669  40.113   4.034
 9172W        W77577   7.206  10.906  14.021
 9173W        W77578   5.494   2.936  13.127
 9174W        W77579   1.806   4.640   9.796
 9175W        W77580  13.074  22.558   1.775
 9176W        W77581   6.598  40.029   4.821
 9177W        W77582  24.673  14.109  11.208
 9178W        W77583   1.857  28.157   3.830
 9179W        W77584  15.586  37.135   4.643
 9180W        W77585  35.548  33.549   3.363
 9181W        W77586   0.942  13.701  10.660
 9182W        W77587   0.716  14.092  11.159
 9183W        W77588  34.517  44.504   1.039
 9184W        W77589   8.803   0.211   0.353
 9185W        W77590  29.133  40.027   1.477
 9186W        W77591  12.889   0.481   3.422
 9187W        W77592  31.445  29.642   2.392
 9188W        W77593  25.383   1.425   0.066
 9189W        W77594  35.066  17.143  12.869
 9190W        W77595   4.973  30.180  14.332
 9191W        W77596  20.664  11.732   2.373
 9192W        W77597  29.428   2.968  13.540
 9193W        W77598  20.548   2.346   3.237
 9194W        W77599  34.030  26.972  13.313
 9195W        W77600  14.625  30.377  14.890
 9196W        W77601  21.092  14.120   4.155
 9197W        W77602  35.952  13.804  14.391
 9198W        W77603  29.010   5.304   1.933
 9199W        W77604  26.003  44.726   1.918
 9200W        W77605   0.940  40.350   4.929
 9201W        W77606  24.154  24.737  11.579
 9202W        W77607   3.524  33.071   0.399
 9203W        W77608   6.820  33.158   1.743
 9204W        W77609  38.862  26.763   2.782
 9205W        W77610  12.235  33.605  13.346
 9206W        W77611  13.670  16.610   4.703
 9207W        W77612   0.919   0.468   3.703
 9208W        W77613  39.447   3.783  12.189
 9209W        W77614  42.493  12.727   1.616
 9210W        W77615  42.549  18.058   0.884
 9211W        W77616   1.802   0.628  12.041
 9212W        W77617  42.393  26.017   3.706
 9213W        W77618   0.259  31.734   2.401
 9214W        W77619  21.725  17.806  11.984
 9215W        W77620   2.896   2.400  10.737
 9216W        W77621   5.372  14.293  12.786
 9217W        W77622  35.673  36.928  12.068
 9218W        W77623   1.363  30.116   4.533
 9219W        W77624  35.633   2.013  11.120
 9220W        W77625  18.810  21.303   4.056
 9221W        W77626  19.294  12.352  11.961
 9222W        W77627  41.840  14.782   1.768
 9223W        W77628  26.961  44.899   0.773
 9224W        W77629  35.067  19.609  14.967
 9225W        W77630   6.306   3.748  13.032
 9226W        W77631   2.679  26.690   2.704
 9227W        W77632   2.268  16.303  11.587
 9228W        W77633   5.462  15.250  14.504
 9229W        W77634  16.790   6.679   4.969
 9230W        W77635  37.137  38.800  11.240
 9231W        W77636  15.483  27.143  14.381
 9232W        W77637  16.606  15.859  12.966
 9233W        W77638  18.560  36.404  12.922
 9234W        W77639  15.272  22.754  14.120
 9235W        W77640  27.295  17.877   2.777
 9236W        W77641  24.955  36.176   4.135
 9237W        W77642  33.727  24.623  14.435
 9238W        W77643  28.671  20.535  13.500
 9239W        W77644  14.324  43.713   3.662
 9240W        W77645  25.398   1.314   1.482
 9241W        W77646  10.834  37.272  11.173
 9242W        W77647   7.345  33.436  14.686
 9243W        W77648  27.063  23.140  13.009
 9244W        W77649  13.438  14.590  14.493
 9245W        W77650  22.736  22.133  12.952
 9246W        W77651  10.829  12.166   3.699
 9247W        W77652   6.238  33.384   4.472
 9248W        W77653  33.117  33.401   2.905
 9249W        W77654  19.086  39.681   2.633
 9250W        W77655  35.204  34.482   4.624
 9251W        W77656  11.802  27.147  13.462
 9252W        W77657  17.457  26.153   2.587
 9253W        W77658  13.102   7.569  13.823
 9254W        W77659  29.216  31.205   2.527
 9255W        W77660  14.614  13.218  11.628
 9256W        W77661  19.027   8.820  12.967
 9257W        W77662  12.284  31.112  13.935
 9258W        W77663   3.824  19.799   4.061
 9259W        W77664  26.501   4.732  14.442
 9260W        W77665  42.523  13.221   2.400
 9261W        W77666  34.151  28.902   4.116
 9262W        W77667   8.873  40.086  14.349
 9263W        W77668  36.130  28.978  14.466
 9264W        W77669  11.686  12.831   0.335
 9265W        W77670  38.489  21.307   2.190
 9266W        W77671  31.982  28.834  12.469
 9267W        W77672  17.055  31.390   1.345
 9268W        W77673  18.593  24.469  12.500
 9269W        W77674  35.807  40.523  14.859
 9270W        W77675  25.598  26.303   3.479
 9271W        W77676  39.408   9.363   4.390
 9272W        W77677  42.717  38.057   1.635
 9273W        W77678  40.404  33.437  14.235
 9274W        W77679  35.467  15.077   4.814
 9275W        W77680  26.502  41.921   4.357
 9276W        W77681   0.446  31.576  10.644
 9277W        W77682  13.824  18.766   2.241
 9278W        W77683   4.535  13.413  14.877
 9279W        W77684  26.008   2.961   2.702
 9280W        W77685  17.703  35.397   1.317
 9281W        W77686   1.058  18.626   2.744
 9282W        W77687  27.812  43.203  13.451
 9283W        W77688   7.105  31.461   0.754
 9284W        W77689  11.099  28.513   0.878
 9285W        W77690  34.098  44.211   1.191
 9286W        W77691   8.767  23.627  11.925
 9287W        W77692  28.242  32.810   0.247
 9288W        W77693  35.118  40.862  13.910
 9289W        W77694  31.209   5.908   4.891
 9290W        W77695  41.518  39.665   2.960
 9291W        W77696  17.794   4.827  14.395
 9292W        W77697  20.763  14.197   0.300
 9293W        W77698  27.678   1.499   0.619
 9294W        W77699  10.917   0.408   2.921
 9295W        W77700  30.250  38.810  12.866
 9296W        W77701  13.124  16.054  10.393
 9297W        W77702  37.586   2.000   0.616
 9298W        W77703  41.704   0.781  10.332
 9299W        W77704  42.433   9.215   1.892
 9300W        W77705  35.882  43.952   2.818
 9301W        W77706  13.222  43.032   3.202
 9302W        W77707  17.780  25.146  11.615
 9303W        W77708  11.778  21.285   2.133
 9304W        W77709  39.037  25.574  11.533
 9305W        W77710  33.103  30.601   0.450
 9306W        W77711  18.229  30.411   5.038
 9307W        W77712  27.603  27.589   4.412
 9308W        W77713   9.309  15.627   1.955
 9309W        W77714  36.803  20.329  12.021
 9310W        W77715   7.793  15.780  13.332
 9311W        W77716  44.739  11.525   0.317
 9312W        W77717  41.241  25.974   2.858
 9313W        W77718   5.489  38.665   1.425
 9314W        W77719  15.119  44.986  12.006
 9315W        W77720  22.604   2.153   0.995
 9316W        W77721  11.353  12.476   0.978
 9317W        W77722  34.073   9.767   1.602
 9318W        W77723  26.598  29.110  14.390
 9319W        W77724  20.602  16.656  11.419
 9320W        W77725  23.437  36.439  13.479
 9321W        W77726  38.910  15.676   0.442
 9322W        W77727   0.335  35.330   1.897
 9323W        W77728  18.066  35.966  10.991
 9324W        W77729  28.495  34.336   4.124
 9325W        W77730  39.008   0.975  10.191
 9326W        W77731  33.356  10.200   2.828
 9327W        W77732  17.817   1.633   1.817
 9328W        W77733  42.486  19.335  14.942
 9329W        W77734  20.791   1.911   3.148
 9330W        W77735   9.712  42.447   0.585
 9331W        W77736  17.913  41.632   3.363
 9332W        W77737  36.676  35.930   5.289
 9333W        W77738  34.423  27.476   2.836
 9334W        W77739  27.502  25.888   2.660
 9335W        W77740  18.760  33.381   3.883
 9336W        W77741  34.463   7.241  10.725
 9337W        W77742   6.770  21.921  11.572
 9338W        W77743  19.569  41.044  11.514
 9339W        W77744  40.363   4.305  11.391
 9340W        W77745  24.849  43.535   1.271
 9341W        W77746  19.187  29.598   4.564
 9342W        W77747  35.845  17.017  11.643
 9343W        W77748  11.974  23.066   0.339
 9344W        W77749   3.246  35.474  10.690
 9345W        W77750  42.357   6.168  12.409
 9346W        W77751  31.853  38.407  10.694
 9347W        W77752  12.610  20.827   2.038
 9348W        W77753   6.760  16.158  12.100
 9349W        W77754  20.692  25.777  11.158
 9350W        W77755  34.915  15.783   0.681
 9351W        W77756  31.108  40.203   2.700
 9352W        W77757   1.253  34.027   4.215
 9353W        W77758  17.210  24.007   0.759
 9354W        W77759   2.173  16.319  14.827
 9355W        W77760  44.571  29.218   3.200
 9356W        W77761  43.352  12.324  12.840
 9357W        W77762   1.261   6.154   1.855
 9358W        W77763  31.791  35.912   4.552
 9359W        W77764  32.183  44.905  10.338
 9360W        W77765   3.209  24.041  11.100
 9361W        W77766  43.520   5.988   2.217
 9362W        W77767  40.133  14.830  10.953
 9363W        W77768  20.990  35.399   2.849
 9364W        W77769  42.886  25.985  14.745
 9365W        W77770   0.374  30.939   0.166
 9366W        W77771  41.633   4.380  11.612
 9367W        W77772   3.764  33.937  12.514
 9368W        W77773  37.783  29.965   4.858
 9369W        W77774  34.554   8.496  11.568
 9370W        W77775  41.958   3.240   1.283
 9371W        W77776  18.643  14.695   0.276
 9372W        W77777  43.876  39.489  11.136
 9373W        W77778  41.754  22.066  11.517
 9374W        W77779  23.513   0.104   3.152
 9375W        W77780  26.923   1.801  14.273
 9376W        W77781  42.108  27.585  14.987
 9377W        W77782  24.773  33.636   4.607
 9378W        W77783   1.816  17.102   1.832
 9379W        W77784  41.308  12.662  11.640
 9380W        W77785  24.743  31.658  11.136
 9381W        W77786  11.369  17.744   4.707
 9382W        W77787  43.378   8.747  12.918
 9383W        W77788  15.630  10.129  12.505
 9384W        W77789  10.147   4.282   3.219
 9385W        W77790  14.350  36.525  14.874
 9386W        W77791  37.132  25.659   3.334
 9387W        W77792  33.512   5.476   0.353
 9388W        W77793  40.220  21.026  13.077
 9389W        W77794  37.391  10.069   4.677
 9390W        W77795  34.857  26.836  12.117
 9391W        W77796  11.190   0.520   0.754
 9392W        W77797  23.571  17.672  13.588
 9393W        W77798   0.277   8.162   1.499
 9394W        W77799  36.862   7.250  13.439
 9395W        W77800  40.997  40.850  11.350
 9396W        W77801  29.435   5.377  12.307
 9397W        W77802   7.611  33.899   2.820
 9398W        W77803  39.982  23.602  14.133
 9399W        W77804  10.909   6.231  13.541
 9400W        W77805  30.296  25.745   4.575
 9401W        W77806   0.006  29.594  13.295
 9402W        W77807   5.161   9.107  10.682
 9403W        W77808  11.158  38.025  13.908
 9404W        W77809  34.478  26.031   2.907
 9405W        W77810  16.369  14.243  13.544
 9406W        W77811  31.337  41.044  11.931
 9407W        W77812  17.211  10.937   2.675
 9408W        W77813  12.350   3.171   4.762
 9409W        W77814  35.945   9.357  13.076
 9410W        W77815  44.393  25.769   3.344
 9411W        W77816  38.368  40.633  11.978
 9412W        W77817  20.625  22.943   0.525
 9413W        W77818  17.372  22.319  12.702
 9414W        W77819  18.101  29.099   4.474
 9415W        W77820  38.072  35.396   4.430
 9416W        W77821   2.843  12.733   1.904
 9417W        W77822  13.817  43.324   2.333
 9418W        W77823  13.622  37.408  11.648
 9419W        W77824  41.253   1.335  14.787
 9420W        W77825  43.422   4.848   4.648
 9421W        W77826  41.258   7.605  11.678
 9422W        W77827  35.814   2.674  12.485
 9423W        W77828  31.442  11.612  13.844
 9424W        W77829  26.516  10.453  13.614
 9425W        W77830  23.003  25.461   3.577
 9426W        W77831  29.125  33.111   3.053
 9427W        W77832  11.331  41.821  12.975
 9428W        W77833  15.651  40.881   1.198
 9429W        W77834  11.552  28.719  12.050
 9430W        W77835  36.523  20.906   0.491
 9431W        W77836  22.724   5.934  14.563
 9432W        W77837  33.597  36.414   4.137
 9433W        W77838  20.175  20.047  10.361
 9434W        W77839  19.870  21.349  10.575
 9435W        W77840  23.097   6.651  13.829
 9436W        W77841  21.611   5.264   0.947
 9437W        W77842  10.117  38.591   4.603
 9438W        W77843   4.542  12.290   3.205
 9439W        W77844  12.164  12.579  13.699
 9440W        W77845   0.724  38.733  14.648
 9441W        W77846   2.497  29.040  13.528
 9442W        W77847   6.508  17.009   5.096
 9443W        W77848   3.214  35.042  14.340
 9444W        W77849  37.962  24.063   3.713
 9445W        W77850  16.799   3.195  10.793
 9446W        W77851   2.611   8.202   1.302
 9447W        W77852   7.283  14.784   3.175
 9448W        W77853  34.787   6.286  12.667
 9449W        W77854   8.193  44.528  10.889
 9450W        W77855  37.926  41.332   2.324
 9451W        W77856   4.859  21.511  10.418
 9452W        W77857  17.052  11.339  13.482
 9453W        W77858  43.273   2.646   3.736
 9454W        W77859  32.132  26.142  11.478
 9455W        W77860  36.907  12.428  12.970
 9456W        W77861  42.834   9.213   4.537
 9457W        W77862  41.867  25.218   2.319
 9458W        W77863  15.149  15.268   2.840
 9459W        W77864  15.024  24.562   5.184
 9460W        W77865   1.467   9.529  14.394
 9461W        W77866  37.936  40.920  12.077
 9462W        W77867  42.975   5.189   0.457
 9463W        W77868   3.065  26.024  14.850
 9464W        W77869   8.863  18.100  12.410
 9465W        W77870  27.595   9.570   2.730
 9466W        W77871  27.140  44.050  13.965
 9467W        W77872  41.797   7.370  14.065
 9468W        W77873  44.955  11.335  14.446
 9469W        W77874  24.217  21.897   2.584
 9470W        W77875  31.888  29.008  11.986
 9471W        W77876  19.061   8.264   2.833
 9472W        W77877  25.283  40.031   5.452
 9473W        W77878  26.931  27.943  11.798
 9474W        W77879  28.233  18.171   3.216
 9475W        W77880   3.826  40.456   0.839
 9476W        W77881  19.020  28.726  11.570
 9477W        W77882  44.008  44.194   0.826
 9478W        W77883  28.888  16.861  12.596
 9479W        W77884  21.179  39.128   4.684
 9480W        W77885  13.172  14.428   0.868
 9481W        W77886  44.008  42.428   3.742
 9482W        W77887  33.061  12.870  13.502
 9483W        W77888  21.239   5.728   2.600
 9484W        W77889  13.135   6.638   2.283
 9485W        W77890  13.244  19.162  13.983
 9486W        W77891  12.661   5.073  13.910
 9487W        W77892   1.219   6.879  12.226
 9488W        W77893  23.360  33.137  11.096
 9489W        W77894   0.801  29.963  13.125
 9490W        W77895  10.404  28.092   4.412
 9491W        W77896  20.030  24.667  12.962
 9492W        W77897   0.887  35.848   4.699
 9493W        W77898   4.279   5.532   4.785
 9494W        W77899   7.355  16.825  13.952
 9495W        W77900   4.617  21.951  10.240
 9496W        W77901  20.629   9.789  13.284
 9497W        W77902  24.965  42.375   2.182
 9498W        W77903  41.673  18.972  11.500
 9499W        W77904  24.070  33.882  14.602
 9500W        W77905   3.577  37.420   2.634
 9501W        W77906  26.649  33.594   5.010
 9502W        W77907  18.925   8.448   1.394
 9503W        W77908  39.621  37.382   4.135
 9504W        W77909  41.642  24.505   0.355
 9505W        W77910   8.953  34.929  14.765
 9506W        W77911  42.747  42.815   3.193
 9507W        W77912  18.509   9.725  12.810
 9508W        W77913   1.110  37.467  14.773
 9509W        W77914  10.487  42.019  12.817
 9510W        W77915  31.551   4.726   3.248
 9511W        W77916  11.208  28.946   1.752
 9512W        W77917   1.663  11.312   3.339
 9513W        W77918  13.159  33.889   4.873
 9514W        W77919  18.158  13.493   1.995
 9515W        W77920  12.048  10.370  14.665
 9516W        W77921  14.603  26.458  14.383
 9517W        W77922  43.224  10.760   1.723
 9518W        W77923   7.434  15.860  12.555
 9519W        W77924  39.263  16.881  14.889
 9520W        W77925   8.414   5.250   1.947
 9521W        W77926   8.177  37.519  10.725
 9522W        W77927  33.441  42.469   4.846
 9523W        W77928  38.623  39.948   4.049
 9524W        W77929  39.451  41.843  11.586
 9525W        W77930   6.273  36.195   4.573
 9526W        W77931  19.582  29.393  12.012
 9527W        W77932  18.151  43.335   2.890
 9528W        W77933  39.627  40.536   0.398
 9529W        W77934  39.786  12.704   1.392
 9530W        W77935   6.298  37.410  14.115
 9531W        W77936  20.933   0.765   1.544
 9532W        W77937  10.570   4.734   2.704
 9533W        W77938  18.546   2.820   0.477
 9534W        W77939  43.958  24.698  11.699
 9535W        W77940  12.759  12.560   0.325
 9536W        W77941  42.370  31.044   2.847
 9537W        W77942  28.076   8.511  10.533
 9538W        W77943  33.225   8.199   3.086
 9539W        W77944  43.577   9.388  12.500
 9540W        W77945   5.221  13.178  11.023
 9541W        W77946  20.911  37.515  13.028
 9542W        W77947  29.980   6.196   2.336
 9543W        W77948  14.819   2.480   3.573
 9544W        W77949  34.952   4.703   1.801
 9545W        W77950   3.315  39.009  10.585
 9546W        W77951   8.983  18.683  14.860
 9547W        W77952  15.717  28.230   2.199
 9548W        W77953  27.019  27.013  11.907
 9549W        W77954  23.251  14.249   4.954
 9550W        W77955  37.437  32.393  12.424
 9551W        W77956  42.347  27.453   1.781
 9552W        W77957  43.873   7.869  13.073
 9553W        W77958  42.183  28.498   1.957
 9554W        W77959  14.876  36.710  12.583
 9555W        W77960  42.705  33.604  14.002
 9556W        W77961  19.227  21.929  12.984
 9557W        W77962  19.024  15.376  14.441
 9558W        W77963  15.628  11.869   3.153
 9559W        W77964  28.501  26.247  13.871
 9560W        W77965   0.412  38.524   0.681
 9561W        W77966  39.724  14.206  13.225
 9562W        W77967  13.279  38.680  13.331
 9563W        W77968   7.139  13.931   4.205
 9564W        W77969  26.873  26.677   3.253
 9565W        W77970  16.830  41.447  11.043
 9566W        W77971  38.463   3.416  14.547
 9567W        W77972   9.214  22.099  11.074
 9568W        W77973  38.355  17.480   0.723
 9569W        W77974  10.832  31.680   4.494
 9570W        W77975  36.956  12.319   3.309
 9571W        W77976   0.415  29.887   4.146
 9572W        W77977   0.889  44.531   0.060
 9573W        W77978  17.759  12.168   1.846
 9574W        W77979  14.171   3.910   2.191
 9575W        W77980   8.668  40.441   2.188
 9576W        W77981  17.797  38.141   4.260
 9577W        W77982  23.948  16.615   3.218
 9578W        W77983  22.095  21.452  11.433
 9579W        W77984   7.440  31.589   4.178
 9580W        W77985  34.043  20.819  14.366
 9581W        W77986   6.879  31.100  11.929
 9582W        W77987  23.695  15.446  11.065
 9583W        W77988   4.725  33.222   2.586
 9584W        W77989  29.122  34.463  14.960
 9585W        W77990  20.964  26.465   0.078
 9586W        W77991  15.176  44.191  14.572
 9587W        W77992  39.004   1.837  14.439
 9588W        W77993   8.859   6.447   3.535
 9589W        W77994  25.948  17.248   4.471
 9590W        W77995  44.328  10.567  14.354
 9591W        W77996   8.118  27.632   0.246
 9592W        W77997  41.010   9.738   3.410
 9593W        W77998  31.472   2.911   4.676
 9594W        W77999  11.289  12.370   1.891
 9595W        W78000  14.051  23.568   2.250
 9596W        W78001  23.556  13.058  11.246
 9597W        W78002   6.753  29.608  12.993
 9598W        W78003   7.418  36.976   2.610
 9599W        W78004   0.796  32.796   1.505
 9600W        W78005  21.778   2.866  12.839
 9601W        W78006  36.878  42.021   1.235
 9602W        W78007  26.420  43.467  12.482
 9603W        W78008   3.312  25.607  11.114
 9604W        W78009  34.155  39.474  11.731
 9605W        W78010   5.602   2.403   1.270
 9606W        W78011  25.082  18.204   4.174
 9607W        W78012  43.278  12.467  11.744
 9608W        W78013  40.397   0.841  12.610
 9609W        W78014  44.235  18.166   4.157
 9610W        W78015  31.471   8.154   1.130
 9611W        W78016  33.247  16.925   3.267
 9612W        W78017  12.158   5.234  14.042
 9613W        W78018  19.507  44.705  10.779
 9614W        W78019  15.004  25.172  11.172
 9615W        W78020  24.955  10.337   0.354
 9616W        W78021   9.433  12.934  14.949
 9617W        W78022   3.413  39.402   3.220
 9618W        W78023  36.273  15.094  11.583
 9619W        W78024  31.565  24.985  11.224
 9620W        W78025  37.857  40.433  12.823
 9621W        W78026  11.408  11.756  11.678
 9622W        W78027  41.942  36.795  13.913
 9623W        W78028  13.065  24.519   3.610
 9624W        W78029   7.950  18.587  11.594
 9625W        W78030  10.662  36.388  13.144
 9626W        W78031   0.806  19.825   2.283
 9627W        W78032   1.036  28.615   4.189
 9628W        W78033  23.485  14.332  11.607
 9629W        W78034  36.531  23.839   9.925
 9630W        W78035  23.104   0.340  13.603
 9631W        W78036  42.348  21.672  12.923
 9632W        W78037   7.684  31.043  10.995
 9633W        W78038  42.610   7.682   2.013
 9634W        W78039  43.223  11.774  11.103
 9635W        W78040  12.677  38.411   3.703
 9636W        W78041   8.948  20.680  10.164
 9637W        W78042  21.671  24.558  13.403
 9638W        W78043  28.486  16.722  13.425
 9639W        W78044   0.115  44.371  10.743
 9640W        W78045  18.687  21.196  11.090
 9641W        W78046  27.197   4.930  14.274
 9642W        W78047  31.312  29.575  13.597
 9643W        W78048   2.739  15.636   3.296
 9644W        W78049   2.394  40.590   2.248
 9645W        W78050   9.879  18.955  13.590
 9646W        W78051  12.220  13.112   0.305
 9647W        W78052   2.823  39.348  13.022
 9648W        W78053   1.409  24.197   3.707
 9649W        W78054  26.617  22.496   0.355
 9650W        W78055   5.737  22.577  10.873
 9651W        W78056  18.138   0.678   4.251
 9652W        W78057   2.182  12.641   1.321
 9653W        W78058   0.483  36.922  13.355
 9654W        W78059   7.625  38.697   5.096
 9655W        W78060  20.669  19.471   1.929
 9656W        W78061  37.430  11.770   3.160
 9657W        W78062   5.734  16.238   2.625
 9658W        W78063  10.282  28.976   3.914
 9659W        W78064   3.964  36.652  10.566
 9660W        W78065  12.205   0.447  13.403
 9661W        W78066   4.879  15.290   0.832
 9662W        W78067  36.825  24.478   4.805
 9663W        W78068  26.504  41.459  12.342
 9664W        W78069  17.053   1.795   3.306
 9665W        W78070  22.477  26.813   4.058
 9666W        W78071  41.306  17.179  13.485
 9667W        W78072  44.696  44.429  11.022
 9668W        W78073  23.783  31.174  11.701
 9669W        W78074  15.623  20.236  10.467
 9670W        W78075   1.831  13.319  10.958
 9671W        W78076  16.496  30.397   1.730
 9672W        W78077   5.460  26.646   4.684
 9673W        W78078   9.434   0.742  13.856
 9674W        W78079  13.217  25.642  10.868
 9675W        W78080   5.121   4.682   0.002
 9676W        W78081  32.804  32.426  11.909
 9677W        W78082  35.009   8.216  12.761
 9678W        W78083  15.121  33.054   2.727
 9679W        W78084  13.160  29.488  13.840
 9680W        W78085  31.059  26.057   0.699
 9681W        W78086  12.923   4.783  11.417
 9682W        W78087  32.881  17.858   2.448
 9683W        W78088  43.986  38.619   1.632
 9684W        W78089  30.466  38.107  11.210
 9685W        W78090  17.659  15.497   1.893
 9686W        W78091  20.157   7.693   0.920
 9687W        W78092  21.118  43.682  10.911
 9688W        W78093  15.248  36.446  10.329
 9689W        W78094   0.952  32.979   4.591
 9690W        W78095  28.483  32.602  12.379
 9691W        W78096  34.299  26.643   0.399
 9692W        W78097  33.388  44.481   4.743
 9693W        W78098  29.411  43.750   4.137
 9694W        W78099   8.588  42.864  12.471
 9695W        W78100  15.761  27.652  11.692
 9696W        W78101   3.388  34.457   3.898
 9697W        W78102  44.060  39.111   1.434
 9698W        W78103  30.112  39.267   1.742
 9699W        W78104  41.775  20.596   4.637
 9700W        W78105   5.414  30.901   4.580
 9701W        W78106  35.471  21.745  12.133
 9702W        W78107  38.443   5.204   2.637
 9703W        W78108  28.101  36.930  13.373
 9704W        W78109  27.398  37.548   4.009
 9705W        W78110  11.032  28.662  11.161
 9706W        W78111  41.659  10.624  12.994
 9707W        W78112   0.611  15.808   0.337
 9708W        W78113  36.555  18.086   4.232
 9709W        W78114  23.481  43.017   3.240
 9710W        W78115   7.167  18.565   4.208
 9711W        W78116  15.052  13.986  11.544
 9712W        W78117  18.010   8.652   1.320
 9713W        W78118   1.713  29.995   2.623
 9714W        W78119  27.421   3.124  14.407
 9715W        W78120  29.638  28.884  13.949
 9716W        W78121  34.052  13.812   1.157
 9717W        W78122  36.958  15.545   2.812
 9718W        W78123  20.406  20.164  13.766
 9719W        W78124   3.227  13.176  14.315
 9720W        W78125  35.564  22.796  12.936
 9721W        W78126  22.555  17.185   0.922
 9722W        W78127  41.254  27.382  12.475
 9723W        W78128   6.733  33.048  10.553
 9724W        W78129   8.880  31.199  11.508
 9725W        W78130  39.208  27.167  13.471
 9726W        W78131  43.504  11.815   1.622
 9727W        W78132   4.876  10.687  14.046
 9728W        W78133  29.001  11.359   2.010
 9729W        W78134  41.517   7.250  12.016
 9730W        W78135  32.151  20.762   5.164
 9731W        W78136   9.674  33.585  14.305
 9732W        W78137   6.878  18.782  10.601
 9733W        W78138  33.759  38.497  11.258
 9734W        W78139  42.734   3.149   3.186
 9735W        W78140  35.643   1.547  12.001
 9736W        W78141  25.992  15.031   1.425
 9737W        W78142  20.005  19.082   0.493
 9738W        W78143  35.447  17.158   0.878
 9739W        W78144  15.304   6.209  11.665
 9740W        W78145  18.422  25.025   3.550
 9741W        W78146  17.078  31.145   4.538
 9742W        W78147  37.969  29.203  12.101
 9743W        W78148   0.314   7.341   3.074
 9744W        W78149  34.938  43.781   0.687
 9745W        W78150   1.527  40.935  11.572
 9746W        W78151   3.651   0.483   0.363
 9747W        W78152  39.912  43.735   4.143
 9748W        W78153   9.483  27.495  10.428
 9749W        W78154   4.417  15.573   0.868
 9750W        W78155   8.247  13.259   0.203
 9751W        W78156  14.145  21.663   0.420
 9752W        W78157   3.181   9.727  11.015
 9753W        W78158   0.948  12.518   1.657
 9754W        W78159  28.229  16.314  14.609
 9755W        W78160  10.746  43.729  12.862
 9756W        W78161  32.303  25.259  10.424
 9757W        W78162  42.528  15.651  11.603
 9758W        W78163  33.610  38.869   3.258
 9759W        W78164  12.085  24.140   3.573
 9760W        W78165  36.301  24.059  12.867
 9761W        W78166   0.710   5.370   1.927
 9762W        W78167  30.513  37.504  13.964
 9763W        W78168  29.071  16.278   3.066
 9764W        W78169  23.673  36.972  13.947
 9765W        W78170  24.098  34.469   4.546
 9766W        W78171   7.809   8.875   1.467
 9767W        W78172   3.985  37.882  13.279
 9768W        W78173   0.901   8.844  11.845
 9769W        W78174  42.807  29.234   0.685
 9770W        W78175  18.692  39.915   2.192
 9771W        W78176  26.447  10.797  11.700
 9772W        W78177  24.346  11.211  10.739
 9773W        W78178  14.168  23.598  11.190
 9774W        W78179  39.230  15.081  11.684
 9775W        W78180  10.317  29.961  14.946
 9776W        W78181  21.136  26.599  14.616
 9777W        W78182  23.813  33.190  10.484
 9778W        W78183  32.901   7.279  14.752
 9779W        W78184  14.324  24.768  11.781
 9780W        W78185  33.409   8.377   1.139
 9781W        W78186  43.287  30.591  10.665
 9782W        W78187   8.911  21.888   4.616
 9783W        W78188  40.151  12.129   2.648
 9784W        W78189  21.444  17.982  14.908
 9785W        W78190  39.073  30.162   2.354
 9786W        W78191  28.543  12.791   3.335
 9787W        W78192  27.047   7.697  12.929
 9788W        W78193  15.371  41.003   0.752
 9789W        W78194   1.060  35.403   0.737
 9790W        W78195  19.522  35.854   3.712
 9791W        W78196  11.938  22.722   3.274
 9792W        W78197  35.436   6.473  13.561
 9793W        W78198   3.941  23.578   2.697
 9794W        W78199  13.617  11.934   1.931
 9795W        W78200  24.764  36.145  14.533
 9796W        W78201  29.579  21.206   2.936
 9797W        W78202  40.561   5.261   4.605
 9798W        W78203   6.178   1.982   3.329
 9799W        W78204  32.265  15.247   1.237
 9800W        W78205   9.959  12.243   2.156
 9801W        W78206  28.597   1.675  14.584
 9802W        W78207   5.740  30.538  12.585
 9803W        W78208  41.991  41.972  14.069
 9804W        W78209  26.531  19.523   0.900
 9805W        W78210   0.724   3.038   2.522
 9806W        W78211   4.381  23.594   4.897
 9807W        W78212  42.333  13.197   0.933
 9808W        W78213  38.675  40.614  13.242
 9809W        W78214  10.115  28.491  12.916
 9810W        W78215  36.621   4.241  10.064
 9811W        W78216  44.645  35.973  11.603
 9812W        W78217  11.600  33.982   3.194
 9813W        W78218   1.708  13.201   2.471
 9814W        W78219  19.023  17.293   4.199
 9815W        W78220  28.185   5.716  13.211
 9816W        W78221  33.534  16.606   1.391
 9817W        W78222  32.160  37.048  12.476
 9818W        W78223   9.310  21.714   2.282
 9819W        W78224  31.606   6.531  13.852
 9820W        W78225  31.493   5.847   4.039
 9821W        W78226  32.951  37.553   4.201
 9822W        W78227   0.152   2.701   3.820
 9823W        W78228  22.714  22.472  12.064
 9824W        W78229  31.347  30.003   4.127
 9825W        W78230  11.798  25.408   0.304
 9826W        W78231  20.153  26.918   4.136
 9827W        W78232   2.472   1.855   0.007
 9828W        W78233   2.839   7.074  14.757
 9829W        W78234  35.370  33.542   4.216
 9830W        W78235  14.268  33.078   0.708
 9831W        W78236  23.580  24.598   3.117
 9832W        W78237  30.448  28.529  11.505
 9833W        W78238  40.327  14.789  12.280
 9834W        W78239  26.164  28.057   3.827
 9835W        W78240  43.505  34.604   2.320
 9836W        W78241   7.620   6.354  12.326
 9837W        W78242  24.694  11.863   1.258
 9838W        W78243  37.692  18.776   4.003
 9839W        W78244  28.710  20.174   0.938
 9840W        W78245  10.761   2.220  11.916
 9841W        W78246  28.440  31.118  14.852
 9842W        W78247  18.101  27.591  10.610
 9843W        W78248  38.142  13.174   3.249
 9844W        W78249  18.988   1.404  14.559
 9845W        W78250  14.915  12.372   3.236
 9846W        W78251  25.806  21.379  11.949
 9847W        W78252  34.906  42.825   0.373
 9848W        W78253  36.586  20.096  12.605
 9849W        W78254  39.295  34.004  12.554
 9850W        W78255  44.998  21.854   3.059
 9851W        W78256   7.187  29.097   2.271
 9852W        W78257   2.422  17.355  10.520
 9853W        W78258  22.978  15.590  11.263
 9854W        W78259  24.469   8.330  14.040
 9855W        W78260  42.400  27.211  12.568
 9856W        W78261   3.227  15.419   5.043
 9857W        W78262  25.727  36.991  13.401
 9858W        W78263  36.551   8.285   2.738
 9859W        W78264  29.118  13.214  14.981
 9860W        W78265   2.514  14.134   3.259
 9861W        W78266  43.809  23.014  10.324
 9862W        W78267  10.145  23.552   2.918
 9863W        W78268   8.403  23.309   1.798
 9864W        W78269  22.211  26.098  10.695
 9865W        W78270  30.880   0.819  14.155
 9866W        W78271  14.663   6.152  13.306
 9867W        W78272  11.240   9.328   1.484
 9868W        W78273   8.621  29.886  11.511
 9869W        W78274  18.578   5.796   0.601
 9870W        W78275  16.841   6.772   1.441
 9871W        W78276  44.877  26.541  13.271
 9872W        W78277  35.394  25.394  10.777
 9873W        W78278  39.830   0.462  14.931
 9874W        W78279  41.143  20.444   1.894
 9875W        W78280  42.596  25.642   2.044
 9876W        W78281  24.455  31.128   1.896
 9877W        W78282  19.094  43.508  14.082
 9878W        W78283  24.725  43.769  11.502
 9879W        W78284  32.181   7.853   0.751
 9880W        W78285  19.237  10.390   2.519
 9881W        W78286   2.306   6.190   1.444
 9882W        W78287  27.861  41.684   1.739
 9883W        W78288   9.520  14.890  12.952
 9884W        W78289  34.862  35.425  12.316
 9885W        W78290  29.540   4.827  10.060
 9886W        W78291  19.495   7.253  13.384
 9887W        W78292  31.126   9.351  12.244
 9888W        W78293  28.240  23.628  13.318
 9889W        W78294  38.659  19.359  14.119
 9890W        W78295   3.515  31.940  13.887
 9891W        W78296  29.750   9.478  14.104
 9892W        W78297  40.092  28.562  14.808
 9893W        W78298  11.672  37.394  14.187
 9894W        W78299  13.098  31.276   3.597
 9895W        W78300  19.087  35.020  13.852
 9896W        W78301  10.243  35.939  12.038
 9897W        W78302  24.970   0.290  12.188
 9898W        W78303  34.441  40.514   3.716
 9899W        W78304   5.684   5.385  11.736
 9900W        W78305   8.738  44.696  11.548
 9901W        W78306   0.942   7.957  14.117
 9902W        W78307  44.481  35.926   4.773
 9903W        W78308   4.455  29.599  11.180
 9904W        W78309  28.009  40.060  14.201
 9905W        W78310   4.807  36.637   1.789
 9906W        W78311  43.257   9.297   2.818
 9907W        W78312  10.291   8.276   9.909
 9908W        W78313  16.124  25.329   1.238
 9909W        W78314  36.631  16.912  14.311
 9910W        W78315   2.684  26.101  11.078
 9911W        W78316  34.975  14.316  10.367
 9912W        W78317  36.143  18.482  13.358
 9913W        W78318  25.590  35.886   1.781
 9914W        W78319  17.876  16.287   0.811
 9915W        W78320  13.612  23.957  11.610
 9916W        W78321  27.004   6.146  13.979
 9917W        W78322   0.662   3.285   0.988
 9918W        W78323  35.086  38.825  13.445
 9919W        W78324  32.508   4.526   1.997
 9920W        W78325  30.492  13.218   2.982
 9921W        W78326  31.089  39.048   0.428
 9922W        W78327  30.495  22.496  10.658
 9923W        W78328  13.366  26.491  12.826
 9924W        W78329   8.731  33.813  10.530
 9925W        W78330  28.168  12.933  11.089
 9926W        W78331  14.781  21.203   1.454
 9927W        W78332  24.489  16.845   4.204
 9928W        W78333  44.637  11.494   1.839
 9929W        W78334  11.854   8.917   4.058
 9930W        W78335  15.238  32.700  11.720
 9931W        W78336  24.270  28.510  14.223
 9932W        W78337  32.731  39.477  13.047
 9933W        W78338  25.418  29.244  14.603
 9934W        W78339  26.877   0.325   3.372
 9935W        W78340  31.157  25.297  11.124
 9936W        W78341  32.007   1.741   0.211
 9937W        W78342   5.138   5.198  11.423
 9938W        W78343  10.740  17.904   2.771
 9939W        W78344  34.412  16.629   3.299
 9940W        W78345  11.996  17.114   1.438
 9941W        W78346   6.865  37.823   4.533
 9942W        W78347  43.061  39.423   2.365
 9943W        W78348   7.753   9.845  13.946
 9944W        W78349  22.580  25.412  14.561
 9945W        W78350  23.992  17.850  12.971
 9946W        W78351   9.659  11.822   2.039
 9947W        W78352  11.327  44.698   4.995
 9948W        W78353  39.338  20.201  10.544
 9949W        W78354  33.509  30.041  11.545
 9950W        W78355  44.536  43.489   3.237
 9951W        W78356  21.306   2.718   3.156
 9952W        W78357   5.155  37.462  13.388
 9953W        W78358  22.562  32.380  13.352
 9954W        W78359  35.535  34.839   2.374
 9955W        W78360  23.048  35.479  10.737
 9956W        W78361  27.821  26.463  13.372
 9957W        W78362  13.180  39.775   3.197
 9958W        W78363  20.560   7.870  10.905
 9959W        W78364   8.596  20.963  13.351
 9960W        W78365   9.472  31.106   0.491
 9961W        W78366   6.166  10.585  11.678
 9962W        W78367   4.343  11.049  11.824
 9963W        W78368  13.249  34.610  14.840
 9964W        W78369   2.847  26.200   2.574
 9965W        W78370   2.861   4.866   4.608
 9966W        W78371  13.198   1.950   3.177
 9967W        W78372  29.122  27.086   1.659
 9968W        W78373  40.348  38.180   0.250
 9969W        W78374  24.491   1.791  10.692
 9970W        W78375  34.140  14.551   1.855
 9971W        W78376  25.659  40.875   0.355
 9972W        W78377  20.427  33.128   3.516
 9973W        W78378  13.580  10.218  14.553
 9974W        W78379  28.690  13.919   1.443
 9975W        W78380  22.011  19.320   1.939
 9976W        W78381   0.311  11.792  12.186
 9977W        W78382  32.943   2.069   0.237
 9978W        W78383  18.804  19.141   4.347
 9979W        W78384  42.860  11.667   3.581
 9980W        W78385   1.229   7.996   4.441
 9981W        W78386  27.901  37.608   2.790
 9982W        W78387  16.008  30.907   0.650
 9983W        W78388  12.106  22.371   3.642
 9984W        W78389   1.836  38.039   4.810
 9985W        W78390   2.980  33.868   4.795
 9986W        W78391  27.773  12.826   3.597
 9987W        W78392  27.147  18.115  11.101
 9988W        W78393   2.253  25.463  11.981
 9989W        W78394  43.736  30.311   2.273
 9990W        W78395  27.627  34.747  11.970
 9991W        W78396  17.663  23.674   3.730
 9992W        W78397  24.218  40.164  11.471
 9993W        W78398  41.420  24.901  14.892
 9994W        W78399  27.533  29.636   4.730
 9995W        W78400  22.536  40.518  12.819
 9996W        W78401  28.046  29.363   1.060
 9997W        W78402  14.619   9.693  11.734
 9998W        W78403  42.998  33.368  12.929
 9999W        W78404  30.677  15.255   0.421
10000W        W78405  37.287   8.789   3.845
10001W        W78406  25.113   9.894   4.276
10002W        W78407  18.808  30.530  14.304
10003W        W78408   0.607   4.050  12.977
10004W        W78409  13.618  17.599   4.700
10005W        W78410   1.208   8.551  11.555
10006W        W78411  16.801   6.636   1.934
10007W        W78412   7.792  40.710  12.068
10008W        W78413  26.678   2.346  12.790
10009W        W78414   3.682   3.407  12.450
10010W        W78415  36.565  40.879   1.529
10011W        W78416   7.688   0.649   5.077
10012W        W78417   4.519  27.130  12.558
10013W        W78418  26.868  28.079  10.773
10014W        W78419  42.949  31.897   2.670
10015W        W78420  39.016   2.829   0.582
10016W        W78421  43.057  24.183   0.431
10017W        W78422  27.443  24.292  14.258
10018W        W78423  39.764  39.343   1.910
10019W        W78424  42.996   7.444  13.395
10020W        W78425  16.904  10.545  11.004
10021W        W78426  40.412  24.884   2.313
10022W        W78427  18.356  21.368  13.920
10023W        W78428   5.888  20.168  14.901
10024W        W78429  16.720  42.290  11.500
10025W        W78430   2.770   1.929   3.410
10026W        W78431  17.207  34.563   4.536
10027W        W78432  19.139   8.384   1.879
10028W        W78433   1.437  17.673   0.629
10029W        W78434  15.585  25.660  12.458
10030W        W78435  44.392  38.043   0.847
10031W        W78436  14.106  15.050  11.422
10032W        W78437   3.805  24.787  12.143
10033W        W78438  41.161  41.573   0.336
10034W        W78439  18.101  10.683  12.513
10035W        W78440   9.649   6.282   1.621
10036W        W78441   0.982  19.376  14.041
10037W        W78442   2.453  34.463  14.317
10038W        W78443  20.798  34.497   4.425
10039W        W78444  21.137  21.017   3.623
10040W        W78445  10.195  36.589   1.730
10041W        W78446  26.645  27.325   0.852
10042W        W78447   7.646  28.522   2.801
10043W        W78448   8.436  40.955   2.298
10044W        W78449   5.630   2.399   2.195
10045W        W78450  26.996  28.598  13.449
10046W        W78451  39.933  33.693  11.977
10047W        W78452  25.480  19.202   3.421
10048W        W78453  24.136  41.906  12.821
10049W        W78454  12.354   8.912  11.378
10050W        W78455  15.142   1.726  14.159
10051W        W78456  27.139   6.488  11.698
10052W        W78457  12.824  42.844   1.735
10053W        W78458   8.906  40.460   4.550
10054W        W78459  20.248   1.838   1.289
10055W        W78460  15.630  11.882   5.048
10056W        W78461  10.516   6.662  11.205
10057W        W78462  12.419  11.805  14.758
10058W        W78463  33.260  40.347  12.970
10059W        W78464  17.152   7.881   1.982
10060W        W78465  10.103  20.338  14.425
10061W        W78466  38.056  14.393  11.690
10062W        W78467  12.594  21.558  14.581
10063W        W78468   7.147   4.671  13.301
10064W        W78469  18.646  26.696   3.779
10065W        W78470   8.179  39.253  13.361
10066W        W78471  22.268  13.244  11.900
10067W        W78472  33.443  29.084   0.337
10068W        W78473  20.222  38.408   1.241
10069W        W78474   6.481   9.328   1.918
10070W        W78475  12.085  10.750   2.394
10071W        W78476  13.888  30.063  10.479
10072W        W78477  37.922   3.510  13.382
10073W        W78478  24.048  30.628   1.278
10074W        W78479  35.215  26.739   2.853
10075W        W78480  10.878  40.932   2.323
10076W        W78481  11.394  35.414   2.732
10077W        W78482  19.649  33.591   3.061
10078W        W78483  25.330  26.839  11.488
10079W        W78484  38.373  40.909   1.601
10080W        W78485  17.138  43.933   0.404
10081W        W78486  35.409  41.023   2.554
10082W        W78487  30.228  17.759  13.107
10083W        W78488  17.607  10.079  12.965
10084W        W78489  26.188   9.203  11.650
10085W        W78490  21.209   1.950   2.317
10086W        W78491  31.120  14.572   4.248
10087W        W78492  38.646  12.184  12.959
10088W        W78493  31.919   4.556  13.642
10089W        W78494  29.565   2.375  14.105
10090W        W78495  42.424  14.551  13.041
10091W        W78496  38.490  44.890   3.218
10092W        W78497   0.406  28.671   3.150
10093W        W78498   2.515   8.348   5.029
10094W        W78499  16.736  34.873   4.155
10095W        W78500  24.224  12.552  11.586
10096W        W78501  31.945  44.953   2.796
10097W        W78502  19.861  10.692  13.788
10098W        W78503  35.374  16.217  13.353
10099W        W78504  40.302  36.057  14.314
10100W        W78505   7.197  25.735  11.304
10101W        W78506  34.527  39.813  12.861
10102W        W78507   8.181   3.009  11.623
10103W        W78508  43.875  32.924  13.957
10104W        W78509   8.900  11.298   4.053
10105W        W78510   3.987  23.475  11.981
10106W        W78511  39.841  32.222  11.341
10107W        W78512  24.559  26.951  13.615
10108W        W78513  35.552   9.034   1.239
10109W        W78514  36.405  22.652   2.198
10110W        W78515  22.533   5.246   0.918
10111W        W78516   9.267  31.173   5.326
10112W        W78517  43.510  24.280   4.831
10113W        W78518  11.652  13.055   3.381
10114W        W78519  29.057  22.940   2.798
10115W        W78520  39.400  14.025   1.765
10116W        W78521  14.102  38.875   0.530
10117W        W78522  10.879   4.714  12.553
10118W        W78523  13.156  39.935   4.882
10119W        W78524  18.744  44.185   2.603
10120W        W78525  17.044  44.743  10.675
10121W        W78526  21.495  18.721   4.372
10122W        W78527  29.044  33.937  13.522
10123W        W78528  37.991   2.698   5.110
10124W        W78529   9.726  41.450  13.597
10125W        W78530   4.771  36.843  11.080
10126W        W78531  25.910  27.725   3.102
10127W        W78532  18.163  39.533   4.245
10128W        W78533  31.272  21.838  10.669
10129W        W78534  36.675  31.962  12.515
10130W        W78535   0.009  16.264  11.117
10131W        W78536  16.450  40.378  13.860
10132W        W78537  10.382  37.378   2.282
10133W        W78538  11.328  20.703  12.037
10134W        W78539  11.220   6.943  14.129
10135W        W78540  38.365  33.595  11.639
10136W        W78541  28.720  21.209  12.421
10137W        W78542  44.745  20.064   1.440
10138W        W78543  38.190  12.581   2.429
10139W        W78544  41.830  18.068   1.749
10140W        W78545  34.353   2.933   2.981
10141W        W78546  38.567  38.072  14.234
10142W        W78547  21.128   4.982  12.560
10143W        W78548  29.759  44.708   1.340
10144W        W78549  28.494  10.313  14.054
10145W        W78550   5.771  44.319  12.402
10146W        W78551  37.980  20.576   0.524
10147W        W78552  29.451  15.441   1.018
10148W        W78553   2.197  36.479  12.885
10149W        W78554   2.973  19.812  12.294
10150W        W78555  36.425   2.801   0.389
10151W        W78556  33.560  27.763  14.709
10152W        W78557  15.153  34.147   3.549
10153W        W78558  24.793  42.854  11.257
10154W        W78559  33.922  31.269  11.584
10155W        W78560  41.149   6.385  11.320
10156W        W78561   5.390   0.915  13.425
10157W        W78562  19.342  10.091  12.407
10158W        W78563   6.093  31.875   1.375
10159W        W78564  38.033  40.389   2.391
10160W        W78565  20.691   4.671  12.489
10161W        W78566  15.282  41.926   1.050
10162W        W78567   5.780  28.988   0.481
10163W        W78568  14.460  21.648  13.880
10164W        W78569   8.344   2.107  14.916
10165W        W78570  27.640  19.210  14.375
10166W        W78571   5.547  14.974  11.103
10167W        W78572  10.108  24.207   1.808
10168W        W78573   0.288  44.481   3.126
10169W        W78574  22.853  33.281   2.227
10170W        W78575  27.792  11.593  14.099
10171W        W78576  41.805  22.733  12.553
10172W        W78577  39.488  19.203   1.442
10173W        W78578   5.848  30.622   1.132
10174W        W78579  34.841  10.199  11.566
10175W        W78580  26.530  13.695   2.942
10176W        W78581  35.602  20.350  12.360
10177W        W78582  18.045  42.799  14.856
10178W        W78583   2.653   1.016  11.738
10179W        W78584  30.147   2.797   3.690
10180W        W78585  24.751  42.314  14.817
10181W        W78586  35.903  24.942  11.871
10182W        W78587  15.287  25.969   3.836
10183W        W78588  13.780  15.360   3.654
10184W        W78589   9.087  20.812   1.346
10185W        W78590  41.661  30.381   0.443
10186W        W78591  20.432  43.099  10.502
10187W        W78592  42.546  18.639  11.621
10188W        W78593  30.042  15.245   2.607
10189W        W78594  13.742  44.339  14.458
10190W        W78595  42.720  37.498  12.479
10191W        W78596  35.820  39.014  11.559
10192W        W78597  16.115  39.997  12.686
10193W        W78598   2.122  30.784   9.834
10194W        W78599  20.331   2.474  13.325
10195W        W78600  17.657  17.783  11.588
10196W        W78601  36.605   2.960  11.426
10197W        W78602  16.447  42.895   2.801
10198W        W78603  44.234  42.067  13.054
10199W        W78604   1.492  20.265  12.890
10200W        W78605  38.329  13.604   1.405
10201W        W78606  20.072  31.027   2.279
10202W        W78607   6.891   0.294  13.426
10203W        W78608  24.530  40.451  14.009
10204W        W78609  41.440  41.111  10.960
10205W        W78610  33.008  31.747   4.522
10206W        W78611  18.139   7.780  12.358
10207W        W78612  12.010   1.829   4.062
10208W        W78613  44.149  21.261   1.829
10209W        W78614  14.008  36.651  12.517
10210W        W78615  24.713  18.234   1.499
10211W        W78616  26.438   7.976   0.342
10212W        W78617  43.306   0.439   0.973
10213W        W78618   3.402   5.174   0.028
10214W        W78619   6.905   8.940   0.214
10215W        W78620  37.611  25.154   1.471
10216W        W78621  28.459  23.715  13.911
10217W        W78622  15.665   5.005  10.544
10218W        W78623  25.486  15.724   0.872
10219W        W78624  24.213   5.452  14.294
10220W        W78625  36.382  29.704   3.244
10221W        W78626  35.612  25.362   1.730
10222W        W78627  17.683  35.588   2.743
10223W        W78628  34.318  43.666   3.665
10224W        W78629  34.152  13.340   1.333
10225W        W78630   1.106  21.240   2.139
10226W        W78631  24.049   6.216  13.865
10227W        W78632  35.464  29.794   4.677
10228W        W78633  15.549  37.888  12.918
10229W        W78634   2.774  15.597  10.730
10230W        W78635  12.961  16.339   4.219
10231W        W78636   2.506   6.479  12.141
10232W        W78637  11.316  19.428  11.401
10233W        W78638  15.342   2.883  13.563
10234W        W78639  38.490  16.305   1.435
10235W        W78640  17.737   4.295   4.657
10236W        W78641  41.361  41.385   0.780
10237W        W78642  20.316   3.807  12.971
10238W        W78643  11.724  43.632  13.799
10239W        W78644   4.286   3.684  11.626
10240W        W78645  10.916  40.262   4.387
10241W        W78646  15.401  40.363  12.992
10242W        W78647  33.690  29.907   0.536
10243W        W78648   0.747  14.779  11.970
10244W        W78649  35.678  24.928  10.814
10245W        W78650  22.627  12.343   2.551
10246W        W78651  15.992  26.863   3.361
10247W        W78652  27.460  15.856   2.933
10248W        W78653  42.510   8.669  14.093
10249W        W78654  20.139  10.659   0.695
10250W        W78655  30.568   3.566   3.855
10251W        W78656  27.717  18.174  12.495
10252W        W78657  44.889  43.046   4.770
10253W        W78658  40.376   5.366  14.667
10254W        W78659  21.111  13.554   1.295
10255W        W78660   4.957  18.526   3.867
10256W        W78661  32.809  20.312  12.418
10257W        W78662  30.217  41.273   3.571
10258W        W78663  10.318  17.789  11.126
10259W        W78664  11.093  41.490   1.286
10260W        W78665   8.638   0.907  11.634
10261W        W78666  16.215  36.403   1.929
10262W        W78667  44.506  42.656  13.840
10263W        W78668   5.209  36.397   2.753
10264W        W78669   8.585  33.508   0.722
10265W        W78670  29.668   1.881   4.181
10266W        W78671  30.410  43.400  11.057
10267W        W78672  36.474  42.185   0.286
10268W        W78673   0.698  27.946   3.504
10269W        W78674   5.956  14.521  14.240
10270W        W78675  34.916   5.336   0.470
10271W        W78676  24.479  36.993  14.695
10272W        W78677  12.884  30.013   2.454
10273W        W78678   4.383  26.182  13.378
10274W        W78679  43.316   3.156  14.883
10275W        W78680  27.187   0.462   4.691
10276W        W78681   6.390  18.087   4.980
10277W        W78682   6.978  11.775  14.551
10278W        W78683   7.343  33.772  13.170
10279W        W78684  18.810  34.835  10.995
10280W        W78685   8.818   7.679  13.823
10281W        W78686  20.098   5.210  14.821
10282W        W78687  31.597  22.164   2.693
10283W        W78688  19.131  18.260   9.797
10284W        W78689  37.558   5.012   3.718
10285W        W78690  44.009  24.920  10.416
10286W        W78691  29.701  16.161  13.359
10287W        W78692  31.389   2.840   3.320
10288W        W78693  12.417  40.917  13.363
10289W        W78694  22.903  15.913  13.970
10290W        W78695  34.633  23.147   1.718
10291W        W78696  16.142  27.673  10.446
10292W        W78697   7.358   5.194  12.055
10293W        W78698  30.618  13.869  11.168
10294W        W78699  32.019  43.265   4.611
10295W        W78700  41.994   4.020  12.784
10296W        W78701   2.461  25.088  12.876
10297W        W78702   1.526  30.390  13.899
10298W        W78703  13.373   6.883  12.056
10299W        W78704   3.206  42.806   0.043
10300W        W78705  26.096  29.406   0.764
10301W        W78706  37.008  29.585  13.514
10302W        W78707  33.422   0.762  13.471
10303W        W78708  15.599   7.181   3.144
10304W        W78709  16.537  35.835   4.151
10305W        W78710  26.887  30.896  12.582
10306W        W78711  14.836  44.004   3.658
10307W        W78712   5.916  31.939  13.120
10308W        W78713  18.769  12.372  10.650
10309W        W78714   3.374  24.430   2.728
10310W        W78715  31.374  34.490   1.305
10311W        W78716  17.326  19.127   2.819
10312W        W78717   4.938   3.029  12.841
10313W        W78718  13.618  13.375   0.120
10314W        W78719  20.790  26.597   0.563
10315W        W78720  37.867  10.251  12.961
10316W        W78721   0.492  40.295  13.753
10317W        W78722   9.918  17.653  14.856
10318W        W78723  28.953   2.219  11.013
10319W        W78724  41.368  36.078   1.192
10320W        W78725  20.558   9.396   3.824
10321W        W78726  11.348  37.453  12.800
10322W        W78727  20.044  15.239  13.494
10323W        W78728  26.561  17.681   2.068
10324W        W78729  17.061  36.589   4.111
10325W        W78730  15.089  41.712  11.879
10326W        W78731   5.368   9.495   4.214
10327W        W78732  37.535   1.767   4.840
10328W        W78733  16.308  27.713  12.973
10329W        W78734   3.934  32.554  12.496
10330W        W78735  31.885  31.601  10.681
10331W        W78736   2.810  16.726  13.783
10332W        W78737   4.445  31.923  12.834
10333W        W78738  42.027   8.526  14.879
10334W        W78739  24.401   8.531   1.535
10335W        W78740  16.074  29.594  12.611
10336W        W78741  23.733  42.026  11.035
10337W        W78742  25.216   1.016  11.110
10338W        W78743  24.732  22.123   4.951
10339W        W78744   4.343   9.502   4.495
10340W        W78745   0.757  35.741   3.739
10341W        W78746  34.317  29.052   2.786
10342W        W78747  28.936  17.258  12.988
10343W        W78748  25.393  32.366   0.805
10344W        W78749  19.313   4.776  11.041
10345W        W78750  30.636   5.703  10.661
10346W        W78751  12.098  39.477   4.171
10347W        W78752  37.331   6.763   2.330
10348W        W78753  42.296  36.353   1.760
10349W        W78754   3.508  41.402  11.995
10350W        W78755   8.912   1.868  10.692
10351W        W78756  18.437  34.592  13.107
10352W        W78757  39.926  34.331  14.976
10353W        W78758  17.216  14.119   2.303
10354W        W78759   9.684   2.189  13.412
10355W        W78760   9.898   1.232   4.680
10356W        W78761  14.903   5.820   4.735
10357W        W78762  16.282  36.608   2.387
10358W        W78763  40.970  42.049  14.898
10359W        W78764  42.083  36.679  10.426
10360W        W78765  10.351   6.037   0.271
10361W        W78766  18.635  11.345   4.616
10362W        W78767   3.853  33.053  10.627
10363W        W78768  23.738  18.483   1.222
10364W        W78769   1.365   8.293   3.411
10365W        W78770  17.283  29.135   0.935
10366W        W78771   4.928  16.257  10.998
10367W        W78772  21.827  34.364  13.369
10368W        W78773   2.386  29.356  13.979
10369W        W78774   7.799  40.089   1.359
10370W        W78775  14.232   1.448   2.673
10371W        W78776  20.693  30.950  13.289
10372W        W78777  17.055   2.220   3.735
10373W        W78778  11.905  30.163  10.254
10374W        W78779  42.572   7.889  12.526
10375W        W78780  41.570  10.558  11.038
10376W        W78781  34.731  44.207  12.956
10377W        W78782  12.250   7.186  14.434
10378W        W78783  38.017  25.007   3.493
10379W        W78784  18.989   5.374   5.123
10380W        W78785   3.329  31.608  12.528
10381W        W78786  34.663  19.883   4.065
10382W        W78787  16.347  23.091  10.720
10383W        W78788  35.470  17.586   1.474
10384W        W78789  25.164  22.269   1.282
10385W        W78790  15.648   9.593  12.496
10386W        W78791  30.927  20.494  12.492
10387W        W78792  27.294  18.940   0.726
10388W        W78793  12.076  23.304   0.830
10389W        W78794  12.423  37.411  14.906
10390W        W78795  16.592  25.784   4.522
10391W        W78796   4.708  39.559   4.133
10392W        W78797  21.085   9.599  14.540
10393W        W78798   7.284  37.528  14.449
10394W        W78799   7.219  32.920   4.569
10395W        W78800  36.667  19.545  13.941
10396W        W78801  18.245  15.430   1.884
10397W        W78802  34.654  42.315  13.760
10398W        W78803   8.677  42.927   2.331
10399W        W78804  38.245  30.768   4.247
10400W        W78805  39.841  33.917  10.151
10401W        W78806  35.895  17.545   1.763
10402W        W78807  28.494  38.140   2.206
10403W        W78808  39.670  34.630  11.435
10404W        W78809   6.787   4.494  11.461
10405W        W78810   5.917   3.783  14.345
10406W        W78811  15.072  40.087   2.121
10407W        W78812  42.832  43.014  14.873
10408W        W78813  37.043  18.099   0.775
10409W        W78814  34.934   8.359  11.950
10410W        W78815  40.541   9.362  13.565
10411W        W78816   8.899  19.138  13.287
10412W        W78817  15.143  40.555  11.446
10413W        W78818  44.372  36.866  14.491
10414W        W78819  35.415  40.401  13.900
10415W        W78820  40.381  14.870  13.274
10416W        W78821   6.026  42.973  13.451
10417W        W78822  43.888  39.523  12.069
10418W        W78823  22.238  13.826   4.147
10419W        W78824   2.028  40.864  11.649
10420W        W78825  15.718  42.961  14.727
10421W        W78826  31.017  43.294  14.606
10422W        W78827  43.427  26.515  11.544
10423W        W78828  39.364  34.445  12.811
10424W        W78829  24.262  38.435   0.893
10425W        W78830   2.899  42.056  14.445
10426W        W78831  23.723  13.280  10.791
10427W        W78832  24.166   0.446  11.501
10428W        W78833  31.194   2.040  11.408
10429W        W78834  37.129  43.508   0.221
10430W        W78835  18.243  12.276   3.269
10431W        W78836  40.561  33.272   1.133
10432W        W78837   7.997   6.960   0.446
10433W        W78838   1.940   4.293  12.974
10434W        W78839  37.319  10.783  14.966
10435W        W78840  30.483  20.849  13.616
10436W        W78841  11.307  38.353   3.214
10437W        W78842   8.165  13.329  14.697
10438W        W78843   3.156  37.828  14.964
10439W        W78844  33.863  21.610  14.573
10440W        W78845  13.112  19.790   2.736
10441W        W78846  18.649  35.619   4.513
10442W        W78847   6.888  42.980  12.144
10443W        W78848  29.346   4.469  11.599
10444W        W78849  20.198  41.825  14.833
10445W        W78850  33.458   8.287  13.020
10446W        W78851  24.568  22.991  13.569
10447W        W78852  38.314  21.197  12.036
10448W        W78853  19.143  39.092   2.413
10449W        W78854  12.806   4.161   2.126
10450W        W78855  17.749  41.039  14.821
10451W        W78856  43.472  23.691   2.591
10452W        W78857   7.973  15.669   3.177
10453W        W78858  43.755  14.154  14.985
10454W        W78859  28.205  41.968  13.516
10455W        W78860  28.946  38.467  12.686
10456W        W78861  38.312  41.804   1.194
10457W        W78862  33.363   9.665  11.405
10458W        W78863  15.144  38.347   3.446
10459W        W78864  11.038  34.803  11.426
10460W        W78865  37.965  39.983  14.866
10461W        W78866  18.699  12.659  14.273
10462W        W78867  22.769  33.281  11.240
10463W        W78868   5.468  28.076  11.415
10464W        W78869  32.617  42.050  14.325
10465W        W78870   1.589   9.487  11.693
10466W        W78871  37.422  20.986   9.955
10467W        W78872   6.702  24.427  10.664
10468W        W78873  28.539   9.172   2.831
10469W        W78874  31.858   9.965  10.378
10470W        W78875  37.041  42.479   1.411
10471W        W78876  41.358   0.091   4.432
10472W        W78877  43.317  14.897   3.156
10473W        W78878  37.052  37.412  14.439
10474W        W78879  42.363  19.223  14.034
10475W        W78880   8.875  37.768  13.361
10476W        W78881  14.656  39.273   2.334
10477W        W78882  23.998  37.826   3.534
10478W        W78883  38.291   0.786  14.957
10479W        W78884  10.776  18.288   1.656
10480W        W78885   7.067  33.332  13.296
10481W        W78886  20.238  31.388   1.906
10482W        W78887  18.196  21.036  14.918
10483W        W78888  38.212  10.381  12.329
10484W        W78889  15.209  35.355   4.566
10485W        W78890  10.459  31.589   2.086
10486W        W78891  21.567   6.213  11.593
10487W        W78892  18.513  30.560   1.685
10488W        W78893  42.875   4.871  14.178
10489W        W78894  18.573   2.393   3.639
10490W        W78895  37.411  26.141  14.955
10491W        W78896  17.311   2.462  13.908
10492W        W78897  42.342  38.001   3.476
10493W        W78898  28.472  42.737  11.201
10494W        W78899  39.856  27.420   3.286
10495W        W78900   7.904  34.813  12.415
10496W        W78901   5.129  25.960  12.867
10497W        W78902  34.412  20.741  11.465
10498W        W78903  43.321  37.259  11.206
10499W        W78904  10.329  28.504   3.570
10500W        W78905   8.078  42.843   4.933
10501W        W78906  40.625  26.887  13.581
10502W        W78907  43.100  28.199   3.208
10503W        W78908  38.590  41.946  10.601
10504W        W78909  28.903  40.388  14.950
10505W        W78910  34.787   4.996  14.896
10506W        W78911  32.604  39.034   0.340
10507W        W78912   9.611  44.618  14.278
10508W        W78913  14.986   2.546  14.609
10509W        W78914  11.387  38.603  10.535
10510W        W78915   2.366  29.751   3.208
10511W        W78916  36.432  35.130  14.948
10512W        W78917  34.511  33.633   2.663
10513W        W78918  11.174  26.460  12.572
10514W        W78919  32.038  40.227   2.624
10515W        W78920  23.582  16.530  11.684
10516W        W78921  27.848  34.490   3.530
10517W        W78922  29.597  37.359   1.343
10518W        W78923  37.678  11.144   4.372
10519W        W78924  28.196  32.021   4.547
10520W        W78925  30.601  11.169  11.737
10521W        W78926  43.987   8.209  10.768
10522W        W78927  10.320   4.914  10.723
10523W        W78928  20.969  40.116   0.919
10524W        W78929  29.356   9.352  12.022
10525W        W78930  42.270  18.563   2.764
10526W        W78931  15.255  22.509  13.132
10527W        W78932  24.898  23.419  13.603
10528W        W78933   0.021  36.442  11.191
10529W        W78934   7.742  21.586  12.118
10530W        W78935  15.839  34.812   4.978
10531W        W78936  10.329  43.798   3.760
10532W        W78937   8.791  14.061  10.979
10533W        W78938  23.297   0.562  14.065
10534W        W78939  36.429   5.904  12.070
10535W        W78940   4.810  39.026  13.485
10536W        W78941  30.848  11.773  12.008
10537W        W78942   4.789  42.723   3.353
10538W        W78943   6.224  39.916   0.385
10539W        W78944  25.771   3.933  14.814
10540W        W78945  35.030   7.175   4.304
10541W        W78946  27.647  27.482   0.046
10542W        W78947  11.242  43.434  13.807
10543W        W78948   1.899  17.815  13.000
10544W        W78949  40.465  23.571  14.300
10545W        W78950  25.768   3.319   0.293
10546W        W78951   7.464   8.687  11.708
10547W        W78952  25.663   1.572  13.623
10548W        W78953   0.849  17.151  10.433
10549W        W78954   6.749  11.906  11.071
10550W        W78955  11.330  28.021   0.823
10551W        W78956  22.682  19.838  11.193
10552W        W78957  32.433  26.571  10.467
10553W        W78958  34.803  32.837   4.159
10554W        W78959  23.225   2.494   4.671
10555W        W78960  39.982   4.216   2.774
10556W        W78961  28.477  29.069   4.138
10557W        W78962  39.052  19.192   1.735
10558W        W78963  19.157  27.034  11.087
10559W        W78964  25.226   7.942  10.949
10560W        W78965   8.312  23.010   2.232
10561W        W78966  33.522  33.200   4.952
10562W        W78967  35.615  23.567  11.185
10563W        W78968  29.854  20.725   1.778
10564W        W78969  37.929   1.441   2.200
10565W        W78970   2.850  18.675  11.495
10566W        W78971  38.072   4.926  12.487
10567W        W78972  12.579  15.604   1.191
10568W        W78973  21.776  36.987   4.508
10569W        W78974  10.163  37.134  11.317
10570W        W78975  28.073  13.719  13.065
10571W        W78976  44.777  11.207   3.662
10572W        W78977  20.238  15.553  11.972
10573W        W78978  43.306  28.650  12.893
10574W        W78979  31.324  34.877  13.770
10575W        W78980  34.164  29.169   3.317
10576W        W78981  31.279  41.508  14.880
10577W        W78982  16.385  30.399  11.103
10578W        W78983  21.263  19.890   4.268
10579W        W78984  32.121  39.363  14.540
10580W        W78985   1.329   5.258   2.368
10581W        W78986  15.605  25.843  11.679
10582W        W78987  22.743  44.045   2.290
10583W        W78988   2.226  32.043   3.349
10584W        W78989  13.226   8.960  13.606
10585W        W78990  44.568  26.859  11.062
10586W        W78991   1.178  38.442  12.635
10587W        W78992   1.451   3.316   4.903
10588W        W78993   5.060  19.049   5.048
10589W        W78994  26.192  42.277  12.012
10590W        W78995  24.371  22.758   1.001
10591W        W78996  13.178  28.693   2.787
10592W        W78997  44.931  22.651  14.997
10593W        W78998   9.819   7.885   3.476
10594W        W78999  23.792  25.059   3.246
10595W        W79000  19.029  15.314  10.154
10596W        W79001   1.730  40.132  14.434
10597W        W79002  30.324  18.106   1.757
10598W        W79003  39.977  44.611   2.888
10599W        W79004  19.515   7.107   2.319
10600W        W79005   3.605  10.955   3.188
10601W        W79006  31.094  21.307  14.343
10602W        W79007   3.809  22.203  12.532
10603W        W79008  22.248   3.835   1.725
10604W        W79009  28.073  13.589   0.462
10605W        W79010  14.622   9.683  14.821
10606W        W79011  18.019  42.974   4.775
10607W        W79012  41.258  30.539   4.180
10608W        W79013  37.674   1.749   4.156
10609W        W79014   4.897  36.139  13.924
10610W        W79015  12.127  15.764  11.055
10611W        W79016  27.770  19.276  14.891
10612W        W79017  10.166  37.936  11.548
10613W        W79018  31.446   4.002   1.637
10614W        W79019  11.768   7.788   0.488
10615W        W79020  18.813  18.969  10.772
10616W        W79021  33.567  15.542   0.381
10617W        W79022  22.644  29.147   0.475
10618W        W79023   8.131  13.206   4.247
10619W        W79024  33.829  27.443  10.799
10620W        W79025  42.278  25.903  11.159
10621W        W79026  10.233   4.653  12.049
10622W        W79027  20.981  39.972  11.907
10623W        W79028  29.412  24.118   1.965
10624W        W79029  12.193  31.248   3.783
10625W        W79030  41.569  26.091  12.895
10626W        W79031   6.239  14.379  13.468
10627W        W79032  11.971   9.107   0.363
10628W        W79033  26.390   4.993   4.174
10629W        W79034  21.802  13.570  12.601
10630W        W79035  24.567  33.215  10.448
10631W        W79036  22.628  26.103  13.282
10632W        W79037  13.198  13.007   0.943
10633W        W79038  11.270  35.834  10.627
10634W        W79039   1.991  32.938   3.704
10635W        W79040  24.192  12.568  10.738
10636W        W79041  38.788  34.731   2.109
10637W        W79042  41.290  30.877  14.543
10638W        W79043  26.739  25.777  12.444
10639W        W79044  26.926   2.947  14.459
10640W        W79045  39.055  11.637  11.138
10641W        W79046  15.296  14.564  13.909
10642W        W79047  36.100  40.399   2.851
10643W        W79048  20.579  24.770  13.480
10644W        W79049  37.822  30.100  14.263
10645W        W79050  16.567  32.153  14.479
10646W        W79051  33.079  28.436   2.366
10647W        W79052  21.015  19.599   0.500
10648W        W79053  23.878  19.846  12.656
10649W        W79054  34.574   1.457  13.767
10650W        W79055   9.171   5.969   0.011
10651W        W79056  18.278  22.727  14.014
10652W        W79057  29.583  36.873  14.821
10653W        W79058  22.070  10.718  12.914
10654W        W79059  42.522   2.691   3.288
10655W        W79060  35.300   0.056  12.044
10656W        W79061  37.306  38.748   0.139
10657W        W79062  14.795  38.402   2.601
10658W        W79063  39.748  10.443   2.342
10659W        W79064  29.089  31.407  10.676
10660W        W79065  42.754  13.295  14.836
10661W        W79066  15.713  34.150  14.046
10662W        W79067  27.467   9.610  13.346
10663W        W79068  24.085  17.475   1.970
10664W        W79069  25.475  39.820   0.527
10665W        W79070  44.981  18.562   0.265
10666W        W79071  13.532   5.942  14.001
10667W        W79072  34.060  26.450   0.833
10668W        W79073  22.574  42.745   2.652
10669W        W79074  18.644  39.399  11.638
10670W        W79075  37.689  14.394  12.526
10671W        W79076  15.846  44.489   2.333
10672W        W79077  40.403  28.511   1.641
10673W        W79078   7.863  19.925  11.542
10674W        W79079  30.644  11.175   2.763
10675W        W79080  10.936   0.492  13.370
10676W        W79081  13.665  24.015   4.277
10677W        W79082  15.604  32.548   2.282
10678W        W79083  41.825   8.501  10.420
10679W        W79084  42.445   5.305   3.555
10680W        W79085  37.419   5.066   2.795
10681W        W79086  43.572  31.201   1.359
10682W        W79087  24.029   9.027  14.424
10683W        W79088  29.936   3.861   0.845
10684W        W79089  29.934   2.966   3.218
10685W        W79090   0.834  11.707   1.080
10686W        W79091  43.893  21.951   4.328
10687W        W79092   9.070  15.196   0.430
10688W        W79093  35.561  15.674   0.382
10689W        W79094   6.737  33.151   4.443
10690W        W79095  26.439   5.750  13.600
10691W        W79096  22.184  12.174  10.543
10692W        W79097   0.334  15.892  10.782
10693W        W79098  20.272  17.081   2.826
10694W        W79099  39.199  18.535  11.065
10695W        W79100  13.807   9.208   4.668
10696W        W79101  38.657  10.254  12.029
10697W        W79102  20.742  29.607  11.528
10698W        W79103  19.366  14.377  14.386
10699W        W79104  14.290  18.436   1.237
10700W        W79105  31.265  42.442  13.020
10701W        W79106  42.921  29.050  10.989
10702W        W79107   6.710  21.598  14.351
10703W        W79108   4.053  32.675  13.996
10704W        W79109   6.299  39.866  10.742
10705W        W79110  29.936   4.420  11.625
10706W        W79111  22.267  18.100  14.950
10707W        W79112  10.895  14.999  14.105
10708W        W79113  17.577  10.002   4.956
10709W        W79114  31.252   3.953   2.228
10710W        W79115  30.588   7.230   3.595
10711W        W79116  35.616  10.545   1.448
10712W        W79117  22.508  17.643  14.857
10713W        W79118  27.903   8.623   2.822
10714W        W79119  15.495  34.307   0.327
10715W        W79120  39.539  10.924   0.500
10716W        W79121  11.720  44.323  14.499
10717W        W79122   7.762   4.247   0.450
10718W        W79123  10.803   5.345   3.737
10719W        W79124   4.597  34.448   1.010
10720W        W79125  31.872  16.049   0.291
10721W        W79126  22.301  16.087  14.628
10722W        W79127   2.417  13.297  12.070
10723W        W79128  30.910  10.544  14.920
10724W        W79129  15.164   6.840   3.174
10725W        W79130  38.060   2.893  13.940
10726W        W79131  32.139   8.416  11.186
10727W        W79132   1.294  26.031   0.035
10728W        W79133  37.452  42.353  12.307
10729W        W79134  38.082  28.514   3.177
10730W        W79135  33.487  19.450  10.996
10731W        W79136  28.186  27.465   1.910
10732W        W79137  42.009   9.930  14.781
10733W        W79138  33.544   9.901  13.057
10734W        W79139   6.361  28.592   0.770
10735W        W79140  22.835  17.134  10.659
10736W        W79141   6.156  39.348  12.507
10737W        W79142  16.029   1.770   4.314
10738W        W79143  31.428   9.923  11.565
10739W        W79144  25.579  37.943   2.758
10740W        W79145  28.151  43.020  12.631
10741W        W79146  27.420  23.629   4.109
10742W        W79147   3.906   5.041  12.936
10743W        W79148  39.855  30.986  15.000
10744W        W79149  17.207  28.990  13.290
10745W        W79150  39.069  41.095  12.521
10746W        W79151   5.438  40.723   4.093
10747W        W79152  21.472   5.261   2.339
10748W        W79153   9.891  36.345  14.859
10749W        W79154  43.569  15.997   4.579
10750W        W79155  39.331  20.802  11.628
10751W        W79156   2.879  17.229  11.641
10752W        W79157  26.991  15.844  12.376
10753W        W79158  38.846  42.779   3.666
10754W        W79159  12.620  14.368  13.456
10755W        W79160  24.298  42.211   2.011
10756W        W79161  44.815  16.053  14.357
10757W        W79162  32.864  39.094  13.377
10758W        W79163  14.151  10.686   0.036
10759W        W79164  24.225  43.865  11.374
10760W        W79165  10.680   2.356   4.057
10761W        W79166  32.732  28.196   3.238
10762W        W79167   4.985   8.119  10.816
10763W        W79168  18.759  43.901  14.113
10764W        W79169  17.324  32.074   0.466
10765W        W79170  24.990  22.992   2.736
10766W        W79171  24.273   7.470  11.187
10767W        W79172  38.042   6.230  12.941
10768W        W79173  38.548   9.784   2.361
10769W        W79174  34.504  13.774  12.836
10770W        W79175  36.450  25.559   0.375
10771W        W79176  37.049  44.698   4.871
10772W        W79177  17.223  38.854  14.414
10773W        W79178  40.933  21.101   4.584
10774W        W79179  32.930  28.930   2.741
10775W        W79180  31.170  14.162   3.219
10776W        W79181  16.917   6.742   0.194
10777W        W79182   7.248   6.745  13.434
10778W        W79183  40.365  37.365   1.452
10779W        W79184  10.316  40.723   3.119
10780W        W79185  44.384  25.007  13.886
10781W        W79186  17.640  38.513   3.275
10782W        W79187  15.077  35.861  14.679
10783W        W79188  15.794  11.811  14.800
10784W        W79189   1.915   3.869  14.845
10785W        W79190   2.120  43.861   1.978
10786W        W79191  25.873  10.216  13.978
10787W        W79192   5.773  21.282  12.032
10788W        W79193  27.782  31.150  10.731
10789W        W79194  20.716  25.488  13.918
10790W        W79195  20.997  10.689   2.815
10791W        W79196  19.695  29.229   2.935
10792W        W79197   6.036  15.854   4.536
10793W        W79198   3.609  30.907   4.778
10794W        W79199  33.431  13.241  12.084
10795W        W79200  13.804  30.081  11.947
10796W        W79201   1.565  12.861  10.984
10797W        W79202  35.919  31.150   5.103
10798W        W79203  42.304  34.332  13.366
10799W        W79204  44.260  21.594   4.198
10800W        W79205  19.079   6.844   3.184
10801W        W79206  10.152  43.976  11.559
10802W        W79207  23.438  17.867   3.402
10803W        W79208  33.843  15.116   0.494
10804W        W79209   3.501   2.302  13.571
10805W        W79210   1.411  38.474   1.272
10806W        W79211   3.711  38.421   1.264
10807W        W79212  10.012  18.886  14.090
10808W        W79213  17.822  17.932   1.268
10809W        W79214  29.797  21.547  10.718
10810W        W79215  11.060   3.516  12.106
10811W        W79216   8.443  26.763  13.027
10812W        W79217  31.560  12.826   0.959
10813W        W79218  19.693  32.994  14.326
10814W        W79219   8.915  38.481  11.624
10815W        W79220   8.757  33.302   4.135
10816W        W79221  24.029   0.300  11.947
10817W        W79222   1.234  33.578   1.059
10818W        W79223  44.863   3.221  11.887
10819W        W79224   8.853  16.126   3.194
10820W        W79225   8.673   2.156   0.313
10821W        W79226  44.551  25.076  10.586
10822W        W79227  13.280  25.401   3.124
10823W        W79228  31.071   0.043   1.822
10824W        W79229  43.622  30.193  14.946
10825W        W79230  42.728  32.122   4.892
10826W        W79231  33.058  16.865   2.349
10827W        W79232  18.345  10.963   5.602
10828W        W79233  23.660  19.733  11.696
10829W        W79234  15.210   6.867  12.483
10830W        W79235  36.946   3.237  11.138
10831W        W79236   5.120  22.767   4.140
10832W        W79237  14.690  24.777  10.577
10833W        W79238   9.104  30.160   1.292
10834W        W79239  28.295  33.765   2.876
10835W        W79240  28.697   4.131   0.642
10836W        W79241  30.501  12.506  13.329
10837W        W79242  43.927  43.842  13.396
10838W        W79243  44.956  13.590  10.923
10839W        W79244  10.274  12.075   5.077
10840W        W79245  22.201  44.605  11.249
10841W        W79246   6.161  13.876  11.463
10842W        W79247  40.041  12.315  10.785
10843W        W79248  20.928  41.059   1.824
10844W        W79249  41.482  35.691   0.032
10845W        W79250   4.522  26.392   5.009
10846W        W79251  36.930  34.141  11.099
10847W        W79252  14.120   0.936   0.203
10848W        W79253  28.447  12.706   0.282
10849W        W79254   6.442   2.950   4.390
10850W        W79255  39.017  38.458   4.669
10851W        W79256   6.486  19.636  14.433
10852W        W79257   0.178  36.203  12.170
10853W        W79258  17.372  38.943   3.212
10854W        W79259  33.505   6.964  13.367
10855W        W79260   6.351   6.335   4.069
10856W        W79261   1.443  21.226  13.985
10857W        W79262  23.070  35.002  14.285
10858W        W79263  40.817  12.175  11.152
10859W        W79264  13.445   5.750   0.843
10860W        W79265  31.229  24.856  14.198
10861W        W79266  41.991  44.061   2.327
10862W        W79267   2.214  39.379  11.242
10863W        W79268   8.646   3.989  14.968
10864W        W79269   6.723  33.922   2.693
10865W        W79270  25.069  11.859  13.849
10866W        W79271  43.597  13.854  13.849
10867W        W79272  36.564  10.889   2.333
10868W        W79273  10.188  23.575   4.620
10869W        W79274  43.187   9.243  12.827
10870W        W79275  24.989  22.479   2.631
10871W        W79276  33.927  16.800   0.606
10872W        W79277  29.575  39.955   1.794
10873W        W79278  36.537  20.602  10.315
10874W        W79279  28.188   8.066  12.541
10875W        W79280  43.427   9.827   0.290
10876W        W79281  42.398  41.927   4.500
10877W        W79282   1.468  35.614  11.180
10878W        W79283  25.940  39.772  10.683
10879W        W79284  28.507   8.793   0.800
10880W        W79285   6.415  34.883  14.960
10881W        W79286  20.537  22.997  13.103
10882W        W79287  22.067  38.005   2.334
10883W        W79288  24.580  26.928  10.993
10884W        W79289   2.519   5.779  11.060
10885W        W79290   8.540  38.811   0.856
10886W        W79291  20.648  40.628   4.150
10887W        W79292  15.768  33.873   0.378
10888W        W79293  44.056   6.860  13.505
10889W        W79294   7.111  15.402   4.663
10890W        W79295  30.980  37.561  12.990
10891W        W79296  20.287   0.272  14.033
10892W        W79297  12.533  29.607   0.380
10893W        W79298  16.673  40.043  14.224
10894W        W79299   5.802  44.163   4.116
10895W        W79300   4.379  19.645   2.185
10896W        W79301  29.741  36.061  11.382
10897W        W79302  18.742  32.072   4.627
10898W        W79303  43.251  30.965   1.800
10899W        W79304  35.182   0.976   1.709
10900W        W79305  13.678  10.951  10.696
10901W        W79306  25.727  29.884   4.586
10902W        W79307  34.636   2.931  13.484
10903W        W79308  10.784  17.297  12.402
10904W        W79309  28.585  15.013  13.839
10905W        W79310  17.465  44.947  13.483
10906W        W79311  25.987   6.266   0.641
10907W        W79312   6.890  16.237  14.463
10908W        W79313   3.986   1.331  13.554
10909W        W79314  19.228  33.956   1.438
10910W        W79315  42.771   6.745  12.093
10911W        W79316  25.983  38.411   3.383
10912W        W79317  31.188  28.352   4.205
10913W        W79318  25.666  11.856  12.548
10914W        W79319  37.695   3.024   9.980
10915W        W79320  18.640  40.945   4.733
10916W        W79321   1.559  43.269  11.056
10917W        W79322  28.821  23.566  14.522
10918W        W79323  39.469  42.604  12.852
10919W        W79324  25.610  17.189  10.877
10920W        W79325  20.743  16.354   1.249
10921W        W79326  19.190  19.614  14.190
10922W        W79327  39.573  13.361   3.335
10923W        W79328   9.824  23.095  12.551
10924W        W79329  18.540  30.348  14.723
10925W        W79330  17.872  31.613  14.894
10926W        W79331  31.571  17.733  14.277
10927W        W79332  13.103  23.719  14.767
10928W        W79333   5.422   5.634  14.289
10929W        W79334  40.056  24.411  14.434
10930W        W79335   1.561  34.934  13.073
10931W        W79336  25.013  18.187   0.533
10932W        W79337  42.480   2.829   4.618
10933W        W79338   5.743  36.558   0.961
10934W        W79339  41.763   9.875   1.286
10935W        W79340  15.108   5.696   3.791
10936W        W79341  34.566  10.874  14.497
10937W        W79342   6.737  14.109  14.380
10938W        W79343  21.764  21.540   3.303
10939W        W79344   6.557  23.925   4.820
10940W        W79345  31.563  34.501   3.655
10941W        W79346  24.647   6.660   3.343
10942W        W79347   4.795  22.848   2.361
10943W        W79348  33.838  14.562  12.969
10944W        W79349  27.378  42.712   2.496
10945W        W79350   3.716  26.054   0.990
10946W        W79351  38.584  17.632   4.629
10947W        W79352  33.118  11.351   2.708
10948W        W79353  37.876  21.751   0.966
10949W        W79354  29.731   0.451   2.388
10950W        W79355  26.578  38.589   4.596
10951W        W79356  31.553  14.107  12.066
10952W        W79357   2.927  38.494   0.766
10953W        W79358   2.558  32.822  12.931
10954W        W79359  42.302   3.642  13.272
10955W        W79360  40.908  37.172  11.103
10956W        W79361  23.742  19.103   2.635
10957W        W79362  35.026  23.563   0.479
10958W        W79363  35.180  11.689  13.892
10959W        W79364   5.073  11.818   5.001
10960W        W79365  14.187  36.063   1.161
10961W        W79366  29.965  23.119  13.775
10962W        W79367  35.496   5.271  10.938
10963W        W79368  40.882  35.769  12.422
10964W        W79369   5.963   7.820  14.484
10965W        W79370   1.920  34.844   0.776
10966W        W79371  34.808  23.151   4.831
10967W        W79372  22.063   9.356  11.581
10968W        W79373   6.758  13.992  13.305
10969W        W79374  41.900  37.171  10.556
10970W        W79375  23.290  30.518   4.053
10971W        W79376  23.892  33.635   3.594
10972W        W79377  31.259  30.849   0.373
10973W        W79378  30.998  16.766  11.061
10974W        W79379  36.064   8.619  11.486
10975W        W79380  40.059  30.538   2.832
10976W        W79381  28.963  15.877  14.423
10977W        W79382  14.608  24.537  11.421
10978W        W79383  33.109  13.994  14.407
10979W        W79384  12.778  16.624   3.262
10980W        W79385   0.749  34.466   3.733
10981W        W79386   0.934  25.208  12.108
10982W        W79387  34.812  31.255   0.668
10983W        W79388  30.845  41.595   4.996
10984W        W79389  32.632  44.403  14.820
10985W        W79390  41.389  40.792   0.023
10986W        W79391  42.190  38.981  13.381
10987W        W79392  27.382  25.387   2.647
10988W        W79393  39.973  41.742  11.584
10989W        W79394  27.066  31.037  14.832
10990W        W79395  14.019  11.432  12.363
10991W        W79396  32.080  24.107   0.587
10992W        W79397   5.225  14.796   4.691
10993W        W79398  37.078  35.748  14.084
10994W        W79399  37.102  23.069   1.077
10995W        W79400  18.644  34.508   4.351
10996W        W79401  41.420  42.035  11.187
10997W        W79402  28.216  44.666  12.332
10998W        W79403  22.248  38.852   4.074
10999W        W79404  27.155  14.278   4.161
11000W        W79405  20.009  41.059  12.115
11001W        W79406  37.033  15.889  13.904
11002W        W79407  25.479  41.006   3.678
11003W        W79408  17.486  10.272   1.659
11004W        W79409   2.140  42.945   2.413
11005W        W79410  36.081  33.135  12.913
11006W        W79411  14.199  26.980  10.630
11007W        W79412  37.833  34.448   4.713
11008W        W79413  29.734  28.922   3.272
11009W        W79414  10.819  44.888  12.123
11010W        W79415   0.075  29.206   1.341
11011W        W79416  13.718  31.491   1.208
11012W        W79417   1.019  15.720  12.648
11013W        W79418  28.211   6.507   2.810
11014W        W79419   9.616   1.292  10.686
11015W        W79420  26.914  32.847  14.514
11016W        W79421   0.779  33.812   1.131
11017W        W79422  40.108  26.637  13.558
11018W        W79423   7.338   5.580  12.451
11019W        W79424  31.538  21.690   1.837
11020W        W79425   1.963  33.443   1.766
11021W        W79426  30.865  24.438  13.363
11022W        W79427  39.440  16.349   3.777
11023W        W79428  42.919   1.445   4.532
11024W        W79429  37.929   8.696   1.972
11025W        W79430   6.217  24.104   2.795
11026W        W79431  31.484   6.859   0.312
11027W        W79432  13.557  22.601   3.910
11028W        W79433   4.864  22.131  14.517
11029W        W79434  44.874   2.534   2.250
11030W        W79435   4.415   9.861   3.137
11031W        W79436  15.703  33.080   0.919
11032W        W79437   3.328   4.304  14.939
11033W        W79438  39.618   8.151   1.252
11034W        W79439  25.480  24.822   1.412
11035W        W79440  12.376  29.379  13.615
11036W        W79441   8.176  12.746  13.649
11037W        W79442  26.005  11.640   2.322
11038W        W79443   6.201   0.917  11.896
11039W        W79444  31.398  11.427   1.360
11040W        W79445  14.573  28.727   4.219
11041W        W79446   1.227  20.825   0.060
11042W        W79447  19.760  17.362  13.102
11043W        W79448  27.049  25.701   0.152
11044W        W79449  26.578  36.919  12.407
11045W        W79450  27.961  31.336  11.857
11046W        W79451   6.873  13.198  13.869
11047W        W79452  21.483  19.381  12.663
11048W        W79453   2.699  24.527   4.191
11049W        W79454   2.222  26.597  13.381
11050W        W79455   7.265   2.787   3.778
11051W        W79456  31.602  10.835   0.696
11052W        W79457  32.919  36.863   1.173
11053W        W79458   0.533   5.366   1.437
11054W        W79459  11.113  27.537  13.072
11055W        W79460  31.526  13.792  10.822
11056W        W79461  24.992  21.547  12.929
11057W        W79462  21.230  43.788  13.533
11058W        W79463  43.561   8.900   2.984
11059W        W79464  33.363  24.890  11.187
11060W        W79465  32.620  40.216  13.148
11061W        W79466  10.888   9.354  10.774
11062W        W79467  35.849  18.618   3.135
11063W        W79468  32.486  13.829   0.770
11064W        W79469   6.187  31.537  13.332
11065W        W79470  27.083   0.383   2.421
11066W        W79471  42.003  21.245   3.286
11067W        W79472  34.013  30.949  12.558
11068W        W79473  16.618   8.899  14.210
11069W        W79474  44.061  30.701   3.141
11070W        W79475  30.413  27.783   1.932
11071W        W79476   8.746   0.462   4.647
11072W        W79477  21.155  42.035   1.228
11073W        W79478   7.876  17.191  13.245
11074W        W79479  10.198  33.545   3.662
11075W        W79480  29.961  26.507  11.896
11076W        W79481   3.053  10.306   4.230
11077W        W79482   3.464  27.008  12.496
11078W        W79483  17.140  35.029   4.748
11079W        W79484   7.361  32.049   2.645
11080W        W79485  44.813  38.369  11.986
11081W        W79486  20.121  31.234  12.062
11082W        W79487   7.256  14.600  14.747
11083W        W79488  31.549  43.902  11.648
11084W        W79489  21.793  26.031   4.959
11085W        W79490  42.103   5.902   1.211
11086W        W79491  15.671  27.199  12.491
11087W        W79492  31.694   8.329  13.476
11088W        W79493  36.895  28.675  12.804
11089W        W79494  27.355  44.849   1.885
11090W        W79495  27.379   7.859   4.168
11091W        W79496   1.379  38.794   4.545
11092W        W79497   7.400  32.787   5.040
11093W        W79498   3.926  38.539   3.519
11094W        W79499  26.471  29.540  12.484
11095W        W79500   2.860  11.658  12.931
11096W        W79501  28.963   2.957   0.417
11097W        W79502  10.695  26.977   1.213
11098W        W79503  42.193  34.137   3.178
11099W        W79504  11.814  28.667  11.606
11100W        W79505  16.102   3.675   4.218
11101W        W79506  13.317  27.311  12.690
11102W        W79507  12.815   3.385  10.108
11103W        W79508   5.850  18.691  13.756
11104W        W79509  24.681  41.886  12.188
11105W        W79510  36.644  43.504   0.392
11106W        W79511   3.344  30.944   3.768
11107W        W79512   4.316  24.023   1.496
11108W        W79513  31.583  15.263   1.724
11109W        W79514  20.153   9.939  13.460
11110W        W79515   7.967  25.557  13.191
11111W        W79516  11.354   4.346   1.769
11112W        W79517  24.519   0.456  10.757
11113W        W79518   7.729  27.923  14.304
11114W        W79519  32.453  33.376  14.008
11115W        W79520  42.847  30.622   0.379
11116W        W79521   0.209  16.783   4.436
11117W        W79522  15.057  14.090  13.961
11118W        W79523  23.990  39.483   4.810
11119W        W79524  19.464  36.804   3.894
11120W        W79525   4.186  15.059  12.006
11121W        W79526  43.638  33.491   4.089
11122W        W79527   6.069  21.237  14.876
11123W        W79528   6.810  17.134   1.933
11124W        W79529  12.035   9.988  14.306
11125W        W79530  26.645  42.543   1.674
11126W        W79531  11.098   1.387   4.155
11127W        W79532  43.241   9.720   1.589
11128W        W79533   1.880  42.494  14.079
11129W        W79534  25.076  20.105   0.704
11130W        W79535   8.156  34.342   1.655
11131W        W79536  41.781  42.521  11.649
11132W        W79537  26.739  17.834   1.472
11133W        W79538   8.944  43.522   0.861
11134W        W79539  22.726   0.505  11.264
11135W        W79540  31.653  40.480   1.365
11136W        W79541   1.162   4.300  12.925
11137W        W79542  14.428   2.258  10.561
11138W        W79543   2.165  22.617   0.661
11139W        W79544  14.024  19.808  13.988
11140W        W79545  40.930   3.069   9.891
11141W        W79546  24.936   1.892  14.486
11142W        W79547  24.733  32.461   3.313
11143W        W79548  38.361  36.285  12.921
11144W        W79549  30.689  10.355   9.902
11145W        W79550  16.858  41.377   3.592
11146W        W79551  36.447  31.475   0.295
11147W        W79552  23.503  37.448   4.607
11148W        W79553  29.908  35.958   4.329
11149W        W79554  21.913  23.120   1.816
11150W        W79555  25.487  36.357  11.572
11151W        W79556  18.944  32.645   0.300
11152W        W79557   6.864  35.452  11.127
11153W        W79558  28.300  13.031  14.067
11154W        W79559   1.900   8.845   4.505
11155W        W79560   2.914   5.220  12.613
11156W        W79561  27.105   5.456  12.391
11157W        W79562  40.411   6.615   4.637
11158W        W79563  13.097  42.900  13.471
11159W        W79564  11.684   0.102  13.897
11160W        W79565  40.370   0.268  13.794
11161W        W79566  22.762   2.178  11.868
11162W        W79567  44.696  18.631   1.718
11163W        W79568  13.197  43.881  11.543
11164W        W79569   8.164  25.796   3.347
11165W        W79570  41.653  20.430   1.787
11166W        W79571  20.454  36.241   1.254
11167W        W79572  33.878   5.273  10.398
11168W        W79573  34.924  38.781   0.621
11169W        W79574  27.130  27.775   2.273
11170W        W79575  30.912  12.685  11.163
11171W        W79576   2.260  43.869   2.499
11172W        W79577   5.780  25.617  14.468
11173W        W79578  22.184  17.752  14.460
11174W        W79579  18.678  44.989   4.578
11175W        W79580  18.106  23.992   0.803
11176W        W79581   9.587  16.106  14.524
11177W        W79582  30.686  36.783   4.117
11178W        W79583  39.378  38.358   1.117
11179W        W79584  28.993  36.944   3.571
11180W        W79585  22.336  16.108   4.831
11181W        W79586  14.649  13.066   3.700
11182W        W79587  34.956  43.051  11.055
11183W        W79588  23.749  34.942   2.255
11184W        W79589  35.115  30.133  12.473
11185W        W79590  18.202  18.713  12.433
11186W        W79591   2.808   3.879   0.164
11187W        W79592  35.957  21.825   1.834
11188W        W79593  26.579  29.078   1.450
11189W        W79594  31.483  17.563  12.933
11190W        W79595  30.230   3.791   0.420
11191W        W79596  27.256  33.060   3.802
11192W        W79597  43.521   7.143   1.420
11193W        W79598  32.935   2.482  11.397
11194W        W79599  36.554  42.894   0.832
11195W        W79600  30.487   9.195   1.350
11196W        W79601  19.272   5.177  12.551
11197W        W79602  36.394  11.170  11.191
11198W        W79603   0.398  12.335  10.671
11199W        W79604  21.570  37.135  12.363
11200W        W79605   9.994   8.642  12.539
11201W        W79606  30.634  29.347   2.824
11202W        W79607  13.487   2.223  12.330
11203W        W79608   8.219  19.095  14.924
11204W        W79609  31.917  29.149  13.859
11205W        W79610  36.862  19.781   1.237
11206W        W79611  17.508  29.702   2.189
11207W        W79612  39.350  12.876  12.037
11208W        W79613  44.880  22.781   1.024
11209W        W79614  24.224  18.437  13.496
11210W        W79615  13.649  27.183  12.209
11211W        W79616  25.052  16.063   0.894
11212W        W79617  36.630  12.367   1.288
11213W        W79618  41.566  42.029  10.707
11214W        W79619  37.089  36.358   4.134
11215W        W79620   8.776  27.890   5.397
11216W        W79621  22.563  19.369  13.731
11217W        W79622  17.841  31.904  11.765
11218W        W79623  41.761  13.082  10.968
11219W        W79624  37.027   5.092   3.607
11220W        W79625  32.927  15.480   2.748
11221W        W79626  34.347  31.506   0.853
11222W        W79627  16.697  17.947   0.489
11223W        W79628  11.292  24.565   3.061
11224W        W79629   0.897  34.807   0.924
11225W        W79630   1.487  23.912  14.320
11226W        W79631  22.282  31.485  12.485
11227W        W79632  29.460  18.408  12.053
11228W        W79633  27.946   7.087  14.689
11229W        W79634  14.875  20.196  14.711
11230W        W79635  18.322  16.714  14.648
11231W        W79636   8.448  44.481   0.843
11232W        W79637  18.580  31.152  11.020
11233W        W79638  36.823  13.593   0.936
11234W        W79639  21.537   3.343   3.541
11235W        W79640  34.617  27.257   1.635
11236W        W79641  22.315   8.154  11.575
11237W        W79642  25.158  22.622   1.663
11238W        W79643  40.830  34.535  14.820
11239W        W79644  19.314   9.802   4.106
11240W        W79645  23.031   5.551   3.356
11241W        W79646  26.432   7.131  14.954
11242W        W79647  26.743  32.855  10.438
11243W        W79648   8.916  12.834  11.560
11244W        W79649  15.711   5.247  11.862
11245W        W79650   8.042  37.475   3.607
11246W        W79651   6.430   8.797  11.675
11247W        W79652  30.031  25.086   1.119
11248W        W79653  37.899   8.750   0.796
11249W        W79654  36.107  24.126  14.922
11250W        W79655   4.397  26.578   0.398
11251W        W79656  20.966   9.884   2.743
11252W        W79657   6.655   6.252  12.959
11253W        W79658  30.346  29.118  12.649
11254W        W79659  40.438   9.359  11.755
11255W        W79660  41.164  41.454   1.717
11256W        W79661  23.164  44.338   2.290
11257W        W79662  33.961  30.611   3.496
11258W        W79663  15.599  29.036   5.196
11259W        W79664  35.584  29.891  14.439
11260W        W79665  36.110  13.849  11.992
11261W        W79666  19.182  42.534  11.074
11262W        W79667  23.793   3.796   0.951
11263W        W79668  39.855   9.141  10.755
11264W        W79669   5.820  41.263  12.463
11265W        W79670  43.014  23.128  12.108
11266W        W79671  12.306  11.317   4.127
11267W        W79672  33.417  24.550  14.851
11268W        W79673  39.296  31.029   2.822
11269W        W79674  39.909  20.553  11.135
11270W        W79675  16.369  36.442   1.036
11271W        W79676   9.579  38.823  13.914
11272W        W79677  40.013  21.702  13.889
11273W        W79678   0.775  32.604  14.148
11274W        W79679   2.884  28.676  14.747
11275W        W79680  43.993  11.327  11.587
11276W        W79681  33.142  33.866  10.684
11277W        W79682  18.377  40.904   4.070
11278W        W79683   0.253  23.032  11.998
11279W        W79684  18.077   6.743  10.592
11280W        W79685  16.185  15.060   4.578
11281W        W79686  25.254  42.378  14.725
11282W        W79687  34.958   0.954  10.775
11283W        W79688  17.697   8.482  11.962
11284W        W79689  34.001  26.614  10.992
11285W        W79690  21.799  35.786   5.073
11286W        W79691  10.161  13.799   1.252
11287W        W79692   7.776  13.848  10.730
11288W        W79693  11.522  19.365  13.891
11289W        W79694  29.197  18.038   0.540
11290W        W79695  18.903  40.581  13.741
11291W        W79696   0.423  39.906   4.493
11292W        W79697  41.290  29.514   4.253
11293W        W79698  29.435  17.876  12.039
11294W        W79699  13.675   0.350   1.826
11295W        W79700  15.658  22.619  10.519
11296W        W79701  16.093  13.447   1.470
11297W        W79702  21.502  35.342  11.624
11298W        W79703  12.616  31.891  14.764
11299W        W79704  22.119  40.857   3.978
11300W        W79705   4.130  10.176   1.352
11301W        W79706  18.850  32.694  12.084
11302W        W79707  20.158  19.220   2.498
11303W        W79708  30.701  16.253   3.637
11304W        W79709  40.991  16.065   2.575
11305W        W79710   4.008  42.231  13.990
11306W        W79711  24.985  40.722  13.981
11307W        W79712  29.140  33.666   0.200
11308W        W79713  31.085  44.221   2.767
11309W        W79714  11.379  28.746  13.799
11310W        W79715   3.661   9.878  10.902
11311W        W79716  29.203  27.126   1.137
11312W        W79717  35.011  27.560  11.032
11313W        W79718  23.193   4.377   4.630
11314W        W79719   7.683   6.347   0.187
11315W        W79720  19.060  32.468  11.170
11316W        W79721  11.173  42.011   4.664
11317W        W79722   8.506  15.886  11.287
11318W        W79723  37.787  25.633   2.243
11319W        W79724  31.041  16.607  13.103
11320W        W79725  22.427   5.878   3.576
11321W        W79726  34.288  10.651  12.276
11322W        W79727   0.589  30.385  12.891
11323W        W79728  14.735  13.343   2.199
11324W        W79729  39.677  37.303  11.952
11325W        W79730  27.537  21.010  11.162
11326W        W79731  12.174  23.180  11.975
11327W        W79732   2.732  44.134  14.047
11328W        W79733   8.259  12.771  13.140
11329W        W79734  44.155  40.542  12.492
11330W        W79735  43.344  32.934   2.431
11331W        W79736  44.796   3.663  10.638
11332W        W79737   8.146  21.209   2.804
11333W        W79738  23.735   4.364  14.014
11334W        W79739  18.049   4.938  13.961
11335W        W79740   8.427  41.103   4.104
11336W        W79741  34.147  38.705   0.104
11337W        W79742  42.769  36.302   0.882
11338W        W79743  12.366   9.548   3.694
11339W        W79744  34.982  20.722   4.175
11340W        W79745  24.650   5.758  14.272
11341W        W79746  21.450  31.292   0.952
11342W        W79747  16.094  26.597   2.895
11343W        W79748   3.171  13.830  11.216
11344W        W79749  10.785  37.044   3.330
11345W        W79750   1.060   5.346   1.369
11346W        W79751  37.533   6.201  13.814
11347W        W79752   3.522  38.826   4.675
11348W        W79753  42.812  28.278   0.945
11349W        W79754   9.342   0.502  11.498
11350W        W79755  40.094  13.034  12.543
11351W        W79756  20.243   3.261   4.113
11352W        W79757  27.443  35.875   3.468
11353W        W79758  12.224  27.831   4.013
11354W        W79759  14.969  31.801   1.946
11355W        W79760  22.718  21.077  11.930
11356W        W79761   9.441  37.909   3.744
11357W        W79762  11.751  36.579   0.237
11358W        W79763  32.159  29.066  10.617
11359W        W79764  44.459  41.990  14.810
11360W        W79765  11.685  16.786  11.431
11361W        W79766  27.140   2.553   2.232
11362W        W79767  44.834  40.374   3.760
11363W        W79768  14.137  15.706  14.826
11364W        W79769  20.177  38.587   2.214
11365W        W79770  36.367  24.804   1.704
11366W        W79771  24.378  19.653  12.589
11367W        W79772  12.641   0.483   1.808
11368W        W79773   9.261  24.583   1.329
11369W        W79774  21.232  44.011   4.158
11370W        W79775   2.965   3.038  12.045
11371W        W79776   9.255  10.346   4.928
11372W        W79777  42.397  24.410   4.572
11373W        W79778   9.667  39.734  14.900
11374W        W79779  27.068  41.513  14.660
11375W        W79780  21.608  19.203   4.792
11376W        W79781   4.309  29.622   0.299
11377W        W79782   2.369  44.350   0.791
11378W        W79783  11.132  39.475  13.126
11379W        W79784  10.186  38.444  10.681
11380W        W79785  35.897  44.288  14.475
11381W        W79786  28.011  24.292  14.946
11382W        W79787  35.069   1.132   4.970
11383W        W79788  36.957   8.652  14.287
11384W        W79789  34.605  33.986   0.955
11385W        W79790   8.841  21.652   0.816
11386W        W79791  13.063  29.104   1.883
11387W        W79792  36.398   0.756  10.514
11388W        W79793  40.776  43.807   1.234
11389W        W79794  24.071  25.067  11.202
11390W        W79795   4.198  40.969  14.468
11391W        W79796  31.639  14.644  14.820
11392W        W79797  24.637  20.321   2.552
11393W        W79798  39.148  31.017   2.244
11394W        W79799  21.652   4.870   3.709
11395W        W79800  19.094  31.511  13.911
11396W        W79801  35.575  24.563  12.942
11397W        W79802  24.075   7.830   3.121
11398W        W79803  37.854   7.967   3.563
11399W        W79804   7.226  21.099   4.186
11400W        W79805   5.906  23.495  14.735
11401W        W79806  18.205  23.325   4.316
11402W        W79807  29.148  33.095   3.680
11403W        W79808  37.719  11.894   2.743
11404W        W79809  40.440  13.103   4.848
11405W        W79810  44.995  40.217  14.906
11406W        W79811   1.945  30.844  10.365
11407W        W79812  28.028  15.220   0.581
11408W        W79813  20.122  16.879   0.395
11409W        W79814   0.694  30.101   2.843
11410W        W79815  21.025  16.117   3.602
11411W        W79816  10.708  43.364  10.753
11412W        W79817  29.467  42.133  11.917
11413W        W79818  11.861  41.745   0.246
11414W        W79819  42.219   5.148   5.104
11415W        W79820   6.711  25.074  12.602
11416W        W79821  17.490  20.775   2.408
11417W        W79822  20.183   5.655   3.226
11418W        W79823  12.792  35.440   4.551
11419W        W79824  39.317  40.883   1.922
11420W        W79825  24.211  41.462  13.895
11421W        W79826   4.368  16.178  11.954
11422W        W79827  16.650  34.530   4.536
11423W        W79828  23.206  38.101   4.148
11424W        W79829  16.396  37.416   5.025
11425W        W79830  22.462   2.521   2.796
11426W        W79831  42.448  34.025  14.867
11427W        W79832  23.030  32.601   3.622
11428W        W79833   5.744  33.439   4.658
11429W        W79834  37.185  38.261   1.704
11430W        W79835  43.976  10.852   2.735
11431W        W79836  13.008  28.168  12.720
11432W        W79837  30.087  44.666  14.327
11433W        W79838  22.569   5.470  13.507
11434W        W79839  38.485  21.679  10.875
11435W        W79840   7.758  23.964   4.087
11436W        W79841  41.311  22.614   0.855
11437W        W79842   1.856  35.023   4.158
11438W        W79843  28.996  28.021  14.783
11439W        W79844   7.223   2.505   0.480
11440W        W79845   3.213  26.976  13.905
11441W        W79846  33.075  12.732  14.929
11442W        W79847   3.558  36.847   2.396
11443W        W79848  30.873  28.148   5.263
11444W        W79849  34.774  27.393  13.896
11445W        W79850  32.711  27.125  11.197
11446W        W79851  30.249   4.178   2.170
11447W        W79852  21.254  15.339  10.983
11448W        W79853   6.925  42.456  12.367
11449W        W79854  18.101  37.576  13.358
11450W        W79855  18.655  43.005  14.095
11451W        W79856   0.952  27.134   4.082
11452W        W79857   1.348  38.441   0.736
11453W        W79858  41.551  12.526   0.818
11454W        W79859   1.107  12.759  10.748
11455W        W79860  35.995  21.597  12.186
11456W        W79861   0.027   0.845   2.404
11457W        W79862  30.829  17.838  11.886
11458W        W79863  16.168  33.454  11.895
11459W        W79864  22.965  15.163   3.687
11460W        W79865  29.196  25.943  14.054
11461W        W79866  33.841   9.926   4.156
11462W        W79867   1.823  40.323  13.068
11463W        W79868  25.533  15.047   0.499
11464W        W79869  20.402   7.032   9.867
11465W        W79870  27.009  22.308   1.680
11466W        W79871  13.734  39.683  14.270
11467W        W79872  10.288   1.812  14.284
11468W        W79873  22.456  19.317   3.322
11469W        W79874  23.161  26.831  13.551
11470W        W79875  13.249  23.547  12.981
11471W        W79876  28.405  31.827   4.109
11472W        W79877  26.038  29.209   1.769
11473W        W79878  42.089  16.728  13.223
11474W        W79879  19.486  12.776   2.258
11475W        W79880  35.537  19.454   3.392
11476W        W79881  43.642  15.780  14.643
11477W        W79882   1.144  36.335  12.118
11478W        W79883  42.578  17.081   0.721
11479W        W79884  40.039  21.654   1.328
11480W        W79885  14.675  20.982   0.065
11481W        W79886  23.167   8.287   1.974
11482W        W79887  41.403  33.104  11.113
11483W        W79888  30.811  19.306   1.874
11484W        W79889  24.732  24.721  14.253
11485W        W79890  23.098   8.608   0.071
11486W        W79891  16.555  27.909   2.985
11487W        W79892  44.840  17.573   3.786
11488W        W79893  15.614   3.901   3.968
11489W        W79894  41.831  11.928  12.966
11490W        W79895  10.682  34.876   1.275
11491W        W79896  12.785  44.425   0.928
11492W        W79897  26.990   6.960   2.346
11493W        W79898  39.408  29.286   2.634
11494W        W79899  27.407  12.643  13.128
11495W        W79900  38.394  11.084  12.342
11496W        W79901  11.771  31.994   3.696
11497W        W79902  14.641   6.641  13.482
11498W        W79903  20.681  25.624   2.743
11499W        W79904  15.090  22.491   1.810
11500W        W79905  16.733  14.995   0.956
11501W        W79906  27.123  36.583   0.360
11502W        W79907  41.378   4.817  10.632
11503W        W79908  17.864  16.149   3.172
11504W        W79909  32.406  34.059   2.832
11505W        W79910  22.488  17.237  14.522
11506W        W79911   5.696  30.879  11.596
11507W        W79912  30.648  10.136  11.145
11508W        W79913  23.404   7.291   4.959
11509W        W79914  28.426  21.766  14.818
11510W        W79915   8.372  40.623   4.282
11511W        W79916  19.789  28.607   2.357
11512W        W79917  38.245  11.899   2.738
11513W        W79918  37.638  35.680  13.390
11514W        W79919  39.083   7.081  12.712
11515W        W79920  37.024  30.163  11.045
11516W        W79921  35.953  12.723   2.412
11517W        W79922   4.775   4.618   4.142
11518W        W79923  11.190  29.899   2.726
11519W        W79924  33.041  38.911   3.339
11520W        W79925  34.870  27.066   2.613
11521W        W79926  42.138   9.423  12.288
11522W        W79927   9.347   2.463  11.194
11523W        W79928  32.170  20.999  13.316
11524W        W79929  23.426  19.246   1.756
11525W        W79930   8.969  13.857   4.159
11526W        W79931  12.866   8.213  11.172
11527W        W79932  19.235  30.717   5.153
11528W        W79933  24.247  26.893  11.406
11529W        W79934   2.691   8.735  14.553
11530W        W79935  29.254  35.507   2.007
11531W        W79936  31.648   9.895  12.496
11532W        W79937   8.310  25.265  11.530
11533W        W79938   1.344  31.016  12.124
11534W        W79939  35.944   8.914  11.090
11535W        W79940  43.442  20.140  12.107
11536W        W79941  15.328  17.622  14.852
11537W        W79942  43.924   3.556   4.807
11538W        W79943  22.728  38.776  11.676
11539W        W79944   2.843   6.756  13.146
11540W        W79945  28.743  23.803  13.484
11541W        W79946   6.854   4.864  12.385
11542W        W79947  31.066  23.536   2.011
11543W        W79948   3.507  10.698  11.419
11544W        W79949  42.178  29.440   4.616
11545W        W79950  16.847  27.009   2.739
11546W        W79951  32.604  33.307   4.483
11547W        W79952  27.034  16.868   4.310
11548W        W79953  33.170  32.516   2.218
11549W        W79954  24.883   7.085  12.090
11550W        W79955   6.840  34.638  12.095
11551W        W79956   9.010  32.674  12.886
11552W        W79957  18.606  22.661  13.564
11553W        W79958   5.259  33.570   4.522
11554W        W79959  32.427  30.101   0.946
11555W        W79960  32.097   7.612   4.098
11556W        W79961  40.648  10.597   3.594
11557W        W79962  10.834  34.378  13.062
11558W        W79963  18.233  24.327   5.375
11559W        W79964  10.592  37.765   2.755
11560W        W79965  32.443  16.988  10.719
11561W        W79966   4.622  11.841   2.349
11562W        W79967  23.759   7.088   0.750
11563W        W79968  34.846   3.696   1.023
11564W        W79969  44.347  44.969  13.075
11565W        W79970  17.684   6.431   0.916
11566W        W79971  21.042  11.414  12.390
11567W        W79972  17.821  29.538   4.889
11568W        W79973  42.251  22.786   3.215
11569W        W79974   3.263   5.697  14.084
11570W        W79975  29.189   5.630  14.385
11571W        W79976  37.888  33.777   1.816
11572W        W79977  23.615  19.774  12.216
11573W        W79978   0.993  41.293   5.160
11574W        W79979  10.712  19.418   0.822
11575W        W79980  22.777  10.810  13.522
11576W        W79981  39.357  30.576  10.702
11577W        W79982  25.273  33.996   3.808
11578W        W79983  24.275   7.119   1.622
11579W        W79984  37.095  14.204   1.311
11580W        W79985   5.891  23.904   1.411
11581W        W79986  21.117  43.407   2.364
11582W        W79987   1.229  10.624   4.070
11583W        W79988   9.146  37.812   4.146
11584W        W79989  35.010  43.008   2.158
11585W        W79990  28.960  43.381  11.160
11586W        W79991  22.651   7.898   1.499
11587W        W79992  32.626   9.314   3.257
11588W        W79993  14.591  32.872   2.756
11589W        W79994  14.074  14.852  10.659
11590W        W79995   7.637   2.277  10.677
11591W        W79996  40.864  25.190   2.394
11592W        W79997  41.632  14.278   4.878
11593W        W79998  20.732   5.886   4.037
11594W        W79999  12.063  37.917  12.949
11595W        W80000  23.479  44.956   0.754
11596W        W80001  10.068  41.769  13.363
11597W        W80002   0.326  37.383   3.691
11598W        W80003   6.927   6.376   0.821
11599W        W80004  19.549  22.155   1.686
11600W        W80005  29.839  15.718   2.679
11601W        W80006   5.874  34.110   4.085
11602W        W80007  28.653  10.661  11.499
11603W        W80008  13.505  21.638   1.763
11604W        W80009  24.642  26.679   1.414
11605W        W80010  15.304  39.016  14.017
11606W        W80011  13.051  33.454  13.037
11607W        W80012  12.223   2.409  14.647
11608W        W80013   3.973   1.880  12.887
11609W        W80014  10.602  23.552   3.187
11610W        W80015  26.904  21.690  11.144
11611W        W80016  17.574  11.396  13.487
11612W        W80017  28.001   5.921  10.607
11613W        W80018  44.498   6.192   1.311
11614W        W80019  20.128  26.532   3.803
11615W        W80020  11.915  19.052   4.827
11616W        W80021  32.704   7.933  12.791
11617W        W80022  11.880   1.261  12.167
11618W        W80023  27.882  26.481   3.372
11619W        W80024  23.246  27.687   0.906
11620W        W80025  22.570  11.672   4.518
11621W        W80026  22.104  12.345  12.903
11622W        W80027  21.357  22.192  10.750
11623W        W80028  44.778  30.577  12.462
11624W        W80029  10.255   6.821  12.965
11625W        W80030  27.900  23.455  11.597
11626W        W80031  10.207  27.182   0.771
11627W        W80032  31.777  10.425   4.519
11628W        W80033  14.740  12.075   3.635
11629W        W80034  17.727   6.876  12.430
11630W        W80035  39.965   7.493   0.359
11631W        W80036   3.900   7.569  11.495
11632W        W80037  20.624  40.311   1.286
11633W        W80038  22.498  15.738   1.867
11634W        W80039  30.430  39.577  11.189
11635W        W80040  21.787   8.403   2.918
11636W        W80041  44.354  36.458  12.226
11637W        W80042   7.694  28.485  10.259
11638W        W80043   4.756  22.507   2.909
11639W        W80044  40.457  18.229   4.358
11640W        W80045  31.251   6.255   0.699
11641W        W80046   1.125  28.366   2.781
11642W        W80047   6.152  20.561  12.840
11643W        W80048   4.188  39.065  13.071
11644W        W80049  13.160  19.278   2.661
11645W        W80050  35.343  42.575   3.852
11646W        W80051  22.140  14.293   2.404
11647W        W80052  33.634  15.971  13.328
11648W        W80053  18.615  20.589   0.017
11649W        W80054  12.766   2.535   0.462
11650W        W80055  35.667  37.815   2.220
11651W        W80056  13.813   2.912  13.856
11652W        W80057   3.976   4.325   3.725
11653W        W80058   4.825  36.831   0.882
11654W        W80059  28.670  18.314   5.096
11655W        W80060  25.485   0.324  10.807
11656W        W80061  19.182  42.521  11.571
11657W        W80062  36.905  22.254  13.920
11658W        W80063  25.453  16.132  14.824
11659W        W80064  36.269  26.112   2.963
11660W        W80065  22.458  35.284  13.364
11661W        W80066  35.274  15.169  11.628
11662W        W80067   6.576  40.360   4.154
11663W        W80068  41.072   8.179   3.697
11664W        W80069   0.407  31.659  11.937
11665W        W80070   3.823   5.214  11.035
11666W        W80071  29.881  19.721   2.707
11667W        W80072  16.991   7.737   2.900
11668W        W80073  41.109   7.339  14.293
11669W        W80074  34.684  21.924  11.043
11670W        W80075  29.229  42.908   0.268
11671W        W80076  37.477  10.486   5.010
11672W        W80077  20.729  37.529   1.295
11673W        W80078   3.351   1.436   0.344
11674W        W80079   4.210  11.673   2.676
11675W        W80080  23.920   0.987  12.472
11676W        W80081   5.638  29.941  13.077
11677W        W80082  23.038  22.906  11.995
11678W        W80083   8.249  40.772   3.747
11679W        W80084  42.212  41.412   4.661
11680W        W80085   1.376   5.227  11.698
11681W        W80086   1.475  31.449   1.860
11682W        W80087  14.214  31.948  11.977
11683W        W80088  24.713  12.186   4.288
11684W        W80089   0.388  28.686   2.246
11685W        W80090  15.938  29.090  12.631
11686W        W80091  36.247   7.761   0.476
11687W        W80092  39.851  21.479  13.398
11688W        W80093  16.859   9.269  12.942
11689W        W80094  13.872   1.654  10.847
11690W        W80095  27.171  24.246   1.289
11691W        W80096   5.611  16.074   1.399
11692W        W80097  42.417  24.470  13.851
11693W        W80098  15.558  38.974   4.555
11694W        W80099   4.394  24.988   1.712
11695W        W80100   9.756   6.595  11.509
11696W        W80101  32.800  30.991  12.047
11697W        W80102  13.800  15.645   1.150
11698W        W80103  42.374  39.701  10.416
11699W        W80104  11.605  43.545   3.684
11700W        W80105  26.005  22.284  10.715
11701W        W80106  30.826   0.195  10.690
11702W        W80107  39.027  37.980   3.968
11703W        W80108  17.931  34.087   2.380
11704W        W80109  14.893  11.850   1.652
11705W        W80110  15.659  26.435  13.069
11706W        W80111  32.815   9.489  10.700
11707W        W80112  38.176  10.274  11.826
11708W        W80113  11.654  19.443  12.956
11709W        W80114  12.993  31.858   5.124
11710W        W80115  16.397  37.905   3.372
11711W        W80116  40.076  31.455   2.883
11712W        W80117  28.465  30.746  13.381
11713W        W80118  41.849  30.413  11.597
11714W        W80119   5.773  17.157  12.542
11715W        W80120  33.844  42.617  14.814
11716W        W80121   1.925  33.874   2.710
11717W        W80122  12.916   3.501   1.493
11718W        W80123  21.586  14.129  13.728
11719W        W80124   6.893  19.612  13.820
11720W        W80125  25.734  15.653  11.118
11721W        W80126  36.982  14.631   3.752
11722W        W80127  44.278  16.109   3.099
11723W        W80128  25.898  18.805  14.354
11724W        W80129  25.007  32.479   1.169
11725W        W80130  20.304   5.141   3.291
11726W        W80131  14.137   0.349  11.302
11727W        W80132   7.385  13.628  10.474
11728W        W80133  14.107  23.939   1.419
11729W        W80134  27.448  18.764   4.706
11730W        W80135  20.278  34.301   1.728
11731W        W80136  20.717   7.330  12.901
11732W        W80137  38.413  35.373  13.758
11733W        W80138  33.033  35.809  14.034
11734W        W80139  27.622   6.216   3.151
11735W        W80140  16.751   4.831   1.450
11736W        W80141  33.875  27.665  12.400
11737W        W80142  36.478  19.024   0.411
11738W        W80143  24.542  25.759   2.308
11739W        W80144   3.492  42.537   3.062
11740W        W80145   0.212  38.020  12.158
11741W        W80146  18.479  37.424  11.836
11742W        W80147  17.318  36.567   1.096
11743W        W80148   7.683  36.813   4.351
11744W        W80149  41.481  22.463   3.611
11745W        W80150  31.990  39.594  13.674
11746W        W80151  43.964  27.123  12.079
11747W        W80152  40.448  37.426  10.981
11748W        W80153   4.350   1.533   3.218
11749W        W80154  28.120  44.267   1.936
11750W        W80155  33.397  14.621  12.361
11751W        W80156  13.698  42.784  10.563
11752W        W80157   3.471   1.384  13.518
11753W        W80158  42.232   7.655  12.041
11754W        W80159  17.154  11.759  11.244
11755W        W80160  12.779   9.179   1.328
11756W        W80161  18.112  42.322   4.169
11757W        W80162  39.564  44.779   3.268
11758W        W80163  31.543  41.896  12.474
11759W        W80164   0.794  38.187   2.872
11760W        W80165  25.775   7.178  14.296
11761W        W80166  41.374  31.666   3.230
11762W        W80167  16.632   4.540  13.904
11763W        W80168  38.825  28.692   2.719
11764W        W80169  43.982  43.886   1.669
11765W        W80170  15.310  25.316   4.156
11766W        W80171  29.906   7.759  14.734
11767W        W80172   8.217  38.820   0.434
11768W        W80173   2.708  31.453   4.474
11769W        W80174  19.020  26.451   0.750
11770W        W80175  36.080  20.819  10.518
11771W        W80176  24.138  36.653  12.808
11772W        W80177   1.207  18.743   1.879
11773W        W80178  25.134  32.696   2.255
11774W        W80179   4.775  44.822  11.932
11775W        W80180   0.997  41.593  12.001
11776W        W80181  24.879  10.303  13.069
11777W        W80182  34.504   4.469   2.630
11778W        W80183  22.076  25.628  14.804
11779W        W80184   4.448  25.455  13.975
11780W        W80185  41.072   6.335  13.493
11781W        W80186  30.397  28.158  13.418
11782W        W80187  37.174  13.437  13.018
11783W        W80188  39.183  40.809  12.958
11784W        W80189  29.081  31.405  13.878
11785W        W80190  13.287  22.555   2.271
11786W        W80191  11.284  16.034  12.281
11787W        W80192  32.212   7.792  12.861
11788W        W80193  17.119  36.536  13.033
11789W        W80194  21.814  37.587  11.574
11790W        W80195   6.391  15.789  12.534
11791W        W80196  33.158  34.044  12.507
11792W        W80197  11.555  39.333  10.008
11793W        W80198  33.405   0.801   1.178
11794W        W80199  34.579  15.760   4.422
11795W        W80200  42.772  22.027  13.093
11796W        W80201  16.749  14.086  12.330
11797W        W80202  32.173  18.767   0.861
11798W        W80203   0.834   0.957  10.474
11799W        W80204  25.989   9.615  12.606
11800W        W80205  25.079   4.940   3.638
11801W        W80206  30.190  11.679  14.161
11802W        W80207   9.176  13.648  12.470
11803W        W80208  41.897  36.677   3.841
11804W        W80209  24.448  43.257  11.494
11805W        W80210  32.361   1.215   1.396
11806W        W80211   2.979  37.403  12.430
11807W        W80212  10.425  28.047   2.131
11808W        W80213  28.023  18.528   3.645
11809W        W80214  37.491   6.964   4.545
11810W        W80215  28.763  27.606   4.444
11811W        W80216  43.956  41.052  12.532
11812W        W80217  21.647  41.359  14.098
11813W        W80218  44.109  24.283  13.326
11814W        W80219  23.750   5.271   4.609
11815W        W80220   7.486   5.913  12.061
11816W        W80221  13.886  32.094   2.736
11817W        W80222  33.302  41.210   5.197
11818W        W80223  35.497   1.153   1.331
11819W        W80224  32.938   8.890  12.736
11820W        W80225  19.590  11.480  12.001
11821W        W80226  20.130  38.118  11.069
11822W        W80227  30.864  39.174  14.233
11823W        W80228  29.523   2.755  14.474
11824W        W80229  43.375  28.405  10.999
11825W        W80230   8.956   0.497   1.989
11826W        W80231   9.948  13.833  13.367
11827W        W80232  38.491   1.300  13.874
11828W        W80233  36.906  17.506  11.485
11829W        W80234  31.568  28.950   1.902
11830W        W80235  14.805  13.241  12.140
11831W        W80236   5.780   8.268   0.130
11832W        W80237   2.005  40.548   0.453
11833W        W80238  39.337  40.007  13.326
11834W        W80239  15.810  31.838  10.780
11835W        W80240  21.140  37.534  14.765
11836W        W80241  41.950   2.141  11.581
11837W        W80242  26.981  30.790   2.370
11838W        W80243  28.111  37.093   3.683
11839W        W80244  41.354  36.853   4.539
11840W        W80245  42.691   0.605   4.089
11841W        W80246  11.148  32.447  12.843
11842W        W80247  15.545   1.535  13.378
11843W        W80248  33.451  44.229   3.462
11844W        W80249  33.189  44.316   1.716
11845W        W80250  35.153   6.654  11.866
11846W        W80251  41.874   2.474  12.027
11847W        W80252  14.001  43.667   4.138
11848W        W80253  20.652  22.495   2.147
11849W        W80254  23.747  18.176  14.421
11850W        W80255  13.464  12.693  13.536
11851W        W80256   4.022  18.601   3.989
11852W        W80257  25.427  38.997  14.377
11853W        W80258  20.514  16.238   0.302
11854W        W80259  24.141  40.414  10.205
11855W        W80260  42.826  15.832   0.233
11856W        W80261   2.932  26.062  12.446
11857W        W80262  34.904  11.729  13.453
11858W        W80263  38.600  21.598  13.928
11859W        W80264   0.797  19.261   4.058
11860W        W80265  25.576  28.410  14.137
11861W        W80266  24.761  41.787   1.438
11862W        W80267   9.252  14.119   5.486
11863W        W80268   8.394   1.421   2.097
11864W        W80269  22.852  34.497  14.339
11865W        W80270  17.810  26.963   1.294
11866W        W80271   8.903  22.826   2.767
11867W        W80272  25.607  40.489  13.563
11868W        W80273  24.173  15.829  14.471
11869W        W80274  39.517  25.178   1.936
11870W        W80275  28.150  14.952   1.025
11871W        W80276  41.903  42.979  12.347
11872W        W80277   7.442   1.208   1.023
11873W        W80278  11.293  23.025  13.424
11874W        W80279  28.444   4.893   5.153
11875W        W80280   5.399  19.277  13.688
11876W        W80281   8.344   7.901   3.248
11877W        W80282  28.079  36.807   3.255
11878W        W80283  23.467  34.346   3.651
11879W        W80284  37.867  10.753  14.933
11880W        W80285   8.641  44.219  13.251
11881W        W80286  33.001  16.568  13.614
11882W        W80287  16.828  25.260   4.150
11883W        W80288  20.052  19.411  14.439
11884W        W80289   0.783  37.826  11.179
11885W        W80290  31.177  18.283   4.200
11886W        W80291  19.040  24.006   3.219
11887W        W80292   3.295  11.415  14.517
11888W        W80293  28.048  41.439   1.316
11889W        W80294   0.308   3.827  11.445
11890W        W80295  25.506  39.151  11.081
11891W        W80296  26.926  28.056  11.301
11892W        W80297  17.790  21.809   4.219
11893W        W80298   6.934   6.370  14.217
11894W        W80299  14.058  29.520  12.869
11895W        W80300  19.761  41.243   3.674
11896W        W80301  24.057  13.329  12.109
11897W        W80302  36.861  33.085  11.982
11898W        W80303  33.099  43.757   2.591
11899W        W80304   5.171  16.358   0.182
11900W        W80305  29.925  17.350  11.705
11901W        W80306  13.121  22.979  12.080
11902W        W80307  13.086  41.312  13.854
11903W        W80308  13.257  37.415   9.915
11904W        W80309  41.441  26.018   1.651
11905W        W80310  33.412   2.727  13.776
11906W        W80311   7.547  19.932  11.958
11907W        W80312  10.091  42.840  13.359
11908W        W80313   4.458  29.536   3.323
11909W        W80314  30.118  43.336   1.120
11910W        W80315  36.715   9.298   0.661
11911W        W80316  32.852  14.149  12.946
11912W        W80317   2.673  29.475  14.469
11913W        W80318  26.490   5.284  13.851
11914W        W80319  14.463  36.807   1.836
11915W        W80320  41.298  24.065   4.959
11916W        W80321  14.839  12.701   4.689
11917W        W80322  16.774   2.130  12.451
11918W        W80323  28.307  37.223  14.238
11919W        W80324  15.337  18.075  14.455
11920W        W80325   0.961  18.198  12.545
11921W        W80326  41.302  33.457   2.129
11922W        W80327  17.559  10.498   0.367
11923W        W80328  43.023  26.183  13.894
11924W        W80329  30.936  40.396   4.916
11925W        W80330  40.318  19.232   0.395
11926W        W80331   7.348  32.142  11.593
11927W        W80332  44.411  14.274   1.900
11928W        W80333   0.427  31.461   1.281
11929W        W80334  30.771  25.502   4.475
11930W        W80335  25.406  11.859   5.020
11931W        W80336  19.131   6.144  12.453
11932W        W80337   4.257   7.657  12.625
11933W        W80338   2.150  25.843  12.528
11934W        W80339  27.516  18.235   9.456
11935W        W80340  37.299  16.367  11.127
11936W        W80341   2.857  13.626   1.057
11937W        W80342  44.253  41.288   3.136
11938W        W80343  40.946  42.265  11.247
11939W        W80344  19.976   1.931  11.294
11940W        W80345  31.564   1.807  10.597
11941W        W80346  22.447  32.143   4.071
11942W        W80347  44.381  42.730   0.940
11943W        W80348   6.142   3.574   0.237
11944W        W80349   2.547  10.277   2.266
11945W        W80350  31.466  24.619  13.777
11946W        W80351  38.000  21.456   3.288
11947W        W80352  16.679  38.893  13.955
11948W        W80353  10.880   6.175  11.882
11949W        W80354  19.343  20.175  10.768
11950W        W80355  21.560  31.810   3.240
11951W        W80356  44.701  39.041   1.799
11952W        W80357   6.213  20.170   1.724
11953W        W80358  38.762  36.594   2.278
11954W        W80359   6.812   1.035   2.293
11955W        W80360  38.071  16.147  11.514
11956W        W80361   6.401  14.544  10.619
11957W        W80362  39.611  29.007   1.331
11958W        W80363  39.447  29.995  11.376
11959W        W80364  30.225  19.618  12.681
11960W        W80365  21.741  23.971  12.544
11961W        W80366  21.590  21.008   2.395
11962W        W80367  13.317  42.196   2.887
11963W        W80368  25.592  43.000   2.381
11964W        W80369  14.750  22.023   4.199
11965W        W80370  18.783  13.391  13.539
11966W        W80371  40.635  24.289   4.234
11967W        W80372   5.336   8.341  11.167
11968W        W80373  28.607  36.306  14.467
11969W        W80374  35.832   6.854  14.496
11970W        W80375  13.185  21.192   1.659
11971W        W80376  32.362  23.503   3.064
11972W        W80377  19.784   7.634   0.069
11973W        W80378   9.830  44.546   0.177
11974W        W80379   2.414  30.613  13.888
11975W        W80380   8.194  43.409   2.837
11976W        W80381  11.713  21.717  13.338
11977W        W80382  24.614  11.758  14.089
11978W        W80383  32.911   8.843   2.647
11979W        W80384  18.088  44.875  10.923
11980W        W80385  30.615   1.031  14.539
11981W        W80386  10.293  13.799  14.488
11982W        W80387  31.331   3.643  11.512
11983W        W80388  31.055  18.071   2.057
11984W        W80389  33.849  38.096   0.859
11985W        W80390  37.642  37.509  13.582
11986W        W80391  34.471  30.985  14.203
11987W        W80392  13.181  29.802  13.395
11988W        W80393  37.296  22.600  13.428
11989W        W80394  32.071  37.069   5.086
11990W        W80395   6.831  27.123  14.087
11991W        W80396  42.547  18.567   3.210
11992W        W80397  31.577  19.376   4.633
11993W        W80398  41.270   7.650  13.002
11994W        W80399  11.466  18.953  13.079
11995W        W80400  38.529  14.371  11.954
11996W        W80401  41.371  18.320  11.132
11997W        W80402  21.002  29.599   3.661
11998W        W80403  42.506  13.673  11.070
11999W        W80404  25.910  15.102  11.905
12000W        W80405   1.545  12.160  12.943
12001W        W80406   7.697  25.666  11.511
12002W        W80407   3.332  40.316   2.161
12003W        W80408  41.032   9.090  13.339
12004W        W80409   2.489   0.182  12.929
12005W        W80410  34.494  29.965   0.781
12006W        W80411  42.373  15.193  12.484
12007W        W80412  21.675  20.803  11.082
12008W        W80413  25.660  44.038  14.384
12009W        W80414  33.650  21.648  14.099
12010W        W80415  42.931  43.804  12.796
12011W        W80416  35.910  41.342  12.619
12012W        W80417  32.099  20.167  13.355
12013W        W80418  15.846  41.629   4.154
12014W        W80419  29.578  17.659   0.414
12015W        W80420  19.362   8.222   0.480
12016W        W80421   5.897  19.079   1.371
12017W        W80422   0.355  21.006   0.066
12018W        W80423  36.615  18.111  14.519
12019W        W80424  16.240  15.886   3.567
12020W        W80425  44.977   0.464   3.712
12021W        W80426  24.615  17.204  11.135
12022W        W80427  13.342   9.798  14.297
12023W        W80428  16.347  37.894  14.812
12024W        W80429  18.647   4.021  13.412
12025W        W80430  23.627  43.400   4.256
12026W        W80431  13.125  36.840   1.285
12027W        W80432  40.137  15.388  14.609
12028W        W80433  28.865  10.825   2.270
12029W        W80434  37.970   6.180  11.575
12030W        W80435  18.689  24.769  12.954
12031W        W80436   4.160  12.102  11.628
12032W        W80437  34.814   1.847   2.894
12033W        W80438   9.330   8.170   3.063
12034W        W80439   5.252  27.693  10.614
12035W        W80440  44.493  36.003  10.022
12036W        W80441  29.595   8.388   3.298
12037W        W80442  32.019  34.032   4.602
12038W        W80443   7.744   0.546   0.495
12039W        W80444  18.229  27.226  11.375
12040W        W80445  23.438   1.412  12.824
12041W        W80446   0.437  18.646  12.883
12042W        W80447  38.838  13.167   4.744
12043W        W80448   2.962  44.195  13.050
12044W        W80449  21.963  30.626   4.702
12045W        W80450  33.883  16.025  11.977
12046W        W80451  41.417  34.980   2.270
12047W        W80452   3.402  17.287  13.348
12048W        W80453  14.775  41.431  13.960
12049W        W80454  21.820   6.128  13.880
12050W        W80455  39.642  38.806   1.869
12051W        W80456  36.284   1.410   4.272
12052W        W80457   3.921   7.888  10.405
12053W        W80458  38.486   1.126  11.023
12054W        W80459  34.276  16.940   0.968
12055W        W80460  40.883  35.185  11.798
12056W        W80461  16.733   3.951  11.538
12057W        W80462  18.604  44.673   5.069
12058W        W80463   9.167  32.917  11.071
12059W        W80464  14.171   8.166   1.790
12060W        W80465  12.700   7.786  12.956
12061W        W80466  30.021  14.179  13.287
12062W        W80467  35.487  36.094  12.605
12063W        W80468  13.185  32.581  13.542
12064W        W80469  12.340   4.111   0.438
12065W        W80470   4.934  38.615   2.097
12066W        W80471  42.872  41.882   4.312
12067W        W80472  39.576  44.015  12.726
12068W        W80473   8.340  29.161  14.810
12069W        W80474  34.112  17.231   2.238
12070W        W80475  41.457  39.388   0.022
12071W        W80476  17.272  16.808  12.023
12072W        W80477  28.350  36.420  14.925
12073W        W80478  39.361  17.654  13.099
12074W        W80479  39.128  17.036   3.864
12075W        W80480  20.826  14.396   1.269
12076W        W80481  37.881   4.907   1.146
12077W        W80482  30.343  40.060   1.467
12078W        W80483  30.166  17.667  14.056
12079W        W80484  44.321  12.269   1.326
12080W        W80485   6.347  10.246  14.506
12081W        W80486  18.773  12.307  12.027
12082W        W80487  27.474  35.918   4.477
12083W        W80488  27.181  26.307   4.941
12084W        W80489   6.179  35.356  13.007
12085W        W80490  23.705   5.128   0.944
12086W        W80491  27.784  26.534   2.449
12087W        W80492  23.352  24.503  14.517
12088W        W80493   8.792   3.142  12.452
12089W        W80494  43.379  35.958  10.644
12090W        W80495  13.621  40.506  14.657
12091W        W80496  23.068  17.625  10.651
12092W        W80497  42.778  25.383  13.367
12093W        W80498   6.210   5.567   4.610
12094W        W80499  15.248  10.125   3.186
12095W        W80500  43.091   5.664   2.192
12096W        W80501  38.431  42.931   0.448
12097W        W80502  11.656  18.036  11.135
12098W        W80503   2.400  34.916   2.328
12099W        W80504   7.380  42.536   3.137
12100W        W80505  16.036  38.951  11.461
12101W        W80506  32.191  15.713   3.182
12102W        W80507  20.259  37.554  11.302
12103W        W80508  40.349  21.938   4.814
12104W        W80509  17.221  35.093  11.529
12105W        W80510  17.729  15.474  12.102
12106W        W80511  25.732  31.533   0.783
12107W        W80512  15.344  34.940  14.386
12108W        W80513   8.183  27.802   1.838
12109W        W80514  39.015  13.579   4.485
12110W        W80515  12.644  42.346   1.676
12111W        W80516   3.373  44.759  10.644
12112W        W80517  39.452  28.558   1.543
12113W        W80518  11.220  16.543  12.159
12114W        W80519  11.022   3.330  11.633
12115W        W80520  20.534  30.595  11.649
12116W        W80521  43.799  26.326   2.709
12117W        W80522   1.326  27.727   1.342
12118W        W80523  41.972  25.222  14.032
12119W        W80524  33.031   1.872  13.129
12120W        W80525   6.382   5.091  12.844
12121W        W80526  41.727  20.825  10.799
12122W        W80527  17.465  26.018  12.776
12123W        W80528  17.713   6.123   2.344
12124W        W80529  38.845  31.330   1.688
12125W        W80530  36.580  27.666  13.529
12126W        W80531  31.125  26.602  13.560
12127W        W80532  15.828  35.516   0.729
12128W        W80533  20.508  31.546   4.573
12129W        W80534  23.212  44.208   0.946
12130W        W80535  29.986  15.412  14.361
12131W        W80536   7.339  15.061  14.940
12132W        W80537  40.906  27.290  11.173
12133W        W80538  35.952  11.467  14.389
12134W        W80539   9.893   5.218  11.820
12135W        W80540  27.263  28.025   3.228
12136W        W80541   4.802  12.823  13.162
12137W        W80542  44.616  37.418  13.040
12138W        W80543  22.732  22.067  11.228
12139W        W80544   5.873  18.584  11.754
12140W        W80545  14.276  20.517  10.703
12141W        W80546  25.394   0.404   2.384
12142W        W80547  35.469  23.784   1.857
12143W        W80548   0.385  10.045   1.377
12144W        W80549  32.572   1.137   2.688
12145W        W80550  11.350  27.530   4.077
12146W        W80551  16.745  42.537   2.604
12147W        W80552  41.740  25.520   1.795
12148W        W80553   7.075   6.736   3.656
12149W        W80554  19.220  32.226   4.476
12150W        W80555  25.782  34.061  13.644
12151W        W80556  12.255  42.727  11.438
12152W        W80557  36.090  24.634   0.011
12153W        W80558  36.868  19.807  12.055
12154W        W80559  33.061  24.423  12.432
12155W        W80560  20.322  15.282  14.051
12156W        W80561   1.886  28.156  11.608
12157W        W80562  26.580  23.041  12.906
12158W        W80563  29.069  35.967  10.864
12159W        W80564  13.430   0.552  11.789
12160W        W80565   5.667  39.439   0.781
12161W        W80566   7.373  36.818  10.746
12162W        W80567  24.188  23.420   4.146
12163W        W80568  24.682  27.743   2.409
12164W        W80569   0.037  20.083  11.076
12165W        W80570  11.634  23.557   2.362
12166W        W80571  23.565  11.197  13.414
12167W        W80572  44.849   7.071  12.503
12168W        W80573  15.321  19.140   3.082
12169W        W80574  18.820   4.948  13.312
12170W        W80575  13.403  29.653  11.683
12171W        W80576  36.123  21.582   4.175
12172W        W80577  25.262  33.650  14.240
12173W        W80578  14.777  29.449   1.879
12174W        W80579  28.455  15.310   2.191
12175W        W80580  31.394  37.878  11.248
12176W        W80581  43.426  29.542  12.189
12177W        W80582  39.130   6.192   3.251
12178W        W80583  12.193  44.132   4.046
12179W        W80584  22.502  43.582  10.800
12180W        W80585  21.631  27.066   0.291
12181W        W80586  16.196   4.865   4.060
12182W        W80587  10.724  16.904  12.878
12183W        W80588  44.835   6.847  10.569
12184W        W80589   3.854  27.256  10.941
12185W        W80590  42.537   3.231   2.680
12186W        W80591  17.274  12.193  14.807
12187W        W80592  24.210  10.391  11.226
12188W        W80593   0.572   4.168  14.488
12189W        W80594  23.328   3.152   0.304
12190W        W80595  11.118  38.520   4.537
12191W        W80596  44.619   5.662  11.420
12192W        W80597  26.367   3.191  10.266
12193W        W80598  21.712  31.586  12.443
12194W        W80599   4.488  39.437  12.199
12195W        W80600  26.235  32.935   2.741
12196W        W80601   5.662  19.772  12.987
12197W        W80602  17.702  42.460  10.321
12198W        W80603  11.403  13.865  11.199
12199W        W80604   2.423  30.409  13.406
12200W        W80605  42.411  44.745  12.512
12201W        W80606   4.665  42.504  11.273
12202W        W80607  39.119   1.284  14.342
12203W        W80608  42.600  43.295   3.354
12204W        W80609   7.540   3.700  13.502
12205W        W80610  25.317  36.970   2.635
12206W        W80611  42.696  36.144  14.519
12207W        W80612  16.846   4.908  12.325
12208W        W80613  32.894  39.469  14.018
12209W        W80614  32.918   6.734   0.826
12210W        W80615  11.024  38.864  13.885
12211W        W80616  23.482  28.986  13.469
12212W        W80617  12.792  33.346  11.582
12213W        W80618   7.986  33.529   2.721
12214W        W80619  44.346  18.614  11.097
12215W        W80620  11.846  26.652  13.722
12216W        W80621  14.750   0.405   3.992
12217W        W80622  37.798   0.429  12.071
12218W        W80623  35.515  41.772  11.606
12219W        W80624  21.093  28.307  11.369
12220W        W80625  39.296  38.431  13.794
12221W        W80626   1.490   0.009  14.011
12222W        W80627   0.639  11.326   4.747
12223W        W80628   9.425  40.468   4.610
12224W        W80629  21.826  15.606   4.224
12225W        W80630  35.872  23.999   3.709
12226W        W80631   9.323  11.346  12.988
12227W        W80632  11.229  15.570   3.726
12228W        W80633   1.438   9.789  13.806
12229W        W80634  43.324  16.734   0.431
12230W        W80635  37.397  34.862  13.091
12231W        W80636  43.922  13.957  14.279
12232W        W80637   6.234  23.235   3.087
12233W        W80638   8.342  13.064   3.800
12234W        W80639   3.412   9.169   4.762
12235W        W80640   6.304  43.840  13.968
12236W        W80641   4.386   9.531   3.904
12237W        W80642  22.542   4.323   2.227
12238W        W80643   9.194   8.785   1.386
12239W        W80644  36.967  26.174   0.578
12240W        W80645   1.680  12.931  13.472
12241W        W80646  11.653  15.664   1.671
12242W        W80647  12.659  33.024   3.284
12243W        W80648  32.083  40.919   4.202
12244W        W80649   0.786  28.889   3.836
12245W        W80650  34.001   3.766  11.122
12246W        W80651  34.706  14.307   4.009
12247W        W80652   5.614  15.852  11.414
12248W        W80653  11.285   8.750   0.884
12249W        W80654  24.010  31.354  14.493
12250W        W80655  25.686  27.127  10.699
12251W        W80656   4.913   2.810   4.399
12252W        W80657  29.288  20.881   3.178
12253W        W80658  30.539   0.647  13.814
12254W        W80659  20.490  11.007   1.737
12255W        W80660  43.312  26.979   3.360
12256W        W80661   9.905  25.612  12.514
12257W        W80662  18.887   1.861   4.496
12258W        W80663   1.733  40.552   4.575
12259W        W80664  38.314  44.450  11.088
12260W        W80665   2.039  28.834  13.496
12261W        W80666  35.729  29.572   3.708
12262W        W80667   5.893  34.947   2.187
12263W        W80668   4.378  42.214   2.829
12264W        W80669  12.982  12.453  13.455
12265W        W80670  28.036  42.440   3.922
12266W        W80671  44.984  44.714   4.393
12267W        W80672  34.384  23.625  11.210
12268W        W80673  10.216  28.156  14.225
12269W        W80674   1.791  35.377  10.864
12270W        W80675  27.987   1.369  10.453
12271W        W80676   3.769   8.317   4.612
12272W        W80677  40.352  22.320   1.878
12273W        W80678  12.141  41.525  14.545
12274W        W80679  37.823  14.218  14.468
12275W        W80680   3.847   9.119   2.677
12276W        W80681  30.078  14.424  12.311
12277W        W80682  41.870  16.097   0.985
12278W        W80683  21.969  43.248  10.653
12279W        W80684  20.664  17.960  14.921
12280W        W80685  34.488  44.919   0.683
12281W        W80686   9.191  32.735   2.682
12282W        W80687  13.662   9.545  14.618
12283W        W80688  16.767   9.071  12.468
12284W        W80689  39.171  40.487  13.361
12285W        W80690   4.159   7.861  14.896
12286W        W80691  16.205  33.841  12.919
12287W        W80692  25.540  33.293   0.774
12288W        W80693  27.515   3.804   1.330
12289W        W80694  29.434  26.540  12.981
12290W        W80695   7.400  10.157   0.415
12291W        W80696  27.960  43.676   2.730
12292W        W80697  11.731   2.567   1.881
12293W        W80698   4.517  44.951   2.006
12294W        W80699  29.438   6.311   1.203
12295W        W80700  11.803   1.926   4.534
12296W        W80701  30.951  21.212   9.945
12297W        W80702  28.979  14.785  12.767
12298W        W80703  40.006   2.493  11.600
12299W        W80704  28.227  23.166   3.189
12300W        W80705  29.745  37.221  13.315
12301W        W80706  33.173  14.516   1.798
12302W        W80707  33.612  41.938  12.358
12303W        W80708  36.599  10.724   3.702
12304W        W80709  43.797  20.514   1.512
12305W        W80710  39.541  27.756  11.200
12306W        W80711  12.220  32.042   0.463
12307W        W80712  36.140   3.362   1.106
12308W        W80713  43.965   2.226  11.984
12309W        W80714  11.079  12.047  13.042
12310W        W80715  37.613  11.125  10.759
12311W        W80716  38.306   8.592   4.216
12312W        W80717  31.253  23.092   3.747
12313W        W80718  21.693  18.268  11.136
12314W        W80719  37.290  20.574  11.342
12315W        W80720   7.519  34.837  14.003
12316W        W80721  19.426  42.173   0.530
12317W        W80722  25.148  28.656  13.986
12318W        W80723  37.698  40.121  12.411
12319W        W80724  44.572  13.528  12.880
12320W        W80725   2.930   8.376   0.900
12321W        W80726  17.083  29.085   2.730
12322W        W80727   5.738  10.628  12.466
12323W        W80728   1.878  36.858  14.269
12324W        W80729  24.449  23.529   3.719
12325W        W80730  30.442  38.831  11.540
12326W        W80731  11.967  18.289   4.269
12327W        W80732  44.881   1.254   2.690
12328W        W80733  11.479  38.998  13.560
12329W        W80734  20.365  23.513   2.614
12330W        W80735  44.710  24.617  14.026
12331W        W80736  18.016  16.322   2.105
12332W        W80737  37.075  13.272  10.794
12333W        W80738  11.498  21.523  13.768
12334W        W80739  38.121  25.064   4.915
12335W        W80740  33.966  27.713   3.746
12336W        W80741  41.605  23.195  13.746
12337W        W80742  29.003  11.653   1.549
12338W        W80743  13.209  16.450  10.719
12339W        W80744  32.947  37.090   0.703
12340W        W80745   9.755  26.261   3.828
12341W        W80746  43.184  32.523   4.134
12342W        W80747   8.807  26.495   0.342
12343W        W80748  11.631  17.259   3.000
12344W        W80749  42.664  17.712   1.635
12345W        W80750  27.172  11.201   1.392
12346W        W80751  20.556   4.257  14.880
12347W        W80752  12.807  38.990  10.754
12348W        W80753  37.505   1.122  12.799
12349W        W80754  15.327  13.650  13.978
12350W        W80755   4.914  15.030  12.278
12351W        W80756  35.404   3.132  10.309
12352W        W80757   7.044  39.122   4.826
12353W        W80758   3.014  36.588  11.402
12354W        W80759   6.401  29.886   5.238
12355W        W80760  25.234  10.347  11.794
12356W        W80761  29.184   5.085  11.702
12357W        W80762  27.096  26.044  13.799
12358W        W80763  18.993  37.529  12.102
12359W        W80764  12.361   0.377   3.619
12360W        W80765   1.842  39.814  12.903
12361W        W80766  26.192  21.628   0.416
12362W        W80767  23.630  22.348   0.288
12363W        W80768  41.237   1.927   2.484
12364W        W80769  17.767  35.927   1.318
12365W        W80770  27.146  32.945  14.034
12366W        W80771  20.570   4.219   1.766
12367W        W80772  36.705  30.473   0.014
12368W        W80773  18.877  32.994  10.972
12369W        W80774   6.181   7.592   1.079
12370W        W80775  20.670  41.572   4.559
12371W        W80776  34.062  11.246  11.547
12372W        W80777  17.120   2.776  12.105
12373W        W80778  44.707  37.413  11.439
12374W        W80779   4.715  34.458   0.499
12375W        W80780  25.726  17.651  12.141
12376W        W80781   4.246  33.384   2.956
12377W        W80782   0.459  22.026   4.920
12378W        W80783   9.562   1.010  11.851
12379W        W80784   7.196  38.315   2.274
12380W        W80785  31.461  27.091  13.335
12381W        W80786  28.164   4.828  13.386
12382W        W80787   7.384  19.582  14.351
12383W        W80788  38.792   7.770   5.476
12384W        W80789  18.747  38.768   2.768
12385W        W80790  39.263   0.833   1.305
12386W        W80791  12.026  40.916   3.604
12387W        W80792  36.543  15.601  13.980
12388W        W80793   4.908  11.255  11.606
12389W        W80794   6.147  32.039   3.099
12390W        W80795   2.254  11.599   2.758
12391W        W80796  12.537  33.380   9.967
12392W        W80797  24.251  36.206  13.066
12393W        W80798  12.835  33.545   4.617
12394W        W80799   9.787  18.301   0.511
12395W        W80800  14.622   8.097   3.625
12396W        W80801  35.543  14.731   4.111
12397W        W80802  22.508  19.549  11.617
12398W        W80803  18.183  21.191   4.557
12399W        W80804  34.547   7.982   0.993
12400W        W80805  28.285  39.640  13.310
12401W        W80806  32.090  15.137  13.810
12402W        W80807   7.184  32.846  12.004
12403W        W80808   3.782  32.610   2.700
12404W        W80809  22.665  12.795  11.205
12405W        W80810   9.863  13.811   4.959
12406W        W80811  33.123  40.977   3.265
12407W        W80812  14.697  27.128  12.030
12408W        W80813  16.083  23.677  13.043
12409W        W80814  16.131  12.901   0.353
12410W        W80815  22.170  17.696   4.630
12411W        W80816  21.020  21.691  12.123
12412W        W80817  13.792   1.245   1.929
12413W        W80818   3.467  25.252  12.895
12414W        W80819  16.057   8.770  10.122
12415W        W80820   5.181  12.594   0.920
12416W        W80821  23.663  39.320  13.416
12417W        W80822  17.580  22.614   3.608
12418W        W80823  33.921   2.538  14.550
12419W        W80824  12.448  37.804  11.717
12420W        W80825  37.029   8.788  11.693
12421W        W80826   2.493  18.565   4.120
12422W        W80827  31.108   9.765  10.413
12423W        W80828   1.718  35.624  13.274
12424W        W80829  41.857  18.521   1.492
12425W        W80830  11.152  38.602  13.361
12426W        W80831  26.065  14.820  14.880
12427W        W80832  41.053   4.688   0.497
12428W        W80833   3.406  10.832   2.744
12429W        W80834  29.203   9.862   0.830
12430W        W80835  41.270  19.505   3.271
12431W        W80836   6.454  19.686  10.798
12432W        W80837  10.669   7.864   3.450
12433W        W80838   5.214  27.832  12.948
12434W        W80839  41.977  41.724   3.169
12435W        W80840   4.040  29.129  11.088
12436W        W80841  22.580  16.767  10.420
12437W        W80842  24.550  25.584  10.562
12438W        W80843  38.760  14.242  14.951
12439W        W80844   9.717  30.910   4.104
12440W        W80845  14.208  40.997   0.676
12441W        W80846  35.133  20.239   2.704
12442W        W80847  30.669  21.992  14.859
12443W        W80848   3.686  27.808   0.410
12444W        W80849  44.653  44.594  12.880
12445W        W80850  37.879   5.225   4.154
12446W        W80851  18.662   0.981   1.292
12447W        W80852  11.099  15.674  13.593
12448W        W80853  37.374  40.983   4.956
12449W        W80854  33.002  25.051   3.686
12450W        W80855  26.539  37.724  14.957
12451W        W80856  33.537  27.267  14.933
12452W        W80857  36.796  11.296   0.341
12453W        W80858  40.525   9.886  11.533
12454W        W80859  25.178   8.919   9.681
12455W        W80860   4.920   3.790  11.033
12456W        W80861   9.178   1.964   0.316
12457W        W80862  14.744   2.434  13.778
12458W        W80863   4.550  29.567  12.575
12459W        W80864  27.616  44.739   2.328
12460W        W80865  26.491  21.688   1.317
12461W        W80866  37.935   5.167   2.765
12462W        W80867  41.271  25.112  12.946
12463W        W80868  12.159  18.861  11.571
12464W        W80869  37.005  24.682   0.449
12465W        W80870  22.361  39.946   4.571
12466W        W80871   6.258  35.129   3.156
12467W        W80872  38.462  19.619   4.540
12468W        W80873   4.662  35.020   4.798
12469W        W80874  14.778  37.068   0.408
12470W        W80875  36.309  11.014   3.338
12471W        W80876   2.783  34.994   4.338
12472W        W80877  22.636  39.025   4.365
12473W        W80878  10.680   0.019  14.803
12474W        W80879  41.555   5.739  14.021
12475W        W80880  42.556  29.872   1.865
12476W        W80881   8.661  35.407  14.843
12477W        W80882  20.348  40.037  11.337
12478W        W80883  33.489  44.463  14.795
12479W        W80884  44.183  23.047   0.844
12480W        W80885  18.186   0.617  14.633
12481W        W80886  41.768   7.238   1.859
12482W        W80887   0.375  33.400   5.175
12483W        W80888   3.933  44.785   1.408
12484W        W80889   0.563   9.832  10.422
12485W        W80890  44.323   3.244  10.774
12486W        W80891   7.211  20.738  11.998
12487W        W80892   7.425  42.493  14.468
12488W        W80893  28.596  23.037   1.350
12489W        W80894  34.896  10.162  10.708
12490W        W80895  21.635  19.523   1.019
12491W        W80896   3.254  43.848  11.725
12492W        W80897  13.459  44.283   3.628
12493W        W80898  21.084   8.847  11.580
12494W        W80899   2.918  42.947   3.210
12495W        W80900  14.777  29.151  10.661
12496W        W80901  25.980   2.304  13.388
12497W        W80902  41.918  32.181   0.935
12498W        W80903  30.933  36.130  13.498
12499W        W80904  37.686   5.754   4.406
12500W        W80905  28.938  18.734   2.733
12501W        W80906  40.772   6.890   1.212
12502W        W80907  38.110   2.254   0.782
12503W        W80908  12.671   3.338  14.018
12504W        W80909  39.401  27.989  14.790
12505W        W80910   4.908  16.734  14.925
12506W        W80911  22.047  16.172  14.162
12507W        W80912   2.800  43.463  13.527
12508W        W80913  18.583   5.884   2.825
12509W        W80914   7.158   9.750   0.140
12510W        W80915   7.024  14.287   0.562
12511W        W80916  37.885   4.017  13.413
12512W        W80917  40.852  27.737   1.697
12513W        W80918   8.214  26.259  14.894
12514W        W80919  34.670   3.893  13.432
12515W        W80920   1.050  39.420   4.236
12516W        W80921  18.449  17.575  14.507
12517W        W80922  10.612   5.851   4.421
12518W        W80923  27.420  25.525  13.205
12519W        W80924  42.420  43.840  12.033
12520W        W80925  17.084  41.151   0.429
12521W        W80926  21.411  44.795   2.431
12522W        W80927   5.373  21.721   2.428
12523W        W80928   6.800  14.232  12.855
12524W        W80929  11.652  36.088  11.396
12525W        W80930  16.767  31.531   0.909
12526W        W80931  31.633   8.467   3.665
12527W        W80932  36.396  30.270   4.666
12528W        W80933  11.866   6.205   4.658
12529W        W80934  11.904  12.651   4.858
12530W        W80935  21.639   5.714  11.517
12531W        W80936  24.814  37.833   4.811
12532W        W80937  12.372  22.466   3.194
12533W        W80938  21.573  14.007   3.999
12534W        W80939  34.963   8.648   1.348
12535W        W80940  29.101  39.005   4.493
12536W        W80941   2.267  12.288  10.764
12537W        W80942  31.732  16.967  14.884
12538W        W80943  10.299  29.271   0.350
12539W        W80944  27.612  13.958   4.178
12540W        W80945  38.614   1.447  14.388
12541W        W80946   8.138  13.099   3.335
12542W        W80947  18.489   2.450  11.984
12543W        W80948  24.153  44.706  13.112
12544W        W80949   6.894  23.342  14.410
12545W        W80950  12.458   2.260  12.219
12546W        W80951  26.414  44.042   0.246
12547W        W80952  12.732   5.692  12.116
12548W        W80953   1.311   3.341  12.115
12549W        W80954  13.141   4.283   4.606
12550W        W80955  14.766  23.551  12.388
12551W        W80956  44.395  37.139  14.060
12552W        W80957  37.866  37.055   3.106
12553W        W80958  15.034  39.856   0.200
12554W        W80959   1.443  18.078  14.278
12555W        W80960  37.309  10.862   3.156
12556W        W80961  11.446  36.328  14.473
12557W        W80962  37.373   0.597   4.995
12558W        W80963  34.562  22.505  11.589
12559W        W80964   2.242  22.188  11.135
12560W        W80965  15.629  32.383   0.989
12561W        W80966  13.800   3.867  13.260
12562W        W80967  25.731  20.569   1.162
12563W        W80968  29.034  22.732  10.671
12564W        W80969  42.759  39.010   3.322
12565W        W80970   3.760  27.147  12.077
12566W        W80971  37.354  42.757  11.566
12567W        W80972  11.150   5.007   4.717
12568W        W80973  13.037  44.822   4.688
12569W        W80974  40.795  29.125   3.728
12570W        W80975  17.707  18.651   0.823
12571W        W80976   5.812  34.994  10.582
12572W        W80977  40.386   1.692   4.590
12573W        W80978  24.802  28.615   3.175
12574W        W80979   1.209  43.413  11.425
12575W        W80980  37.333  44.266  14.949
12576W        W80981   3.912  13.728  11.122
12577W        W80982  36.763  32.046   1.207
12578W        W80983  35.652  11.321   2.710
12579W        W80984   5.767   1.240   3.127
12580W        W80985  27.516  25.029   1.678
12581W        W80986  21.657  23.096  11.364
12582W        W80987   7.931   8.848  14.373
12583W        W80988  12.070  13.479  14.293
12584W        W80989  32.455  15.072  11.904
12585W        W80990  40.537  39.925   1.868
12586W        W80991  19.350  35.401   3.864
12587W        W80992  15.904  33.932   4.858
12588W        W80993  37.708   2.995   0.944
12589W        W80994   9.862   7.639   0.211
12590W        W80995  14.660   7.975   4.159
12591W        W80996  27.110  44.669   1.227
12592W        W80997  18.774  11.168   1.968
12593W        W80998   7.809  18.650   1.218
12594W        W80999  23.142  25.135   0.387
12595W        W81000  17.565  20.685  10.783
12596W        W81001  13.502  28.239  11.067
12597W        W81002  19.731  21.096   1.303
12598W        W81003   7.579  44.037   3.852
12599W        W81004  31.654  25.501  11.109
12600W        W81005  27.231  31.624  12.954
12601W        W81006  30.122   5.701  10.696
12602W        W81007  14.248  18.537  10.753
12603W        W81008  32.126   2.507   3.866
12604W        W81009   2.037  26.601  14.238
12605W        W81010  22.497  28.687   1.891
12606W        W81011  35.761  14.173   3.677
12607W        W81012  36.393  22.511   1.256
12608W        W81013  25.146  30.664  10.480
12609W        W81014  23.218  35.439   2.661
12610W        W81015  36.896  41.895   4.711
12611W        W81016  44.190  27.037   2.970
12612W        W81017  33.346   7.075   2.119
12613W        W81018   8.976  17.650   5.308
12614W        W81019  35.554  17.816  12.288
12615W        W81020   1.176  44.557   0.742
12616W        W81021  20.488  14.858  11.459
12617W        W81022   0.548  31.178  11.197
12618W        W81023  31.626  29.658  14.514
12619W        W81024   6.904   9.778  11.044
12620W        W81025  40.255  34.086   0.339
12621W        W81026  40.350  35.977  14.828
12622W        W81027  26.680  18.352   3.332
12623W        W81028  42.546   4.630   2.440
12624W        W81029  17.548  39.860  11.806
12625W        W81030   5.451  37.848   4.081
12626W        W81031   5.344  36.856  12.628
12627W        W81032   7.888   8.718  10.961
12628W        W81033  40.464  33.622   0.763
12629W        W81034  33.868  30.473  13.764
12630W        W81035   1.454  41.127  13.045
12631W        W81036   5.744  14.152   4.898
12632W        W81037   6.181  20.916  11.124
12633W        W81038  33.674   9.697  11.864
12634W        W81039   7.561  36.580   4.865
12635W        W81040   7.386  37.332  10.704
12636W        W81041  22.785  28.539  14.995
12637W        W81042  10.749  32.924   2.647
12638W        W81043   8.751  37.817   0.918
12639W        W81044  14.418  14.817   1.327
12640W        W81045  36.954  31.943  10.708
12641W        W81046   9.065  36.274   4.157
12642W        W81047   4.774   0.720   3.151
12643W        W81048   8.679   1.460   3.802
12644W        W81049  19.800   5.251   3.195
12645W        W81050  21.678   5.400  11.116
12646W        W81051   5.754  20.954   1.427
12647W        W81052  42.444  27.703  11.487
12648W        W81053  41.349  44.049   3.364
12649W        W81054  39.921  23.442   3.828
12650W        W81055  26.286  37.433   1.003
12651W        W81056   4.558  20.427  12.288
12652W        W81057   5.345  35.241  11.438
12653W        W81058  40.805   7.389  14.997
12654W        W81059  20.975  20.618  11.533
12655W        W81060  22.231  21.412  14.941
12656W        W81061  11.786   2.314   2.673
12657W        W81062  13.911   5.679   3.068
12658W        W81063  38.832  30.551  11.955
12659W        W81064  37.362  22.995   2.413
12660W        W81065   5.212  22.765  11.928
12661W        W81066  20.671  32.988  10.575
12662W        W81067  29.087  21.330   4.634
12663W        W81068  34.884  26.532  11.086
12664W        W81069  11.801  18.647  14.588
12665W        W81070  37.009  41.498   3.381
12666W        W81071  33.690  44.804  10.227
12667W        W81072   4.416  32.660  14.424
12668W        W81073  44.357  14.312   5.295
12669W        W81074  15.149  20.505  14.362
12670W        W81075  39.451  44.452   4.583
12671W        W81076   0.246  30.409   3.256
12672W        W81077  40.186  19.027   4.481
12673W        W81078  43.692  24.484  14.107
12674W        W81079  40.721   0.766  11.884
12675W        W81080   6.406  40.277   2.725
12676W        W81081  11.296   2.531  10.648
12677W        W81082   5.832  32.153   3.826
12678W        W81083  37.965   8.545  13.264
12679W        W81084  17.654  11.684   1.997
12680W        W81085   9.586  40.799  12.087
12681W        W81086  12.892  41.310   4.666
12682W        W81087   0.955  22.634   1.259
12683W        W81088  37.331  40.834   3.757
12684W        W81089  10.844  27.441   1.362
12685W        W81090  14.772  41.340   2.236
12686W        W81091  11.855  35.605   2.598
12687W        W81092  11.262  41.965  14.970
12688W        W81093   4.152  17.228  11.962
12689W        W81094  17.368  14.707  14.739
12690W        W81095   6.097  26.184   0.483
12691W        W81096   4.406   5.151  10.300
12692W        W81097  25.275  35.448  12.073
12693W        W81098   9.321   0.945  11.069
12694W        W81099  36.616  40.252   5.074
12695W        W81100  38.127  27.727  14.403
12696W        W81101  43.516  16.246  11.034
12697W        W81102  36.153  19.073  10.862
12698W        W81103   9.404  28.382   4.547
12699W        W81104  10.202   5.848  10.192
12700W        W81105   8.857  27.592  12.131
12701W        W81106   7.115  42.114   1.822
12702W        W81107   1.925  22.087  14.380
12703W        W81108   8.644  32.974  14.511
12704W        W81109   1.198  15.932   4.048
12705W        W81110  40.476  43.833  10.567
12706W        W81111  44.578  13.631  11.999
12707W        W81112  29.101   9.165  11.626
12708W        W81113  10.124  29.163  13.321
12709W        W81114   1.413  19.855   1.811
12710W        W81115  21.110   5.836   3.089
12711W        W81116   6.696   6.751  12.731
12712W        W81117  41.581  36.516  11.645
12713W        W81118  26.708  31.158  11.533
12714W        W81119  33.396   8.709   3.522
12715W        W81120  10.754   0.517   0.479
12716W        W81121   6.090  26.097   3.202
12717W        W81122  32.642  34.491   0.831
12718W        W81123  14.071  40.492   0.999
12719W        W81124  38.024  31.194   1.342
12720W        W81125  36.540  38.667   0.519
12721W        W81126  37.059   0.110  13.578
12722W        W81127  39.008  27.788   1.375
12723W        W81128  10.480  37.895   3.599
12724W        W81129  16.658  27.703  13.361
12725W        W81130  31.094   2.032  13.233
12726W        W81131  34.970  37.882  10.683
12727W        W81132  40.058  39.473   2.308
12728W        W81133  11.609   5.851   4.369
12729W        W81134  24.153  36.865   1.286
12730W        W81135  24.806  16.684  11.218
12731W        W81136  32.107  10.534  12.718
12732W        W81137  15.590  22.224   0.734
12733W        W81138  23.624  34.605   3.232
12734W        W81139   8.269  13.496   1.453
12735W        W81140  19.666  18.273   4.112
12736W        W81141  18.188  23.479  11.235
12737W        W81142  39.471  34.543  14.790
12738W        W81143  40.363  26.840  13.136
12739W        W81144  31.279  26.215  11.907
12740W        W81145   8.647   0.842  12.158
12741W        W81146  22.617  16.807  12.446
12742W        W81147   6.790  10.396   4.153
12743W        W81148  31.549  22.185  14.273
12744W        W81149  35.567   3.317  14.347
12745W        W81150   3.181  15.191  12.885
12746W        W81151   2.209  24.678  13.093
12747W        W81152  40.349   7.927  11.314
12748W        W81153  33.355  33.373  10.923
12749W        W81154   2.677   1.179   3.666
12750W        W81155  11.812  19.166   1.774
12751W        W81156   2.820  36.425   2.702
12752W        W81157  23.548   6.032  11.244
12753W        W81158  42.029  14.832  12.796
12754W        W81159  31.699  35.400   3.642
12755W        W81160  41.055  44.060  12.823
12756W        W81161  35.426   1.305   3.583
12757W        W81162  22.506  40.026  14.017
12758W        W81163  16.284  21.104   0.895
12759W        W81164   3.472  18.253   2.726
12760W        W81165  18.144  14.559  13.932
12761W        W81166   4.618  39.818   4.591
12762W        W81167   2.793  35.476   0.096
12763W        W81168  34.202  31.079   2.065
12764W        W81169  15.369  16.064  11.952
12765W        W81170   0.311  22.989   0.810
12766W        W81171  13.586  19.205   2.167
12767W        W81172  23.554  10.413  12.535
12768W        W81173  44.285  36.475   2.634
12769W        W81174  32.768  23.474  11.446
12770W        W81175  19.734  14.627   3.771
12771W        W81176  20.285  41.312   3.637
12772W        W81177  38.249  20.859   1.293
12773W        W81178   5.751   9.886  13.038
12774W        W81179  25.477  14.783   3.141
12775W        W81180  33.406  24.180   5.071
12776W        W81181   1.144  33.595   2.338
12777W        W81182  33.441  33.562   9.858
12778W        W81183  35.519  32.470  14.044
12779W        W81184  14.030  20.168   1.380
12780W        W81185   0.838  33.759  13.752
12781W        W81186  21.562   1.550   3.098
12782W        W81187  41.469   9.363  13.453
12783W        W81188  31.133   5.926   4.382
12784W        W81189  35.236   2.324  11.064
12785W        W81190  20.096  43.067  10.903
12786W        W81191  27.976   8.348  12.173
12787W        W81192  27.377  21.984   1.848
12788W        W81193  43.183  16.841   2.871
12789W        W81194  38.998  21.631  11.176
12790W        W81195  19.455  32.118  13.184
12791W        W81196  42.354  22.793  11.909
12792W        W81197  37.817  43.320  13.409
12793W        W81198  12.645   8.606   1.682
12794W        W81199  36.164  43.373   3.312
12795W        W81200  30.675  29.617   0.214
12796W        W81201  26.084  33.339  13.017
12797W        W81202   3.490  27.436   2.754
12798W        W81203   9.640  31.658  13.397
12799W        W81204  22.771  36.666  12.641
12800W        W81205  15.038  39.120  12.535
12801W        W81206  29.934  31.496   3.238
12802W        W81207   9.272  26.126  14.497
12803W        W81208  27.389  30.957   1.205
12804W        W81209  15.206  26.241  10.997
12805W        W81210  22.872  13.572   1.377
12806W        W81211   7.793  35.358  12.402
12807W        W81212  24.077  18.713  12.772
12808W        W81213  43.487  32.929   3.991
12809W        W81214  11.387  28.539   5.044
12810W        W81215  40.478  34.261  13.021
12811W        W81216  36.874   3.714  12.808
12812W        W81217  10.615  37.715  12.433
12813W        W81218  23.074  19.898  14.339
12814W        W81219  41.926   4.327   0.246
12815W        W81220  43.500  30.793   3.835
12816W        W81221  33.830   2.093  13.044
12817W        W81222  26.575  11.092  10.980
12818W        W81223  36.332  38.734  11.589
12819W        W81224  23.241   3.763   4.549
12820W        W81225  29.914  31.071   1.911
12821W        W81226  30.419  40.888  13.549
12822W        W81227  35.967  35.342   2.204
12823W        W81228  13.702  35.148   2.279
12824W        W81229  22.611   6.140   2.813
12825W        W81230   1.219  42.584  14.810
12826W        W81231  17.594  39.369   3.046
12827W        W81232  32.765  13.151  12.887
12828W        W81233   8.358  18.313   2.795
12829W        W81234   4.482  29.488  14.014
12830W        W81235  40.610  29.655   4.602
12831W        W81236  34.963   6.865  14.836
12832W        W81237  31.146  35.309  13.980
12833W        W81238  33.033  13.626   1.489
12834W        W81239  38.043  20.054  12.450
12835W        W81240  39.755  18.366  10.527
12836W        W81241  18.835  32.594   4.546
12837W        W81242   2.412  13.901   0.838
12838W        W81243  28.642   7.702  13.742
12839W        W81244   6.564  18.844   3.353
12840W        W81245   8.239   1.727  11.266
12841W        W81246  44.466   8.843  10.209
12842W        W81247   5.879  16.715   2.799
12843W        W81248  35.393  18.287   1.918
12844W        W81249   8.639  24.574  10.661
12845W        W81250   1.810   8.251  13.993
12846W        W81251  36.908   3.862  14.447
12847W        W81252  19.395  23.124   1.727
12848W        W81253  26.507  18.186   5.051
12849W        W81254  27.159  35.418   4.133
12850W        W81255  22.394  18.346  11.417
12851W        W81256  35.485   1.027  11.390
12852W        W81257  38.571  28.035  14.036
12853W        W81258  43.397  34.590  11.603
12854W        W81259  43.991  44.288   3.407
12855W        W81260   8.801  38.371   4.649
12856W        W81261  16.173  21.758   3.074
12857W        W81262  35.188  24.205   1.928
12858W        W81263  26.503  25.618  13.539
12859W        W81264  22.588   6.807  14.491
12860W        W81265   6.280  29.396  10.586
12861W        W81266   9.647  23.943  12.210
12862W        W81267  29.486  32.594   4.230
12863W        W81268  26.568  36.412  12.515
12864W        W81269  16.770  14.268   4.774
12865W        W81270   0.341   0.434   2.382
12866W        W81271  28.902  36.533  14.121
12867W        W81272  20.052   5.885  10.027
12868W        W81273   8.382  41.561  13.058
12869W        W81274  15.148  35.613   1.818
12870W        W81275  14.157  43.439   1.876
12871W        W81276  42.662  39.977   4.858
12872W        W81277  32.076  23.284  10.787
12873W        W81278   1.129  13.718   4.927
12874W        W81279   4.947   5.788  14.398
12875W        W81280   6.231   9.692  13.037
12876W        W81281   5.780   7.760  13.952
12877W        W81282  17.574  43.864   0.087
12878W        W81283   4.511  24.071  11.915
12879W        W81284  15.856   3.327   3.251
12880W        W81285  18.177   9.828   5.417
12881W        W81286   1.803  44.684  12.180
12882W        W81287   5.906  16.931  13.869
12883W        W81288   4.336  28.063   4.095
12884W        W81289  13.207  29.329  14.860
12885W        W81290  36.654  15.101  12.389
12886W        W81291   7.753   4.866  10.760
12887W        W81292  42.533  18.262  13.913
12888W        W81293  17.119  32.606   1.219
12889W        W81294  42.752  34.856  12.171
12890W        W81295  43.756  33.495   3.312
12891W        W81296  19.529  31.223  13.878
12892W        W81297  36.823  27.631   0.330
12893W        W81298  43.824  11.297   1.367
12894W        W81299  38.316  31.007   4.725
12895W        W81300  26.520   5.062   3.002
12896W        W81301   4.416  24.156  10.600
12897W        W81302  16.491  22.068   2.781
12898W        W81303  11.053  12.186   4.160
12899W        W81304  44.035  29.338   0.213
12900W        W81305  42.198  31.436   2.308
12901W        W81306  42.798  30.843  12.873
12902W        W81307  14.664   5.364   3.146
12903W        W81308   2.965   4.003  14.685
12904W        W81309  44.749   6.288   4.065
12905W        W81310  23.710  12.286   4.428
12906W        W81311  35.848   5.289  13.936
12907W        W81312  19.311  23.055   3.111
12908W        W81313  42.944  16.850  10.757
12909W        W81314  20.278  41.796  13.777
12910W        W81315  40.479  30.386  13.555
12911W        W81316  11.878  18.983  13.845
12912W        W81317  20.073   5.598  13.963
12913W        W81318  22.451  22.517  14.187
12914W        W81319  16.904  13.348  14.368
12915W        W81320  13.133  22.537  13.059
12916W        W81321  16.833  37.344  12.906
12917W        W81322  36.768  37.912   3.694
12918W        W81323  21.609  31.995   1.716
12919W        W81324  23.563  18.035  13.235
12920W        W81325   1.266  26.965   0.263
12921W        W81326  42.724  36.895  14.879
12922W        W81327  43.218  24.619  14.204
12923W        W81328  34.010  16.065  14.304
12924W        W81329   7.193  16.273  12.325
12925W        W81330  24.117  38.958   0.785
12926W        W81331   0.375  41.399   1.020
12927W        W81332  32.068  21.959  14.528
12928W        W81333  17.761  22.619  13.900
12929W        W81334  32.493  23.497  14.091
12930W        W81335   2.490  40.968   3.602
12931W        W81336  16.555  31.140  11.576
12932W        W81337   8.684  27.190  10.989
12933W        W81338   6.967  30.423  11.394
12934W        W81339   5.349  27.521   4.896
12935W        W81340   3.101  15.449   0.321
12936W        W81341  34.020  24.175   3.354
12937W        W81342  38.083  12.249  11.724
12938W        W81343   5.366   5.734   3.684
12939W        W81344  25.082  38.980   1.082
12940W        W81345  12.112  25.798  11.193
12941W        W81346   0.399  36.619   1.322
12942W        W81347  28.648  41.954   4.519
12943W        W81348   9.258  30.646   9.831
12944W        W81349  31.889  33.217  12.496
12945W        W81350   1.228  33.395   3.740
12946W        W81351   1.775   9.786  11.039
12947W        W81352  24.772   4.757   2.800
12948W        W81353  11.613  22.509  12.036
12949W        W81354  39.082   3.314   2.720
12950W        W81355   6.736  25.692  10.508
12951W        W81356   2.497  21.860   0.524
12952W        W81357  38.203  22.460  13.777
12953W        W81358  35.888  19.628   1.650
12954W        W81359  27.167  22.262  13.974
12955W        W81360  17.577  31.492   1.887
12956W        W81361  42.394  19.514  11.603
12957W        W81362  14.333  44.726   3.819
12958W        W81363  24.684   7.972   3.501
12959W        W81364  25.071  10.778  11.420
12960W        W81365  13.111  43.059   4.105
12961W        W81366   5.959  21.238   3.686
12962W        W81367   0.858   4.679   4.545
12963W        W81368  40.378  38.655  10.309
12964W        W81369  19.997  22.603  12.047
12965W        W81370   9.872   4.775   3.221
12966W        W81371  19.160  14.443  12.471
12967W        W81372  15.231  29.105  10.922
12968W        W81373   3.433   7.967  13.208
12969W        W81374  44.765  20.824  13.015
12970W        W81375  22.769   3.891   3.045
12971W        W81376  35.396  14.549  12.387
12972W        W81377  16.270   8.265  11.970
12973W        W81378  28.001   4.906  11.452
12974W        W81379   1.789  32.043  13.376
12975W        W81380  38.805   4.775  14.815
12976W        W81381  19.321   7.144   2.814
12977W        W81382   6.001  37.562  14.955
12978W        W81383  43.391  42.818   1.414
12979W        W81384  16.291  37.943   0.331
12980W        W81385  17.754  26.004  13.789
12981W        W81386   4.231  10.812   3.723
12982W        W81387   9.155  41.519  14.867
12983W        W81388  27.377  28.744  12.078
12984W        W81389  34.418  26.052  12.895
12985W        W81390  28.217   8.861   0.364
12986W        W81391  20.575  36.355   0.341
12987W        W81392   3.374  30.951  14.274
12988W        W81393   5.225  19.626   4.511
12989W        W81394  30.330  39.903   3.761
12990W        W81395  42.615  43.764  14.413
12991W        W81396   8.404  27.357   1.688
12992W        W81397  24.708  22.093  10.755
12993W        W81398  37.618   5.442  14.896
12994W        W81399   8.767  13.191   0.895
12995W        W81400  35.087  12.118   4.488
12996W        W81401  11.560   0.920   0.809
12997W        W81402  12.423   8.187  14.062
12998W        W81403  34.978  20.507  10.763
12999W        W81404  39.361  31.095  10.578
13000W        W81405  15.037  38.948   0.403
13001W        W81406  23.307  42.334   0.567
13002W        W81407  24.950  23.448  14.574
13003W        W81408  27.692  18.191   1.228
13004W        W81409  36.689  38.071  12.208
13005W        W81410   7.552  19.654   0.038
13006W        W81411   5.225  29.678   3.858
13007W        W81412  26.035  14.107   2.287
13008W        W81413  21.030   5.422  13.876
13009W        W81414   1.263  13.615  14.379
13010W        W81415  39.877  25.176   3.934
13011W        W81416   5.782  30.240   5.420
13012W        W81417  14.589  31.570   3.723
13013W        W81418  40.580  28.712   3.139
13014W        W81419  22.784  30.971  14.768
13015W        W81420  11.861  18.056   2.167
13016W        W81421  29.575  16.112  12.214
13017W        W81422   9.393  13.208   3.868
13018W        W81423  39.055  33.134  14.848
13019W        W81424  31.474   2.349  13.509
13020W        W81425  29.413   8.768  13.802
13021W        W81426  44.715  17.818  12.034
13022W        W81427   5.558  34.980  11.045
13023W        W81428   9.914   6.950  13.836
13024W        W81429  18.274  12.221   4.406
13025W        W81430  41.951  16.661   4.650
13026W        W81431   4.214  25.572  13.447
13027W        W81432  43.917  16.266  12.855
13028W        W81433  11.369  15.094   4.144
13029W        W81434  29.201  42.989  14.326
13030W        W81435  18.346  21.792  14.480
13031W        W81436  22.731  28.047  10.463
13032W        W81437   9.397  23.373  13.431
13033W        W81438  36.852  30.549  12.908
13034W        W81439  16.830   8.117   3.627
13035W        W81440  27.494  22.571   4.049
13036W        W81441  27.109   2.069   4.333
13037W        W81442  19.803  30.464   3.236
13038W        W81443   6.343  35.454  11.153
13039W        W81444   6.889  11.283   4.525
13040W        W81445  17.273   0.418  12.590
13041W        W81446  44.504  34.373   2.991
13042W        W81447  27.667  11.208   4.534
13043W        W81448   1.209  12.068   1.861
13044W        W81449  41.098  12.743   2.002
13045W        W81450  32.776  34.107  13.095
13046W        W81451  43.954  41.693  10.679
13047W        W81452  23.525  33.418   3.963
13048W        W81453   8.653   7.060  11.998
13049W        W81454  36.617  12.086  11.553
13050W        W81455  31.141  38.719  11.030
13051W        W81456  26.065   4.092  12.930
13052W        W81457  43.382   8.643  11.331
13053W        W81458  40.808  24.680   2.600
13054W        W81459  33.815  25.008  11.879
13055W        W81460  14.566  34.332   9.969
13056W        W81461   2.538  21.089   3.277
13057W        W81462  39.311  29.861   3.202
13058W        W81463  28.392  44.950   4.440
13059W        W81464  27.708  39.039  13.991
13060W        W81465   4.915  16.226  13.484
13061W        W81466  29.549   0.968  13.882
13062W        W81467   4.012   1.942   1.762
13063W        W81468  23.073  27.489  10.656
13064W        W81469  39.485  11.409   1.361
13065W        W81470  23.626  42.595   0.904
13066W        W81471   2.372  15.277   3.605
13067W        W81472  33.126   1.415   2.636
13068W        W81473  14.655  32.001   2.365
13069W        W81474  34.361  38.389   3.589
13070W        W81475  38.504  12.173   2.289
13071W        W81476  32.429  15.289   0.712
13072W        W81477  30.043  35.108  12.712
13073W        W81478   3.454   3.884   1.894
13074W        W81479  42.494  38.393  12.667
13075W        W81480  27.926  37.565  12.422
13076W        W81481  42.487  13.133   4.579
13077W        W81482  11.861  26.505  14.214
13078W        W81483  36.982  14.844  13.185
13079W        W81484  26.455  16.806  13.587
13080W        W81485  33.447  38.875   5.102
13081W        W81486  29.006   6.508   0.992
13082W        W81487   5.937  41.554  12.028
13083W        W81488  31.969  27.846   1.253
13084W        W81489  25.316  39.630   2.333
13085W        W81490  16.636  15.177   4.340
13086W        W81491   0.791  17.631   3.744
13087W        W81492  28.998  17.317   2.214
13088W        W81493  28.584  42.515   2.207
13089W        W81494  24.253  35.946  14.474
13090W        W81495  22.320  21.222   2.929
13091W        W81496  32.621   0.260   0.592
13092W        W81497  42.907  31.876   1.334
13093W        W81498  29.566  21.235  14.505
13094W        W81499  36.413  32.044  14.593
13095W        W81500   7.405  35.582  13.537
13096W        W81501  25.665  10.707   4.791
13097W        W81502  38.476  25.447   0.435
13098W        W81503  40.922  29.117  13.760
13099W        W81504  18.915  16.499  11.146
13100W        W81505  20.622  32.657  12.404
13101W        W81506  35.884   9.345   2.617
13102W        W81507   8.634  36.674   4.232
13103W        W81508  33.437   9.495   2.202
13104W        W81509  11.341  37.305   2.347
13105W        W81510   3.241  37.866  14.022
13106W        W81511  14.264  22.591   0.871
13107W        W81512  25.467   0.028  14.332
13108W        W81513   6.679  13.175  11.982
13109W        W81514  28.495  41.975   2.721
13110W        W81515   9.383   7.833   1.522
13111W        W81516   8.957  29.679   1.448
13112W        W81517  38.517  19.965  11.634
13113W        W81518  26.614  26.407  13.899
13114W        W81519   4.278  38.317  12.522
13115W        W81520   8.645  23.039  12.988
13116W        W81521  25.633  30.770  12.121
13117W        W81522  19.175  23.526   0.897
13118W        W81523  23.586  41.359  14.714
13119W        W81524  37.881  16.324  12.857
13120W        W81525   1.317  18.996  11.502
13121W        W81526  17.383   6.889   0.019
13122W        W81527  44.838  24.405  10.733
13123W        W81528   0.644   3.568  12.797
13124W        W81529  16.124  18.403  13.874
13125W        W81530  26.203  19.276  12.879
13126W        W81531  37.798  30.446  14.923
13127W        W81532  32.292  14.279   1.423
13128W        W81533  27.593  13.634  11.447
13129W        W81534  38.921   6.381   4.941
13130W        W81535  40.803  13.781  12.475
13131W        W81536   3.704  23.549  14.472
13132W        W81537  11.357  41.054   1.156
13133W        W81538  19.276   8.736   2.733
13134W        W81539   3.474  37.243   3.667
13135W        W81540  39.841  20.676   4.842
13136W        W81541  36.481   8.452  12.609
13137W        W81542  22.176  19.534   4.154
13138W        W81543  36.599   2.231  11.947
13139W        W81544   5.716  29.683   3.762
13140W        W81545  35.575  43.402  10.653
13141W        W81546  14.563  39.183  13.430
13142W        W81547  41.127  37.508   0.250
13143W        W81548  22.714   9.390   2.895
13144W        W81549  16.345  44.364   2.282
13145W        W81550  22.660  20.478   0.059
13146W        W81551   6.094   4.552  12.034
13147W        W81552  32.407  40.229  10.262
13148W        W81553  11.011  27.476  11.122
13149W        W81554  21.171  42.133   2.646
13150W        W81555  41.797  17.018   3.003
13151W        W81556  18.698  30.452  13.393
13152W        W81557  11.067  14.151  14.867
13153W        W81558  15.338  30.207   5.054
13154W        W81559  42.417   3.793   4.871
13155W        W81560  19.010  41.418   4.051
13156W        W81561  17.811  17.081   2.900
13157W        W81562   4.521  11.816   4.973
13158W        W81563  28.734  34.124  12.563
13159W        W81564  17.768  40.174   1.137
13160W        W81565  27.154   9.279   1.337
13161W        W81566  17.641  44.528  12.529
13162W        W81567  34.588  10.301  12.584
13163W        W81568  28.984  13.812   0.268
13164W        W81569   0.928  27.267  10.542
13165W        W81570  42.513   3.387   3.609
13166W        W81571   3.839  30.455   5.052
13167W        W81572  34.736  11.567  14.964
13168W        W81573  13.859  39.406   1.820
13169W        W81574  20.111  28.030  14.337
13170W        W81575  17.266  12.199   2.109
13171W        W81576  24.216   6.348   0.703
13172W        W81577  42.906  13.771   4.476
13173W        W81578   6.440   6.337  13.433
13174W        W81579  39.905   4.811   3.810
13175W        W81580   6.949   4.758  11.884
13176W        W81581  12.710  44.707  10.293
13177W        W81582  33.129  11.939  14.385
13178W        W81583  43.272  20.193  14.901
13179W        W81584  30.470  16.212   3.181
13180W        W81585  25.187  29.615  12.876
13181W        W81586  10.335   7.562  14.966
13182W        W81587   7.204   8.366  10.960
13183W        W81588  18.716  21.160   4.538
13184W        W81589  15.303  25.130  12.701
13185W        W81590  28.847  28.227   4.430
13186W        W81591  23.128  36.444   4.480
13187W        W81592  33.900  17.068  12.861
13188W        W81593  43.061  33.477   1.810
13189W        W81594  32.513  18.172  13.608
13190W        W81595  42.990   7.154   1.442
13191W        W81596  32.857  10.859  11.729
13192W        W81597  10.335  41.438  14.321
13193W        W81598  14.067  26.498   3.741
13194W        W81599  11.788  31.183   1.453
13195W        W81600  27.868   7.958   4.088
13196W        W81601  23.567  27.673  10.647
13197W        W81602   2.381   1.689   3.153
13198W        W81603   1.255  18.157   0.590
13199W        W81604  20.652   8.939  10.212
13200W        W81605  44.536  24.362  14.449
13201W        W81606   5.501  31.367   4.316
13202W        W81607  11.215  18.345  13.890
13203W        W81608  29.970  33.038  14.552
13204W        W81609  20.253  21.930  12.627
13205W        W81610  19.509   1.350  14.503
13206W        W81611   2.540   5.951   0.727
13207W        W81612  36.498  30.153  11.181
13208W        W81613  43.442  20.032   3.185
13209W        W81614  43.871  34.641   0.262
13210W        W81615  21.112  30.414  12.365
13211W        W81616  23.968  41.081   0.480
13212W        W81617  37.204  21.988   2.305
13213W        W81618  43.891  15.354   1.881
13214W        W81619  42.279  26.060  11.692
13215W        W81620  24.172  19.781   1.403
13216W        W81621  10.657  38.725  13.485
13217W        W81622  42.195  10.193  12.494
13218W        W81623  34.733  35.499  11.457
13219W        W81624   8.797  33.525   3.581
13220W        W81625  15.571  26.934  13.105
13221W        W81626  16.549   5.794   3.791
13222W        W81627  30.036  37.299  11.018
13223W        W81628  21.001  24.491   1.213
13224W        W81629   4.240  33.312   2.407
13225W        W81630  33.519   5.212   4.695
13226W        W81631  43.546   0.899   4.543
13227W        W81632  28.469  15.140   4.988
13228W        W81633  37.565  19.090   4.420
13229W        W81634  25.567   6.195  12.501
13230W        W81635  27.046  15.555   3.115
13231W        W81636  29.423  16.058  10.679
13232W        W81637  42.859   8.743   4.845
13233W        W81638  41.589  30.600  13.301
13234W        W81639   6.379   3.801   0.672
13235W        W81640  15.079  11.219   0.812
13236W        W81641   7.840  14.067   3.057
13237W        W81642  43.392  14.152  11.640
13238W        W81643  40.498   9.612  13.120
13239W        W81644  26.383  43.216  11.139
13240W        W81645  22.191  20.201   0.950
13241W        W81646  19.358  23.166  14.316
13242W        W81647  36.820  28.013   2.619
13243W        W81648  23.769  28.238   2.205
13244W        W81649   5.255  26.128   2.759
13245W        W81650  13.062  32.562  10.130
13246W        W81651   9.426  15.076   2.789
13247W        W81652  21.630  28.039  13.345
13248W        W81653  44.538  21.765  10.609
13249W        W81654  15.802  21.745   4.735
13250W        W81655  27.896  19.390  12.464
13251W        W81656  33.846  20.180   1.377
13252W        W81657   4.601  17.610  11.078
13253W        W81658   5.798  14.309  11.968
13254W        W81659  43.719  10.377   2.617
13255W        W81660  22.574  21.758   2.098
13256W        W81661  32.840  28.690  13.973
13257W        W81662  20.101  34.488  14.738
13258W        W81663  10.695  11.256   3.535
13259W        W81664  32.467  17.890  14.040
13260W        W81665  20.774   3.241   2.386
13261W        W81666  27.164  31.392  11.516
13262W        W81667   3.747  40.855   1.691
13263W        W81668  35.464  22.282  12.079
13264W        W81669  44.111  37.961  11.326
13265W        W81670  39.080  26.379  10.356
13266W        W81671  22.511  32.517   1.929
13267W        W81672  14.114   5.591   3.884
13268W        W81673   4.567  18.651  11.996
13269W        W81674  37.984   3.713   2.472
13270W        W81675   5.184   3.909  14.005
13271W        W81676   5.863  10.989  11.496
13272W        W81677  12.747  22.018  14.965
13273W        W81678  21.266  25.035   2.354
13274W        W81679  29.652  14.191   4.103
13275W        W81680  39.002  20.165   4.395
13276W        W81681   0.119  16.664  12.464
13277W        W81682  34.337  22.741   2.454
13278W        W81683   2.281  10.833   3.439
13279W        W81684  24.447  25.419  12.110
13280W        W81685  31.426  37.865  14.434
13281W        W81686  27.243  25.155  14.285
13282W        W81687  33.521  42.275   3.207
13283W        W81688   0.812   5.849  13.799
13284W        W81689   9.924  22.727   2.850
13285W        W81690  29.605  10.439   0.293
13286W        W81691  24.832  12.384  12.356
13287W        W81692  15.972  38.782  13.355
13288W        W81693  19.732  34.775  10.989
13289W        W81694  28.583  35.374  14.166
13290W        W81695  20.798  17.319   0.204
13291W        W81696  13.767  41.432  11.187
13292W        W81697  40.614  29.570  10.937
13293W        W81698  21.048  43.054   5.089
13294W        W81699  33.570   7.277  12.428
13295W        W81700  13.282  13.149  13.721
13296W        W81701  28.947  42.871  13.145
13297W        W81702  32.352  39.551  14.056
13298W        W81703  13.769  23.074   1.273
13299W        W81704   2.698   0.028  12.029
13300W        W81705  28.064  44.918   2.759
13301W        W81706  10.238  28.736  11.362
13302W        W81707   9.782   6.257   4.627
13303W        W81708  29.473  30.496   2.335
13304W        W81709  34.661  40.879  13.054
13305W        W81710  12.645  16.170  10.672
13306W        W81711  22.598  31.997  14.393
13307W        W81712   2.924  43.779   4.503
13308W        W81713  32.918   1.555  11.608
13309W        W81714  42.299  40.317  12.665
13310W        W81715  35.513  33.460   2.212
13311W        W81716  33.395  18.356  11.620
13312W        W81717   9.063   3.940   3.805
13313W        W81718  44.732   2.505  11.541
13314W        W81719  17.865   0.950   1.311
13315W        W81720  37.231  41.498  11.596
13316W        W81721  32.134  32.352  11.173
13317W        W81722   0.919  37.655   3.726
13318W        W81723  27.726  28.235  12.074
13319W        W81724   9.429  15.840   3.240
13320W        W81725  25.261   9.297   0.904
13321W        W81726  28.602  18.509  11.219
13322W        W81727   9.388  14.366   3.169
13323W        W81728  40.773  31.446  11.857
13324W        W81729  25.094   7.496  10.706
13325W        W81730  37.199  24.988  12.471
13326W        W81731  18.027   1.831  11.502
13327W        W81732   6.986  43.787  11.294
13328W        W81733  12.072  25.813  10.691
13329W        W81734  18.121  13.643  10.707
13330W        W81735   4.747  37.350  11.116
13331W        W81736  21.401  37.848  13.367
13332W        W81737   0.964  36.606   3.155
13333W        W81738  30.156  17.128  14.813
13334W        W81739  15.219   5.757  14.630
13335W        W81740   1.313   9.973  12.478
13336W        W81741  39.800  40.335   1.919
13337W        W81742   4.684  40.423  13.825
13338W        W81743  12.478  11.802   4.103
13339W        W81744   0.725  33.900  10.640
13340W        W81745  41.797  34.480   4.468
13341W        W81746  41.168  40.020  13.410
13342W        W81747  28.882   7.120  11.562
13343W        W81748   3.451  31.875   3.481
13344W        W81749   2.917  11.633  10.748
13345W        W81750  33.517  18.738  14.847
13346W        W81751  15.309  17.842  14.000
13347W        W81752  21.040  44.356   3.251
13348W        W81753  35.135  26.105  11.178
13349W        W81754  38.577   6.503  11.742
13350W        W81755  36.381  27.361   3.255
13351W        W81756  42.243  33.123  10.947
13352W        W81757  26.167  40.270  11.636
13353W        W81758  41.961  25.453   0.414
13354W        W81759   2.821  43.449  10.507
13355W        W81760  11.178  31.973  12.591
13356W        W81761  18.265  21.053   0.819
13357W        W81762  24.376   4.106   2.432
13358W        W81763  35.567  18.819  11.303
13359W        W81764  41.816   6.296   4.933
13360W        W81765  25.978  43.217  12.320
13361W        W81766   6.734   4.831   2.008
13362W        W81767   7.234  38.341  12.918
13363W        W81768  11.328  17.646  11.039
13364W        W81769  39.053  27.581  11.204
13365W        W81770  44.004  17.739   0.290
13366W        W81771  29.488  35.164   3.885
13367W        W81772  33.927  26.607  12.444
13368W        W81773  28.272  44.398   3.761
13369W        W81774  12.145  37.174  10.690
13370W        W81775   7.790  39.518   2.109
13371W        W81776  17.148  14.236  14.791
13372W        W81777  43.168   5.772  13.150
13373W        W81778  23.071  13.324   1.777
13374W        W81779  19.906  39.541   3.662
13375W        W81780  10.364  17.287  13.770
13376W        W81781  18.305  44.260   4.856
13377W        W81782  36.098  32.448   0.745
13378W        W81783  22.069  26.176  12.009
13379W        W81784  29.677  27.013   3.211
13380W        W81785  28.944  42.414   4.102
13381W        W81786  44.320  35.635  13.962
13382W        W81787  13.406  26.068  12.139
13383W        W81788  23.591  17.518  13.098
13384W        W81789  37.903  19.114  11.507
13385W        W81790  24.132  37.290   9.660
13386W        W81791   9.288  40.277  14.066
13387W        W81792  39.870  28.063   0.035
13388W        W81793  16.086  21.479  13.406
13389W        W81794   4.508  32.403  14.904
13390W        W81795  43.707  22.167   0.719
13391W        W81796  12.250  38.550  14.193
13392W        W81797  28.625  38.417   0.774
13393W        W81798  40.783  27.984   0.380
13394W        W81799   7.016  11.364   4.040
13395W        W81800  42.966  23.638  10.925
13396W        W81801  34.904  10.083   1.468
13397W        W81802  11.658   5.181  14.016
13398W        W81803  19.394  32.805   1.968
13399W        W81804   8.442   1.548  14.392
13400W        W81805  38.748  18.343  10.958
13401W        W81806   9.619  27.498   0.392
13402W        W81807   1.016  26.435   0.265
13403W        W81808   8.294  13.804   4.164
13404W        W81809  24.718  21.091   0.371
13405W        W81810  12.625  32.405  12.947
13406W        W81811  15.798   5.354   0.900
13407W        W81812   7.278  28.706   3.133
13408W        W81813   7.668   1.902  14.754
13409W        W81814  30.580  21.182  11.383
13410W        W81815   8.343  20.154   3.215
13411W        W81816   3.725   0.401   3.181
13412W        W81817   6.683  33.891   3.816
13413W        W81818  22.324  13.582  12.514
13414W        W81819   2.258  13.313   4.533
13415W        W81820   5.305   9.942   2.858
13416W        W81821   0.810   8.444   2.163
13417W        W81822  15.600  11.460  13.484
13418W        W81823  27.678  42.519   0.860
13419W        W81824  16.089  37.624   2.305
13420W        W81825   2.590  24.773  13.565
13421W        W81826  15.285  23.136   0.368
13422W        W81827  19.085  40.581   3.204
13423W        W81828  29.903   0.995   2.220
13424W        W81829  35.312  25.565   0.364
13425W        W81830  37.691  35.052   0.518
13426W        W81831  18.718  17.613  14.961
13427W        W81832  43.773   6.595   4.131
13428W        W81833   5.385  29.914  14.545
13429W        W81834  37.878   8.043   4.070
13430W        W81835  12.840  36.557  12.558
13431W        W81836  35.926  25.661   2.953
13432W        W81837  40.760   5.318  13.461
13433W        W81838  43.021  16.294  11.960
13434W        W81839  27.763  35.681   5.133
13435W        W81840  39.141  24.671  13.379
13436W        W81841   7.226  30.983   2.900
13437W        W81842  23.259  23.573   3.681
13438W        W81843  39.093  43.270  12.422
13439W        W81844  22.731  29.575   1.904
13440W        W81845  32.558   7.730   4.695
13441W        W81846  28.262  35.815   3.358
13442W        W81847  10.932   6.391   4.281
13443W        W81848  18.511  31.668  13.032
13444W        W81849  20.474  43.780  14.343
13445W        W81850   8.437  36.449   4.696
13446W        W81851   9.880  21.340  14.584
13447W        W81852  22.188   2.644  11.904
13448W        W81853   1.668  40.387   2.625
13449W        W81854  27.864   5.399   4.861
13450W        W81855   1.832   3.207   4.144
13451W        W81856  20.011   0.812   1.519
13452W        W81857  42.429   7.151  12.894
13453W        W81858  21.983   6.859  11.075
13454W        W81859  14.833  42.712   4.463
13455W        W81860  19.359  44.240  10.603
13456W        W81861  17.942   0.222   4.093
13457W        W81862   7.300   5.374  11.148
13458W        W81863  24.888  25.169  12.152
13459W        W81864  12.705  42.281   2.215
13460W        W81865   0.958  38.525   4.769
13461W        W81866  22.666  14.044   1.416
13462W        W81867  17.113  25.243   1.089
13463W        W81868  13.553  31.076   4.190
13464W        W81869  31.018   9.932  14.144
13465W        W81870  32.056  28.076   0.463
13466W        W81871  35.845  35.421   4.112
13467W        W81872  35.249  24.957  10.510
13468W        W81873  35.793  44.312  11.062
13469W        W81874  42.941   9.755   0.073
13470W        W81875  10.387  42.431  12.518
13471W        W81876  44.504   7.403   4.299
13472W        W81877  38.795  40.354  14.748
13473W        W81878  43.697  33.509   2.799
13474W        W81879  17.502   1.783   0.207
13475W        W81880   6.425   5.114  11.052
13476W        W81881   6.465  15.719  13.447
13477W        W81882  26.306   1.181   2.687
13478W        W81883  10.081  26.580   5.124
13479W        W81884  14.710  16.348  14.838
13480W        W81885  34.557  32.049  13.084
13481W        W81886  30.549  40.053   5.063
13482W        W81887   1.659   8.874   3.354
13483W        W81888  42.343   6.425   1.680
13484W        W81889  25.229  12.075  11.460
13485W        W81890  39.830  39.922  11.662
13486W        W81891   0.238  37.412  14.366
13487W        W81892  34.260  25.055   5.010
13488W        W81893  44.284  13.704   3.628
13489W        W81894  31.345  26.218   2.058
13490W        W81895  40.145  36.827   4.799
13491W        W81896   8.094  42.957  11.687
13492W        W81897  41.361  28.500  11.616
13493W        W81898  12.273  26.908   1.606
13494W        W81899  14.181  30.507   2.900
13495W        W81900  12.841  22.245  13.364
13496W        W81901  21.010  21.190   0.372
13497W        W81902  26.189  39.996  11.067
13498W        W81903   8.252  30.297   4.054
13499W        W81904  15.046  19.300   0.492
13500W        W81905  38.004  33.535  12.963
13501W        W81906  37.952  40.879  13.550
13502W        W81907  35.523  14.355  14.740
13503W        W81908  32.990  27.944   1.546
13504W        W81909   6.926  38.298   4.301
13505W        W81910  36.687   3.932  11.777
13506W        W81911   5.245  13.424   4.708
13507W        W81912  32.545  44.750   0.742
13508W        W81913  23.901   0.172  13.172
13509W        W81914  10.874  12.293   1.011
13510W        W81915  29.084  37.747  11.075
13511W        W81916  40.297  25.610   1.572
13512W        W81917  18.245  13.535  13.961
13513W        W81918  21.541  41.747  13.022
13514W        W81919  35.120  35.439   1.232
13515W        W81920  25.118  22.306  10.421
13516W        W81921  12.756  31.445   2.628
13517W        W81922  36.807   7.392   1.459
13518W        W81923  27.998  29.840   4.889
13519W        W81924  16.338   2.919  10.086
13520W        W81925  38.335  37.567   9.989
13521W        W81926  35.599  21.858   1.463
13522W        W81927  37.834  38.676   0.160
13523W        W81928  28.448  41.724   4.086
13524W        W81929  32.491  30.364  13.102
13525W        W81930  17.118   0.031   3.686
13526W        W81931   8.133   4.246  12.937
13527W        W81932  44.102  42.170   4.185
13528W        W81933   1.325  27.266  14.041
13529W        W81934   1.558  12.810  10.473
13530W        W81935   6.270  38.549   3.530
13531W        W81936  44.204  13.929   0.150
13532W        W81937   4.431   9.262   2.393
13533W        W81938   6.722   3.808  13.911
13534W        W81939  36.699  15.773   0.340
13535W        W81940  19.734  29.135   1.234
13536W        W81941  13.258  30.173   0.882
13537W        W81942  17.819   8.362  14.399
13538W        W81943   0.774  23.763  13.871
13539W        W81944  40.801  12.289   1.843
13540W        W81945   4.501  26.604  12.672
13541W        W81946  41.553  39.102  14.118
13542W        W81947  36.487  30.107   2.942
13543W        W81948  25.392  27.125   4.128
13544W        W81949  17.904  40.051   4.749
13545W        W81950  36.099  23.014   2.820
13546W        W81951  13.641  42.215  13.130
13547W        W81952  21.095  29.024   4.773
13548W        W81953  20.195  17.321   3.706
13549W        W81954  43.117  24.004  13.555
13550W        W81955  21.854   0.977  13.555
13551W        W81956  28.156  25.976   4.113
13552W        W81957  19.178  21.633   4.601
13553W        W81958  34.225  19.505   4.745
13554W        W81959  13.457  14.606   3.894
13555W        W81960  32.523  29.064   1.258
13556W        W81961  41.448  34.930  13.242
13557W        W81962  43.817  24.682   1.286
13558W        W81963   8.826  12.671  12.032
13559W        W81964   3.717  39.267  13.046
13560W        W81965  40.913  18.995  11.185
13561W        W81966  30.142  24.581  14.771
13562W        W81967  11.792   5.697   0.481
13563W        W81968  36.969  19.579  11.621
13564W        W81969  37.149   0.752   0.191
13565W        W81970  31.332  14.073   2.403
13566W        W81971  43.736   9.861   3.694
13567W        W81972  36.904  25.751   2.253
13568W        W81973  35.091   4.468  11.491
13569W        W81974  44.549   2.753  10.693
13570W        W81975  43.552  33.378   1.699
13571W        W81976  42.323   6.727   0.862
13572W        W81977  41.254   6.748   4.104
13573W        W81978  19.696   1.376  12.584
13574W        W81979  21.498  18.261  11.955
13575W        W81980  35.406  20.453  14.933
13576W        W81981  25.553  15.385  11.623
13577W        W81982  31.478   4.403   4.255
13578W        W81983  16.086   1.747  12.778
13579W        W81984   2.392   2.371  12.052
13580W        W81985  44.154  21.972  13.949
13581W        W81986   5.819  33.243   0.210
13582W        W81987  43.744  30.699   2.706
13583W        W81988   8.236  24.897  14.335
13584W        W81989  21.457  14.760   0.805
13585W        W81990  26.180  26.425   2.751
13586W        W81991   1.535   9.519  13.304
13587W        W81992  39.039  44.340  10.474
13588W        W81993  20.588  37.005   4.071
13589W        W81994  28.607  20.002  13.403
13590W        W81995   6.781   9.157  12.539
13591W        W81996  20.549  44.548   3.221
13592W        W81997  24.708  30.421   3.328
13593W        W81998   3.916  13.383  10.691
13594W        W81999  23.924  42.547   4.477
13595W        W82000  22.495   3.754  13.461
13596W        W82001  14.831  14.669  11.073
13597W        W82002  38.431   2.540   5.381
13598W        W82003  13.215  32.056   0.233
13599W        W82004  18.552  10.859   3.686
13600W        W82005  27.307  26.550  10.700
13601W        W82006  24.971  17.210   3.732
13602W        W82007  16.154  32.931  12.033
13603W        W82008  23.637  18.865   4.645
13604W        W82009   9.855  24.794  14.314
13605W        W82010  37.221  29.452  12.102
13606W        W82011  10.627  43.530   3.390
13607W        W82012  30.348  35.587  11.620
13608W        W82013  28.650  26.142   2.169
13609W        W82014  10.802  24.691  14.030
13610W        W82015  30.279  11.502  13.642
13611W        W82016   6.298  25.697   0.380
13612W        W82017  30.076  29.850   3.216
13613W        W82018  35.526   8.809   4.980
13614W        W82019  33.636   9.259   1.337
13615W        W82020   4.938  17.228  10.978
13616W        W82021  18.772   7.946   1.435
13617W        W82022  12.764  28.039   2.157
13618W        W82023  41.002  29.206   1.141
13619W        W82024  25.181   9.293   2.669
13620W        W82025   6.271  26.337  12.498
13621W        W82026  13.663   0.069   3.674
13622W        W82027  18.240  22.765  10.742
13623W        W82028   5.271   4.819   1.933
13624W        W82029  18.676  40.250  12.967
13625W        W82030  40.564  30.131  10.756
13626W        W82031   8.944  13.166   1.393
13627W        W82032  30.955  41.766  10.246
13628W        W82033  33.633  20.180  12.122
13629W        W82034   9.200  44.450  13.331
13630W        W82035  28.916  24.600  14.739
13631W        W82036  32.297   7.425   5.038
13632W        W82037   8.893  10.173  10.400
13633W        W82038  28.414   6.373  13.545
13634W        W82039   1.794  24.064  12.973
13635W        W82040  41.826  15.274  11.572
13636W        W82041  23.535  44.250   4.584
13637W        W82042  31.489  33.584  10.653
13638W        W82043  37.368  12.771   2.291
13639W        W82044   5.529  27.399   0.976
13640W        W82045  15.085  17.022  14.334
13641W        W82046  21.491  16.218   2.209
13642W        W82047  44.518  30.999  14.062
13643W        W82048  11.964  44.463   5.346
13644W        W82049   4.288  25.676   4.643
13645W        W82050  39.128  22.272   1.098
13646W        W82051  38.812  40.452  13.727
13647W        W82052  25.137  41.718   4.150
13648W        W82053  25.974   3.356  14.287
13649W        W82054  19.379  17.622   3.183
13650W        W82055   3.934  25.315  13.085
13651W        W82056  12.809  36.001   0.230
13652W        W82057  42.863  22.725  13.465
13653W        W82058  29.281  23.917  11.849
13654W        W82059   1.665  41.405  12.638
13655W        W82060  24.993  32.650   3.775
13656W        W82061  43.888  42.575   4.450
13657W        W82062  42.616  33.517  14.856
13658W        W82063   2.427  43.545  12.857
13659W        W82064  36.588  34.852  14.416
13660W        W82065  23.657  28.921  12.036
13661W        W82066  14.305  30.155   3.250
13662W        W82067  18.529  31.888   5.062
13663W        W82068   4.755  32.955   3.592
13664W        W82069  18.795  29.401  13.201
13665W        W82070  16.081   2.232   0.325
13666W        W82071   5.747   3.173  12.646
13667W        W82072  40.138   6.185  11.579
13668W        W82073  27.627  14.316   0.783
13669W        W82074   2.987  43.480  14.379
13670W        W82075  30.624  25.554  12.027
13671W        W82076  10.862  12.153  12.529
13672W        W82077  32.520  40.021  12.330
13673W        W82078  37.859  15.932  13.830
13674W        W82079  26.781   5.867   3.766
13675W        W82080  15.086  11.988  11.214
13676W        W82081   7.176  31.530   2.120
13677W        W82082  24.198  21.255   1.254
13678W        W82083  11.739   8.756   0.057
13679W        W82084  37.908  26.790  12.262
13680W        W82085  29.881  18.687   0.989
13681W        W82086  32.891  39.937  11.739
13682W        W82087  43.312  12.367  14.549
13683W        W82088  19.591  21.143  10.199
13684W        W82089   8.250   3.436   4.608
13685W        W82090  13.707  16.557  14.396
13686W        W82091   5.308  14.786   2.304
13687W        W82092  39.378  35.240   4.696
13688W        W82093   5.192  35.665  14.885
13689W        W82094  32.973   9.700   2.311
13690W        W82095  23.054  14.345  10.504
13691W        W82096  22.757  25.517  11.101
13692W        W82097  16.168  28.744   4.751
13693W        W82098   0.298  43.027  13.020
13694W        W82099  31.466   9.033   2.386
13695W        W82100  11.559   0.045  11.109
13696W        W82101  25.156  41.092   4.949
13697W        W82102   7.999  41.599   4.581
13698W        W82103  41.372  41.363  11.834
13699W        W82104  44.268   4.277  10.688
13700W        W82105  31.085  22.678   1.359
13701W        W82106  32.606   4.651  10.118
13702W        W82107  12.272  35.602   3.245
13703W        W82108  21.013  42.201  10.827
13704W        W82109   8.376   1.012   3.886
13705W        W82110  38.312   2.137  11.134
13706W        W82111  24.625   2.470   0.326
13707W        W82112  22.529  34.842  13.619
13708W        W82113  23.033   9.817  11.439
13709W        W82114  37.734  20.868   4.874
13710W        W82115  35.316  12.985  13.958
13711W        W82116  18.370  31.175  13.149
13712W        W82117   3.514  22.701  10.833
13713W        W82118  26.458  19.512  14.896
13714W        W82119  30.513  10.173  12.084
13715W        W82120  41.848  31.619   0.050
13716W        W82121  18.462  16.171   2.344
13717W        W82122  26.560  29.463   1.773
13718W        W82123   7.379  21.616  10.767
13719W        W82124  16.588  21.647   3.598
13720W        W82125  32.591  24.063  13.927
13721W        W82126   9.356  28.008   2.414
13722W        W82127  38.880  30.673   0.010
13723W        W82128  39.889  35.511   2.286
13724W        W82129  25.241   8.256   4.272
13725W        W82130   4.441  19.098  14.916
13726W        W82131  30.440  28.039  10.905
13727W        W82132   7.829  27.719  14.812
13728W        W82133  11.176  17.431   5.072
13729W        W82134  39.659  25.184  14.603
13730W        W82135   1.461  10.787   4.517
13731W        W82136  17.842  41.493  11.669
13732W        W82137   2.183  14.014  13.980
13733W        W82138   7.622   6.965  12.928
13734W        W82139  20.879  12.721   4.457
13735W        W82140  14.084  25.712   4.112
13736W        W82141  14.428  27.952   3.797
13737W        W82142  27.477   8.931   4.854
13738W        W82143  17.559  37.375   0.145
13739W        W82144  19.605  13.148   5.021
13740W        W82145  13.164  26.496  11.906
13741W        W82146  30.057  25.022   0.134
13742W        W82147   5.245  42.947   3.224
13743W        W82148  19.759  28.438  11.230
13744W        W82149   6.878  26.566  14.337
13745W        W82150  18.306  40.020   4.411
13746W        W82151  23.630  30.181  14.010
13747W        W82152  11.510   9.262   4.757
13748W        W82153  20.594  13.872  12.413
13749W        W82154  41.908  36.966  12.283
13750W        W82155  39.081  23.721  10.663
13751W        W82156  25.645   7.302   4.076
13752W        W82157  16.484   6.725   3.737
13753W        W82158  43.190  33.356  11.056
13754W        W82159   8.105   0.756   4.788
13755W        W82160   0.219  38.525  12.282
13756W        W82161  23.234  38.515   1.172
13757W        W82162  34.531  16.822   2.339
13758W        W82163   1.716  21.477  11.188
13759W        W82164  11.587  34.511  12.061
13760W        W82165  22.425  28.468  10.574
13761W        W82166  21.998  44.444  14.247
13762W        W82167  23.208   1.992  13.590
13763W        W82168  21.483   0.540  11.462
13764W        W82169  10.112  10.911   0.359
13765W        W82170  27.909  22.877   4.108
13766W        W82171  22.453  12.839   5.013
13767W        W82172   2.451  40.845   1.173
13768W        W82173   2.754  13.201  10.738
13769W        W82174   2.484   9.354  12.217
13770W        W82175  23.563  34.820   2.766
13771W        W82176  44.938   7.897  10.925
13772W        W82177  10.968   0.889  14.701
13773W        W82178   1.262  13.022   2.258
13774W        W82179  43.456  36.801  14.256
13775W        W82180  28.079  19.301  10.317
13776W        W82181   3.074   3.449  11.802
13777W        W82182   7.618  28.943   1.294
13778W        W82183  36.554  37.394  10.330
13779W        W82184  34.848  40.843   4.810
13780W        W82185  20.490   4.856   1.463
13781W        W82186  27.746  30.726   3.636
13782W        W82187  34.342  33.031  11.693
13783W        W82188  16.387  31.994   0.989
13784W        W82189  32.424   2.395  13.072
13785W        W82190  14.709  11.486   0.319
13786W        W82191   0.109  31.874  13.952
13787W        W82192  18.143   3.537  14.016
13788W        W82193  30.262  44.921  14.758
13789W        W82194  31.654  10.286  13.605
13790W        W82195  40.112  37.249   4.021
13791W        W82196   4.316  41.583  13.895
13792W        W82197  34.189  10.276  13.982
13793W        W82198   8.529  12.683  10.693
13794W        W82199  42.880  41.966   2.764
13795W        W82200  12.853  25.202  14.300
13796W        W82201  12.549   8.698   1.180
13797W        W82202  28.157  26.053  13.248
13798W        W82203  10.339  31.527   3.645
13799W        W82204  41.571   5.343   4.683
13800W        W82205  32.092  28.158  12.929
13801W        W82206  27.175   3.341   3.392
13802W        W82207   2.164  19.566  11.489
13803W        W82208  18.161  44.219   1.332
13804W        W82209   8.218  38.435   2.329
13805W        W82210   0.458  30.046  13.550
13806W        W82211  14.767   2.654  12.494
13807W        W82212  24.687  25.640  12.531
13808W        W82213  11.174   2.505   4.698
13809W        W82214  22.004  26.517   3.309
13810W        W82215  10.899  10.028  12.002
13811W        W82216   9.648  32.875   1.288
13812W        W82217  17.544   1.833  14.285
13813W        W82218  19.812  25.216   0.807
13814W        W82219  12.430  38.619   4.117
13815W        W82220  28.404  30.161  12.921
13816W        W82221  22.223  37.533  13.365
13817W        W82222  29.116  40.481  13.179
13818W        W82223   9.882  41.964   1.952
13819W        W82224  38.867  34.040   1.285
13820W        W82225   1.219  41.320  12.404
13821W        W82226  32.045  14.814  13.006
13822W        W82227  30.168  42.474   3.957
13823W        W82228  25.212   0.246  13.933
13824W        W82229  26.994   1.231   1.595
13825W        W82230   3.795  38.753  12.967
13826W        W82231   4.349  25.221  12.510
13827W        W82232  23.171  19.525   1.393
13828W        W82233   5.454  30.648   2.240
13829W        W82234  36.413   4.340  11.025
13830W        W82235  29.389   1.453   4.709
13831W        W82236   5.723  14.328   0.325
13832W        W82237  13.308  13.240   2.420
13833W        W82238  35.432   3.809  14.319
13834W        W82239   0.185   1.860  12.376
13835W        W82240  39.933  21.983  13.474
13836W        W82241  25.324   8.238   0.355
13837W        W82242  42.355  38.003   4.292
13838W        W82243   2.600  38.894   4.240
13839W        W82244   9.391  20.082   4.207
13840W        W82245  40.119  20.147  11.655
13841W        W82246  40.934  38.987   0.824
13842W        W82247  15.745   1.042  10.181
13843W        W82248   5.772   1.904   1.925
13844W        W82249  11.232  39.868   4.317
13845W        W82250   4.634  16.653  13.572
13846W        W82251   2.487  26.116  11.717
13847W        W82252  14.771   2.948  13.822
13848W        W82253  17.316  10.333   3.876
13849W        W82254   9.532  15.717  13.333
13850W        W82255   6.266  25.132   3.295
13851W        W82256   6.007  11.351  12.908
13852W        W82257  14.172  25.959   0.420
13853W        W82258  30.124  24.710  12.980
13854W        W82259  28.259  38.429  11.689
13855W        W82260  44.414  31.812  12.699
13856W        W82261  33.003   7.663  13.490
13857W        W82262  24.647  38.976  13.227
13858W        W82263  19.686  36.521   2.640
13859W        W82264   2.446   7.236   1.404
13860W        W82265  42.409  28.135   2.289
13861W        W82266  10.649  35.145  11.408
13862W        W82267  26.071  26.418  11.974
13863W        W82268  13.931   9.604  12.193
13864W        W82269  36.972  10.549  12.070
13865W        W82270  41.986  15.726   0.630
13866W        W82271  10.367  37.410   1.207
13867W        W82272  37.645  26.634   4.327
13868W        W82273  41.440  36.834  12.455
13869W        W82274   6.927  20.134   4.885
13870W        W82275  31.492   7.475  11.772
13871W        W82276  20.008  40.494  12.100
13872W        W82277  22.266   0.495   0.863
13873W        W82278  10.283  23.692  13.471
13874W        W82279  31.595   4.349  12.118
13875W        W82280   2.286  20.341   0.393
13876W        W82281  35.617   0.004   4.335
13877W        W82282  25.146  37.976   3.671
13878W        W82283  34.958  22.614   3.640
13879W        W82284   1.668  37.489  12.042
13880W        W82285   3.896   5.964  13.383
13881W        W82286  33.829  30.619   4.842
13882W        W82287  12.743  39.036   2.626
13883W        W82288  30.932  42.668   0.872
13884W        W82289  44.237   0.128  13.909
13885W        W82290  43.753  23.507   4.420
13886W        W82291  13.490  42.440   0.741
13887W        W82292  33.546   6.022  11.455
13888W        W82293  33.281  29.920  11.965
13889W        W82294  42.837  18.314   2.295
13890W        W82295  14.358  30.241   4.169
13891W        W82296   9.475  13.640   4.180
13892W        W82297   2.713  37.035  11.528
13893W        W82298   8.109   7.871   2.762
13894W        W82299  17.086  25.562  10.727
13895W        W82300   5.713  24.059   4.420
13896W        W82301  24.172  41.792  12.315
13897W        W82302  27.916   1.452  12.391
13898W        W82303   7.625  36.569  11.672
13899W        W82304  11.586  39.187  12.103
13900W        W82305   0.750  31.843   5.003
13901W        W82306   5.326   5.809  10.078
13902W        W82307  32.563  14.334   0.950
13903W        W82308  31.524  25.800  12.977
13904W        W82309   0.450  20.262  11.956
13905W        W82310  11.660  15.018   5.042
13906W        W82311  12.377  35.251   1.744
13907W        W82312  18.017   1.654  11.004
13908W        W82313  33.857   4.299   2.314
13909W        W82314  25.497  18.690  11.197
13910W        W82315  30.184  20.324  14.403
13911W        W82316  31.461   5.451  13.766
13912W        W82317  19.048  21.946   2.417
13913W        W82318  41.892  30.442   2.310
13914W        W82319  11.590  35.640  14.864
13915W        W82320  10.675  41.822  11.909
13916W        W82321   3.712  37.171  14.545
13917W        W82322   4.706   3.810   0.794
13918W        W82323   3.261  33.376   2.377
13919W        W82324   6.861  15.682   2.171
13920W        W82325  30.278   2.357   3.978
13921W        W82326  32.571   7.660  11.552
13922W        W82327  28.554  21.105  14.568
13923W        W82328  32.266  13.372   1.896
13924W        W82329  21.037  34.732   1.144
13925W        W82330  25.850  13.266  14.352
13926W        W82331  31.152  10.003  12.602
13927W        W82332  17.649  37.815   0.953
13928W        W82333   1.466  35.058  10.616
13929W        W82334  14.975  44.096   2.764
13930W        W82335  29.893  21.974   3.739
13931W        W82336   4.700  30.160  12.464
13932W        W82337  23.554   8.433  14.825
13933W        W82338   5.147  44.545  11.698
13934W        W82339  11.788  43.390  12.416
13935W        W82340   3.787  11.516  14.732
13936W        W82341   0.873  44.766  12.791
13937W        W82342   2.446  28.456  14.312
13938W        W82343  42.992  25.078   0.286
13939W        W82344  12.938  17.788   2.696
13940W        W82345   8.152  29.924   1.228
13941W        W82346   0.524  28.376  14.236
13942W        W82347  33.003  39.073  11.073
13943W        W82348  35.915  15.110   4.097
13944W        W82349  23.297  16.732   1.106
13945W        W82350  36.567  24.026  11.106
13946W        W82351  36.135  14.265  14.220
13947W        W82352   6.225  38.535   4.935
13948W        W82353  20.111  20.050  12.784
13949W        W82354   0.656  22.508   1.655
13950W        W82355  15.338  15.871  11.426
13951W        W82356  18.871  22.999   1.784
13952W        W82357   5.128  22.862   4.986
13953W        W82358  22.701   8.237  12.330
13954W        W82359  43.656  17.101   2.572
13955W        W82360  25.729  15.198   1.013
13956W        W82361   2.084  44.340   4.614
13957W        W82362   2.749  12.009  11.434
13958W        W82363  33.580  40.862  13.044
13959W        W82364  36.148  23.703   2.401
13960W        W82365  33.111  19.016  13.027
13961W        W82366  10.410  23.010  14.376
13962W        W82367  25.120  13.639   2.452
13963W        W82368  21.742   4.481   0.485
13964W        W82369  24.057  21.351  13.912
13965W        W82370  22.347  34.657  11.678
13966W        W82371  38.709   8.255   4.034
13967W        W82372  32.938  38.304   1.955
13968W        W82373  30.212   1.739   0.870
13969W        W82374   5.511  11.350  13.010
13970W        W82375   1.900   8.933   0.398
13971W        W82376  28.222   0.526   2.406
13972W        W82377  17.173  28.167  14.365
13973W        W82378  20.522   2.720   2.877
13974W        W82379  37.578   2.805   0.246
13975W        W82380  30.683  18.440   0.808
13976W        W82381  23.387  37.518   2.182
13977W        W82382  44.730  27.111   2.216
13978W        W82383  14.006  30.803   4.926
13979W        W82384  22.460  29.028   4.115
13980W        W82385  39.012  31.517   2.138
13981W        W82386  13.670  38.246  13.989
13982W        W82387  27.773  11.356   2.727
13983W        W82388  20.631  10.212   2.449
13984W        W82389  36.092   8.922  12.604
13985W        W82390  24.619  27.909  12.177
13986W        W82391  24.487   3.498   0.468
13987W        W82392  17.726  20.220   3.200
13988W        W82393   0.462   8.617   2.744
13989W        W82394  13.038   8.284   0.388
13990W        W82395  39.541   9.722  11.859
13991W        W82396  21.951  14.645   0.798
13992W        W82397  19.967  30.920  12.468
13993W        W82398  25.518   0.926  14.243
13994W        W82399  22.249   5.667   0.074
13995W        W82400  14.487  38.406   4.215
13996W        W82401  26.585  36.810   3.614
13997W        W82402   2.360  11.815   3.205
13998W        W82403  11.130  23.444   1.230
13999W        W82404   2.983   6.393  11.566
14000W        W82405   6.178  13.109  12.065
14001W        W82406  20.551  12.528  14.812
14002W        W82407  39.322  27.226   3.632
14003W        W82408  10.290  12.915   5.052
14004W        W82409  42.070  11.241   4.579
14005W        W82410  25.770  42.301   2.554
14006W        W82411  28.902   6.864   2.578
14007W        W82412  32.308  39.326   0.005
14008W        W82413  22.273  17.004  14.107
14009W        W82414  19.539  26.393   0.473
14010W        W82415  28.299  28.147   1.791
14011W        W82416  15.521  32.354   4.598
14012W        W82417  31.036  14.326  12.091
14013W        W82418  23.014   2.894   0.650
14014W        W82419  34.472   1.401  13.266
14015W        W82420   1.646  15.825   0.825
14016W        W82421   3.696  21.606   4.656
14017W        W82422  35.604  38.601  12.540
14018W        W82423  10.997  18.459  10.027
14019W        W82424  14.996   3.279   4.640
14020W        W82425   2.331  23.157  10.199
14021W        W82426  21.176   1.832   0.967
14022W        W82427  42.764  31.579  11.652
14023W        W82428  10.091  26.610  11.891
14024W        W82429  27.340  40.409   1.436
14025W        W82430  36.296   8.373   2.216
14026W        W82431  22.554  33.617  11.586
14027W        W82432  26.702  32.356  10.130
14028W        W82433   7.658   1.304  14.952
14029W        W82434  34.859  16.822   3.574
14030W        W82435  42.431  31.146  13.078
14031W        W82436  30.080   0.197   2.673
14032W        W82437  13.802  38.484  14.846
14033W        W82438   8.666   9.276  13.370
14034W        W82439   6.646  23.349   2.172
14035W        W82440   4.403   9.303  12.008
14036W        W82441   1.043  17.121  13.479
14037W        W82442  28.041  25.288  11.620
14038W        W82443  10.011  36.214   4.103
14039W        W82444  12.191   5.721  14.449
14040W        W82445  24.059  18.848  13.810
14041W        W82446  10.048  10.790   2.181
14042W        W82447  32.933  30.907  14.732
14043W        W82448  24.086   5.582   3.890
14044W        W82449  23.130  12.889  14.947
14045W        W82450  30.672  36.790   0.513
14046W        W82451  14.589  36.519   0.338
14047W        W82452  34.335  36.826  13.017
14048W        W82453   7.805  29.295   0.946
14049W        W82454  13.822  24.578   4.758
14050W        W82455  23.525  23.075   1.136
14051W        W82456  22.880  42.953   5.034
14052W        W82457  35.420  21.915  12.643
14053W        W82458  37.952  38.666   1.646
14054W        W82459  22.287   1.502   0.739
14055W        W82460  40.757  36.916  14.949
14056W        W82461  32.910  31.408  14.815
14057W        W82462  39.414  43.822   4.077
14058W        W82463  11.768  32.488   3.795
14059W        W82464  27.213  13.192  10.575
14060W        W82465  20.612  42.870   3.821
14061W        W82466  29.344  13.221  10.655
14062W        W82467  37.487  43.929   4.484
14063W        W82468  43.940  26.155  10.412
14064W        W82469  25.443  16.809  13.404
14065W        W82470  40.212  26.223  12.397
14066W        W82471  19.037  42.416   3.204
14067W        W82472  40.255  26.096   4.163
14068W        W82473  17.401  32.952  13.854
14069W        W82474  20.170  24.624   5.018
14070W        W82475  32.135  10.219   3.303
14071W        W82476  13.263  20.348   0.801
14072W        W82477  15.255  30.469   1.393
14073W        W82478  22.594  11.505   1.647
14074W        W82479   9.214  44.285  14.414
14075W        W82480  14.575   7.814  13.323
14076W        W82481  21.735  17.320   2.041
14077W        W82482  37.743  44.780   1.292
14078W        W82483   5.715  43.181   4.323
14079W        W82484  34.955  25.694   2.790
14080W        W82485  28.779  13.184   3.090
14081W        W82486  31.932  34.133  11.104
14082W        W82487  37.046  36.663   0.313
14083W        W82488   2.495  36.831  11.971
14084W        W82489  14.593  43.755   1.821
14085W        W82490  21.097   5.847  14.332
14086W        W82491  13.956   4.545   1.886
14087W        W82492  13.757  31.362   0.349
14088W        W82493  16.966  32.391  10.646
14089W        W82494   6.965   3.353  13.935
14090W        W82495  30.630  22.986  13.576
14091W        W82496  21.110   3.216   0.200
14092W        W82497  30.087  41.346  13.913
14093W        W82498  11.343  36.349   1.582
14094W        W82499  24.898  40.314   2.817
14095W        W82500  25.555  41.878   3.851
14096W        W82501  17.694  19.244  11.395
14097W        W82502  21.023   7.808  10.663
14098W        W82503  33.375  28.055  12.141
14099W        W82504  42.313  27.737  10.645
14100W        W82505   8.028  11.249   3.921
14101W        W82506  30.571  10.668  12.519
14102W        W82507  25.037  33.079  14.324
14103W        W82508   6.934  38.086  10.791
14104W        W82509  39.348  44.881  12.337
14105W        W82510  30.107  31.652   0.283
14106W        W82511  20.591  10.819   0.876
14107W        W82512  39.837  39.462   3.630
14108W        W82513  12.858   0.251  12.377
14109W        W82514  13.272  42.193   4.605
14110W        W82515   6.347   7.058  14.708
14111W        W82516  13.327  28.232  13.165
14112W        W82517   7.820  33.510  13.108
14113W        W82518  35.457  26.094   2.036
14114W        W82519  34.435  15.411  12.967
14115W        W82520   9.083  42.895  12.637
14116W        W82521  28.129  18.783   1.715
14117W        W82522  34.859   7.139  13.442
14118W        W82523  30.699  44.167  11.732
14119W        W82524  15.710  17.377   4.789
14120W        W82525  27.866   2.743  14.489
14121W        W82526  21.661  21.786   1.534
14122W        W82527  43.416  19.823  11.606
14123W        W82528  10.340   9.200   0.790
14124W        W82529  43.182  35.466   3.684
14125W        W82530  21.924  42.096  13.024
14126W        W82531   9.382  20.068   0.789
14127W        W82532  15.625  44.371  11.649
14128W        W82533  17.548  25.601  11.599
14129W        W82534  20.249  10.979  12.551
14130W        W82535  32.493  29.624   4.540
14131W        W82536  35.013  40.093   0.786
14132W        W82537  36.838  33.440   2.683
14133W        W82538  44.873  22.129  13.762
14134W        W82539  10.794  30.161   5.093
14135W        W82540  33.569   6.408  14.948
14136W        W82541  41.755  15.950  13.480
14137W        W82542  36.337  34.814  12.143
14138W        W82543  41.844  18.091   2.270
14139W        W82544   6.492  43.749  11.490
14140W        W82545  30.401   6.167  10.563
14141W        W82546  11.614   0.547  11.026
14142W        W82547  29.621  22.984   3.307
14143W        W82548  16.580  19.040  12.512
14144W        W82549  11.548   8.535   3.781
14145W        W82550  44.762  18.345  11.764
14146W        W82551  29.909  15.173   3.588
14147W        W82552  24.941  12.348  11.160
14148W        W82553  30.819  31.864  11.057
14149W        W82554  32.513  16.649  13.424
14150W        W82555   0.397  42.738  11.527
14151W        W82556  39.565   8.783  14.801
14152W        W82557  14.142  15.599  13.853
14153W        W82558  15.656  38.521   1.776
14154W        W82559  40.923  33.084   0.798
14155W        W82560  26.629   2.446   2.341
14156W        W82561  42.353  30.620  10.514
14157W        W82562   6.276  33.776   4.128
14158W        W82563  32.457  30.637   2.688
14159W        W82564   5.339  34.475   2.272
14160W        W82565  31.365  23.334   4.600
14161W        W82566  40.386  30.073  12.616
14162W        W82567  12.719  11.622   4.638
14163W        W82568  26.514  17.633  12.631
14164W        W82569  24.752  33.917   0.947
14165W        W82570  42.396  43.675  11.093
14166W        W82571  20.728  22.906  12.232
14167W        W82572  39.806  14.837   3.794
14168W        W82573   9.460  13.241  13.947
14169W        W82574  39.870  18.118  11.363
14170W        W82575  34.578  37.192  10.007
14171W        W82576  30.654  36.328   0.291
14172W        W82577  36.058   4.798   1.150
14173W        W82578   4.345  37.664  11.067
14174W        W82579  33.100  43.793   0.303
14175W        W82580   2.158  25.213  14.567
14176W        W82581  29.972  31.708   4.152
14177W        W82582  42.066   5.446   1.840
14178W        W82583  36.405  15.659   3.585
14179W        W82584  35.343  43.840   4.696
14180W        W82585  15.575  16.271  14.498
14181W        W82586   1.485   7.637   0.300
14182W        W82587  10.187  19.306  14.342
14183W        W82588   3.273  21.895  11.155
14184W        W82589  33.604  18.321   4.129
14185W        W82590  13.154  23.983  11.833
14186W        W82591  29.423  29.570   2.126
14187W        W82592  27.623  26.703  13.808
14188W        W82593  30.548   1.932   0.410
14189W        W82594  31.888  41.938  13.238
14190W        W82595  40.846  21.528  13.491
14191W        W82596  44.952  24.327   4.220
14192W        W82597  26.382  34.902  12.433
14193W        W82598  16.829  17.712   4.187
14194W        W82599  19.947  26.170  12.845
14195W        W82600  44.451  36.346  13.167
14196W        W82601  32.891   4.133   3.311
14197W        W82602   2.923  36.014  14.001
14198W        W82603  36.474  24.524   3.193
14199W        W82604   3.083  40.913  13.319
14200W        W82605  25.495   1.956  11.531
14201W        W82606  20.447  13.231  10.906
14202W        W82607  22.524  34.884  14.146
14203W        W82608  25.336  33.578  11.194
14204W        W82609  38.532   2.693  10.134
14205W        W82610  24.194  24.734   3.232
14206W        W82611  29.317  31.171  13.036
14207W        W82612  35.873  40.057  11.199
14208W        W82613   7.879   3.527   3.036
14209W        W82614   4.920  30.199  11.550
14210W        W82615   5.042  26.734   1.767
14211W        W82616   6.159  33.598   0.723
14212W        W82617   7.241  10.030   3.282
14213W        W82618  16.327  20.323   4.537
14214W        W82619  16.686   2.809  10.441
14215W        W82620   9.611  43.926   2.230
14216W        W82621  36.910  42.479  13.593
14217W        W82622  30.092  16.651   2.653
14218W        W82623  18.418  28.445   4.130
14219W        W82624  29.984  32.886   3.343
14220W        W82625  33.352   8.015   2.600
14221W        W82626   5.468  31.369  11.311
14222W        W82627   2.874  31.343  12.485
14223W        W82628  29.056  21.825   4.951
14224W        W82629  26.569  40.059   3.287
14225W        W82630  26.820   5.207   1.036
14226W        W82631   0.020   0.280   4.574
14227W        W82632  10.327  23.288   0.725
14228W        W82633  26.873  23.628   2.826
14229W        W82634  34.350   1.929  12.050
14230W        W82635  29.570  42.815   5.062
14231W        W82636  40.161  36.919  14.177
14232W        W82637  14.596  25.890  12.424
14233W        W82638  35.727  43.470   3.550
14234W        W82639  32.620   3.356   4.163
14235W        W82640   3.781  35.808   3.844
14236W        W82641   1.954  29.663  13.878
14237W        W82642   6.156   6.172  12.019
14238W        W82643  27.153  44.497  13.072
14239W        W82644  23.720  19.639  13.129
14240W        W82645  21.133  17.215  11.126
14241W        W82646  19.164   0.773   1.108
14242W        W82647   2.216  18.089   2.912
14243W        W82648  17.981  41.354  14.455
14244W        W82649   0.703  15.292   1.658
14245W        W82650  11.434  16.323  11.448
14246W        W82651  32.393   0.592   4.538
14247W        W82652  18.999   3.352  14.386
14248W        W82653  43.312  15.770  11.117
14249W        W82654  23.947  11.835  14.566
14250W        W82655   9.675   1.667  13.468
14251W        W82656  33.638  21.162   0.332
14252W        W82657   1.543   5.658  10.122
14253W        W82658  33.520  42.541   1.283
14254W        W82659  44.954  33.391   1.432
14255W        W82660  33.603  37.978   2.703
14256W        W82661  11.024  21.482  11.207
14257W        W82662  36.267  22.117   3.718
14258W        W82663   8.830  27.652   0.818
14259W        W82664  30.164  37.004   3.056
14260W        W82665  16.174  27.789   0.304
14261W        W82666  41.124  31.841   4.153
14262W        W82667  15.274  24.745  13.043
14263W        W82668   7.559  27.611   4.614
14264W        W82669  37.809  44.963   0.447
14265W        W82670  27.598  12.806   2.800
14266W        W82671   3.674  37.881   2.856
14267W        W82672  29.684   5.280  11.878
14268W        W82673  19.748  29.875   1.905
14269W        W82674  29.336   0.530  11.018
14270W        W82675  35.304   4.857   3.232
14271W        W82676  18.070   3.838   2.220
14272W        W82677  33.928   2.458   0.963
14273W        W82678  23.266   5.829   4.189
14274W        W82679   7.255   6.492   4.209
14275W        W82680  41.147   3.622   9.857
14276W        W82681  15.103  25.645   0.363
14277W        W82682  34.432  18.945   3.178
14278W        W82683  10.939  41.328   1.744
14279W        W82684  31.534  36.356  14.528
14280W        W82685  24.997  31.098   4.105
14281W        W82686  23.503  29.681  13.988
14282W        W82687  40.385  15.001  14.870
14283W        W82688  13.370  42.827  14.904
14284W        W82689   9.741  15.583   4.060
14285W        W82690  23.427  17.162  13.460
14286W        W82691  35.892  31.068   2.771
14287W        W82692  10.223   0.924  13.114
14288W        W82693   8.161  11.691  13.822
14289W        W82694  29.735  43.041  12.073
14290W        W82695  34.733  34.373   0.636
14291W        W82696   5.501  23.494  11.323
14292W        W82697  26.951   6.843  11.055
14293W        W82698  17.450  42.142  11.060
14294W        W82699  10.028   8.688   2.406
14295W        W82700  14.280  39.569   2.146
14296W        W82701  11.161  25.692   0.868
14297W        W82702  11.514  18.033  11.996
14298W        W82703  13.626  40.894   4.599
14299W        W82704   0.312  35.386  11.807
14300W        W82705  22.063   5.356   4.055
14301W        W82706  22.341  26.737   4.985
14302W        W82707   2.715   0.898  13.517
14303W        W82708  20.360  30.171   0.700
14304W        W82709  28.192   4.670   3.740
14305W        W82710  15.714  29.935   4.828
14306W        W82711   3.266  37.818   4.690
14307W        W82712  38.251  15.332  11.889
14308W        W82713  30.915  23.064  11.176
14309W        W82714  34.915  30.491  11.601
14310W        W82715   4.325  26.915   2.691
14311W        W82716  25.613  21.201   0.294
14312W        W82717  10.795  34.412   5.049
14313W        W82718   2.392   8.159  12.318
14314W        W82719  10.871  14.366   2.206
14315W        W82720  15.784  33.677  10.345
14316W        W82721  14.398  30.006  13.888
14317W        W82722  21.976  25.195  10.765
14318W        W82723  25.521  31.588  10.702
14319W        W82724  14.966  25.215  13.083
14320W        W82725   0.342   2.002  14.347
14321W        W82726  44.200  38.413   2.339
14322W        W82727  34.754  28.515   0.970
14323W        W82728  33.231  35.683  14.838
14324W        W82729  19.519  43.718  12.380
14325W        W82730  29.663  39.471  13.066
14326W        W82731  30.739  34.274  13.499
14327W        W82732  13.437   9.085  14.851
14328W        W82733  11.488  26.482  14.831
14329W        W82734  18.206  42.448   1.687
14330W        W82735  32.992   8.634   4.965
14331W        W82736  41.560   4.026   5.128
14332W        W82737  38.597  15.520  13.332
14333W        W82738   2.701  43.003   0.032
14334W        W82739  42.431  15.093   3.308
14335W        W82740  34.669  35.955   4.055
14336W        W82741   0.775  42.535   1.271
14337W        W82742  24.583   6.984  13.893
14338W        W82743   6.521  17.070  11.883
14339W        W82744  24.473   8.630   1.033
14340W        W82745  16.787  27.426  14.710
14341W        W82746   1.717  23.923   1.372
14342W        W82747   1.067  29.443   0.465
14343W        W82748  43.334   3.809   4.391
14344W        W82749  17.098   1.193  12.201
14345W        W82750  26.067  19.804  12.389
14346W        W82751  15.724  11.101   2.755
14347W        W82752  33.284  18.375  13.610
14348W        W82753  34.465  43.425   0.210
14349W        W82754   2.415  20.821   1.401
14350W        W82755  12.236   2.925   1.804
14351W        W82756  17.556   9.876   9.824
14352W        W82757  34.319  19.338  14.879
14353W        W82758   6.929   1.429  14.524
14354W        W82759  33.437  32.182  14.820
14355W        W82760  35.539  42.099   3.867
14356W        W82761  44.831  36.505   0.310
14357W        W82762   6.340   1.753   0.575
14358W        W82763  30.449  38.680   2.427
14359W        W82764   8.841  36.610  13.033
14360W        W82765   6.777   8.408   4.136
14361W        W82766  43.308  29.628   3.171
14362W        W82767  36.843  24.412  12.339
14363W        W82768  10.530   3.878   5.211
14364W        W82769  22.614  19.125  11.907
14365W        W82770  25.651   8.660   4.530
14366W        W82771  40.290  35.390  14.020
14367W        W82772  39.233   0.499  13.015
14368W        W82773  13.725  32.135  13.310
14369W        W82774   6.548  31.969  10.199
14370W        W82775  29.873  27.126  14.486
14371W        W82776  40.814  21.010   0.718
14372W        W82777  40.482   1.740  12.967
14373W        W82778  32.781  19.674  12.566
14374W        W82779  27.110  44.143   1.221
14375W        W82780   8.840  42.853   5.014
14376W        W82781  36.838  26.200  13.550
14377W        W82782   0.281  22.086  12.074
14378W        W82783  14.118  22.005   4.659
14379W        W82784   2.563  30.531   5.110
14380W        W82785  38.825  13.161   0.422
14381W        W82786  44.547  24.187   3.028
14382W        W82787  22.550   0.546   0.435
14383W        W82788  12.980   5.710  12.745
14384W        W82789  21.863  42.820   3.115
14385W        W82790  38.411  39.028  14.496
14386W        W82791  16.118  43.057  10.550
14387W        W82792  12.344  15.747   3.374
14388W        W82793  25.126  22.466   5.040
14389W        W82794  13.445  30.582  11.207
14390W        W82795  26.439  15.621  10.262
14391W        W82796  38.840   2.174   1.780
14392W        W82797   8.918  33.777   4.268
14393W        W82798  30.069  21.966   4.561
14394W        W82799  34.549  14.048   3.256
14395W        W82800  41.988  19.318   0.940
14396W        W82801   3.007  26.169   1.272
14397W        W82802  16.587  41.784   2.811
14398W        W82803   6.465   1.544   2.755
14399W        W82804  11.716  13.514  12.851
14400W        W82805  29.970   1.998  11.072
14401W        W82806  15.348  14.626  14.788
14402W        W82807   2.453   7.321  11.642
14403W        W82808  13.025  43.267   2.268
14404W        W82809   2.262  10.886   2.925
14405W        W82810   0.761  40.942  13.023
14406W        W82811  16.191   6.337  11.193
14407W        W82812  17.272  15.245  12.021
14408W        W82813  14.285  41.421   2.014
14409W        W82814   4.501  13.438   1.721
14410W        W82815  20.251   6.935  12.473
14411W        W82816  19.046  29.280   3.594
14412W        W82817  14.231  11.265  11.922
14413W        W82818  39.371  40.072   0.466
14414W        W82819  19.214   9.831  14.554
14415W        W82820  12.625  31.590  14.323
14416W        W82821  32.902   7.191   3.250
14417W        W82822  20.583  43.231  14.327
14418W        W82823   1.728   1.228  12.781
14419W        W82824  35.382  30.497   0.694
14420W        W82825  39.525  24.146   2.792
14421W        W82826  35.984   3.845  14.088
14422W        W82827  21.066  23.646  14.107
14423W        W82828  19.605  44.670   4.117
14424W        W82829  24.760  13.080   3.697
14425W        W82830  37.913   1.501  13.609
14426W        W82831  22.397  36.452   0.815
14427W        W82832  27.587   9.640   2.207
14428W        W82833  14.364  42.037  11.590
14429W        W82834  31.941  39.133  13.415
14430W        W82835  39.412   7.295   9.786
14431W        W82836  11.111  23.586   4.856
14432W        W82837  16.761   1.021   1.280
14433W        W82838  42.675  32.456   4.149
14434W        W82839  19.304   4.760  13.354
14435W        W82840   7.230  19.237   4.725
14436W        W82841  39.558  39.348   0.820
14437W        W82842   4.034  33.080   0.243
14438W        W82843  11.363   5.371   3.675
14439W        W82844  23.016   4.596  14.995
14440W        W82845   3.903  39.793  11.242
14441W        W82846  19.640  40.844   1.943
14442W        W82847  41.479  42.837  11.395
14443W        W82848   9.213   8.412   1.788
14444W        W82849  11.730  15.790   2.662
14445W        W82850  22.546   3.400  10.412
14446W        W82851  39.431   7.336   2.382
14447W        W82852  23.917  41.974   1.699
14448W        W82853  16.206  34.182  12.503
14449W        W82854  19.055  38.355   1.792
14450W        W82855  11.915  42.740   3.450
14451W        W82856  17.188  28.505   0.466
14452W        W82857  19.535  24.450  14.235
14453W        W82858   2.731  15.086  10.708
14454W        W82859  33.122   8.202  12.619
14455W        W82860  17.801  33.619  10.766
14456W        W82861  43.926  26.119  13.270
14457W        W82862  12.190  20.483   0.265
14458W        W82863   2.085  16.075   4.561
14459W        W82864  30.116   4.618  13.487
14460W        W82865   9.945   9.174  11.556
14461W        W82866  10.667  21.091   3.686
14462W        W82867   1.429  23.312   4.241
14463W        W82868  15.261  23.537   3.710
14464W        W82869  15.613  28.937  11.713
14465W        W82870  37.645  17.455   4.047
14466W        W82871  38.083  29.928   3.831
14467W        W82872   5.219  20.509  12.979
14468W        W82873  36.937   1.618   3.156
14469W        W82874   3.247  23.142   2.259
14470W        W82875  40.157  25.462   0.302
14471W        W82876  42.467  21.079  13.592
14472W        W82877   7.031  29.221  13.520
14473W        W82878  15.703   2.321   2.294
14474W        W82879  29.591  25.846   4.516
14475W        W82880   0.605   3.760  11.030
14476W        W82881  23.196  43.810   2.232
14477W        W82882  23.987   1.895  10.677
14478W        W82883  26.774  31.364  12.857
14479W        W82884  21.040  16.622  10.067
14480W        W82885  32.643  13.186   2.830
14481W        W82886  43.389  20.539  13.592
14482W        W82887   1.467   4.804  11.226
14483W        W82888   5.638  24.729  13.153
14484W        W82889  26.762  31.967  12.085
14485W        W82890   3.667  28.238   1.958
14486W        W82891  21.610   9.373  12.856
14487W        W82892   4.532  44.881   4.152
14488W        W82893  19.088  11.294   4.890
14489W        W82894  37.005   7.489  11.538
14490W        W82895  14.683  40.828   2.340
14491W        W82896   9.858  43.634  10.697
14492W        W82897  15.553  35.850  14.448
14493W        W82898  29.619  25.897   1.334
14494W        W82899  35.704   9.345   0.844
14495W        W82900  11.185   9.280   0.971
14496W        W82901  35.952  42.174  12.898
14497W        W82902  40.563  35.352   3.128
14498W        W82903  43.057  44.550  14.591
14499W        W82904  24.012  23.266   1.233
14500W        W82905   2.884  19.038  11.121
14501W        W82906  39.750  30.065   1.809
14502W        W82907  25.694  19.546   3.126
14503W        W82908  28.452   2.966  10.796
14504W        W82909   4.443   3.352   2.908
14505W        W82910  18.002  13.541  12.107
14506W        W82911   3.393   3.112  11.529
14507W        W82912  23.530  39.317  14.309
14508W        W82913  39.193  21.531  12.188
14509W        W82914  39.091  30.605   4.533
14510W        W82915   5.013   2.192  14.974
14511W        W82916   4.273  28.719  11.307
14512W        W82917  41.243   9.908   1.314
14513W        W82918  21.087  14.396   4.617
14514W        W82919  17.213  39.904   3.549
14515W        W82920  13.661  35.947  13.609
14516W        W82921  13.394  41.765  10.528
14517W        W82922  38.932  10.991   3.969
14518W        W82923   5.753   0.076  11.534
14519W        W82924   7.174  27.580  10.479
14520W        W82925  11.214   7.098  14.634
14521W        W82926  13.225  34.250   0.466
14522W        W82927  38.008  42.641  14.909
14523W        W82928  26.236  12.579   3.881
14524W        W82929  15.796  37.757   3.750
14525W        W82930  40.763  43.840   1.750
14526W        W82931  44.099  38.518   4.693
14527W        W82932  37.912   9.762  11.143
14528W        W82933  30.632  41.471   3.316
14529W        W82934   1.778  11.443  14.435
14530W        W82935  23.678  40.089  12.085
14531W        W82936  13.858  24.970  14.288
14532W        W82937  30.423  13.660  11.627
14533W        W82938  18.144   8.282   4.111
14534W        W82939   9.859  24.157  11.353
14535W        W82940  25.922  13.333   2.835
14536W        W82941  39.245  30.956   3.357
14537W        W82942  23.693  35.971  13.614
14538W        W82943   5.455  15.373  13.989
14539W        W82944   3.189  16.673  11.106
14540W        W82945  16.574  30.676   1.281
14541W        W82946  28.378   2.507   3.855
14542W        W82947   9.588  32.562   9.843
14543W        W82948  37.330  42.448   2.702
14544W        W82949  29.107  13.411  11.069
14545W        W82950  39.603  36.813   1.669
14546W        W82951  40.630   7.460   4.843
14547W        W82952  14.298  37.573   1.579
14548W        W82953   9.896   8.631   4.682
14549W        W82954  40.409  44.998  13.343
14550W        W82955  26.731  32.036  13.878
14551W        W82956  31.422  42.719   2.752
14552W        W82957  13.517   0.375  14.983
14553W        W82958  17.785   1.610  12.953
14554W        W82959  10.448  36.351  12.398
14555W        W82960  22.724  16.154  14.956
14556W        W82961  33.981   4.822  10.629
14557W        W82962  29.430  37.833   0.252
14558W        W82963  26.513  19.554  12.527
14559W        W82964  33.451  44.965   4.539
14560W        W82965  35.674  33.140  10.717
14561W        W82966   0.280  28.221   3.370
14562W        W82967  34.829   8.146   1.378
14563W        W82968  44.633   8.371   2.877
14564W        W82969  35.393   4.742   2.740
14565W        W82970   6.149   7.116  12.053
14566W        W82971  44.939  19.335   4.066
14567W        W82972  41.872  42.570   0.825
14568W        W82973   8.880  10.811  11.721
14569W        W82974  30.931  19.639   3.761
14570W        W82975   0.080  19.783  11.649
14571W        W82976  27.482  35.525   2.388
14572W        W82977   1.664  27.480  11.202
14573W        W82978  12.424  33.657   3.931
14574W        W82979  11.917   9.837   2.423
14575W        W82980  19.062   0.728  12.100
14576W        W82981  40.356  18.501   3.369
14577W        W82982  19.795   2.049   1.427
14578W        W82983   0.644  29.664   5.013
14579W        W82984  31.162  22.780  12.084
14580W        W82985  33.722  43.000   2.646
14581W        W82986  20.979  31.589  13.043
14582W        W82987  36.566  24.616   0.758
14583W        W82988   9.223  14.708   1.868
14584W        W82989  25.406  38.531   4.643
14585W        W82990  39.182  34.694  11.817
14586W        W82991  34.118  24.450   3.799
14587W        W82992   7.159  44.446   1.163
14588W        W82993  35.865  38.893  12.982
14589W        W82994  10.357  18.633  11.666
14590W        W82995  12.999  16.441   2.523
14591W        W82996  28.866  44.944  12.977
14592W        W82997  42.307  42.885   2.801
14593W        W82998  32.540  33.956  11.423
14594W        W82999  41.927  13.568  11.050
14595W        W83000  13.639  28.916   0.898
14596W        W83001   4.490  38.620   1.787
14597W        W83002  28.611  22.512   0.398
14598W        W83003  39.762   0.786   3.267
14599W        W83004  41.120  17.566   4.406
14600W        W83005  22.163  42.039   4.167
14601W        W83006  44.765  36.580   0.801
14602W        W83007  14.859   8.868   0.924
14603W        W83008  19.186  15.675   2.338
14604W        W83009   4.938  40.033  12.504
14605W        W83010   3.520  41.607  12.930
14606W        W83011   4.288   6.840  11.105
14607W        W83012  12.682  22.551   1.421
14608W        W83013   4.456  30.397   4.407
14609W        W83014  32.440   3.966  14.354
14610W        W83015  15.078  24.492   1.929
14611W        W83016  10.716  27.910  11.075
14612W        W83017  19.400  26.173   3.743
14613W        W83018  39.478  29.930   1.222
14614W        W83019  35.566   5.077  14.832
14615W        W83020  34.064  40.416  12.524
14616W        W83021  20.223  26.600   4.682
14617W        W83022   8.891  30.071   3.047
14618W        W83023   6.764  30.442   1.248
14619W        W83024  43.832   7.658   3.654
14620W        W83025  37.809  26.066  13.442
14621W        W83026  35.640  39.546   3.160
14622W        W83027  19.768   9.183   4.484
14623W        W83028  13.554  16.144  11.017
14624W        W83029  13.357  32.648   5.418
14625W        W83030   4.063   3.406  12.001
14626W        W83031  28.942  17.606  14.293
14627W        W83032   1.245  33.106   0.866
14628W        W83033  36.588  22.614  12.172
14629W        W83034   9.842  24.684   2.890
14630W        W83035  18.220   9.882   0.537
14631W        W83036   8.362   9.733   3.721
14632W        W83037  39.312  30.497  12.987
14633W        W83038  28.966   8.981   2.280
14634W        W83039   8.355  22.617  14.858
14635W        W83040  10.897   7.412   2.670
14636W        W83041   8.495  28.199   2.740
14637W        W83042  26.844  16.245   3.073
14638W        W83043  39.854  32.817   1.713
14639W        W83044  31.380  26.076  14.268
14640W        W83045  12.757  20.101  12.940
14641W        W83046  33.139  39.851   3.943
14642W        W83047  43.609  38.093   2.475
14643W        W83048  18.330  43.748   1.223
14644W        W83049  13.124   7.557  12.618
14645W        W83050  25.930  30.873  11.123
14646W        W83051  36.145   0.977  13.320
14647W        W83052  12.861   5.564  14.660
14648W        W83053   0.881   6.360   0.406
14649W        W83054  18.635  11.061   5.027
14650W        W83055  26.537   7.750  11.115
14651W        W83056  11.085  29.868   0.401
14652W        W83057  29.420  23.715  13.850
14653W        W83058  28.691   1.945   4.244
14654W        W83059  16.330  31.772   5.119
14655W        W83060  16.796  37.809  14.050
14656W        W83061   9.647   5.192   2.940
14657W        W83062   0.347  44.305  11.190
14658W        W83063   4.484   4.872  12.163
14659W        W83064  38.558   0.913  14.511
14660W        W83065  25.974  38.014   0.272
14661W        W83066  22.695  42.447   2.261
14662W        W83067   0.424  13.164   2.388
14663W        W83068  13.187  10.754  12.469
14664W        W83069   5.475   6.685  11.786
14665W        W83070   7.905  29.016  13.902
14666W        W83071  25.701  23.619   1.950
14667W        W83072  35.028  17.850   1.393
14668W        W83073   3.269  17.060  12.900
14669W        W83074  32.095  35.821  14.073
14670W        W83075  21.365  33.047   3.299
14671W        W83076   4.287  12.857  14.902
14672W        W83077  10.661  24.960   4.696
14673W        W83078  18.369   0.278   1.824
14674W        W83079  11.404  11.351  12.442
14675W        W83080  25.984  27.122  13.517
14676W        W83081  38.441  22.791  11.256
14677W        W83082   8.493  42.972   1.025
14678W        W83083  24.000  15.726  13.143
14679W        W83084  43.474   7.270  14.202
14680W        W83085  17.243  29.468   3.157
14681W        W83086  42.553  39.588  11.339
14682W        W83087  13.836  10.249   2.315
14683W        W83088  37.938   8.206  10.766
14684W        W83089  13.457  42.785  10.007
14685W        W83090   8.921  11.808   4.677
14686W        W83091   0.550   8.572   1.269
14687W        W83092  16.660  38.351  13.956
14688W        W83093  22.068  20.143   4.661
14689W        W83094   2.932   9.156   2.808
14690W        W83095  33.338  31.995  13.384
14691W        W83096  39.710  35.556   1.405
14692W        W83097  40.529  44.980   4.127
14693W        W83098   3.327  25.617   4.849
14694W        W83099   5.203   4.456  11.043
14695W        W83100  18.695  35.991  13.658
14696W        W83101   5.359  13.065   2.651
14697W        W83102  13.579   5.753   2.262
14698W        W83103  30.023  41.717   1.576
14699W        W83104  30.627  27.098  14.003
14700W        W83105  24.518   6.730   0.422
14701W        W83106  31.021   3.799   3.675
14702W        W83107  27.678   7.412  14.374
14703W        W83108  25.949  11.998   0.215
14704W        W83109  44.414  26.467   1.155
14705W        W83110   3.743  17.701  11.664
14706W        W83111  29.217   3.191   3.682
14707W        W83112  32.688  24.073   3.724
14708W        W83113  24.299   5.727  11.639
14709W        W83114  29.635   7.248  11.829
14710W        W83115  24.096  27.510  10.604
14711W        W83116  19.705  19.341   2.720
14712W        W83117  27.436  28.063  10.515
14713W        W83118   8.272  31.608   1.145
14714W        W83119  27.745  18.272  13.355
14715W        W83120  10.307   6.333  12.800
14716W        W83121  16.684  38.876   1.465
14717W        W83122  28.613  38.609   0.278
14718W        W83123  42.822   0.206   2.756
14719W        W83124  27.901  19.357   4.141
14720W        W83125  11.144   3.831  11.527
14721W        W83126  12.304   4.750  14.901
14722W        W83127  17.065  44.728   0.273
14723W        W83128   2.036  44.284   2.312
14724W        W83129  19.971   7.329   4.990
14725W        W83130  20.318   0.862   4.105
14726W        W83131  11.478   9.164  12.005
14727W        W83132  36.921  39.766  11.509
14728W        W83133   0.654  34.123   3.333
14729W        W83134   2.957  18.211   2.635
14730W        W83135   6.364  37.273   9.711
14731W        W83136  19.161  44.386  12.579
14732W        W83137   3.837  35.520   2.869
14733W        W83138  32.954  13.627  12.841
14734W        W83139  19.378   3.862   2.359
14735W        W83140   7.697   5.352  13.336
14736W        W83141  39.054  29.012  14.231
14737W        W83142  43.990  19.211  13.116
14738W        W83143  23.567  19.297   3.581
14739W        W83144  24.201   8.740  12.981
14740W        W83145  30.606  43.617  12.990
14741W        W83146  29.741  23.659   1.088
14742W        W83147  31.479  12.586   3.575
14743W        W83148  26.398  10.286  13.119
14744W        W83149  27.440  27.953  12.906
14745W        W83150  41.175  41.482   2.724
14746W        W83151  41.491  23.626  13.466
14747W        W83152  19.851   2.500   3.665
14748W        W83153  36.976   2.388  10.138
14749W        W83154  37.587  31.685  12.636
14750W        W83155  41.387  32.041   4.557
14751W        W83156  22.194  32.690  14.938
14752W        W83157   0.123  14.813   4.869
14753W        W83158  24.332  44.322   2.251
14754W        W83159  37.905  38.902   2.122
14755W        W83160  41.246  16.144  11.410
14756W        W83161  37.337  17.381   2.307
14757W        W83162  24.923   3.338   2.379
14758W        W83163  19.097  33.694  13.438
14759W        W83164  11.737  35.000   3.392
14760W        W83165  20.346  34.957  11.575
14761W        W83166   5.244  24.426  14.435
14762W        W83167  37.624  38.278  14.334
14763W        W83168   9.492  44.366   0.894
14764W        W83169  43.882   3.214  11.063
14765W        W83170  26.160  12.570   2.324
14766W        W83171   1.254  29.412   3.248
14767W        W83172  13.221  33.706   5.355
14768W        W83173  39.314  28.764   3.667
14769W        W83174  17.289  33.068  13.375
14770W        W83175  36.951   4.525  13.556
14771W        W83176  17.642  35.217  12.843
14772W        W83177  43.339   8.334  14.329
14773W        W83178   1.281  34.321  14.871
14774W        W83179  17.202  42.167  12.596
14775W        W83180  26.571  10.688   3.239
14776W        W83181  13.854  44.123  11.919
14777W        W83182  13.387  26.014  12.638
14778W        W83183  39.961   2.784   0.464
14779W        W83184  38.520  10.818   2.943
14780W        W83185  37.120  26.068  14.534
14781W        W83186  42.283  38.463   2.703
14782W        W83187   6.766  36.823   0.877
14783W        W83188  32.090  40.840   3.292
14784W        W83189   7.836  30.027   3.219
14785W        W83190  31.937  39.226   3.580
14786W        W83191  11.316  31.118   2.256
14787W        W83192  30.143  19.317   4.588
14788W        W83193  36.900  30.117   4.248
14789W        W83194   4.891  10.634   0.888
14790W        W83195  29.627  37.289   2.278
14791W        W83196  24.789   7.945  13.978
14792W        W83197   7.948   2.445   0.863
14793W        W83198  16.916  18.466  14.827
14794W        W83199  28.033  14.592   4.721
14795W        W83200  12.098  29.902   0.422
14796W        W83201  12.864  11.566   0.403
14797W        W83202  19.848  19.206   4.093
14798W        W83203   5.096  20.562   3.745
14799W        W83204  44.856  44.155  10.338
14800W        W83205  43.702  33.645   0.448
14801W        W83206  28.404  18.147   0.906
14802W        W83207  32.574  42.285   3.223
14803W        W83208  43.644   2.911  14.367
14804W        W83209  17.794  35.864   2.327
14805W        W83210  37.441  31.213   4.615
14806W        W83211  10.876   8.230   4.109
14807W        W83212  39.177  39.833  14.203
14808W        W83213  19.726  28.846  13.348
14809W        W83214   7.636  27.938   1.131
14810W        W83215  19.038  43.920  10.924
14811W        W83216  28.020   0.017  14.931
14812W        W83217   4.110   8.901  12.740
14813W        W83218  31.161  20.590   1.335
14814W        W83219  33.390  44.923  11.209
14815W        W83220   7.426  12.829  12.878
14816W        W83221  27.467   2.380   0.031
14817W        W83222   1.887  13.756  10.653
14818W        W83223  34.023   0.558   1.708
14819W        W83224   1.893  18.540   1.436
14820W        W83225  38.751  12.205   1.840
14821W        W83226   4.205  30.505  10.912
14822W        W83227  11.881  27.551   2.287
14823W        W83228   5.808  14.388  13.755
14824W        W83229  12.831  42.785   5.028
14825W        W83230   4.420   8.173  12.598
14826W        W83231   3.737  17.357   3.742
14827W        W83232  41.961  35.047   4.838
14828W        W83233  24.320   2.321  13.941
14829W        W83234  23.204  22.137  14.304
14830W        W83235  31.890  31.416  11.509
14831W        W83236   6.448  20.584  14.539
14832W        W83237  14.491  19.651  14.131
14833W        W83238   6.368  31.227  12.624
14834W        W83239  16.374  35.884  12.012
14835W        W83240  26.291  29.300  10.755
14836W        W83241   9.147   6.262   5.032
14837W        W83242  41.048  20.506  13.429
14838W        W83243  40.972  29.506  10.555
14839W        W83244  26.596  32.558   1.353
14840W        W83245  14.981  34.136   4.031
14841W        W83246   2.384   4.016  12.970
14842W        W83247   9.387  29.439   4.484
14843W        W83248  42.766  29.867  11.985
14844W        W83249  39.906  26.177  12.801
14845W        W83250  42.748   7.454   0.936
14846W        W83251  26.238  18.147  13.290
14847W        W83252   5.185  30.578  13.472
14848W        W83253  39.095  32.146  12.062
14849W        W83254   9.317  28.465  14.727
14850W        W83255  36.466  20.241  11.266
14851W        W83256  10.480  36.320  11.113
14852W        W83257  19.591  21.138  13.472
14853W        W83258   0.785  43.824   0.718
14854W        W83259   6.263  42.008  14.318
14855W        W83260   0.248  40.006  14.116
14856W        W83261  32.199   6.770   4.435
14857W        W83262   0.772   4.037  13.483
14858W        W83263   2.327   0.117   3.147
14859W        W83264  42.945  12.003   0.792
14860W        W83265  11.187  16.787  14.064
14861W        W83266  19.273  31.197   0.223
14862W        W83267  39.444  42.734   4.418
14863W        W83268  32.443   5.456  12.705
14864W        W83269  44.343  38.396  11.528
14865W        W83270  10.039   6.353   1.160
14866W        W83271  35.807   7.118   4.079
14867W        W83272  28.614   4.808   3.348
14868W        W83273  27.914  25.632   1.326
14869W        W83274  28.391  31.002   1.566
14870W        W83275  15.508  22.757   4.109
14871W        W83276   1.878  19.717   0.675
14872W        W83277  15.120  12.737   1.336
14873W        W83278  27.917  14.590  11.605
14874W        W83279  13.312  13.829   4.604
14875W        W83280  27.412  34.948   3.048
14876W        W83281  14.209  41.831   4.694
14877W        W83282  32.361  19.094  11.996
14878W        W83283  25.658  22.583   3.706
14879W        W83284  31.506  26.757  10.037
14880W        W83285  27.916  35.801  14.336
14881W        W83286  42.737  42.336   2.213
14882W        W83287  33.806  39.535  10.734
14883W        W83288   0.268  22.142  14.502
14884W        W83289  23.781  16.896  12.392
14885W        W83290  36.028  33.392  12.179
14886W        W83291  33.855  41.382  14.070
14887W        W83292  38.853  44.844   2.733
14888W        W83293  30.589  18.262   2.186
14889W        W83294  16.391  12.631  11.494
14890W        W83295  34.446  22.218  14.212
14891W        W83296  35.745  19.231  10.503
14892W        W83297  11.267  14.280  13.983
14893W        W83298  32.380  28.993   3.564
14894W        W83299  22.092   8.906  12.436
14895W        W83300  19.544  32.607  13.954
14896W        W83301  37.300   4.912   4.562
14897W        W83302  34.921  38.735   0.102
14898W        W83303  28.892  26.664  14.424
14899W        W83304  43.441  35.838   4.256
14900W        W83305   7.204  23.512   1.436
14901W        W83306  23.501   0.425   4.492
14902W        W83307   7.739  39.644   3.775
14903W        W83308  13.339   6.685  13.450
14904W        W83309  11.197  18.041   3.828
14905W        W83310   3.421  27.000  10.825
14906W        W83311   4.950  29.892  12.820
14907W        W83312  35.082   7.749   2.739
14908W        W83313   2.481  25.045   2.805
14909W        W83314   9.199  34.357  11.014
14910W        W83315  15.770  23.951  10.985
14911W        W83316  17.496  11.909  13.538
14912W        W83317  38.013  28.931   2.384
14913W        W83318  35.796  23.089   0.006
14914W        W83319  39.587  30.877   1.445
14915W        W83320  12.173  42.687   0.632
14916W        W83321  36.487  28.931   1.630
14917W        W83322  36.563  32.490   0.955
14918W        W83323  21.073   9.628   3.733
14919W        W83324  14.799  38.902   2.714
14920W        W83325  10.931  18.407   1.170
14921W        W83326  19.498  38.473   1.579
14922W        W83327  20.179  43.336   2.541
14923W        W83328  41.401   5.030   1.500
14924W        W83329  13.783  32.830  13.808
14925W        W83330  25.933  42.472   0.307
14926W        W83331  37.382   7.911   2.818
14927W        W83332  31.422  44.479   3.188
14928W        W83333  26.139  23.938  11.503
14929W        W83334  42.895  27.611  11.718
14930W        W83335  42.026  12.486   0.585
14931W        W83336  17.043  26.675  11.188
14932W        W83337  37.992  14.353   0.377
14933W        W83338  32.512  20.614   1.432
14934W        W83339   9.255  41.005  13.090
14935W        W83340   0.372   0.015   0.319
14936W        W83341  20.162  39.722  12.496
14937W        W83342  26.246  23.466   1.821
14938W        W83343  41.501  41.568   3.636
14939W        W83344  33.930   8.150  11.025
14940W        W83345  16.341  42.267   2.749
14941W        W83346  23.312   7.859   3.712
14942W        W83347  32.865   3.687   3.851
14943W        W83348  39.729  20.991  13.927
14944W        W83349  12.271  25.769   3.222
14945W        W83350   4.846  11.347   3.261
14946W        W83351   1.417  36.603  11.422
14947W        W83352  17.161  16.777   2.673
14948W        W83353  40.578  41.952  13.563
14949W        W83354  26.019  17.703  10.321
14950W        W83355  13.203  35.956   3.166
14951W        W83356  31.973  34.900  11.050
14952W        W83357  43.869   0.101  10.423
14953W        W83358  37.040  44.021   4.758
14954W        W83359   1.970  29.492   4.890
14955W        W83360  35.095  14.001  13.983
14956W        W83361  31.087  13.184   4.922
14957W        W83362  11.290  24.481   2.039
14958W        W83363  42.807   1.419  14.938
14959W        W83364  18.649  32.661   3.284
14960W        W83365  29.554   2.870  12.624
14961W        W83366   7.668  41.056  10.718
14962W        W83367  32.107  38.431  12.091
14963W        W83368  28.934  32.886  14.576
14964W        W83369  19.707   9.464   4.046
14965W        W83370  23.517   8.961   2.652
14966W        W83371  16.111   6.495  13.128
14967W        W83372   7.390  29.046  11.513
14968W        W83373   3.937  26.798   0.471
14969W        W83374  33.429  29.299   4.619
14970W        W83375  35.975  21.674   2.323
14971W        W83376  41.896  10.969  13.917
14972W        W83377  28.185   8.819   3.865
14973W        W83378  43.232   9.123   2.326
14974W        W83379  23.557  15.769   2.720
14975W        W83380   9.714   6.114  11.675
14976W        W83381  40.038  28.971  11.295
14977W        W83382  21.003  20.011  12.526
14978W        W83383  37.699  11.563  13.022
14979W        W83384  15.706   1.245  12.017
14980W        W83385  38.416  19.188  12.405
14981W        W83386   1.928   8.437   2.224
14982W        W83387  32.101  31.500   0.213
14983W        W83388  21.147  30.351   2.198
14984W        W83389  11.776  44.150  13.580
14985W        W83390  39.108  40.519   0.405
14986W        W83391  41.075   2.668   3.184
14987W        W83392  13.916   6.479   4.152
14988W        W83393  28.514  34.958  12.167
14989W        W83394  30.683  23.827  10.652
14990W        W83395   6.653   1.810   3.150
14991W        W83396  22.884  11.194   3.679
14992W        W83397  15.145  32.944  13.518
14993W        W83398  35.531   9.828  14.715
14994W        W83399  31.128   4.613  11.840
14995W        W83400  23.715   1.832  12.015
14996W        W83401  22.976  17.180   4.578
14997W        W83402  13.345  14.165  10.469
14998W        W83403  25.271  23.553  14.942
14999W        W83404  22.533  17.122   3.815
15000W        W83405  25.716  20.620  11.479
15001W        W83406  36.305  33.861   3.356
15002W        W83407  11.775  32.443   1.902
15003W        W83408   6.456  36.486   2.077
15004W        W83409  13.758  16.849  14.802
15005W        W83410  38.531   5.866   4.984
15006W        W83411  32.788  13.683   2.945
15007W        W83412  33.635  17.687   4.732
15008W        W83413  26.139   3.588  12.942
15009W        W83414  25.880  34.824  12.468
15010W        W83415  36.978  29.132  13.033
15011W        W83416  35.371   5.086  13.814
15012W        W83417  25.499  35.041  14.758
15013W        W83418  43.438   5.456   0.050
15014W        W83419  41.590  10.880  14.332
15015W        W83420  16.190   2.955   2.204
15016W        W83421   7.935   6.196  13.141
15017W        W83422  40.386  36.861   3.133
15018W        W83423  37.543  44.551   3.159
15019W        W83424  20.971   3.723  13.555
15020W        W83425  29.839   7.131  14.031
15021W        W83426  37.904  42.837   0.418
15022W        W83427  37.511   3.633   0.093
15023W        W83428  42.375  23.074   2.381
15024W        W83429  41.239  34.137   3.356
15025W        W83430   6.126  22.795  11.091
15026W        W83431   1.504  16.789   2.823
15027W        W83432  10.246  30.292  14.396
15028W        W83433  34.831  32.339   4.218
15029W        W83434  39.692  26.630   0.877
15030W        W83435  25.405   1.329  14.544
15031W        W83436   6.336  18.908  13.817
15032W        W83437  38.860  41.533   4.092
15033W        W83438  42.726  31.582   3.674
15034W        W83439  20.732   2.709   2.401
15035W        W83440  44.237   2.555   0.030
15036W        W83441  16.025  35.316  13.902
15037W        W83442  39.730   4.650   1.265
15038W        W83443  14.485  24.643   2.774
15039W        W83444  32.827  30.737  12.906
15040W        W83445  13.655  38.770  12.140
15041W        W83446  32.897   9.378   2.701
15042W        W83447  21.281  35.422   3.740
15043W        W83448  31.567  30.868   0.820
15044W        W83449   9.744  28.035  14.004
15045W        W83450  41.397  13.619  13.991
15046W        W83451   8.590  21.052  10.975
15047W        W83452   0.748  16.118  12.442
15048W        W83453  34.607   9.831  12.350
15049W        W83454  34.613  28.068  14.816
15050W        W83455  31.641  33.463   0.060
15051W        W83456  15.702  28.043   0.884
15052W        W83457  20.059  20.825   3.417
15053W        W83458  40.850   0.123  12.545
15054W        W83459  21.757   6.268   3.304
15055W        W83460   2.852  29.395  12.096
15056W        W83461   1.007  25.967   1.747
15057W        W83462  40.792  25.154  12.811
15058W        W83463  43.711  11.438  11.996
15059W        W83464  18.539  27.781   0.769
15060W        W83465  10.716   7.913  10.674
15061W        W83466  36.017   5.217  10.978
15062W        W83467  28.946  32.857  12.512
15063W        W83468   7.892  21.460  10.735
15064W        W83469  22.556   1.449  11.198
15065W        W83470  28.911   8.810   2.761
15066W        W83471  19.921  26.266  14.306
15067W        W83472  20.991   9.086  10.756
15068W        W83473  30.001  14.699  11.271
15069W        W83474  33.352  18.101   2.757
15070W        W83475  41.538  16.638  12.055
15071W        W83476  37.104  33.098  14.815
15072W        W83477  23.890   0.670  10.704
15073W        W83478  32.206  22.128   0.023
15074W        W83479  16.806  26.246  11.002
15075W        W83480  26.289  22.518  11.108
15076W        W83481  10.821  21.050  11.034
15077W        W83482   5.649  27.520   4.097
15078W        W83483  21.470  10.815   1.862
15079W        W83484  24.472  31.429  10.715
15080W        W83485  15.043   4.785  13.049
15081W        W83486  23.984  31.606   0.395
15082W        W83487  14.107   8.921  11.641
15083W        W83488   9.309  34.489  13.373
15084W        W83489  39.630   1.359  10.733
15085W        W83490   7.903  22.803  13.952
15086W        W83491  33.045  26.495   0.831
15087W        W83492   5.347  20.786  10.559
15088W        W83493  23.558  10.750   2.706
15089W        W83494  40.414   0.019  12.806
15090W        W83495  37.339   7.901  12.380
15091W        W83496  38.888   7.373   3.302
15092W        W83497  22.082  40.352  11.488
15093W        W83498  23.288   2.604   0.312
15094W        W83499  44.898   9.688  12.144
15095W        W83500   1.168  19.712  14.887
15096W        W83501   4.292   3.659  10.643
15097W        W83502   9.234   9.430   2.508
15098W        W83503  37.335   1.889  12.129
15099W        W83504  10.260   7.201   4.325
15100W        W83505   9.868   3.568  12.410
15101W        W83506  33.912  42.206  11.133
15102W        W83507  12.634   6.584   2.841
15103W        W83508   8.229  38.100   4.131
15104W        W83509  37.983  31.905   3.848
15105W        W83510  23.233  27.907   1.356
15106W        W83511   0.605  19.073  13.884
15107W        W83512   2.576  35.801   1.443
15108W        W83513  16.849  38.494   1.159
15109W        W83514   8.605  20.424   4.567
15110W        W83515  35.551  12.810   0.355
15111W        W83516  30.075   3.312  13.529
15112W        W83517  26.057   3.469   1.395
15113W        W83518  16.886  44.587  12.401
15114W        W83519  11.862  35.596   4.132
15115W        W83520   3.865  38.312   2.559
15116W        W83521  25.680  27.727  11.692
15117W        W83522  12.056  11.549   3.698
15118W        W83523  30.122  40.380   3.744
15119W        W83524  14.744  27.953   3.045
15120W        W83525  23.478  20.608   2.381
15121W        W83526  43.769  12.327  11.629
15122W        W83527  28.893  37.678  12.308
15123W        W83528  21.673  34.986  13.914
15124W        W83529  33.902  31.783  11.563
15125W        W83530  19.182  17.042  11.863
15126W        W83531   3.939  15.002  11.548
15127W        W83532  33.580  23.038  11.401
15128W        W83533  15.080  35.592   5.025
15129W        W83534  26.032  31.085   0.423
15130W        W83535  30.109  29.556   4.176
15131W        W83536  39.825  18.042  13.948
15132W        W83537   8.877  16.356   0.014
15133W        W83538  11.907  35.066  11.195
15134W        W83539  14.579  17.170  14.437
15135W        W83540  19.755  41.681   1.373
15136W        W83541   8.814  32.472  14.022
15137W        W83542  37.024  32.494   1.185
15138W        W83543  22.558  39.077   3.190
15139W        W83544   5.848  40.088   1.303
15140W        W83545  28.911  26.432   4.195
15141W        W83546  24.113   2.454   1.781
15142W        W83547  35.472  41.971   2.979
15143W        W83548  33.021  40.214  13.499
15144W        W83549  38.491  32.938   1.824
15145W        W83550   8.646  30.101  14.960
15146W        W83551  18.271  22.498   1.803
15147W        W83552  13.727  13.946   1.822
15148W        W83553  12.876  21.752   4.541
15149W        W83554  25.155  21.159   4.178
15150W        W83555  34.001  39.937  12.811
15151W        W83556  38.829  39.463  12.055
15152W        W83557  39.962   0.715   1.692
15153W        W83558  24.614  22.476  13.592
15154W        W83559  41.483  21.237   3.268
15155W        W83560  13.427  13.707   2.193
15156W        W83561   5.934  26.728  12.295
15157W        W83562   9.410  36.057  13.590
15158W        W83563  15.541  24.502   0.147
15159W        W83564   7.477  19.026   2.764
15160W        W83565  11.789  33.117  12.528
15161W        W83566   2.254  32.454   3.728
15162W        W83567  40.412  13.657  14.670
15163W        W83568  37.664  30.197  13.768
15164W        W83569  41.871  15.872  14.774
15165W        W83570  42.050  24.928   0.385
15166W        W83571  13.060   7.096  13.334
15167W        W83572  30.907  42.652   3.627
15168W        W83573  24.916  44.008   4.662
15169W        W83574   1.258   0.085   2.224
15170W        W83575  12.205  29.706  11.003
15171W        W83576   8.270  22.202  12.302
15172W        W83577   6.725   8.966   3.329
15173W        W83578  25.617  19.059  12.431
15174W        W83579  13.674  43.279  11.980
15175W        W83580  38.694  12.642   0.336
15176W        W83581   4.106  28.539  11.838
15177W        W83582   9.694  22.594  14.536
15178W        W83583   1.768  21.676  13.702
15179W        W83584   0.357  44.356   4.505
15180W        W83585  12.363  11.378  11.645
15181W        W83586   3.024   2.355  12.602
15182W        W83587   8.385  12.939  12.097
15183W        W83588  14.350  38.593   2.815
15184W        W83589   8.890  34.623  12.177
15185W        W83590  33.978   8.142   0.006
15186W        W83591  18.756   9.654   1.305
15187W        W83592  10.287  41.393  11.591
15188W        W83593   8.471  37.292  11.408
15189W        W83594  22.924   2.873  13.942
15190W        W83595   0.823  28.973   2.350
15191W        W83596  14.205  44.362  10.236
15192W        W83597  12.883  40.523   3.072
15193W        W83598  44.641  43.885   3.796
15194W        W83599  33.727  40.043  10.812
15195W        W83600  12.600  33.573   0.240
15196W        W83601  25.448  21.746  13.863
15197W        W83602  23.935  26.608  14.778
15198W        W83603   0.512   2.394  11.234
15199W        W83604  14.631  44.933   1.354
15200W        W83605  25.260  39.172  14.863
15201W        W83606  25.939  42.416  13.235
15202W        W83607  29.115  23.069   1.382
15203W        W83608  30.476   7.684  13.471
15204W        W83609  36.403  19.697   3.360
15205W        W83610  31.506  35.011  10.870
15206W        W83611   9.086  28.652  12.906
15207W        W83612  39.696  41.238   1.874
15208W        W83613  24.987  21.620   4.435
15209W        W83614  11.627   6.343  14.461
15210W        W83615   3.771  22.725  12.718
15211W        W83616  20.223  27.944  10.616
15212W        W83617  38.652  24.947   4.962
15213W        W83618  19.648  19.171  12.610
15214W        W83619  10.407  43.072   4.245
15215W        W83620   4.178  27.960  14.957
15216W        W83621  22.929  32.197   1.234
15217W        W83622  12.876   2.730   2.651
15218W        W83623  13.235  21.459   0.356
15219W        W83624   7.763  21.852   1.555
15220W        W83625  13.755  37.125  14.454
15221W        W83626  36.897  18.826   1.376
15222W        W83627  34.697   2.142  12.994
15223W        W83628  34.049   0.027  10.611
15224W        W83629  37.032  16.610  10.259
15225W        W83630  27.697  26.260  11.976
15226W        W83631  18.139  11.770   0.445
15227W        W83632  18.298  10.355  13.386
15228W        W83633  37.877  41.815   4.745
15229W        W83634  17.643  25.681   0.651
15230W        W83635  40.418  34.343   3.667
15231W        W83636   0.955  39.017   1.805
15232W        W83637  32.468  16.753   3.756
15233W        W83638  41.834   9.115  13.171
15234W        W83639  25.626   3.374  10.944
15235W        W83640  44.297  34.375  13.426
15236W        W83641  24.631  21.211   4.006
15237W        W83642  11.421  17.521  11.947
15238W        W83643  41.706   8.305  14.324
15239W        W83644  21.139  13.174  11.123
15240W        W83645  18.200  33.167   3.553
15241W        W83646   4.938   8.336   0.877
15242W        W83647  15.125  12.681   1.873
15243W        W83648  37.353  30.135   4.574
15244W        W83649   0.159   1.937  12.893
15245W        W83650   8.486  34.063   0.869
15246W        W83651  24.619  40.204  10.255
15247W        W83652  16.215  27.433  13.406
15248W        W83653  21.350   7.293   1.247
15249W        W83654  28.692  24.444  14.301
15250W        W83655   3.926  14.930   2.640
15251W        W83656  29.227  23.537   4.139
15252W        W83657  41.904   9.678   3.839
15253W        W83658  28.198  27.749   3.601
15254W        W83659  44.034  33.789  13.635
15255W        W83660  37.668  33.686  14.718
15256W        W83661  18.769  36.481   4.539
15257W        W83662  43.443  19.759   4.538
15258W        W83663   8.427  36.083   2.470
15259W        W83664  18.656  43.441  14.379
15260W        W83665   4.320  14.593   2.488
15261W        W83666  34.849  24.182  12.006
15262W        W83667   3.866  40.224  10.464
15263W        W83668  31.962  41.618  12.298
15264W        W83669  28.323  26.513  13.468
15265W        W83670  44.495   2.983  11.624
15266W        W83671  29.547  20.163   2.808
15267W        W83672  11.142  16.665   2.700
15268W        W83673   1.249  35.441   0.264
15269W        W83674  34.532  23.262   3.541
15270W        W83675   8.786   6.215  13.105
15271W        W83676  13.888  31.883   1.860
15272W        W83677  15.631   4.070  14.517
15273W        W83678  13.548  25.600  11.947
15274W        W83679  43.817   3.763   4.167
15275W        W83680  29.120  35.363  11.046
15276W        W83681   6.154  11.517   4.456
15277W        W83682  30.050  26.590   4.522
15278W        W83683  15.539  23.504  10.684
15279W        W83684  43.034  18.796   2.312
15280W        W83685  44.428  17.371  10.520
15281W        W83686  20.696  14.902  12.397
15282W        W83687  30.837  36.873  11.506
15283W        W83688  38.971  32.902   0.867
15284W        W83689  30.902  22.426  11.242
15285W        W83690  41.284  32.656   1.403
15286W        W83691  23.647  24.969  13.731
15287W        W83692  41.243   2.384   0.498
15288W        W83693  30.970  31.160   1.940
15289W        W83694  25.375  42.076   2.327
15290W        W83695   4.946  40.346   2.926
15291W        W83696   0.042  37.922   0.940
15292W        W83697  11.682   2.957  13.673
15293W        W83698   3.685  40.341   3.764
15294W        W83699  15.488  29.622   4.349
15295W        W83700  33.103  10.604  12.095
15296W        W83701  13.222  38.541  12.300
15297W        W83702  24.967  16.072   2.894
15298W        W83703  44.278   5.990   3.876
15299W        W83704  33.523  16.248   2.715
15300W        W83705   9.828  29.608   1.631
15301W        W83706  30.451  10.656   4.559
15302W        W83707   3.443  24.538   1.707
15303W        W83708  16.005  22.063  14.763
15304W        W83709   8.292  24.720  13.832
15305W        W83710   2.805  10.717   1.125
15306W        W83711  12.803   2.875  11.526
15307W        W83712  12.793   2.015   0.371
15308W        W83713  43.918  29.618   4.462
15309W        W83714  14.808  41.784   0.831
15310W        W83715  44.737  29.652  13.997
15311W        W83716  25.358  40.335   2.632
15312W        W83717  17.796  16.839   0.226
15313W        W83718  27.616  18.501   4.276
15314W        W83719  19.655  40.726  13.335
15315W        W83720  37.605  27.597   3.582
15316W        W83721  20.231  22.053   2.882
15317W        W83722  24.029  28.358   3.765
15318W        W83723  29.625  28.515  14.342
15319W        W83724   7.639   7.159  14.715
15320W        W83725  39.345  20.951   3.566
15321W        W83726  39.426   6.732  11.808
15322W        W83727  44.778   2.979   4.649
15323W        W83728  32.956  18.228  10.723
15324W        W83729   3.195   4.496  11.845
15325W        W83730   4.868  23.769   1.469
15326W        W83731  10.454  31.537   2.614
15327W        W83732   6.574  24.009   0.829
15328W        W83733  42.340  43.270   2.446
15329W        W83734  16.982   0.220   1.026
15330W        W83735  26.825   1.972  11.638
15331W        W83736  24.974  32.584   4.663
15332W        W83737  33.196  29.395  11.070
15333W        W83738  41.983  14.752  11.552
15334W        W83739  34.677  32.022   3.578
15335W        W83740  35.944  28.463   1.735
15336W        W83741  18.274  25.864  13.840
15337W        W83742   0.208  36.912   3.524
15338W        W83743  17.778  43.697   4.214
15339W        W83744  24.609  40.938   2.187
15340W        W83745   5.774  26.245  12.401
15341W        W83746  36.854  30.184   2.232
15342W        W83747  17.825  12.527   1.090
15343W        W83748  14.226  32.173  11.443
15344W        W83749  29.518  22.944  12.600
15345W        W83750  19.702   0.177  10.755
15346W        W83751   8.325  35.471  11.704
15347W        W83752  22.481  37.974   1.405
15348W        W83753   2.980  27.166   2.753
15349W        W83754  36.802  20.265   1.456
15350W        W83755  39.027   0.982   3.806
15351W        W83756  35.585  35.361  12.110
15352W        W83757   3.444  27.248  13.494
15353W        W83758  39.933  23.180   0.048
15354W        W83759   6.828  12.339  14.712
15355W        W83760  11.436  43.305  11.189
15356W        W83761  26.546  41.930  12.127
15357W        W83762   0.389  44.952  12.915
15358W        W83763  41.984   6.253   1.984
15359W        W83764  21.741  24.967  12.553
15360W        W83765  39.820  13.894   2.477
15361W        W83766  17.733  22.871  14.858
15362W        W83767  29.331  41.239   0.886
15363W        W83768  21.488  26.922   1.235
15364W        W83769  11.574   1.823   0.048
15365W        W83770  16.841   0.403   9.988
15366W        W83771  39.820  15.090   0.780
15367W        W83772  19.559  41.425  13.807
15368W        W83773  43.421   9.599  11.091
15369W        W83774  14.837   3.670  14.299
15370W        W83775  33.556  12.144  14.100
15371W        W83776  14.591  31.328   0.675
15372W        W83777  29.462  19.006   0.904
15373W        W83778  23.798  24.192  12.884
15374W        W83779  44.368  42.452   2.737
15375W        W83780  44.264   8.567  12.015
15376W        W83781  34.656  13.044  13.395
15377W        W83782   4.534  26.425   4.313
15378W        W83783   0.422   6.120   3.958
15379W        W83784   6.427  12.573   0.603
15380W        W83785   2.514  25.636   4.711
15381W        W83786  36.618   5.491   2.329
15382W        W83787  13.185  22.835   0.754
15383W        W83788  13.273  14.701  13.126
15384W        W83789   9.894  14.365   4.309
15385W        W83790  14.296   5.656   3.402
15386W        W83791  31.918  14.692   2.341
15387W        W83792  15.341  37.982  11.157
15388W        W83793  44.823   4.610  14.632
15389W        W83794  13.153   8.422  13.503
15390W        W83795  43.109  25.529   1.946
15391W        W83796   2.876  18.795   0.920
15392W        W83797  14.780   6.193  14.471
15393W        W83798  34.128  34.983  10.648
15394W        W83799  13.395   7.183  12.880
15395W        W83800  14.828  40.389   3.731
15396W        W83801  40.490  14.894   2.401
15397W        W83802   6.316  12.678   1.621
15398W        W83803  35.425  18.822   1.957
15399W        W83804  21.718  17.485   3.837
15400W        W83805  13.898   3.003   0.347
15401W        W83806   0.808   0.906   9.885
15402W        W83807   1.378  22.067  14.475
15403W        W83808   6.344  22.954   3.505
15404W        W83809  22.679  15.070  11.070
15405W        W83810  35.801  41.331   2.691
15406W        W83811  39.049  28.967   2.270
15407W        W83812  26.040   5.772   1.777
15408W        W83813  32.287  22.684  11.576
15409W        W83814  17.617  20.177   4.132
15410W        W83815   7.195   9.128   4.456
15411W        W83816  19.305  15.030  11.696
15412W        W83817  42.399   3.229   4.105
15413W        W83818  20.724  21.333   1.361
15414W        W83819  27.910  42.301   4.717
15415W        W83820  33.166  18.545   4.919
15416W        W83821  12.817  17.261   2.059
15417W        W83822  39.390   8.063  13.532
15418W        W83823  29.861  24.261   1.701
15419W        W83824  34.906   1.194   3.641
15420W        W83825   3.835  22.132   4.590
15421W        W83826  36.347  21.965  10.567
15422W        W83827  26.228  33.598  10.771
15423W        W83828   0.015  24.708   1.951
15424W        W83829  10.804  39.323   3.697
15425W        W83830  30.959   6.870  12.528
15426W        W83831  24.741  11.353   1.404
15427W        W83832  25.627  36.013   2.286
15428W        W83833   7.314  39.249  10.757
15429W        W83834  39.876  40.763   4.113
15430W        W83835  10.667  15.644   1.950
15431W        W83836  15.659  21.158  10.347
15432W        W83837  26.030  20.339   0.779
15433W        W83838  19.309  33.499  12.977
15434W        W83839  34.798   8.478   0.047
15435W        W83840   6.887  19.161  13.454
15436W        W83841  16.435   8.566  14.959
15437W        W83842  27.706   2.804  12.501
15438W        W83843  30.983  27.082  13.133
15439W        W83844  24.414  33.828  13.217
15440W        W83845  11.742  35.454  12.186
15441W        W83846  31.926  21.346   1.725
15442W        W83847  12.843  10.559   0.216
15443W        W83848  35.350   7.828  10.764
15444W        W83849   2.921  31.884   2.967
15445W        W83850  16.432  36.926   0.851
15446W        W83851  33.035  37.012  11.632
15447W        W83852  40.065   8.355  11.180
15448W        W83853  38.389   4.150   0.771
15449W        W83854  23.156  21.572   1.855
15450W        W83855  21.928  30.362  13.485
15451W        W83856  13.578  29.079  12.097
15452W        W83857   3.043  13.347  11.594
15453W        W83858  37.723   6.375   2.374
15454W        W83859  36.553  26.910  14.871
15455W        W83860  33.348  43.820  13.535
15456W        W83861  34.562  19.467  14.435
15457W        W83862  33.640  40.841   4.123
15458W        W83863  26.146  27.091  14.450
15459W        W83864  37.649  41.721   0.834
15460W        W83865  39.276  19.197   3.614
15461W        W83866  24.498   6.932   2.372
15462W        W83867  35.083  29.479  13.749
15463W        W83868  20.578  38.850   3.606
15464W        W83869   0.736   2.268  11.669
15465W        W83870   1.713  31.887   1.218
15466W        W83871   4.376  17.205   2.286
15467W        W83872  19.962  18.578  12.543
15468W        W83873  43.071  29.644   4.502
15469W        W83874   6.728  28.642   1.917
15470W        W83875  44.420  32.061   4.373
15471W        W83876  41.992   7.374  11.211
15472W        W83877  20.680  31.617   4.107
15473W        W83878  30.908  11.044  12.607
15474W        W83879   7.835   2.382   2.429
15475W        W83880  17.511  43.559   0.907
15476W        W83881  31.859   3.692   4.623
15477W        W83882   5.973  34.532  13.537
15478W        W83883   3.962  11.432   3.166
15479W        W83884  12.422  26.097   1.867
15480W        W83885  21.958  23.897  11.961
15481W        W83886   2.267  31.835  13.245
15482W        W83887  26.871  10.376   4.130
15483W        W83888  24.584  15.065   0.301
15484W        W83889  27.172   0.713   3.225
15485W        W83890  33.052  23.247   4.826
15486W        W83891  38.759   4.997   0.472
15487W        W83892  30.485  35.921   4.615
15488W        W83893  36.833  34.089   0.657
15489W        W83894  23.574  26.462  10.055
15490W        W83895  15.380   3.808   4.944
15491W        W83896  39.955  21.855  11.142
15492W        W83897  41.524  38.272   1.927
15493W        W83898  18.051  18.270   2.161
15494W        W83899  16.907  14.658   3.005
15495W        W83900  10.772   2.739  11.102
15496W        W83901  10.702   5.159  11.039
15497W        W83902  43.988  31.703   1.174
15498W        W83903  12.132  27.170  10.798
15499W        W83904  32.476  12.638   3.561
15500W        W83905  32.665  33.625   3.166
15501W        W83906  10.426   3.351   1.161
15502W        W83907  21.252  43.485  13.942
15503W        W83908   8.353  43.550  12.944
15504W        W83909  25.377  18.763  14.264
15505W        W83910  23.505  24.921   4.104
15506W        W83911  23.157  39.341  13.338
15507W        W83912  36.752  38.980   3.299
15508W        W83913  18.028  15.608  11.676
15509W        W83914  42.506  32.593  10.450
15510W        W83915  44.837  39.107  13.334
15511W        W83916  16.561  29.653  10.653
15512W        W83917   5.297  42.590  13.975
15513W        W83918  26.670  24.598  11.992
15514W        W83919   0.766  43.688   4.142
15515W        W83920  12.268  24.216  12.958
15516W        W83921  15.809  18.284  10.967
15517W        W83922   9.656  21.401   4.579
15518W        W83923  43.909   3.754  10.727
15519W        W83924   7.872   3.306   1.489
15520W        W83925  20.766  33.583   1.892
15521W        W83926  32.348  37.952  14.274
15522W        W83927   9.203  15.543   2.874
15523W        W83928  40.982   8.204  13.793
15524W        W83929  27.914  44.321  10.859
15525W        W83930  11.048   5.237   3.278
15526W        W83931   6.753  25.069   3.696
15527W        W83932   9.646  21.696   1.393
15528W        W83933  13.235  23.030   2.025
15529W        W83934  42.533  27.117   3.788
15530W        W83935  13.894  43.297   0.381
15531W        W83936   9.072   9.285  12.078
15532W        W83937  12.737   8.688   0.356
15533W        W83938  44.353  33.389   2.164
15534W        W83939  24.711   9.950  13.450
15535W        W83940  23.755   0.855   4.605
15536W        W83941  23.651  22.123   1.108
15537W        W83942   9.905   1.207  14.439
15538W        W83943  12.759  21.172   0.409
15539W        W83944  40.382  39.955  11.605
15540W        W83945  44.447  21.653   5.026
15541W        W83946  15.745   3.299  13.913
15542W        W83947   2.891  31.376   3.058
15543W        W83948  36.130  18.234  14.568
15544W        W83949  20.966  43.059  13.982
15545W        W83950  21.975  23.036  10.565
15546W        W83951  35.397  34.400  10.496
15547W        W83952  10.343  22.735   0.790
15548W        W83953   0.380  23.780   1.217
15549W        W83954  41.582  32.134   3.278
15550W        W83955  38.939  17.232   4.663
15551W        W83956  11.341  33.480  10.991
15552W        W83957   5.347  18.632  12.534
15553W        W83958  35.517  27.618  11.117
15554W        W83959   1.044  43.394  13.175
15555W        W83960  19.819  35.420   3.643
15556W        W83961   8.842  36.077   3.396
15557W        W83962  44.365  31.272  10.306
15558W        W83963  19.731  10.300  11.112
15559W        W83964  19.586  42.871  14.388
15560W        W83965  44.509  39.035  14.656
15561W        W83966   0.939   9.389   1.505
15562W        W83967  36.287  18.032   2.324
15563W        W83968  44.485  21.575  14.982
15564W        W83969  43.867  27.091   1.075
15565W        W83970  25.970  30.409  12.017
15566W        W83971  18.973  16.417  14.759
15567W        W83972  33.867   7.270   0.392
15568W        W83973  40.252  28.505  13.962
15569W        W83974  16.242   8.736   2.347
15570W        W83975  35.874  17.317  13.860
15571W        W83976   9.008   2.754   4.870
15572W        W83977  22.138  33.645   0.767
15573W        W83978  29.575  11.147  11.180
15574W        W83979  32.951  42.810   4.331
15575W        W83980  40.459  41.881  12.555
15576W        W83981  16.702  24.749   4.315
15577W        W83982  10.594   0.446   5.016
15578W        W83983  22.790  39.474  11.108
15579W        W83984   7.721  43.186  13.524
15580W        W83985  24.488  28.302  14.694
15581W        W83986   6.324   4.215   4.508
15582W        W83987  43.532  44.187  12.387
15583W        W83988   0.695  37.914   1.437
15584W        W83989  29.490  29.888   4.788
15585W        W83990  35.616  10.456   0.340
15586W        W83991  19.711  26.532  10.662
15587W        W83992  18.603  34.913  11.903
15588W        W83993  13.778  36.358   0.921
15589W        W83994   4.740  24.109  13.714
15590W        W83995   0.253  19.110   2.729
15591W        W83996  31.021  19.689  10.045
15592W        W83997   7.716  26.943  11.976
15593W        W83998  10.250   7.306   0.828
15594W        W83999  35.498  10.193  11.121
15595W        W84000  27.690  41.943   3.682
15596W        W84001  14.542  23.135   5.018
15597W        W84002  28.990  15.336   3.215
15598W        W84003  10.922  13.015  13.938
15599W        W84004  28.021  33.700  14.738
15600W        W84005  34.761  33.508   5.024
15601W        W84006  14.465  36.540  12.278
15602W        W84007  34.522  40.003  10.569
15603W        W84008  37.785  21.045   0.383
15604W        W84009  30.984  12.790  14.078
15605W        W84010  36.617  29.215  11.174
15606W        W84011   1.735  26.459  13.247
15607W        W84012   0.352  20.480   4.153
15608W        W84013  18.181  28.181  11.185
15609W        W84014  17.381  26.429   3.397
15610W        W84015  32.064   1.824   0.717
15611W        W84016   6.719  21.778   2.858
15612W        W84017  31.008  32.587   4.990
15613W        W84018  24.106  37.318   0.989
15614W        W84019  42.850  23.004  12.611
15615W        W84020  31.902  42.352  13.562
15616W        W84021  17.076  24.477   1.799
15617W        W84022  40.456  21.192   0.245
15618W        W84023  24.510   9.415   3.776
15619W        W84024  35.310  32.076   0.814
15620W        W84025   0.285  21.577  10.885
15621W        W84026  43.886  30.896   4.565
15622W        W84027  44.822  43.874  13.508
15623W        W84028  30.492  26.461   0.053
15624W        W84029  12.402  35.580   1.336
15625W        W84030  14.288  44.030  14.609
15626W        W84031  33.487  17.907  13.565
15627W        W84032  13.114  35.482  11.392
15628W        W84033  38.321  28.006   0.908
15629W        W84034  17.777   0.839   4.622
15630W        W84035  19.779  38.864   2.950
15631W        W84036  19.231  34.482   4.776
15632W        W84037  39.507   5.740  13.646
15633W        W84038   6.300  44.038   4.266
15634W        W84039   6.329  25.704  14.453
15635W        W84040   9.389  25.432   3.335
15636W        W84041  23.686   2.079   1.261
15637W        W84042  27.996  25.218   1.632
15638W        W84043  38.231  17.853  12.938
15639W        W84044  12.067   1.343  13.334
15640W        W84045   3.392  14.416  10.597
15641W        W84046  42.896   3.204   1.138
15642W        W84047  21.101   8.491  12.894
15643W        W84048  34.826  22.152   0.106
15644W        W84049  11.993   3.128  11.987
15645W        W84050   2.544  32.388  11.106
15646W        W84051   6.899   9.608   4.648
15647W        W84052  24.186  12.539   3.191
15648W        W84053   1.503   3.553  14.740
15649W        W84054  39.482   1.344   2.620
15650W        W84055  22.263  43.681  13.996
15651W        W84056  35.997  20.089  11.489
15652W        W84057   5.255   1.492  10.472
15653W        W84058  33.644  32.965  14.154
15654W        W84059   1.642  27.445   2.699
15655W        W84060   2.397  18.974  11.270
15656W        W84061  17.595  20.966   4.506
15657W        W84062  43.340  35.494   0.436
15658W        W84063  28.149  32.350  12.083
15659W        W84064  18.353   3.173  12.883
15660W        W84065  28.481  44.399  14.273
15661W        W84066  19.720  21.641   2.087
15662W        W84067  31.826  44.343   0.246
15663W        W84068   5.636  11.825  14.153
15664W        W84069  30.115  20.912  12.098
15665W        W84070  31.479  20.345   3.693
15666W        W84071   7.439  12.644   2.693
15667W        W84072  27.073   8.156  10.747
15668W        W84073   8.800  19.294  14.569
15669W        W84074  29.214   7.168  11.170
15670W        W84075  38.168  23.272   3.737
15671W        W84076  30.424   7.885   2.925
15672W        W84077  18.036  21.659   2.342
15673W        W84078   8.339  37.227  12.665
15674W        W84079  14.913  15.991  12.183
15675W        W84080   3.532   3.420   2.766
15676W        W84081  20.680  36.789  13.451
15677W        W84082  32.661  13.032   1.735
15678W        W84083   6.958  27.574  13.827
15679W        W84084  11.082   2.257   0.314
15680W        W84085  27.867  44.749  11.608
15681W        W84086   7.911  43.353   1.700
15682W        W84087  14.866   5.002  11.916
15683W        W84088  22.625  14.016   3.569
15684W        W84089   9.834  41.568   3.869
15685W        W84090  18.662  44.471   4.564
15686W        W84091  27.670  34.504   4.821
15687W        W84092  10.995  28.520   9.804
15688W        W84093   6.733  22.813  13.015
15689W        W84094  15.022   6.587  11.067
15690W        W84095   5.128  37.209   1.114
15691W        W84096  29.572   4.943   1.284
15692W        W84097  27.115  42.493   0.830
15693W        W84098  22.196   2.852   2.002
15694W        W84099   3.428  29.989  13.041
15695W        W84100  37.859   3.499   0.729
15696W        W84101  29.467  23.142  14.995
15697W        W84102  41.528  43.966  13.099
15698W        W84103   9.338  21.665   2.794
15699W        W84104  32.645   5.225  14.389
15700W        W84105  16.676  41.319   1.877
15701W        W84106  42.720   8.940   3.074
15702W        W84107  31.043  19.167   1.382
15703W        W84108  10.576  31.881  11.702
15704W        W84109   9.180   1.225   3.782
15705W        W84110  26.666  25.376  13.994
15706W        W84111  12.682   4.416  11.176
15707W        W84112  30.668  34.574   3.140
15708W        W84113  37.391  32.351  14.515
15709W        W84114   8.910  34.589   1.466
15710W        W84115  31.208  33.953  14.002
15711W        W84116  25.980  14.577  10.772
15712W        W84117  40.356  33.393   4.080
15713W        W84118  37.878  36.181   2.631
15714W        W84119  44.829  11.293  10.133
15715W        W84120   7.705  22.689   3.497
15716W        W84121  28.960  35.106  10.627
15717W        W84122  31.958   1.489   2.197
15718W        W84123  22.277  29.899   2.702
15719W        W84124  28.629  33.377  13.506
15720W        W84125  44.861  36.063   1.618
15721W        W84126  10.214  15.299   2.268
15722W        W84127  44.915  44.214   1.508
15723W        W84128  12.861  23.704   0.956
15724W        W84129   9.420   4.412  12.523
15725W        W84130  24.130  21.255  11.193
15726W        W84131  28.097  44.825  10.627
15727W        W84132  17.914   0.885   0.567
15728W        W84133  21.517  26.694  11.637
15729W        W84134  13.017  15.341  11.892
15730W        W84135  14.022  32.645   4.614
15731W        W84136  44.732  11.127  11.196
15732W        W84137  26.026   4.192  10.685
15733W        W84138  32.653  16.338  11.529
15734W        W84139  22.313  10.574   3.271
15735W        W84140  14.896   0.018  13.413
15736W        W84141  13.163   3.381  14.371
15737W        W84142  30.985  17.981   1.541
15738W        W84143  20.248  35.878   3.219
15739W        W84144  35.789  44.836  11.170
15740W        W84145  22.289  34.086   0.949
15741W        W84146  41.852   7.149   2.354
15742W        W84147  12.250  16.830   0.806
15743W        W84148  10.889   2.848  10.619
15744W        W84149   5.228   0.981   4.690
15745W        W84150   3.492  30.429   1.416
15746W        W84151  11.628  25.752  13.478
15747W        W84152  32.128  35.199  12.083
15748W        W84153  39.481  21.208  10.722
15749W        W84154  42.040   2.941   2.021
15750W        W84155  36.751   2.412   0.495
15751W        W84156  25.563  17.110   9.823
15752W        W84157  17.198  43.687   4.198
15753W        W84158  27.869   7.893   0.292
15754W        W84159  21.485   8.449  14.322
15755W        W84160   9.084  44.227   3.334
15756W        W84161  12.582  42.880  11.026
15757W        W84162  30.831   4.228  14.969
15758W        W84163   0.890  42.747  13.935
15759W        W84164  29.649   1.921   4.714
15760W        W84165   8.318   8.739   1.705
15761W        W84166  22.714  41.460  12.885
15762W        W84167  20.449  15.819   4.742
15763W        W84168   0.715  38.554  12.445
15764W        W84169  19.329  33.928   4.143
15765W        W84170  16.004  11.164  11.667
15766W        W84171  24.768  10.264   0.935
15767W        W84172  33.840  10.784  11.498
15768W        W84173  40.346  37.966  14.394
15769W        W84174  37.259  31.582   2.667
15770W        W84175  43.409  12.963  13.639
15771W        W84176  24.770   1.336  10.628
15772W        W84177   9.035  18.316  11.106
15773W        W84178  40.459   4.959  12.461
15774W        W84179   1.701   8.634  11.719
15775W        W84180   1.710  28.409   2.152
15776W        W84181   6.852  21.702  14.901
15777W        W84182  16.015  21.761   0.213
15778W        W84183  40.345  21.467  10.465
15779W        W84184  25.141  12.705   0.907
15780W        W84185  38.881   3.994  13.472
15781W        W84186  11.847  34.403  13.775
15782W        W84187  40.618  40.548   3.358
15783W        W84188   2.853  34.626   2.246
15784W        W84189   3.643  21.544  13.336
15785W        W84190  38.251   9.872   0.179
15786W        W84191  11.519  30.608  11.092
15787W        W84192   3.278  23.036   3.163
15788W        W84193  18.543   0.850  14.944
15789W        W84194  38.786  11.853  14.090
15790W        W84195   6.419  19.213   2.734
15791W        W84196  36.431  29.647   2.683
15792W        W84197  12.062  41.313  14.992
15793W        W84198  44.938  41.974   0.936
15794W        W84199  30.192   4.307   4.624
15795W        W84200   9.861   6.974   3.458
15796W        W84201  21.370  17.364  13.838
15797W        W84202  11.611  40.590  13.838
15798W        W84203  21.920  33.896   3.616
15799W        W84204   3.346  35.589  11.592
15800W        W84205  10.967   9.867   2.203
15801W        W84206  27.613  21.944  11.148
15802W        W84207  44.533  12.724   2.643
15803W        W84208  26.785  37.409  14.275
15804W        W84209  30.588  22.426   0.222
15805W        W84210  19.580  25.964  14.051
15806W        W84211   8.685  20.731  14.783
15807W        W84212  13.250  35.605   0.929
15808W        W84213   8.072  27.219  11.726
15809W        W84214   1.229  29.082  14.279
15810W        W84215  29.086  13.292  14.457
15811W        W84216  33.636  32.398  10.862
15812W        W84217  11.879  38.885   1.146
15813W        W84218  36.737   4.235  10.604
15814W        W84219  43.878  37.148  11.099
15815W        W84220   8.203  10.818  13.726
15816W        W84221  39.843  28.776  12.273
15817W        W84222  13.629   5.728   1.341
15818W        W84223  21.821   5.937   4.551
15819W        W84224  39.874   2.904   2.235
15820W        W84225  14.791  20.772   2.508
15821W        W84226  34.103  19.003  12.470
15822W        W84227  12.563   3.529  10.960
15823W        W84228   3.203  22.129   3.132
15824W        W84229  44.139  38.910   3.129
15825W        W84230  32.502  31.882   2.315
15826W        W84231  19.750  40.519   2.366
15827W        W84232  33.256  11.215  13.945
15828W        W84233  38.568  30.114  12.577
15829W        W84234  40.553  29.953   0.818
15830W        W84235  42.269  12.685   4.449
15831W        W84236  20.244  37.308   0.399
15832W        W84237  30.186  39.044   4.597
15833W        W84238  14.393  18.662  14.838
15834W        W84239  33.868  12.363  12.852
15835W        W84240   2.449  40.586   0.711
15836W        W84241  38.364  29.840   0.562
15837W        W84242   0.807  34.958   3.840
15838W        W84243  36.340   2.970  10.422
15839W        W84244   2.495  38.441   3.332
15840W        W84245   2.957  42.397   1.220
15841W        W84246  15.613   6.298   1.774
15842W        W84247  36.428  21.582   1.021
15843W        W84248  29.128   8.687   1.893
15844W        W84249  33.925  44.099   4.594
15845W        W84250   4.883  26.102  12.438
15846W        W84251  31.484   2.394   4.602
15847W        W84252  31.087  39.177   2.681
15848W        W84253  41.505  41.485  13.335
15849W        W84254  12.041  27.308   3.276
15850W        W84255  32.486  13.132   1.020
15851W        W84256  16.592  11.204  11.566
15852W        W84257  16.973  41.363  12.868
15853W        W84258  25.504  37.884   1.879
15854W        W84259  39.871  12.670   3.338
15855W        W84260  15.090  39.935   3.758
15856W        W84261   7.321   0.067   4.539
15857W        W84262  22.043  27.699  13.951
15858W        W84263   8.918  11.859  14.888
15859W        W84264   8.754  40.303   4.101
15860W        W84265  14.291  26.049  13.537
15861W        W84266  14.399  37.399  12.858
15862W        W84267  43.207  17.545   1.792
15863W        W84268  24.646   7.183   2.819
15864W        W84269  44.412  12.287  14.002
15865W        W84270  35.867  40.489  12.896
15866W        W84271  32.530   3.801   3.464
15867W        W84272   5.345  10.867  13.958
15868W        W84273   3.457  26.951   2.882
15869W        W84274  31.142   1.334   2.197
15870W        W84275  19.272  13.921  12.453
15871W        W84276  36.681  13.269  12.945
15872W        W84277   1.470  32.579   3.294
15873W        W84278  11.249   7.430  12.424
15874W        W84279   8.060  39.627   2.555
15875W        W84280  14.650  24.039   2.779
15876W        W84281  25.272  13.287  13.023
15877W        W84282  40.727  38.216  12.827
15878W        W84283  12.567  24.545  10.664
15879W        W84284  28.166  33.290   3.033
15880W        W84285   1.456   2.013  10.849
15881W        W84286  25.542   7.731  10.573
15882W        W84287  33.416  43.443   4.779
15883W        W84288  40.862  41.262  12.615
15884W        W84289  16.035  30.715  10.254
15885W        W84290  21.624   7.671  13.816
15886W        W84291   8.534   3.246   5.028
15887W        W84292  40.989   9.601  13.422
15888W        W84293   7.237  11.605   3.645
15889W        W84294  42.911  40.330   3.707
15890W        W84295  43.912   2.003   3.993
15891W        W84296  36.856  20.797  11.128
15892W        W84297   6.868  28.916   5.337
15893W        W84298  41.953   5.431  12.637
15894W        W84299  17.123   6.748  10.603
15895W        W84300   2.954  41.922   3.866
15896W        W84301  36.044   3.339   9.765
15897W        W84302  21.522  42.320  11.653
15898W        W84303  14.150   4.976   2.198
15899W        W84304   5.937  12.899  13.607
15900W        W84305   1.252  17.734   3.495
15901W        W84306  31.861  31.829  11.148
15902W        W84307  35.823   3.682   0.312
15903W        W84308  36.855   1.845  12.314
15904W        W84309  42.427  29.486   2.188
15905W        W84310  30.261  20.068  10.500
15906W        W84311   8.719   6.164  14.861
15907W        W84312  11.359  31.459   1.324
15908W        W84313  34.902   0.415   4.216
15909W        W84314  41.449  32.052  12.053
15910W        W84315   4.510   4.502   9.593
15911W        W84316  39.449  15.561  13.941
15912W        W84317  28.560   6.131   4.657
15913W        W84318  16.557  27.267  12.410
15914W        W84319  21.004   1.293   0.290
15915W        W84320   4.494  42.561   0.286
15916W        W84321  42.094   5.305  13.111
15917W        W84322  22.652  34.347  11.160
15918W        W84323  13.619   4.826   0.971
15919W        W84324   2.731  19.610  14.702
15920W        W84325  10.751  35.794   0.024
15921W        W84326  25.531   2.461  14.937
15922W        W84327  29.089   0.069  14.796
15923W        W84328  35.912  28.245  11.580
15924W        W84329  35.327  38.816   2.279
15925W        W84330   8.670  17.280  14.320
15926W        W84331   8.488   3.345   2.708
15927W        W84332   0.329   0.694  13.546
15928W        W84333  18.338  32.964   1.758
15929W        W84334   2.381  40.509  11.882
15930W        W84335  37.542   8.323  13.999
15931W        W84336  26.251  15.514   1.450
15932W        W84337   1.203   9.684   3.827
15933W        W84338  21.043  44.184  13.270
15934W        W84339  35.500  30.330  11.185
15935W        W84340  21.482  42.944   1.718
15936W        W84341  15.690  22.159   3.454
15937W        W84342  26.883  10.233  13.306
15938W        W84343  16.299  20.220   1.310
15939W        W84344  19.268  15.341  12.574
15940W        W84345  14.017  32.104  14.278
15941W        W84346  20.184   3.443   4.611
15942W        W84347   2.034  39.592  11.916
15943W        W84348  32.713  12.271   3.281
15944W        W84349  39.308   7.444  14.974
15945W        W84350  31.478  40.783   4.148
15946W        W84351   0.185  20.908   3.866
15947W        W84352  20.240  27.187  14.830
15948W        W84353  11.978  27.573   2.802
15949W        W84354  34.361  33.223   4.882
15950W        W84355  25.518  40.536   1.397
15951W        W84356   3.126  25.453   1.421
15952W        W84357  11.147  25.035  13.852
15953W        W84358  11.897  19.594   4.100
15954W        W84359   6.254  21.077   1.457
15955W        W84360  37.563  19.838   4.010
15956W        W84361  36.104  44.986   4.544
15957W        W84362  31.687  43.046  14.655
15958W        W84363  33.061  23.101   1.684
15959W        W84364   6.697  13.745   2.708
15960W        W84365  19.768  26.013  13.583
15961W        W84366  39.828  32.959   0.376
15962W        W84367  32.149  19.118   0.398
15963W        W84368  31.100  15.444   9.977
15964W        W84369  33.118  17.548  11.899
15965W        W84370  14.149  14.677   3.376
15966W        W84371   4.878  43.771   9.999
15967W        W84372  22.562  27.581  10.618
15968W        W84373  24.075  14.827   0.284
15969W        W84374   8.321  44.048  10.689
15970W        W84375  11.947  41.574   2.276
15971W        W84376   5.955  24.083  11.546
15972W        W84377  15.792  40.296   4.705
15973W        W84378  28.558  44.796   3.992
15974W        W84379  38.021  28.795   1.273
15975W        W84380  17.771   0.998   3.348
15976W        W84381  27.018  12.695   5.321
15977W        W84382  22.716  44.891   2.857
15978W        W84383  15.163  17.497  12.938
15979W        W84384  22.216   2.311   3.193
15980W        W84385  26.263  37.658   3.610
15981W        W84386  10.381  31.914   4.670
15982W        W84387  36.343  12.929   5.073
15983W        W84388  42.047   6.356  11.641
15984W        W84389  31.763   3.635  12.493
15985W        W84390  26.445  31.410   0.416
15986W        W84391  44.760  14.619  12.726
15987W        W84392  24.109   3.669  13.845
15988W        W84393  33.091   1.351  12.478
15989W        W84394  10.753   7.065  13.862
15990W        W84395   3.383   8.384   0.362
15991W        W84396  26.484   8.264  12.488
15992W        W84397  35.795  13.858   3.265
15993W        W84398  17.987  37.893  10.885
15994W        W84399  15.268  29.101  10.407
15995W        W84400  19.071  15.738   2.831
15996W        W84401   6.412  38.903  10.359
15997W        W84402  44.950  28.168  11.587
15998W        W84403  42.252  33.608   3.727
15999W        W84404  41.247  35.605  11.524
16000W        W84405  11.804   5.766  11.643
16001W        W84406  20.159  13.351   0.242
16002W        W84407  37.089  43.312  11.576
16003W        W84408  14.502   3.302   4.681
16004W        W84409  10.416  41.291   0.874
16005W        W84410  29.984  29.337  10.724
16006W        W84411  42.867  32.696   2.288
16007W        W84412  42.225  23.171   3.676
16008W        W84413   0.992  37.737   0.641
16009W        W84414  24.894  37.130   0.009
16010W        W84415  22.818  38.869   2.793
16011W        W84416  15.886   2.944  13.545
16012W        W84417   6.268  34.489   4.852
16013W        W84418  42.894  24.132  11.938
16014W        W84419  21.169  26.506  13.596
16015W        W84420  42.362  32.040   0.674
16016W        W84421  26.996   4.029  11.241
16017W        W84422  28.224  29.219  12.667
16018W        W84423  27.265  42.704   0.352
16019W        W84424  34.012  33.010  11.295
16020W        W84425  27.693  24.786  10.546
16021W        W84426  22.852   1.214  13.506
16022W        W84427  23.232  28.098  12.052
16023W        W84428   3.309  43.505   3.326
16024W        W84429  35.178   6.326   3.496
16025W        W84430  10.003  40.149  11.967
16026W        W84431  44.656   4.906  10.331
16027W        W84432   6.834   0.287   4.573
16028W        W84433   0.052  21.754  10.419
16029W        W84434  20.585  13.715   3.595
16030W        W84435   4.297  15.070   4.674
16031W        W84436   8.723  13.909   3.715
16032W        W84437  14.592  38.008   0.251
16033W        W84438  36.445  37.579   1.128
16034W        W84439  32.057  21.611   4.417
16035W        W84440  35.190  39.247  11.455
16036W        W84441  38.699   2.407   3.778
16037W        W84442  17.091  29.698   5.115
16038W        W84443  40.748  34.127   0.172
16039W        W84444  20.253  39.530  10.503
16040W        W84445  31.218  40.147  11.511
16041W        W84446  12.187  10.223   4.548
16042W        W84447  33.935  38.014   2.240
16043W        W84448  37.418  38.168  12.507
16044W        W84449  36.822  43.509  11.992
16045W        W84450  11.263  11.810  13.933
16046W        W84451  42.699  35.749  11.913
16047W        W84452  28.050   0.906   5.077
16048W        W84453  11.815  23.991  10.516
16049W        W84454  29.433  22.887  13.904
16050W        W84455  38.526  10.347   0.808
16051W        W84456  43.854  31.708   2.183
16052W        W84457  38.531  37.004  10.759
16053W        W84458   7.971  40.861   3.232
16054W        W84459   7.193  41.637   3.553
16055W        W84460  42.481  40.649   0.047
16056W        W84461  10.737  32.259   3.760
16057W        W84462  22.587  41.907   2.287
16058W        W84463  34.337  30.641   4.743
16059W        W84464  40.484  43.534  11.474
16060W        W84465   1.444  21.050  10.561
16061W        W84466  39.486   3.640   4.340
16062W        W84467   9.873  28.948   4.282
16063W        W84468  33.544   4.821   0.282
16064W        W84469  24.968  33.648   3.574
16065W        W84470  17.293  20.384   1.268
16066W        W84471   4.296   3.993   3.221
16067W        W84472   1.743  44.269  14.412
16068W        W84473  15.021  39.452  10.982
16069W        W84474  39.463  10.486  10.686
16070W        W84475  29.987  25.719  10.991
16071W        W84476   7.928  44.217   1.619
16072W        W84477   7.685  12.291  14.889
16073W        W84478  27.449  44.080  12.058
16074W        W84479   1.835  34.880   4.679
16075W        W84480  19.117   7.290  13.735
16076W        W84481  15.108   9.926   1.992
16077W        W84482  17.086   9.649   1.197
16078W        W84483  12.725   0.425  14.489
16079W        W84484   0.378  27.850  11.598
16080W        W84485  38.053   0.697  14.361
16081W        W84486   2.914  20.073  10.863
16082W        W84487  18.561  32.612  14.469
16083W        W84488  29.072  35.532   0.501
16084W        W84489  28.571   1.692   0.506
16085W        W84490   3.683  24.089  14.721
16086W        W84491  37.871  15.614   0.959
16087W        W84492   9.204  17.016   2.135
16088W        W84493  41.244  11.410   3.177
16089W        W84494  11.296  18.031  12.470
16090W        W84495  12.185  38.585   3.635
16091W        W84496  15.205   0.996   1.815
16092W        W84497   4.753   3.061  14.366
16093W        W84498  39.044  41.491   0.299
16094W        W84499  11.130  39.952  14.032
16095W        W84500   4.463  44.107   2.232
16096W        W84501  35.386   9.365  10.743
16097W        W84502  40.871  28.615   1.435
16098W        W84503  22.077  30.284   1.765
16099W        W84504  44.676  36.090  12.110
16100W        W84505  37.230  27.668   0.663
16101W        W84506  31.359  19.314   0.094
16102W        W84507  13.764   6.336  11.788
16103W        W84508  36.475  20.093   1.066
16104W        W84509  37.685   3.871   1.106
16105W        W84510  26.728  16.802   3.668
16106W        W84511   2.795   4.646  10.608
16107W        W84512  40.369   5.743  11.955
16108W        W84513   0.872  24.283   1.044
16109W        W84514   2.040  37.501  14.595
16110W        W84515  40.279  16.351  13.549
16111W        W84516  22.977  38.400   2.145
16112W        W84517  24.175  23.126   4.568
16113W        W84518  17.263  30.033   2.947
16114W        W84519  30.592  13.320  11.999
16115W        W84520  23.051  30.095   3.116
16116W        W84521  16.162   9.293  10.226
16117W        W84522   3.984  20.281   4.206
16118W        W84523   4.495  39.387   3.302
16119W        W84524  21.939  29.258   3.217
16120W        W84525   6.582  16.655  14.409
16121W        W84526  20.684  27.912   3.349
16122W        W84527  21.235   1.282  10.502
16123W        W84528   1.356  40.614  10.730
16124W        W84529  42.868  24.445  14.563
16125W        W84530  38.095  34.466  14.989
16126W        W84531  18.519  32.681   4.155
16127W        W84532  35.892  20.307   2.441
16128W        W84533  44.967  17.127   3.577
16129W        W84534  15.077  11.707  10.783
16130W        W84535  41.230  20.045   3.604
16131W        W84536  28.582   0.223   3.654
16132W        W84537   0.676  38.995  13.751
16133W        W84538  35.465  29.942  14.992
16134W        W84539  25.725  11.750   1.856
16135W        W84540  25.657  18.323  14.356
16136W        W84541  32.550  36.616  13.956
16137W        W84542   1.422   0.585   3.245
16138W        W84543  24.205   9.854  13.493
16139W        W84544  40.141  29.613  12.575
16140W        W84545  22.975  27.741  13.799
16141W        W84546  23.775  30.636   3.274
16142W        W84547  44.690  27.382  13.399
16143W        W84548   7.940  41.541   1.745
16144W        W84549   0.464  36.660   2.824
16145W        W84550  26.041  26.583   2.266
16146W        W84551  36.133  39.293  13.932
16147W        W84552  29.075  10.550   4.589
16148W        W84553  36.031  18.611  11.113
16149W        W84554  31.895   5.924  13.729
16150W        W84555  24.538   0.408   4.625
16151W        W84556  37.680  16.731   2.920
16152W        W84557  26.585  28.989  10.461
16153W        W84558  17.488  20.562  11.746
16154W        W84559   2.839  40.817   2.339
16155W        W84560  14.448  32.458   3.044
16156W        W84561  34.057   2.017  11.612
16157W        W84562  23.976  15.109  14.025
16158W        W84563   6.271   0.752  10.705
16159W        W84564  38.101  24.276  11.171
16160W        W84565  16.090  43.830   0.012
16161W        W84566  28.228  36.049   2.826
16162W        W84567  33.397  27.989   2.417
16163W        W84568  35.245  40.106   0.331
16164W        W84569   4.102  38.356   4.889
16165W        W84570  33.900  23.579  13.015
16166W        W84571  44.444  14.250   2.415
16167W        W84572  14.166  33.075  14.031
16168W        W84573  44.083  15.030  14.973
16169W        W84574  30.624  28.976  10.626
16170W        W84575  34.418  15.812  14.947
16171W        W84576  42.683  42.880  13.113
16172W        W84577  12.248   8.933  11.880
16173W        W84578  16.642  18.287   2.589
16174W        W84579  40.051  38.367   4.618
16175W        W84580  20.026  33.815  13.377
16176W        W84581   6.674   5.181   2.779
16177W        W84582  24.584  35.197   2.799
16178W        W84583   1.398  25.946  11.991
16179W        W84584  35.513  23.650   0.614
16180W        W84585  12.350  21.087   4.246
16181W        W84586  11.464  20.889  14.520
16182W        W84587  19.010  43.024   2.806
16183W        W84588  38.362  31.896  12.103
16184W        W84589  22.551  13.225   0.598
16185W        W84590  14.925   8.385   3.950
16186W        W84591  19.297  11.124  10.710
16187W        W84592   6.458  21.242   2.819
16188W        W84593  12.197   5.902  13.452
16189W        W84594   8.624  13.062  13.469
16190W        W84595   4.174   9.799   1.682
16191W        W84596  13.626   5.451  13.902
16192W        W84597  11.304  20.041  12.368
16193W        W84598   6.240   8.171   3.334
16194W        W84599  41.059   1.065   4.529
16195W        W84600  42.556   8.184   1.923
16196W        W84601   7.636   1.855  14.218
16197W        W84602  23.016  17.711   4.340
16198W        W84603  32.522  42.336   1.390
16199W        W84604  19.225  44.671  12.137
16200W        W84605  38.246  43.190   4.819
16201W        W84606  18.298  43.436   3.757
16202W        W84607  36.192   1.803  12.872
16203W        W84608  24.485   0.155  14.872
16204W        W84609   9.620  33.896   3.171
16205W        W84610  23.128  10.226  13.965
16206W        W84611  25.675  29.379  12.722
16207W        W84612  36.428  24.960   2.185
16208W        W84613   4.505  34.908   0.776
16209W        W84614  16.259   6.219   4.541
16210W        W84615  39.036   3.794   0.060
16211W        W84616  32.257  38.322  11.616
16212W        W84617  36.097  27.435   0.917
16213W        W84618   0.622  43.275  13.514
16214W        W84619  10.269  27.360   2.709
16215W        W84620  16.760  41.531   4.578
16216W        W84621  36.443  28.068  11.639
16217W        W84622  32.112  26.895  14.863
16218W        W84623  17.100  41.723  10.301
16219W        W84624  18.678  20.730  11.282
16220W        W84625  26.473  33.819   4.575
16221W        W84626  11.333  34.667   4.227
16222W        W84627   2.214  21.826   2.369
16223W        W84628  12.343  20.463  12.551
16224W        W84629  32.474  14.809   1.440
16225W        W84630   6.407  21.764  12.372
16226W        W84631  33.623  39.234  14.528
16227W        W84632  30.497  14.003   2.359
16228W        W84633   4.917  24.973   3.422
16229W        W84634  39.462   6.201  14.478
16230W        W84635   2.306  22.046  13.375
16231W        W84636  32.176  27.917  14.980
16232W        W84637  29.905  20.144   1.190
16233W        W84638  25.028   9.748  11.069
16234W        W84639  27.384  42.960   3.654
16235W        W84640   7.953  25.289  10.362
16236W        W84641  32.988   0.785   1.832
16237W        W84642  43.989   8.614   1.770
16238W        W84643  34.651  38.452   1.900
16239W        W84644  36.831  40.084  13.524
16240W        W84645  41.944  40.887  13.863
16241W        W84646  12.327  25.849  14.822
16242W        W84647  29.464   2.249   2.833
16243W        W84648  20.157  25.025   3.824
16244W        W84649   0.999  37.626  11.640
16245W        W84650  39.652  13.783   0.048
16246W        W84651  16.147   3.417   5.177
16247W        W84652  14.019  38.553   2.329
16248W        W84653  38.751  39.552   1.818
16249W        W84654  11.825  11.892  10.851
16250W        W84655  43.917  34.140  12.014
16251W        W84656  41.379  36.465   2.444
16252W        W84657  10.798  27.140  11.511
16253W        W84658  35.383  36.988  12.921
16254W        W84659   2.330  10.771   2.431
16255W        W84660   2.241  32.120  14.542
16256W        W84661   9.767   0.031   0.679
16257W        W84662  30.784  15.676  14.746
16258W        W84663  43.454  17.764  10.795
16259W        W84664   4.448   8.676  10.235
16260W        W84665  10.269   5.091  14.704
16261W        W84666  41.064   5.240   4.665
16262W        W84667  37.290   5.866  14.962
16263W        W84668  26.404  23.781  13.479
16264W        W84669  38.815  11.765   5.101
16265W        W84670  18.468  24.114  14.840
16266W        W84671  25.967  11.471   0.198
16267W        W84672  27.275  10.707  12.037
16268W        W84673  23.672  26.740   2.136
16269W        W84674   9.429   2.974  11.186
16270W        W84675  26.120  39.797   3.140
16271W        W84676   1.871   4.889   1.402
16272W        W84677  32.995  38.624   1.000
16273W        W84678  32.344  22.236   2.302
16274W        W84679  14.256  38.945  11.421
16275W        W84680  13.164  12.218  12.705
16276W        W84681  33.856  40.387  13.900
16277W        W84682  27.234  12.032  14.398
16278W        W84683  11.072  12.038   2.248
16279W        W84684  24.603  15.468  11.572
16280W        W84685  26.996  12.770   3.905
16281W        W84686  28.640  22.769  14.957
16282W        W84687  40.629  16.898   2.472
16283W        W84688  32.546   2.277  11.104
16284W        W84689  36.243  36.306   1.475
16285W        W84690  16.456   1.398  11.141
16286W        W84691  30.764   5.168   3.183
16287W        W84692  37.438  43.517   4.123
16288W        W84693  19.010  39.196   1.891
16289W        W84694  28.443   6.182   3.600
16290W        W84695  39.988   1.965   0.907
16291W        W84696  30.690   0.561   4.085
16292W        W84697  15.525  21.149   4.982
16293W        W84698  30.616  16.569  10.803
16294W        W84699  12.350  27.712   0.332
16295W        W84700   0.318  21.633   0.419
16296W        W84701   3.412  39.781  11.078
16297W        W84702  36.111  34.533   2.461
16298W        W84703  21.163  20.733   2.253
16299W        W84704   6.710   8.851  11.212
16300W        W84705  34.414  17.329  14.999
16301W        W84706  43.659  40.109  13.468
16302W        W84707  34.943  29.019   0.371
16303W        W84708  20.708  22.145   3.089
16304W        W84709  10.938  22.136  14.256
16305W        W84710  21.222   7.134   3.686
16306W        W84711  12.357   5.744  10.647
16307W        W84712  23.791  29.202  12.447
16308W        W84713  30.434   4.748   4.263
16309W        W84714   9.360  13.592   4.688
16310W        W84715   9.136   8.708  14.940
16311W        W84716  31.572  18.064  10.045
16312W        W84717  40.254  36.384   4.461
16313W        W84718  32.310  16.419  12.526
16314W        W84719  25.177   6.731   1.618
16315W        W84720  37.304  28.374  12.897
16316W        W84721  38.294  14.648   3.760
16317W        W84722  38.477   9.663  10.363
16318W        W84723  16.003   6.757  13.577
16319W        W84724  19.444  28.339  12.368
16320W        W84725   7.901  39.321  11.887
16321W        W84726  18.066   6.237   2.726
16322W        W84727   7.761   6.832  12.465
16323W        W84728  31.248  21.646   3.659
16324W        W84729   2.023   9.509   3.657
16325W        W84730   7.478  24.569  14.055
16326W        W84731  29.626  37.525  11.244
16327W        W84732  22.976  33.828  12.907
16328W        W84733  36.886  32.463  14.225
16329W        W84734  10.225  38.053  12.354
16330W        W84735  31.946  27.934   1.756
16331W        W84736  39.206  35.447   1.490
16332W        W84737  14.590  40.009   4.618
16333W        W84738  29.389  36.468   2.048
16334W        W84739  31.096   6.720   4.394
16335W        W84740   5.374   1.388   0.530
16336W        W84741  43.423  39.530  11.383
16337W        W84742  35.360  13.361  12.953
16338W        W84743  28.746  25.448   2.755
16339W        W84744  27.617  44.226   3.264
16340W        W84745  34.410  25.525   1.546
16341W        W84746  40.440  35.263  13.063
16342W        W84747  43.479  39.848  12.145
16343W        W84748   2.995  16.973  13.379
16344W        W84749  19.353   6.066  14.310
16345W        W84750  13.611   8.787   2.106
16346W        W84751  27.928  24.800  14.776
16347W        W84752  14.754  39.580  12.541
16348W        W84753  12.330  41.354   3.368
16349W        W84754  15.569  38.508  12.510
16350W        W84755  21.802  28.014  11.444
16351W        W84756  26.224  37.871   2.170
16352W        W84757  32.632  44.730  12.837
16353W        W84758  14.692  35.885  10.742
16354W        W84759   9.235  11.747   2.335
16355W        W84760  31.179  38.289  11.675
16356W        W84761  18.132  16.234   1.616
16357W        W84762  41.488  38.782   4.535
16358W        W84763  33.978  26.202   0.380
16359W        W84764   0.636  16.679  12.400
16360W        W84765  43.401  42.076  13.577
16361W        W84766  28.168  33.035  13.949
16362W        W84767   6.432  25.477   2.180
16363W        W84768  23.264  38.858  13.439
16364W        W84769  32.273   3.947   4.482
16365W        W84770  39.618  38.939   3.163
16366W        W84771  35.154  10.209  14.971
16367W        W84772  25.688  20.560  14.804
16368W        W84773  43.440  36.766  10.502
16369W        W84774  43.821  36.643  12.889
16370W        W84775  30.910  25.000   4.606
16371W        W84776  20.561  27.219  14.414
16372W        W84777  15.393  39.062  13.437
16373W        W84778  27.476   9.148  13.605
16374W        W84779  21.299  36.835   0.133
16375W        W84780  36.949  31.365  14.005
16376W        W84781  27.693  43.735  11.580
16377W        W84782  17.209  34.058  11.987
16378W        W84783  40.272  26.173  11.535
16379W        W84784   7.725  38.898  12.088
16380W        W84785  42.289  30.681   1.617
16381W        W84786   5.736  32.960  11.361
16382W        W84787  44.484   9.555   4.650
16383W        W84788   6.729  34.109   4.276
16384W        W84789   1.069  25.677   2.636
16385W        W84790  21.620  26.677  12.977
16386W        W84791  31.990  40.276   5.166
16387W        W84792   1.503  22.080   0.355
16388W        W84793  32.387  20.734  14.986
16389W        W84794  23.426  27.935   2.454
16390W        W84795  13.770  16.153   2.291
16391W        W84796  40.226  39.076   2.704
16392W        W84797   1.857  13.675  13.084
16393W        W84798  16.606  16.941  13.913
16394W        W84799  34.996  44.767   2.282
16395W        W84800  28.242  41.618  11.498
16396W        W84801  28.545  11.640  11.318
16397W        W84802   9.689   5.608  11.032
16398W        W84803  42.678  17.775  13.958
16399W        W84804  18.341  27.205  10.862
16400W        W84805   2.094  33.995  10.983
16401W        W84806  39.741  33.690  12.468
16402W        W84807  23.652  40.838  13.502
16403W        W84808  34.515  34.859   0.643
16404W        W84809   1.879   0.927   0.249
16405W        W84810  13.650  17.532   4.188
16406W        W84811  35.817  14.976  13.503
16407W        W84812  43.709  29.623  10.883
16408W        W84813  37.402  44.823  14.901
16409W        W84814  39.549   0.262  12.622
16410W        W84815  35.619  38.070   1.301
16411W        W84816  25.561   7.732  12.974
16412W        W84817  33.676  24.764   3.778
16413W        W84818  18.244  13.628   1.487
16414W        W84819  35.613  32.816   3.715
16415W        W84820   0.964  16.765   2.813
16416W        W84821  40.395   0.372  12.431
16417W        W84822  32.440   4.967  12.027
16418W        W84823  38.549   5.424  13.730
16419W        W84824   0.751   2.875   3.031
16420W        W84825  15.809   7.660  10.912
16421W        W84826   4.256  41.905  10.563
16422W        W84827  44.762   4.144   5.069
16423W        W84828  39.638   0.528   4.511
16424W        W84829  28.136   2.244   4.737
16425W        W84830  30.074  12.809   3.878
16426W        W84831  37.251  40.247   2.775
16427W        W84832  41.409  42.881   4.096
16428W        W84833  26.510  12.085  10.608
16429W        W84834  36.190  24.430  11.119
16430W        W84835  11.794  19.159  12.526
16431W        W84836   0.468   8.075   1.984
16432W        W84837  34.331  21.953  12.397
16433W        W84838  20.460  30.691  14.953
16434W        W84839  34.874  24.612   0.850
16435W        W84840  12.563  12.698  13.290
16436W        W84841   5.942  26.597   4.452
16437W        W84842  31.061  24.724  14.945
16438W        W84843   5.215   2.926  12.428
16439W        W84844  14.199  40.531   2.532
16440W        W84845   9.475  38.506  13.510
16441W        W84846  13.626  38.286   4.532
16442W        W84847  34.055   2.243   2.352
16443W        W84848  32.005  19.098   1.870
16444W        W84849  41.561  43.542  11.084
16445W        W84850   2.101  42.799  13.739
16446W        W84851  16.597  36.352   4.128
16447W        W84852  18.970  38.805   0.242
16448W        W84853   6.769   9.766   1.885
16449W        W84854  25.730  16.244   5.298
16450W        W84855  33.903  11.177  10.580
16451W        W84856   2.880  43.836   1.433
16452W        W84857   8.810  28.016  12.935
16453W        W84858  38.060   9.795   2.907
16454W        W84859  24.452  27.417   3.794
16455W        W84860   4.206  37.873   3.605
16456W        W84861   5.359  24.191  12.368
16457W        W84862  11.478  36.482   4.633
16458W        W84863   9.231  18.597  12.526
16459W        W84864  24.587  23.971   0.418
16460W        W84865  11.819  41.793  13.356
16461W        W84866  31.434  21.128  13.471
16462W        W84867   7.265   8.124  10.502
16463W        W84868   0.828   7.423  14.480
16464W        W84869  35.512  33.841   0.447
16465W        W84870  40.074  12.847  13.920
16466W        W84871  14.680   8.770  14.450
16467W        W84872  19.866  32.199  13.873
16468W        W84873   4.194   6.979  14.899
16469W        W84874  41.095  15.698   0.229
16470W        W84875  19.164  24.455  11.327
16471W        W84876  42.090   8.751   3.051
16472W        W84877  33.586  39.577  12.587
16473W        W84878  18.064  34.083  12.970
16474W        W84879  15.922   7.811   0.374
16475W        W84880  27.143   1.786  10.688
16476W        W84881  25.426  22.557   2.339
16477W        W84882  42.900  15.152   4.660
16478W        W84883  40.177  38.391   2.754
16479W        W84884   0.966  32.412   0.859
16480W        W84885  31.707   5.664  13.318
16481W        W84886  10.943  39.330  14.860
16482W        W84887  41.044  25.273  10.911
16483W        W84888  17.558  33.426  14.011
16484W        W84889  19.044  31.207   4.395
16485W        W84890  29.006  44.192   2.194
16486W        W84891   9.629  30.612   2.530
16487W        W84892  11.206  24.412  13.857
16488W        W84893  37.247   5.561  14.542
16489W        W84894  23.313   7.281   0.939
16490W        W84895   6.356  24.259  12.842
16491W        W84896  15.584  24.353   1.860
16492W        W84897  17.648  10.168   3.031
16493W        W84898  13.715  30.239  14.480
16494W        W84899  32.448  20.646   3.645
16495W        W84900  42.513  19.253  10.753
16496W        W84901   5.178  32.937   2.616
16497W        W84902  35.696  18.168  11.918
16498W        W84903  22.070  27.193  13.904
16499W        W84904   9.841  27.560  14.935
16500W        W84905  43.607   0.648   3.789
16501W        W84906  42.644  25.087   0.764
16502W        W84907   8.902  27.696   3.191
16503W        W84908   9.689  29.099   3.833
16504W        W84909   5.816  32.665  13.778
16505W        W84910  10.785  31.117  11.495
16506W        W84911  18.580  43.933  10.671
16507W        W84912  15.851  27.094  13.522
16508W        W84913   9.091  10.060  14.894
16509W        W84914  12.309  40.060   2.349
16510W        W84915  40.551   3.420  10.682
16511W        W84916  28.452  27.467  14.149
16512W        W84917  44.436  34.783   1.683
16513W        W84918  36.545  42.169  13.911
16514W        W84919  24.716  38.074  12.957
16515W        W84920  28.052  35.862   0.362
16516W        W84921  43.873  11.987   0.707
16517W        W84922  13.889  14.301  13.117
16518W        W84923   8.760  42.440   3.222
16519W        W84924  41.502  22.160   2.229
16520W        W84925   7.165  42.229  13.030
16521W        W84926  44.462   6.211   0.432
16522W        W84927   2.948  24.247   3.393
16523W        W84928  24.838  33.592  13.019
16524W        W84929  38.829   3.848   2.769
16525W        W84930   5.960  20.756  14.675
16526W        W84931  16.223  11.054   2.559
16527W        W84932   9.937   3.781   4.136
16528W        W84933  14.271  38.944   9.919
16529W        W84934  25.346   2.401  12.415
16530W        W84935   7.135  11.829  13.173
16531W        W84936  27.897  27.070  12.654
16532W        W84937  42.701  38.477   1.330
16533W        W84938   5.241  22.447  11.513
16534W        W84939   2.005  26.598   2.161
16535W        W84940  23.834  15.825   2.256
16536W        W84941  41.922  12.369   4.170
16537W        W84942  35.555  20.062  14.064
16538W        W84943   6.677  28.137   4.716
16539W        W84944  20.193  39.453  13.415
16540W        W84945  40.278  23.798   2.798
16541W        W84946  39.240  43.360   0.016
16542W        W84947  19.817  19.773  11.947
16543W        W84948  31.539  16.779   4.529
16544W        W84949  32.590  35.475   4.537
16545W        W84950  31.072  40.514   3.946
16546W        W84951  21.623  43.541  10.914
16547W        W84952  31.431   6.194  12.503
16548W        W84953  15.192  19.142   4.946
16549W        W84954  40.429  37.183   0.567
16550W        W84955   7.193  14.107  12.343
16551W        W84956  27.695  33.486  12.570
16552W        W84957  25.619  14.181   2.632
16553W        W84958  28.894  31.673  11.079
16554W        W84959  25.048  44.052   0.157
16555W        W84960  37.202  14.661   2.910
16556W        W84961   9.877  29.128   2.845
16557W        W84962   8.426   3.983  11.249
16558W        W84963   8.255  18.561  14.394
16559W        W84964  16.855  28.350   4.260
16560W        W84965   9.586   9.186  11.950
16561W        W84966  14.101  21.350   2.802
16562W        W84967  33.558  20.276   0.722
16563W        W84968  16.597  14.445  11.147
16564W        W84969  14.106  25.279  13.916
16565W        W84970  28.183  25.440  12.904
16566W        W84971  14.672  19.222   3.630
16567W        W84972  19.142  15.040   1.549
16568W        W84973  31.817  34.433  11.606
16569W        W84974  39.203  10.976   1.297
16570W        W84975  35.917   0.849   2.807
16571W        W84976   0.854  40.447   1.934
16572W        W84977  13.653  21.668  12.209
16573W        W84978  40.275  40.179   3.276
16574W        W84979  41.723  42.290   2.317
16575W        W84980  24.751  30.826  11.478
16576W        W84981   3.744  32.166   3.129
16577W        W84982  31.589  15.255  12.501
16578W        W84983   5.934  28.424   5.405
16579W        W84984   4.606  10.779   3.056
16580W        W84985  42.744  16.186  13.285
16581W        W84986  16.338   2.009   5.381
16582W        W84987  12.419  27.512   2.528
16583W        W84988  20.679   9.727   0.413
16584W        W84989  40.068  25.923  14.395
16585W        W84990   4.487  33.541   3.853
16586W        W84991  25.797  37.371  13.988
16587W        W84992  21.135  30.400   0.670
16588W        W84993  28.007  35.432   3.117
16589W        W84994  41.359   6.453   4.758
16590W        W84995  31.142  42.367   3.168
16591W        W84996  32.472  21.598   0.978
16592W        W84997   2.017  15.125   1.421
16593W        W84998  39.140   0.982   2.448
16594W        W84999   9.302  29.792   2.750
16595W        W85000  44.337  29.079  13.569
16596W        W85001  34.060  17.749  14.305
16597W        W85002   3.219  32.333  14.400
16598W        W85003  30.359  43.507   2.536
16599W        W85004  24.947  29.665   3.766
16600W        W85005  32.495  41.537  13.425
16601W        W85006   4.654  12.149  11.538
16602W        W85007   6.572   9.263   2.803
16603W        W85008   6.358  13.353   2.707
16604W        W85009   9.282  42.224  11.595
16605W        W85010   2.437  20.139   4.191
16606W        W85011   3.641  32.450  12.076
16607W        W85012   6.721   0.875  11.988
16608W        W85013  17.533  43.487   3.378
16609W        W85014  39.991  35.124   1.412
16610W        W85015  37.273   2.406   0.431
16611W        W85016  23.217  22.477  14.920
16612W        W85017   0.243   3.933  10.699
16613W        W85018  14.219  15.092  13.685
16614W        W85019  41.115  28.155   1.357
16615W        W85020  22.052  14.582  14.470
16616W        W85021  42.990  12.831  14.826
16617W        W85022  36.500  43.785  10.637
16618W        W85023  26.532   2.316  14.968
16619W        W85024   0.889  44.587  13.509
16620W        W85025  39.361  23.675   4.148
16621W        W85026   1.832  25.167  10.738
16622W        W85027   2.404  27.081   1.780
16623W        W85028  41.412   6.808  11.136
16624W        W85029  22.789   8.815   3.183
16625W        W85030  36.484  14.339  14.586
16626W        W85031  34.893  18.206   4.995
16627W        W85032  18.642   2.755   1.948
16628W        W85033  36.604   9.832  12.970
16629W        W85034  13.170  38.542   4.569
16630W        W85035  42.873  26.252   2.464
16631W        W85036  23.635   0.369   1.687
16632W        W85037  30.131   5.755  14.370
16633W        W85038  36.799  43.874  13.922
16634W        W85039  13.620  35.338  10.602
16635W        W85040  44.280  16.808   0.016
16636W        W85041  24.652   9.645  12.107
16637W        W85042   3.870  38.693  13.896
16638W        W85043   2.597   0.215   0.386
16639W        W85044  36.497   5.486  12.823
16640W        W85045  15.641   5.952   2.182
16641W        W85046  31.474   0.693   3.860
16642W        W85047  14.298  37.115  10.675
16643W        W85048   4.702   6.194   5.166
16644W        W85049   5.558  26.145  14.790
16645W        W85050   6.962  22.819   4.551
16646W        W85051  21.851  43.895  11.193
16647W        W85052  12.250  43.000   2.090
16648W        W85053   8.746  26.569   4.566
16649W        W85054  15.483  22.032  13.122
16650W        W85055  16.121   0.826  11.216
16651W        W85056  17.338  35.086  12.450
16652W        W85057  43.538  15.678  11.577
16653W        W85058  39.381   7.707   2.785
16654W        W85059  34.916  16.104  11.624
16655W        W85060  15.130   8.548  13.509
16656W        W85061  27.225   0.304  12.809
16657W        W85062  42.351  44.458   1.510
16658W        W85063  34.479  44.672  10.711
16659W        W85064  16.552  35.518  12.337
16660W        W85065   8.798  14.100  13.818
16661W        W85066  11.530  27.501  12.022
16662W        W85067  24.524  39.990   2.888
16663W        W85068  33.577  42.475  12.198
16664W        W85069  14.335  23.276  14.984
16665W        W85070   6.806   9.843  14.380
16666W        W85071  41.337  21.451   1.813
16667W        W85072  42.818  13.809   1.250
16668W        W85073  39.929  37.461  10.163
16669W        W85074   8.085  31.051   2.805
16670W        W85075  12.820  18.045  12.539
16671W        W85076  44.064  25.646  13.471
16672W        W85077  29.176  22.513  11.674
16673W        W85078   5.403  36.562  11.294
16674W        W85079  40.238   1.216   4.820
16675W        W85080  30.975  23.798  11.560
16676W        W85081   2.386  14.053   2.316
16677W        W85082  43.431  34.926  14.204
16678W        W85083   0.268  37.190  10.179
16679W        W85084  41.751  31.183   1.744
16680W        W85085   2.547  23.020  11.667
16681W        W85086  28.653  23.505  13.044
16682W        W85087   2.258   5.023   2.244
16683W        W85088  25.991  32.924   1.726
16684W        W85089  23.018  37.378   3.962
16685W        W85090   2.496  20.244  14.105
16686W        W85091   4.576  20.391   4.609
16687W        W85092  14.118  37.234   2.767
16688W        W85093  31.847  37.019  12.913
16689W        W85094  13.670  40.831   2.310
16690W        W85095   8.606  13.283   1.759
16691W        W85096  29.426   9.818   1.295
16692W        W85097  22.579   6.875   3.595
16693W        W85098  25.881  30.110  11.564
16694W        W85099  40.635  27.429  12.425
16695W        W85100  13.701  21.766   4.822
16696W        W85101  21.318  12.695  11.699
16697W        W85102   5.685  28.028  13.492
16698W        W85103  22.139  29.156  12.954
16699W        W85104   6.395   5.714  14.552
16700W        W85105  12.362  19.658   3.204
16701W        W85106  21.984   0.829   2.670
16702W        W85107  13.749  40.388   3.819
16703W        W85108  44.746   0.522  10.648
16704W        W85109   6.991   2.965  14.310
16705W        W85110  43.984  12.867  14.456
16706W        W85111  33.220  25.172   5.129
16707W        W85112  44.342  31.053   3.784
16708W        W85113   4.572  22.287  14.906
16709W        W85114  10.246  11.099  13.423
16710W        W85115  10.920  25.561   0.406
16711W        W85116  34.403  21.986  11.557
16712W        W85117  41.477  19.845  11.915
16713W        W85118  10.368  31.309  14.552
16714W        W85119  40.516  34.530   3.183
16715W        W85120   3.872  28.981  10.615
16716W        W85121  39.557  35.307  12.893
16717W        W85122   8.607  10.273  10.820
16718W        W85123  26.207   8.760  14.443
16719W        W85124  21.131  33.227  11.314
16720W        W85125  19.287  30.687  14.332
16721W        W85126  24.606  13.330   1.457
16722W        W85127  32.548  25.608  12.100
16723W        W85128   9.288  17.623  13.325
16724W        W85129  10.463  41.959   5.170
16725W        W85130  38.578   8.456   3.570
16726W        W85131  44.054  35.072   3.684
16727W        W85132  30.034  25.105   2.147
16728W        W85133  38.589  24.709  12.428
16729W        W85134  35.943  18.203  12.945
16730W        W85135  13.582  20.289   3.327
16731W        W85136  29.375  31.420  12.547
16732W        W85137  30.967  23.666   3.351
16733W        W85138   9.403  35.344  12.954
16734W        W85139  11.186  11.362   1.788
16735W        W85140  42.471  13.606  11.926
16736W        W85141  13.144  40.938   2.247
16737W        W85142   1.188   2.319  14.404
16738W        W85143   0.742  18.482  11.130
16739W        W85144  13.859  24.472  11.807
16740W        W85145  18.054   9.131   4.163
16741W        W85146  10.861  24.258   2.186
16742W        W85147  20.002  41.948  12.554
16743W        W85148  38.625  20.073   0.908
16744W        W85149  24.036   8.816   1.786
16745W        W85150  33.286   5.196   2.809
16746W        W85151  21.791  33.516  11.902
16747W        W85152   0.711  41.249  13.881
16748W        W85153  15.301   0.420  14.862
16749W        W85154  26.688  22.098  14.211
16750W        W85155   0.724  37.810   4.184
16751W        W85156  20.787  34.496   4.958
16752W        W85157   7.073  36.648   1.326
16753W        W85158  30.527  37.636  12.626
16754W        W85159  27.645   7.953   5.055
16755W        W85160  41.824  42.120   0.532
16756W        W85161  26.643  36.010   3.195
16757W        W85162  26.238  10.733   2.339
16758W        W85163  43.391  38.135   1.466
16759W        W85164  39.659  18.912   4.401
16760W        W85165  33.189  27.537   0.766
16761W        W85166  23.303  19.742  11.310
16762W        W85167  14.057  38.831  14.553
16763W        W85168  24.371  28.225  13.796
16764W        W85169  29.071  16.798  14.555
16765W        W85170   8.593   2.047  11.521
16766W        W85171   5.187  17.155  14.901
16767W        W85172  17.042   9.321  14.856
16768W        W85173   9.396  11.711  14.665
16769W        W85174  12.012  30.806   4.973
16770W        W85175  41.204  29.004  11.575
16771W        W85176  35.815  34.395   4.330
16772W        W85177  11.202  21.704  12.090
16773W        W85178  10.834  13.374   4.325
16774W        W85179   2.726  13.154   3.292
16775W        W85180  29.057  28.343   1.186
16776W        W85181  22.866  37.713  10.817
16777W        W85182  14.181  29.531   3.762
16778W        W85183   8.677   7.807  14.753
16779W        W85184   8.925  18.797   3.180
16780W        W85185   0.928  38.029   4.598
16781W        W85186   2.249  11.614  11.972
16782W        W85187  19.814  21.781   3.242
16783W        W85188  43.519   6.108  12.057
16784W        W85189   6.821  30.469   4.485
16785W        W85190  13.809  28.718  14.574
16786W        W85191  31.847  14.339   3.971
16787W        W85192  21.726  41.892  10.485
16788W        W85193  26.822   1.282   2.834
16789W        W85194   5.957   5.222  13.930
16790W        W85195  41.298  16.164  11.907
16791W        W85196  39.144  20.239  12.247
16792W        W85197   3.974  33.339  11.881
16793W        W85198  11.347  32.451   4.636
16794W        W85199  44.926   0.400   3.204
16795W        W85200   9.319  11.404   2.852
16796W        W85201  15.343  44.606   2.387
16797W        W85202  41.406  39.123   1.011
16798W        W85203  36.577   5.630   2.844
16799W        W85204  11.367  25.445  14.956
16800W        W85205  40.321  40.667   4.662
16801W        W85206   7.374  26.631   0.362
16802W        W85207  20.726   6.249   3.630
16803W        W85208  31.550  31.625  14.421
16804W        W85209  34.675  12.806   1.828
16805W        W85210  21.051  13.071   1.179
16806W        W85211   4.342  39.704   1.215
16807W        W85212  28.683   6.775  11.874
16808W        W85213   6.850  39.460  13.033
16809W        W85214  33.611  34.674   2.857
16810W        W85215  44.868   3.521  11.487
16811W        W85216  11.209   3.966  10.541
16812W        W85217   3.221  33.937   1.636
16813W        W85218   7.822  16.288  11.753
16814W        W85219  15.643  38.064  14.295
16815W        W85220  39.554   8.730  10.942
16816W        W85221  17.230  24.361   0.372
16817W        W85222  32.017  31.850   2.135
16818W        W85223  36.919  42.829  14.038
16819W        W85224  25.677  26.779  12.641
16820W        W85225  38.973  36.099  13.403
16821W        W85226  37.026  26.704   3.101
16822W        W85227   4.816   7.734  10.495
16823W        W85228   3.918  23.755  14.030
16824W        W85229  24.176   6.660  14.794
16825W        W85230  23.652  23.996  11.540
16826W        W85231  35.574   4.211  13.548
16827W        W85232  11.858   4.679  12.679
16828W        W85233  15.151  24.770   2.355
16829W        W85234  36.714  39.454   3.072
16830W        W85235  38.910   5.840  10.723
16831W        W85236  22.649  28.655   0.890
16832W        W85237  39.426  29.079  11.231
16833W        W85238   0.829  38.593  14.038
16834W        W85239   5.260  42.540   2.827
16835W        W85240  35.967  15.626   3.884
16836W        W85241  41.487  30.621  10.930
16837W        W85242  21.245  11.911   4.638
16838W        W85243   1.223  11.940   2.826
16839W        W85244   4.401  26.914   1.372
16840W        W85245  29.020  37.847   0.557
16841W        W85246  14.690  17.741   2.140
16842W        W85247   1.934  38.411  13.008
16843W        W85248  32.058  32.125   3.549
16844W        W85249  24.136  27.648  12.486
16845W        W85250  35.011  23.943  12.420
16846W        W85251  36.976  44.435  10.316
16847W        W85252   7.860   5.882  14.986
16848W        W85253   7.685  18.537   2.781
16849W        W85254  24.534  10.708   2.557
16850W        W85255  27.225  21.534   1.355
16851W        W85256  31.181  14.396  13.381
16852W        W85257  40.718  43.847   2.319
16853W        W85258  27.032  19.020   2.197
16854W        W85259  27.709  15.650   4.355
16855W        W85260  37.404  39.267  14.412
16856W        W85261   0.513  22.211  12.542
16857W        W85262  18.792  41.955   3.125
16858W        W85263  17.237  36.830  12.390
16859W        W85264   1.405  40.787   2.418
16860W        W85265  28.513  14.248  10.197
16861W        W85266   1.249  28.864   0.462
16862W        W85267  29.323  30.384  14.454
16863W        W85268   1.386  11.168  13.661
16864W        W85269  31.394  18.034  11.932
16865W        W85270  25.492  41.453  11.020
16866W        W85271  15.635  37.520  12.425
16867W        W85272  28.689  36.544   0.304
16868W        W85273   7.419  19.019  12.135
16869W        W85274  33.320  32.614   3.499
16870W        W85275  32.447  11.842  13.968
16871W        W85276  38.837  44.612  14.938
16872W        W85277   4.515  41.192  12.881
16873W        W85278  13.801  28.737  11.614
16874W        W85279   4.450   3.293   1.306
16875W        W85280  44.579  28.623  13.394
16876W        W85281   2.346  13.246   3.682
16877W        W85282   9.176  17.797   3.041
16878W        W85283  28.836  17.695   0.692
16879W        W85284   4.446  29.278   2.554
16880W        W85285  17.271   3.148   4.200
16881W        W85286  10.269   2.693   0.767
16882W        W85287   1.076  12.341  13.049
16883W        W85288  43.471   3.245   4.750
16884W        W85289  17.161  37.112   2.308
16885W        W85290  32.892  19.143   2.484
16886W        W85291   4.917  20.372   4.200
16887W        W85292  44.813  40.890   3.798
16888W        W85293  43.974  30.145   4.494
16889W        W85294   6.873  10.134  13.492
16890W        W85295  21.729  44.842  12.812
16891W        W85296   8.039  40.731   4.925
16892W        W85297  42.368  30.067  12.556
16893W        W85298  38.857  42.507   2.082
16894W        W85299  10.495  43.611   4.267
16895W        W85300  26.150  44.852   3.884
16896W        W85301  23.981   5.041   2.990
16897W        W85302  15.989  38.991   5.085
16898W        W85303  11.262  44.561   2.720
16899W        W85304  40.312  42.968   2.308
16900W        W85305  17.158  37.015   0.177
16901W        W85306  29.925   2.336  13.518
16902W        W85307  29.979  27.323   2.577
16903W        W85308  14.877  24.990   0.704
16904W        W85309  25.685  22.407  12.007
16905W        W85310  23.535  12.514  11.167
16906W        W85311   6.374  13.154  11.218
16907W        W85312  13.075  42.022   1.590
16908W        W85313  44.350  15.960   5.141
16909W        W85314  44.565  14.051   4.623
16910W        W85315  26.303  38.833  11.065
16911W        W85316  32.923  16.727  10.598
16912W        W85317   8.896   0.627  11.285
16913W        W85318  43.583  19.708  12.488
16914W        W85319  20.964   6.159  12.589
16915W        W85320  13.898  21.016   2.267
16916W        W85321  25.068   5.838  12.106
16917W        W85322  44.261   8.915   2.096
16918W        W85323  19.045  15.544   1.449
16919W        W85324  17.540  37.986  14.346
16920W        W85325   5.406  33.076   0.998
16921W        W85326   2.897  43.335  11.008
16922W        W85327  26.836  23.306   0.819
16923W        W85328   5.532  22.330  12.499
16924W        W85329   9.346  35.867  13.108
16925W        W85330   9.580  12.228   1.147
16926W        W85331  15.858  30.516  11.063
16927W        W85332  26.772  19.312   3.837
16928W        W85333   3.504  11.173  13.048
16929W        W85334  18.192  41.351  13.630
16930W        W85335  44.724  24.502  14.927
16931W        W85336  30.382  43.129  11.503
16932W        W85337  12.322   9.954  14.854
16933W        W85338  28.975  22.001  11.667
16934W        W85339  27.135  22.334  11.980
16935W        W85340  43.310  32.936   1.914
16936W        W85341  30.850   7.602   0.023
16937W        W85342  38.762  21.759   1.962
16938W        W85343  21.737  32.410  13.364
16939W        W85344  19.038  20.444  11.067
16940W        W85345   9.700  10.907  11.305
16941W        W85346  27.273  33.886  12.516
16942W        W85347   7.971  19.154   1.726
16943W        W85348   3.303  38.784  11.057
16944W        W85349  19.516  41.335   3.216
16945W        W85350  31.956  24.400  14.954
16946W        W85351   2.648  31.266  11.995
16947W        W85352   2.869   0.399  13.470
16948W        W85353  36.912  34.660  11.036
16949W        W85354  17.633   4.634  13.140
16950W        W85355  32.483  27.218   1.054
16951W        W85356  22.760  30.096   0.828
16952W        W85357  37.408   4.609   0.455
16953W        W85358  40.850  43.740   0.315
16954W        W85359  41.849  44.000   3.492
16955W        W85360   3.784  30.669  12.567
16956W        W85361  12.795  34.817   2.938
16957W        W85362  28.780  13.592  14.798
16958W        W85363  36.961  42.840   3.715
16959W        W85364  27.685  34.255   4.015
16960W        W85365  40.398  12.602   2.498
16961W        W85366  21.567   6.434  13.490
16962W        W85367  14.725  16.640  14.396
16963W        W85368  24.755  43.795   4.183
16964W        W85369  17.160  35.038  13.022
16965W        W85370  33.824  42.784  13.850
16966W        W85371  33.400  13.248   2.880
16967W        W85372  10.421  37.091  10.890
16968W        W85373  10.848  31.443  13.916
16969W        W85374  13.216  23.888   1.334
16970W        W85375  37.930   4.002  12.522
16971W        W85376  42.113   8.910  12.358
16972W        W85377  33.539  19.703  14.076
16973W        W85378  15.734  17.641  12.666
16974W        W85379  20.302   4.925  13.336
16975W        W85380  28.604  39.674  14.325
16976W        W85381   7.195  19.151  11.701
16977W        W85382  43.965   5.018  13.913
16978W        W85383   2.782   6.242  11.099
16979W        W85384  32.588  14.519   2.794
16980W        W85385   4.404  21.863   0.198
16981W        W85386  42.256  31.550  11.589
16982W        W85387  37.509  30.408   0.420
16983W        W85388  17.313   8.867  13.418
16984W        W85389  12.227   7.840   4.614
16985W        W85390  34.566   1.661   3.799
16986W        W85391  43.264  11.996   2.423
16987W        W85392  17.124   8.183  14.070
16988W        W85393  44.844  12.073  13.797
16989W        W85394  20.263   4.317  11.710
16990W        W85395  25.642  43.418   1.282
16991W        W85396  31.591  11.236   1.814
16992W        W85397   4.484  17.787   3.319
16993W        W85398   8.976   0.765  12.601
16994W        W85399  35.080  42.495  13.396
16995W        W85400   5.874  42.380  14.791
16996W        W85401  39.702  34.601  10.539
16997W        W85402  33.054   3.494   1.451
16998W        W85403  16.405  10.157   0.864
16999W        W85404  17.740  10.135   5.463
17000W        W85405  38.566  16.618  13.589
17001W        W85406  44.000  30.476  11.788
17002W        W85407  33.605  43.970   0.002
17003W        W85408  43.032  28.413  14.599
17004W        W85409  32.010  33.365  13.584
17005W        W85410  22.250  37.180   0.358
17006W        W85411  33.380  35.078  12.232
17007W        W85412  16.437  22.537  14.792
17008W        W85413  10.132  34.395  14.345
17009W        W85414  44.940   8.571  14.887
17010W        W85415  41.385   6.168   2.793
17011W        W85416  23.079   6.779   2.822
17012W        W85417  31.498  15.756  12.388
17013W        W85418  17.688   6.429   1.879
17014W        W85419  15.632  42.250   0.845
17015W        W85420  43.966  44.364   4.822
17016W        W85421  27.917  12.748  13.013
17017W        W85422  11.920   5.597  12.589
17018W        W85423   6.249  29.974   9.744
17019W        W85424  18.874  27.643   1.138
17020W        W85425   3.028   7.367  12.454
17021W        W85426  41.571  12.851  14.352
17022W        W85427  41.352  42.539   3.268
17023W        W85428  41.510  18.863   2.329
17024W        W85429  15.084  27.717  12.717
17025W        W85430   4.809  12.959  11.228
17026W        W85431  30.162  11.262  10.706
17027W        W85432  23.744  18.997   1.352
17028W        W85433   7.768  31.139   3.294
17029W        W85434  27.751   1.517   0.107
17030W        W85435   6.965  23.571  11.019
17031W        W85436  32.692  26.121  10.561
17032W        W85437   6.325  26.457   1.420
17033W        W85438  20.504  30.098  10.749
17034W        W85439  41.765  22.273   1.718
17035W        W85440  18.369   1.744   4.527
17036W        W85441   2.180  33.360  13.611
17037W        W85442  40.438   2.347   4.214
17038W        W85443  40.143  38.015   3.249
17039W        W85444   5.371  16.496  13.081
17040W        W85445  19.725  43.211   4.163
17041W        W85446  42.606  11.311  10.686
17042W        W85447  40.303  29.042  14.829
17043W        W85448  34.618   5.680   1.270
17044W        W85449  12.637  11.351  14.955
17045W        W85450  16.991   1.365   4.611
17046W        W85451  17.561  34.214   0.643
17047W        W85452  38.763  36.787   1.303
17048W        W85453  11.710  41.534  10.612
17049W        W85454  10.250  25.517   5.167
17050W        W85455  18.700   7.210  14.837
17051W        W85456  39.421  42.759  12.000
17052W        W85457  32.897  33.006   4.180
17053W        W85458  40.628  40.025  12.057
17054W        W85459   2.733  22.968   3.167
17055W        W85460  12.379  33.038   1.755
17056W        W85461  30.083  21.612   4.115
17057W        W85462  29.987  36.560  10.486
17058W        W85463  37.283  43.813  13.779
17059W        W85464   9.362  12.129  12.464
17060W        W85465  26.501  42.953   2.932
17061W        W85466   6.332  27.814   2.333
17062W        W85467  39.042   8.798  14.766
17063W        W85468  36.941  38.470   3.534
17064W        W85469  30.400  40.726   2.262
17065W        W85470  11.103  33.989   1.182
17066W        W85471  31.009  38.485  13.993
17067W        W85472  26.510   8.185  14.838
17068W        W85473   4.874   2.768   3.375
17069W        W85474  21.498  16.888  13.640
17070W        W85475  36.514   4.488   1.053
17071W        W85476   4.768  10.252  11.734
17072W        W85477  43.040  38.122  13.315
17073W        W85478  13.675   4.716   2.294
17074W        W85479  25.664  16.069   4.334
17075W        W85480   7.718  18.014   3.801
17076W        W85481  38.865  17.480  12.481
17077W        W85482  38.487  40.155   2.319
17078W        W85483  11.216  28.454   3.029
17079W        W85484  44.359   4.240   2.436
17080W        W85485  19.356  12.286  14.013
17081W        W85486   9.306  32.283  11.684
17082W        W85487  13.332  33.546   4.465
17083W        W85488  31.432  17.324   0.168
17084W        W85489   3.354  23.575   4.463
17085W        W85490  31.725  34.866   0.401
17086W        W85491  41.746  23.216   0.764
17087W        W85492  39.934  38.128  11.429
17088W        W85493   8.809  12.708  13.891
17089W        W85494  12.568  20.201  13.436
17090W        W85495  37.484  24.386   0.243
17091W        W85496  36.884  21.561   3.652
17092W        W85497  24.868  33.745   1.850
17093W        W85498   7.677  44.954  14.016
17094W        W85499  16.011  21.997  13.281
17095W        W85500  14.767   3.492  11.508
17096W        W85501   0.472  31.995  14.910
17097W        W85502  23.774   3.773  14.635
17098W        W85503  12.152  31.951   2.509
17099W        W85504  33.648  32.579   0.761
17100W        W85505  28.592  22.637  12.892
17101W        W85506  13.807  30.082   4.921
17102W        W85507  18.708  13.347   4.908
17103W        W85508  28.448  16.031  10.296
17104W        W85509  41.544  35.994   2.613
17105W        W85510  24.565  29.584  13.531
17106W        W85511  33.948  43.053   3.098
17107W        W85512   4.939  21.164  11.703
17108W        W85513  18.118   6.443   2.223
17109W        W85514   4.116   7.866   1.417
17110W        W85515  16.339  22.951  13.428
17111W        W85516  16.077  38.407  11.478
17112W        W85517  38.891  33.135   4.070
17113W        W85518  20.584   5.767   4.543
17114W        W85519  42.927  44.972  14.908
17115W        W85520  41.314  26.562  10.801
17116W        W85521  22.090  27.227   2.379
17117W        W85522   5.943  18.891   3.594
17118W        W85523  20.727  37.566   0.440
17119W        W85524   5.694   2.969  13.932
17120W        W85525  21.139   1.726  12.572
17121W        W85526  14.114  23.522  11.706
17122W        W85527  42.930  10.288   4.467
17123W        W85528  24.109  20.958   0.794
17124W        W85529  17.273  37.963   2.726
17125W        W85530  44.679  27.099   1.685
17126W        W85531  40.423  23.133  11.710
17127W        W85532   3.219  20.314   4.636
17128W        W85533  12.860  27.472   0.392
17129W        W85534  24.652  25.760   4.139
17130W        W85535  23.095  26.174  11.102
17131W        W85536  14.607  24.041  14.036
17132W        W85537   7.480  13.789  14.847
17133W        W85538   5.228  19.062   4.209
17134W        W85539  27.923  11.086  14.049
17135W        W85540  37.562  42.464  14.064
17136W        W85541  23.154  43.261  14.375
17137W        W85542  25.656  14.689   4.115
17138W        W85543  41.487  12.060   1.035
17139W        W85544  35.189  29.151  12.494
17140W        W85545   2.699  24.844  10.335
17141W        W85546   8.010  11.077   3.217
17142W        W85547  20.056  39.202  12.516
17143W        W85548  23.954  17.299  14.256
17144W        W85549  38.963   5.269   2.682
17145W        W85550  19.156  10.310   3.023
17146W        W85551   3.162  36.346   1.734
17147W        W85552   1.021   0.362  14.305
17148W        W85553  13.419  37.327  14.091
17149W        W85554  18.618  15.713  14.760
17150W        W85555  16.179   8.770   4.068
17151W        W85556  31.278  25.535   2.563
17152W        W85557  21.816  22.508   2.288
17153W        W85558   4.698   2.905   2.902
17154W        W85559  44.309   4.426   5.143
17155W        W85560   9.882  29.656  14.777
17156W        W85561  37.056   7.606   2.323
17157W        W85562  31.234  37.502  12.139
17158W        W85563  20.288  31.454  10.337
17159W        W85564  44.072  20.077   0.241
17160W        W85565  25.192  40.145  13.393
17161W        W85566  17.064  29.034  10.541
17162W        W85567  38.200   3.139   0.922
17163W        W85568  35.641   9.817  12.400
17164W        W85569  42.807  22.148   3.467
17165W        W85570  35.153   0.488   1.803
17166W        W85571  10.752   5.396   4.248
17167W        W85572  31.547  22.019  12.310
17168W        W85573  10.898  27.059  14.371
17169W        W85574  38.606   3.781   1.439
17170W        W85575  32.615  35.502   1.221
17171W        W85576  33.129   7.747   0.512
17172W        W85577  31.352  27.602  14.451
17173W        W85578  36.076  35.813  14.036
17174W        W85579  23.702  30.567  10.263
17175W        W85580   8.703  12.514   0.338
17176W        W85581   6.653   1.233  14.899
17177W        W85582  33.464   5.675  13.849
17178W        W85583  28.945  17.194  12.110
17179W        W85584  32.902  19.351   3.345
17180W        W85585  31.182  27.648   3.267
17181W        W85586  25.720   1.733  11.985
17182W        W85587  22.426  33.007   2.190
17183W        W85588  41.962  22.731  11.183
17184W        W85589  40.334  41.531  14.744
17185W        W85590  31.153  42.721  12.338
17186W        W85591  19.847  24.192  13.930
17187W        W85592   1.913  36.962   1.646
17188W        W85593  25.451  21.042   1.835
17189W        W85594  10.611  29.435  12.254
17190W        W85595   2.592  14.481  11.124
17191W        W85596  40.453  35.574  14.483
17192W        W85597  30.901  35.433  11.677
17193W        W85598   0.632  36.907  11.581
17194W        W85599  36.283  10.276  11.475
17195W        W85600  22.782  43.716  13.477
17196W        W85601  24.108  26.545  10.105
17197W        W85602  31.473  16.855   3.263
17198W        W85603  14.134  39.747  13.058
17199W        W85604  29.044  35.328  14.474
17200W        W85605   5.457  12.680   0.425
17201W        W85606  19.592  44.360  14.358
17202W        W85607  25.895  36.024   0.978
17203W        W85608  18.672  15.771  13.761
17204W        W85609  24.437  44.886   1.147
17205W        W85610  11.061  15.903   0.420
17206W        W85611   5.231  39.947  13.464
17207W        W85612  34.142  27.177  12.421
17208W        W85613  15.212  39.858  11.255
17209W        W85614  36.465   5.027   0.373
17210W        W85615  10.071  11.255  12.009
17211W        W85616   0.758  39.894   1.249
17212W        W85617  36.944  13.232   1.691
17213W        W85618  25.665  43.896   4.076
17214W        W85619  15.189  13.121   2.133
17215W        W85620   0.279  14.049  12.870
17216W        W85621  32.603  42.535  14.444
17217W        W85622  43.451  35.959   3.758
17218W        W85623  42.033  25.705   2.196
17219W        W85624   6.516  30.568   4.113
17220W        W85625  24.014   3.796  12.034
17221W        W85626   7.734  26.616  13.953
17222W        W85627  17.997   4.403  11.149
17223W        W85628  20.075   3.863   3.719
17224W        W85629  37.549  32.477   1.926
17225W        W85630  17.564  17.512  14.351
17226W        W85631  11.877  42.812   0.227
17227W        W85632  42.820  22.053   1.100
17228W        W85633  19.499  18.512  11.158
17229W        W85634  15.057  25.708   1.306
17230W        W85635  42.228  23.051   4.630
17231W        W85636  16.302  11.172   5.757
17232W        W85637  44.872  37.107   1.742
17233W        W85638  24.697  12.743  14.801
17234W        W85639   2.206  36.932  10.658
17235W        W85640   6.651  32.799   4.024
17236W        W85641  39.991  27.549  11.540
17237W        W85642  12.349  42.247   4.750
17238W        W85643  42.390  10.079   4.541
17239W        W85644  44.009  43.278   4.672
17240W        W85645   9.682  28.413   0.359
17241W        W85646  16.164  30.416  13.302
17242W        W85647   0.083  41.251  14.586
17243W        W85648  30.126  11.105  11.958
17244W        W85649  15.782  33.873  13.612
17245W        W85650  43.739  36.354  10.700
17246W        W85651  33.204  19.028   0.186
17247W        W85652   3.232  23.513  14.247
17248W        W85653  30.894   9.560  12.697
17249W        W85654  14.665   8.412  12.118
17250W        W85655  32.113  37.486   2.337
17251W        W85656   8.938  44.537  14.835
17252W        W85657  39.438  19.665   3.366
17253W        W85658  33.601  14.566   2.263
17254W        W85659  19.995  11.142  12.118
17255W        W85660  22.954   9.174  12.619
17256W        W85661  28.134  15.506   5.214
17257W        W85662  19.672  26.192  11.459
17258W        W85663  36.594  30.395   1.830
17259W        W85664  19.565  23.636   0.422
17260W        W85665   1.681  42.754  11.130
17261W        W85666  24.004  16.606  12.922
17262W        W85667  20.105  44.246   3.348
17263W        W85668  39.164  43.885  13.626
17264W        W85669  16.298  34.558   4.157
17265W        W85670  22.806  37.887   1.805
17266W        W85671  32.476  25.246   1.322
17267W        W85672  23.553  36.031   2.268
17268W        W85673  42.327  38.487  13.558
17269W        W85674  19.155  26.704  14.283
17270W        W85675   5.265  26.661  14.437
17271W        W85676  15.611  14.505   2.832
17272W        W85677  33.587  17.865  14.507
17273W        W85678  38.938   1.389  11.076
17274W        W85679   8.446  20.230  13.027
17275W        W85680  20.247  16.337   1.709
17276W        W85681  38.639   9.904   0.536
17277W        W85682  20.492  32.351   1.396
17278W        W85683   2.798   9.106   3.323
17279W        W85684  14.040  13.231   2.831
17280W        W85685   0.210  24.005  13.598
17281W        W85686  20.172  19.288  11.436
17282W        W85687   5.040  40.889   0.687
17283W        W85688  20.593  14.098   2.590
17284W        W85689  27.654  26.267  14.489
17285W        W85690   6.494  18.100   4.479
17286W        W85691  15.982   3.844   2.041
17287W        W85692   9.195   6.571  13.165
17288W        W85693  29.452  12.285  10.920
17289W        W85694   1.498   2.019   4.721
17290W        W85695  25.735   2.257  14.517
17291W        W85696  14.071  28.979  11.961
17292W        W85697   8.286  14.879  14.421
17293W        W85698   4.852  35.294   0.752
17294W        W85699  33.473  23.167  10.523
17295W        W85700  34.456  26.811  10.339
17296W        W85701  22.612   2.021   2.852
17297W        W85702  37.646  16.342   4.683
17298W        W85703  31.730  28.496  13.430
17299W        W85704  38.754  44.451  11.450
17300W        W85705  11.830  16.977   9.734
17301W        W85706   8.782  40.716   2.890
17302W        W85707  19.117  18.611   4.900
17303W        W85708  24.025  12.298  11.175
17304W        W85709  39.866  31.893  12.827
17305W        W85710  17.999  26.377  11.149
17306W        W85711  15.259  11.912  14.278
17307W        W85712   1.234  32.241   0.389
17308W        W85713  26.611  42.209  14.780
17309W        W85714   4.503  21.215   2.833
17310W        W85715   5.394  16.644   3.346
17311W        W85716  15.642  30.480  10.552
17312W        W85717  23.149  16.181   0.266
17313W        W85718   8.123  20.573   4.369
17314W        W85719  22.647  20.289  11.498
17315W        W85720  32.521  28.982   0.730
17316W        W85721  29.677  16.647  11.421
17317W        W85722   3.922  15.267  10.675
17318W        W85723  16.642  40.666  12.738
17319W        W85724  44.245   0.635  13.895
17320W        W85725  29.472   9.344  14.555
17321W        W85726  41.929  15.552   4.100
17322W        W85727  42.045   3.108   4.455
17323W        W85728  16.087  14.265  14.810
17324W        W85729  38.886  23.229  14.647
17325W        W85730  43.878  22.593  10.635
17326W        W85731  38.725  28.763  13.904
17327W        W85732   1.808  44.416  13.008
17328W        W85733  36.045  17.269   3.056
17329W        W85734  11.766   0.388   5.276
17330W        W85735  17.788  33.748   3.228
17331W        W85736  28.546  29.948  14.980
17332W        W85737  34.572  11.279  11.589
17333W        W85738  40.886  17.273  10.520
17334W        W85739  13.331  23.659   2.640
17335W        W85740  36.083  27.188  14.875
17336W        W85741  37.465  27.038  12.659
17337W        W85742  34.399  11.627  13.326
17338W        W85743  28.197  33.623   4.617
17339W        W85744  41.076  26.490  12.518
17340W        W85745   1.400  37.927  11.800
17341W        W85746  14.692  15.612  12.521
17342W        W85747  36.597   1.824   3.588
17343W        W85748  18.786  42.863   3.274
17344W        W85749   9.701  25.175   1.736
17345W        W85750  19.233  35.551   1.421
17346W        W85751   7.119   5.885  13.993
17347W        W85752  33.919  35.629  11.140
17348W        W85753  18.791  34.041   4.148
17349W        W85754   8.369   7.429   5.004
17350W        W85755  36.831  10.728  14.053
17351W        W85756  41.112   5.444   3.779
17352W        W85757  16.486  25.606   1.424
17353W        W85758  31.750  26.680   4.996
17354W        W85759   7.717   7.941  12.906
17355W        W85760  26.694   6.185  13.563
17356W        W85761  29.343  33.034   2.584
17357W        W85762  14.411   4.317   1.938
17358W        W85763   6.109  22.054   4.591
17359W        W85764  37.391  19.684  11.941
17360W        W85765  20.126  30.558   2.854
17361W        W85766   2.399   9.370  11.677
17362W        W85767  42.337   6.103   3.812
17363W        W85768  34.667  16.069  14.149
17364W        W85769  42.973  27.541   2.660
17365W        W85770  18.083  30.412  11.601
17366W        W85771   7.933   2.242   3.269
17367W        W85772  31.485  33.162  13.359
17368W        W85773   5.790  14.826   0.498
17369W        W85774   4.183   1.443  12.648
17370W        W85775  18.260  19.833  14.527
17371W        W85776  19.637  26.178  12.417
17372W        W85777   1.567  10.288   3.212
17373W        W85778  19.349  25.457   0.776
17374W        W85779  14.925  24.662  11.027
17375W        W85780  18.583  43.482  13.875
17376W        W85781  15.153  30.967  12.772
17377W        W85782  20.077  25.865  12.456
17378W        W85783  42.807   3.772   1.737
17379W        W85784  33.159   7.989  10.484
17380W        W85785  11.202  44.932  13.838
17381W        W85786  10.292  17.223  12.101
17382W        W85787  34.058  42.271   4.063
17383W        W85788  14.226  23.078   2.226
17384W        W85789  40.852  40.487  12.068
17385W        W85790  29.874  37.074  10.582
17386W        W85791  20.846  22.253  10.808
17387W        W85792  41.923  37.080   0.233
17388W        W85793   7.717   0.902  10.549
17389W        W85794  29.422  20.541  14.043
17390W        W85795  22.198   3.360   2.167
17391W        W85796   3.753  20.727   4.059
17392W        W85797  17.602  34.354  10.230
17393W        W85798  12.360  30.622  12.142
17394W        W85799  43.315  13.836   5.066
17395W        W85800  42.946  42.207  14.449
17396W        W85801  14.657  36.788   4.884
17397W        W85802  15.921  28.125   5.146
17398W        W85803  36.832  33.894  13.408
17399W        W85804  41.277  12.265   2.016
17400W        W85805   5.946   8.796   4.115
17401W        W85806  36.120   1.482  13.279
17402W        W85807  18.159  34.906   1.921
17403W        W85808  28.961  22.070   3.557
17404W        W85809   9.588  11.117  12.102
17405W        W85810  19.339   6.161   1.233
17406W        W85811  13.373  23.032   4.612
17407W        W85812   5.635   9.955   4.149
17408W        W85813   1.221  21.742   4.133
17409W        W85814  39.055  33.455  13.011
17410W        W85815   0.704  36.347   2.122
17411W        W85816  14.555   7.313   2.201
17412W        W85817  17.330   1.767   4.594
17413W        W85818  27.362   7.432   1.222
17414W        W85819  10.676  26.233   2.436
17415W        W85820  11.354   3.285   3.664
17416W        W85821  19.167   9.338   1.451
17417W        W85822  23.595  30.707  11.589
17418W        W85823  30.455  13.420   4.285
17419W        W85824  43.301  39.466  10.325
17420W        W85825  36.528   7.041  13.951
17421W        W85826  32.611  28.205  13.103
17422W        W85827  42.800  16.708   0.427
17423W        W85828  27.148  27.237   2.178
17424W        W85829  38.604  35.007  12.566
17425W        W85830  33.875  29.625   4.807
17426W        W85831  38.890   4.675   4.021
17427W        W85832  13.602  17.645  13.074
17428W        W85833  33.676  20.581  13.996
17429W        W85834  44.432  41.122  10.408
17430W        W85835  26.574  41.491   4.080
17431W        W85836  20.112  27.506  14.365
17432W        W85837   8.404  16.191  12.565
17433W        W85838  28.459  16.067  13.895
17434W        W85839   7.632  11.846   3.299
17435W        W85840  36.224  25.841   4.334
17436W        W85841   4.202  12.669   3.341
17437W        W85842  26.410  35.881   1.797
17438W        W85843   2.987  41.372   2.272
17439W        W85844  28.595  22.005   1.203
17440W        W85845  17.309  15.267  13.438
17441W        W85846  10.597   7.100  10.955
17442W        W85847  11.148  22.261  14.838
17443W        W85848   8.745  27.143  12.395
17444W        W85849  28.621  31.986  12.814
17445W        W85850  35.043  20.299  11.239
17446W        W85851  35.099  44.420   2.691
17447W        W85852  39.084  43.416   4.192
17448W        W85853  17.476  20.153  11.466
17449W        W85854  12.178   4.458  11.084
17450W        W85855   5.738  28.971  12.854
17451W        W85856  19.598   5.225  14.942
17452W        W85857   5.922  44.168   3.262
17453W        W85858  19.072  17.032  11.166
17454W        W85859  28.548   6.600   3.271
17455W        W85860  17.724  29.369  12.515
17456W        W85861  14.349  25.657   1.575
17457W        W85862  38.024   9.164  14.022
17458W        W85863  43.743  32.115  10.777
17459W        W85864  11.936  36.131  13.323
17460W        W85865  41.050   1.633   4.984
17461W        W85866   9.283  29.708  10.799
17462W        W85867  19.613   5.648   2.913
17463W        W85868  18.159  32.112   3.752
17464W        W85869  18.536   1.638  10.311
17465W        W85870   1.823   0.287  13.514
17466W        W85871  30.416  27.908   3.854
17467W        W85872  30.826   4.294   3.461
17468W        W85873  25.914  38.361  14.807
17469W        W85874  39.788  42.740  14.467
17470W        W85875  39.505  39.164   1.484
17471W        W85876  33.444  21.717  11.625
17472W        W85877  19.795  41.901  13.637
17473W        W85878  11.254  32.569  14.876
17474W        W85879  44.480   5.244   1.182
17475W        W85880   5.424  28.523  11.155
17476W        W85881  36.573   9.632   1.878
17477W        W85882  32.057   9.615  12.335
17478W        W85883  34.700  29.032  10.735
17479W        W85884  41.096  24.090   4.451
17480W        W85885   3.829  33.398   0.667
17481W        W85886   2.671  23.835   0.871
17482W        W85887  36.517  38.138   0.426
17483W        W85888  22.581  11.809   2.536
17484W        W85889   3.291   1.789  10.723
17485W        W85890   4.388  13.911  14.839
17486W        W85891  14.052  38.033  10.647
17487W        W85892   8.884  28.671  11.033
17488W        W85893  39.742  34.071  12.839
17489W        W85894   8.461  19.137   1.922
17490W        W85895  12.558   2.500  13.521
17491W        W85896  33.576  43.552  10.726
17492W        W85897  16.453  22.151  13.502
17493W        W85898  17.285  11.066   1.281
17494W        W85899  43.309  20.731  11.346
17495W        W85900  40.545  30.882   3.625
17496W        W85901  30.700   5.556  14.491
17497W        W85902  44.035   9.297   1.238
17498W        W85903  42.325  37.514   2.273
17499W        W85904   2.703  11.521   3.457
17500W        W85905  21.602  25.256   1.598
17501W        W85906   3.867  28.684   1.165
17502W        W85907   1.400   2.276   4.116
17503W        W85908  37.774  37.921  11.281
17504W        W85909  39.700  33.387  14.764
17505W        W85910  41.333  36.001   3.658
17506W        W85911  40.591  34.061  12.185
17507W        W85912  16.668  40.713  11.444
17508W        W85913  16.550  22.536   1.443
17509W        W85914  17.610   3.155   1.784
17510W        W85915  44.982   6.088  12.331
17511W        W85916  19.965   8.108  14.469
17512W        W85917  31.549  32.014  12.953
17513W        W85918   0.759   0.846  13.787
17514W        W85919  39.551  40.861  12.572
17515W        W85920  31.185  14.216  14.727
17516W        W85921  12.789  19.626  14.471
17517W        W85922   5.649   7.289  14.936
17518W        W85923  44.458  27.949   4.807
17519W        W85924  13.646  22.155   1.722
17520W        W85925  10.976  38.450  14.793
17521W        W85926  17.816  35.091  11.082
17522W        W85927  35.892  41.779  12.060
17523W        W85928  24.075   1.378   4.684
17524W        W85929  27.685  44.493   4.542
17525W        W85930  29.972  12.617   3.400
17526W        W85931  15.403  25.568   2.824
17527W        W85932  39.469  43.929   4.564
17528W        W85933  39.596  39.310   0.250
17529W        W85934  22.480   6.255  12.508
17530W        W85935   0.541   0.374   4.694
17531W        W85936   3.284  17.383  12.445
17532W        W85937  25.704  33.813  12.532
17533W        W85938  23.206  17.072   1.814
17534W        W85939  37.175   2.417   1.186
17535W        W85940  13.498  40.974  13.868
17536W        W85941  30.529   8.237  11.621
17537W        W85942  37.844  36.163   1.773
17538W        W85943  19.760  32.060   4.088
17539W        W85944   5.516   8.474   4.032
17540W        W85945  42.349  29.371   3.386
17541W        W85946  43.984   6.223   1.320
17542W        W85947  18.844  22.263   3.398
17543W        W85948  10.337   9.105   2.342
17544W        W85949  16.045  20.082   0.830
17545W        W85950   8.645  30.891  12.389
17546W        W85951  40.462   0.027  14.260
17547W        W85952  15.242   7.852   2.326
17548W        W85953  35.820  18.264   2.274
17549W        W85954  25.006  37.200  14.481
17550W        W85955   5.249  37.174  12.997
17551W        W85956  29.394  15.995  14.698
17552W        W85957   6.093  31.583   2.876
17553W        W85958  44.593  31.869  13.960
17554W        W85959  16.051  38.207   3.630
17555W        W85960  40.838  22.568  12.176
17556W        W85961  43.233  36.874  14.739
17557W        W85962  25.436   4.641   4.201
17558W        W85963  43.263   7.636  13.892
17559W        W85964   7.265  21.265  12.966
17560W        W85965  22.581   9.233   2.383
17561W        W85966  20.092  29.448   2.301
17562W        W85967   1.981  33.625  11.924
17563W        W85968  27.045  40.039   3.773
17564W        W85969  25.105   5.347  11.566
17565W        W85970  13.698   9.655   1.557
17566W        W85971  10.074  24.195  13.475
17567W        W85972  26.236  15.368   2.948
17568W        W85973  39.879  25.310  13.414
17569W        W85974  43.453  32.609  12.798
17570W        W85975  24.558  35.921  12.638
17571W        W85976  25.241  14.014  14.395
17572W        W85977  17.553  34.982   0.158
17573W        W85978   0.823   6.671   3.318
17574W        W85979   8.722   4.338   3.883
17575W        W85980  31.614  13.097  12.063
17576W        W85981  31.342  20.476   3.202
17577W        W85982  18.657  11.422  12.399
17578W        W85983  40.612  30.624  11.509
17579W        W85984  26.964   9.699  13.353
17580W        W85985  44.233  18.323   0.853
17581W        W85986   3.290   2.289  11.950
17582W        W85987  20.061  28.399   1.163
17583W        W85988  23.221  23.696   2.232
17584W        W85989  16.295  27.608   3.316
17585W        W85990   8.799  23.643   4.884
17586W        W85991   8.151  20.142  10.667
17587W        W85992   5.893  10.499   1.015
17588W        W85993  14.175  30.635   4.449
17589W        W85994  41.797  15.828   9.955
17590W        W85995  29.498  15.134   4.253
17591W        W85996  36.130  18.180   3.296
17592W        W85997   1.285  37.803  13.543
17593W        W85998   7.436  17.220  11.636
17594W        W85999   7.271  35.331   4.368
17595W        W86000   9.650   5.420   0.501
17596W        W86001   5.436  32.465   2.764
17597W        W86002   8.070  15.106   3.619
17598W        W86003  38.283  17.543   2.035
17599W        W86004  33.737  12.595  14.316
17600W        W86005  44.237   7.616  12.096
17601W        W86006  20.168  13.972   4.829
17602W        W86007  15.259  43.214   2.781
17603W        W86008   1.402  42.658  12.896
17604W        W86009  36.086   4.310   4.892
17605W        W86010  36.342   4.607   2.580
17606W        W86011   2.776   9.101  13.145
17607W        W86012  21.738  33.482   1.590
17608W        W86013  39.690  44.944   3.733
17609W        W86014   1.182   3.740   2.201
17610W        W86015  29.783  30.195   1.067
17611W        W86016  35.020  34.393  14.799
17612W        W86017  11.421  41.304   0.692
17613W        W86018   4.280  34.220  10.930
17614W        W86019  24.528  13.577  11.200
17615W        W86020  10.753  39.709  12.337
17616W        W86021  12.416  38.624  14.711
17617W        W86022   6.679  40.324   0.670
17618W        W86023  35.609  17.237   4.704
17619W        W86024  18.220  21.837  12.864
17620W        W86025  12.900  22.967   1.173
17621W        W86026   0.447  19.286  14.585
17622W        W86027  39.584  19.711   2.318
17623W        W86028  20.617  35.593  12.694
17624W        W86029  25.026  16.231   3.849
17625W        W86030  15.430  36.316  11.906
17626W        W86031   6.740   7.713  11.892
17627W        W86032  36.635   4.679   1.890
17628W        W86033  33.531  35.953   0.320
17629W        W86034  43.779  38.084   4.637
17630W        W86035  20.648  28.688  10.732
17631W        W86036  17.608  40.523   1.957
17632W        W86037   6.780   9.793  12.167
17633W        W86038   4.991  43.209   0.682
17634W        W86039   9.379  27.967   0.373
17635W        W86040  36.960  37.099   1.114
17636W        W86041  26.123  12.430   0.466
17637W        W86042  23.425  35.901   3.610
17638W        W86043   9.174  36.130   0.979
17639W        W86044  42.911   1.819   1.009
17640W        W86045   3.733  10.695   3.814
17641W        W86046   5.357  38.927  11.510
17642W        W86047  31.854  31.683   3.644
17643W        W86048  37.419   3.750  14.589
17644W        W86049  31.098  11.223   0.405
17645W        W86050  13.622   5.282   3.219
17646W        W86051  28.715   8.202  11.621
17647W        W86052  38.838  16.139  14.315
17648W        W86053  33.956   5.285   0.873
17649W        W86054  29.350  28.781   2.825
17650W        W86055  37.337  21.033  12.059
17651W        W86056  29.615  42.048   1.483
17652W        W86057  29.922  41.149   2.209
17653W        W86058  20.445  33.621  11.001
17654W        W86059   7.688  18.566   0.291
17655W        W86060   1.440   5.606  12.995
17656W        W86061  34.550  24.593   2.247
17657W        W86062  18.739  24.115   2.431
17658W        W86063  43.050  25.459   3.372
17659W        W86064  42.357  33.827   2.781
17660W        W86065   5.203  30.952   3.213
17661W        W86066  39.625  34.595  13.460
17662W        W86067  12.768  40.096  11.821
17663W        W86068   1.855   1.373   3.152
17664W        W86069  25.070  10.700   1.800
17665W        W86070  17.232   9.746   2.035
17666W        W86071  12.356  31.011  11.764
17667W        W86072  33.457  14.251   5.369
17668W        W86073   6.794  30.441  10.274
17669W        W86074  17.139  35.282  13.475
17670W        W86075   0.912  17.121  12.168
17671W        W86076  44.352  26.373   5.309
17672W        W86077  15.669  23.526   0.284
17673W        W86078   7.859  15.048  12.842
17674W        W86079  35.441  30.548  12.626
17675W        W86080  41.551  40.091   1.054
17676W        W86081   2.476  11.779   0.457
17677W        W86082  11.710  39.405   3.625
17678W        W86083  12.132   6.402   0.150
17679W        W86084  22.907  31.494   4.562
17680W        W86085   2.691  28.156  13.004
17681W        W86086  23.204   8.032  13.896
17682W        W86087  36.457  12.524   3.227
17683W        W86088  28.986   7.739   2.773
17684W        W86089  11.120   9.138  11.176
17685W        W86090   1.997  41.447  12.236
17686W        W86091  15.144  33.103   0.909
17687W        W86092  38.303  19.127  13.806
17688W        W86093   3.588   4.193   2.798
17689W        W86094  41.838  10.631  11.658
17690W        W86095   9.302  16.538  14.418
17691W        W86096  16.407  26.972  13.509
17692W        W86097   3.494   3.507   4.998
17693W        W86098  30.085  44.498   1.911
17694W        W86099  18.673  18.032  14.405
17695W        W86100   7.331  28.296  13.556
17696W        W86101  26.746  14.570  11.126
17697W        W86102  34.849  39.541   2.739
17698W        W86103  21.706  14.955  11.098
17699W        W86104  44.258  29.360  10.427
17700W        W86105   8.680  17.841  11.993
17701W        W86106  21.704  15.468  11.182
17702W        W86107  38.520  28.995   2.439
17703W        W86108  17.093   4.495  10.984
17704W        W86109   0.875  32.912  10.635
17705W        W86110  31.391  11.114   3.376
17706W        W86111   6.196  35.593  12.542
17707W        W86112   8.782   3.427   0.877
17708W        W86113  31.887  38.592  13.458
17709W        W86114   0.736  25.207   4.771
17710W        W86115  36.843  40.774   1.949
17711W        W86116  42.937  15.218  13.215
17712W        W86117  18.838  12.994  12.626
17713W        W86118  43.934  28.279  11.093
17714W        W86119  42.080  39.121  11.403
17715W        W86120  26.453  29.397   0.294
17716W        W86121  35.002   1.965  12.592
17717W        W86122  44.063  14.693   3.437
17718W        W86123  16.042  13.360   4.919
17719W        W86124   2.619  24.740  11.299
17720W        W86125  28.172   0.370  10.522
17721W        W86126   7.911  30.640  14.962
17722W        W86127  38.570  44.801  12.905
17723W        W86128  24.601   8.885   3.647
17724W        W86129  41.582  29.309   3.420
17725W        W86130   2.833  31.860  12.527
17726W        W86131  32.953  10.887   3.601
17727W        W86132  14.649  28.356  11.190
17728W        W86133  27.623   9.757  10.388
17729W        W86134   1.586  37.457   2.299
17730W        W86135  18.100  12.658   2.595
17731W        W86136  28.070  17.694   1.816
17732W        W86137  37.233  19.328   2.270
17733W        W86138  10.266  27.472  13.956
17734W        W86139  19.303  28.352   2.053
17735W        W86140  30.112  34.385  14.899
17736W        W86141  14.178  40.461  11.766
17737W        W86142  31.356   1.485   3.872
17738W        W86143  10.883  37.920  10.493
17739W        W86144  39.020  37.246  11.618
17740W        W86145   7.227  30.326   4.718
17741W        W86146  14.536  11.423  14.408
17742W        W86147  24.333  11.399   2.663
17743W        W86148   0.874  29.533  11.066
17744W        W86149  37.370  15.677   3.654
17745W        W86150  15.196  21.978  14.554
17746W        W86151  23.969   1.860   2.594
17747W        W86152  19.508  32.595  11.400
17748W        W86153  33.410  16.435  13.330
17749W        W86154  42.052  32.719  12.094
17750W        W86155  18.112  41.179   3.169
17751W        W86156   4.131  31.062   1.783
17752W        W86157  37.150  23.319  14.653
17753W        W86158  21.076  42.313   3.614
17754W        W86159  29.159   7.930   1.474
17755W        W86160  23.198   5.396  13.742
17756W        W86161   6.785  35.664   3.463
17757W        W86162   9.941  25.101   5.070
17758W        W86163   2.266   8.427   1.716
17759W        W86164  25.272  21.604   0.442
17760W        W86165  35.836  28.128  14.008
17761W        W86166   3.322  29.943   3.911
17762W        W86167  24.674  19.875  14.391
17763W        W86168  26.398   0.468  14.389
17764W        W86169  43.580  38.878  13.010
17765W        W86170  44.066  39.950   1.731
17766W        W86171  31.857  41.018  10.458
17767W        W86172   6.373  33.957  14.768
17768W        W86173  35.885  42.972  10.642
17769W        W86174   1.431   3.908  12.675
17770W        W86175  11.828   5.179   0.445
17771W        W86176  40.531  26.163   1.205
17772W        W86177  37.897  32.422  14.722
17773W        W86178  25.018   2.321   4.972
17774W        W86179   9.674  34.888   1.025
17775W        W86180  36.396   5.915   0.096
17776W        W86181  14.131  44.288  11.495
17777W        W86182   5.175  25.954   0.146
17778W        W86183   1.748  10.674   4.107
17779W        W86184  33.298  19.228  12.056
17780W        W86185  11.402  42.045  11.550
17781W        W86186  19.174  28.495   0.397
17782W        W86187  25.312  29.530  12.379
17783W        W86188  27.122  17.259  12.319
17784W        W86189   5.684  35.334   1.840
17785W        W86190  14.751  24.261  10.750
17786W        W86191   0.977  22.113   4.997
17787W        W86192  27.151  33.412   9.995
17788W        W86193  39.598   3.257   1.348
17789W        W86194  25.919  43.224  10.827
17790W        W86195   6.835  28.478   3.271
17791W        W86196  15.988  38.237  13.925
17792W        W86197  21.508  37.108   3.133
17793W        W86198  37.213  24.018   0.923
17794W        W86199  20.619  18.770   3.150
17795W        W86200  24.685   8.359  12.433
17796W        W86201  27.163   7.829  12.026
17797W        W86202   9.005  11.365  11.063
17798W        W86203   2.349   8.373   3.687
17799W        W86204  38.976  38.058   1.834
17800W        W86205  38.385   7.448  12.191
17801W        W86206   0.287  24.932   4.764
17802W        W86207   9.816  27.270   3.776
17803W        W86208   9.347  32.637   4.499
17804W        W86209   1.240  40.544   2.856
17805W        W86210  20.586  32.148  12.494
17806W        W86211  29.389  14.670   3.369
17807W        W86212   5.261  12.868  12.874
17808W        W86213  15.817   5.717  12.657
17809W        W86214  44.500  17.571   0.332
17810W        W86215  31.226  30.935  14.350
17811W        W86216   8.558  32.105  12.832
17812W        W86217  41.259  31.194  11.473
17813W        W86218  41.074  32.239   0.269
17814W        W86219  14.892  20.917  12.534
17815W        W86220  41.851  31.810   4.683
17816W        W86221  27.775  42.634  14.473
17817W        W86222   8.593  27.450   4.531
17818W        W86223  21.256  11.308  11.906
17819W        W86224  31.680  12.675   1.863
17820W        W86225  28.190   5.765   4.685
17821W        W86226   8.943  15.558  11.963
17822W        W86227  33.635  30.034   2.817
17823W        W86228  22.746   1.936   4.793
17824W        W86229  14.282  42.251   1.281
17825W        W86230  22.987  34.530   2.189
17826W        W86231  29.448   7.963   2.790
17827W        W86232  43.067  15.832   5.152
17828W        W86233   4.622  33.434   3.369
17829W        W86234  11.492  21.683   1.929
17830W        W86235  41.739  12.603  14.769
17831W        W86236   4.826  38.311   4.671
17832W        W86237  38.277  10.181   2.636
17833W        W86238  22.150  36.243   1.292
17834W        W86239  36.793   0.228   1.365
17835W        W86240  15.214  41.997   0.536
17836W        W86241  40.110  41.573   1.277
17837W        W86242  16.830   6.838   2.902
17838W        W86243  44.968  44.495   2.477
17839W        W86244  44.863  28.878  12.344
17840W        W86245  36.654   9.921  12.470
17841W        W86246  32.381  39.054   2.681
17842W        W86247   8.791   1.401   2.451
17843W        W86248  31.559  30.911  13.945
17844W        W86249  38.047  17.612   4.580
17845W        W86250   3.132  37.589   4.224
17846W        W86251  16.463  25.411   0.055
17847W        W86252  31.191  27.447   0.775
17848W        W86253  43.009  19.213  12.014
17849W        W86254   6.219   6.408  13.893
17850W        W86255  35.625   0.418   3.631
17851W        W86256  33.467  22.944   4.966
17852W        W86257  17.067  37.126   5.006
17853W        W86258  33.832  19.879   0.491
17854W        W86259  14.847  32.274   0.990
17855W        W86260  30.548   6.045  14.591
17856W        W86261  20.354  39.523   1.496
17857W        W86262  34.427  43.022   0.548
17858W        W86263  23.717  29.211  13.888
17859W        W86264  21.607  15.975  11.648
17860W        W86265  32.478  10.119  14.503
17861W        W86266  30.014   6.906  10.612
17862W        W86267  38.120   1.844  12.779
17863W        W86268   3.977  42.437  12.578
17864W        W86269  19.488  37.873  13.443
17865W        W86270  17.153   9.800  11.320
17866W        W86271  16.826  32.032  11.186
17867W        W86272   2.812  26.367   3.093
17868W        W86273  14.254  23.399  12.284
17869W        W86274  38.592  31.585  13.342
17870W        W86275   5.647  21.646   1.971
17871W        W86276  14.784  15.943   5.268
17872W        W86277   0.658  33.087  10.134
17873W        W86278  26.744  23.615   1.701
17874W        W86279   3.073  42.776   2.321
17875W        W86280  11.369  22.094   3.165
17876W        W86281  34.824  36.168   5.029
17877W        W86282  21.300   4.174  13.020
17878W        W86283  11.459  35.419   1.326
17879W        W86284  32.597  24.294   2.440
17880W        W86285  25.491  37.973   4.064
17881W        W86286   8.979   8.946   3.274
17882W        W86287   8.708  21.737  14.015
17883W        W86288  44.443  44.952  11.709
17884W        W86289  26.994   2.119   0.132
17885W        W86290  22.144  12.096  14.296
17886W        W86291   8.797  41.256  13.046
17887W        W86292  37.369  38.166  11.095
17888W        W86293  26.006  25.501  12.864
17889W        W86294  39.944  28.448   0.366
17890W        W86295  24.135  30.229  12.011
17891W        W86296   6.460  32.542  11.688
17892W        W86297  17.639   3.515   2.237
17893W        W86298   4.870  20.885   4.095
17894W        W86299  29.168  24.571  12.956
17895W        W86300   5.791  29.707  13.521
17896W        W86301   3.238  17.755   4.744
17897W        W86302  14.003   3.272   4.761
17898W        W86303  26.468  22.623   0.837
17899W        W86304  25.313  23.156  11.821
17900W        W86305  13.146   5.826  14.303
17901W        W86306  26.503  11.732   1.467
17902W        W86307  32.541  42.105  14.849
17903W        W86308   6.632  10.442  12.885
17904W        W86309  10.889  43.836  10.941
17905W        W86310  20.984   3.219  11.404
17906W        W86311   9.404   9.591   3.074
17907W        W86312  10.555  15.767  14.876
17908W        W86313  35.070  23.074   2.865
17909W        W86314  10.968  25.425   3.389
17910W        W86315  44.474  33.654  11.641
17911W        W86316  24.465  32.984   2.429
17912W        W86317  38.071  17.279   0.336
17913W        W86318   6.755  15.159   3.754
17914W        W86319   9.710  32.177  13.492
17915W        W86320   0.516  32.510  14.939
17916W        W86321   9.399  16.114   0.854
17917W        W86322  17.115  41.025   2.971
17918W        W86323  10.410   4.518  11.553
17919W        W86324   6.723  43.826   2.159
17920W        W86325  23.677  12.657   0.108
17921W        W86326  36.103  27.444  14.375
17922W        W86327  10.881  23.961   3.006
17923W        W86328   7.831   9.337  11.584
17924W        W86329  11.286  33.817   0.733
17925W        W86330  21.141  11.298   2.319
17926W        W86331  31.245  30.497   0.959
17927W        W86332   3.441   7.123  13.887
17928W        W86333  14.972  38.987  14.889
17929W        W86334  42.742  38.043   2.552
17930W        W86335   5.907  16.790   3.725
17931W        W86336  30.090   0.301  14.410
17932W        W86337  31.065  24.757   0.863
17933W        W86338  34.791  10.654  10.621
17934W        W86339   1.622  11.645  12.930
17935W        W86340  25.114  40.598   0.825
17936W        W86341  37.677  25.144   2.023
17937W        W86342  29.389  11.763  11.023
17938W        W86343  13.195  25.426   1.304
17939W        W86344  18.768   1.464   1.448
17940W        W86345  22.725  36.134   9.982
17941W        W86346  30.071  13.266   4.805
17942W        W86347   0.228   0.651   2.863
17943W        W86348  10.271   9.230   3.299
17944W        W86349  15.432  38.725   1.315
17945W        W86350  14.676  20.254   3.766
17946W        W86351  14.857   6.837  11.971
17947W        W86352  21.649  34.854   2.751
17948W        W86353   7.424   1.713  12.174
17949W        W86354   6.977   3.879  14.363
17950W        W86355  14.694  32.041  12.163
17951W        W86356  38.537  33.076  14.937
17952W        W86357  29.540  21.950   4.128
17953W        W86358  21.961  19.255  12.904
17954W        W86359   0.407  25.727  13.609
17955W        W86360  23.602  10.234   3.641
17956W        W86361   7.868  42.510   4.308
17957W        W86362  22.018  40.821  14.530
17958W        W86363  18.589  23.593   4.099
17959W        W86364   7.354  20.048   3.227
17960W        W86365   2.704  13.184  14.331
17961W        W86366  41.005  40.396  14.108
17962W        W86367  32.494  20.975  10.926
17963W        W86368  28.850  35.863  11.771
17964W        W86369   3.182  40.503   2.621
17965W        W86370  24.734   9.348  10.422
17966W        W86371  12.056  32.051   4.146
17967W        W86372  21.254  21.057  14.299
17968W        W86373  23.333  17.124  10.637
17969W        W86374  36.312  35.369  13.356
17970W        W86375  39.445  40.290   2.755
17971W        W86376  23.275  24.173   3.189
17972W        W86377  19.250  37.423   4.110
17973W        W86378   2.467  11.066   1.679
17974W        W86379  14.666  16.630  11.566
17975W        W86380  29.701   3.542  11.060
17976W        W86381  26.541  31.092   1.801
17977W        W86382  38.901  38.324   1.332
17978W        W86383  18.226  25.976  14.829
17979W        W86384  14.732   4.711   1.192
17980W        W86385   4.456  31.396   1.457
17981W        W86386   2.822  27.881  10.659
17982W        W86387  11.458  38.776   0.414
17983W        W86388  29.156  39.402   4.112
17984W        W86389  23.054   2.329   2.796
17985W        W86390  38.939  19.093   0.692
17986W        W86391  24.051  29.113   4.091
17987W        W86392  18.022  39.574  14.078
17988W        W86393  32.095  22.662  10.713
17989W        W86394  32.046  32.019   1.388
17990W        W86395  34.548   5.797   2.845
17991W        W86396   0.297   6.864  11.622
17992W        W86397  16.183  39.001   1.341
17993W        W86398   7.624  37.345   5.148
17994W        W86399  31.651  20.785   1.436
17995W        W86400  25.534  22.880  12.172
17996W        W86401  23.755  41.232   3.723
17997W        W86402   2.489  14.008   4.211
17998W        W86403  25.895  21.715  12.915
17999W        W86404  12.660  23.332  12.077
18000W        W86405  25.552  42.409   1.155
18001W        W86406  41.402  37.060   0.165
18002W        W86407  27.347  23.126   0.737
18003W        W86408  32.731   1.238   1.752
18004W        W86409  40.433  36.540  12.567
18005W        W86410  30.557   6.045   2.989
18006W        W86411  34.992   4.323  13.373
18007W        W86412   4.404  10.417  12.452
18008W        W86413  10.255   8.188   3.450
18009W        W86414   4.934  38.030   2.352
18010W        W86415   3.248  34.806   4.474
18011W        W86416  16.993  39.462  14.986
18012W        W86417  37.572  19.093   1.302
18013W        W86418   6.504  38.995  13.001
18014W        W86419  31.453   8.431  11.552
18015W        W86420  13.397  15.424  12.943
18016W        W86421  40.876  30.031  12.881
18017W        W86422  43.722  28.530  14.741
18018W        W86423  25.095   4.130  13.028
18019W        W86424  33.876  30.924   1.605
18020W        W86425  10.735  36.138   5.021
18021W        W86426  42.616   1.564   4.131
18022W        W86427  19.215  23.271   0.313
18023W        W86428  37.184   0.268   3.591
18024W        W86429  42.450  10.361  14.344
18025W        W86430   3.694   2.831   4.639
18026W        W86431  40.204  34.134   3.204
18027W        W86432  42.924   6.731  14.326
18028W        W86433   4.905   4.037  12.260
18029W        W86434  10.293  26.305   4.691
18030W        W86435  27.507  30.827  11.074
18031W        W86436  43.957   9.762   4.575
18032W        W86437   7.950  40.540  13.937
18033W        W86438  21.734  12.434   3.264
18034W        W86439  25.465  31.560   1.239
18035W        W86440  40.991   4.416   2.307
18036W        W86441  37.537  36.825  14.385
18037W        W86442   2.458  39.394  12.646
18038W        W86443  40.922  20.015   0.398
18039W        W86444  14.019  41.689  13.919
18040W        W86445   5.604   5.975   9.630
18041W        W86446  37.741   1.848   2.970
18042W        W86447  42.854   6.901   0.927
18043W        W86448  28.659  27.842   4.904
18044W        W86449  23.862   6.222   4.601
18045W        W86450  34.498  19.777  11.891
18046W        W86451  16.624  22.158   3.659
18047W        W86452  18.786  14.254  13.345
18048W        W86453   7.115  21.544  11.624
18049W        W86454  27.324  25.026  14.775
18050W        W86455   2.958  41.461   3.664
18051W        W86456  32.288  31.132  12.074
18052W        W86457  22.584  30.896   3.339
18053W        W86458   6.360  29.815  12.430
18054W        W86459  14.619  44.394  12.371
18055W        W86460  32.159  25.479   0.778
18056W        W86461   0.971  31.896   1.011
18057W        W86462  21.721  19.466  13.331
18058W        W86463  26.983   1.345  11.982
18059W        W86464   3.152  33.535  11.691
18060W        W86465  27.614  44.913   3.704
18061W        W86466   7.694  41.838  13.358
18062W        W86467  37.436  19.037   3.633
18063W        W86468  34.383  27.585  10.711
18064W        W86469  21.446  34.360   0.031
18065W        W86470   4.946  13.293   3.733
18066W        W86471   1.728   2.363   2.315
18067W        W86472  24.010  42.953  11.524
18068W        W86473   4.850  42.827  13.851
18069W        W86474  43.930  21.094  10.522
18070W        W86475  17.088  26.147   2.223
18071W        W86476  39.692   3.471   0.861
18072W        W86477  19.159  36.015   1.662
18073W        W86478  12.438  40.826   3.304
18074W        W86479   3.382  42.827  13.118
18075W        W86480   2.871  33.354  10.924
18076W        W86481  15.144  22.026   1.021
18077W        W86482  16.554  28.233   2.172
18078W        W86483  28.742  12.154  14.874
18079W        W86484  38.452  29.688  12.838
18080W        W86485  32.262   3.824  13.372
18081W        W86486  37.397  13.626  11.703
18082W        W86487  44.404   2.855  12.424
18083W        W86488  32.008  17.061   3.170
18084W        W86489   1.608   5.517   1.156
18085W        W86490  18.621  40.344   1.831
18086W        W86491  29.337  38.368  12.988
18087W        W86492   3.841  25.799   0.209
18088W        W86493  44.478  15.523   3.780
18089W        W86494  30.302  10.756   0.496
18090W        W86495  36.519  26.429   1.968
18091W        W86496  34.534  34.864   2.263
18092W        W86497  31.930   8.291   0.477
18093W        W86498  44.824  29.087  13.339
18094W        W86499   6.625   2.766  14.761
18095W        W86500  33.138  30.575   3.234
18096W        W86501  40.515  39.153   3.141
18097W        W86502   9.864  11.912  13.393
18098W        W86503   5.540  33.665   0.011
18099W        W86504  34.012   1.526  14.548
18100W        W86505  25.020  18.726  14.870
18101W        W86506  12.566  28.653  10.320
18102W        W86507  31.218  39.291   0.873
18103W        W86508  25.544  24.480  10.592
18104W        W86509  39.348   8.844  14.309
18105W        W86510  14.937   2.786  10.354
18106W        W86511   6.819  15.336  10.659
18107W        W86512  11.165  26.452   2.892
18108W        W86513   6.694  19.527  14.921
18109W        W86514  13.698   8.425   1.330
18110W        W86515  10.683   9.445  12.991
18111W        W86516  22.011  13.685  12.105
18112W        W86517  22.465  17.805   4.220
18113W        W86518  11.187   2.660   1.329
18114W        W86519  21.151   5.894   4.404
18115W        W86520  37.012   9.593  11.701
18116W        W86521  37.562  23.807  11.192
18117W        W86522   4.514  36.953  11.548
18118W        W86523   7.882  12.515  12.878
18119W        W86524   8.603  39.814  14.005
18120W        W86525  19.971  35.880   4.501
18121W        W86526  35.044  40.628  13.303
18122W        W86527  31.082  44.419   3.654
18123W        W86528  33.421  30.957   0.675
18124W        W86529   7.122  13.817   4.916
18125W        W86530   6.806  25.707  14.193
18126W        W86531  30.810  29.346   5.108
18127W        W86532  34.888   1.847  12.090
18128W        W86533  40.119  14.702   4.185
18129W        W86534  33.682  14.214  10.747
18130W        W86535  15.302  42.569  13.386
18131W        W86536  33.785  42.905   3.558
18132W        W86537  12.701  18.560   4.700
18133W        W86538  13.833   7.142  13.810
18134W        W86539  28.154  39.775  12.403
18135W        W86540  25.185  30.335  13.511
18136W        W86541   5.260   7.342   2.687
18137W        W86542  33.487  19.190  13.899
18138W        W86543  36.553  33.146   2.302
18139W        W86544  10.377  38.392   3.367
18140W        W86545   2.169  35.068   3.730
18141W        W86546   5.471  23.017   1.784
18142W        W86547  11.916  36.358  12.131
18143W        W86548   6.244  32.112  12.473
18144W        W86549   6.343  44.796  12.940
18145W        W86550  29.178   3.265  13.910
18146W        W86551  11.363   8.416  12.475
18147W        W86552   1.938  18.725  11.819
18148W        W86553   8.937  32.996  12.465
18149W        W86554  28.417  19.664   4.593
18150W        W86555  14.785  36.821   2.263
18151W        W86556  17.540  41.908   4.712
18152W        W86557  32.008  41.087   1.938
18153W        W86558  10.292  16.789  11.194
18154W        W86559  29.525  39.828   1.209
18155W        W86560  19.157  19.734  10.594
18156W        W86561   9.786  42.796  12.939
18157W        W86562  19.269  14.813   3.249
18158W        W86563  40.446  10.846  14.936
18159W        W86564   1.422  32.026   1.866
18160W        W86565   5.575   7.912  10.012
18161W        W86566  24.188  35.962   0.801
18162W        W86567   0.326  34.093  14.888
18163W        W86568   0.825  17.762   1.859
18164W        W86569   5.314  36.138  14.401
18165W        W86570  19.301  28.640  13.137
18166W        W86571  20.606  16.131   0.791
18167W        W86572  11.730  29.878  13.596
18168W        W86573  18.275   2.658   3.319
18169W        W86574  30.425  18.716  10.970
18170W        W86575   3.298   6.375  14.448
18171W        W86576  23.228   4.644   1.183
18172W        W86577  13.317  17.616   0.084
18173W        W86578  19.528   6.606   0.937
18174W        W86579  16.185  10.949   3.104
18175W        W86580  28.574  23.547   0.442
18176W        W86581  41.738  28.713   1.774
18177W        W86582  11.084   0.810   3.668
18178W        W86583   5.816  16.835   1.219
18179W        W86584  14.223  13.590   0.798
18180W        W86585   4.495  43.074   2.348
18181W        W86586  29.538  38.440  13.855
18182W        W86587  11.571  34.382  14.220
18183W        W86588  27.871  40.932   2.428
18184W        W86589  40.846  28.521  10.807
18185W        W86590  21.197  14.859   1.300
18186W        W86591   9.429  22.322  11.643
18187W        W86592  22.237   8.349  13.559
18188W        W86593   6.722  33.162   0.229
18189W        W86594  26.131  16.265   1.933
18190W        W86595  19.101  22.744  13.412
18191W        W86596  32.119  14.728   3.766
18192W        W86597  28.605  10.085  11.459
18193W        W86598   7.628  24.531   2.853
18194W        W86599  14.664  34.458   0.821
18195W        W86600  26.927  39.353  14.941
18196W        W86601  23.275  12.760   3.719
18197W        W86602  43.325  40.078  11.088
18198W        W86603  10.600   3.069   0.755
18199W        W86604  32.284  19.949   4.539
18200W        W86605  43.955   1.725  12.921
18201W        W86606  44.229  28.226  13.360
18202W        W86607  19.535  33.900  13.195
18203W        W86608   4.384   1.200   0.480
18204W        W86609   2.880  15.857   2.404
18205W        W86610   3.455  30.960  11.009
18206W        W86611  10.305  23.081   2.770
18207W        W86612  19.079  44.869   2.473
18208W        W86613   9.307  22.485  10.714
18209W        W86614   3.870   7.979  12.423
18210W        W86615  43.037  33.044   1.296
18211W        W86616  37.878   4.875  13.781
18212W        W86617  16.841  43.813   2.813
18213W        W86618  41.921  36.640  13.417
18214W        W86619  16.585   2.901  12.826
18215W        W86620   6.867   5.819  12.491
18216W        W86621  21.241  36.555   4.640
18217W        W86622  21.973   8.358  11.260
18218W        W86623  34.109  26.355   2.707
18219W        W86624  39.220  22.672   2.827
18220W        W86625   8.090  14.301   2.618
18221W        W86626  24.703  29.640  10.559
18222W        W86627  18.951   0.404  11.720
18223W        W86628  29.333  15.756  11.915
18224W        W86629  16.116  10.774   1.687
18225W        W86630  30.185  26.937   4.087
18226W        W86631  17.151  19.987   4.037
18227W        W86632  19.631  44.636  12.477
18228W        W86633   0.954  11.915   3.614
18229W        W86634  40.317  26.097   4.678
18230W        W86635   5.184  33.385   2.313
18231W        W86636   3.201  21.221   2.672
18232W        W86637   2.898  18.670   1.772
18233W        W86638  39.807  17.170   2.174
18234W        W86639  36.580  27.369  10.784
18235W        W86640  35.336  41.324   5.102
18236W        W86641  12.242   6.220  14.204
18237W        W86642  14.511   9.250   0.942
18238W        W86643   0.349  24.520  13.551
18239W        W86644  39.451   2.818  14.767
18240W        W86645   5.633   1.492   0.050
18241W        W86646  37.087  33.927  11.575
18242W        W86647  14.819  34.135   3.136
18243W        W86648  30.092  37.988   3.378
18244W        W86649  30.269  12.593   0.175
18245W        W86650  44.905  20.386  14.616
18246W        W86651  19.132   4.505   3.470
18247W        W86652  25.586  36.159   1.351
18248W        W86653  30.619  19.686  12.357
18249W        W86654  25.239  33.048   3.001
18250W        W86655  19.959  32.643  12.102
18251W        W86656  43.815   1.298  13.754
18252W        W86657   3.903   6.469   2.287
18253W        W86658  36.947   6.378   2.845
18254W        W86659  41.812  30.537  13.763
18255W        W86660   9.840  12.309   3.029
18256W        W86661  28.431  34.950   1.830
18257W        W86662  32.161  13.072  13.379
18258W        W86663  32.923  11.090   1.236
18259W        W86664  15.767  31.978  14.877
18260W        W86665  27.371  35.824   1.602
18261W        W86666  36.387   0.265   4.200
18262W        W86667  29.127  38.839   0.294
18263W        W86668  36.367  19.866   1.894
18264W        W86669  32.373  43.849   3.864
18265W        W86670  12.615  15.094  11.637
18266W        W86671  44.364  33.886   2.027
18267W        W86672  13.579   1.438  10.472
18268W        W86673  29.665  39.559  13.972
18269W        W86674  28.581  28.163  11.129
18270W        W86675  39.108   0.475   0.293
18271W        W86676  36.834   9.355   3.657
18272W        W86677  20.582  21.983  14.112
18273W        W86678   1.846  17.245   1.323
18274W        W86679  25.379  40.436  10.744
18275W        W86680   0.407  37.676  12.583
18276W        W86681   9.863  34.054  14.046
18277W        W86682  17.329  44.764  12.085
18278W        W86683  36.876  15.676  14.361
18279W        W86684  10.333  28.594   1.478
18280W        W86685  10.901  33.227  11.635
18281W        W86686   0.606  26.626  11.089
18282W        W86687  30.182  30.277  13.357
18283W        W86688  41.492  29.445  13.422
18284W        W86689  36.205   4.848  12.582
18285W        W86690  36.938  11.745   3.367
18286W        W86691  40.762  21.238  13.924
18287W        W86692  15.140  29.557   2.396
18288W        W86693   1.494  19.279  13.979
18289W        W86694  16.802  19.250  14.726
18290W        W86695   8.455  22.631  12.069
18291W        W86696  11.875  41.913  11.429
18292W        W86697  15.669   4.416   3.174
18293W        W86698  34.861   6.463  11.504
18294W        W86699  20.343   9.203   2.071
18295W        W86700  43.978  27.945  14.913
18296W        W86701   4.814  19.777   0.826
18297W        W86702   4.329  32.045  11.694
18298W        W86703  41.119   7.376   3.385
18299W        W86704   2.301  15.402  14.769
18300W        W86705  10.762  35.398   1.401
18301W        W86706  25.028   8.152  14.920
18302W        W86707  21.148  27.959   3.660
18303W        W86708  28.471  41.253   3.215
18304W        W86709   5.726  22.015   0.446
18305W        W86710  36.936   8.315   1.192
18306W        W86711   8.160   9.909   2.390
18307W        W86712  19.323  23.984  14.309
18308W        W86713  37.473  26.788  13.095
18309W        W86714  36.605  32.930  14.139
18310W        W86715  18.563  13.699   0.431
18311W        W86716  20.615  21.915  10.403
18312W        W86717   4.409  42.021   1.956
18313W        W86718  13.272  13.885  11.317
18314W        W86719   4.361  22.297   0.848
18315W        W86720  19.798  12.427   1.309
18316W        W86721   7.294  20.298  12.228
18317W        W86722  17.573  21.518  11.754
18318W        W86723  27.940  42.398  13.680
18319W        W86724  14.399   3.403   3.833
18320W        W86725  23.700  21.932  11.567
18321W        W86726  12.916   6.079  12.408
18322W        W86727  17.961  24.148  14.876
18323W        W86728  18.169   4.042  10.837
18324W        W86729  20.380  36.822   1.236
18325W        W86730  19.236  22.684  12.532
18326W        W86731  43.782  23.030   2.146
18327W        W86732  10.141  41.551   1.228
18328W        W86733  39.348  19.812   0.428
18329W        W86734  32.146  41.829  14.235
18330W        W86735   3.731  19.605   3.026
18331W        W86736  24.686   5.404   3.293
18332W        W86737  20.214  32.198  12.113
18333W        W86738   0.260  10.114  10.949
18334W        W86739  20.289  32.097  11.618
18335W        W86740   7.350  25.623   0.453
18336W        W86741  12.577  41.145  13.814
18337W        W86742  41.586  11.281   2.802
18338W        W86743  33.939   0.058   0.353
18339W        W86744  15.769   4.704   2.625
18340W        W86745  12.698   4.311   0.781
18341W        W86746  27.070  12.212   3.213
18342W        W86747  20.314  27.388   2.804
18343W        W86748   3.102   3.771   5.337
18344W        W86749  27.067  37.241  13.339
18345W        W86750  32.906  25.951  13.649
18346W        W86751  15.343  43.873   0.755
18347W        W86752  27.682  35.474  13.632
18348W        W86753  22.870   5.795  13.777
18349W        W86754  29.264  27.986  14.319
18350W        W86755  31.178  15.768   2.318
18351W        W86756  40.973  41.878   4.566
18352W        W86757   9.221  13.406  14.381
18353W        W86758  25.055  13.766  12.964
18354W        W86759  10.202  29.517  12.678
18355W        W86760  35.458  17.084  14.870
18356W        W86761  38.200  28.397  11.896
18357W        W86762   1.692  42.373   0.858
18358W        W86763  41.650  34.902  10.818
18359W        W86764   2.799  42.320   3.523
18360W        W86765  12.729  23.456   1.924
18361W        W86766  42.315  14.260   3.446
18362W        W86767   2.410  24.305   4.591
18363W        W86768   6.314  18.119   2.923
18364W        W86769  16.129  10.336  11.357
18365W        W86770  44.624   4.447  11.625
18366W        W86771   7.359   7.664  12.572
18367W        W86772  36.835  13.723  10.800
18368W        W86773   9.333  10.982   0.798
18369W        W86774  24.281  17.535  11.937
18370W        W86775  33.616   1.762  14.321
18371W        W86776  18.521  12.763  13.784
18372W        W86777  15.272  16.457  13.710
18373W        W86778  10.813  35.978  10.820
18374W        W86779   9.382  32.594  14.176
18375W        W86780  13.803  35.573   4.678
18376W        W86781  14.521   6.222  10.479
18377W        W86782  11.128  41.717   2.778
18378W        W86783  38.500  20.473   2.654
18379W        W86784  13.211  25.922   0.089
18380W        W86785  17.908  15.650   4.627
18381W        W86786   2.165  36.733   2.365
18382W        W86787  32.061  39.480   2.611
18383W        W86788  28.346   2.855  11.359
18384W        W86789  34.844  12.751  10.281
18385W        W86790   8.813  32.626   3.323
18386W        W86791  26.041  35.248  12.232
18387W        W86792  26.138  41.186  11.621
18388W        W86793  29.068  16.727   0.561
18389W        W86794  27.546  29.222   3.883
18390W        W86795   6.087   2.439   3.093
18391W        W86796  32.404  11.271  12.614
18392W        W86797  42.773  16.157   0.636
18393W        W86798  30.345  26.728  11.635
18394W        W86799  44.959  27.663   4.135
18395W        W86800  24.664   1.979  11.141
18396W        W86801  10.745  29.885  13.782
18397W        W86802   0.729  30.760   1.865
18398W        W86803  38.437   8.351  13.485
18399W        W86804  27.583  14.930  14.922
18400W        W86805  23.054  44.428  10.621
18401W        W86806  27.570   9.693  10.892
18402W        W86807   0.809   4.547   2.190
18403W        W86808   8.721  21.933   1.767
18404W        W86809  25.625  37.373   1.834
18405W        W86810   3.778  17.324  14.011
18406W        W86811   0.748  17.641  13.778
18407W        W86812  39.903  18.719   3.169
18408W        W86813   6.800  17.866  11.613
18409W        W86814  17.782  14.711   4.303
18410W        W86815  22.042  20.101  13.974
18411W        W86816  16.751   6.196   4.714
18412W        W86817  24.696   6.815   1.794
18413W        W86818  34.354  28.197   0.246
18414W        W86819  20.596  20.713  12.728
18415W        W86820  33.434   6.792   3.896
18416W        W86821  42.994  43.192  11.373
18417W        W86822  24.023  43.468  14.463
18418W        W86823   8.858  10.063   0.419
18419W        W86824  30.458   1.785  11.257
18420W        W86825  15.705  28.524   4.896
18421W        W86826  18.813  36.049  14.151
18422W        W86827  40.871  20.226   3.130
18423W        W86828  31.898  32.075   2.599
18424W        W86829   8.138   3.890   3.319
18425W        W86830  15.430  16.643   0.596
18426W        W86831  29.781  33.879   4.090
18427W        W86832  16.706  30.595   4.236
18428W        W86833  19.167  30.896   3.240
18429W        W86834  39.368  30.992  12.015
18430W        W86835  43.982  24.522   4.640
18431W        W86836  35.684  39.134   3.852
18432W        W86837   2.501  17.122  13.537
18433W        W86838   2.002  32.078   0.848
18434W        W86839  16.628   6.313   5.284
18435W        W86840   1.669   6.369  12.849
18436W        W86841  35.527  12.480  12.946
18437W        W86842  32.533  25.067   3.926
18438W        W86843   4.083  18.675  11.862
18439W        W86844   5.292  11.400   2.701
18440W        W86845   5.331  24.958   3.760
18441W        W86846   2.897  22.166   2.727
18442W        W86847  25.943  39.434   1.308
18443W        W86848  26.931  24.164  12.091
18444W        W86849  26.444  24.262  13.312
18445W        W86850  40.074  32.116   0.215
18446W        W86851   1.773  32.268   1.549
18447W        W86852  43.520  18.336  14.877
18448W        W86853  18.168   7.871  11.367
18449W        W86854   0.203  36.777  13.783
18450W        W86855  36.959   3.354   1.675
18451W        W86856  17.804  22.212   0.290
18452W        W86857  42.513  32.071   4.431
18453W        W86858  18.078  30.927   3.306
18454W        W86859   7.132   3.928   2.394
18455W        W86860   0.737   9.753  12.047
18456W        W86861  35.176  20.136   1.637
18457W        W86862  31.522  14.820  11.525
18458W        W86863  40.823   7.622  12.039
18459W        W86864  17.546  35.557   1.812
18460W        W86865  12.243   6.467   1.836
18461W        W86866   2.758  29.490  13.516
18462W        W86867  42.695   3.838   0.770
18463W        W86868  28.615   1.301   3.016
18464W        W86869  21.062   5.513   1.023
18465W        W86870  24.152  21.062   4.190
18466W        W86871  42.714  26.790  13.948
18467W        W86872  44.418  40.814   0.392
18468W        W86873  15.472  10.246  14.761
18469W        W86874  22.032   1.314   3.377
18470W        W86875  29.412  31.833   4.126
18471W        W86876  22.692  18.229  10.232
18472W        W86877  37.399  12.103   0.236
18473W        W86878  14.870  18.195   3.414
18474W        W86879  29.649  18.019   3.459
18475W        W86880  22.081   1.438  13.378
18476W        W86881  16.474  40.394  11.087
18477W        W86882  28.979  34.134   1.918
18478W        W86883  41.581   8.843   3.219
18479W        W86884   3.380  39.929  11.571
18480W        W86885  27.717  25.994   3.676
18481W        W86886  17.144  25.653   3.826
18482W        W86887   5.766  34.065  13.309
18483W        W86888   0.646  37.065   4.422
18484W        W86889  39.388  17.405   4.847
18485W        W86890  40.933   2.981   0.910
18486W        W86891  36.928  11.036  14.456
18487W        W86892  15.024  30.170   0.167
18488W        W86893   0.016  26.357   0.260
18489W        W86894  17.852  19.311  11.883
18490W        W86895  41.803  10.258  10.670
18491W        W86896   4.623  35.228  10.201
18492W        W86897  13.333  41.000   1.248
18493W        W86898  11.730  17.735  12.347
18494W        W86899  23.451  16.497   3.331
18495W        W86900  24.452   4.945   3.219
18496W        W86901  39.940  33.575  11.488
18497W        W86902  37.330  38.453   2.784
18498W        W86903  27.466  30.058   4.194
18499W        W86904  35.483  36.897   2.366
18500W        W86905   2.983  34.191  13.001
18501W        W86906  14.251  25.649   0.847
18502W        W86907  34.764  28.501   0.424
18503W        W86908  41.948  11.409  12.902
18504W        W86909  38.466   1.155  13.369
18505W        W86910  27.763  16.780   3.249
18506W        W86911  43.454  32.210  10.363
18507W        W86912  36.777  29.436   3.443
18508W        W86913  34.542  17.960  13.006
18509W        W86914  23.530  11.868   4.135
18510W        W86915  31.439  10.619   3.574
18511W        W86916   0.427  25.754   0.032
18512W        W86917  44.495  42.877  12.447
18513W        W86918  34.959  11.251  13.739
18514W        W86919  30.457  30.414   0.507
18515W        W86920  38.834  12.807   1.220
18516W        W86921  35.557  13.589  12.509
18517W        W86922  20.586  13.371   1.371
18518W        W86923  14.733  22.242   3.322
18519W        W86924  20.904   0.350   3.684
18520W        W86925  29.497  29.391  13.990
18521W        W86926   9.599  27.534   1.228
18522W        W86927  44.209  44.488  13.979
18523W        W86928   7.358  32.929  13.468
18524W        W86929  12.535  11.792  13.161
18525W        W86930  18.220  17.538  14.970
18526W        W86931  26.567  28.565  12.610
18527W        W86932  24.952  32.956   1.428
18528W        W86933  21.314  27.595   4.398
18529W        W86934  22.132  23.758   3.735
18530W        W86935  19.047   4.756  14.323
18531W        W86936   3.491  26.922   1.453
18532W        W86937  22.255   8.772  13.850
18533W        W86938  21.923   0.061  11.162
18534W        W86939   8.447  28.902   2.600
18535W        W86940  43.567  10.833   0.421
18536W        W86941  35.881   6.463  10.016
18537W        W86942   9.661   0.350   2.391
18538W        W86943  18.729   0.438   3.726
18539W        W86944  40.115  21.998   0.770
18540W        W86945  40.393   7.324   2.233
18541W        W86946  22.298  39.902   0.333
18542W        W86947  37.345  37.782   4.052
18543W        W86948  16.552  19.684   2.737
18544W        W86949   3.438  19.975  13.561
18545W        W86950  28.891  19.791  14.452
18546W        W86951  39.562  17.024   0.298
18547W        W86952  20.000  13.089  11.116
18548W        W86953   1.789  27.007   2.952
18549W        W86954  29.962  13.910  12.421
18550W        W86955  19.196   5.313   0.281
18551W        W86956   0.550  18.624   2.750
18552W        W86957   7.244  32.343  12.083
18553W        W86958  29.240  15.631   4.199
18554W        W86959  13.187  27.062   0.899
18555W        W86960  13.217   6.529   3.790
18556W        W86961  26.689  42.988  12.462
18557W        W86962  30.662  39.245   0.664
18558W        W86963  14.697   6.979  12.516
18559W        W86964   1.708  40.056  11.224
18560W        W86965   0.355  12.338  12.570
18561W        W86966  19.757  36.316  13.449
18562W        W86967  42.253  33.953   0.938
18563W        W86968  17.274  10.911   4.872
18564W        W86969  10.056  33.477  11.630
18565W        W86970  11.296  29.480   1.771
18566W        W86971  40.157  23.192   1.326
18567W        W86972  41.928  17.575   2.340
18568W        W86973  29.598  20.496  12.698
18569W        W86974  14.281  12.268  11.987
18570W        W86975   2.296  16.827  12.944
18571W        W86976  40.834  37.484  13.348
18572W        W86977   9.218  19.054  14.387
18573W        W86978  38.583  23.700  14.420
18574W        W86979  11.844  37.113  11.232
18575W        W86980  12.341  38.750  10.706
18576W        W86981  44.366  32.663  13.033
18577W        W86982  27.058  43.528  11.230
18578W        W86983   6.935  14.164   3.758
18579W        W86984   1.633  28.184   0.094
18580W        W86985  42.985  14.343   1.330
18581W        W86986  10.322  39.710   3.879
18582W        W86987  40.457   2.198   0.984
18583W        W86988  37.043  38.764   1.839
18584W        W86989  33.786  14.158   3.700
18585W        W86990  25.448   7.181   1.446
18586W        W86991  22.115  11.793   1.563
18587W        W86992  12.091  42.658   3.941
18588W        W86993  24.667   7.623   3.912
18589W        W86994  10.949  11.369   0.699
18590W        W86995  23.573  34.094   0.385
18591W        W86996  15.685  31.384  12.351
18592W        W86997  25.154  32.785  10.837
18593W        W86998  29.174  36.165  14.452
18594W        W86999  43.912  16.963   0.735
18595W        W87000  30.399   5.792  13.104
18596W        W87001  44.353  33.362   3.686
18597W        W87002   4.314  37.505  12.032
18598W        W87003   8.616  37.631   1.944
18599W        W87004   3.639   3.375   1.697
18600W        W87005  21.243   8.377  13.848
18601W        W87006  44.688  32.990  13.370
18602W        W87007  23.631  16.183  10.750
18603W        W87008  41.386  24.637   2.675
18604W        W87009  35.515  11.174  14.438
18605W        W87010  42.727  23.131   3.690
18606W        W87011  20.026   1.714   1.784
18607W        W87012  16.747  13.561   2.051
18608W        W87013  29.526   2.748   4.192
18609W        W87014  20.316   8.946  13.415
18610W        W87015  16.771  24.316   2.882
18611W        W87016   3.227  38.363   4.648
18612W        W87017  21.652  16.116  12.498
18613W        W87018  35.463  25.653  12.181
18614W        W87019  43.337  43.951   2.687
18615W        W87020  30.608  24.005  12.607
18616W        W87021  34.330  39.841  11.416
18617W        W87022  27.256   8.759   1.214
18618W        W87023   5.211  41.500  10.741
18619W        W87024  35.142  31.901   2.818
18620W        W87025  19.371  14.591   1.597
18621W        W87026  26.733   1.359   3.922
18622W        W87027  25.889  12.141   2.468
18623W        W87028  12.265  42.497  14.264
18624W        W87029  34.062  28.653   2.101
18625W        W87030  30.720  11.158   3.684
18626W        W87031  35.477   1.950   5.017
18627W        W87032   7.985  23.599  11.097
18628W        W87033  10.878  18.271  10.481
18629W        W87034  37.394  22.698  10.481
18630W        W87035   1.312  18.346  10.674
18631W        W87036  24.106   8.406   0.730
18632W        W87037  37.084  22.950  12.524
18633W        W87038  26.988  41.567   5.025
18634W        W87039  22.404   6.888  10.659
18635W        W87040  12.291  16.912   4.953
18636W        W87041   4.424  15.729   0.353
18637W        W87042  16.682  14.281   3.759
18638W        W87043  23.328  32.519  14.979
18639W        W87044  43.712  14.206  12.063
18640W        W87045   5.344  21.463  11.789
18641W        W87046  37.914  16.839   0.588
18642W        W87047  17.609  44.480   1.342
18643W        W87048   1.214  28.132  14.803
18644W        W87049   2.951  16.482  14.224
18645W        W87050  42.913  41.810   1.328
18646W        W87051  32.499  38.302   4.255
18647W        W87052  38.109  21.827   4.575
18648W        W87053  23.608  41.397  11.921
18649W        W87054  35.039  27.895  12.946
18650W        W87055  20.103  13.708  10.305
18651W        W87056  21.254  29.055  12.000
18652W        W87057  20.605  36.975  12.353
18653W        W87058  11.089  10.138   0.786
18654W        W87059  29.934   0.672   1.190
18655W        W87060  19.015   9.267   2.029
18656W        W87061   2.752  38.327  11.287
18657W        W87062   1.425  24.234   0.241
18658W        W87063  38.536  17.915  10.672
18659W        W87064  36.839  28.868  14.028
18660W        W87065  17.425  37.000   1.860
18661W        W87066  15.936  37.835   2.797
18662W        W87067  22.772  19.454   5.007
18663W        W87068  35.680  42.762  12.296
18664W        W87069  43.177  36.499   4.816
18665W        W87070  34.676  13.374  14.692
18666W        W87071   2.278  25.226   2.331
18667W        W87072   6.731  28.617  11.481
18668W        W87073   0.841  39.847   0.280
18669W        W87074  29.101  17.040   4.133
18670W        W87075   6.668   1.440  12.595
18671W        W87076  32.862  16.421  12.394
18672W        W87077   9.616  38.879  14.871
18673W        W87078  33.923   4.389  10.937
18674W        W87079  27.078   5.843   3.341
18675W        W87080  42.565  20.441   2.911
18676W        W87081  31.948  30.529  10.736
18677W        W87082  31.589  42.629  10.818
18678W        W87083  13.763   0.895   1.100
18679W        W87084  44.347   2.331  12.385
18680W        W87085  28.167  34.657  11.942
18681W        W87086  17.193  37.891  10.914
18682W        W87087  34.549  19.797  14.857
18683W        W87088  24.971  35.845  12.274
18684W        W87089  19.280   5.486   4.662
18685W        W87090  27.234  18.314   4.574
18686W        W87091  13.038  14.037  10.884
18687W        W87092   9.715  38.646   2.154
18688W        W87093  18.683  26.238  14.952
18689W        W87094   5.739   6.818  12.997
18690W        W87095  14.229  13.380   4.571
18691W        W87096  27.040  32.981   0.941
18692W        W87097  26.990   4.524  14.511
18693W        W87098   4.018   8.470  12.485
18694W        W87099  13.258  44.931   5.440
18695W        W87100  38.792   5.525   3.930
18696W        W87101   8.135  22.273  11.221
18697W        W87102  40.916  24.421  11.962
18698W        W87103  13.497  40.710   4.134
18699W        W87104   4.428  40.766  11.308
18700W        W87105  20.469  44.629  11.750
18701W        W87106   7.367  17.649  12.379
18702W        W87107   6.191  42.540   1.793
18703W        W87108  28.037   3.754  14.753
18704W        W87109  34.465  26.585  10.814
18705W        W87110  16.272  42.265   3.627
18706W        W87111  26.443  21.113   2.834
18707W        W87112   7.724  31.893   4.545
18708W        W87113  32.360   3.271  14.089
18709W        W87114  21.756  10.250   2.539
18710W        W87115  10.239  37.316  13.623
18711W        W87116  21.047  29.563  11.951
18712W        W87117  23.065  10.905   2.748
18713W        W87118  30.743  22.072  11.742
18714W        W87119  15.949  17.473   1.566
18715W        W87120   8.556  10.640  10.458
18716W        W87121   5.222  29.547   2.869
18717W        W87122  30.059   4.891  14.954
18718W        W87123  12.883  16.894  11.473
18719W        W87124  27.478   4.337   1.148
18720W        W87125   1.281  11.586   0.860
18721W        W87126  27.909  28.646  13.849
18722W        W87127  24.639  32.215  14.705
18723W        W87128  34.132  24.660   0.356
18724W        W87129  42.544   4.691   2.966
18725W        W87130  24.603  13.356   3.278
18726W        W87131   1.782  20.149   2.107
18727W        W87132  41.767  37.004   1.220
18728W        W87133   8.785   6.801   1.275
18729W        W87134   4.797  11.608   2.772
18730W        W87135  36.603  18.636   3.734
18731W        W87136  37.048  14.802  14.084
18732W        W87137  31.677  43.565  10.832
18733W        W87138  10.782  35.509   4.174
18734W        W87139  31.512  44.873  11.168
18735W        W87140  37.328  40.995  10.942
18736W        W87141  36.931  33.348  10.734
18737W        W87142  31.405  12.570  14.317
18738W        W87143  42.823  40.841   3.711
18739W        W87144  13.364  17.662   1.902
18740W        W87145   9.588  25.013  13.913
18741W        W87146   7.969  44.559  14.618
18742W        W87147   4.884   5.965   2.324
18743W        W87148  16.239  17.582   3.208
18744W        W87149  19.510  43.362   3.255
18745W        W87150  25.422  27.230  12.586
18746W        W87151  11.093  17.655   3.017
18747W        W87152  24.968  16.799  11.887
18748W        W87153   9.086  32.154  12.875
18749W        W87154  43.304  41.168  13.557
18750W        W87155  16.718  16.181  12.522
18751W        W87156  18.600  30.969   0.931
18752W        W87157  23.574  41.552   2.662
18753W        W87158   9.758  39.464  11.941
18754W        W87159   6.192  33.223   3.249
18755W        W87160  38.588   7.791   3.254
18756W        W87161  15.273   2.929   4.956
18757W        W87162   2.033  14.111  14.856
18758W        W87163  15.676  15.191   4.140
18759W        W87164  12.976   1.466   3.920
18760W        W87165  27.453  42.228   0.511
18761W        W87166  17.633  43.340   1.369
18762W        W87167  44.282  27.493   2.255
18763W        W87168   9.509   0.032   4.953
18764W        W87169  12.554  22.003  10.485
18765W        W87170  21.125  44.400  14.263
18766W        W87171  11.387   4.873  12.566
18767W        W87172   2.680   9.713  11.107
18768W        W87173  11.206   5.416   2.774
18769W        W87174  17.320  33.494   2.320
18770W        W87175  14.258  33.676  11.656
18771W        W87176  32.458   6.629  12.555
18772W        W87177  16.082  36.587   1.463
18773W        W87178  19.631   3.201  10.839
18774W        W87179  31.956  37.380   0.764
18775W        W87180  28.644  42.786   3.282
18776W        W87181  32.573  32.674   0.038
18777W        W87182  18.173  31.429   4.295
18778W        W87183  32.383  20.343   2.290
18779W        W87184  16.970   8.653  11.515
18780W        W87185  25.715  33.626   2.326
18781W        W87186  22.639  10.174   5.013
18782W        W87187  44.327   9.127  12.078
18783W        W87188   5.957  20.170   2.184
18784W        W87189  10.728   5.373   1.174
18785W        W87190  38.211   5.517  10.278
18786W        W87191  21.427  40.493   5.014
18787W        W87192  11.486  37.301   4.030
18788W        W87193   6.637  11.275  11.113
18789W        W87194  35.427  29.583  11.631
18790W        W87195  25.105  42.264  11.500
18791W        W87196  27.176   6.451  14.380
18792W        W87197  16.254  20.144  11.130
18793W        W87198  36.024   6.234  12.111
18794W        W87199   1.398  27.008  11.182
18795W        W87200  30.832  11.360   1.287
18796W        W87201  41.582  28.178   4.591
18797W        W87202   7.232  14.604   3.649
18798W        W87203  20.981  35.419  10.853
18799W        W87204  35.773  18.762   4.038
18800W        W87205  41.796  42.203   3.157
18801W        W87206   9.332  32.932  13.397
18802W        W87207  12.860  37.620  12.031
18803W        W87208  20.359   8.674  12.128
18804W        W87209  12.636   4.448   4.143
18805W        W87210   7.029   2.506   3.393
18806W        W87211  36.154  13.644  13.961
18807W        W87212  21.647  35.356   0.536
18808W        W87213   5.224   9.857  13.893
18809W        W87214  29.005  26.207   4.692
18810W        W87215   0.216  32.007   4.296
18811W        W87216   7.501  10.346   1.773
18812W        W87217  15.083  18.427   1.769
18813W        W87218  41.728  37.231   3.089
18814W        W87219  14.232  29.112  10.670
18815W        W87220  21.469   4.480   2.183
18816W        W87221  18.557   6.915  10.620
18817W        W87222   3.746  23.044  14.402
18818W        W87223   2.742   5.107  14.373
18819W        W87224  28.070  14.580   3.768
18820W        W87225  36.911  16.491  13.860
18821W        W87226  15.848   1.987   5.145
18822W        W87227  11.074  11.787   0.406
18823W        W87228  38.012  33.899   2.759
18824W        W87229  42.782  17.281  13.125
18825W        W87230  24.465  35.119   3.690
18826W        W87231  25.180  19.860   4.014
18827W        W87232  27.181  35.548   0.399
18828W        W87233  42.024  19.563   2.657
18829W        W87234  29.426  32.801   3.339
18830W        W87235  11.355  19.535  14.407
18831W        W87236  24.957   1.340  14.768
18832W        W87237  29.670  36.121  12.504
18833W        W87238  44.824  20.055   3.589
18834W        W87239  15.633   8.091  11.301
18835W        W87240  12.711  21.993   0.850
18836W        W87241  27.984  25.625   1.954
18837W        W87242  33.714  37.419  10.737
18838W        W87243   6.292   6.831  13.582
18839W        W87244   9.752  11.759  11.402
18840W        W87245  14.486  43.515  12.213
18841W        W87246  20.554   6.506  14.790
18842W        W87247  39.155  36.773   4.855
18843W        W87248   4.501   9.127   4.188
18844W        W87249  15.678  20.957   2.313
18845W        W87250  17.704  10.274  13.476
18846W        W87251  25.843  39.896  11.464
18847W        W87252  42.275  14.499   2.196
18848W        W87253   8.458  15.672   2.292
18849W        W87254   5.307  41.551   4.449
18850W        W87255  23.226  10.715  11.366
18851W        W87256  10.089  16.488  13.403
18852W        W87257  11.613  37.206   1.485
18853W        W87258  39.548  39.394  14.730
18854W        W87259  38.763   1.041  14.999
18855W        W87260  42.082  33.100  12.471
18856W        W87261   8.915  26.496   2.184
18857W        W87262  30.050   1.148  10.699
18858W        W87263  34.957  31.410  10.716
18859W        W87264  37.883  24.668   1.607
18860W        W87265   2.997  14.560   4.444
18861W        W87266  32.459  11.940  14.762
18862W        W87267   2.580  15.733   5.028
18863W        W87268  39.821  19.591  12.263
18864W        W87269  23.138  38.745  13.926
18865W        W87270  37.637  35.169  13.443
18866W        W87271  35.321  41.816   3.470
18867W        W87272   0.208  41.343  14.020
18868W        W87273  28.617   4.031   4.069
18869W        W87274  16.729  15.257   2.767
18870W        W87275  37.989  31.090  10.690
18871W        W87276  20.413  41.386  14.645
18872W        W87277  36.250  33.671  10.256
18873W        W87278  25.592  37.161  11.240
18874W        W87279   4.259  25.466   2.717
18875W        W87280   9.494  31.968   3.706
18876W        W87281  17.202   3.485   0.928
18877W        W87282  29.631  10.245  12.364
18878W        W87283  21.214   7.433  13.017
18879W        W87284  34.328  13.383   0.224
18880W        W87285  41.503  22.518   1.333
18881W        W87286  15.554   0.791   2.982
18882W        W87287  12.639  37.304  11.686
18883W        W87288  19.116  36.055  12.390
18884W        W87289  28.516  28.084  10.619
18885W        W87290   7.906  17.099   3.368
18886W        W87291  33.362   1.967   3.291
18887W        W87292  10.168  31.910   2.392
18888W        W87293  35.830   7.333  13.316
18889W        W87294  40.930  43.832  11.310
18890W        W87295  36.922  21.556  11.676
18891W        W87296  17.064   7.310   0.876
18892W        W87297  12.091  42.768  13.397
18893W        W87298  36.728  27.129  13.538
18894W        W87299  30.267  27.276   0.453
18895W        W87300  36.518  31.144  12.121
18896W        W87301   7.665   9.658   0.284
18897W        W87302  30.449  25.088  14.408
18898W        W87303  28.510  12.875  10.679
18899W        W87304  23.909  16.662   1.879
18900W        W87305  33.332  18.172   0.283
18901W        W87306  17.708  32.255   5.078
18902W        W87307  25.577  39.029   3.288
18903W        W87308  17.622  15.175   4.139
18904W        W87309   0.795  42.306  14.897
18905W        W87310  41.680  28.197   0.164
18906W        W87311  29.755   3.929  14.610
18907W        W87312  42.073  12.644  14.364
18908W        W87313  30.423  34.018   4.648
18909W        W87314  33.103  28.840   2.034
18910W        W87315  14.784  15.747   3.173
18911W        W87316  43.460  10.764   2.832
18912W        W87317   5.423  35.077   4.583
18913W        W87318  41.614  17.580   4.619
18914W        W87319  33.231   7.711   1.532
18915W        W87320  27.240  38.335  11.491
18916W        W87321  43.854  39.558   2.858
18917W        W87322  43.073  29.831   2.680
18918W        W87323  11.735  14.031  13.885
18919W        W87324  27.617  41.087  11.612
18920W        W87325  10.726  25.909   3.418
18921W        W87326   9.244  35.557   2.431
18922W        W87327  38.613  36.079   3.167
18923W        W87328  44.161  36.676  14.047
18924W        W87329  24.338  26.480   4.561
18925W        W87330  11.978  11.111   2.753
18926W        W87331  32.628  25.105  13.858
18927W        W87332  26.346   2.035  13.039
18928W        W87333  32.529   4.984   1.564
18929W        W87334  43.742  37.613  12.585
18930W        W87335  40.267  31.001  11.484
18931W        W87336  23.735  10.181   0.872
18932W        W87337   3.361  25.611  14.509
18933W        W87338  33.109  17.532  14.770
18934W        W87339  18.627  13.461  14.488
18935W        W87340  14.343  41.488  14.251
18936W        W87341   4.125  34.646  14.822
18937W        W87342  41.187  11.881  13.468
18938W        W87343  42.423  36.670  11.930
18939W        W87344  36.099   3.818   2.156
18940W        W87345  27.992  32.015  14.540
18941W        W87346  42.940  33.214   2.238
18942W        W87347  24.341   7.981  14.394
18943W        W87348  38.347  19.161  11.896
18944W        W87349  28.962  11.946   0.315
18945W        W87350  31.950   5.692   1.258
18946W        W87351  32.407  25.210   2.388
18947W        W87352  28.682   7.344   2.658
18948W        W87353  13.417  35.701  10.292
18949W        W87354   4.583  35.822   4.100
18950W        W87355  11.935  10.671   1.882
18951W        W87356  24.381  37.589   1.973
18952W        W87357   8.750  18.895   1.210
18953W        W87358  19.061  33.601   2.316
18954W        W87359  19.828   0.498  14.004
18955W        W87360  10.696   7.208   1.647
18956W        W87361  18.774  29.584   1.234
18957W        W87362  34.801   0.705   3.793
18958W        W87363  25.585  24.513   1.012
18959W        W87364  34.009   7.201  13.403
18960W        W87365   8.705   1.204  12.531
18961W        W87366  28.020  27.067  11.427
18962W        W87367  43.345   8.939  14.259
18963W        W87368  36.309  35.309   4.269
18964W        W87369  21.490  39.875  12.789
18965W        W87370  38.635  40.714   1.188
18966W        W87371  10.301  29.377  14.833
18967W        W87372  27.532  18.762  14.112
18968W        W87373  42.880  43.551  14.818
18969W        W87374   4.902  22.057  11.610
18970W        W87375  35.897   9.632  13.548
18971W        W87376   8.254  41.994  14.978
18972W        W87377  40.754   0.910   1.323
18973W        W87378  19.536  31.102   1.397
18974W        W87379  36.488  24.438  14.728
18975W        W87380  10.100  17.033  13.400
18976W        W87381  30.556   3.319  13.777
18977W        W87382  24.542  21.673   3.684
18978W        W87383  34.633  13.654  12.357
18979W        W87384  21.835  43.739   3.303
18980W        W87385  32.595  13.668   0.240
18981W        W87386  44.170  27.565   5.046
18982W        W87387  36.653  34.556   0.786
18983W        W87388  17.592  10.643   0.858
18984W        W87389  39.292   5.455   0.844
18985W        W87390  26.158  17.382  12.183
18986W        W87391  39.832  16.577  13.557
18987W        W87392  18.651  18.875   2.220
18988W        W87393  21.760  15.985  11.160
18989W        W87394  33.360  29.022  10.737
18990W        W87395  13.201  43.558   1.887
18991W        W87396  32.296  20.260   4.120
18992W        W87397  36.433  30.590   2.281
18993W        W87398  19.023  43.898  10.406
18994W        W87399  21.620  36.743  10.548
18995W        W87400  43.387   8.356   4.252
18996W        W87401  11.617  29.377   4.508
18997W        W87402  30.528   3.696   2.997
18998W        W87403  33.848  41.661   2.178
18999W        W87404  10.967  26.513  14.918
19000W        W87405  13.699   2.045  13.269
19001W        W87406  31.489  40.212  12.046
19002W        W87407  17.821  10.676  14.480
19003W        W87408  15.153  10.600  11.956
19004W        W87409   9.248  28.902  12.100
19005W        W87410  22.737  24.601   2.695
19006W        W87411  23.037  12.025  14.522
19007W        W87412  26.858   3.628   4.143
19008W        W87413  19.080  42.116  12.316
19009W        W87414  24.513  17.766   2.140
19010W        W87415   2.869  15.827  12.081
19011W        W87416  15.054  23.054  14.511
19012W        W87417  22.329  28.071   2.170
19013W        W87418   9.701  31.419   4.219
19014W        W87419  30.023  22.149  11.500
19015W        W87420  12.793   7.229  10.931
19016W        W87421   4.355  37.031   0.710
19017W        W87422   7.500  10.878  12.507
19018W        W87423  28.698  29.909   3.126
19019W        W87424  39.738  26.626  12.175
19020W        W87425  42.592  34.466   1.830
19021W        W87426   1.027  28.573   0.943
19022W        W87427  17.179  19.512  14.941
19023W        W87428  22.628  38.042   0.913
19024W        W87429  28.547   6.253   4.122
19025W        W87430  10.482  40.079   4.194
19026W        W87431  18.800   1.342   2.254
19027W        W87432  29.491  20.724   0.364
19028W        W87433  13.241  11.356  12.155
19029W        W87434   0.028  42.584   4.520
19030W        W87435   5.227  20.177   3.404
19031W        W87436   2.871   0.907   2.335
19032W        W87437  37.338  18.750  11.593
19033W        W87438  27.975   6.039   2.794
19034W        W87439  15.865  20.495   0.566
19035W        W87440  18.249  34.368  10.815
19036W        W87441  43.695  28.785  12.477
19037W        W87442   6.269   2.361  13.013
19038W        W87443   6.790  28.279   0.694
19039W        W87444  19.750  11.465   0.739
19040W        W87445   4.447   6.983   3.582
19041W        W87446   9.420  31.991   1.850
19042W        W87447  14.396  16.734  11.135
19043W        W87448  21.285  10.363   1.658
19044W        W87449  39.597   2.902  11.045
19045W        W87450  40.456  44.278   4.569
19046W        W87451  19.259  16.833   4.166
19047W        W87452  23.119  27.545  12.932
19048W        W87453  10.401  31.427   1.226
19049W        W87454   8.622   9.144   2.702
19050W        W87455  22.065  33.882  13.349
19051W        W87456   0.877   4.216   2.606
19052W        W87457  20.454  36.130   4.599
19053W        W87458  36.256  31.907   2.890
19054W        W87459  34.273  28.630   0.526
19055W        W87460  39.510  17.511   1.308
19056W        W87461  35.516   2.960  12.950
19057W        W87462  34.872   3.803   3.056
19058W        W87463  10.634  30.640  12.454
19059W        W87464   6.013   9.420  10.681
19060W        W87465  34.835  22.736  14.453
19061W        W87466   7.185  44.367   3.757
19062W        W87467  16.657   3.794  12.947
19063W        W87468  42.334   5.467   1.398
19064W        W87469   3.796  11.408   0.233
19065W        W87470  18.553   5.763  14.565
19066W        W87471  19.380  12.179   2.696
19067W        W87472   9.023  24.861  10.373
19068W        W87473  21.293   0.031   1.521
19069W        W87474  24.590  26.437  13.541
19070W        W87475   0.506  34.397  10.675
19071W        W87476  23.614   8.433  13.876
19072W        W87477  14.157  33.034  14.559
19073W        W87478  28.829  24.799  10.642
19074W        W87479   3.897  13.792   4.566
19075W        W87480  31.207  11.225   2.209
19076W        W87481  44.874  40.357  14.300
19077W        W87482  44.947  43.082  14.185
19078W        W87483   0.951  42.197  11.199
19079W        W87484   3.345  26.569  11.564
19080W        W87485   5.404   5.781  11.548
19081W        W87486  17.692  28.197   0.702
19082W        W87487  10.679  14.772   1.642
19083W        W87488  30.319  21.585  13.528
19084W        W87489   8.869  31.694   2.922
19085W        W87490  36.868   5.667  12.029
19086W        W87491   1.868  20.166  13.632
19087W        W87492  29.989  11.367  12.933
19088W        W87493   7.380  40.375   1.813
19089W        W87494   6.330   4.664   3.527
19090W        W87495  16.543  18.847   2.474
19091W        W87496   6.303  18.028  12.914
19092W        W87497  33.826  29.159   2.939
19093W        W87498  19.586  18.679   3.242
19094W        W87499  40.016  38.924  14.416
19095W        W87500  38.423  29.433   2.706
19096W        W87501  31.387  22.874  14.868
19097W        W87502  15.865  39.500   3.841
19098W        W87503  35.528  23.203   3.295
19099W        W87504  30.451  11.930   4.266
19100W        W87505  28.189  37.076  11.829
19101W        W87506   4.285   4.702   0.305
19102W        W87507  22.163  21.243  10.956
19103W        W87508  20.805   4.468  14.466
19104W        W87509  44.902  27.496   3.124
19105W        W87510  10.869  11.724   3.391
19106W        W87511  44.708  14.132  12.016
19107W        W87512  30.584  28.761  14.412
19108W        W87513  40.725  20.166   3.625
19109W        W87514   3.003  37.008  11.949
19110W        W87515   5.299   3.208   2.291
19111W        W87516  11.685  32.907  11.243
19112W        W87517  40.781  30.031   2.629
19113W        W87518  10.158  17.247   0.065
19114W        W87519  31.931  41.108  12.386
19115W        W87520   3.314  26.245   3.228
19116W        W87521  25.604  10.622  12.666
19117W        W87522  32.686  13.969  10.551
19118W        W87523  38.071   6.694   1.171
19119W        W87524  14.889  26.412  10.624
19120W        W87525  14.844  22.550  13.926
19121W        W87526  38.325  32.427  13.425
19122W        W87527  26.930  22.031   1.227
19123W        W87528  41.010  44.778  11.208
19124W        W87529  13.129  27.882  11.035
19125W        W87530  39.333  17.753   0.871
19126W        W87531  42.226  19.730  11.176
19127W        W87532  40.293   3.373  13.831
19128W        W87533  43.253  21.260   0.768
19129W        W87534   3.908  43.451  13.027
19130W        W87535  23.265   9.694   2.261
19131W        W87536  15.405  42.256  11.231
19132W        W87537  23.558  18.257   3.716
19133W        W87538  44.067  35.375  10.500
19134W        W87539  14.518  40.974  13.827
19135W        W87540   8.847  16.101   4.079
19136W        W87541   7.752  37.626  11.967
19137W        W87542  13.275   2.753   1.766
19138W        W87543  29.635   4.880   4.316
19139W        W87544  21.643  33.556  12.792
19140W        W87545  28.193   8.312  11.724
19141W        W87546  32.150  12.868   1.758
19142W        W87547  20.661  28.635  11.254
19143W        W87548  41.421  14.250  13.839
19144W        W87549  30.109   0.728   2.624
19145W        W87550  25.526  34.039  12.085
19146W        W87551  42.421  37.181   0.813
19147W        W87552  25.979   6.294   1.882
19148W        W87553  21.574  40.574  13.720
19149W        W87554  31.552  41.363   1.448
19150W        W87555  18.146  42.892  13.821
19151W        W87556  33.932  20.576   1.685
19152W        W87557  13.251   2.774  14.276
19153W        W87558  36.321  44.207  14.856
19154W        W87559   9.791   5.775   1.809
19155W        W87560  31.689  13.149  10.733
19156W        W87561  41.336  21.927  12.130
19157W        W87562   5.330  10.179  12.901
19158W        W87563  32.438  27.415   4.615
19159W        W87564  30.088  36.455  12.573
19160W        W87565  35.970  23.762  12.510
19161W        W87566  19.010  36.797   3.672
19162W        W87567  33.359   9.155   2.703
19163W        W87568   8.111  34.174  11.994
19164W        W87569  27.760   5.552   2.658
19165W        W87570  33.890  23.278  13.465
19166W        W87571  31.829  39.473  12.433
19167W        W87572  29.147  44.503   1.813
19168W        W87573  15.674  41.853   2.841
19169W        W87574   3.731  24.729  14.270
19170W        W87575  23.182  23.647   2.757
19171W        W87576  30.496  40.356  13.412
19172W        W87577  36.773  36.054   0.028
19173W        W87578   7.103  27.546   2.819
19174W        W87579  44.940  43.670  12.144
19175W        W87580  43.068  12.220  10.873
19176W        W87581  35.306  31.024  12.502
19177W        W87582  23.420  33.840   3.696
19178W        W87583   9.663  19.643  12.982
19179W        W87584  28.016  40.663  13.449
19180W        W87585   3.034  41.514   4.194
19181W        W87586  22.160  32.551  13.625
19182W        W87587  27.716   0.190  10.679
19183W        W87588   8.686  30.199   0.867
19184W        W87589  33.960  10.991   2.633
19185W        W87590   7.921  23.539   4.322
19186W        W87591   8.774  28.490   2.418
19187W        W87592  10.595  39.004   3.346
19188W        W87593   0.827  15.175  12.348
19189W        W87594  43.515  14.512   2.205
19190W        W87595  40.261  25.793   2.071
19191W        W87596   6.930  40.366  12.390
19192W        W87597  19.582  10.103  11.562
19193W        W87598  19.874  38.663   4.225
19194W        W87599   4.864  30.518  10.232
19195W        W87600  18.747  35.786   1.365
19196W        W87601  20.130  13.653   4.413
19197W        W87602  37.552  35.992   2.212
19198W        W87603  12.859  20.217   3.647
19199W        W87604  12.684  37.650   2.199
19200W        W87605   6.316  18.966  12.968
19201W        W87606  40.776  29.629   0.358
19202W        W87607   5.719  13.638   4.754
19203W        W87608  18.273  44.224   4.259
19204W        W87609  20.513  20.506  14.752
19205W        W87610  22.482  12.199   3.832
19206W        W87611  16.566   0.919  10.478
19207W        W87612   4.331  13.082  10.610
19208W        W87613   5.864  34.194  12.192
19209W        W87614   3.375  26.039   2.736
19210W        W87615  14.614   0.950   0.443
19211W        W87616  33.229  22.723   0.792
19212W        W87617  37.766   4.667   2.856
19213W        W87618  27.575  44.002   2.816
19214W        W87619  20.586  24.360   0.330
19215W        W87620  37.997   2.748   4.201
19216W        W87621  30.601  19.238  12.643
19217W        W87622  41.439  24.713  10.695
19218W        W87623  34.472   5.684   2.330
19219W        W87624  23.060  20.305  10.542
19220W        W87625  17.130  44.027   3.553
19221W        W87626   5.492   9.003   4.122
19222W        W87627  17.619  34.520  14.902
19223W        W87628  23.068  30.451  11.486
19224W        W87629  43.445  10.341  13.974
19225W        W87630   3.500  16.228  13.513
19226W        W87631  28.374  42.880   2.810
19227W        W87632  11.745  25.451  11.143
19228W        W87633  18.519  41.476   0.302
19229W        W87634  31.109  29.394  12.753
19230W        W87635  35.424  12.422   0.754
19231W        W87636  12.819  18.811  13.836
19232W        W87637  30.514  21.268   3.358
19233W        W87638  22.069  24.735   1.371
19234W        W87639  32.604  27.132   4.121
19235W        W87640  18.782   3.274   3.158
19236W        W87641  18.591  43.271   4.172
19237W        W87642  33.280  39.396  12.997
19238W        W87643  40.705  30.479  10.389
19239W        W87644   4.385  26.702  10.722
19240W        W87645  36.824  22.303   0.304
19241W        W87646  34.333  21.544  12.099
19242W        W87647   6.359  43.447   0.690
19243W        W87648  26.402  17.452   4.308
19244W        W87649  26.984  14.316   0.273
19245W        W87650   2.351  15.724  13.681
19246W        W87651   3.075   9.975  10.165
19247W        W87652  12.881  33.693   1.823
19248W        W87653   0.043  31.953   0.718
19249W        W87654  25.734  18.439   2.210
19250W        W87655  13.522   7.640   0.768
19251W        W87656  38.328  34.792  12.956
19252W        W87657  25.536  11.212   4.677
19253W        W87658  12.086  31.023  11.311
19254W        W87659   0.090  36.052   0.321
19255W        W87660  39.491  11.613   4.604
19256W        W87661  34.285   9.701   2.421
19257W        W87662  28.144  39.668  14.524
19258W        W87663  32.803  22.195   4.277
19259W        W87664  27.954   5.680  11.906
19260W        W87665   7.591   5.309   1.373
19261W        W87666   2.860  43.975  13.566
19262W        W87667   4.441  24.172   3.884
19263W        W87668  34.581  42.889  14.266
19264W        W87669  21.000  11.522   0.298
19265W        W87670  42.371  17.130  13.406
19266W        W87671   8.877  14.496   4.600
19267W        W87672  41.045  21.286   4.071
19268W        W87673   5.245  32.930  10.624
19269W        W87674  15.137  32.234  12.409
19270W        W87675  14.545  39.915  10.264
19271W        W87676  16.126  34.304   3.689
19272W        W87677  37.948   1.368  12.577
19273W        W87678  17.833  29.806  14.262
19274W        W87679  22.745  23.120  13.918
19275W        W87680  44.353  17.663   4.003
19276W        W87681   0.173  44.809  11.184
19277W        W87682  35.431   3.611   0.887
19278W        W87683   2.057  26.506   1.299
19279W        W87684  20.676  39.813  14.826
19280W        W87685  19.304  25.785   9.858
19281W        W87686  43.385  29.987  12.458
19282W        W87687   3.219  15.279  10.869
19283W        W87688  16.131  34.170   2.368
19284W        W87689  35.156  12.888  12.958
19285W        W87690  24.821  41.041   0.868
19286W        W87691  27.871  40.508   1.430
19287W        W87692  34.445  28.064  10.461
19288W        W87693  39.750  36.146  12.959
19289W        W87694  44.804   1.625  12.617
19290W        W87695  15.147  41.547  12.367
19291W        W87696  30.295  21.521  10.622
19292W        W87697  18.089  11.744   4.598
19293W        W87698  42.461   8.545   0.177
19294W        W87699   3.194   0.498  12.581
19295W        W87700   9.240  43.932   2.578
19296W        W87701   2.149   9.706   1.644
19297W        W87702  12.759  42.237   0.211
19298W        W87703  42.077   6.516  13.711
19299W        W87704  13.434  25.366   0.319
19300W        W87705  42.953  22.994   3.234
19301W        W87706  17.444   2.773  12.540
19302W        W87707   0.985  22.566   3.638
19303W        W87708  26.184   4.624  10.938
19304W        W87709  34.969  30.531   0.371
19305W        W87710  43.535  29.905   0.823
19306W        W87711  15.628  41.168  10.761
19307W        W87712  40.994  43.783  13.327
19308W        W87713  26.080   0.825   0.303
19309W        W87714   0.006  41.166   4.780
19310W        W87715   3.906  33.635   2.608
19311W        W87716  30.071  16.053   1.335
19312W        W87717  11.388  40.783   2.403
19313W        W87718  43.605  38.592   2.598
19314W        W87719  34.546  40.887   4.365
19315W        W87720   7.157   3.307  12.963
19316W        W87721   4.140   8.188   2.779
19317W        W87722  38.131   5.393  11.202
19318W        W87723  21.071  34.676  13.203
19319W        W87724  24.104  10.674  13.905
19320W        W87725  26.185   4.890   3.386
19321W        W87726  30.868   0.696  13.291
19322W        W87727  15.206  41.692   0.093
19323W        W87728  37.368  10.157   0.382
19324W        W87729  21.496   1.442  10.965
19325W        W87730   1.696  17.265   4.180
19326W        W87731  43.503  39.422   0.015
19327W        W87732  10.256  20.893   5.060
19328W        W87733  29.699   4.473   4.624
19329W        W87734  24.332   1.290   2.313
19330W        W87735  29.175   2.527  12.587
19331W        W87736   9.318   1.980  11.004
19332W        W87737  28.669   1.409   0.052
19333W        W87738   1.173  34.876  11.005
19334W        W87739  23.306  25.069   2.296
19335W        W87740  23.269   7.540  11.066
19336W        W87741   6.677  29.706   2.668
19337W        W87742  37.272   2.412   1.717
19338W        W87743   1.955  30.446   3.385
19339W        W87744  34.055  40.053  14.262
19340W        W87745  15.051  25.501   3.719
19341W        W87746  40.934  17.765  10.367
19342W        W87747   5.627   7.104  12.061
19343W        W87748  36.845  30.494   3.209
19344W        W87749   7.307  40.244  11.501
19345W        W87750  25.790   4.893  12.648
19346W        W87751  23.614  19.410   5.281
19347W        W87752  11.904   3.840   3.164
19348W        W87753   2.967  43.412   4.126
19349W        W87754   2.399  36.588  14.273
19350W        W87755   9.667  40.829   0.800
19351W        W87756  43.751  34.065   2.837
19352W        W87757  34.923  31.844   1.901
19353W        W87758  28.223  23.642  12.804
19354W        W87759  32.559   4.849   2.400
19355W        W87760   0.572   6.937   4.154
19356W        W87761  40.007  12.240   3.591
19357W        W87762  36.469  44.685  12.355
19358W        W87763  26.711  37.583  13.741
19359W        W87764   9.433  16.861  14.027
19360W        W87765   3.182  21.270   1.187
19361W        W87766  12.892  12.606  11.213
19362W        W87767  18.581  17.653  12.374
19363W        W87768  37.710  20.913   1.218
19364W        W87769  15.133  28.613  14.762
19365W        W87770  36.511  16.742   4.944
19366W        W87771  41.507  43.990  12.031
19367W        W87772  25.852   5.555   2.218
19368W        W87773  33.830  38.438   4.615
19369W        W87774  12.583  39.625   4.205
19370W        W87775   9.375  41.232  11.878
19371W        W87776  42.819  18.607  12.622
19372W        W87777  33.693  14.122   1.377
19373W        W87778  10.172  10.728   1.668
19374W        W87779  40.924  16.272   1.100
19375W        W87780  32.632  39.395  14.474
19376W        W87781  28.525  21.537  13.408
19377W        W87782   9.929  28.159   2.157
19378W        W87783  34.338   6.000  12.859
19379W        W87784  27.407  26.470  11.550
19380W        W87785  22.449   4.372   2.796
19381W        W87786  38.409  24.648   4.106
19382W        W87787  16.637   0.234   3.750
19383W        W87788   5.649  40.497  12.833
19384W        W87789  13.048   5.207   4.498
19385W        W87790  12.742  18.981  14.695
19386W        W87791   7.128   8.695  13.982
19387W        W87792  35.333   9.929  11.573
19388W        W87793   9.679  40.363   3.117
19389W        W87794  22.586  35.706  12.466
19390W        W87795  32.614  42.018   4.552
19391W        W87796  36.402  22.631   0.316
19392W        W87797   6.607   7.714   1.417
19393W        W87798  19.122  31.179   1.739
19394W        W87799  34.603   0.911  11.172
19395W        W87800   1.835  31.762   1.699
19396W        W87801  42.150   4.428   4.061
19397W        W87802  34.667  20.363   3.873
19398W        W87803  37.894  24.733   0.685
19399W        W87804  41.417  27.761   2.806
19400W        W87805   0.006  24.886  10.746
19401W        W87806  32.556  41.159  13.021
19402W        W87807   7.260   0.077  14.321
19403W        W87808   5.787  36.565   4.102
19404W        W87809  39.641  31.357  11.021
19405W        W87810  20.175  10.593  10.642
19406W        W87811   0.362  16.842  14.281
19407W        W87812   1.158  27.744   3.678
19408W        W87813  12.743   8.147   2.824
19409W        W87814  36.457  26.543  11.063
19410W        W87815  18.401  29.883   1.024
19411W        W87816  31.242  28.044  10.844
19412W        W87817  18.770  12.830   2.763
19413W        W87818  20.673  33.162  14.690
19414W        W87819  22.255  27.992  10.690
19415W        W87820  33.221  28.377   5.095
19416W        W87821   0.490  16.763   0.275
19417W        W87822  11.319   2.055   4.447
19418W        W87823  30.522  32.128  10.681
19419W        W87824  37.469  31.901   0.802
19420W        W87825  34.397  23.251  10.827
19421W        W87826   7.728  33.750   2.324
19422W        W87827   5.208  35.483   3.327
19423W        W87828  34.087  11.930   1.388
19424W        W87829  33.371  40.822   1.833
19425W        W87830  32.244  44.521   9.973
19426W        W87831  21.017  22.059   0.968
19427W        W87832   4.461  42.236   3.696
19428W        W87833  39.675  21.541  12.008
19429W        W87834  43.992  34.339  12.906
19430W        W87835  18.537  44.783   1.794
19431W        W87836   5.381  32.677   0.046
19432W        W87837  28.630  40.723  13.953
19433W        W87838  15.812  31.016  13.948
19434W        W87839   0.447  24.742  10.982
19435W        W87840  22.085  43.382   1.323
19436W        W87841  39.881  36.792   3.777
19437W        W87842  13.999  21.639  12.584
19438W        W87843  36.856  28.472   2.861
19439W        W87844  12.186  25.015   0.441
19440W        W87845  38.653  23.700  13.485
19441W        W87846  42.040  27.964   3.180
19442W        W87847  20.633  24.872   3.675
19443W        W87848  24.539  21.151   5.076
19444W        W87849   0.720  43.663  10.682
19445W        W87850   6.055  16.205  12.636
19446W        W87851  17.323  28.009   1.913
19447W        W87852  20.175   3.873   1.986
19448W        W87853  35.511   1.696  10.729
19449W        W87854  39.222  21.109   4.044
19450W        W87855   6.403  11.054   4.556
19451W        W87856  11.393   6.959   0.512
19452W        W87857  17.228   2.069  14.830
19453W        W87858   6.580  39.053  10.826
19454W        W87859  44.816  22.986   0.565
19455W        W87860   2.436   9.346   2.853
19456W        W87861  12.107   2.264  11.749
19457W        W87862   6.435  14.258   3.697
19458W        W87863  36.926   2.945   2.014
19459W        W87864  42.028  40.793  12.514
19460W        W87865  39.055   5.396   4.624
19461W        W87866  37.377  35.223   3.273
19462W        W87867  14.875  35.908   2.196
19463W        W87868  29.472  26.522   3.196
19464W        W87869  32.649  26.566  12.058
19465W        W87870   9.923   1.666  12.139
19466W        W87871  43.356   9.601   2.116
19467W        W87872  42.141  22.612   2.730
19468W        W87873  33.800  43.902  12.534
19469W        W87874   4.748  24.611   0.328
19470W        W87875  40.414  36.459   1.641
19471W        W87876  37.428   5.550   2.640
19472W        W87877  10.796  34.655  13.529
19473W        W87878  25.390   0.508   3.153
19474W        W87879  29.979  38.196  11.982
19475W        W87880  18.663   7.107   0.934
19476W        W87881  25.568  29.371   0.950
19477W        W87882  29.554  44.044  11.107
19478W        W87883   9.781  19.471  11.697
19479W        W87884  42.948   5.661   3.096
19480W        W87885  39.020  20.752  11.125
19481W        W87886   7.693   8.353  12.545
19482W        W87887   9.448  12.576   0.793
19483W        W87888  39.624   4.770  11.417
19484W        W87889  12.725   5.417   0.164
19485W        W87890  22.701  16.229   2.773
19486W        W87891  19.013  30.652   1.916
19487W        W87892  26.210   9.237   1.201
19488W        W87893  19.502  39.905   1.645
19489W        W87894  18.174   7.625   0.561
19490W        W87895   9.679  29.677  11.426
19491W        W87896  33.531  23.621   0.558
19492W        W87897  41.345  29.399   1.626
19493W        W87898  38.931   0.670   3.392
19494W        W87899  27.091  32.004   0.937
19495W        W87900  39.100  15.652  14.500
19496W        W87901  12.868  19.034   3.352
19497W        W87902  37.907  44.980  14.949
19498W        W87903  38.387  32.000  13.112
19499W        W87904  14.504   3.014   3.119
19500W        W87905  21.250   1.770  12.062
19501W        W87906  35.645  41.712  13.623
19502W        W87907  27.962  28.221   0.835
19503W        W87908  19.123  39.630   0.947
19504W        W87909  27.008  21.728  12.633
19505W        W87910  12.219  25.130   2.692
19506W        W87911  44.201  14.808   1.242
19507W        W87912  30.126   6.741   4.613
19508W        W87913  20.298  40.253   2.873
19509W        W87914  44.364  35.851  14.434
19510W        W87915   8.405  37.847   3.716
19511W        W87916  29.030  10.308  11.661
19512W        W87917   8.336  25.382   1.338
19513W        W87918  32.391  16.064   0.195
19514W        W87919  27.983  42.504  11.718
19515W        W87920  32.157  40.701  14.531
19516W        W87921  29.025  24.076  14.492
19517W        W87922  16.997  34.516  10.865
19518W        W87923  25.980  37.743   1.746
19519W        W87924  38.437  37.378   0.396
19520W        W87925   7.855  32.045   2.875
19521W        W87926  17.602  25.760   4.159
19522W        W87927  28.349  23.155   4.160
19523W        W87928  11.691   9.342   4.272
19524W        W87929  19.065  22.106  14.842
19525W        W87930   3.039   5.919  13.437
19526W        W87931  34.332  14.681  12.853
19527W        W87932  40.541  20.303   4.083
19528W        W87933  10.166  39.822  11.611
19529W        W87934  25.063  11.448   0.335
19530W        W87935  13.514  32.118   0.969
19531W        W87936  37.860  16.947  10.707
19532W        W87937   3.954  41.326  14.166
19533W        W87938  38.746   2.096   5.747
19534W        W87939  11.076  29.629  11.710
19535W        W87940  33.790  39.542  13.643
19536W        W87941  44.544  42.510  13.001
19537W        W87942  33.976  44.093  12.042
19538W        W87943  38.589  37.781  12.955
19539W        W87944  36.628  42.419  12.918
19540W        W87945  38.870  12.332  14.377
19541W        W87946  36.931  43.354  13.933
19542W        W87947  17.600  34.904   1.187
19543W        W87948  33.712  26.230  10.748
19544W        W87949  33.463   1.845  12.813
19545W        W87950   6.894   2.037   3.547
19546W        W87951  14.855  12.453  11.160
19547W        W87952  10.717  17.694   5.055
19548W        W87953   2.683  29.005   2.188
19549W        W87954  28.544  32.023   1.711
19550W        W87955   4.408  44.153  14.700
19551W        W87956  26.607  19.254  13.800
19552W        W87957  18.821  24.009  12.557
19553W        W87958  23.707  37.320  11.206
19554W        W87959   5.710  36.577  12.424
19555W        W87960   8.774  17.199   0.292
19556W        W87961  20.767  19.052  14.815
19557W        W87962  12.260  42.538   3.116
19558W        W87963  42.384  25.497   3.690
19559W        W87964   6.927  43.399   3.697
19560W        W87965   4.249  32.908  11.868
19561W        W87966  23.446  37.095  13.012
19562W        W87967  42.913   9.761   4.407
19563W        W87968   4.703  12.114   0.217
19564W        W87969   4.948  29.563   4.297
19565W        W87970  22.546  39.446  11.545
19566W        W87971  22.416  24.789   2.305
19567W        W87972  27.023  17.978  14.236
19568W        W87973  31.933  26.986   3.289
19569W        W87974   4.980  18.158   1.287
19570W        W87975  21.902   9.624   4.589
19571W        W87976  33.812  32.670   1.261
19572W        W87977  42.731   9.734   0.551
19573W        W87978   3.519  44.810   4.257
19574W        W87979  20.616  42.902   4.848
19575W        W87980  28.016  21.695  13.766
19576W        W87981  13.259   9.140  11.184
19577W        W87982  33.807  11.622  12.515
19578W        W87983  17.347  37.936  11.543
19579W        W87984   0.019  36.296  13.889
19580W        W87985  31.631  10.224   3.291
19581W        W87986   2.383  15.070   2.290
19582W        W87987  22.727  41.303   2.610
19583W        W87988  32.622  12.347   0.135
19584W        W87989  34.405  18.781  10.521
19585W        W87990  15.499  12.356   4.098
19586W        W87991  20.116  32.673  10.731
19587W        W87992  14.770  28.875   1.132
19588W        W87993  34.938  40.090  13.292
19589W        W87994   9.125  32.850   1.240
19590W        W87995  11.317  34.530   1.695
19591W        W87996  27.589   0.322   1.706
19592W        W87997  15.905  16.783  13.088
19593W        W87998  38.107   1.077  11.568
19594W        W87999  32.125  18.231   0.813
19595W        W88000  16.225  25.473  13.472
19596W        W88001  34.145   9.159   2.246
19597W        W88002  39.815  44.935  14.882
19598W        W88003  32.941  13.128   4.645
19599W        W88004  38.317  30.564  12.845
19600W        W88005  18.566   5.161   3.590
19601W        W88006  44.839   5.697  12.624
19602W        W88007  35.085  35.099   2.229
19603W        W88008  20.200   8.236  13.086
19604W        W88009  19.753  36.791  12.592
19605W        W88010  39.992  37.714  12.849
19606W        W88011  22.119  39.484  10.425
19607W        W88012  40.198  41.357   0.250
19608W        W88013  39.664  24.051   1.320
19609W        W88014  22.307  39.846   3.575
19610W        W88015  28.122   8.338   0.428
19611W        W88016  17.984   8.721  11.577
19612W        W88017   9.773   7.971  14.798
19613W        W88018  38.838  29.461  13.112
19614W        W88019  18.777  22.443   1.727
19615W        W88020  25.142  31.681  14.026
19616W        W88021  31.379   6.247   3.096
19617W        W88022  25.658  41.358   1.785
19618W        W88023  14.251  35.580  13.874
19619W        W88024  23.939  41.131   1.396
19620W        W88025  37.330   9.201  11.570
19621W        W88026  38.780  26.519  10.758
19622W        W88027  41.846  17.038  14.005
19623W        W88028   8.181  11.518  11.998
19624W        W88029   5.293  44.757   3.672
19625W        W88030  43.527  26.269  13.966
19626W        W88031  19.212  16.077  11.108
19627W        W88032  38.350   3.882  14.814
19628W        W88033  29.131  23.232   4.569
19629W        W88034   8.317  27.080   0.295
19630W        W88035  36.732  44.221   1.673
19631W        W88036  26.855  27.004   1.793
19632W        W88037   9.904  11.325   4.531
19633W        W88038  19.328  20.151   3.017
19634W        W88039  20.969  43.891   3.004
19635W        W88040  39.881  44.077   2.846
19636W        W88041  30.883  32.925   0.463
19637W        W88042  18.132  15.185  10.607
19638W        W88043  43.577   6.929  12.523
19639W        W88044  44.518   5.854  13.564
19640W        W88045  19.576   3.228  12.960
19641W        W88046  20.210  22.497   1.850
19642W        W88047  35.309  39.147   0.813
19643W        W88048   0.805  12.166   1.318
19644W        W88049  17.333  27.848  11.651
19645W        W88050  20.004  11.748  12.140
19646W        W88051  30.396  17.282   1.037
19647W        W88052   9.850  40.841  13.776
19648W        W88053  24.617  12.392   1.315
19649W        W88054  21.450   9.201  10.998
19650W        W88055   0.446   2.326  13.102
19651W        W88056  11.615  23.001  13.038
19652W        W88057  30.237  26.153   3.796
19653W        W88058   9.252  30.624  10.757
19654W        W88059  42.558  12.275  10.737
19655W        W88060  37.381   2.011  12.641
19656W        W88061   3.352   2.791  11.137
19657W        W88062  31.799  39.495   4.529
19658W        W88063  28.097   3.510   2.452
19659W        W88064   9.252  19.606  14.393
19660W        W88065  15.636  18.000   3.775
19661W        W88066  30.066  22.139   2.807
19662W        W88067   5.395  38.262   2.354
19663W        W88068  32.407  32.199   2.727
19664W        W88069  22.964   4.183   1.216
19665W        W88070  10.835  12.120  11.308
19666W        W88071   5.460  43.363  10.459
19667W        W88072   3.144  20.625   0.874
19668W        W88073  41.399   1.316   4.824
19669W        W88074  10.432  35.323  11.851
19670W        W88075  18.384   4.916   4.017
19671W        W88076  17.121  38.875   2.751
19672W        W88077  44.717  25.579   0.322
19673W        W88078  29.070  20.034  11.604
19674W        W88079  35.814  42.941  11.580
19675W        W88080  33.316  37.722   5.023
19676W        W88081  12.044  42.976  11.057
19677W        W88082  10.449  43.004   3.374
19678W        W88083  10.788  31.112   4.549
19679W        W88084  33.410  18.887  11.647
19680W        W88085  34.877  36.067  13.029
19681W        W88086   9.263  10.850   4.653
19682W        W88087  21.535   7.502   5.123
19683W        W88088  42.196  18.243   1.215
19684W        W88089  23.230  44.968  12.290
19685W        W88090  34.974  22.661  14.991
19686W        W88091  36.966   9.745  11.219
19687W        W88092  44.461  26.613   2.190
19688W        W88093   7.112  28.818   1.275
19689W        W88094  12.837   2.430  10.315
19690W        W88095  11.328  29.518   4.098
19691W        W88096  25.952  19.460  11.528
19692W        W88097  27.184  35.347  13.573
19693W        W88098  44.967  15.610   3.622
19694W        W88099   2.359  26.820  12.440
19695W        W88100   8.691  35.330   5.154
19696W        W88101  40.243  28.459  12.438
19697W        W88102   9.204  37.915   3.229
19698W        W88103  30.664   6.735   4.681
19699W        W88104  33.382   0.025   3.613
19700W        W88105   2.690  17.283   4.425
19701W        W88106  15.540  30.351   4.591
19702W        W88107  17.455  32.257  10.072
19703W        W88108  20.189  37.004   1.719
19704W        W88109  23.707  42.027  12.416
19705W        W88110  10.824  16.314   3.977
19706W        W88111  35.310  32.851   0.297
19707W        W88112   5.207  26.105  11.989
19708W        W88113  19.560  24.755   4.477
19709W        W88114  37.481  25.546   4.659
19710W        W88115   4.144  26.758   1.919
19711W        W88116   5.682  20.296   3.672
19712W        W88117  42.723   4.286   1.873
19713W        W88118  39.475  28.773   2.513
19714W        W88119  12.329  10.652   1.547
19715W        W88120   0.348  15.704  14.901
19716W        W88121  29.254  13.348   0.465
19717W        W88122  15.299   7.699  11.077
19718W        W88123  12.598  24.123   0.771
19719W        W88124  24.135  14.339   3.729
19720W        W88125  10.331   9.753  13.981
19721W        W88126  42.967  20.139  14.484
19722W        W88127   8.940  20.167  12.897
19723W        W88128  28.272  24.672   2.202
19724W        W88129  32.074  17.409  14.871
19725W        W88130  13.415  16.147   0.221
19726W        W88131  17.146  16.495   1.374
19727W        W88132  39.923  19.748   3.503
19728W        W88133  37.110  10.133   1.827
19729W        W88134   9.683  22.110  10.800
19730W        W88135  13.789  19.264  11.891
19731W        W88136  12.880  23.138  12.497
19732W        W88137  30.095  10.857   3.551
19733W        W88138   1.769  40.041   4.746
19734W        W88139  43.725  18.458   0.960
19735W        W88140   8.346  23.377  13.504
19736W        W88141   0.004   9.992  12.929
19737W        W88142  34.887  28.481   2.684
19738W        W88143  33.787  37.525   2.444
19739W        W88144  21.581  18.008  12.783
19740W        W88145  21.679  23.160  12.391
19741W        W88146  25.596   6.384   0.344
19742W        W88147  28.607  41.536  14.420
19743W        W88148  23.288  36.588  12.266
19744W        W88149  29.334  35.974   3.838
19745W        W88150  16.652   6.202  11.039
19746W        W88151  13.080  10.963  11.573
19747W        W88152  16.687   3.736  10.711
19748W        W88153  44.556  14.796  14.927
19749W        W88154  13.695  24.851  11.432
19750W        W88155  21.302  37.561   3.257
19751W        W88156  28.274  44.406  12.789
19752W        W88157  38.424  20.805   0.443
19753W        W88158  40.495  18.634   4.688
19754W        W88159   2.526  40.080   4.233
19755W        W88160  31.491  44.721   4.135
19756W        W88161   6.997  30.542  11.921
19757W        W88162   2.821  32.487  10.630
19758W        W88163  23.678   1.504   2.901
19759W        W88164  32.698   5.282  13.481
19760W        W88165  33.647  32.659   2.428
19761W        W88166   4.367  25.166   3.643
19762W        W88167  22.180  31.344   0.492
19763W        W88168  11.618  32.918   4.457
19764W        W88169  10.744  15.325   4.926
19765W        W88170   4.863  32.961  14.324
19766W        W88171  32.604   1.398   3.571
19767W        W88172  38.911  28.899   0.846
19768W        W88173  18.235  29.726  12.580
19769W        W88174  12.370  13.851  11.912
19770W        W88175  40.953  27.507   3.586
19771W        W88176  29.611   8.589   0.639
19772W        W88177  36.905  16.210   1.212
19773W        W88178  15.615  14.755   0.405
19774W        W88179   7.542  42.303   0.320
19775W        W88180  37.871  43.819   2.816
19776W        W88181  28.019  41.041   3.717
19777W        W88182   0.867   3.004   2.030
19778W        W88183  44.360  20.331  14.491
19779W        W88184  15.629  16.661   1.973
19780W        W88185   3.399  38.076   1.480
19781W        W88186  15.345  30.933  13.758
19782W        W88187  22.244  29.018  11.109
19783W        W88188  42.556  28.049   3.274
19784W        W88189   9.906  41.296   0.831
19785W        W88190  29.963  42.925  12.939
19786W        W88191   8.441  37.461   0.019
19787W        W88192  11.573  22.424   4.095
19788W        W88193   3.695  10.348  10.684
19789W        W88194   4.301  10.907  12.316
19790W        W88195   6.355  16.620   2.614
19791W        W88196  44.113  31.061  12.067
19792W        W88197  43.978  25.493  12.070
19793W        W88198  21.400  24.230   2.765
19794W        W88199  33.639  12.393  11.974
19795W        W88200  11.942  29.002   3.604
19796W        W88201  16.258  32.604  14.336
19797W        W88202  22.142   7.323  12.585
19798W        W88203  33.832  38.017   1.698
19799W        W88204  20.037  18.682   2.244
19800W        W88205  42.457  38.368   0.158
19801W        W88206  44.459  24.053   4.007
19802W        W88207   1.994  33.304   1.264
19803W        W88208  42.665   0.053  10.398
19804W        W88209  15.830  44.547   4.618
19805W        W88210  37.825   1.866   2.464
19806W        W88211  39.894  37.947   0.357
19807W        W88212  41.590   9.405  14.383
19808W        W88213  20.455  30.683   2.459
19809W        W88214  13.039   2.789  11.965
19810W        W88215  27.505  35.448   3.178
19811W        W88216   6.179  22.026  13.608
19812W        W88217  12.763   8.547  14.843
19813W        W88218  28.305  11.157   2.775
19814W        W88219  22.784   7.628  12.963
19815W        W88220  31.046  18.836   1.784
19816W        W88221  43.943  29.305   2.266
19817W        W88222  43.932  29.423   3.972
19818W        W88223  17.312  27.615  11.128
19819W        W88224  21.030   5.234  13.048
19820W        W88225  35.224  40.856  10.418
19821W        W88226  35.110  36.489   3.173
19822W        W88227  41.474  22.191   3.136
19823W        W88228   7.580  43.059  11.672
19824W        W88229  39.994  39.127  11.764
19825W        W88230  16.562  39.324   0.213
19826W        W88231   3.821  44.031   4.374
19827W        W88232  39.944   4.463  14.449
19828W        W88233  18.183  38.592   2.234
19829W        W88234  15.816  31.566   2.171
19830W        W88235   1.393   4.164   4.974
19831W        W88236  41.310   5.958  14.419
19832W        W88237   8.542   1.494  14.885
19833W        W88238  43.871  29.002   3.628
19834W        W88239  18.259  20.759  14.488
19835W        W88240  36.069  20.149  12.496
19836W        W88241  20.284  37.977   1.847
19837W        W88242   6.922   2.068  13.884
19838W        W88243  44.502  37.542   4.636
19839W        W88244   6.631  34.773  11.102
19840W        W88245   2.849   1.242   0.266
19841W        W88246  19.884  22.384   9.806
19842W        W88247  16.673  19.405   0.206
19843W        W88248  44.312  32.930  11.534
19844W        W88249  39.337   0.300  11.313
19845W        W88250  37.670  37.155   0.916
19846W        W88251  32.320  10.815  12.342
19847W        W88252   7.879  36.028   0.702
19848W        W88253  11.600  29.172   1.470
19849W        W88254  23.495  42.565  13.815
19850W        W88255  20.218  24.789   1.722
19851W        W88256  22.236  23.090  12.579
19852W        W88257  37.932  42.722   3.144
19853W        W88258   2.074   2.782   4.287
19854W        W88259  36.425   6.260  10.044
19855W        W88260   7.126  30.324   5.229
19856W        W88261  20.925  15.666   1.758
19857W        W88262  27.549  42.432   3.748
19858W        W88263  11.668  15.838   2.150
19859W        W88264  15.277  44.361   3.691
19860W        W88265  26.128   4.125   3.893
19861W        W88266  34.707  32.812   2.424
19862W        W88267   3.446  42.959   0.484
19863W        W88268  19.120   3.207   3.572
19864W        W88269  14.344  11.568  13.277
19865W        W88270  11.355  23.687   1.665
19866W        W88271  41.531  15.557   1.825
19867W        W88272  17.676  38.019   4.751
19868W        W88273   0.165   7.304  12.850
19869W        W88274  11.458  13.828   3.757
19870W        W88275  15.891  19.462  13.597
19871W        W88276   1.858  10.248  11.239
19872W        W88277   9.163  30.964  11.166
19873W        W88278  35.334  38.092   3.273
19874W        W88279   5.215  21.865  13.733
19875W        W88280  37.238  29.351   1.241
19876W        W88281  30.097  13.194  13.421
19877W        W88282  27.102  25.629  14.105
19878W        W88283   9.805   1.317   2.401
19879W        W88284  11.396  40.366   0.644
19880W        W88285   7.148  19.832  12.926
19881W        W88286   2.219  11.312   3.229
19882W        W88287  43.468  38.573   1.702
19883W        W88288   8.869   6.755   0.386
19884W        W88289  28.912   4.106  14.490
19885W        W88290  27.104  44.869   2.357
19886W        W88291   8.670  10.740   4.359
19887W        W88292  16.155  16.267   4.486
19888W        W88293  23.579  12.770  14.604
19889W        W88294  21.707   7.456  11.211
19890W        W88295  38.617  11.106  14.472
19891W        W88296  15.579  26.680   4.853
19892W        W88297  26.642   9.306  14.962
19893W        W88298  24.144  28.408   1.837
19894W        W88299   8.855   3.710  11.199
19895W        W88300   5.070  18.138   2.219
19896W        W88301   6.839   8.459   2.278
19897W        W88302  10.962  14.694  12.015
19898W        W88303  43.888  34.900   1.380
19899W        W88304  30.558  13.076   0.852
19900W        W88305  10.963  42.387   0.000
19901W        W88306  37.464  10.302   4.183
19902W        W88307  23.693  32.652   1.665
19903W        W88308   8.838  16.322  14.171
19904W        W88309  20.156   7.214   3.116
19905W        W88310  26.930  17.529  14.458
19906W        W88311  25.573  20.817   4.145
19907W        W88312   7.213  39.047   4.343
19908W        W88313  17.358  28.948   3.151
19909W        W88314   1.961  30.932  12.821
19910W        W88315   1.312  41.913  14.073
19911W        W88316  20.241  34.278   2.807
19912W        W88317  26.113   6.465   2.372
19913W        W88318   2.968  12.066   2.178
19914W        W88319  40.278  38.946  12.125
19915W        W88320  16.538  28.375   3.860
19916W        W88321  38.539   9.139  13.913
19917W        W88322  35.877   6.198   4.540
19918W        W88323  17.779  43.384   1.876
19919W        W88324  24.366  14.867  14.304
19920W        W88325  21.104  40.348  11.122
19921W        W88326  38.392  44.288   3.724
19922W        W88327  10.170  38.661   2.410
19923W        W88328  11.850  13.060   1.994
19924W        W88329  37.304   5.420  11.992
19925W        W88330  38.419  11.239   0.347
19926W        W88331   1.856   7.386   2.311
19927W        W88332  44.360  22.520  14.391
19928W        W88333  35.049  37.275  13.408
19929W        W88334  40.990  33.271   2.902
19930W        W88335   3.458   6.222   2.198
19931W        W88336  26.921  13.855  13.284
19932W        W88337  40.589  16.669  13.303
19933W        W88338  44.360  22.828   0.344
19934W        W88339  11.576   6.587   4.972
19935W        W88340   6.447  29.124   2.594
19936W        W88341  19.946  23.192   0.364
19937W        W88342  27.698  11.378   2.062
19938W        W88343  43.415  39.995  11.610
19939W        W88344  32.904  10.155  11.946
19940W        W88345   9.260  40.503  13.099
19941W        W88346   7.737  21.702   1.039
19942W        W88347  13.635  22.312   0.421
19943W        W88348  41.871  15.292   3.657
19944W        W88349  14.739   7.327   1.194
19945W        W88350  11.122  37.009  12.031
19946W        W88351   9.237  42.846   0.445
19947W        W88352  34.005  41.080   3.169
19948W        W88353  44.481  17.025   3.307
19949W        W88354   3.322  33.140  10.594
19950W        W88355  33.992   6.278   1.806
19951W        W88356  19.588   6.861   0.420
19952W        W88357  42.299  18.857   4.130
19953W        W88358  10.202  33.051  13.620
19954W        W88359  14.572  11.183   4.620
19955W        W88360  30.037  14.450  10.818
19956W        W88361  37.645  16.580  13.254
19957W        W88362  15.698   5.722  14.956
19958W        W88363  27.465  17.194  11.519
19959W        W88364  25.632   3.412  12.871
19960W        W88365  40.777   6.952   4.051
19961W        W88366  22.079  36.077   3.114
19962W        W88367  18.219  42.776  12.417
19963W        W88368  12.405   1.985   2.183
19964W        W88369  42.845  26.974  11.110
19965W        W88370  27.538  14.615  12.146
19966W        W88371  25.517  32.503  12.365
19967W        W88372  10.587  36.646  14.119
19968W        W88373  27.519  14.342   4.530
19969W        W88374   4.016  44.378   2.258
19970W        W88375  25.201  16.846  10.912
19971W        W88376  18.044  37.542  11.455
19972W        W88377  15.161  12.254  10.776
19973W        W88378  32.138  33.072   2.719
19974W        W88379  20.684  11.040   3.191
19975W        W88380   1.383  24.586  13.611
19976W        W88381  37.322  32.916   1.138
19977W        W88382  17.352   4.756   0.325
19978W        W88383  17.408   0.648  13.071
19979W        W88384   8.155  21.262  12.039
19980W        W88385  26.591  31.556  12.389
19981W        W88386  13.302  14.231  13.359
19982W        W88387   6.338  32.035   3.609
19983W        W88388   6.878   5.780   3.096
19984W        W88389  39.438  33.087   1.904
19985W        W88390   6.898  42.265  14.566
19986W        W88391  36.528  27.696   1.412
19987W        W88392  40.966  18.568   1.358
19988W        W88393  18.695  36.586  10.684
19989W        W88394   4.742  18.227   3.470
19990W        W88395  29.122  43.126   2.013
19991W        W88396  42.010  42.100   1.741
19992W        W88397  22.904   5.827   3.795
19993W        W88398  26.572  34.525  11.217
19994W        W88399  21.507  17.064   2.436
19995W        W88400  24.262  10.341   2.776
19996W        W88401  21.023  34.446  11.772
19997W        W88402  44.987  40.009  10.619
19998W        W88403  24.466  20.831   2.452
19999W        W88404  43.863   9.672   1.912
20000W        W88405  21.201  29.313   4.023
20001W        W88406   9.222  41.410   3.089
20002W        W88407   1.860  21.568  13.210
20003W        W88408  19.994  17.201   2.214
20004W        W88409  35.304  24.006   0.312
20005W        W88410  38.235  44.743  10.675
20006W        W88411   6.110   0.059  11.911
20007W        W88412  12.128  19.675   3.660
20008W        W88413  23.476  17.359   3.677
20009W        W88414   1.768   8.165  14.850
20010W        W88415   4.414  37.411   2.142
20011W        W88416  14.860   9.814  14.380
20012W        W88417  10.766  33.993   4.140
20013W        W88418   8.123  31.685  11.083
20014W        W88419  20.272  17.855  11.559
20015W        W88420  21.727  28.620   0.847
20016W        W88421  34.815  39.089   4.116
20017W        W88422  14.565  13.223  13.932
20018W        W88423  40.961  38.756   2.224
20019W        W88424  28.591  25.040  13.650
20020W        W88425  27.624   4.622  10.258
20021W        W88426  21.648   4.548  14.608
20022W        W88427  40.864  32.209   3.895
20023W        W88428  15.698  44.397   0.074
20024W        W88429  17.281  24.705   0.879
20025W        W88430  29.891  10.617  12.043
20026W        W88431  40.308  15.850  13.482
20027W        W88432  29.610  32.136  14.109
20028W        W88433  30.041  22.293  14.419
20029W        W88434  13.685  33.327   3.620
20030W        W88435  42.972  31.157   0.841
20031W        W88436  15.563  15.263   1.486
20032W        W88437  22.099  32.061  13.539
20033W        W88438  37.303   2.614   2.267
20034W        W88439   0.943  31.686  10.748
20035W        W88440  41.398   2.866  13.872
20036W        W88441  18.874   5.368   0.708
20037W        W88442  32.132  39.056  10.785
20038W        W88443  38.584   8.929   0.852
20039W        W88444  40.473   0.957   0.371
20040W        W88445   3.279   1.265   1.476
20041W        W88446   3.906   4.930  12.412
20042W        W88447  27.524  35.207  11.140
20043W        W88448   4.539  16.844   3.157
20044W        W88449  27.933  18.630   3.151
20045W        W88450  13.123  41.553   3.012
20046W        W88451  41.720  11.460  13.863
20047W        W88452  15.619  35.528   3.690
20048W        W88453  40.943  40.395  11.120
20049W        W88454  32.961  40.457   3.154
20050W        W88455  13.866  44.834  14.267
20051W        W88456  10.148  35.140  11.400
20052W        W88457  17.185  43.414   2.762
20053W        W88458  21.600  27.388   2.323
20054W        W88459   7.600  39.927   1.869
20055W        W88460   3.264  24.146   1.369
20056W        W88461  28.647  18.038  12.975
20057W        W88462  17.551  42.637  11.134
20058W        W88463  40.737  26.198   4.350
20059W        W88464  15.258  21.528  12.019
20060W        W88465  11.160  20.548   4.810
20061W        W88466  29.147  17.659   2.735
20062W        W88467  21.440  22.022  13.480
20063W        W88468   2.805  29.091  12.543
20064W        W88469   1.704  32.080   3.308
20065W        W88470  43.120   0.569  11.136
20066W        W88471  14.755  36.485  10.789
20067W        W88472  11.707  39.956  14.892
20068W        W88473   1.084  35.038   4.993
20069W        W88474   3.017  17.947   1.320
20070W        W88475  11.404  31.232   5.083
20071W        W88476  15.931  39.900   4.179
20072W        W88477  19.514  18.337  13.254
20073W        W88478  16.102  21.929   2.311
20074W        W88479  20.856   0.244  14.777
20075W        W88480  20.323  33.924  14.274
20076W        W88481  26.173  11.822   2.788
20077W        W88482  34.000  14.639  10.665
20078W        W88483  10.705  39.530   3.219
20079W        W88484  26.599   4.930  11.125
20080W        W88485   2.773   8.162  11.089
20081W        W88486  40.017   9.700   1.705
20082W        W88487  21.642  36.882  13.307
20083W        W88488  20.286  38.286   4.246
20084W        W88489  21.606   4.590  13.027
20085W        W88490  19.204  17.542  12.810
20086W        W88491  14.142  24.781  13.836
20087W        W88492  44.953   9.322   3.768
20088W        W88493  22.818  34.922  13.186
20089W        W88494   3.787  39.103   2.767
20090W        W88495  36.498  25.575  11.507
20091W        W88496  10.692  29.461   1.115
20092W        W88497  39.037  10.196  14.876
20093W        W88498  17.151  35.426   1.486
20094W        W88499  15.296  11.829   2.470
20095W        W88500   0.586  11.841  10.654
20096W        W88501   7.895  25.260  11.823
20097W        W88502  39.152  42.920   2.777
20098W        W88503  20.802  16.205   4.900
20099W        W88504  21.598  43.290   3.209
20100W        W88505  23.781  41.237   2.273
20101W        W88506  37.614   0.431   3.361
20102W        W88507  18.357  22.579   4.093
20103W        W88508  13.755  26.017   0.814
20104W        W88509  17.272  19.483  10.877
20105W        W88510  20.814  36.599   1.378
20106W        W88511   7.123  39.510   4.065
20107W        W88512  31.947  43.578  12.496
20108W        W88513   1.542  40.492  14.892
20109W        W88514   3.207  25.171   0.291
20110W        W88515  29.589  32.837   0.742
20111W        W88516  16.942   0.923   3.516
20112W        W88517  35.342  31.818   1.297
20113W        W88518  24.483   3.443  12.521
20114W        W88519  33.462  20.287  12.929
20115W        W88520  24.315   1.636   1.758
20116W        W88521   7.108  34.182   3.268
20117W        W88522   1.854  20.161   2.621
20118W        W88523  13.422  43.731   0.865
20119W        W88524  19.175  35.418  11.415
20120W        W88525  21.679  12.121   2.293
20121W        W88526  15.252  37.751  12.148
20122W        W88527  21.787  22.395  14.391
20123W        W88528  38.449  15.347   3.663
20124W        W88529  29.335  44.450  11.338
20125W        W88530   2.367  17.232   3.460
20126W        W88531  29.377  34.788  10.568
20127W        W88532  24.896  39.958   9.841
20128W        W88533  32.678  25.634   2.239
20129W        W88534   7.547  34.991   0.785
20130W        W88535  40.321  34.883  11.039
20131W        W88536   0.832   6.921   2.482
20132W        W88537  22.261  34.245  14.927
20133W        W88538  20.009  31.891  10.214
20134W        W88539  26.522   1.402   1.371
20135W        W88540  28.292  27.058  11.842
20136W        W88541  28.490   9.904  13.219
20137W        W88542  11.580  35.411   2.196
20138W        W88543  19.137  34.568   2.196
20139W        W88544  39.748  13.115   1.727
20140W        W88545  42.916  29.922  14.846
20141W        W88546  37.366  42.080   4.110
20142W        W88547  44.012  41.105   0.236
20143W        W88548  25.886  44.308   4.307
20144W        W88549  21.732   4.946  14.266
20145W        W88550   7.449  23.514  11.707
20146W        W88551  20.820  25.277   4.596
20147W        W88552  28.714   0.692  14.253
20148W        W88553  23.949  28.933  11.539
20149W        W88554  14.275  14.193  14.462
20150W        W88555  16.021  16.280  10.968
20151W        W88556   9.665  33.074  11.132
20152W        W88557   4.321  16.085   3.815
20153W        W88558   2.748  26.250  14.454
20154W        W88559  33.331  38.580  13.556
20155W        W88560  29.886  28.511  14.844
20156W        W88561  43.450  18.140   3.347
20157W        W88562   1.055   8.727  13.364
20158W        W88563  41.302  29.948  12.559
20159W        W88564  35.515   5.300   2.143
20160W        W88565  18.527   0.945  12.891
20161W        W88566  22.021  43.401   4.888
20162W        W88567   0.731  36.882  13.801
20163W        W88568   1.607  43.715   1.963
20164W        W88569  34.203  19.117  14.382
20165W        W88570  14.621  34.560  10.969
20166W        W88571  29.447  21.831  13.945
20167W        W88572  29.945   3.932   2.877
20168W        W88573  13.668  29.877   1.394
20169W        W88574  36.057  18.198   4.142
20170W        W88575  21.477  13.780   2.359
20171W        W88576  38.053  42.212   2.253
20172W        W88577  42.033  43.328  11.095
20173W        W88578  44.882   0.989   0.509
20174W        W88579  24.240   0.413   2.346
20175W        W88580  28.734  40.877  14.953
20176W        W88581  12.456   3.449  12.669
20177W        W88582  14.768  16.849   3.350
20178W        W88583  24.795  28.601  11.127
20179W        W88584   6.715  43.047   5.079
20180W        W88585  26.106   4.515  11.575
20181W        W88586   6.837  37.341   0.758
20182W        W88587  15.804  17.655   0.052
20183W        W88588  42.988  13.646   3.010
20184W        W88589   2.144   5.313  12.421
20185W        W88590  10.585  27.013  12.007
20186W        W88591  21.498  41.233  11.580
20187W        W88592   5.099  31.417   0.642
20188W        W88593  11.875  18.723   4.027
20189W        W88594  44.859  35.997  10.786
20190W        W88595  18.345  35.012  12.592
20191W        W88596  41.986  20.026  13.863
20192W        W88597  29.854  16.867  11.855
20193W        W88598  18.763  15.212  14.846
20194W        W88599  22.697  37.195  13.951
20195W        W88600  19.729   2.756  13.157
20196W        W88601  27.421   0.047   0.388
20197W        W88602  37.054   0.306   2.723
20198W        W88603  14.610  27.839  12.607
20199W        W88604  36.009  32.636  14.717
20200W        W88605  13.643  19.173   1.287
20201W        W88606  10.785  20.500  14.869
20202W        W88607  37.809  22.524  13.429
20203W        W88608  26.641  16.663   2.376
20204W        W88609  23.156  13.201  13.286
20205W        W88610  42.845   3.454  14.238
20206W        W88611  21.649   6.819   2.305
20207W        W88612  13.724  40.459   2.789
20208W        W88613  28.654   5.771   3.832
20209W        W88614  37.636  39.574   3.288
20210W        W88615   1.549   0.450  14.322
20211W        W88616  23.522   2.733  11.036
20212W        W88617  12.194  17.391  14.492
20213W        W88618  41.432  32.118  12.963
20214W        W88619  30.465  41.602   1.353
20215W        W88620  29.215  22.664  12.157
20216W        W88621  26.110  36.631   3.815
20217W        W88622  39.411   4.257   1.432
20218W        W88623  41.030   5.462  11.547
20219W        W88624  35.722   2.518  11.081
20220W        W88625  32.198  19.102  11.092
20221W        W88626  24.859  17.062  14.717
20222W        W88627   9.743  40.344  13.841
20223W        W88628  37.349  31.281   0.296
20224W        W88629  15.989   9.317   1.715
20225W        W88630   7.760  17.414   4.182
20226W        W88631  30.229  40.656  14.716
20227W        W88632  33.377  41.677  10.294
20228W        W88633   1.366  40.066   3.521
20229W        W88634  25.384  20.900   3.282
20230W        W88635  38.820  13.769   3.608
20231W        W88636  14.230  40.043   2.352
20232W        W88637   8.459   3.524  10.831
20233W        W88638  25.142  29.172   3.761
20234W        W88639  36.339  15.116  14.950
20235W        W88640  38.938  14.852   0.815
20236W        W88641  39.919  19.325   3.128
20237W        W88642  41.251  34.688   2.693
20238W        W88643  42.065  29.470   0.412
20239W        W88644  42.568  32.826   1.350
20240W        W88645  30.042  41.027  14.399
20241W        W88646  13.495  27.048  14.980
20242W        W88647   3.445  33.526   2.828
20243W        W88648  26.713  44.854  13.761
20244W        W88649  44.994   2.343   0.411
20245W        W88650  29.995   4.968   0.819
20246W        W88651  42.824  32.389   1.377
20247W        W88652  44.721  29.115  10.361
20248W        W88653  25.322   6.832   4.754
20249W        W88654  44.267  41.729   2.154
20250W        W88655  34.525  35.191  13.005
20251W        W88656  11.138   7.873  12.084
20252W        W88657  33.605  39.142   0.356
20253W        W88658  19.289  15.156  14.830
20254W        W88659  43.937  40.560  12.026
20255W        W88660  14.719  22.275   0.728
20256W        W88661  31.520  29.500   2.902
20257W        W88662   9.772  23.738  13.467
20258W        W88663  19.013  44.705  11.425
20259W        W88664  40.507  38.297   4.855
20260W        W88665  40.375  23.048   2.203
20261W        W88666  30.548   7.226   0.325
20262W        W88667  22.135  28.079   2.681
20263W        W88668  15.638  17.540  10.698
20264W        W88669   5.202  31.768   4.252
20265W        W88670  24.992   3.519   1.892
20266W        W88671   1.287  20.182   3.349
20267W        W88672  38.015  38.893   3.682
20268W        W88673  39.559  26.070   0.031
20269W        W88674  31.050   9.568  14.546
20270W        W88675   1.308   8.447   2.916
20271W        W88676  33.511   9.071   0.506
20272W        W88677   8.408  14.351  11.126
20273W        W88678  44.030  24.763   0.380
20274W        W88679  27.465   5.896  13.393
20275W        W88680   0.412  10.031   9.962
20276W        W88681  11.243   0.080  11.532
20277W        W88682  13.339  34.241  11.493
20278W        W88683  12.249  35.568   3.765
20279W        W88684  13.605  43.835  10.709
20280W        W88685  34.901  42.146   2.100
20281W        W88686  20.272   2.507   4.631
20282W        W88687   8.842  13.115  11.139
20283W        W88688  13.806  40.291   4.339
20284W        W88689  20.975  17.810   2.705
20285W        W88690   4.919  30.984   2.781
20286W        W88691  15.675  10.676   1.396
20287W        W88692   4.913  22.753  13.858
20288W        W88693  15.338   2.302  12.945
20289W        W88694  41.947  21.104  10.372
20290W        W88695  23.564  31.174   1.641
20291W        W88696   4.126   5.373  14.387
20292W        W88697   7.265   4.134   2.863
20293W        W88698  26.499  22.963   3.288
20294W        W88699  27.018  25.161   2.372
20295W        W88700  21.749   1.050  11.226
20296W        W88701  30.377  13.120   2.103
20297W        W88702  21.776  38.911   2.766
20298W        W88703  21.518  30.106   4.542
20299W        W88704   5.239   6.441   0.178
20300W        W88705  35.826  40.610   1.733
20301W        W88706  10.228  12.840   1.421
20302W        W88707  35.179   7.628   4.532
20303W        W88708  14.074  19.326   0.558
20304W        W88709   9.234   9.924  13.826
20305W        W88710   9.617  11.650  13.792
20306W        W88711  31.525  13.679   4.384
20307W        W88712  11.932  15.465   0.641
20308W        W88713  39.269  20.307  11.750
20309W        W88714  18.320  44.765  13.589
20310W        W88715   9.588  22.590   1.396
20311W        W88716  19.230  16.727  14.450
20312W        W88717  14.037  41.770   3.798
20313W        W88718   5.291  31.612   2.135
20314W        W88719   1.818  16.859   2.296
20315W        W88720  35.047   2.987   1.307
20316W        W88721  24.102   1.384  10.763
20317W        W88722  22.663  13.119   0.061
20318W        W88723  13.839  12.246   2.315
20319W        W88724   5.884   5.200   0.840
20320W        W88725  31.023  17.993   3.780
20321W        W88726   6.633  11.970   3.186
20322W        W88727  19.022  20.544   4.300
20323W        W88728  15.993  42.961   2.504
20324W        W88729  41.432  25.169  14.408
20325W        W88730  31.648  39.982   4.837
20326W        W88731  35.449  28.685  11.591
20327W        W88732   7.681   8.825   3.745
20328W        W88733  34.424  38.554  11.460
20329W        W88734  13.079  33.088   4.546
20330W        W88735  28.616  10.379   2.258
20331W        W88736  41.440  43.316   2.687
20332W        W88737  28.240   1.287   3.749
20333W        W88738   0.355  29.547  11.089
20334W        W88739   7.316  44.037   3.177
20335W        W88740  18.699  12.196   1.448
20336W        W88741  23.573  23.094  14.320
20337W        W88742  26.904  17.694   4.090
20338W        W88743  17.718  26.452  13.529
20339W        W88744   5.105  10.883   3.243
20340W        W88745   7.525  12.154  13.055
20341W        W88746  34.711  23.247   0.806
20342W        W88747   7.354  27.496  14.780
20343W        W88748  17.343  23.495   0.928
20344W        W88749  28.438  29.195  11.956
20345W        W88750  35.898  22.294  12.892
20346W        W88751  20.143  36.764  11.727
20347W        W88752  35.653  34.588   3.737
20348W        W88753  30.038  14.687   3.695
20349W        W88754  42.804  35.427  14.253
20350W        W88755  20.770  32.466  14.416
20351W        W88756  29.779  43.948  12.473
20352W        W88757   9.180  15.629  13.737
20353W        W88758  30.235   7.668   4.731
20354W        W88759   5.880  11.592  10.909
20355W        W88760   4.217  33.918  10.472
20356W        W88761  40.688  32.659  11.072
20357W        W88762  23.519  34.052  13.966
20358W        W88763  30.597  42.388  14.484
20359W        W88764   5.376   5.765   2.130
20360W        W88765   3.684   0.683  12.548
20361W        W88766  44.888  34.388  14.912
20362W        W88767  41.883  31.080  12.575
20363W        W88768  13.703  25.717   0.056
20364W        W88769  39.763   0.868  13.517
20365W        W88770   2.262   4.879   9.712
20366W        W88771  43.744  21.540   2.927
20367W        W88772   1.955  30.874   5.125
20368W        W88773  35.239  30.526   1.749
20369W        W88774   0.244   0.334  13.961
20370W        W88775   7.824  40.486  11.559
20371W        W88776  14.316  31.152  12.387
20372W        W88777  41.073   3.003   4.644
20373W        W88778  28.223   7.229  12.617
20374W        W88779  44.601  18.856   3.743
20375W        W88780  22.717  23.601   3.646
20376W        W88781  44.949  15.724   2.987
20377W        W88782   6.269  28.702  11.201
20378W        W88783  33.910   5.732   3.658
20379W        W88784  26.515  23.218  14.911
20380W        W88785  40.299  30.877   0.756
20381W        W88786  10.506  28.593   0.960
20382W        W88787   6.159  30.523  14.511
20383W        W88788  35.348  16.914  11.721
20384W        W88789  14.686  28.882  14.855
20385W        W88790  23.052   1.984   0.631
20386W        W88791  34.471  42.606   0.203
20387W        W88792  20.075   7.961  11.731
20388W        W88793  28.056   7.326  12.146
20389W        W88794  30.397  21.661  12.994
20390W        W88795  43.818   9.940  12.929
20391W        W88796  29.122  18.788  12.044
20392W        W88797  43.884   5.833   3.228
20393W        W88798   1.109   7.855   4.955
20394W        W88799   6.298   2.299  13.926
20395W        W88800   4.255  24.208   2.453
20396W        W88801  44.846   6.587   4.563
20397W        W88802  32.222  34.610   3.276
20398W        W88803  26.027  31.651  10.624
20399W        W88804   0.352  35.465  12.623
20400W        W88805  39.300  30.426  12.079
20401W        W88806  13.214  22.562   1.232
20402W        W88807  36.885   1.671  13.912
20403W        W88808  18.317  17.559   2.649
20404W        W88809   1.220  44.040  12.397
20405W        W88810   4.782  34.544  10.748
20406W        W88811   4.245   0.996  11.172
20407W        W88812  14.942   9.214   3.222
20408W        W88813  31.592  38.407   1.890
20409W        W88814  26.582  35.025  12.918
20410W        W88815  13.642  13.920  12.546
20411W        W88816  20.854  32.689  14.950
20412W        W88817  37.854  16.085  12.388
20413W        W88818  42.646  23.956   4.789
20414W        W88819  20.384  36.992   3.581
20415W        W88820   7.302  35.206   1.199
20416W        W88821  42.785  12.677   4.473
20417W        W88822  40.449  26.442   1.874
20418W        W88823  13.829  40.926  11.003
20419W        W88824   0.251  44.007   4.903
20420W        W88825  15.072  41.817   1.507
20421W        W88826  30.690   1.897  13.529
20422W        W88827   2.023   4.951  13.870
20423W        W88828  29.100  27.549  14.537
20424W        W88829  31.355  36.987  11.575
20425W        W88830   6.650  35.406  10.670
20426W        W88831  32.946  13.678   4.769
20427W        W88832  31.474   7.036   2.949
20428W        W88833  29.260  39.348  13.346
20429W        W88834   1.466  16.659  11.261
20430W        W88835   1.021  16.456  11.032
20431W        W88836  29.441  21.462   4.979
20432W        W88837  29.132  43.583   5.109
20433W        W88838  23.974  39.012   0.286
20434W        W88839  37.918  24.531  14.521
20435W        W88840  14.704  31.544  13.073
20436W        W88841   0.483  21.770   3.616
20437W        W88842  32.543  10.916   4.759
20438W        W88843  20.402  38.486  13.587
20439W        W88844   2.747  40.023   3.701
20440W        W88845  22.317  12.737  12.649
20441W        W88846  40.696  22.992  10.438
20442W        W88847  21.282   2.984   1.160
20443W        W88848  17.701   2.137   1.780
20444W        W88849  24.573  22.702   2.859
20445W        W88850  33.161  26.559  13.002
20446W        W88851  41.568  35.994   3.166
20447W        W88852  38.292  25.537   3.306
20448W        W88853   6.141   7.320  10.653
20449W        W88854  23.281  20.694   1.885
20450W        W88855  38.075  19.686   3.340
20451W        W88856   5.393  32.022   2.465
20452W        W88857  33.729   9.307  11.463
20453W        W88858  18.587  32.405   3.716
20454W        W88859  15.380  11.746   1.449
20455W        W88860   2.992  33.677  13.042
20456W        W88861  34.824  17.170   4.891
20457W        W88862  28.236  25.508   2.848
20458W        W88863  31.691  42.256  12.819
20459W        W88864   9.318  31.676  14.378
20460W        W88865  18.937  39.248   2.877
20461W        W88866  16.769   5.870  13.003
20462W        W88867  12.135   3.251  13.727
20463W        W88868  37.380   1.624   2.649
20464W        W88869  23.150   9.463   0.638
20465W        W88870  31.602   3.759   3.392
20466W        W88871  35.084  22.821   0.880
20467W        W88872  43.977  15.477   9.978
20468W        W88873   8.601  36.076  14.521
20469W        W88874  14.085  11.852  12.917
20470W        W88875  23.753   8.925  11.124
20471W        W88876  24.629  40.563   1.041
20472W        W88877  16.055  27.155  12.112
20473W        W88878  43.839  40.283  11.603
20474W        W88879  34.173  40.963   0.778
20475W        W88880  27.613  26.101   4.185
20476W        W88881  28.696  17.588   4.061
20477W        W88882  28.743  13.174   3.632
20478W        W88883  43.722  26.674   4.694
20479W        W88884   1.814   3.890   0.362
20480W        W88885  12.124  35.388   2.225
20481W        W88886  11.843  23.674  14.735
20482W        W88887  31.784  29.652  13.378
20483W        W88888  28.447  44.611  11.038
20484W        W88889   8.007  18.134  13.082
20485W        W88890   1.404   1.530  14.813
20486W        W88891  13.390  25.117  12.144
20487W        W88892   0.714  44.679  11.119
20488W        W88893  28.005  13.381  13.488
20489W        W88894   0.055   9.248   2.786
20490W        W88895   3.731   1.280  11.115
20491W        W88896   7.841  42.037  12.510
20492W        W88897  43.354  43.794   4.467
20493W        W88898  16.046  23.547  10.610
20494W        W88899  15.277  17.836  11.473
20495W        W88900   5.231  13.208   4.216
20496W        W88901  12.099  30.402   1.458
20497W        W88902   3.880  15.222   1.484
20498W        W88903  41.613  12.764   4.302
20499W        W88904  24.111  16.174  10.585
20500W        W88905  11.722   5.404   4.128
20501W        W88906   4.518  18.205   2.798
20502W        W88907  12.781  32.374  11.518
20503W        W88908  23.798  42.924   1.753
20504W        W88909  26.715  21.503  10.696
20505W        W88910   4.785  31.856   4.566
20506W        W88911  21.648  16.622   1.684
20507W        W88912   6.646  16.816   4.616
20508W        W88913  29.101  23.781   0.337
20509W        W88914  37.217  17.328  13.638
20510W        W88915  24.130  28.501   1.294
20511W        W88916   9.159  39.964  11.683
20512W        W88917  29.938  42.320   4.387
20513W        W88918  36.596  23.092   0.514
20514W        W88919  44.427  31.774  10.452
20515W        W88920  34.528  33.930  11.321
20516W        W88921  34.339  28.314  10.929
20517W        W88922  26.793  44.341  14.976
20518W        W88923  20.724   1.029  14.484
20519W        W88924   1.072   6.791  13.948
20520W        W88925   2.509   5.418  14.750
20521W        W88926  44.719  41.521  12.522
20522W        W88927  44.454  20.697   0.400
20523W        W88928  40.341  40.546  11.091
20524W        W88929  21.139   7.444  11.124
20525W        W88930  12.831  30.479   3.114
20526W        W88931  10.639   7.324   3.667
20527W        W88932  22.704  44.750   3.803
20528W        W88933  33.391   8.637  12.635
20529W        W88934  13.853  11.939  14.803
20530W        W88935   2.818  20.559  11.639
20531W        W88936  12.781  32.044  11.092
20532W        W88937  41.288   5.463  11.102
20533W        W88938  18.222   8.848  11.134
20534W        W88939  13.632  28.322   4.070
20535W        W88940   3.355  31.629   3.058
20536W        W88941  36.039  31.604  13.601
20537W        W88942  40.611  20.583   2.182
20538W        W88943  12.795  16.641  10.472
20539W        W88944  36.601  37.870  13.029
20540W        W88945   9.127  42.809   3.532
20541W        W88946  41.135  43.499   2.318
20542W        W88947   0.062  15.580  11.556
20543W        W88948  28.608  15.252   3.607
20544W        W88949  16.626   5.619  14.876
20545W        W88950  40.879  44.711  14.418
20546W        W88951  21.009  42.814   1.842
20547W        W88952  42.641  10.352   3.601
20548W        W88953  30.005  27.006   1.762
20549W        W88954   9.769  14.090   2.893
20550W        W88955  21.462  28.596   0.397
20551W        W88956  27.028  18.693   3.198
20552W        W88957  40.053   0.977   3.666
20553W        W88958  31.765  26.130  13.916
20554W        W88959  37.250  28.145   2.867
20555W        W88960  23.856   5.941  13.460
20556W        W88961  24.125  43.555   1.791
20557W        W88962   2.006  22.797  12.389
20558W        W88963   0.793   2.891   3.570
20559W        W88964  30.182  11.278   0.529
20560W        W88965  41.721  21.341  10.767
20561W        W88966  10.044  20.640  10.763
20562W        W88967  33.347  20.668  12.171
20563W        W88968  44.048  44.260  12.348
20564W        W88969   9.184   9.169   0.197
20565W        W88970   8.661  25.111   0.352
20566W        W88971  41.086   1.467  13.509
20567W        W88972  24.046  29.903   3.624
20568W        W88973  12.415  11.301  13.054
20569W        W88974  18.603  40.531   4.408
20570W        W88975   0.986  17.273   1.929
20571W        W88976  18.785   2.239   3.204
20572W        W88977  12.765  36.426   3.318
20573W        W88978  26.915  30.029   1.216
20574W        W88979  34.470  40.958  13.526
20575W        W88980  43.949  16.228   4.917
20576W        W88981   5.430  16.501   1.163
20577W        W88982   6.855  39.051  11.786
20578W        W88983  13.875  41.408  12.060
20579W        W88984  30.467   5.228  10.696
20580W        W88985  34.460   2.275   3.680
20581W        W88986  14.919  29.680  11.655
20582W        W88987  34.020  39.978  14.770
20583W        W88988   9.487  27.052   4.589
20584W        W88989  36.271   5.857   2.490
20585W        W88990  24.406  42.530  14.029
20586W        W88991  34.181  18.947   3.731
20587W        W88992   1.251  26.443  12.042
20588W        W88993  18.067   3.015  14.508
20589W        W88994  26.025  28.521  13.888
20590W        W88995   8.081   4.909  12.597
20591W        W88996  28.659  17.716   2.559
20592W        W88997  15.416  24.861   9.789
20593W        W88998  32.056   1.519  11.500
20594W        W88999  32.674  14.845   0.949
20595W        W89000  10.336   1.256  11.419
20596W        W89001  37.861  13.613   4.602
20597W        W89002  24.134  41.309  10.034
20598W        W89003  10.240  21.704  11.917
20599W        W89004  17.748  24.939   3.048
20600W        W89005  23.359  24.173  11.936
20601W        W89006   7.332   6.196  14.843
20602W        W89007  32.001  44.440   2.871
20603W        W89008  35.167  19.223  11.212
20604W        W89009  43.944  16.864  11.090
20605W        W89010  21.936  14.226   4.317
20606W        W89011   6.147  21.088   2.378
20607W        W89012  10.595  22.085  11.884
20608W        W89013  35.682  12.640   1.677
20609W        W89014   4.901  24.235   2.210
20610W        W89015  19.067  10.158  14.023
20611W        W89016  29.396  19.306   2.169
20612W        W89017  41.543  15.730  12.981
20613W        W89018  41.162  42.794  13.446
20614W        W89019  42.890  33.111  13.903
20615W        W89020  12.215  25.349  14.980
20616W        W89021  37.051   2.773  12.463
20617W        W89022  35.811   4.088   5.275
20618W        W89023  28.534  21.210   1.511
20619W        W89024  25.498   7.215   2.305
20620W        W89025  20.984  25.627  13.472
20621W        W89026  44.380  32.227   4.906
20622W        W89027   1.373  38.468  14.839
20623W        W89028  12.190   3.358  14.261
20624W        W89029  24.665  31.136   0.015
20625W        W89030  38.446  34.331  13.837
20626W        W89031  42.938  11.296  12.582
20627W        W89032   5.178  32.518  13.479
20628W        W89033  10.843  38.288   3.610
20629W        W89034  20.119   8.458  11.739
20630W        W89035  33.910  36.317  13.316
20631W        W89036  15.949  40.260  13.903
20632W        W89037  43.821  15.074  13.595
20633W        W89038  42.034  44.806  14.900
20634W        W89039   0.380  39.450  12.230
20635W        W89040  36.809   1.936   2.767
20636W        W89041   3.217  44.622   3.026
20637W        W89042   9.642  32.119  11.341
20638W        W89043  23.413  18.319   0.858
20639W        W89044  19.203   0.517  12.618
20640W        W89045   8.706   5.293  11.968
20641W        W89046  43.910   0.904   2.394
20642W        W89047  10.156   8.058  11.580
20643W        W89048  10.124  26.911  10.328
20644W        W89049   6.827  15.630   3.554
20645W        W89050  20.189  42.923   1.211
20646W        W89051  18.082  36.893  12.616
20647W        W89052   6.126  33.554  13.524
20648W        W89053  20.735  34.946  11.159
20649W        W89054  22.592  36.528   1.322
20650W        W89055   8.183  35.362  11.227
20651W        W89056  12.765  36.798  11.647
20652W        W89057  39.972  42.757  11.100
20653W        W89058  15.434  35.824   1.421
20654W        W89059  28.022  33.032   2.147
20655W        W89060   3.921  21.765   4.214
20656W        W89061  35.554  13.404  11.204
20657W        W89062  19.300  39.251   0.615
20658W        W89063   0.789  16.116  10.715
20659W        W89064  33.286   4.012  13.372
20660W        W89065  20.148  35.400  11.428
20661W        W89066  25.914  44.821   2.916
20662W        W89067  39.377  23.197   0.377
20663W        W89068   2.802   8.077  13.411
20664W        W89069   3.237   6.537   0.353
20665W        W89070  10.426   4.460  11.022
20666W        W89071  21.171  36.790  12.449
20667W        W89072  43.435  29.821  11.292
20668W        W89073  14.497  34.089   2.186
20669W        W89074  26.262   5.846   1.311
20670W        W89075  31.029  43.828  14.687
20671W        W89076  11.092  40.561   2.771
20672W        W89077  38.838  16.616  10.668
20673W        W89078   8.255   0.154  14.659
20674W        W89079  14.164  26.164   3.234
20675W        W89080  14.509  10.135  10.175
20676W        W89081  30.857  13.822  14.939
20677W        W89082  35.355  24.687   3.113
20678W        W89083  10.319  14.627  12.624
20679W        W89084   4.417  27.005  14.806
20680W        W89085  11.815  37.619   3.156
20681W        W89086  43.375  24.797  10.532
20682W        W89087  34.739  38.769   2.361
20683W        W89088  20.523  25.313  13.437
20684W        W89089   9.792  20.684  12.861
20685W        W89090  38.534  14.781  14.353
20686W        W89091   9.707   2.964   0.975
20687W        W89092  23.204   4.883  13.631
20688W        W89093  18.280  30.394   4.168
20689W        W89094  26.646  11.500  10.641
20690W        W89095  27.894   8.050  14.807
20691W        W89096  39.670  24.735   0.402
20692W        W89097  17.237  26.363   5.097
20693W        W89098  25.774  22.712  12.842
20694W        W89099  25.641  42.271   0.680
20695W        W89100  35.578  30.286   4.869
20696W        W89101  21.012  20.829  12.419
20697W        W89102  18.779  37.339   5.070
20698W        W89103  14.694  22.077   2.436
20699W        W89104  39.037  35.473  12.200
20700W        W89105  35.917  43.020   2.412
20701W        W89106  36.825  40.306   4.135
20702W        W89107  28.510  17.546  12.105
20703W        W89108   3.436  37.989   3.304
20704W        W89109  33.699  23.664   4.192
20705W        W89110  26.558  18.252  11.405
20706W        W89111  42.501  34.058  13.891
20707W        W89112  29.884  36.221   0.837
20708W        W89113   6.490  10.407  14.997
20709W        W89114  19.693   4.729   2.225
20710W        W89115  40.102  17.068   4.913
20711W        W89116  17.274   4.813   5.101
20712W        W89117   5.984  42.139  12.512
20713W        W89118  10.517  42.033  13.340
20714W        W89119  15.789  29.678  14.309
20715W        W89120  22.187  26.028  13.572
20716W        W89121  21.483  34.488  12.081
20717W        W89122  39.990  18.805  13.067
20718W        W89123  20.744  43.502   1.376
20719W        W89124  36.978  30.528   4.551
20720W        W89125  22.997  41.697   3.341
20721W        W89126  32.507   1.224  10.688
20722W        W89127  20.865  18.015  12.281
20723W        W89128  25.074  31.406  12.072
20724W        W89129  41.945  30.682  11.155
20725W        W89130  15.531  16.505   3.796
20726W        W89131  39.098  29.362  14.951
20727W        W89132  40.013  15.783  11.573
20728W        W89133   5.262  39.708  11.099
20729W        W89134  33.142   5.395   5.058
20730W        W89135   9.338  18.968  10.114
20731W        W89136  28.162   5.455  12.366
20732W        W89137   4.758   5.568   2.723
20733W        W89138  13.639  38.624  12.629
20734W        W89139  38.451  18.717   2.324
20735W        W89140   7.355  11.577  14.889
20736W        W89141   0.786  12.923   2.097
20737W        W89142   6.438  30.237   3.384
20738W        W89143  30.554  15.204   3.748
20739W        W89144   6.221  34.598   2.381
20740W        W89145  14.296   2.601   3.637
20741W        W89146  13.598  16.807  13.011
20742W        W89147  23.249   2.851   4.292
20743W        W89148  17.322  30.960   3.512
20744W        W89149  25.043  27.437   1.675
20745W        W89150  30.256  32.578   3.649
20746W        W89151  41.427  21.982  12.702
20747W        W89152  40.933  25.533   3.050
20748W        W89153   0.361  38.323  13.233
20749W        W89154   6.912  16.652   0.382
20750W        W89155  25.265  44.854   3.735
20751W        W89156  35.044  24.587  12.900
20752W        W89157  31.378  30.953   4.317
20753W        W89158  36.280  44.895   0.367
20754W        W89159  44.618   0.613   0.222
20755W        W89160  35.567  10.673  12.096
20756W        W89161  20.437  13.625   2.180
20757W        W89162  29.063  20.626   4.180
20758W        W89163  34.119   9.650  14.733
20759W        W89164   4.682  12.525   1.110
20760W        W89165  12.258  39.504   0.343
20761W        W89166  41.552  31.638   1.551
20762W        W89167  42.815  44.410   4.640
20763W        W89168  40.581   3.271   3.678
20764W        W89169  29.972  39.509   4.544
20765W        W89170  24.056   0.278   1.383
20766W        W89171  10.175  37.477   3.683
20767W        W89172  39.460  15.359   3.199
20768W        W89173  32.275   3.211  12.039
20769W        W89174   9.826   2.936   4.808
20770W        W89175  26.741  10.064  10.764
20771W        W89176  25.674  12.604   0.241
20772W        W89177  35.805  20.599   0.962
20773W        W89178   5.337   9.380  14.075
20774W        W89179  13.761   1.029  13.739
20775W        W89180  16.674  16.822  10.559
20776W        W89181  41.912  40.540  12.060
20777W        W89182  32.189  40.425  13.517
20778W        W89183  44.575  25.618   2.858
20779W        W89184   1.087  10.841  14.809
20780W        W89185  20.123  11.454  11.733
20781W        W89186  23.640  24.965  14.236
20782W        W89187  20.492  30.374   3.743
20783W        W89188  26.073   2.464  12.127
20784W        W89189  42.837  15.370  14.209
20785W        W89190   8.809  43.197   3.679
20786W        W89191  20.258  12.234   1.429
20787W        W89192  22.128  36.478   3.438
20788W        W89193   3.222  25.176   3.238
20789W        W89194  15.887  24.515   4.326
20790W        W89195  21.260  24.616   5.162
20791W        W89196   0.334  26.265   4.165
20792W        W89197  30.147  30.590  14.221
20793W        W89198  41.476  10.594  14.954
20794W        W89199  14.767  25.952   2.119
20795W        W89200   0.943  31.339   1.356
20796W        W89201  35.530  22.493  13.955
20797W        W89202  33.146  37.421  12.893
20798W        W89203   1.843  31.001   0.753
20799W        W89204  23.606  20.032   0.680
20800W        W89205  42.304   7.643   1.186
20801W        W89206  39.800  40.078   1.264
20802W        W89207  30.505  26.413   1.374
20803W        W89208  18.693  32.923  13.801
20804W        W89209  16.661  24.004  14.281
20805W        W89210  41.284  37.581  13.901
20806W        W89211  41.890  17.524   2.862
20807W        W89212  14.700  17.601  11.209
20808W        W89213   8.940  30.744   5.211
20809W        W89214  14.259  22.246  11.718
20810W        W89215   3.856  26.456  11.362
20811W        W89216  24.124  26.459   1.811
20812W        W89217  20.989   7.221  13.416
20813W        W89218   0.517   3.775  14.826
20814W        W89219   7.956  16.752  11.098
20815W        W89220  33.478  22.240   1.489
20816W        W89221  16.355   1.390   3.038
20817W        W89222  21.448  13.450   3.222
20818W        W89223  23.642  12.076   0.797
20819W        W89224   2.708  28.113   4.055
20820W        W89225  16.871  15.557   4.589
20821W        W89226  13.848  17.037   2.820
20822W        W89227  11.528  11.331   1.385
20823W        W89228  27.903  30.116  12.959
20824W        W89229   7.014  44.867   2.716
20825W        W89230  29.217  41.282   1.791
20826W        W89231  10.994  33.344   3.178
20827W        W89232  14.179  30.094  11.462
20828W        W89233   4.253  37.650   0.811
20829W        W89234  26.631   8.125   4.958
20830W        W89235  16.715  11.130   2.771
20831W        W89236  14.879   6.148  11.415
20832W        W89237   6.432  26.145   1.863
20833W        W89238  37.645  36.382  13.115
20834W        W89239  36.652  31.432  12.500
20835W        W89240  18.173   6.771   3.165
20836W        W89241  17.165  41.239  12.247
20837W        W89242  26.131  31.183   3.229
20838W        W89243  14.084   0.683   3.858
20839W        W89244  41.956   3.502  12.891
20840W        W89245  17.557  29.598   1.269
20841W        W89246   4.964  43.108   5.052
20842W        W89247   1.965  10.339  11.726
20843W        W89248  27.669  24.089  11.801
20844W        W89249  34.005  19.499  12.605
20845W        W89250  21.588  33.889  13.628
20846W        W89251  14.394  27.509  10.593
20847W        W89252  17.733  27.677  14.544
20848W        W89253  23.064   0.796  12.827
20849W        W89254  19.419  18.629   1.194
20850W        W89255  41.327   8.548  12.557
20851W        W89256  12.522  26.208  14.407
20852W        W89257  34.286  43.832  12.362
20853W        W89258   4.247  20.456   2.837
20854W        W89259   7.601  37.190   1.233
20855W        W89260  17.211  22.110  11.697
20856W        W89261   6.928  31.492  13.382
20857W        W89262  32.090   8.410   1.487
20858W        W89263   1.452  42.811   0.233
20859W        W89264   3.798  43.222  11.999
20860W        W89265  38.528   2.942  14.801
20861W        W89266  35.955  15.463  13.351
20862W        W89267   3.407  34.455  10.780
20863W        W89268   1.311   5.747   0.227
20864W        W89269  28.949  35.085   4.543
20865W        W89270   2.060  16.754  14.494
20866W        W89271   8.576  12.015   0.285
20867W        W89272   5.907  19.412   3.809
20868W        W89273  21.074  32.817   4.749
20869W        W89274  29.129  11.208  10.904
20870W        W89275  35.363  15.262   2.483
20871W        W89276   4.537  29.134  13.304
20872W        W89277  18.390  14.878  14.841
20873W        W89278  35.374  38.767  12.978
20874W        W89279   0.357  20.510  14.873
20875W        W89280  13.826   2.862   0.846
20876W        W89281  15.806  43.059  12.767
20877W        W89282   0.689  42.820  14.881
20878W        W89283  36.967  32.398  13.722
20879W        W89284  21.429  30.617   4.639
20880W        W89285  41.944  26.191  12.094
20881W        W89286  23.189   5.649  14.719
20882W        W89287  38.274  18.589   0.977
20883W        W89288   8.437  10.742  14.579
20884W        W89289  38.633   1.354   5.067
20885W        W89290  30.365  16.523  12.518
20886W        W89291   9.480   8.632   0.930
20887W        W89292  30.573  37.127   4.982
20888W        W89293   1.814   0.759  10.742
20889W        W89294   3.260  27.639   3.572
20890W        W89295  30.078  33.041   0.065
20891W        W89296   7.141  17.639  13.351
20892W        W89297  14.827  36.965  12.113
20893W        W89298  28.706  38.224   4.469
20894W        W89299   4.223   9.651  12.340
20895W        W89300  30.276  16.272  14.282
20896W        W89301  27.892  38.579  12.029
20897W        W89302  31.360  11.153  14.182
20898W        W89303  21.154   4.083  10.993
20899W        W89304  39.352  20.622  12.548
20900W        W89305  34.006  15.165  11.994
20901W        W89306   2.878  44.434  14.434
20902W        W89307  42.312  35.485   2.638
20903W        W89308  24.961  20.156   4.398
20904W        W89309  43.721  39.502  14.497
20905W        W89310   6.785  10.663   0.999
20906W        W89311  44.080  20.595   0.047
20907W        W89312  13.914  44.289  10.685
20908W        W89313  42.844   8.941  14.825
20909W        W89314  40.977  20.450  12.159
20910W        W89315  41.995  17.487  14.234
20911W        W89316  32.795  19.268  13.498
20912W        W89317  13.059  44.481  11.168
20913W        W89318  25.071  36.884   1.274
20914W        W89319  27.001   5.398  11.055
20915W        W89320  28.323  44.024   0.390
20916W        W89321  39.812  22.338  13.126
20917W        W89322  31.494   3.965   4.852
20918W        W89323  37.336  14.366   1.750
20919W        W89324  28.596  27.606   2.204
20920W        W89325  16.753  34.483   0.974
20921W        W89326  25.297  30.182   3.666
20922W        W89327  37.879  31.272  12.581
20923W        W89328  25.777  23.259   1.038
20924W        W89329  43.937  16.321   3.869
20925W        W89330  42.462  12.266   2.394
20926W        W89331  12.905  21.071   3.431
20927W        W89332  19.452   5.189   2.139
20928W        W89333  11.234  40.651   0.207
20929W        W89334  14.640  25.376   3.429
20930W        W89335  34.114  24.009   4.626
20931W        W89336   4.282  34.655   4.818
20932W        W89337  10.161   9.995  14.445
20933W        W89338  15.140   6.731  14.445
20934W        W89339   2.299  20.137   4.947
20935W        W89340   0.526  44.193  13.517
20936W        W89341   0.739   4.183   4.578
20937W        W89342   0.958   0.916   2.228
20938W        W89343  44.109  17.636   1.283
20939W        W89344  27.862  27.856   1.802
20940W        W89345  35.576  29.966   3.382
20941W        W89346  30.429  11.997  13.444
20942W        W89347   9.372  24.535   3.620
20943W        W89348  41.220  37.882   1.769
20944W        W89349   5.302  32.441  10.788
20945W        W89350  44.479  44.264   0.002
20946W        W89351  31.807  20.986   0.765
20947W        W89352   2.414  16.100   2.346
20948W        W89353  12.849  22.273   3.249
20949W        W89354  16.811  38.879   9.983
20950W        W89355  38.587  28.031   0.462
20951W        W89356  21.035  34.214   1.261
20952W        W89357  36.608  36.642  11.041
20953W        W89358  12.715  21.207   2.427
20954W        W89359   8.665  38.077   1.349
20955W        W89360   8.405   1.907  10.785
20956W        W89361  28.161   5.965   0.901
20957W        W89362   6.380  13.293   3.810
20958W        W89363  39.941  18.677  13.614
20959W        W89364  27.930  22.300   4.110
20960W        W89365  26.044  16.733  10.040
20961W        W89366  41.958  35.052  12.510
20962W        W89367  16.764  12.271   3.577
20963W        W89368   9.123  13.682   0.358
20964W        W89369   0.121  20.018   4.008
20965W        W89370  31.086  39.874   3.198
20966W        W89371  34.380   9.864  12.796
20967W        W89372  24.832  41.417   2.277
20968W        W89373  13.393  30.851  12.051
20969W        W89374  32.460  23.066  10.547
20970W        W89375  40.721  44.665  10.809
20971W        W89376   4.107  14.309  13.080
20972W        W89377   6.137  16.907   0.809
20973W        W89378  36.660  13.093   0.804
20974W        W89379   9.713  13.928  12.478
20975W        W89380  22.251  16.912   4.221
20976W        W89381  30.471  26.297   4.609
20977W        W89382   9.215  20.167  12.396
20978W        W89383  23.463  34.602  12.747
20979W        W89384  34.261   0.624   3.768
20980W        W89385   5.300  39.773   4.167
20981W        W89386  21.140   6.962   0.189
20982W        W89387  38.818  34.390  11.614
20983W        W89388  16.288   0.531   5.382
20984W        W89389  33.178   6.670  10.987
20985W        W89390   9.731  38.455   0.680
20986W        W89391  35.433   2.244   3.692
20987W        W89392  34.989   6.834   1.856
20988W        W89393  27.682   6.913   4.206
20989W        W89394  25.983  25.578   1.022
20990W        W89395  27.422  13.281   2.925
20991W        W89396  30.708   4.403  12.044
20992W        W89397   7.748  21.967   2.832
20993W        W89398   8.416  18.773   3.210
20994W        W89399   1.577   2.014  14.819
20995W        W89400  35.931   7.409   1.512
20996W        W89401  17.518  16.692   4.254
20997W        W89402   3.222   0.508   3.240
20998W        W89403  30.407  25.168   2.523
20999W        W89404  26.142  31.222  14.917
21000W        W89405  33.128  11.236   1.721
21001W        W89406  38.442  21.597  12.367
21002W        W89407  15.830  39.616  14.675
21003W        W89408  33.178  35.419  11.605
21004W        W89409  29.911  19.974   2.261
21005W        W89410   0.169   1.623  11.881
21006W        W89411   6.968  10.178   3.697
21007W        W89412  21.183  44.862   0.550
21008W        W89413  41.566   7.547   3.210
21009W        W89414  18.491  33.064   0.978
21010W        W89415   3.943  25.218  10.647
21011W        W89416   8.371  24.719  14.876
21012W        W89417  17.823  20.335  10.521
21013W        W89418  15.308  26.084   2.525
21014W        W89419  31.588  42.241   4.077
21015W        W89420   4.204  42.839   1.866
21016W        W89421  36.536  25.496  10.640
21017W        W89422  26.908  30.113  11.490
21018W        W89423  14.806  11.198   3.298
21019W        W89424  23.646  21.960   4.832
21020W        W89425  32.434  32.996  11.607
21021W        W89426   2.683   7.315  14.344
21022W        W89427   2.174  43.912   4.926
21023W        W89428  27.006  10.821   2.784
21024W        W89429  18.798  32.917  13.275
21025W        W89430  39.501   9.564   0.768
21026W        W89431   8.406  39.491  11.907
21027W        W89432  18.833  14.118  11.558
21028W        W89433   7.137  37.524   3.822
21029W        W89434  32.394  33.390  10.393
21030W        W89435   9.923  36.074  13.493
21031W        W89436  44.313   3.704   2.525
21032W        W89437  15.803  19.270  14.898
21033W        W89438  26.107  16.675  14.548
21034W        W89439  23.140   8.077   4.203
21035W        W89440  27.084  16.112  13.290
21036W        W89441  25.049  29.414   4.935
21037W        W89442   7.472  31.725  10.493
21038W        W89443  29.937  36.641   2.647
21039W        W89444  36.661  36.070   4.075
21040W        W89445   0.507  40.460  11.150
21041W        W89446  37.815   2.353   0.299
21042W        W89447   9.804   8.135   1.672
21043W        W89448  21.802   0.409   2.949
21044W        W89449  16.139  33.581  13.385
21045W        W89450  34.496   0.943  13.915
21046W        W89451   7.918   3.904   4.228
21047W        W89452  22.943  30.248   4.649
21048W        W89453  24.032  30.450  11.540
21049W        W89454  20.583  27.639   0.394
21050W        W89455  12.867  33.509   3.121
21051W        W89456  37.798   3.737  12.958
21052W        W89457  36.087  17.179  12.875
21053W        W89458  34.821  10.697  13.308
21054W        W89459  17.874  30.991   0.343
21055W        W89460  42.375  44.244  12.850
21056W        W89461  31.256   9.291  14.952
21057W        W89462  19.084  38.569  14.615
21058W        W89463  39.334  40.991   0.376
21059W        W89464  31.831  18.659   0.477
21060W        W89465  12.714  38.832   4.555
21061W        W89466  15.955  41.917   4.571
21062W        W89467  11.152  23.164  14.881
21063W        W89468   2.822   9.105  11.926
21064W        W89469   4.587  43.571  14.950
21065W        W89470   3.430  12.537  10.608
21066W        W89471  32.363  16.793   1.991
21067W        W89472  29.539  23.064  12.104
21068W        W89473   9.801  32.565  11.146
21069W        W89474   3.252  16.561   1.944
21070W        W89475  15.393  10.593   2.843
21071W        W89476  37.765  17.646   2.051
21072W        W89477  32.279  19.399  14.942
21073W        W89478  20.361  25.498   4.719
21074W        W89479  19.513   7.779  13.410
21075W        W89480  10.265  23.296  11.134
21076W        W89481  26.607   0.822  13.927
21077W        W89482  21.942  32.602  11.047
21078W        W89483  31.153  33.147  13.960
21079W        W89484  30.389  36.426   2.777
21080W        W89485  26.165  32.754   0.607
21081W        W89486  13.822  13.511   5.157
21082W        W89487  22.640  25.699  11.926
21083W        W89488   0.777  23.490   0.447
21084W        W89489  31.200  16.487   0.254
21085W        W89490   6.370  30.508   2.421
21086W        W89491   7.916   4.328   4.523
21087W        W89492  34.865  23.069   3.889
21088W        W89493  23.206  23.754  11.598
21089W        W89494  30.672  20.530   1.721
21090W        W89495  28.821  12.380   3.091
21091W        W89496  32.951  19.090   4.143
21092W        W89497  13.651   2.926   3.349
21093W        W89498   4.285   2.193   4.440
21094W        W89499  31.968  10.232   1.947
21095W        W89500  25.989  38.069   4.121
21096W        W89501  17.952  10.734  13.431
21097W        W89502  14.804  37.501  12.116
21098W        W89503  29.960  14.382   1.732
21099W        W89504  14.843  12.213   0.898
21100W        W89505  19.085  11.751   2.656
21101W        W89506  22.473  27.588  11.910
21102W        W89507  10.160  32.996   4.346
21103W        W89508  41.281  14.873   1.347
21104W        W89509  10.639   9.724  13.435
21105W        W89510   3.914  39.959   1.115
21106W        W89511  10.710   4.007   4.721
21107W        W89512  30.108  43.462   4.227
21108W        W89513  40.555  29.558   1.775
21109W        W89514  21.230  22.649  10.577
21110W        W89515  23.090  12.558  14.523
21111W        W89516  23.146   4.558   4.145
21112W        W89517  12.106   9.881   0.322
21113W        W89518  16.969  43.210   4.173
21114W        W89519  34.399  14.547   4.547
21115W        W89520  19.698  36.506   5.107
21116W        W89521  24.711  37.074  10.932
21117W        W89522  21.726  32.098  11.018
21118W        W89523  18.273  31.562  13.484
21119W        W89524  11.686  37.362  13.656
21120W        W89525  31.111  11.843   0.964
21121W        W89526  13.079  41.613  13.405
21122W        W89527  13.816  31.128   2.626
21123W        W89528  34.152  35.230   2.279
21124W        W89529  40.806  35.654   1.289
21125W        W89530  14.560  25.582   3.912
21126W        W89531  17.206  35.519  14.937
21127W        W89532  18.897  37.827  13.915
21128W        W89533  42.842  43.600  12.292
21129W        W89534  31.156  37.154  14.287
21130W        W89535   6.849  11.551  12.387
21131W        W89536  30.566  33.229   2.008
21132W        W89537  34.661  41.827  13.963
21133W        W89538  15.342  44.741   0.188
21134W        W89539  12.611  14.927  14.330
21135W        W89540   9.233  34.512   0.468
21136W        W89541  21.224  17.513  14.312
21137W        W89542  29.965  25.734   3.893
21138W        W89543  14.319  38.024  12.427
21139W        W89544  32.379  31.526  11.555
21140W        W89545   7.793  32.030  10.872
21141W        W89546  32.910  29.703   0.309
21142W        W89547  44.670  31.113   2.806
21143W        W89548  37.225  17.204  11.838
21144W        W89549  16.187   1.268  10.307
21145W        W89550   4.874  11.732   4.089
21146W        W89551   0.349  14.813   2.714
21147W        W89552  15.539  17.875   4.703
21148W        W89553   7.135  36.145  14.475
21149W        W89554  38.428   2.611   9.637
21150W        W89555  20.232  14.679  10.585
21151W        W89556   8.017  34.953  10.681
21152W        W89557   5.101  38.895  12.263
21153W        W89558  19.609  44.752   3.155
21154W        W89559  22.631  24.986  12.769
21155W        W89560  28.033   2.611  13.153
21156W        W89561  28.633  20.815  11.649
21157W        W89562  30.541  32.627  13.036
21158W        W89563  19.268  41.863   4.033
21159W        W89564   8.265   5.118  12.166
21160W        W89565  10.735  36.617   1.760
21161W        W89566  20.161  25.633   2.939
21162W        W89567  35.690  28.016   1.841
21163W        W89568  29.566  17.687  12.517
21164W        W89569   0.335  20.866  12.588
21165W        W89570  11.269  21.710  11.597
21166W        W89571   9.829   1.186  12.243
21167W        W89572   6.550  32.555  10.651
21168W        W89573  39.852  29.393  12.975
21169W        W89574  27.865  14.898  14.468
21170W        W89575   4.145  33.901   0.227
21171W        W89576  13.350  31.644   3.372
21172W        W89577  39.325  15.274   3.708
21173W        W89578  34.943  29.128   4.557
21174W        W89579  44.287  41.184   2.160
21175W        W89580  38.568   7.369   3.806
21176W        W89581  20.814  23.319   5.187
21177W        W89582  32.878  18.150   4.735
21178W        W89583  16.281  22.700   4.584
21179W        W89584  10.182   7.181  10.676
21180W        W89585  26.202  31.105  11.503
21181W        W89586  36.882   4.169  11.111
21182W        W89587  25.035  28.419   4.588
21183W        W89588  13.567  39.906   0.241
21184W        W89589   7.302  12.247   2.370
21185W        W89590  37.105   5.883  13.439
21186W        W89591  31.776   8.766  14.257
21187W        W89592  16.945   5.587  12.577
21188W        W89593  34.062  39.634   2.296
21189W        W89594  22.769   5.433   0.485
21190W        W89595  38.802  33.873  11.003
21191W        W89596  16.223  24.023   2.567
21192W        W89597  13.685  28.490  13.590
21193W        W89598   5.601  15.175   2.499
21194W        W89599   9.311  28.105  13.340
21195W        W89600  10.203   7.099   3.830
21196W        W89601  18.121  31.528   4.948
21197W        W89602  14.214  35.005  14.771
21198W        W89603  15.103  34.526  11.723
21199W        W89604  13.304  28.738   1.255
21200W        W89605  44.738  39.882  14.051
21201W        W89606   4.052  29.134   1.922
21202W        W89607   0.272  40.233   0.385
21203W        W89608   5.907  24.939  10.986
21204W        W89609  28.483  11.842  12.264
21205W        W89610  44.998   6.849   3.732
21206W        W89611  24.665   2.460  12.845
21207W        W89612  39.966   6.726   4.273
21208W        W89613  28.510  26.987  13.355
21209W        W89614  41.433  29.211   2.940
21210W        W89615  25.321  25.715   4.213
21211W        W89616  43.565  18.115   2.835
21212W        W89617   7.584  11.055  11.956
21213W        W89618  39.852  11.232   0.170
21214W        W89619  23.574  16.661  10.594
21215W        W89620  23.169  33.572  13.615
21216W        W89621  40.531  11.367   3.775
21217W        W89622   0.420   7.153  14.278
21218W        W89623   6.179   3.016  14.825
21219W        W89624  12.193  35.692  12.298
21220W        W89625  35.044  36.449  11.470
21221W        W89626  42.764  41.307  13.375
21222W        W89627  38.125  14.234   2.225
21223W        W89628  24.506  23.774  13.930
21224W        W89629  40.102   8.369   0.388
21225W        W89630  41.803  36.889  11.328
21226W        W89631  12.838  44.550  12.532
21227W        W89632  41.905  23.074  14.753
21228W        W89633  32.726  35.482  14.949
21229W        W89634  35.550  33.978  10.739
21230W        W89635  40.972  10.133   0.132
21231W        W89636  40.692   8.462  10.064
21232W        W89637  44.170  35.458   4.023
21233W        W89638  44.413  11.836   5.089
21234W        W89639  38.593  43.712   2.388
21235W        W89640   7.895  15.330   4.088
21236W        W89641  34.856  16.961  14.260
21237W        W89642  38.606   6.338   3.218
21238W        W89643  11.305  20.660  13.059
21239W        W89644  21.615  34.876   2.228
21240W        W89645  22.581  37.093   3.830
21241W        W89646  17.693   3.699   2.818
21242W        W89647  32.605   0.219  11.899
21243W        W89648   4.755  13.908   1.712
21244W        W89649   1.920   4.809   1.909
21245W        W89650  11.386  43.849   0.801
21246W        W89651   3.370  37.300  11.089
21247W        W89652  15.602  22.105  10.392
21248W        W89653  18.879  43.841   2.950
21249W        W89654  29.650  27.609  13.416
21250W        W89655  25.076  12.740   1.941
21251W        W89656  42.821  23.514  12.408
21252W        W89657   5.201  28.638   0.221
21253W        W89658  27.171  20.575   4.594
21254W        W89659   1.187  17.321  12.567
21255W        W89660   8.375   7.361   3.378
21256W        W89661  11.117  29.418  13.026
21257W        W89662   2.175   2.475   3.623
21258W        W89663  38.828  20.597  12.504
21259W        W89664   8.797  23.133   4.592
21260W        W89665  34.565  21.230  10.795
21261W        W89666  20.807  44.616   3.654
21262W        W89667  12.940  31.181  10.410
21263W        W89668  44.844  44.381   3.377
21264W        W89669   0.888  19.273  11.561
21265W        W89670   7.892  29.966   2.224
21266W        W89671  14.654  18.213   3.872
21267W        W89672  28.508  35.610   0.611
21268W        W89673   6.225  29.938   4.257
21269W        W89674   8.435  41.568   4.300
21270W        W89675   3.726  15.735   1.454
21271W        W89676  20.223  36.490   3.510
21272W        W89677  21.710  12.253   4.327
21273W        W89678   8.902   4.689  12.915
21274W        W89679  12.243   4.785  12.340
21275W        W89680  24.069   8.599   3.611
21276W        W89681  11.731  13.415  10.505
21277W        W89682  33.695  35.359  11.517
21278W        W89683  11.588  11.851   0.500
21279W        W89684   1.285  28.933   1.840
21280W        W89685  30.876  25.568  12.468
21281W        W89686  33.141   0.043   2.475
21282W        W89687  11.198   6.335  10.576
21283W        W89688  18.777  41.373   2.154
21284W        W89689  44.270  16.674   0.515
21285W        W89690  26.131  18.192   2.888
21286W        W89691  32.119  11.554  10.387
21287W        W89692  18.115  10.956  12.989
21288W        W89693   4.084   9.102   5.124
21289W        W89694  35.440   4.438  13.119
21290W        W89695  43.432   6.711  14.482
21291W        W89696  33.064  16.091   1.873
21292W        W89697  21.380  24.919  14.975
21293W        W89698  35.214  13.657   2.505
21294W        W89699  42.443  11.408   3.752
21295W        W89700  30.243  22.821   0.502
21296W        W89701   7.523  41.703  11.588
21297W        W89702  21.037   7.760   4.625
21298W        W89703  34.080  42.480   1.841
21299W        W89704   6.802  36.562   3.751
21300W        W89705  41.344  35.047   1.234
21301W        W89706  43.076  23.688   0.265
21302W        W89707  14.160  28.673  12.360
21303W        W89708  23.687  40.896   4.120
21304W        W89709  12.217  26.742  11.984
21305W        W89710  21.155   3.477   1.446
21306W        W89711  42.880  25.407  14.477
21307W        W89712  20.633  12.312   4.102
21308W        W89713  38.073  13.709  13.401
21309W        W89714  33.906   1.195  12.484
21310W        W89715  32.658  10.269   2.318
21311W        W89716  31.527   2.282   1.873
21312W        W89717  10.898  30.417  12.027
21313W        W89718  41.769   5.036  11.856
21314W        W89719   7.161  14.812  10.241
21315W        W89720  22.928   8.374  11.249
21316W        W89721  11.875  19.464  14.529
21317W        W89722  10.340  14.559   4.602
21318W        W89723  15.152  19.652   3.261
21319W        W89724  44.428  10.577   0.443
21320W        W89725  14.277  40.404   3.945
21321W        W89726  41.425  24.034  13.849
21322W        W89727  34.909   8.181   0.451
21323W        W89728  26.653  11.921   3.337
21324W        W89729  29.839  19.584   3.222
21325W        W89730   5.516   0.014  14.661
21326W        W89731   7.378  14.864   2.256
21327W        W89732   4.242   9.915   4.219
21328W        W89733  42.764  30.391   4.141
21329W        W89734  30.981  18.296  11.714
21330W        W89735  21.821  41.316  14.600
21331W        W89736   7.389   4.969  14.265
21332W        W89737  10.041  32.207  12.061
21333W        W89738  13.533  14.240  14.920
21334W        W89739  18.466   0.504   1.087
21335W        W89740  44.237  35.162   2.305
21336W        W89741  35.830  28.397   3.660
21337W        W89742  28.942  20.059  10.736
21338W        W89743  15.293  32.527   2.734
21339W        W89744  17.110   5.221   0.471
21340W        W89745  15.271  42.937  10.656
21341W        W89746   9.819  30.672  13.134
21342W        W89747  41.224  38.162  12.960
21343W        W89748  13.166  17.763   4.904
21344W        W89749  32.813   5.798   1.817
21345W        W89750  40.057  25.121   2.695
21346W        W89751  26.551  17.282  13.419
21347W        W89752   4.485   1.463  14.572
21348W        W89753  41.833  36.057  11.619
21349W        W89754  35.940   0.068   2.299
21350W        W89755  33.450  17.136  13.848
21351W        W89756  14.142  14.044  11.585
21352W        W89757  13.549  31.907   1.476
21353W        W89758  17.281  28.655   4.260
21354W        W89759   6.197   6.897   2.853
21355W        W89760  27.011  42.932   2.215
21356W        W89761   5.141  35.294   2.405
21357W        W89762  40.497  10.944  11.465
21358W        W89763   9.453   3.210   2.271
21359W        W89764  27.544  22.767   2.246
21360W        W89765  30.599   2.128   4.973
21361W        W89766  43.027   3.968  11.192
21362W        W89767  43.094  31.522  14.467
21363W        W89768   2.740  40.527   4.578
21364W        W89769  15.612  22.774   0.727
21365W        W89770  19.708   5.590   1.960
21366W        W89771  17.036   8.553   0.323
21367W        W89772   6.848   1.875   1.768
21368W        W89773  44.782  13.729   3.878
21369W        W89774  16.141  26.723  11.862
21370W        W89775  32.461  44.337   3.141
21371W        W89776  18.202  30.649  12.926
21372W        W89777   4.663  21.687   3.553
21373W        W89778  40.148  38.695  13.928
21374W        W89779  41.517  35.120  14.248
21375W        W89780  20.698  13.526  12.804
21376W        W89781  28.425  15.387   1.692
21377W        W89782   4.815  27.551  13.281
21378W        W89783  17.873  40.884   4.111
21379W        W89784  24.561  27.850   0.646
21380W        W89785   1.870  30.968   4.645
21381W        W89786  14.337  42.392   0.318
21382W        W89787   3.929  31.687  13.662
21383W        W89788  41.447  25.559   2.227
21384W        W89789   4.496  37.180  12.501
21385W        W89790   6.030  35.371   3.856
21386W        W89791  32.565  33.431  11.393
21387W        W89792  19.198  28.863   0.031
21388W        W89793   0.210  12.373   4.155
21389W        W89794  20.132  30.289  14.946
21390W        W89795  41.095  17.695  14.818
21391W        W89796  41.489   1.328  10.859
21392W        W89797   5.337   8.948   3.289
21393W        W89798   3.211   2.303  11.162
21394W        W89799  23.671   3.198   3.067
21395W        W89800  26.384   5.702   4.611
21396W        W89801  40.047  11.292  12.154
21397W        W89802  30.800  27.430  12.465
21398W        W89803   3.691  42.466  11.053
21399W        W89804  33.548   1.810  13.820
21400W        W89805   3.064  43.430  11.504
21401W        W89806  24.227  18.516  11.779
21402W        W89807  13.650  38.621   0.870
21403W        W89808  14.835   3.738   4.887
21404W        W89809   1.735  36.518   0.006
21405W        W89810  18.552   3.129  13.374
21406W        W89811  26.108   4.520  14.949
21407W        W89812  36.947  27.991  11.453
21408W        W89813  23.079   6.896   4.826
21409W        W89814  42.044  16.567  10.919
21410W        W89815  39.764  20.812   2.525
21411W        W89816  43.535  43.697   2.290
21412W        W89817  38.366   7.903   4.203
21413W        W89818  39.223   3.964  11.738
21414W        W89819   0.264  15.954   3.892
21415W        W89820  14.847  29.660  14.507
21416W        W89821  13.337  10.168   3.232
21417W        W89822   4.151  36.160  13.452
21418W        W89823  17.054  23.196   2.352
21419W        W89824   5.185  15.611   3.244
21420W        W89825   2.892  31.732  14.277
21421W        W89826  23.714  19.511   1.391
21422W        W89827   0.100   0.482   0.346
21423W        W89828  35.352  37.950   1.744
21424W        W89829  20.646  11.687  10.586
21425W        W89830  11.572   6.390  12.428
21426W        W89831  31.314  15.091   4.107
21427W        W89832  40.706  20.572   4.801
21428W        W89833   8.455   8.679  12.706
21429W        W89834  21.068  27.893  10.706
21430W        W89835  39.279   4.713   0.008
21431W        W89836  25.393  30.035  11.624
21432W        W89837   5.945   6.855  14.991
21433W        W89838   8.045  29.105   0.525
21434W        W89839  11.839   5.348  14.484
21435W        W89840   1.751  38.627   1.747
21436W        W89841  34.805   8.614  10.725
21437W        W89842  13.592  33.867   0.478
21438W        W89843  43.776  39.418   1.131
21439W        W89844   7.430  14.786  13.105
21440W        W89845  27.122  23.241  14.037
21441W        W89846  19.925  39.038  11.058
21442W        W89847   2.263  25.021   4.108
21443W        W89848  30.987   4.731   3.747
21444W        W89849  24.657  40.116   2.405
21445W        W89850   2.748  35.428   1.808
21446W        W89851  15.774  23.613  14.335
21447W        W89852  18.141  44.872   2.869
21448W        W89853  40.444   1.304  13.962
21449W        W89854   3.860  28.776  14.671
21450W        W89855  21.535  42.505  12.505
21451W        W89856  34.117  24.521   4.679
21452W        W89857  33.624  29.629  12.978
21453W        W89858  28.402  19.838   1.374
21454W        W89859   7.066   2.970   1.243
21455W        W89860  34.833  42.477   0.751
21456W        W89861  22.338  24.281  12.848
21457W        W89862  31.164  22.527  12.968
21458W        W89863   1.915   2.740   3.228
21459W        W89864  35.598  31.346  12.156
21460W        W89865  15.716  28.909  12.207
21461W        W89866  37.851   7.582  11.579
21462W        W89867  26.454  18.752   1.023
21463W        W89868  18.595  26.991  13.600
21464W        W89869   7.374  16.335  14.299
21465W        W89870  42.279  13.599  13.392
21466W        W89871  25.766  14.141   4.923
21467W        W89872  39.335  22.477  14.769
21468W        W89873  24.746  20.150   4.901
21469W        W89874  24.660  10.214  10.661
21470W        W89875  36.562  16.714   0.384
21471W        W89876  13.209   8.667   0.064
21472W        W89877  37.590   7.828  14.946
21473W        W89878  37.613  13.799   3.718
21474W        W89879  30.925  42.183   1.699
21475W        W89880  12.560  16.122  12.009
21476W        W89881  34.507  37.504  11.290
21477W        W89882  27.811  24.545   2.452
21478W        W89883  23.631   5.392  14.058
21479W        W89884  33.829  35.397  12.353
21480W        W89885   5.752  18.671  11.250
21481W        W89886  32.731  37.355   1.105
21482W        W89887  38.190  26.079   0.265
21483W        W89888  18.234  27.194   2.255
21484W        W89889   4.411  33.760   2.649
21485W        W89890   2.733   5.237  11.191
21486W        W89891  17.101   1.366   3.714
21487W        W89892   9.911  31.130  13.954
21488W        W89893  10.828  24.479  11.102
21489W        W89894  15.889  13.696  11.107
21490W        W89895   9.109  10.486   0.704
21491W        W89896   3.855  23.286   0.341
21492W        W89897  30.046  44.965  11.877
21493W        W89898   9.504  13.128   4.402
21494W        W89899  27.167  14.635   3.749
21495W        W89900   9.533  32.866  12.923
21496W        W89901   2.577  36.652   0.899
21497W        W89902   1.847  41.865  12.863
21498W        W89903  35.355  35.577   1.747
21499W        W89904  39.466  14.210   0.758
21500W        W89905  36.250  44.910  14.053
21501W        W89906  25.799   0.365  12.587
21502W        W89907   1.397  10.889   3.608
21503W        W89908  22.016  24.712  14.807
21504W        W89909  19.975  10.758  11.127
21505W        W89910  44.906  44.043  11.794
21506W        W89911  13.631  38.799   4.682
21507W        W89912  32.974   7.874  11.815
21508W        W89913  12.900  35.207   1.768
21509W        W89914   6.637  12.977  13.456
21510W        W89915  34.903  27.188  10.474
21511W        W89916  37.820  13.112   4.603
21512W        W89917   5.473   2.460   2.884
21513W        W89918  22.603   3.541   4.459
21514W        W89919  44.918  41.797   1.800
21515W        W89920  16.264  21.988  11.495
21516W        W89921  41.948  43.688   3.935
21517W        W89922  14.701  33.361   0.802
21518W        W89923   7.066  32.638  10.729
21519W        W89924  28.454  17.033  12.106
21520W        W89925  42.911  12.082  14.170
21521W        W89926  15.168  25.922  14.123
21522W        W89927  38.770  34.840   4.215
21523W        W89928   7.356  22.290   2.785
21524W        W89929  22.890  19.240   1.713
21525W        W89930  24.261  10.902   3.798
21526W        W89931  17.926  35.967   4.637
21527W        W89932   4.356  26.667   3.223
21528W        W89933  10.271  39.669   2.381
21529W        W89934  44.973  24.785   0.938
21530W        W89935  21.551  13.007   1.856
21531W        W89936  10.196  12.873  12.061
21532W        W89937  43.254  38.523   2.208
21533W        W89938   0.551  22.468  13.556
21534W        W89939   4.971  23.763   4.098
21535W        W89940   2.729  22.727  12.056
21536W        W89941  28.414   1.676   4.591
21537W        W89942  12.777  17.734  13.839
21538W        W89943   5.256  34.531   4.483
21539W        W89944  15.044  16.131  14.500
21540W        W89945  17.889  32.198   4.195
21541W        W89946  12.165  36.362  11.366
21542W        W89947  30.367  42.459  11.091
21543W        W89948  36.050  31.878  14.020
21544W        W89949   0.247  41.584   2.339
21545W        W89950  30.097   9.243  13.409
21546W        W89951   4.924  14.296  14.878
21547W        W89952  14.017  37.935   1.300
21548W        W89953  28.624   9.861  14.741
21549W        W89954   4.935  12.268   1.679
21550W        W89955  43.076  29.561  12.596
21551W        W89956  39.467   4.964  12.860
21552W        W89957  13.715  12.426  14.920
21553W        W89958  18.520   4.317   0.914
21554W        W89959  13.796  30.943   0.047
21555W        W89960  44.930  26.024   0.654
21556W        W89961  36.841  24.755   2.452
21557W        W89962   1.053  34.975   0.450
21558W        W89963  17.347   4.674  11.527
21559W        W89964  35.867  26.684  12.241
21560W        W89965  40.535  32.566  10.595
21561W        W89966   1.010  31.672   1.885
21562W        W89967  37.184  40.811  13.087
21563W        W89968   7.219  21.672  14.490
21564W        W89969   0.040  33.939  13.480
21565W        W89970  29.923  42.007   2.964
21566W        W89971  38.062   8.243   4.518
21567W        W89972  24.208  37.390  12.035
21568W        W89973   7.452  43.544   3.669
21569W        W89974  22.483  36.971  10.356
21570W        W89975  24.774  15.619   2.715
21571W        W89976  16.671  41.809   3.315
21572W        W89977  12.584  31.314  12.115
21573W        W89978  25.371  38.826  12.590
21574W        W89979  32.522  30.525  11.480
21575W        W89980  25.444   1.228  12.001
21576W        W89981   5.394  22.600   4.570
21577W        W89982  29.577  24.568   4.163
21578W        W89983   3.401  23.649   1.271
21579W        W89984  25.142   9.586  13.442
21580W        W89985  21.524  42.875   4.946
21581W        W89986  33.646  40.581   1.406
21582W        W89987  43.097  18.986  12.822
21583W        W89988  25.042   5.760  13.916
21584W        W89989  40.794  32.547  12.453
21585W        W89990  41.379   7.238   4.219
21586W        W89991  12.560  44.698   4.534
21587W        W89992  36.893  32.436   4.804
21588W        W89993   7.487  39.564  12.177
21589W        W89994  38.906  20.311  11.400
21590W        W89995  33.664  38.611   0.375
21591W        W89996  17.728  25.389  14.821
21592W        W89997  25.231  36.313  14.390
21593W        W89998  28.114  41.404   4.978
21594W        W89999  19.462  24.515   3.324
21595W        W90000  24.681  13.585   4.598
21596W        W90001  15.495  30.359  13.113
21597W        W90002  10.607  22.809   2.156
21598W        W90003  27.688   8.434  12.577
21599W        W90004  43.235  16.212  11.485
21600W        W90005   5.483  29.272  12.347
21601W        W90006   7.776  26.742   3.267
21602W        W90007   5.981  24.357  14.904
21603W        W90008  43.381  18.006  12.087
21604W        W90009  23.856  32.302  12.146
21605W        W90010  19.548  35.959  14.745
21606W        W90011   1.080  21.698   1.782
21607W        W90012  12.911  21.790   3.124
21608W        W90013   9.261  17.114  11.228
21609W        W90014  12.153  18.075  11.094
21610W        W90015  23.888  14.645  14.245
21611W        W90016  12.873  44.377  10.680
21612W        W90017  22.991  43.355   0.922
21613W        W90018  42.110  19.008   0.086
21614W        W90019  22.947  32.960   4.914
21615W        W90020  17.344   5.284   5.315
21616W        W90021  15.851  14.735  14.936
21617W        W90022  21.504  44.311   4.466
21618W        W90023  26.829  35.559   1.789
21619W        W90024  37.778  39.321   0.833
21620W        W90025  22.341   2.616  11.427
21621W        W90026  12.918  20.641  14.405
21622W        W90027   3.194   8.874  11.603
21623W        W90028  30.490  12.902   2.562
21624W        W90029  14.564   8.640   3.257
21625W        W90030   2.789  33.285  11.430
21626W        W90031  10.658  14.051   2.779
21627W        W90032   1.249  40.425  12.487
21628W        W90033  13.215  24.219  12.276
21629W        W90034  40.408  34.554  14.532
21630W        W90035  21.682   3.929  11.857
21631W        W90036  20.101   8.459  13.537
21632W        W90037  15.164  31.589   4.356
21633W        W90038  29.508  44.362  14.434
21634W        W90039  21.107  31.888  12.603
21635W        W90040  23.300  15.938  11.082
21636W        W90041  28.050  10.219  12.514
21637W        W90042  13.756   5.325   0.825
21638W        W90043   1.406  20.753  13.038
21639W        W90044  38.833  24.067   4.562
21640W        W90045  19.778   5.342   0.412
21641W        W90046  37.185  36.129   3.169
21642W        W90047  11.749  16.083   1.343
21643W        W90048  39.651   5.912   0.036
21644W        W90049  38.893  28.972  13.285
21645W        W90050  37.214  22.421  14.280
21646W        W90051  35.829  38.304   0.813
21647W        W90052  22.446  16.693   0.791
21648W        W90053  24.781  26.505  10.759
21649W        W90054   3.422  40.731  14.797
21650W        W90055  22.492  44.238  11.478
21651W        W90056  32.375   0.113  14.289
21652W        W90057  37.573  19.814  12.408
21653W        W90058  19.341  34.934  11.597
21654W        W90059  36.282  23.563  13.829
21655W        W90060  43.523  40.512   2.197
21656W        W90061   0.072   9.829  10.563
21657W        W90062  29.419   2.961   2.334
21658W        W90063   1.566  44.406   4.585
21659W        W90064  40.108  16.508   0.679
21660W        W90065  27.188  10.080  12.923
21661W        W90066  43.496  26.978  11.295
21662W        W90067   9.876  31.463   1.235
21663W        W90068  41.900  33.499  12.962
21664W        W90069   2.260   6.297   4.231
21665W        W90070  29.413  17.552   1.944
21666W        W90071  10.320   5.401  11.423
21667W        W90072  33.688  30.196  11.115
21668W        W90073  24.239  22.369   4.076
21669W        W90074  32.853   6.274  14.002
21670W        W90075   9.210  21.541   4.354
21671W        W90076   9.406  37.474   5.004
21672W        W90077  22.591  43.520  12.517
21673W        W90078  33.787   6.820  14.142
21674W        W90079  24.519   7.979  14.878
21675W        W90080   4.324   4.875   4.169
21676W        W90081   1.980  19.242  12.595
21677W        W90082  13.221  26.581   2.594
21678W        W90083  43.030   6.761   3.710
21679W        W90084   3.627  43.542  11.550
21680W        W90085  18.324  34.649   0.161
21681W        W90086  26.353  39.797  11.502
21682W        W90087  35.507   8.049   2.721
21683W        W90088  39.080   0.759  14.404
21684W        W90089  31.981  25.344  12.639
21685W        W90090  27.315   8.658  11.555
21686W        W90091   8.792  28.828   4.028
21687W        W90092  27.103  33.599   1.699
21688W        W90093  10.212  44.826   0.485
21689W        W90094   2.495  28.424   1.298
21690W        W90095  41.325  41.323   3.205
21691W        W90096  36.021  24.569  14.494
21692W        W90097  18.730  17.512   2.333
21693W        W90098  21.574  19.049   1.832
21694W        W90099  16.308  42.991  13.821
21695W        W90100  40.473  21.744   1.045
21696W        W90101  22.349  34.548  14.508
21697W        W90102  34.287   7.385   3.199
21698W        W90103  38.767   6.192   2.305
21699W        W90104  39.457  30.639   1.006
21700W        W90105   0.586  30.974   4.112
21701W        W90106   7.956  36.943  11.551
21702W        W90107  40.900  39.526   3.221
21703W        W90108  39.079  25.726  13.117
21704W        W90109  36.942  11.231   2.555
21705W        W90110  13.843  25.957  12.407
21706W        W90111  13.784  18.542  13.616
21707W        W90112   7.436   2.684   0.920
21708W        W90113  24.448  17.597  12.888
21709W        W90114  18.169  33.273   2.736
21710W        W90115  29.575  26.910  14.113
21711W        W90116  44.761  16.124   2.162
21712W        W90117  22.478  28.653  12.460
21713W        W90118  14.106  27.484   4.663
21714W        W90119  12.232  35.326   0.916
21715W        W90120  15.315  18.055   3.216
21716W        W90121  44.767  30.348   3.086
21717W        W90122  19.126  25.574   2.259
21718W        W90123  23.122   2.290  12.222
21719W        W90124  10.070  25.165  14.039
21720W        W90125   8.911  32.048   3.985
21721W        W90126  25.806  12.407  13.369
21722W        W90127  15.063   1.850  13.119
21723W        W90128  25.365  37.104  13.052
21724W        W90129  19.993  12.703   2.208
21725W        W90130   3.949  38.394  14.334
21726W        W90131  35.635   3.256   1.204
21727W        W90132   1.933   1.776  11.635
21728W        W90133  24.300   3.873   0.973
21729W        W90134   0.891  13.699  10.115
21730W        W90135  43.885  38.471   0.291
21731W        W90136  15.610  15.747   0.717
21732W        W90137  41.715   3.682   2.582
21733W        W90138  10.644  12.587   0.172
21734W        W90139   4.048  37.957  10.370
21735W        W90140  38.814  23.811   5.044
21736W        W90141  38.828  13.677   0.357
21737W        W90142  39.327  28.334   4.510
21738W        W90143  21.945  23.442   0.117
21739W        W90144  34.570  21.094  12.792
21740W        W90145  15.241   9.336   1.260
21741W        W90146  25.405  40.072   9.886
21742W        W90147  12.200  31.779   4.552
21743W        W90148  10.182   6.685   2.178
21744W        W90149  37.967  32.414   3.824
21745W        W90150  31.573   1.318  10.792
21746W        W90151  30.522   1.431   4.829
21747W        W90152  39.465  13.544   4.205
21748W        W90153  38.009  33.813   0.971
21749W        W90154  30.411  28.216   1.637
21750W        W90155   3.452  36.187   1.208
21751W        W90156  42.027  35.092   2.815
21752W        W90157  34.043   8.761  13.519
21753W        W90158  38.832  20.042  13.810
21754W        W90159  15.308   2.997   2.802
21755W        W90160   3.715   3.198  12.946
21756W        W90161   5.407  18.907   1.454
21757W        W90162  44.262  22.777  10.904
21758W        W90163  13.409  34.721  12.664
21759W        W90164  20.733  36.907   2.625
21760W        W90165  37.466  18.010   1.529
21761W        W90166  16.418  38.020   2.859
21762W        W90167  33.998  20.168  10.779
21763W        W90168   5.343  14.188  11.759
21764W        W90169  40.976  26.457   0.450
21765W        W90170  12.689   5.796  13.563
21766W        W90171  19.810  18.621   3.727
21767W        W90172  35.929  36.375   1.086
21768W        W90173  23.978   2.966  12.488
21769W        W90174   6.921   2.491   2.354
21770W        W90175   2.337  43.915   1.489
21771W        W90176  14.638  21.231  10.686
21772W        W90177  21.518  10.711   1.333
21773W        W90178  35.794  23.645  13.408
21774W        W90179  14.680  27.325   2.238
21775W        W90180   0.713  12.421  13.404
21776W        W90181   8.289  32.004   0.792
21777W        W90182  24.050  27.092   3.403
21778W        W90183   1.399   8.164   3.915
21779W        W90184  29.896  23.293  10.823
21780W        W90185  14.610   9.625  10.210
21781W        W90186  32.576  14.958  12.521
21782W        W90187  43.583  34.533  12.074
21783W        W90188   8.214  17.519  14.579
21784W        W90189  30.074  24.582   4.322
21785W        W90190  41.829  43.065   0.977
21786W        W90191  37.356  40.787  12.036
21787W        W90192  13.758  37.467   4.126
21788W        W90193  38.823  30.155  13.883
21789W        W90194  38.976  32.699  12.110
21790W        W90195  33.027   3.835   0.896
21791W        W90196  16.457  41.328  14.411
21792W        W90197   8.631  28.225  11.960
21793W        W90198   8.759  12.209  14.002
21794W        W90199  13.624  39.972  14.713
21795W        W90200  28.965  17.733  12.323
21796W        W90201  17.637  40.471   4.906
21797W        W90202   8.327  43.539  14.727
21798W        W90203  12.289  35.862   2.406
21799W        W90204   0.970  40.339  12.040
21800W        W90205  39.344  21.305  13.300
21801W        W90206  17.042  37.148  13.337
21802W        W90207  31.554  22.651  10.721
21803W        W90208   5.746  42.899   4.786
21804W        W90209   5.666  39.819   0.427
21805W        W90210  26.863  43.291  10.809
21806W        W90211  40.905  35.031  13.236
21807W        W90212  36.007  12.949   1.959
21808W        W90213   0.257  37.185  12.539
21809W        W90214  14.539  23.601   9.789
21810W        W90215  42.522  18.216   4.735
21811W        W90216  38.471  42.699   4.881
21812W        W90217  21.687  41.174   0.185
21813W        W90218   8.319  19.749   4.390
21814W        W90219  31.199  38.513   2.302
21815W        W90220  22.980  40.921  10.658
21816W        W90221  26.254   7.030  14.435
21817W        W90222  35.189  41.059  13.022
21818W        W90223  23.534  33.302   2.789
21819W        W90224  35.397  16.628  14.666
21820W        W90225  31.558  19.503  13.840
21821W        W90226  40.097  14.310   1.230
21822W        W90227  21.705   3.506  14.428
21823W        W90228  20.703   9.820  10.299
21824W        W90229  31.178  12.709   1.987
21825W        W90230  28.182  37.013   4.671
21826W        W90231   4.052  13.596  13.568
21827W        W90232  44.009  43.511   0.713
21828W        W90233  30.812  41.973   1.241
21829W        W90234  40.984  13.661   1.855
21830W        W90235  37.934   4.121  14.350
21831W        W90236   4.545   8.846  13.009
21832W        W90237   5.746   1.832  11.880
21833W        W90238  14.133  32.141   4.601
21834W        W90239   0.418   9.173   5.428
21835W        W90240  10.147  35.974   0.382
21836W        W90241  23.047  26.445   0.402
21837W        W90242   4.196  27.557  12.571
21838W        W90243  41.406  19.197   1.921
21839W        W90244  26.054  16.911  12.296
21840W        W90245  29.890  37.152  10.067
21841W        W90246  30.072   2.226  14.009
21842W        W90247  20.545  31.998   3.794
21843W        W90248  36.947   5.297   2.684
21844W        W90249  40.109   0.034  11.068
21845W        W90250   3.376   4.959   1.802
21846W        W90251  11.357   1.917  12.933
21847W        W90252  16.751  40.544  14.393
21848W        W90253  32.967  37.609   3.704
21849W        W90254   4.828  37.379  12.842
21850W        W90255  17.308  15.584   3.274
21851W        W90256   2.848  21.220   1.645
21852W        W90257   0.249  17.780  13.729
21853W        W90258  37.421  23.493   2.571
21854W        W90259  27.470  16.994  12.955
21855W        W90260   6.836   6.935  14.891
21856W        W90261  25.001  38.042   1.961
21857W        W90262  34.643   8.358  12.398
21858W        W90263   4.543  22.217   4.800
21859W        W90264   2.686  44.827  14.745
21860W        W90265  20.808  11.627   4.548
21861W        W90266  10.106  27.735   2.407
21862W        W90267  12.437  36.376   2.481
21863W        W90268  13.644  32.921  11.530
21864W        W90269  40.009   8.169   4.363
21865W        W90270  44.443  26.033   3.856
21866W        W90271  41.896  38.776   0.716
21867W        W90272  11.747  21.504  12.039
21868W        W90273  44.100  25.283   4.248
21869W        W90274  19.644  12.604   1.800
21870W        W90275  44.531  41.807  12.073
21871W        W90276  42.622  34.178  12.376
21872W        W90277   8.780  39.579   1.141
21873W        W90278  20.187  38.943  13.479
21874W        W90279  10.922  43.028   3.153
21875W        W90280  10.053  15.588  13.299
21876W        W90281  11.116  28.009  14.949
21877W        W90282  22.321  26.767   2.360
21878W        W90283  37.572  38.644  12.603
21879W        W90284   0.987  11.378  13.926
21880W        W90285  15.642  25.508   0.197
21881W        W90286   8.220  19.048   0.798
21882W        W90287   1.819  26.527  13.766
21883W        W90288  21.625  32.072   2.288
21884W        W90289   3.361   8.362  11.137
21885W        W90290  11.492  30.754   2.828
21886W        W90291  28.931  11.417   0.335
21887W        W90292  12.250  32.765  11.155
21888W        W90293  12.620  22.803   5.005
21889W        W90294  26.894  31.612   2.253
21890W        W90295   9.393  40.968   0.360
21891W        W90296  40.567   8.118  14.235
21892W        W90297  14.537  15.301   9.940
21893W        W90298   7.918  15.265  13.287
21894W        W90299  36.385  10.176   1.164
21895W        W90300   1.802  29.511   2.411
21896W        W90301  25.081   9.728   1.835
21897W        W90302   1.436  24.139   1.899
21898W        W90303  17.048  10.365  14.891
21899W        W90304  25.051   9.429   3.157
21900W        W90305   1.050  25.465   1.856
21901W        W90306  39.785   2.803   2.741
21902W        W90307  38.846  24.245  12.524
21903W        W90308   0.634  41.948  14.250
21904W        W90309   2.075  25.726   4.366
21905W        W90310  13.582  28.080  13.992
21906W        W90311  35.061   8.396   1.792
21907W        W90312  27.442  29.550  11.569
21908W        W90313  13.336  22.174  13.426
21909W        W90314  43.579   2.425   4.126
21910W        W90315  27.903   3.507  10.454
21911W        W90316   7.847  31.298   1.062
21912W        W90317  20.334  44.492  11.271
21913W        W90318   3.061  32.207   4.218
21914W        W90319  30.184  30.595   2.790
21915W        W90320  39.885  32.588   3.745
21916W        W90321  18.603  42.384   2.211
21917W        W90322   9.117  43.279   3.173
21918W        W90323  44.119  30.176  12.982
21919W        W90324  17.399  19.020   3.582
21920W        W90325  40.064  31.055  12.743
21921W        W90326   7.792  27.355   0.965
21922W        W90327  26.125  42.381   9.688
21923W        W90328   5.851  23.131  11.568
21924W        W90329  13.570   5.834   0.319
21925W        W90330  30.008  11.781   2.583
21926W        W90331  44.451  11.040  10.757
21927W        W90332  31.612   3.343  13.486
21928W        W90333  37.806   7.303   4.234
21929W        W90334   2.214  17.868   1.604
21930W        W90335  14.857  22.357  13.441
21931W        W90336  17.716   0.896   0.084
21932W        W90337  18.547  24.525   4.206
21933W        W90338   8.790  27.072  11.480
21934W        W90339   4.745  13.390  10.327
21935W        W90340   7.475  14.840  12.538
21936W        W90341  41.800  22.934   2.455
21937W        W90342  40.284  39.952   2.379
21938W        W90343  44.176  15.735   0.398
21939W        W90344  44.897   1.799   1.954
21940W        W90345  11.456   5.848   0.860
21941W        W90346  14.081   4.728  12.432
21942W        W90347  34.093  36.466   1.203
21943W        W90348   8.952  23.778  11.116
21944W        W90349  19.052  26.716   4.081
21945W        W90350  21.679  38.705  10.514
21946W        W90351  31.965  25.171   1.267
21947W        W90352  21.095  42.381   3.099
21948W        W90353  12.696   5.696   2.506
21949W        W90354   4.216  41.697   4.517
21950W        W90355  31.020  18.982  14.851
21951W        W90356  37.414  44.386  12.959
21952W        W90357  19.348  10.402  11.988
21953W        W90358  28.050  31.767   3.408
21954W        W90359  21.555  36.493  12.959
21955W        W90360   1.230  20.744   0.572
21956W        W90361  23.094  38.871   2.349
21957W        W90362   9.313   5.991   1.884
21958W        W90363  33.248  21.459  14.382
21959W        W90364  24.492  37.777   3.319
21960W        W90365  33.610  39.898   2.374
21961W        W90366   5.179  43.470   4.294
21962W        W90367  28.595  26.618   4.557
21963W        W90368  25.959  34.113   3.311
21964W        W90369  43.930  14.050   4.196
21965W        W90370  11.038   3.803   5.058
21966W        W90371  43.822  35.819  12.684
21967W        W90372   8.905   5.747   1.574
21968W        W90373  43.982  11.423  14.572
21969W        W90374  22.263  20.183  14.455
21970W        W90375  16.988  31.426   2.769
21971W        W90376   5.015  20.648  11.533
21972W        W90377  28.078  14.155   4.044
21973W        W90378  36.584  16.590   3.914
21974W        W90379  35.660  17.768   2.707
21975W        W90380  22.120  22.300   3.792
21976W        W90381   1.900  28.421  12.040
21977W        W90382  27.327  34.216  14.941
21978W        W90383  28.027  33.559   2.053
21979W        W90384  24.355  23.796  14.820
21980W        W90385   8.340  10.305  12.545
21981W        W90386  12.057  24.409  10.755
21982W        W90387  28.963   4.813  12.377
21983W        W90388  23.165  18.294  13.016
21984W        W90389   5.855   3.342   1.215
21985W        W90390  16.343  24.711  11.182
21986W        W90391  24.831  27.766   3.784
21987W        W90392  32.082  21.741   4.931
21988W        W90393   2.462  17.768  14.299
21989W        W90394  26.239  32.093  13.402
21990W        W90395  38.657   5.702  14.998
21991W        W90396   8.839  30.563  11.169
21992W        W90397  39.488  38.598   3.516
21993W        W90398  36.818  33.961   3.361
21994W        W90399   9.650  31.933   2.345
21995W        W90400   3.450  22.163  12.100
21996W        W90401  41.228   7.769  13.981
21997W        W90402  18.133  42.861  10.968
21998W        W90403  10.586  11.389  14.645
21999W        W90404  34.889  19.776   2.923
22000W        W90405  39.786  43.165  11.322
22001W        W90406  15.182  18.926   2.633
22002W        W90407  24.811  28.448  14.320
22003W        W90408  10.457  12.694   0.950
22004W        W90409  31.011  22.160  14.056
22005W        W90410  34.548  19.297  11.113
22006W        W90411  32.931  23.260  14.231
22007W        W90412  44.764  23.119  11.272
22008W        W90413  33.030  32.901   2.670
22009W        W90414   3.563  11.210  10.395
22010W        W90415  14.056  39.129  12.191
22011W        W90416  42.779  22.909  14.401
22012W        W90417  16.051  44.715   2.768
22013W        W90418  44.131  28.064  10.663
22014W        W90419  35.370  39.523   2.720
22015W        W90420  11.451  28.186   2.214
22016W        W90421  14.562  34.589   2.315
22017W        W90422  18.110  22.093  10.270
22018W        W90423  26.105   7.444   2.190
22019W        W90424  40.637  40.400  13.739
22020W        W90425   8.426  14.280   4.924
22021W        W90426  13.869  34.971  11.447
22022W        W90427  24.054  18.584  14.857
22023W        W90428  37.482  14.773  13.382
22024W        W90429  34.625  14.257  13.753
22025W        W90430   0.476   3.334   1.925
22026W        W90431  40.914  27.553   4.470
22027W        W90432  37.992  43.840   0.777
22028W        W90433   6.252  29.816  13.774
22029W        W90434   4.315  29.445  14.817
22030W        W90435  26.123  34.298  13.945
22031W        W90436   3.635  28.186  11.091
22032W        W90437  29.550  32.212  13.175
22033W        W90438  36.475  42.697  13.777
22034W        W90439  27.381  26.249   2.292
22035W        W90440  21.316  30.005  12.039
22036W        W90441   7.384   8.429  12.140
22037W        W90442  18.345  17.086   0.689
22038W        W90443  44.800  29.339  11.849
22039W        W90444  15.939  43.415  13.114
22040W        W90445  32.135  20.636   1.051
22041W        W90446  44.026  38.416   0.815
22042W        W90447  21.773  24.109  14.012
22043W        W90448  19.497  12.341  10.782
22044W        W90449  16.557   1.731   2.387
22045W        W90450  12.096   6.647  13.944
22046W        W90451   8.189  43.822   0.674
22047W        W90452  33.944  25.965  11.712
22048W        W90453  29.877   6.214  11.764
22049W        W90454  39.503  18.771   3.904
22050W        W90455  19.591  42.278   1.939
22051W        W90456  36.445  40.899  13.531
22052W        W90457  18.178  10.085  10.748
22053W        W90458  28.013   7.474  13.705
22054W        W90459   5.375  35.400   1.400
22055W        W90460  15.771  20.700   2.846
22056W        W90461   2.711  36.487   0.436
22057W        W90462  44.412  27.988   2.321
22058W        W90463  18.778  41.172   1.680
22059W        W90464   7.158  30.847   3.400
22060W        W90465  39.807   2.538   0.033
22061W        W90466  23.241  28.319   0.068
22062W        W90467  42.764   5.976   4.579
22063W        W90468  25.552  21.594   3.752
22064W        W90469   6.876  21.765   2.379
22065W        W90470  24.085   3.042   2.248
22066W        W90471   0.943  42.417   2.172
22067W        W90472  44.217   4.927  14.946
22068W        W90473  25.163  18.803  13.332
22069W        W90474  41.468  11.808  11.750
22070W        W90475  35.407  37.379  11.932
22071W        W90476  43.941  16.363   1.749
22072W        W90477  31.801  26.063   3.338
22073W        W90478  43.536  34.858  13.026
22074W        W90479  31.632  39.572  11.486
22075W        W90480   4.971  34.867  14.403
22076W        W90481  22.527  40.552   4.110
22077W        W90482  34.428   3.404   1.846
22078W        W90483   6.189   9.984  14.937
22079W        W90484  42.315   4.672   1.880
22080W        W90485   9.555  24.166  12.662
22081W        W90486  15.819  24.467  14.297
22082W        W90487  19.626  39.800  12.833
22083W        W90488  27.002  41.120   2.455
22084W        W90489  32.660  40.550  14.403
22085W        W90490  20.269  25.456   0.944
22086W        W90491  37.625  40.636  12.423
22087W        W90492  36.511  21.060  10.023
22088W        W90493  42.732  24.632  11.997
22089W        W90494  21.321  20.084  12.044
22090W        W90495  43.035  34.972   3.737
22091W        W90496   0.934  34.546   3.266
22092W        W90497  44.878  40.547  12.128
22093W        W90498   1.277  30.661  13.512
22094W        W90499  15.226  30.443   2.946
22095W        W90500  31.707  44.934  10.662
22096W        W90501  27.061  20.560   2.310
22097W        W90502  14.773  44.241  10.160
22098W        W90503  33.044  29.268   4.973
22099W        W90504  14.036  33.968   0.740
22100W        W90505   1.588  40.843   0.412
22101W        W90506  23.014   5.302   2.170
22102W        W90507  32.897  44.255  13.103
22103W        W90508  27.014  36.127  14.715
22104W        W90509   1.501  40.566   3.292
22105W        W90510  39.043  26.664  12.631
22106W        W90511  24.059  24.004   0.283
22107W        W90512   8.359  22.225   3.959
22108W        W90513   1.873  36.509  10.727
22109W        W90514  28.467  16.120  12.987
22110W        W90515  13.938   2.212   3.257
22111W        W90516  20.077  28.959   0.289
22112W        W90517  37.082  31.828   0.361
22113W        W90518  11.712  43.264   0.451
22114W        W90519   0.855  10.643  12.207
22115W        W90520   3.163   4.410  11.333
22116W        W90521  25.589   1.685  11.073
22117W        W90522  24.654  26.923  12.133
22118W        W90523  16.793  16.031  12.038
22119W        W90524   2.582  28.957  14.396
22120W        W90525  35.394  11.948  13.458
22121W        W90526  40.874  33.727   9.874
22122W        W90527  31.045  28.040  14.022
22123W        W90528   3.672  19.579   0.365
22124W        W90529  27.637   7.821  13.819
22125W        W90530   8.870  10.097   3.643
22126W        W90531  41.873  30.968   4.878
22127W        W90532   9.279  24.382  14.952
22128W        W90533  44.343  24.937   4.580
22129W        W90534   3.658  44.918   2.876
22130W        W90535  28.387  34.101   0.729
22131W        W90536  28.507  10.379  12.349
22132W        W90537  12.293  37.782   3.285
22133W        W90538   9.443  41.823  13.082
22134W        W90539  19.557  10.908  11.969
22135W        W90540  23.507  34.021  10.720
22136W        W90541  22.654  36.519   2.692
22137W        W90542  35.379   5.750   3.715
22138W        W90543  27.040  16.529  10.977
22139W        W90544  29.068  10.249  10.269
22140W        W90545  14.603  32.890  12.279
22141W        W90546  20.200  37.781   4.153
22142W        W90547   0.891   3.939  12.531
22143W        W90548  29.170  23.410  11.962
22144W        W90549  29.069  12.853   2.743
22145W        W90550  10.942  21.403  13.845
22146W        W90551   3.066  27.758   4.042
22147W        W90552   0.230  12.207   3.671
22148W        W90553  30.306  16.694  12.054
22149W        W90554   3.977  37.089   3.785
22150W        W90555  20.709  39.720  11.080
22151W        W90556  24.854  32.394  10.675
22152W        W90557  14.779   5.311   3.654
22153W        W90558  15.618  29.708   2.485
22154W        W90559   8.685  14.202  14.786
22155W        W90560  41.981  24.213   2.752
22156W        W90561  14.282  25.271  11.923
22157W        W90562  11.884  14.542  11.631
22158W        W90563  16.219  44.888   2.303
22159W        W90564  23.837  44.394  14.199
22160W        W90565  35.924  20.145  10.971
22161W        W90566  43.091  22.181   3.932
22162W        W90567   1.743  28.916   2.287
22163W        W90568  11.890   2.578  12.864
22164W        W90569   8.507  14.278   0.977
22165W        W90570  39.477   5.141   1.243
22166W        W90571  19.094  18.080  13.452
22167W        W90572  39.553  17.546   0.421
22168W        W90573  27.618  40.763  13.764
22169W        W90574  34.092   8.441   4.138
22170W        W90575  27.607  15.510  13.089
22171W        W90576  30.669  30.470   4.380
22172W        W90577  14.827  16.493  13.448
22173W        W90578  19.207  15.750  14.135
22174W        W90579  14.218  18.087   1.612
22175W        W90580  21.949   0.748  12.590
22176W        W90581   9.685  12.730   1.320
22177W        W90582  13.438  19.015  11.040
22178W        W90583  23.186  18.271   3.166
22179W        W90584  27.512  43.210  13.037
22180W        W90585  19.733   4.960   3.651
22181W        W90586  37.205   6.259   2.369
22182W        W90587   8.675   0.317  10.948
22183W        W90588  41.372  31.477   3.882
22184W        W90589  10.683  41.201  12.991
22185W        W90590  10.353   9.631   4.561
22186W        W90591  15.696  19.457  13.063
22187W        W90592  11.353   2.902   4.972
22188W        W90593  16.428  40.269  13.008
22189W        W90594  42.013   0.418  10.587
22190W        W90595  23.605  10.946   2.232
22191W        W90596  21.991  22.953  13.496
22192W        W90597   5.625   6.056   2.776
22193W        W90598  23.989   4.381   1.684
22194W        W90599  43.275  32.201   1.162
22195W        W90600  43.477  11.563   2.241
22196W        W90601  15.094  37.799   4.472
22197W        W90602   7.283  28.149  11.206
22198W        W90603   3.472  12.624   0.368
22199W        W90604  12.272   2.497   0.195
22200W        W90605  26.735  36.298   0.545
22201W        W90606  41.128   0.449  12.910
22202W        W90607  41.272   3.350  12.577
22203W        W90608  41.511  25.447   4.085
22204W        W90609  43.791  39.654  12.577
22205W        W90610  31.571  38.021   4.398
22206W        W90611  42.434  12.858   3.134
22207W        W90612  22.074   1.335  14.495
22208W        W90613  13.242  43.854   1.392
22209W        W90614  24.952  15.833   4.964
22210W        W90615  15.829  26.807   3.854
22211W        W90616  11.376  28.458  10.304
22212W        W90617  31.616  29.532   4.252
22213W        W90618  12.360  11.075  12.066
22214W        W90619  35.800   4.290   1.855
22215W        W90620  10.082  27.529  14.450
22216W        W90621  10.796  17.864  10.177
22217W        W90622   8.172   4.234  14.755
22218W        W90623  44.140  22.997  14.510
22219W        W90624  33.372  17.124   1.410
22220W        W90625  33.421  32.500  13.925
22221W        W90626  16.741  23.491  14.273
22222W        W90627   7.222  28.399  14.795
22223W        W90628   6.772   2.529  14.082
22224W        W90629  36.584  16.116  14.025
22225W        W90630  16.037  30.311  11.984
22226W        W90631  34.816  39.512  10.669
22227W        W90632  37.278  25.667   0.857
22228W        W90633   4.736  16.270   0.881
22229W        W90634  17.548  22.097   3.594
22230W        W90635  28.066  34.458   4.475
22231W        W90636  26.528  44.979  14.478
22232W        W90637   7.147  42.953  11.025
22233W        W90638   1.031  15.316  14.426
22234W        W90639  22.664  34.155  12.510
22235W        W90640  29.001   1.170   2.254
22236W        W90641  40.723  17.679  13.351
22237W        W90642  15.208  22.979   1.908
22238W        W90643  43.989   4.243   0.349
22239W        W90644  32.440  11.819  10.689
22240W        W90645  29.681  31.609   3.751
22241W        W90646   9.316  39.974  13.100
22242W        W90647  13.319  33.860   1.400
22243W        W90648  42.338   6.856   3.260
22244W        W90649   9.692  36.817  14.662
22245W        W90650   8.384  23.523  12.256
22246W        W90651   4.412   4.931  13.060
22247W        W90652   7.116  15.538  11.636
22248W        W90653   9.120  36.033  14.412
22249W        W90654  35.874  22.679   2.200
22250W        W90655   1.853  20.748   3.870
22251W        W90656  20.302  31.525  14.495
22252W        W90657  39.327  41.344  13.409
22253W        W90658   9.789  42.418   3.047
22254W        W90659   1.901  37.884  14.270
22255W        W90660   4.792  10.656   1.398
22256W        W90661  19.108  39.915  13.781
22257W        W90662  20.945  13.684   2.287
22258W        W90663  21.778  31.570   2.269
22259W        W90664  36.858   0.728   4.831
22260W        W90665   5.052  16.170   4.363
22261W        W90666  21.098  20.649  14.028
22262W        W90667   4.807  31.154  13.391
22263W        W90668  27.478  25.691  13.713
22264W        W90669  10.458  36.976   0.378
22265W        W90670  11.789  12.309   4.001
22266W        W90671  19.807  20.875  12.822
22267W        W90672  11.247   7.588  14.851
22268W        W90673  27.003  36.453  12.999
22269W        W90674  34.129   0.533   2.640
22270W        W90675  17.593  13.326   2.241
22271W        W90676  25.618  19.200   0.503
22272W        W90677  29.587   4.677   3.810
22273W        W90678  21.512  22.638  13.033
22274W        W90679  10.384   4.732   3.192
22275W        W90680  16.556  31.356   1.788
22276W        W90681   2.255  30.657  12.492
22277W        W90682  14.827  31.051  12.038
22278W        W90683  32.592  26.088   4.101
22279W        W90684  24.592  19.953   0.823
22280W        W90685  22.606  22.565  11.028
22281W        W90686  32.497   8.577   2.818
22282W        W90687  42.319  43.442  11.570
22283W        W90688  33.606  10.228  12.568
22284W        W90689  23.209  41.478   0.542
22285W        W90690  40.695  30.734   0.363
22286W        W90691  13.669  24.044  12.105
22287W        W90692  21.315  29.935   0.884
22288W        W90693  37.298  10.220   2.373
22289W        W90694  22.609  26.451   0.713
22290W        W90695  13.922   8.768  13.978
22291W        W90696  23.192  37.000  11.476
22292W        W90697  43.868  19.827  13.817
22293W        W90698  31.009  39.426  13.779
22294W        W90699  17.484  30.233  12.045
22295W        W90700   3.801  40.386   1.350
22296W        W90701  42.409  14.772  13.558
22297W        W90702  44.294   9.294  14.079
22298W        W90703  17.416  28.549   1.892
22299W        W90704  23.887  29.887   4.464
22300W        W90705  44.257  40.577  11.631
22301W        W90706  37.262   2.384   3.487
22302W        W90707  15.852   5.323  11.372
22303W        W90708  37.058  12.593   4.651
22304W        W90709  14.927   8.702  13.052
22305W        W90710   7.173  29.567   0.315
22306W        W90711  21.498  26.653   1.684
22307W        W90712  19.877  27.381  11.108
22308W        W90713  14.676  18.822   4.676
22309W        W90714  11.963  18.488   1.102
22310W        W90715  38.982  34.911   2.829
22311W        W90716  23.471   6.801   0.437
22312W        W90717  34.928   7.830  14.046
22313W        W90718  13.332  24.547   0.184
22314W        W90719   4.883  36.817   4.556
22315W        W90720  11.433  29.440  13.435
22316W        W90721  16.844  14.987  11.927
22317W        W90722  42.090   4.912   4.246
22318W        W90723  21.805   7.907  11.430
22319W        W90724  26.917  11.628  14.596
22320W        W90725  17.439  10.993   0.238
22321W        W90726   4.908   1.625  13.793
22322W        W90727  20.949  27.333   0.633
22323W        W90728  28.118   0.455  11.926
22324W        W90729  18.669  43.995  13.614
22325W        W90730  39.929  23.352   2.309
22326W        W90731  36.825   9.968   2.217
22327W        W90732  28.373  21.795   1.959
22328W        W90733  42.849  37.786  11.516
22329W        W90734  17.716  44.028  13.489
22330W        W90735  42.112  28.635  13.532
22331W        W90736  25.177  19.969  10.707
22332W        W90737  22.033  31.188  12.127
22333W        W90738  29.110  34.030   3.451
22334W        W90739  37.525  22.571  14.645
22335W        W90740  30.187  44.713  11.454
22336W        W90741  35.984   0.305  14.501
22337W        W90742  11.437  27.994   2.832
22338W        W90743   4.838  14.732  13.373
22339W        W90744  24.971  14.824   0.560
22340W        W90745  26.058  43.354  13.739
22341W        W90746  12.454   8.872  12.388
22342W        W90747   2.740  20.512  10.609
22343W        W90748  18.232  20.093   3.012
22344W        W90749  36.814  27.521   4.254
22345W        W90750  36.501  15.632   3.085
22346W        W90751  18.736  24.947   2.123
22347W        W90752  10.864  37.623  11.992
22348W        W90753   8.140  16.654  11.575
22349W        W90754  43.839  37.455   1.244
22350W        W90755  21.538   9.850   0.857
22351W        W90756  37.012  44.907   1.760
22352W        W90757   0.894  28.508  11.401
22353W        W90758  30.510  29.876  13.361
22354W        W90759  35.685  30.774   1.015
22355W        W90760   5.160  43.969  11.076
22356W        W90761  38.933  22.139  14.817
22357W        W90762  44.386  21.051   4.243
22358W        W90763  13.157   9.409   0.774
22359W        W90764  17.770  31.301  12.569
22360W        W90765  43.003  13.756  14.891
22361W        W90766   5.431   5.278  13.876
22362W        W90767  31.363  22.506  13.852
22363W        W90768  31.996  44.478  10.571
22364W        W90769  44.526  27.420   2.719
22365W        W90770  22.205  35.948   0.862
22366W        W90771  10.861  44.889   2.665
22367W        W90772   2.271   3.825   3.561
22368W        W90773  37.687  25.023  14.396
22369W        W90774  42.452   7.773  14.372
22370W        W90775  21.389  17.083   1.673
22371W        W90776  22.430  29.482   1.505
22372W        W90777  14.033  39.067   3.754
22373W        W90778  33.946  37.916   4.624
22374W        W90779  10.372  28.295  11.640
22375W        W90780   5.391  10.329  14.061
22376W        W90781   1.881  23.937  13.492
22377W        W90782   5.725  43.213   1.332
22378W        W90783  26.123  28.584  11.236
22379W        W90784  30.042  19.708  11.099
22380W        W90785  22.197  36.585   2.927
22381W        W90786   1.560  20.966  11.078
22382W        W90787  24.992  25.321  11.672
22383W        W90788  17.113  10.771  12.815
22384W        W90789  29.131   1.947  14.835
22385W        W90790  23.618  34.539  12.266
22386W        W90791  26.491   4.351   0.754
22387W        W90792  27.057  37.111  12.453
22388W        W90793  43.819  42.950  13.899
22389W        W90794   4.396  31.449   0.025
22390W        W90795   6.835  12.477   2.382
22391W        W90796  24.535  31.417   4.264
22392W        W90797  22.959   3.393   3.790
22393W        W90798  21.034  33.425   4.126
22394W        W90799   7.367   7.224   0.192
22395W        W90800   5.696   2.533  11.205
22396W        W90801   4.843   3.264   3.252
22397W        W90802  10.330  40.100  10.291
22398W        W90803  11.238   2.520   4.192
22399W        W90804   0.389  44.060  10.432
22400W        W90805  10.514   9.198   4.826
22401W        W90806  25.076  15.761   4.095
22402W        W90807  30.098  34.383   2.422
22403W        W90808  39.358   6.906  14.768
22404W        W90809  23.098   8.172   1.447
22405W        W90810  32.123  43.390   1.134
22406W        W90811  29.099  23.952   2.661
22407W        W90812  18.744  18.304  13.113
22408W        W90813  29.408   0.864   2.337
22409W        W90814   4.372  14.042   4.577
22410W        W90815  34.291  17.171   4.817
22411W        W90816   8.417  11.179   4.268
22412W        W90817  15.680   7.278  10.560
22413W        W90818   6.337  25.629   2.680
22414W        W90819  27.744  21.549  10.832
22415W        W90820  22.743  19.624  12.072
22416W        W90821  20.723  38.780  12.743
22417W        W90822  15.129  27.450   4.644
22418W        W90823  29.992  23.772   3.203
22419W        W90824  13.394  39.626   1.827
22420W        W90825  28.196  19.452  12.877
22421W        W90826  43.377  33.597   3.666
22422W        W90827  40.365  39.118  11.242
22423W        W90828  39.761   0.820   1.226
22424W        W90829  11.156   5.186  13.953
22425W        W90830  37.037  16.786   0.220
22426W        W90831  24.700  18.721   1.348
22427W        W90832  29.472  25.472  14.035
22428W        W90833  30.066  17.340   3.123
22429W        W90834  15.618   9.215  14.954
22430W        W90835  17.660  42.724  13.942
22431W        W90836  33.345   7.318   0.314
22432W        W90837  34.126  37.500   0.331
22433W        W90838  27.174  39.715   1.853
22434W        W90839  43.278  12.878   1.417
22435W        W90840  39.603   0.307   0.384
22436W        W90841  31.203   5.801  13.458
22437W        W90842  21.822   6.247   2.293
22438W        W90843   1.445   1.183   1.188
22439W        W90844  17.068  12.156   2.605
22440W        W90845  21.961  26.671  11.907
22441W        W90846  19.152  43.298   4.151
22442W        W90847  27.712  11.601  13.557
22443W        W90848  36.702  29.859  13.203
22444W        W90849  39.211   9.737   4.755
22445W        W90850  30.157  18.024  12.672
22446W        W90851  12.094  33.983   2.706
22447W        W90852  22.475   6.074   1.827
22448W        W90853   1.454  19.331   1.698
22449W        W90854  14.150  31.882   4.135
22450W        W90855  20.626  25.159  10.001
22451W        W90856  33.485  13.058   3.330
22452W        W90857  29.690  19.760  10.716
22453W        W90858  43.805  35.100   0.013
22454W        W90859   3.423  12.927  13.332
22455W        W90860  23.732  43.462   3.320
22456W        W90861   8.812  34.295  10.708
22457W        W90862  16.119  16.796   4.540
22458W        W90863  28.360   3.770  12.061
22459W        W90864   6.275  32.101  11.485
22460W        W90865  13.723   3.903   4.078
22461W        W90866   8.378   1.881   3.625
22462W        W90867  30.007  21.004  14.905
22463W        W90868  30.669  24.246   0.427
22464W        W90869  30.147  42.945  11.077
22465W        W90870  41.321  18.678  12.436
22466W        W90871  36.620  18.080   1.087
22467W        W90872  42.884   5.458  14.970
22468W        W90873  30.928   3.362  10.609
22469W        W90874  27.396  38.838   4.963
22470W        W90875  19.213  12.720  14.417
22471W        W90876   1.279  29.655  11.615
22472W        W90877  31.506  27.458   4.571
22473W        W90878  25.422  40.467  14.049
22474W        W90879  29.584  10.892   2.696
22475W        W90880  34.128  29.385   4.324
22476W        W90881  16.985  17.577  11.461
22477W        W90882  23.133  14.783   1.410
22478W        W90883   7.432  29.448   1.317
22479W        W90884  34.164  42.289   2.677
22480W        W90885  10.909  38.865   0.392
22481W        W90886  40.580  27.852   3.719
22482W        W90887  41.084  41.850  13.478
22483W        W90888  37.099  44.301   3.190
22484W        W90889  43.547   9.433   1.278
22485W        W90890  13.529  25.528  12.462
22486W        W90891  36.583   3.538   0.870
22487W        W90892   6.729   7.394   3.128
22488W        W90893  13.063   0.238  10.545
22489W        W90894  37.827  19.334  11.967
22490W        W90895  37.018  16.241  12.964
22491W        W90896   4.309   4.722  10.017
22492W        W90897  22.513  33.959  13.086
22493W        W90898  20.179  11.196  11.295
22494W        W90899  13.681  39.487  14.949
22495W        W90900  29.189  20.559  14.945
22496W        W90901  19.810  42.399   2.688
22497W        W90902  44.298   2.870   4.462
22498W        W90903  36.929  31.975  14.356
22499W        W90904   8.801   1.144  14.414
22500W        W90905  19.175  12.665  12.834
22501W        W90906  30.131  39.847  13.938
22502W        W90907  16.924   2.343   2.839
22503W        W90908  40.496  29.220   1.287
22504W        W90909  13.610  38.883   0.317
22505W        W90910  13.140   5.371   3.405
22506W        W90911  17.820   0.498  13.350
22507W        W90912  33.337   8.263   1.662
22508W        W90913  37.406  15.276   1.786
22509W        W90914  18.349  25.233   5.409
22510W        W90915  24.081  31.976  10.147
22511W        W90916  13.350  10.892  13.028
22512W        W90917  18.475  13.773  12.096
22513W        W90918  32.245  39.206   0.719
22514W        W90919   9.824   7.191  13.374
22515W        W90920  44.237  11.003  14.761
22516W        W90921   5.464  20.140  13.968
22517W        W90922  16.215  23.462   3.860
22518W        W90923  22.053  34.942   3.871
22519W        W90924  11.520  23.535  13.090
22520W        W90925  34.968   0.702  13.903
22521W        W90926  33.876  40.444  12.042
22522W        W90927  22.969   1.937  11.477
22523W        W90928   0.792  29.163   1.844
22524W        W90929  36.978   7.640   4.093
22525W        W90930  24.664  30.359  11.219
22526W        W90931  22.331  17.182   3.353
22527W        W90932   5.380  14.304   4.539
22528W        W90933  33.515  26.267  12.477
22529W        W90934  27.306  11.237  12.100
22530W        W90935  41.512  24.123  14.359
22531W        W90936   7.313  23.214   4.602
22532W        W90937   2.007  27.594  11.587
22533W        W90938  40.904  23.050  12.403
22534W        W90939  19.136  14.150  11.144
22535W        W90940   5.364   1.694   1.144
22536W        W90941  31.535  39.461  10.188
22537W        W90942  44.668  43.456   4.093
22538W        W90943  44.313  23.592  12.001
22539W        W90944  26.015   4.910  14.378
22540W        W90945  19.245  14.581  12.973
22541W        W90946  19.698  12.257   2.252
22542W        W90947  36.201   8.188  11.752
22543W        W90948  43.469   5.225  14.565
22544W        W90949  35.969  36.065   2.789
22545W        W90950  34.021  25.196  13.312
22546W        W90951  44.136  26.653  10.801
22547W        W90952  42.020  42.630   1.787
22548W        W90953  39.819  20.569  14.255
22549W        W90954  28.568  43.296  14.851
22550W        W90955  22.987  44.895  13.285
22551W        W90956  32.599  21.438   0.185
22552W        W90957  25.656  16.661  12.101
22553W        W90958  20.832  38.098  11.527
22554W        W90959   2.996   6.055   2.416
22555W        W90960   6.743  15.558   4.963
22556W        W90961  23.189   7.461   3.388
22557W        W90962  34.342  24.757   0.825
22558W        W90963   8.872  16.145   0.805
22559W        W90964  40.856  42.594  13.021
22560W        W90965  35.476  17.690   4.490
22561W        W90966  23.091  29.431  11.437
22562W        W90967  30.425   1.879   1.333
22563W        W90968  17.683   2.211  11.633
22564W        W90969   2.011   1.943   4.682
22565W        W90970  13.001  17.843  14.318
22566W        W90971  35.377   9.819  13.387
22567W        W90972   2.000  17.060   4.891
22568W        W90973  44.804  40.041  12.007
22569W        W90974  25.942  20.177   2.916
22570W        W90975  38.020  19.537  12.412
22571W        W90976  22.266  33.516   2.293
22572W        W90977  24.416   1.230   0.029
22573W        W90978   1.956  44.058  13.965
22574W        W90979   3.750  20.161  12.611
22575W        W90980  37.084  18.582   1.790
22576W        W90981  11.587  39.424  10.945
22577W        W90982   2.212  34.394   0.769
22578W        W90983  32.664   8.711   4.561
22579W        W90984  35.478  31.009  13.414
22580W        W90985   9.229   6.168  12.826
22581W        W90986  20.760  44.515  10.975
22582W        W90987  36.220   4.885  13.941
22583W        W90988  33.215  17.105   2.777
22584W        W90989  29.159  42.935  12.452
22585W        W90990  38.870   9.996   4.115
22586W        W90991  15.331  42.095  13.188
22587W        W90992  26.421  41.703  11.217
22588W        W90993  19.954  13.680  11.959
22589W        W90994  35.564  43.446  11.557
22590W        W90995  21.067  28.041  12.074
22591W        W90996  26.432  29.039   2.448
22592W        W90997  29.044  23.241  11.425
22593W        W90998  37.167  22.459   1.725
22594W        W90999  43.228  40.339  12.447
22595W        W91000  30.710  28.829   2.866
22596W        W91001  22.973  43.245  13.409
22597W        W91002  14.138  39.227  13.122
22598W        W91003  10.966  15.636   3.307
22599W        W91004  33.716  19.067  11.262
22600W        W91005  19.289  20.204   1.133
22601W        W91006   1.283  11.666   3.272
22602W        W91007  44.900   8.208   4.678
22603W        W91008  38.047  38.445   1.183
22604W        W91009  19.167   5.511   4.107
22605W        W91010  17.496  17.718   1.767
22606W        W91011   2.003   2.132  13.874
22607W        W91012  29.667  24.068   0.697
22608W        W91013  24.492   9.864   1.113
22609W        W91014  34.185  39.395   1.862
22610W        W91015  43.891  20.839   3.251
22611W        W91016   5.821  12.773   4.850
22612W        W91017  19.702  21.219   3.630
22613W        W91018  36.878   1.259  11.054
22614W        W91019  17.135  19.173   0.334
22615W        W91020   2.629  37.887  11.010
22616W        W91021  30.111  14.069   3.184
22617W        W91022  26.238  41.676   3.717
22618W        W91023  17.748  43.000   0.252
22619W        W91024   2.703  20.258   3.627
22620W        W91025  27.693  25.605   0.389
22621W        W91026  42.565  23.481   0.217
22622W        W91027  29.130  24.164  11.418
22623W        W91028  39.400   2.184   9.770
22624W        W91029   9.330  34.272   1.439
22625W        W91030  33.925  35.918  13.980
22626W        W91031  22.509  14.288  12.507
22627W        W91032  15.079  35.923  14.146
22628W        W91033  13.866  41.344   2.371
22629W        W91034   7.240   6.155   1.239
22630W        W91035  14.336  32.612   1.691
22631W        W91036  26.923  29.011   2.606
22632W        W91037  44.829  11.626  12.390
22633W        W91038   5.790  31.636  11.578
22634W        W91039   0.028  16.152  14.833
22635W        W91040  35.286  10.902  13.447
22636W        W91041  40.071  10.758  10.938
22637W        W91042   2.823  32.027  12.035
22638W        W91043   3.883   5.766   2.841
22639W        W91044  34.735   1.478  12.419
22640W        W91045  32.418  41.297   4.100
22641W        W91046  33.457  34.630   4.300
22642W        W91047  16.878  23.598   0.698
22643W        W91048  24.753   2.768  13.888
22644W        W91049  36.348  35.429  10.741
22645W        W91050  11.860  21.229  12.461
22646W        W91051  18.137   8.803  14.483
22647W        W91052  34.578   5.866  13.545
22648W        W91053  17.023  18.382   0.945
22649W        W91054   0.836  33.984   3.899
22650W        W91055  15.460   8.326   4.000
22651W        W91056  16.346   7.451   0.292
22652W        W91057  12.382   2.025  14.983
22653W        W91058  37.932   7.039  11.534
22654W        W91059   9.705  43.655  14.629
22655W        W91060  41.429  39.929  11.652
22656W        W91061  23.781  15.702  14.952
22657W        W91062  26.464  39.567  12.613
22658W        W91063  37.753  17.537  12.477
22659W        W91064  31.835  19.475  14.659
22660W        W91065  24.006  44.209  13.161
22661W        W91066  20.104  33.349   5.038
22662W        W91067   4.861   4.158  13.609
22663W        W91068  41.258  23.139  13.380
22664W        W91069  18.090  22.941  13.042
22665W        W91070  32.155   9.731   1.746
22666W        W91071  41.071  42.466   0.233
22667W        W91072  23.218  16.171  12.455
22668W        W91073  40.932  44.020   4.612
22669W        W91074   8.383  30.498   1.727
22670W        W91075  36.440  35.918   0.486
22671W        W91076  18.352  38.989  12.881
22672W        W91077   4.379  22.184   2.833
22673W        W91078  34.337  30.459   0.884
22674W        W91079  29.546  41.428  13.383
22675W        W91080  25.456  17.773  13.510
22676W        W91081  35.427  14.436  13.277
22677W        W91082  30.015  41.992   2.452
22678W        W91083  31.122   0.001  13.840
22679W        W91084   7.888  30.116   0.403
22680W        W91085   0.377  11.061   1.297
22681W        W91086  42.938  41.999  10.491
22682W        W91087   3.160  37.443   0.364
22683W        W91088   9.291  15.097  12.492
22684W        W91089  42.719  19.104   2.634
22685W        W91090  34.313  11.484   1.455
22686W        W91091  31.109  30.959  12.144
22687W        W91092  14.515  37.886  13.009
22688W        W91093  29.449   3.847   1.939
22689W        W91094  29.246  43.774  11.438
22690W        W91095  37.270  27.972  13.910
22691W        W91096  29.621  24.900   2.395
22692W        W91097   1.532  21.130   0.353
22693W        W91098  13.560  15.355  14.770
22694W        W91099   3.786  15.679  14.601
22695W        W91100  26.231  40.496   2.883
22696W        W91101  34.450   5.454  12.917
22697W        W91102  17.772  32.074  13.979
22698W        W91103  42.336   1.530   2.768
22699W        W91104   4.455   0.448   0.875
22700W        W91105  13.467  32.418  14.971
22701W        W91106  20.046  35.171   2.959
22702W        W91107  35.989  43.548  13.742
22703W        W91108   3.978  15.702   0.076
22704W        W91109  23.407  40.315  11.157
22705W        W91110   8.397  44.868   0.446
22706W        W91111  41.875  11.445   1.873
22707W        W91112  10.749  17.431  10.703
22708W        W91113  17.472   3.350   0.490
22709W        W91114  17.991  17.824   0.316
22710W        W91115   1.886  17.396  11.965
22711W        W91116  11.362  35.370  10.386
22712W        W91117  37.570  34.598   0.734
22713W        W91118  34.852  27.693  12.505
22714W        W91119   1.532  17.899  10.880
22715W        W91120  15.188  11.447  13.809
22716W        W91121  43.022  27.804  14.877
22717W        W91122  30.713   7.660   3.313
22718W        W91123  33.457  32.160  10.132
22719W        W91124  10.781   1.347  11.676
22720W        W91125  37.810  29.194  14.019
22721W        W91126  12.006  21.718   1.895
22722W        W91127   8.329  27.915   2.321
22723W        W91128  22.056   4.466  13.222
22724W        W91129   8.729  44.009   0.899
22725W        W91130  11.767  28.367   0.478
22726W        W91131  26.205  40.455   1.840
22727W        W91132  41.515  35.358   4.169
22728W        W91133  34.038   3.189   2.670
22729W        W91134   0.285  36.362  14.350
22730W        W91135   9.647  42.872  10.866
22731W        W91136  38.553   0.400  14.379
22732W        W91137  15.836  35.887  13.311
22733W        W91138  21.599  20.181  10.680
22734W        W91139  25.464  28.813  11.089
22735W        W91140   3.396  19.029  12.158
22736W        W91141  10.428  20.619   3.571
22737W        W91142   8.343   0.410  13.063
22738W        W91143  12.249  39.562   1.257
22739W        W91144  39.373  37.433  10.581
22740W        W91145  21.755  30.230  11.963
22741W        W91146   8.219   6.151   0.906
22742W        W91147   3.513  38.966  14.825
22743W        W91148  24.496  30.632  12.141
22744W        W91149  12.331  19.136  11.004
22745W        W91150  39.447   6.181   3.660
22746W        W91151  43.247  42.267   3.343
22747W        W91152  35.092   0.827   0.898
22748W        W91153  35.096  27.096   4.620
22749W        W91154  13.657   7.882   3.220
22750W        W91155  39.684  36.905  14.002
22751W        W91156  20.513  44.707  12.333
22752W        W91157  40.785   6.895  14.256
22753W        W91158   7.875  41.943   2.862
22754W        W91159   2.989  25.447  14.080
22755W        W91160  42.137  26.889  10.589
22756W        W91161  13.041   1.470   3.128
22757W        W91162  35.600   7.425  12.511
22758W        W91163  29.052   1.902   0.368
22759W        W91164  39.250  11.793  13.890
22760W        W91165   0.863   6.675   1.259
22761W        W91166  12.135  34.341   4.094
22762W        W91167   0.465   9.482   1.300
22763W        W91168  31.965  28.256  14.254
22764W        W91169  21.145  13.294   0.259
22765W        W91170  35.391  23.283  12.146
22766W        W91171   1.658  25.104   0.504
22767W        W91172   8.042  38.769   2.671
22768W        W91173   1.909   8.244  11.433
22769W        W91174  25.028  13.136  14.332
22770W        W91175   3.284  37.011  10.629
22771W        W91176  25.612  12.598  14.727
22772W        W91177  30.560   8.605   3.700
22773W        W91178  28.063  32.031   1.889
22774W        W91179   3.922  15.631  11.046
22775W        W91180   1.820   5.494  11.613
22776W        W91181   2.649   5.581   4.243
22777W        W91182   6.231  26.658   4.026
22778W        W91183  10.320   4.423  10.505
22779W        W91184  13.241  39.643  12.166
22780W        W91185  36.178  34.442  13.470
22781W        W91186  10.470   1.897  11.010
22782W        W91187  35.337  40.593  12.868
22783W        W91188  21.033   8.193  14.303
22784W        W91189  13.082  43.044   0.294
22785W        W91190   9.651  35.391   0.854
22786W        W91191  10.921  17.759   3.489
22787W        W91192   2.052   9.847   0.843
22788W        W91193  22.561  15.639  12.986
22789W        W91194  38.369  23.244   0.322
22790W        W91195  39.988  15.199   4.208
22791W        W91196  19.186  14.564   0.292
22792W        W91197   0.894  10.156   3.894
22793W        W91198  37.460  22.875  14.196
22794W        W91199   8.534  29.364   2.389
22795W        W91200   0.810   6.992  11.086
22796W        W91201  10.347  12.402   3.860
22797W        W91202   4.686  36.835   3.237
22798W        W91203  16.391  12.647  12.911
22799W        W91204   0.467   7.631  11.994
22800W        W91205  44.824  17.784   3.311
22801W        W91206  30.977  37.074  11.977
22802W        W91207  12.700  23.305  14.278
22803W        W91208  28.123  19.528   3.698
22804W        W91209  15.700  16.320  13.199
22805W        W91210  39.356  25.189   0.462
22806W        W91211  32.469  44.212  12.815
22807W        W91212  43.865  13.806  12.479
22808W        W91213   1.755   7.081  13.427
22809W        W91214  42.873  31.888  13.334
22810W        W91215  17.159   8.815  14.857
22811W        W91216  38.049  31.554   2.199
22812W        W91217  12.789  14.188   4.097
22813W        W91218  16.726  44.813  13.729
22814W        W91219  24.102  25.508   0.393
22815W        W91220   1.113  40.024  11.656
22816W        W91221  23.818  28.651  14.461
22817W        W91222  21.225  38.954  12.641
22818W        W91223   0.072  18.264  13.649
22819W        W91224   0.790  14.935  11.452
22820W        W91225  25.156  32.698  13.063
22821W        W91226   2.770  14.763  11.516
22822W        W91227  13.157  31.534   1.510
22823W        W91228  43.261   6.741  12.942
22824W        W91229  30.846  14.255   3.940
22825W        W91230  22.587  14.720  10.654
22826W        W91231  15.416   2.038   5.410
22827W        W91232  30.018  34.028  14.502
22828W        W91233  38.377  27.165  14.428
22829W        W91234   4.433  29.825   4.523
22830W        W91235  16.334  13.824  14.932
22831W        W91236  25.516  37.664  11.276
22832W        W91237  43.182  29.005  10.294
22833W        W91238  34.733  39.479  11.440
22834W        W91239  39.855  42.117   3.898
22835W        W91240  39.552  21.584  14.961
22836W        W91241  31.046  39.693   2.718
22837W        W91242   3.555  41.587   1.485
22838W        W91243  26.167  43.857   2.397
22839W        W91244  34.639   9.052  14.398
22840W        W91245  38.475   9.312   4.104
22841W        W91246  20.001  29.966   2.332
22842W        W91247  25.626  35.674  12.946
22843W        W91248  44.564  23.551  14.775
22844W        W91249  14.143  34.502   0.931
22845W        W91250  32.439  31.373  13.387
22846W        W91251  29.927   3.162   2.672
22847W        W91252  38.894  26.188   4.974
22848W        W91253  20.707  31.519   3.617
22849W        W91254  10.773  21.017   4.669
22850W        W91255  16.757   9.770  13.063
22851W        W91256  30.034  18.345  14.477
22852W        W91257  40.434  21.984  12.218
22853W        W91258  15.238  13.612   2.466
22854W        W91259   6.492   0.945  12.449
22855W        W91260  17.972  34.918  14.819
22856W        W91261  42.623  12.536  13.522
22857W        W91262   2.686  11.091   3.163
22858W        W91263  34.118   7.165   0.850
22859W        W91264   0.443  26.231  12.943
22860W        W91265   9.377  30.580   1.794
22861W        W91266  44.988  17.483   0.487
22862W        W91267  14.387  37.929  11.462
22863W        W91268  22.212  26.440  13.267
22864W        W91269  15.588  43.473   5.051
22865W        W91270  39.474  18.397  13.770
22866W        W91271  41.992  39.917  10.788
22867W        W91272  13.185  42.505  13.114
22868W        W91273  24.974  12.088   4.723
22869W        W91274  42.385   0.796  11.522
22870W        W91275  38.091  29.397  11.623
22871W        W91276  42.359  12.025  14.940
22872W        W91277  21.657  31.075  11.787
22873W        W91278  20.623   2.066  14.252
22874W        W91279  22.828  40.621  12.419
22875W        W91280  11.117  33.827   4.487
22876W        W91281  33.512  21.111   3.728
22877W        W91282  28.478   0.568  11.131
22878W        W91283   2.295  15.671  11.934
22879W        W91284  41.916  44.451   4.497
22880W        W91285  16.789  23.311  13.369
22881W        W91286   5.298   7.832   3.330
22882W        W91287  35.390  32.098  14.839
22883W        W91288   2.721   6.855   3.559
22884W        W91289   8.409   2.214   0.761
22885W        W91290  20.856  11.083  13.774
22886W        W91291  20.101  34.483   0.723
22887W        W91292  14.642   3.521   2.211
22888W        W91293  14.131  20.265   2.684
22889W        W91294  43.923  13.091  10.342
22890W        W91295  42.040  38.392  12.388
22891W        W91296  18.481  19.228   0.532
22892W        W91297  41.498  17.186   4.282
22893W        W91298  37.776  23.131  11.917
22894W        W91299  42.947  37.161   1.828
22895W        W91300  16.082  19.067  14.372
22896W        W91301   1.474  12.065  14.383
22897W        W91302  21.474  26.541   4.117
22898W        W91303  14.363  23.516   0.661
22899W        W91304  10.569   6.688  12.560
22900W        W91305  31.115  12.227  12.023
22901W        W91306   6.845  27.216   1.872
22902W        W91307  27.525  41.367   0.492
22903W        W91308  31.533  43.732  12.209
22904W        W91309   2.870   6.222   4.134
22905W        W91310   9.565  22.852   5.087
22906W        W91311  18.988  12.074   4.870
22907W        W91312  28.683   0.255   3.149
22908W        W91313  24.527  39.583   0.072
22909W        W91314  23.334  39.472  12.009
22910W        W91315  29.908  26.539  14.257
22911W        W91316   2.313  41.775  11.563
22912W        W91317   6.740  14.229  13.797
22913W        W91318  21.430  18.213  13.806
22914W        W91319  27.371  37.447   0.033
22915W        W91320  38.221  12.373   1.901
22916W        W91321  13.216  40.972   0.286
22917W        W91322  21.782  33.923   4.635
22918W        W91323   3.032  41.095  11.471
22919W        W91324  40.539  24.086  14.389
22920W        W91325  22.062   3.579   2.677
22921W        W91326  11.607  34.893  13.926
22922W        W91327  25.448  43.757   3.630
22923W        W91328  33.650   6.844  11.081
22924W        W91329   1.812  10.414  13.029
22925W        W91330  18.983  37.337   2.768
22926W        W91331  35.951  43.031  14.484
22927W        W91332  22.719  15.270   1.886
22928W        W91333  37.829  39.598   2.745
22929W        W91334  35.480  44.092  13.887
22930W        W91335  26.809  32.195   0.043
22931W        W91336   3.372  29.490   3.266
22932W        W91337  17.472  26.213  12.304
22933W        W91338  22.777  12.631   3.817
22934W        W91339   8.626  31.988   1.212
22935W        W91340  24.036  35.750   4.306
22936W        W91341   4.176  34.496   4.328
22937W        W91342  20.019  22.481  11.047
22938W        W91343  15.615  16.794   2.488
22939W        W91344  22.249  22.523  10.613
22940W        W91345  18.104  42.498   2.182
22941W        W91346  35.428   9.822   4.227
22942W        W91347  10.227   0.394  11.531
22943W        W91348  19.662   7.342  11.197
22944W        W91349  38.060  43.875   3.859
22945W        W91350  39.335  32.263   1.283
22946W        W91351  20.061  16.588   2.942
22947W        W91352   5.037  40.395   3.448
22948W        W91353  16.640  14.750  10.712
22949W        W91354  30.470  10.198  13.775
22950W        W91355  40.988   7.206  12.869
22951W        W91356  32.472  34.092   3.638
22952W        W91357  33.377   0.638   2.184
22953W        W91358  36.599  38.538  10.569
22954W        W91359   1.742  26.363  11.963
22955W        W91360  33.839  31.750   0.796
22956W        W91361  25.033  40.873  11.959
22957W        W91362  32.507  22.189  11.590
22958W        W91363  39.946   0.366  10.694
22959W        W91364  21.128   2.262  14.478
22960W        W91365  43.332  18.315   4.202
22961W        W91366   9.240   1.784   0.989
22962W        W91367  29.690  14.474   0.866
22963W        W91368   0.487  34.558   4.535
22964W        W91369  41.127   3.031  11.289
22965W        W91370  37.351  42.101   0.399
22966W        W91371  23.043  43.287  12.536
22967W        W91372  30.542   1.557  13.186
22968W        W91373  11.821  14.286   1.847
22969W        W91374  42.554  14.621   3.152
22970W        W91375  37.268   3.773   2.799
22971W        W91376  32.387  34.405   4.919
22972W        W91377  27.197  19.290   1.700
22973W        W91378   8.324  18.409  10.635
22974W        W91379   7.461   8.828  12.509
22975W        W91380  14.573   9.437   2.904
22976W        W91381  40.038  16.287   1.628
22977W        W91382  12.183  24.598  13.862
22978W        W91383   3.354  12.772   3.128
22979W        W91384   2.611  28.225  14.964
22980W        W91385  40.830  14.179  12.139
22981W        W91386  42.602  13.627   0.807
22982W        W91387   3.502   4.153  11.608
22983W        W91388  28.045  21.927  14.500
22984W        W91389  10.717  38.393   2.715
22985W        W91390  18.880  37.325  13.819
22986W        W91391  15.080  17.164  13.454
22987W        W91392  24.606   8.770   0.545
22988W        W91393   9.059  44.009  11.814
22989W        W91394  28.625  12.250   3.547
22990W        W91395  30.226  41.783  10.704
22991W        W91396  37.437  35.106  12.429
22992W        W91397   0.440   6.212  13.530
22993W        W91398  33.453  38.832  11.039
22994W        W91399  31.697   8.672   4.441
22995W        W91400  23.668  22.477   3.080
22996W        W91401  19.181  26.293   9.738
22997W        W91402  39.959  31.694   2.159
22998W        W91403  39.922  15.629   3.198
22999W        W91404  40.933   9.347   0.804
23000W        W91405  31.370   5.850  12.956
23001W        W91406  14.217  15.665   3.375
23002W        W91407  14.154  28.552   1.458
23003W        W91408  16.230  21.965  10.982
23004W        W91409  37.517  30.014   0.044
23005W        W91410   2.460   4.701  13.685
23006W        W91411   3.995   6.981   2.349
23007W        W91412  14.829   5.335  10.689
23008W        W91413  31.925  11.674  11.924
23009W        W91414  34.817   9.122  12.476
23010W        W91415  24.596  10.763   2.049
23011W        W91416  42.525  25.765   4.173
23012W        W91417  43.077   1.998   2.538
23013W        W91418  37.426  41.937  12.600
23014W        W91419   9.621  10.054   1.930
23015W        W91420  17.727  44.836   4.362
23016W        W91421   5.171  37.829   3.648
23017W        W91422  17.879   5.862   3.058
23018W        W91423  37.325   1.332  11.650
23019W        W91424   7.170  33.086  14.336
23020W        W91425   8.656  34.535   1.011
23021W        W91426  32.474  13.985  11.008
23022W        W91427   5.328  44.888  11.270
23023W        W91428  10.699  14.825   4.245
23024W        W91429  21.238  44.311   1.856
23025W        W91430   8.129  21.374   3.779
23026W        W91431  23.271  19.687   4.971
23027W        W91432  19.036  41.537  10.692
23028W        W91433  37.756  41.054  10.698
23029W        W91434  26.406  24.465   4.290
23030W        W91435  17.255   4.353   2.847
23031W        W91436  31.943  44.418  13.311
23032W        W91437   7.688   8.555   4.184
23033W        W91438  21.096   3.949   4.515
23034W        W91439   6.171  21.980   1.360
23035W        W91440   1.913  15.109  14.603
23036W        W91441  33.881   8.662   1.862
23037W        W91442   2.725  21.718  13.389
23038W        W91443   7.425  36.979   2.097
23039W        W91444  39.407  32.574  13.481
23040W        W91445   9.909  13.736  12.042
23041W        W91446  39.439  37.911  13.152
23042W        W91447  41.348  26.181   3.836
23043W        W91448  26.741   9.165   0.891
23044W        W91449  29.409  14.338   1.624
23045W        W91450  23.175   0.157   1.847
23046W        W91451  24.234   7.978  11.144
23047W        W91452  19.219  33.934  11.659
23048W        W91453  31.993  18.515  12.426
23049W        W91454  31.528  29.841   0.496
23050W        W91455  44.933  38.098   2.892
23051W        W91456  24.283  25.480  13.779
23052W        W91457  28.573  43.908   1.916
23053W        W91458   7.094  10.236  13.011
23054W        W91459  14.662  36.967  12.973
23055W        W91460  17.611  27.597   0.025
23056W        W91461  10.362  43.051  12.001
23057W        W91462  12.486  17.787   4.912
23058W        W91463   5.946  30.659  11.982
23059W        W91464  23.016  42.431   3.639
23060W        W91465   1.308  22.849   3.344
23061W        W91466  43.979  17.234  11.993
23062W        W91467   6.249   0.478   3.224
23063W        W91468  30.585  37.479   1.899
23064W        W91469   8.214  33.949  13.059
23065W        W91470  28.495   4.181   2.842
23066W        W91471  32.407  26.133  14.522
23067W        W91472  21.529  43.742   3.822
23068W        W91473  39.383  34.868   3.824
23069W        W91474  21.582  32.600  12.883
23070W        W91475  23.667  29.424   4.284
23071W        W91476  36.421  43.619  14.137
23072W        W91477  44.995  31.335   0.033
23073W        W91478  21.635   0.600  14.464
23074W        W91479  35.822  18.340   1.026
23075W        W91480  27.422  29.972   1.330
23076W        W91481  12.285  19.336   2.604
23077W        W91482  28.460  36.635  11.615
23078W        W91483   9.880  32.102  12.537
23079W        W91484  19.300  19.502   1.868
23080W        W91485  12.395   9.834   0.773
23081W        W91486  14.903  37.687   2.695
23082W        W91487  17.751  16.292  12.549
23083W        W91488  24.685   6.562   0.869
23084W        W91489  24.695  25.710  14.035
23085W        W91490   9.544  27.134   9.984
23086W        W91491  39.570   7.452  14.531
23087W        W91492  31.051  19.218  12.998
23088W        W91493  42.147   0.489   4.118
23089W        W91494  20.291   1.292   4.982
23090W        W91495  39.960  37.120  11.533
23091W        W91496  30.521  26.041   2.339
23092W        W91497  35.748  32.395  12.536
23093W        W91498  41.503  33.551  11.995
23094W        W91499  11.366  13.718  13.624
23095W        W91500  40.843  39.461  14.501
23096W        W91501   1.920  15.321   2.259
23097W        W91502   0.048  31.562   3.644
23098W        W91503   0.452  25.720  11.570
23099W        W91504  36.750  24.123   0.753
23100W        W91505   6.122  24.274   0.580
23101W        W91506   0.436  13.353  13.744
23102W        W91507  16.440  26.342   3.220
23103W        W91508  18.786  30.180   1.916
23104W        W91509   3.454  27.774   4.401
23105W        W91510  37.978  32.805  11.611
23106W        W91511  30.732  12.570   1.742
23107W        W91512  34.240  17.742   2.360
23108W        W91513  24.052  15.234   3.859
23109W        W91514  34.591  10.339   0.692
23110W        W91515  36.631  34.864   0.361
23111W        W91516  11.829   4.113   0.496
23112W        W91517  18.879  14.195  14.452
23113W        W91518  28.687  40.918   4.371
23114W        W91519  44.883  38.392  10.451
23115W        W91520  13.552  29.504  10.748
23116W        W91521   9.412  35.538  11.995
23117W        W91522  42.267  20.507  11.561
23118W        W91523  43.879  36.683   4.260
23119W        W91524  32.333  17.440   4.918
23120W        W91525  23.028   0.498   3.608
23121W        W91526  33.814  33.120   0.105
23122W        W91527  31.627  38.925   4.330
23123W        W91528  11.759  16.758  12.748
23124W        W91529  24.142  19.024  11.047
23125W        W91530  41.380  12.268   1.499
23126W        W91531   1.361   7.926  10.805
23127W        W91532  33.389  13.205   0.515
23128W        W91533  18.549  21.711   2.291
23129W        W91534   9.461   7.598  13.446
23130W        W91535   6.128  37.061  12.181
23131W        W91536   4.081  24.455  13.084
23132W        W91537  38.068  26.884   3.131
23133W        W91538  31.932  31.054  14.906
23134W        W91539  16.874  21.285  11.257
23135W        W91540  42.507  37.028   3.575
23136W        W91541  30.962  44.498  10.213
23137W        W91542  17.316  29.237   2.262
23138W        W91543  31.448   1.607  13.968
23139W        W91544   2.330   4.629  14.704
23140W        W91545   9.137  31.352  14.848
23141W        W91546   6.419   7.762  10.599
23142W        W91547  40.263  20.634  11.518
23143W        W91548   6.468  26.629   4.504
23144W        W91549  14.158  14.546  11.532
23145W        W91550  37.919  15.241   1.758
23146W        W91551  23.157  27.512  14.508
23147W        W91552  42.304  44.289   1.983
23148W        W91553   5.125  30.499  12.610
23149W        W91554  14.139   9.527  14.375
23150W        W91555  16.123   0.980   2.225
23151W        W91556  22.479  30.995   0.760
23152W        W91557  42.772  17.311   1.924
23153W        W91558  44.449  41.153   4.110
23154W        W91559  28.077  10.601  13.998
23155W        W91560   5.105  32.543  11.930
23156W        W91561   3.430  36.900   0.787
23157W        W91562  42.613  17.489   4.891
23158W        W91563  28.396  40.567   2.821
23159W        W91564  22.487  25.540   3.690
23160W        W91565   2.184  31.126  12.186
23161W        W91566   7.339  17.245   3.536
23162W        W91567   8.900  25.704  13.524
23163W        W91568  44.278  26.598   9.939
23164W        W91569  14.145  41.549   4.254
23165W        W91570  22.367  27.622   1.203
23166W        W91571  34.028  24.938  14.771
23167W        W91572  20.807   8.904  14.815
23168W        W91573   7.171  22.580   2.171
23169W        W91574   7.864  25.913   0.030
23170W        W91575  16.159  17.011  14.281
23171W        W91576  11.794  33.894   2.272
23172W        W91577  41.207  42.445   1.375
23173W        W91578  16.291  22.590   0.887
23174W        W91579   9.670   1.873   0.208
23175W        W91580  39.265   9.969   1.280
23176W        W91581  38.419  16.571   2.314
23177W        W91582  15.367   4.194   2.151
23178W        W91583   9.081   6.211   1.430
23179W        W91584  22.691  23.112  11.643
23180W        W91585  27.427  21.578  12.994
23181W        W91586  10.403   1.219   4.561
23182W        W91587  38.527  11.550  12.533
23183W        W91588  29.626  36.478   1.601
23184W        W91589  19.508  21.714   2.564
23185W        W91590   1.173  35.533  13.037
23186W        W91591   8.630   2.189  13.600
23187W        W91592  15.986  41.977   1.808
23188W        W91593  36.733  25.469  14.942
23189W        W91594  21.968  21.822   0.837
23190W        W91595  35.855  16.159   1.301
23191W        W91596   4.695  28.660   2.811
23192W        W91597  42.051  31.147  14.920
23193W        W91598   5.706  33.076  11.865
23194W        W91599  20.976  31.518   4.797
23195W        W91600  29.395  35.936   4.377
23196W        W91601  26.551   8.334   3.507
23197W        W91602  35.979   7.667   0.897
23198W        W91603  15.547  13.267   5.048
23199W        W91604  33.983  11.564  11.144
23200W        W91605  13.755  30.411  14.985
23201W        W91606  37.299  35.625   1.903
23202W        W91607   9.348  34.032   0.706
23203W        W91608  38.495   1.944  13.126
23204W        W91609  33.535  12.931   2.421
23205W        W91610  41.868   6.843  14.492
23206W        W91611  24.870   3.396   4.253
23207W        W91612  42.358  14.470   0.599
23208W        W91613   7.667  24.151   4.553
23209W        W91614  37.007  28.003  10.541
23210W        W91615  12.475  27.151  12.808
23211W        W91616  17.373   0.194  11.527
23212W        W91617  19.148  42.011   1.756
23213W        W91618  23.986  28.001  10.646
23214W        W91619  21.462  33.806  10.727
23215W        W91620  33.252  28.058   3.992
23216W        W91621  14.282  10.348  12.878
23217W        W91622  42.198   5.837   4.397
23218W        W91623  39.903  27.591  13.907
23219W        W91624  43.841  30.573   1.841
23220W        W91625  23.300  12.752   2.663
23221W        W91626  23.555   9.067   1.865
23222W        W91627   7.702  35.494  10.521
23223W        W91628  21.650  10.062   1.378
23224W        W91629   2.915  22.828   3.610
23225W        W91630  44.889  25.686  12.338
23226W        W91631  16.165  24.261   3.567
23227W        W91632  44.983  16.376   2.769
23228W        W91633  17.881  25.495  13.847
23229W        W91634  30.257  37.073   0.640
23230W        W91635  30.682  40.988   2.617
23231W        W91636  23.493  19.211  13.402
23232W        W91637  42.385   2.421  10.776
23233W        W91638  41.398   9.274  12.045
23234W        W91639  42.016  31.676   0.870
23235W        W91640  39.847   0.977  14.975
23236W        W91641  15.291  16.060   3.819
23237W        W91642  44.437  10.244   3.620
23238W        W91643   9.743  18.373  10.775
23239W        W91644  15.692  16.986   3.849
23240W        W91645  30.627  10.854  13.037
23241W        W91646  42.443   0.736   3.192
23242W        W91647   5.195  35.473   1.923
23243W        W91648   2.335  22.204   4.611
23244W        W91649  18.048  42.081   4.692
23245W        W91650  41.994  30.955   2.234
23246W        W91651   4.141  19.422   3.764
23247W        W91652   4.515  44.662  11.186
23248W        W91653  16.119   9.842  11.650
23249W        W91654  24.033  28.027   4.539
23250W        W91655  27.008  16.611  14.542
23251W        W91656  18.846  44.386  10.688
23252W        W91657  12.647  23.577  12.563
23253W        W91658  11.581   5.230  10.932
23254W        W91659  30.468  17.556   2.841
23255W        W91660  11.876  30.313   2.334
23256W        W91661  37.656  12.668  11.123
23257W        W91662   8.667  20.248  10.519
23258W        W91663  22.332  10.462   1.784
23259W        W91664  22.995  20.505   3.766
23260W        W91665   4.889  37.630  14.242
23261W        W91666  21.274  44.324  10.276
23262W        W91667  21.848  33.414  14.272
23263W        W91668  42.250  12.115  11.124
23264W        W91669  21.514  11.821  10.222
23265W        W91670  10.686  41.185   4.254
23266W        W91671  10.110   2.324   4.109
23267W        W91672  12.216  27.139  14.179
23268W        W91673  40.953  22.143   3.117
23269W        W91674   4.631  30.974   3.237
23270W        W91675  14.684  43.040  13.210
23271W        W91676   1.820  10.843  11.598
23272W        W91677  24.735   7.348  11.381
23273W        W91678  29.459  30.959   2.136
23274W        W91679  26.625   0.799  10.763
23275W        W91680  18.693  37.382  14.307
23276W        W91681  29.066  12.555   1.403
23277W        W91682   3.175  24.630   0.147
23278W        W91683   1.366   3.849  12.188
23279W        W91684  36.724   4.178   4.121
23280W        W91685  13.156  32.112   1.755
23281W        W91686  23.148  15.975   4.976
23282W        W91687  42.283   4.650   0.977
23283W        W91688  36.709  19.280   4.666
23284W        W91689  36.570  33.789   4.739
23285W        W91690   7.344  40.676   0.231
23286W        W91691   4.242  12.850  13.876
23287W        W91692  26.995  41.107   1.919
23288W        W91693  38.392  32.905  13.023
23289W        W91694   1.311  11.567   1.879
23290W        W91695  40.400   9.833  12.614
23291W        W91696  43.094  25.672  13.839
23292W        W91697  26.363   2.787  11.740
23293W        W91698  20.203  17.344  11.492
23294W        W91699  16.179  11.791   0.912
23295W        W91700  30.392   6.351   4.397
23296W        W91701  20.676  35.655   4.589
23297W        W91702  43.520  29.571   4.777
23298W        W91703  13.627  14.891   3.469
23299W        W91704  44.146  15.310   3.180
23300W        W91705  25.818  25.767   4.149
23301W        W91706   0.362  43.227  14.517
23302W        W91707   1.178  30.484   1.804
23303W        W91708   2.312  23.557  11.016
23304W        W91709  30.121  39.553  10.677
23305W        W91710   8.651  19.332   0.989
23306W        W91711   6.640   1.487   1.517
23307W        W91712   7.911   6.459   0.629
23308W        W91713  37.412   7.800  14.000
23309W        W91714  14.357  11.794  14.767
23310W        W91715  18.502  39.370  14.965
23311W        W91716  31.363  32.645   1.293
23312W        W91717   6.948   9.303   3.640
23313W        W91718  23.442  14.382  13.969
23314W        W91719   1.974   8.437  10.429
23315W        W91720  31.067  40.101  13.267
23316W        W91721  21.624  21.204  10.660
23317W        W91722  32.561  41.502   4.568
23318W        W91723  11.254  16.740  11.176
23319W        W91724  26.030  22.472   4.093
23320W        W91725  27.737   7.443   4.197
23321W        W91726  43.906  28.562   0.666
23322W        W91727  19.677  34.092   3.203
23323W        W91728  42.537  42.849   3.682
23324W        W91729  33.081  36.509  12.508
23325W        W91730  37.424  37.843   1.335
23326W        W91731   0.707  14.161   4.185
23327W        W91732  21.811  34.797  11.653
23328W        W91733   6.746   1.362  14.012
23329W        W91734  43.445  29.060   4.704
23330W        W91735  23.965  37.338  13.441
23331W        W91736   7.831   3.429  14.968
23332W        W91737  30.963   1.779   3.658
23333W        W91738  20.051  27.573  13.424
23334W        W91739  36.914  44.104  10.732
23335W        W91740  18.840  21.491  10.258
23336W        W91741  29.148   4.193   3.795
23337W        W91742  31.666   2.708   1.257
23338W        W91743  18.159  32.338  11.854
23339W        W91744  30.854  35.564   4.657
23340W        W91745   7.797   9.745   0.776
23341W        W91746  34.085  41.981   1.833
23342W        W91747  15.669   8.365   0.539
23343W        W91748  11.360   0.197  13.371
23344W        W91749  13.830  23.032  11.522
23345W        W91750  20.088   6.295   2.342
23346W        W91751  38.063  19.709   3.864
23347W        W91752  20.725  34.972  13.936
23348W        W91753   9.426  12.210   4.278
23349W        W91754  29.672  33.560  10.622
23350W        W91755   7.941  13.322   1.824
23351W        W91756  17.075  21.893   3.637
23352W        W91757  14.913   5.269  11.202
23353W        W91758  18.585  15.074   3.169
23354W        W91759  10.061  14.769  11.192
23355W        W91760  26.460   7.030  12.155
23356W        W91761  39.290   6.652  13.139
23357W        W91762   7.644  33.108   4.203
23358W        W91763  18.683  26.914   3.295
23359W        W91764   3.273   1.726   1.244
23360W        W91765  41.419  33.703   1.240
23361W        W91766   2.806   5.275  13.105
23362W        W91767   2.956  41.355  14.130
23363W        W91768   0.378   7.831  10.620
23364W        W91769  34.368  39.983  12.403
23365W        W91770   7.218  11.753   4.617
23366W        W91771  24.072  31.998  11.238
23367W        W91772  37.846  10.361   2.390
23368W        W91773  44.905  34.042  12.066
23369W        W91774  34.026  26.905  11.962
23370W        W91775  41.970  21.589  11.450
23371W        W91776   5.744  40.669  13.326
23372W        W91777  27.482  24.141  11.180
23373W        W91778  35.476  15.697  12.573
23374W        W91779   8.614  20.309  14.447
23375W        W91780  18.033  28.518  13.547
23376W        W91781  16.698  11.701   0.824
23377W        W91782  24.355  16.362   4.118
23378W        W91783  17.656  13.820  14.576
23379W        W91784  22.099   6.153   2.737
23380W        W91785  42.278   3.317  11.966
23381W        W91786  33.554  18.742  12.963
23382W        W91787   1.354  41.893  11.222
23383W        W91788   2.690  40.911  14.018
23384W        W91789  27.683  26.508   0.452
23385W        W91790  28.413  12.720  12.877
23386W        W91791  44.745   2.731   4.205
23387W        W91792   9.353  22.525   0.899
23388W        W91793  22.961   9.809   1.724
23389W        W91794   2.938  17.981  14.495
23390W        W91795  19.820  17.433   5.116
23391W        W91796   2.748   4.357   4.505
23392W        W91797   8.704   3.417  11.624
23393W        W91798  18.235  19.643   2.739
23394W        W91799  33.597  16.766   2.816
23395W        W91800  10.447  32.747   2.261
23396W        W91801  16.581  31.548   3.934
23397W        W91802  24.546  14.846  13.432
23398W        W91803  22.595  32.138   0.272
23399W        W91804  26.555  14.264  13.999
23400W        W91805  31.705  21.222   4.483
23401W        W91806  37.430  20.420  14.806
23402W        W91807  41.783   4.820   2.272
23403W        W91808  12.851   6.087  13.942
23404W        W91809  22.634  43.380  11.269
23405W        W91810  19.549   1.145   4.190
23406W        W91811  29.169  18.312   5.260
23407W        W91812  22.072   4.997   0.897
23408W        W91813  35.194   7.849   2.241
23409W        W91814  10.342  29.572   1.866
23410W        W91815  17.094  23.724   4.122
23411W        W91816  38.464  32.770   4.371
23412W        W91817  32.668  33.529   0.708
23413W        W91818  17.186  30.698   0.390
23414W        W91819  40.151  36.392  12.008
23415W        W91820  28.606  28.442   0.193
23416W        W91821  17.081  23.727  13.535
23417W        W91822  18.277   4.271  10.389
23418W        W91823   3.768  44.717   0.912
23419W        W91824  26.744   0.294   2.875
23420W        W91825  11.152  26.223  14.511
23421W        W91826  17.730   9.838   2.185
23422W        W91827  21.550   9.057   1.358
23423W        W91828  29.987  25.490  13.378
23424W        W91829  25.448  41.998  13.017
23425W        W91830  44.199  25.259  14.622
23426W        W91831  29.687  22.495  14.765
23427W        W91832  11.215  38.900  14.967
23428W        W91833  31.911  30.128  13.582
23429W        W91834  10.114  34.137  10.501
23430W        W91835  39.208  26.696   3.666
23431W        W91836   1.704  28.031   1.007
23432W        W91837   3.198  31.966   1.716
23433W        W91838  19.417  17.079  14.120
23434W        W91839  32.360  15.147  14.290
23435W        W91840  17.567   4.011  12.051
23436W        W91841  28.996  29.899  11.610
23437W        W91842  10.796   6.467   2.934
23438W        W91843  34.920  18.159   3.344
23439W        W91844  14.330  14.246   4.187
23440W        W91845   3.272   0.679   0.893
23441W        W91846  33.377  19.694   2.690
23442W        W91847  31.173  42.865  11.091
23443W        W91848  15.976   0.393   2.220
23444W        W91849  44.781  43.183   1.373
23445W        W91850  25.346  27.684   0.274
23446W        W91851  33.855  31.572   3.293
23447W        W91852  39.363  24.300  11.516
23448W        W91853  37.461   0.687   1.899
23449W        W91854  26.497  32.659  11.375
23450W        W91855   1.274   7.147  14.478
23451W        W91856  14.674   3.220   1.781
23452W        W91857  12.232  39.491   4.678
23453W        W91858  37.088  14.767   0.366
23454W        W91859  14.036  35.856   1.596
23455W        W91860   2.817  39.276  14.337
23456W        W91861  37.068  11.255  14.892
23457W        W91862  29.202  32.606   2.913
23458W        W91863  19.710  22.564   1.945
23459W        W91864   3.142   3.448   1.838
23460W        W91865   1.246  34.561   2.859
23461W        W91866  40.551   6.454  14.399
23462W        W91867  37.987   1.075  10.337
23463W        W91868  28.836  24.036  11.032
23464W        W91869  26.639  35.725  14.203
23465W        W91870  40.111  35.830  11.033
23466W        W91871  44.570  36.053   0.333
23467W        W91872  13.804  13.736  11.230
23468W        W91873  44.794  31.274   4.115
23469W        W91874   2.913  29.218  11.603
23470W        W91875  39.379  28.201   0.279
23471W        W91876  16.545   2.299   3.817
23472W        W91877  37.804   0.378   2.085
23473W        W91878  28.542  43.237  11.453
23474W        W91879  22.670  19.807   3.442
23475W        W91880  39.827  18.660  14.958
23476W        W91881  24.515  36.034  12.074
23477W        W91882  34.530   6.989   4.368
23478W        W91883   7.385   0.713  12.928
23479W        W91884  13.084  24.699  10.628
23480W        W91885  14.168  24.586   0.776
23481W        W91886  30.895  25.339  13.403
23482W        W91887  33.997  15.107   0.991
23483W        W91888  26.187  34.427  12.268
23484W        W91889  31.635  35.674   1.974
23485W        W91890   8.635  33.494  14.701
23486W        W91891  16.795  36.100  11.659
23487W        W91892  38.537  30.532   4.617
23488W        W91893   5.922   3.963  13.425
23489W        W91894  37.944  36.291   4.886
23490W        W91895  36.462  39.724  11.708
23491W        W91896  10.798  19.737   1.242
23492W        W91897  37.301  13.719   1.248
23493W        W91898  12.947  40.517   0.305
23494W        W91899  31.926   9.744  10.877
23495W        W91900  22.021   2.721   0.205
23496W        W91901  22.574  25.740  10.579
23497W        W91902  31.986  17.803  13.875
23498W        W91903  30.185  11.693  14.679
23499W        W91904   7.686  41.777   4.189
23500W        W91905   3.869   3.880  10.848
23501W        W91906  35.850   2.776   4.743
23502W        W91907   1.065  33.974  11.264
23503W        W91908  20.134  14.468  11.558
23504W        W91909   8.950  23.498   0.902
23505W        W91910  39.963  25.064   1.620
23506W        W91911  40.900  39.681  11.186
23507W        W91912  22.179  22.446  13.400
23508W        W91913  18.994  20.503  13.105
23509W        W91914  43.071  18.164   2.752
23510W        W91915   0.232   4.440  11.529
23511W        W91916  11.100  23.202  11.125
23512W        W91917   7.685  15.848   1.167
23513W        W91918   1.052   9.415   2.833
23514W        W91919   8.155  32.632   1.702
23515W        W91920   6.707   5.406   1.183
23516W        W91921   2.026  35.971   0.277
23517W        W91922   6.745  30.054  13.338
23518W        W91923  27.112  14.603   1.823
23519W        W91924  26.608  18.541  12.597
23520W        W91925  26.710   6.245  14.484
23521W        W91926  41.309  15.334  11.565
23522W        W91927  33.915   9.563   3.356
23523W        W91928  34.929  19.481  10.829
23524W        W91929  12.513   4.665   3.285
23525W        W91930  33.630  23.186  12.504
23526W        W91931  29.446   3.265  14.348
23527W        W91932  15.223  22.386  12.205
23528W        W91933  41.968   9.271  10.409
23529W        W91934  39.576  25.584  11.533
23530W        W91935  32.558  32.472   4.158
23531W        W91936  40.480  31.596  10.850
23532W        W91937  29.000  10.734   0.116
23533W        W91938  30.486  12.887  14.816
23534W        W91939   6.604   0.375  13.827
23535W        W91940  34.846  25.287  11.953
23536W        W91941  16.872   0.735  14.766
23537W        W91942  41.048   0.833   2.232
23538W        W91943   0.834  42.084  11.962
23539W        W91944  31.920   0.868  12.506
23540W        W91945  21.558  30.085   2.279
23541W        W91946  26.864  18.469   1.296
23542W        W91947  23.117   9.200   2.159
23543W        W91948  13.255  13.301   1.378
23544W        W91949  16.152  40.444   3.395
23545W        W91950  29.210  25.650   2.708
23546W        W91951  32.659  26.475  14.175
23547W        W91952   0.996   1.130   2.806
23548W        W91953  39.922  27.484  11.024
23549W        W91954  18.213  37.827  13.960
23550W        W91955  42.087  18.516   4.715
23551W        W91956   7.636  25.478   0.867
23552W        W91957  19.639   2.764  12.671
23553W        W91958  26.235   3.158   1.789
23554W        W91959   5.349  19.595  12.466
23555W        W91960  21.244  15.438   0.332
23556W        W91961  40.280  21.233   3.787
23557W        W91962  25.541  11.673  13.706
23558W        W91963  28.227  27.530  11.604
23559W        W91964  27.465  43.845  11.116
23560W        W91965  11.142  24.049  11.209
23561W        W91966   6.869  31.364  12.384
23562W        W91967   1.652  33.050   1.873
23563W        W91968  20.038  42.327   3.691
23564W        W91969   1.486  34.638   4.204
23565W        W91970  19.030  12.878  13.945
23566W        W91971   3.513   1.316  10.617
23567W        W91972  20.482   8.201  11.997
23568W        W91973  18.821  35.519  12.945
23569W        W91974  43.413  19.622   3.532
23570W        W91975  30.394  13.617  12.544
23571W        W91976  43.799  34.949  11.260
23572W        W91977  44.776  42.410  14.726
23573W        W91978  27.657   1.453  11.156
23574W        W91979  15.115  29.005  11.879
23575W        W91980   3.281  11.552   2.131
23576W        W91981  38.354  34.441  11.823
23577W        W91982   2.537   2.736  13.403
23578W        W91983   5.214  20.190  14.436
23579W        W91984   5.742  31.548  10.897
23580W        W91985   9.586   7.762  12.957
23581W        W91986  25.449   6.964   3.695
23582W        W91987  16.060  25.972  11.519
23583W        W91988  40.927  26.691   0.958
23584W        W91989   4.189  17.338  13.327
23585W        W91990  33.588  40.739   3.207
23586W        W91991  42.966  39.384  11.067
23587W        W91992  11.050  24.956  11.261
23588W        W91993  41.478  29.200   2.405
23589W        W91994  18.800  17.776  13.122
23590W        W91995  32.065   4.708   3.314
23591W        W91996  21.800  30.938   3.508
23592W        W91997  26.558  26.727  12.068
23593W        W91998   5.904  28.151   2.257
23594W        W91999  16.110  26.506  14.393
23595W        W92000  15.477   9.613  12.996
23596W        W92001  22.147  11.817   3.740
23597W        W92002  33.437  39.627   4.678
23598W        W92003  41.940   8.228   4.689
23599W        W92004  19.666  34.232  14.042
23600W        W92005  41.234  12.432  10.994
23601W        W92006  25.523   3.629   4.440
23602W        W92007  10.737  22.708  12.609
23603W        W92008  42.415  14.376  14.094
23604W        W92009  22.546  15.694   2.864
23605W        W92010  37.835  20.561  12.488
23606W        W92011  24.365  17.061  13.026
23607W        W92012  23.773  10.602   3.252
23608W        W92013  37.341  27.687  10.190
23609W        W92014  41.593  44.864   1.920
23610W        W92015  28.605  42.381   0.782
23611W        W92016  22.149  38.513   0.267
23612W        W92017  25.954  42.034  12.866
23613W        W92018  36.960  40.233   3.229
23614W        W92019  43.218   3.917   2.741
23615W        W92020  14.278   5.927   2.803
23616W        W92021  37.205   3.918  13.154
23617W        W92022  31.071  32.732  14.316
23618W        W92023  35.395  44.557  11.986
23619W        W92024   4.271  36.142   2.642
23620W        W92025  35.515   8.127  14.469
23621W        W92026  38.075   1.793   3.356
23622W        W92027  22.414  23.653  14.998
23623W        W92028  27.022  17.739  12.527
23624W        W92029   8.714  27.128   4.920
23625W        W92030  23.091  39.604  14.260
23626W        W92031  30.363   5.481  11.121
23627W        W92032  27.042  19.688  11.643
23628W        W92033  34.985   6.291   0.772
23629W        W92034   7.784   1.972  13.384
23630W        W92035  39.764  25.819  13.526
23631W        W92036  16.815   3.546  11.165
23632W        W92037  13.188  40.773  14.794
23633W        W92038  25.518   5.928   2.750
23634W        W92039  27.122  31.581   0.624
23635W        W92040  37.542  33.840  12.958
23636W        W92041  23.469  20.226  12.424
23637W        W92042  35.508  11.012   3.227
23638W        W92043  43.780   5.396  13.432
23639W        W92044  31.625  18.204  14.902
23640W        W92045  17.806   3.876  14.623
23641W        W92046  26.883  10.132   4.606
23642W        W92047  41.779   5.002  14.516
23643W        W92048   0.329  31.999   3.784
23644W        W92049   5.822  41.983   3.792
23645W        W92050  40.595  19.720  11.924
23646W        W92051   1.975  42.814  13.237
23647W        W92052  31.378  35.504   0.763
23648W        W92053  23.007   1.732  12.881
23649W        W92054  44.965  15.810   1.206
23650W        W92055  16.656  12.633   1.604
23651W        W92056  39.248  39.394  12.883
23652W        W92057  18.229  25.058   2.169
23653W        W92058   3.466   7.693  14.034
23654W        W92059  12.675  24.690   4.092
23655W        W92060  21.005  25.220   3.737
23656W        W92061  43.490  40.104   0.832
23657W        W92062  16.315  37.525   3.732
23658W        W92063  38.050   6.576  11.921
23659W        W92064  11.128  19.143   0.024
23660W        W92065  43.399  24.215  14.466
23661W        W92066  42.232  18.215  11.538
23662W        W92067  20.257   7.342  10.461
23663W        W92068  24.280   6.289  12.114
23664W        W92069  40.084   0.134   0.292
23665W        W92070  39.589   6.990  10.867
23666W        W92071  19.139  43.046   1.826
23667W        W92072   6.800  17.154  14.343
23668W        W92073  27.091   3.988  14.415
23669W        W92074  35.356  36.516   0.354
23670W        W92075   2.276   8.063  11.090
23671W        W92076  19.580  14.166  12.879
23672W        W92077  11.076  33.076  13.600
23673W        W92078   4.821  11.229   0.108
23674W        W92079  18.634   3.264   3.697
23675W        W92080   2.947  10.841  14.328
23676W        W92081  18.940  37.805  10.979
23677W        W92082  21.351  24.117  11.262
23678W        W92083  12.256  31.020   4.228
23679W        W92084  20.250  12.280   2.334
23680W        W92085  43.361  26.448   1.852
23681W        W92086   4.771  28.396   4.065
23682W        W92087  37.091   3.785   5.256
23683W        W92088  39.362  26.310   4.604
23684W        W92089  20.704   7.404  10.726
23685W        W92090  10.283  14.637   0.789
23686W        W92091  32.170  24.767   3.479
23687W        W92092  24.002  27.134  14.847
23688W        W92093  37.446   8.501   0.931
23689W        W92094  22.958  15.291   2.737
23690W        W92095  37.203  36.388  10.717
23691W        W92096  28.111  22.541   3.684
23692W        W92097  24.723  30.642   0.820
23693W        W92098  25.064  19.028   2.786
23694W        W92099  44.366  29.244   1.883
23695W        W92100  26.603  37.654  10.448
23696W        W92101  20.688  28.516   2.385
23697W        W92102   3.738  25.922   4.667
23698W        W92103  10.872  43.719   1.683
23699W        W92104  35.419  38.095  13.800
23700W        W92105  44.809  28.984   1.744
23701W        W92106  33.965  29.209  11.226
23702W        W92107  35.093  17.855  13.423
23703W        W92108  22.124   4.862  14.591
23704W        W92109   3.638  21.775  11.809
23705W        W92110  30.630   8.879  11.968
23706W        W92111  26.099  32.891   4.077
23707W        W92112  18.827  35.037  11.462
23708W        W92113  21.501  26.439   3.390
23709W        W92114  19.292   3.522   3.209
23710W        W92115  33.784  13.370  13.568
23711W        W92116   1.668  29.994  12.031
23712W        W92117  35.268  19.946  12.592
23713W        W92118  27.899  43.194  14.361
23714W        W92119   0.235  44.084  14.437
23715W        W92120   3.906  37.866  13.795
23716W        W92121  22.165  29.514   0.534
23717W        W92122  19.995  16.529  14.036
23718W        W92123  19.601  35.118  10.604
23719W        W92124  43.924   3.409   0.369
23720W        W92125  22.817  44.309   0.009
23721W        W92126   2.796  20.335   1.777
23722W        W92127   8.389  41.358   4.863
23723W        W92128  38.536  41.754  11.147
23724W        W92129  35.864  22.755  12.496
23725W        W92130  19.541  28.513  14.513
23726W        W92131  11.373  34.924   0.490
23727W        W92132  13.599  32.366  13.770
23728W        W92133   7.872  17.798   0.926
23729W        W92134  14.820  21.241  12.076
23730W        W92135  22.659  28.009   2.667
23731W        W92136  17.032   8.321   2.275
23732W        W92137  20.799  37.932  14.819
23733W        W92138  42.466  18.445  14.494
23734W        W92139  12.577  34.579   4.011
23735W        W92140  20.689  12.784  10.707
23736W        W92141  18.501  15.720   4.054
23737W        W92142  23.792   8.540  11.820
23738W        W92143  28.659   1.568   3.875
23739W        W92144  25.078  39.040   3.514
23740W        W92145   4.478  20.277   3.336
23741W        W92146  44.061  26.672  13.209
23742W        W92147  13.631  37.011  12.019
23743W        W92148  15.162  41.310  12.829
23744W        W92149  17.698  27.145  11.933
23745W        W92150   4.779  34.511  13.137
23746W        W92151   5.770  24.535  14.469
23747W        W92152  36.778  42.558   0.501
23748W        W92153  24.483  20.744   3.308
23749W        W92154  23.232  22.047   0.743
23750W        W92155  44.747  39.895   4.436
23751W        W92156  32.621   9.248  13.971
23752W        W92157  17.663  20.539   0.397
23753W        W92158  14.675  36.103  14.471
23754W        W92159  44.224  15.577   0.969
23755W        W92160  42.280  32.989  13.233
23756W        W92161  40.000  25.694   4.589
23757W        W92162   0.374  44.756   2.701
23758W        W92163   5.640   0.894  11.343
23759W        W92164  44.687  29.063  10.869
23760W        W92165  17.710  42.993  13.498
23761W        W92166  40.369  29.019   1.815
23762W        W92167   4.414  44.254  12.017
23763W        W92168  27.516  37.203  10.685
23764W        W92169  21.777  12.008  12.201
23765W        W92170  14.525  29.112  13.805
23766W        W92171  40.022  12.641   4.404
23767W        W92172  23.729  13.320   4.708
23768W        W92173  16.564  22.610  12.563
23769W        W92174  16.476  13.092   1.382
23770W        W92175  19.168  40.035  12.932
23771W        W92176  37.162   6.422  14.098
23772W        W92177  10.570  17.452   0.289
23773W        W92178   1.721   4.425   2.170
23774W        W92179  43.155  22.922   1.317
23775W        W92180   4.501  21.117  10.059
23776W        W92181  18.112   1.369   0.677
23777W        W92182  37.960  17.181  13.233
23778W        W92183   2.317   2.240  13.461
23779W        W92184   9.365  22.048   3.129
23780W        W92185   5.386   3.081   1.160
23781W        W92186  32.097  12.360  12.950
23782W        W92187  15.099  22.079   4.585
23783W        W92188   5.739  31.836   4.234
23784W        W92189  29.025  12.087  10.697
23785W        W92190  16.894   5.183   2.192
23786W        W92191  13.094   1.523   4.423
23787W        W92192   1.543   6.090   1.298
23788W        W92193  38.004  32.479   2.196
23789W        W92194  32.595   2.897  13.808
23790W        W92195  16.266  30.394  12.775
23791W        W92196  25.149  34.518  13.080
23792W        W92197  23.544  26.360   0.640
23793W        W92198  17.307   4.699  12.553
23794W        W92199  34.742  26.181  14.254
23795W        W92200  33.929   0.721   3.295
23796W        W92201   7.250   9.582   2.411
23797W        W92202  11.244  30.296   3.706
23798W        W92203   4.102   9.535  14.517
23799W        W92204  24.108   7.795  12.871
23800W        W92205  21.556  12.473  10.755
23801W        W92206  17.280  35.294   1.011
23802W        W92207  40.366  31.175   0.345
23803W        W92208  14.268  44.670  10.656
23804W        W92209   2.010  17.961  11.078
23805W        W92210  29.255  18.793   2.278
23806W        W92211  33.929   6.753  13.646
23807W        W92212   2.379  32.958   1.354
23808W        W92213  22.469  12.375  10.953
23809W        W92214  33.474   0.353  13.784
23810W        W92215  22.774   2.691   4.174
23811W        W92216  27.698  41.429   3.691
23812W        W92217   0.886  23.130   1.925
23813W        W92218   0.502   1.977  12.006
23814W        W92219  38.126  37.978  12.963
23815W        W92220  42.211   3.717   2.753
23816W        W92221  22.529  20.639  12.145
23817W        W92222  39.506  22.108   1.454
23818W        W92223   3.374   5.697  12.601
23819W        W92224   3.059   4.731   0.864
23820W        W92225  42.085  43.454   0.185
23821W        W92226  34.669  28.275  12.232
23822W        W92227  32.179  33.835   3.229
23823W        W92228  37.552  23.377  14.338
23824W        W92229  28.936   2.284   2.715
23825W        W92230  36.697  41.304  11.488
23826W        W92231  32.820   1.479   3.061
23827W        W92232  35.396  23.782   1.093
23828W        W92233  14.213   5.260   0.197
23829W        W92234  12.367   6.343   1.287
23830W        W92235  43.936  42.808   4.920
23831W        W92236  31.398  31.917   0.946
23832W        W92237  12.669  25.213   1.203
23833W        W92238  40.185   9.557  10.785
23834W        W92239  31.672   9.065  12.847
23835W        W92240  32.826   2.046   0.736
23836W        W92241   1.681  38.853   3.839
23837W        W92242  28.170  34.792  12.856
23838W        W92243  33.893   8.628   3.704
23839W        W92244   8.896  28.442   4.396
23840W        W92245  17.344  37.498   1.921
23841W        W92246  10.765  29.404   0.104
23842W        W92247  19.504  36.812  11.277
23843W        W92248   8.886  15.616   3.845
23844W        W92249  23.428   8.946   1.346
23845W        W92250  13.580   7.380   1.920
23846W        W92251   3.207   6.841   3.394
23847W        W92252  41.476  10.604   2.233
23848W        W92253  23.687  17.881   0.845
23849W        W92254  40.961   8.296   1.919
23850W        W92255   0.928  22.988  11.155
23851W        W92256  17.174  12.421  10.763
23852W        W92257  38.399  14.039  11.561
23853W        W92258  20.745  11.159   2.675
23854W        W92259  22.957  34.696  13.870
23855W        W92260  13.080  39.099  13.582
23856W        W92261   1.019  33.750  12.871
23857W        W92262   9.844  37.321   1.353
23858W        W92263  10.906  18.750  14.166
23859W        W92264   8.035  29.077  12.640
23860W        W92265  16.541  15.905  14.368
23861W        W92266   9.198  35.508  12.479
23862W        W92267  25.639  33.392   3.177
23863W        W92268  20.057   2.256   1.826
23864W        W92269  34.111  20.557  11.096
23865W        W92270  44.804  23.215  11.770
23866W        W92271  32.145  36.571  11.597
23867W        W92272   6.028  34.186   1.617
23868W        W92273  32.046  25.887  14.857
23869W        W92274  32.944   5.537  12.423
23870W        W92275  18.153   2.444   1.867
23871W        W92276   6.691  26.478   4.982
23872W        W92277  20.662  10.308   1.017
23873W        W92278  32.695  12.277  10.667
23874W        W92279  10.391  37.799  13.520
23875W        W92280  14.611  43.724  12.898
23876W        W92281  31.326   7.435  13.753
23877W        W92282  15.218  18.685   4.029
23878W        W92283   3.356  10.717  11.919
23879W        W92284  34.984  19.832  13.052
23880W        W92285  18.133   6.420   1.264
23881W        W92286  23.609  26.297  11.199
23882W        W92287  34.079   2.050   1.244
23883W        W92288  32.598   0.999  14.345
23884W        W92289  28.096   9.060   3.056
23885W        W92290  17.070  24.276   3.316
23886W        W92291  28.438  12.770  12.351
23887W        W92292   4.715  21.084  14.511
23888W        W92293  20.759  29.026  13.734
23889W        W92294   3.267  36.913  14.297
23890W        W92295   3.740   9.905   4.297
23891W        W92296   2.344  30.217   4.478
23892W        W92297  30.184  31.610  13.865
23893W        W92298  25.087  20.047   1.307
23894W        W92299   6.485   5.415   4.138
23895W        W92300  26.679   5.253   4.737
23896W        W92301  35.712   3.443   2.070
23897W        W92302  38.229  15.642  14.791
23898W        W92303  35.029  13.575   0.833
23899W        W92304  20.250  29.639  10.704
23900W        W92305  32.165  16.675  14.326
23901W        W92306   0.030   5.326  12.942
23902W        W92307  10.208  20.481   0.790
23903W        W92308  10.184   1.427   1.892
23904W        W92309  15.062  42.968   0.365
23905W        W92310  44.076  13.049   0.346
23906W        W92311  33.663  13.744  12.395
23907W        W92312  13.546  32.547   3.262
23908W        W92313  24.800  39.620   0.803
23909W        W92314  17.113  27.190   4.684
23910W        W92315  30.988   1.364   3.193
23911W        W92316  32.544  15.006   3.056
23912W        W92317   3.736   9.720  13.343
23913W        W92318  21.635  40.902   2.132
23914W        W92319  30.490   1.036   3.944
23915W        W92320  11.295  25.766  11.996
23916W        W92321  19.846  39.407   0.448
23917W        W92322  42.391  40.364  10.292
23918W        W92323  29.206  40.321  11.890
23919W        W92324  38.959  44.855   5.298
23920W        W92325   6.726  13.917  12.447
23921W        W92326   4.913  19.346  14.869
23922W        W92327   1.130  13.297   1.844
23923W        W92328  26.025  21.269  14.970
23924W        W92329  41.756  13.180  13.986
23925W        W92330  17.656  34.637  13.846
23926W        W92331  43.913  14.618   2.962
23927W        W92332  13.519  22.188   3.564
23928W        W92333   3.171  24.139   2.363
23929W        W92334  26.728  13.272  14.931
23930W        W92335   5.929   3.723   1.976
23931W        W92336  39.024  12.313  10.651
23932W        W92337  16.211  22.271  13.945
23933W        W92338  37.261   7.777   0.531
23934W        W92339  38.508   9.651  12.572
23935W        W92340  36.216  35.818   4.126
23936W        W92341  27.698  36.628  12.068
23937W        W92342  27.099  44.090   4.449
23938W        W92343  36.457   2.726  13.332
23939W        W92344  17.160  25.571   3.312
23940W        W92345  14.553  16.538   1.915
23941W        W92346  17.701  40.939  14.309
23942W        W92347  23.028   4.779   3.702
23943W        W92348  41.850  38.869  12.297
23944W        W92349  43.786  28.665   4.710
23945W        W92350  44.281  35.046  13.458
23946W        W92351  30.521   4.122   0.796
23947W        W92352  24.955   5.376   1.367
23948W        W92353  39.568   5.172  12.400
23949W        W92354   0.867  14.224   0.886
23950W        W92355  22.258  30.686   4.230
23951W        W92356  11.590   6.822   4.507
23952W        W92357  25.519  13.033   1.986
23953W        W92358   9.727  23.257   2.798
23954W        W92359  32.662  23.291   0.477
23955W        W92360  22.570  37.371  14.435
23956W        W92361  37.518   8.247  11.650
23957W        W92362  17.180   2.060  11.573
23958W        W92363   5.845  40.512  14.233
23959W        W92364  41.323   9.780  13.068
23960W        W92365  18.168   2.001   1.572
23961W        W92366  28.104  13.687   2.911
23962W        W92367  37.106   0.589   3.191
23963W        W92368  41.136   8.726  12.055
23964W        W92369  31.955  22.769  12.448
23965W        W92370  23.704  41.501   1.718
23966W        W92371  16.337  28.134  13.882
23967W        W92372  31.151  27.298   4.932
23968W        W92373  29.093   1.474  14.579
23969W        W92374  23.504  23.203   0.614
23970W        W92375  34.659  24.807  14.477
23971W        W92376   1.576  39.851  10.678
23972W        W92377  16.146  35.073  12.233
23973W        W92378  17.300  14.717   3.348
23974W        W92379   8.293   4.430   1.640
23975W        W92380  29.583  20.323  13.591
23976W        W92381   3.377  29.540   5.035
23977W        W92382  12.961  21.214  12.021
23978W        W92383  32.331  33.893   2.337
23979W        W92384  18.641  13.360  14.997
23980W        W92385  41.549  38.294  12.537
23981W        W92386  13.818  11.559   4.505
23982W        W92387  33.083   2.282  10.962
23983W        W92388  22.762  12.286   3.417
23984W        W92389  44.932  40.855  11.730
23985W        W92390  13.059  37.910   0.275
23986W        W92391  39.609  13.478  11.180
23987W        W92392  14.814  44.904  11.560
23988W        W92393  44.472  10.146  14.076
23989W        W92394  39.638  20.035  11.495
23990W        W92395  24.179  39.973   2.267
23991W        W92396  36.829  10.631   0.925
23992W        W92397   4.175  40.363   3.868
23993W        W92398  19.960   6.360  10.212
23994W        W92399  14.165  33.870  14.496
23995W        W92400  43.637  28.118  10.672
23996W        W92401   2.884  14.051   4.542
23997W        W92402  32.858  43.532  12.447
23998W        W92403  14.079  40.085   1.828
23999W        W92404  33.509  36.504   0.322
24000W        W92405  22.699  37.702   5.231
24001W        W92406  42.882  15.284  10.716
24002W        W92407  30.159  16.541  11.588
24003W        W92408  12.143  17.123  14.021
24004W        W92409   2.642   7.956   0.826
24005W        W92410   8.729  16.092   1.316
24006W        W92411  15.990  28.182   0.009
24007W        W92412  22.131  26.498   2.790
24008W        W92413  35.413  32.924  14.778
24009W        W92414  35.435  36.031  10.771
24010W        W92415  39.305  27.697  13.418
24011W        W92416   6.942   8.388  12.946
24012W        W92417  41.424  28.985   0.924
24013W        W92418  21.301  10.939  11.534
24014W        W92419   9.536  11.376  11.170
24015W        W92420  32.616   8.153  14.875
24016W        W92421  13.845  20.789  13.547
24017W        W92422  36.060  25.288  10.669
24018W        W92423  36.499  28.771   5.042
24019W        W92424  41.015  41.724   2.293
24020W        W92425  26.032  18.021   2.101
24021W        W92426  12.824  32.092  10.221
24022W        W92427  21.505  40.253   0.291
24023W        W92428   4.336  22.114   4.226
24024W        W92429  20.205   7.285  12.900
24025W        W92430  42.706  42.018  13.055
24026W        W92431  20.872  24.115  11.059
24027W        W92432  31.992  43.431  13.002
24028W        W92433  21.041   3.302  12.860
24029W        W92434  31.085   4.413  12.970
24030W        W92435  10.425  43.965   5.041
24031W        W92436  43.449  31.385   0.896
24032W        W92437  31.890  21.061   3.021
24033W        W92438  13.963  40.848   3.738
24034W        W92439  25.802  26.104  14.887
24035W        W92440  41.010  29.022   2.356
24036W        W92441   7.698  27.662   3.690
24037W        W92442  35.578   3.867  11.345
24038W        W92443  27.525   1.717   2.358
24039W        W92444  38.387  27.197   1.872
24040W        W92445  39.314  42.086   1.138
24041W        W92446  10.654   0.011  13.334
24042W        W92447  21.279   6.769   4.083
24043W        W92448  40.144  28.424   3.190
24044W        W92449  42.577  17.139  11.548
24045W        W92450  42.338  13.648   2.760
24046W        W92451  25.531   1.844   1.831
24047W        W92452  19.479   0.952   2.853
24048W        W92453  40.286  41.106  14.429
24049W        W92454  32.306  25.753  12.574
24050W        W92455  20.725  11.475   1.657
24051W        W92456  18.611  41.013  13.608
24052W        W92457  20.648  16.745   0.292
24053W        W92458  19.950  28.239   4.983
24054W        W92459  21.213  34.166  13.942
24055W        W92460  16.952   0.970   4.039
24056W        W92461  26.169  25.936   2.913
24057W        W92462  39.370   3.918   2.841
24058W        W92463   5.044  29.103  13.421
24059W        W92464  44.843  23.516   0.507
24060W        W92465  22.497  22.210   4.797
24061W        W92466  14.757  12.709  11.601
24062W        W92467  29.499  33.669   3.440
24063W        W92468   9.533   0.504   4.223
24064W        W92469  28.660   1.922   0.037
24065W        W92470   7.675  31.447  12.800
24066W        W92471  36.196  32.103  12.402
24067W        W92472  15.708  39.083  10.433
24068W        W92473  13.300  40.698  13.435
24069W        W92474  38.944   2.155  12.903
24070W        W92475  41.806   5.459   1.330
24071W        W92476   7.745  34.541   9.624
24072W        W92477  40.547  15.061  11.098
24073W        W92478   0.858  37.661   2.724
24074W        W92479  35.306  29.526   0.291
24075W        W92480  23.538  25.422  14.455
24076W        W92481   1.663  12.524  12.074
24077W        W92482  28.395  40.411  14.961
24078W        W92483  13.339  41.485   0.257
24079W        W92484  31.994  29.750   3.767
24080W        W92485  33.091  44.548   4.273
24081W        W92486  35.975  31.942  10.660
24082W        W92487  26.936  41.788   2.650
24083W        W92488  40.414  29.576  13.922
24084W        W92489  36.526  29.488   0.716
24085W        W92490   6.661  41.831   1.838
24086W        W92491  23.680  18.381  12.560
24087W        W92492  39.827   6.764   3.749
24088W        W92493  31.397  21.131   2.851
24089W        W92494  17.256  30.256   0.115
24090W        W92495  43.889  10.863  14.416
24091W        W92496  31.865   7.070   0.025
24092W        W92497  44.004  36.937   0.408
24093W        W92498  13.639  24.142   1.514
24094W        W92499   0.765  25.785   1.145
24095W        W92500  21.714   9.664  13.813
24096W        W92501  35.946  29.381   2.765
24097W        W92502  28.647  16.529  10.741
24098W        W92503  38.572   0.637  10.951
24099W        W92504   6.906   0.506   1.470
24100W        W92505   9.777  39.012  11.238
24101W        W92506  14.507  40.829   3.764
24102W        W92507  27.500  44.021  13.442
24103W        W92508  13.335  39.044   0.727
24104W        W92509   5.204  12.703   2.322
24105W        W92510  44.896  44.609   3.838
24106W        W92511   0.334  10.326   3.856
24107W        W92512  16.691  39.513   3.095
24108W        W92513   9.195  11.835  12.056
24109W        W92514   2.629  43.396   1.269
24110W        W92515  36.363  15.722   2.102
24111W        W92516  28.538   5.002   1.733
24112W        W92517   0.247  12.323   2.722
24113W        W92518  21.061  38.835  14.076
24114W        W92519   0.946  14.454  12.380
24115W        W92520  36.333  12.768  11.762
24116W        W92521  32.474   8.733  13.966
24117W        W92522  11.700  21.647   3.331
24118W        W92523  43.857   0.943   4.147
24119W        W92524  13.407  35.490   1.419
24120W        W92525  30.635  15.746   3.750
24121W        W92526  21.139  15.178   1.766
24122W        W92527   4.376  35.526  14.378
24123W        W92528  23.448   4.762   0.707
24124W        W92529  24.763  17.728   1.681
24125W        W92530  29.586  33.480   2.425
24126W        W92531  22.747   4.799   2.715
24127W        W92532  23.763   6.252  10.844
24128W        W92533  44.403  40.447   2.968
24129W        W92534  24.739  12.884  12.415
24130W        W92535  30.468   0.177  12.081
24131W        W92536  31.559   7.330  14.646
24132W        W92537  36.479  36.869   2.740
24133W        W92538  43.716  42.470  13.500
24134W        W92539  38.898  26.115   3.944
24135W        W92540  25.001  40.320  14.351
24136W        W92541  35.305  12.610   1.239
24137W        W92542  17.937  13.383  14.360
24138W        W92543  42.792  30.788  10.725
24139W        W92544   8.727  44.117  14.570
24140W        W92545  40.435  42.933  12.078
24141W        W92546  31.909  44.784  14.426
24142W        W92547  31.336   6.325   4.106
24143W        W92548  43.023  20.200   1.862
24144W        W92549   7.342   0.978   0.240
24145W        W92550  11.559  14.036  14.896
24146W        W92551  24.378  23.471  11.936
24147W        W92552  14.590  32.944  14.280
24148W        W92553  26.755  13.533  11.246
24149W        W92554  20.722  11.295   0.711
24150W        W92555  16.675   6.189  14.869
24151W        W92556  22.543  30.214   3.093
24152W        W92557   8.606  41.018  12.052
24153W        W92558  12.809  21.649   1.239
24154W        W92559   2.793  11.298  13.891
24155W        W92560  24.657  30.664   3.794
24156W        W92561  33.824  29.998  12.023
24157W        W92562  30.058  17.007  11.336
24158W        W92563  21.697  34.410   2.416
24159W        W92564  25.269  22.394   4.037
24160W        W92565   3.255  28.586   3.701
24161W        W92566  37.033  18.021  11.499
24162W        W92567  22.108  29.661  12.843
24163W        W92568  10.713  23.549  11.212
24164W        W92569   8.955  22.103  14.494
24165W        W92570  27.373   0.202   3.354
24166W        W92571  34.415   6.469  13.847
24167W        W92572  27.039  10.703   3.720
24168W        W92573  34.924  41.999  13.433
24169W        W92574  41.505  26.361  11.913
24170W        W92575  19.071   6.323   3.438
24171W        W92576   9.036  22.108   0.938
24172W        W92577  25.720  42.065  12.108
24173W        W92578  20.506   1.492   0.410
24174W        W92579  15.423  16.739  10.248
24175W        W92580   6.736   2.260   4.259
24176W        W92581   2.885   4.755  13.997
24177W        W92582   9.657  32.495   1.863
24178W        W92583  38.403   8.946  10.699
24179W        W92584  22.136  29.141   4.540
24180W        W92585   0.449  11.741   3.460
24181W        W92586  37.897  42.442  12.070
24182W        W92587  18.633   4.558  11.803
24183W        W92588  35.795  38.678   3.580
24184W        W92589   2.544  12.605  12.823
24185W        W92590  30.437  35.328  13.483
24186W        W92591  26.705  32.346   4.561
24187W        W92592  21.141  40.818  13.515
24188W        W92593  20.296  16.953   3.329
24189W        W92594   0.886   5.421   0.436
24190W        W92595  23.784  40.949  12.624
24191W        W92596  36.987   8.557  12.652
24192W        W92597  29.586  16.103   2.111
24193W        W92598  26.917  20.373  12.619
24194W        W92599  30.007  13.451  14.521
24195W        W92600  23.132  43.532  11.086
24196W        W92601   4.372   2.843  13.528
24197W        W92602  30.685  38.362  11.594
24198W        W92603  42.721  29.753   0.841
24199W        W92604  10.783  29.260   1.761
24200W        W92605   5.272  11.901   2.921
24201W        W92606   4.929  25.523  13.075
24202W        W92607  38.296  13.005   0.389
24203W        W92608   0.784  27.686   0.853
24204W        W92609  20.082   2.301  14.328
24205W        W92610  28.415  26.474   3.238
24206W        W92611  22.241   2.990  11.080
24207W        W92612  13.335   0.374  10.963
24208W        W92613  21.232   5.768   3.914
24209W        W92614   7.622  20.160  10.578
24210W        W92615   5.716   7.051   2.700
24211W        W92616  11.053   2.949   0.913
24212W        W92617  37.406  29.520  11.422
24213W        W92618   8.611  12.544  13.439
24214W        W92619  40.523  31.900   4.105
24215W        W92620   3.631  10.237   2.530
24216W        W92621   6.788  17.744   0.817
24217W        W92622  23.473   7.659  11.601
24218W        W92623   7.619  15.466  11.505
24219W        W92624  11.595  25.179  14.065
24220W        W92625  18.081  22.778   2.236
24221W        W92626   5.569  34.007   1.742
24222W        W92627  33.190   2.321   4.683
24223W        W92628  22.971  15.437  14.812
24224W        W92629  20.853   0.444   4.805
24225W        W92630   6.673  21.203   1.168
24226W        W92631  31.411   4.386   1.274
24227W        W92632  13.676  35.633  13.190
24228W        W92633   7.321  33.077   1.880
24229W        W92634  11.821  25.147   4.527
24230W        W92635  43.688  21.164  12.813
24231W        W92636  19.637   9.551   0.463
24232W        W92637   7.300  24.394  11.902
24233W        W92638  19.974  29.842  11.955
24234W        W92639  27.768  21.246  12.434
24235W        W92640   8.587  20.059   2.177
24236W        W92641  31.082  24.175   1.488
24237W        W92642  37.408  42.998  14.180
24238W        W92643  42.518  42.030  13.915
24239W        W92644  30.657  33.853  12.350
24240W        W92645  15.316  25.061  14.446
24241W        W92646  10.641   6.321  10.489
24242W        W92647  26.573   3.122  13.466
24243W        W92648  33.146   7.878  13.039
24244W        W92649  25.506   6.529   5.154
24245W        W92650  26.911  37.831   1.795
24246W        W92651   4.427   5.345   4.344
24247W        W92652  43.489  14.657  14.919
24248W        W92653  41.209  23.037  14.062
24249W        W92654  26.550  14.073   2.103
24250W        W92655  25.287   4.618  11.987
24251W        W92656  41.810  28.586   2.873
24252W        W92657  25.669   7.820   1.463
24253W        W92658   0.995  24.220   2.192
24254W        W92659  21.568  27.969  13.846
24255W        W92660  10.361  32.903  14.078
24256W        W92661  28.154  17.991   1.362
24257W        W92662  33.908  30.255   1.769
24258W        W92663  11.784  31.362  13.940
24259W        W92664  42.581  30.327   0.740
24260W        W92665  23.774  42.679   3.615
24261W        W92666  28.631   5.749   4.341
24262W        W92667  12.235  25.034  12.602
24263W        W92668  29.849  22.089  12.250
24264W        W92669  14.767  10.479   1.825
24265W        W92670  35.942  20.698  11.006
24266W        W92671  34.099  10.515   0.821
24267W        W92672  22.666  38.503  12.566
24268W        W92673  21.980  11.164  14.236
24269W        W92674  32.061  36.721  14.276
24270W        W92675   8.680  10.594   2.027
24271W        W92676   4.537  38.252  13.333
24272W        W92677  27.271  22.458   1.274
24273W        W92678  27.040  29.627   1.705
24274W        W92679  20.452  22.063   1.711
24275W        W92680  23.528  42.246   4.343
24276W        W92681   3.784  20.849  11.932
24277W        W92682   5.702   8.111   1.282
24278W        W92683  41.494  35.005   4.576
24279W        W92684   8.208  29.468  13.880
24280W        W92685  13.687   1.276  11.156
24281W        W92686  19.249  20.477   2.185
24282W        W92687  43.396  28.931  10.786
24283W        W92688  33.915  28.336  13.839
24284W        W92689  15.028  44.032   1.746
24285W        W92690  39.110  18.075  12.918
24286W        W92691   3.109  28.871  14.287
24287W        W92692  15.725   3.891  14.035
24288W        W92693  12.531  15.849  13.322
24289W        W92694  15.262  38.328   1.013
24290W        W92695  28.641  29.831  11.976
24291W        W92696  11.799  41.002  10.647
24292W        W92697  36.943  44.772  11.262
24293W        W92698  35.398  42.894   4.657
24294W        W92699  25.153   6.741   2.135
24295W        W92700  24.407  41.757   1.833
24296W        W92701  27.075  25.987   1.947
24297W        W92702   5.429  39.008   4.518
24298W        W92703  40.401  22.469  12.453
24299W        W92704  19.227  12.998   3.738
24300W        W92705  43.396  27.681  10.748
24301W        W92706  22.639  42.183   1.833
24302W        W92707  18.461  15.191   0.814
24303W        W92708  23.456  22.691   4.081
24304W        W92709  15.582  35.587   0.264
24305W        W92710  29.624   1.260   2.792
24306W        W92711  25.999  35.573   1.884
24307W        W92712  17.197  25.133  13.555
24308W        W92713  18.150  25.713  10.705
24309W        W92714  21.500   9.396  10.516
24310W        W92715  37.162  37.347   4.292
24311W        W92716  44.883  26.693   4.535
24312W        W92717  25.795  25.258  14.370
24313W        W92718   5.906  15.066  14.289
24314W        W92719  18.833  31.734   4.241
24315W        W92720   6.649   5.957  11.032
24316W        W92721  23.380  31.912   1.368
24317W        W92722  21.508  25.164   3.803
24318W        W92723  37.778  20.267   3.116
24319W        W92724   7.069   9.501  14.676
24320W        W92725  32.622  43.398  10.680
24321W        W92726  20.534  13.702  10.670
24322W        W92727  29.154   3.908  12.594
24323W        W92728   2.060  25.948  12.013
24324W        W92729  14.210  36.521   4.914
24325W        W92730   2.303  34.877   5.024
24326W        W92731   3.204   9.656  14.943
24327W        W92732  18.627  15.261   4.299
24328W        W92733  23.577  30.762  12.518
24329W        W92734  18.677  44.213  11.139
24330W        W92735  15.515   9.363   2.372
24331W        W92736  27.170  10.761   2.139
24332W        W92737  33.932  43.287  13.009
24333W        W92738  43.894  28.035  11.562
24334W        W92739   5.789  24.703   3.812
24335W        W92740   9.830  16.754  14.897
24336W        W92741   3.780  41.446  13.389
24337W        W92742  15.568  21.983   2.442
24338W        W92743  30.963  40.015   4.130
24339W        W92744   5.142  41.843  14.904
24340W        W92745  38.834  39.566  14.934
24341W        W92746  44.940  33.551  10.559
24342W        W92747   7.718  41.386   0.125
24343W        W92748  10.629  25.529   4.352
24344W        W92749  16.803  27.023  10.549
24345W        W92750   1.763  15.192  12.362
24346W        W92751  11.678  40.387  11.366
24347W        W92752  21.091  25.193   0.343
24348W        W92753  38.650  22.245   1.297
24349W        W92754  16.619  12.742   0.205
24350W        W92755  30.928  34.005  13.115
24351W        W92756   6.354  18.283   0.392
24352W        W92757  33.864  33.179   1.388
24353W        W92758  30.705   2.374  12.060
24354W        W92759  15.740  35.162   4.593
24355W        W92760   6.306   5.932  10.662
24356W        W92761  36.852  15.021  14.948
24357W        W92762  31.164   4.738  10.470
24358W        W92763  21.074  17.240   4.165
24359W        W92764  22.567  39.009  11.223
24360W        W92765  10.921  18.270   2.447
24361W        W92766  25.273  42.742  11.398
24362W        W92767  34.439   5.812   3.339
24363W        W92768  24.056  42.977  10.916
24364W        W92769  33.542  27.051  12.012
24365W        W92770  41.185  35.544   3.840
24366W        W92771  28.849  31.357  12.337
24367W        W92772  34.642   7.639   1.406
24368W        W92773   6.302  15.544  12.980
24369W        W92774   9.292   2.262  13.917
24370W        W92775   8.294  31.307   2.399
24371W        W92776  20.157  19.531  13.932
24372W        W92777   5.136   3.320   4.493
24373W        W92778   6.918  15.765   5.397
24374W        W92779   1.978   5.916   2.368
24375W        W92780  18.690  34.225  13.373
24376W        W92781  22.594  16.257  13.741
24377W        W92782  31.944   0.896  13.509
24378W        W92783  38.038  39.485  14.013
24379W        W92784  19.279  23.199  12.476
24380W        W92785  28.450   5.421  12.868
24381W        W92786  18.544  25.698   0.984
24382W        W92787  12.632   7.588   4.861
24383W        W92788   8.421  21.256   4.177
24384W        W92789  44.769   5.928   3.705
24385W        W92790  10.037  37.464  11.673
24386W        W92791   5.674   4.823   4.598
24387W        W92792  20.848  34.410  13.598
24388W        W92793  27.435  37.458   1.296
24389W        W92794   9.410  18.269  14.060
24390W        W92795  11.838  19.690  12.526
24391W        W92796  36.806  34.919  11.963
24392W        W92797  29.551   2.014  13.712
24393W        W92798  28.383  14.846  14.447
24394W        W92799   4.916  43.858   2.234
24395W        W92800  21.918   0.832   1.177
24396W        W92801  17.549   0.841   0.932
24397W        W92802  40.815  33.983   0.673
24398W        W92803  16.992  27.205  11.032
24399W        W92804  26.725   9.641   2.408
24400W        W92805  38.013  14.406  12.922
24401W        W92806  33.576  16.669   5.075
24402W        W92807  10.616  42.529   2.165
24403W        W92808  25.468  36.798   3.171
24404W        W92809  30.018  35.886   4.837
24405W        W92810  41.297  29.901   3.533
24406W        W92811   9.023  39.847   2.478
24407W        W92812  35.379  40.390  12.029
24408W        W92813  18.870  34.786  10.193
24409W        W92814  38.537  35.616   4.569
24410W        W92815  23.998   4.480  10.435
24411W        W92816  22.365   0.457  11.713
24412W        W92817  44.894  11.373   2.788
24413W        W92818  10.011   5.407   3.233
24414W        W92819   9.381   2.771  13.750
24415W        W92820  37.603  20.784   3.582
24416W        W92821  24.381  37.504  12.529
24417W        W92822  22.749  42.120  14.938
24418W        W92823   4.202  26.187   4.663
24419W        W92824  20.345  30.941  12.884
24420W        W92825  18.257  34.606  12.241
24421W        W92826   0.604  18.157  13.605
24422W        W92827  39.905  33.832   0.955
24423W        W92828  11.361  42.966   0.209
24424W        W92829  17.278   9.334   2.816
24425W        W92830  24.612  14.130  14.841
24426W        W92831  41.332  12.917  11.182
24427W        W92832  28.140  11.294   1.235
24428W        W92833  24.723  22.555   4.079
24429W        W92834  11.369   3.020  10.482
24430W        W92835  39.621  29.630  10.616
24431W        W92836   0.553  10.855  13.979
24432W        W92837  44.255  31.414  12.402
24433W        W92838  17.660   1.963  11.179
24434W        W92839  15.876   5.264  13.487
24435W        W92840   9.932  17.519   1.207
24436W        W92841  23.527  17.333  13.954
24437W        W92842  25.534  38.939   4.332
24438W        W92843  28.473   3.310  12.338
24439W        W92844  14.833   5.366   0.875
24440W        W92845  13.087  31.434  12.120
24441W        W92846   8.863  30.633   1.169
24442W        W92847  33.200  43.422   1.263
24443W        W92848   0.142  19.145  14.103
24444W        W92849  29.645  24.331  10.593
24445W        W92850   0.363  34.431  13.068
24446W        W92851  17.172  26.712   3.023
24447W        W92852  23.508   1.599   1.382
24448W        W92853  32.931  17.749  10.467
24449W        W92854  22.610  38.988   0.940
24450W        W92855  26.606  16.110  14.917
24451W        W92856  19.092  14.687   1.162
24452W        W92857  19.487  42.356  14.268
24453W        W92858   4.760  30.710   1.002
24454W        W92859  39.669  11.638  11.591
24455W        W92860  41.390   2.346  13.705
24456W        W92861   4.960  42.335   0.265
24457W        W92862  18.260  22.248  14.211
24458W        W92863  37.404  21.515   1.694
24459W        W92864  13.695  23.149   3.169
24460W        W92865  42.789   7.829  14.796
24461W        W92866  34.135  10.610  11.119
24462W        W92867  17.306  17.545   1.297
24463W        W92868   0.251  40.647   1.420
24464W        W92869   8.970  41.884   2.346
24465W        W92870  41.686  19.168  13.555
24466W        W92871  22.954  26.567  11.929
24467W        W92872  31.228  28.439   1.817
24468W        W92873  30.912  28.241   3.749
24469W        W92874  17.145  19.490   2.294
24470W        W92875  25.314  14.831   4.509
24471W        W92876   8.698  10.479  11.279
24472W        W92877  19.121  33.180  13.568
24473W        W92878  15.807  30.700  14.432
24474W        W92879  43.264  39.943   1.270
24475W        W92880  13.242  19.263   3.675
24476W        W92881   8.220  41.056   0.816
24477W        W92882  13.300  44.864  10.889
24478W        W92883  15.701  42.707  12.414
24479W        W92884  20.144  26.092   4.127
24480W        W92885   2.190  32.696   0.193
24481W        W92886   8.373   3.965   1.863
24482W        W92887  22.876  30.801   3.785
24483W        W92888  15.659  12.252  11.631
24484W        W92889  40.318  17.073  10.671
24485W        W92890  33.127   1.434  11.165
24486W        W92891  23.698  38.572   3.781
24487W        W92892  16.211  10.659   4.810
24488W        W92893  17.131   8.278   0.839
24489W        W92894   1.930  32.934   2.316
24490W        W92895  29.043  34.129   1.364
24491W        W92896   5.201  14.082   3.654
24492W        W92897   8.804  24.564  13.936
24493W        W92898   9.871   3.798   3.209
24494W        W92899  39.236   4.035  14.316
24495W        W92900   4.869  36.297   0.775
24496W        W92901  11.311  36.325   0.450
24497W        W92902  10.068  25.429   3.726
24498W        W92903  14.265  34.955  13.484
24499W        W92904  28.707   1.432  13.033
24500W        W92905  20.301  32.053   0.187
24501W        W92906  34.528  34.338  14.348
24502W        W92907  39.431  18.059  12.078
24503W        W92908  16.976   1.903   1.057
24504W        W92909  13.573  17.083  14.270
24505W        W92910  41.086  10.282   4.679
24506W        W92911   7.982   6.234   2.307
24507W        W92912  17.119  34.676  12.165
24508W        W92913   8.235  37.932  14.746
24509W        W92914  44.517  38.718  12.993
24510W        W92915  25.501  29.668   5.011
24511W        W92916  33.846   1.932  11.095
24512W        W92917   0.179  39.011  13.824
24513W        W92918  14.799  36.147  11.171
24514W        W92919   4.126  44.395  11.572
24515W        W92920  23.634  44.914  11.950
24516W        W92921  40.289  12.256   1.740
24517W        W92922   2.715  27.052  14.044
24518W        W92923  25.961  12.517   1.451
24519W        W92924  13.788   9.851  10.778
24520W        W92925  19.283  28.914  12.012
24521W        W92926   5.980  39.533   3.209
24522W        W92927  24.691  13.645  13.835
24523W        W92928   4.425   9.605  13.472
24524W        W92929  10.644  41.539  12.573
24525W        W92930   7.983  33.985   0.818
24526W        W92931   3.299  38.552  11.908
24527W        W92932  26.846  32.334   1.749
24528W        W92933  40.816  28.245   4.062
24529W        W92934  11.475  41.148   0.142
24530W        W92935  24.995  42.962   3.005
24531W        W92936  23.172  43.961  11.389
24532W        W92937  27.621  18.982  11.905
24533W        W92938  14.078  22.787  13.573
24534W        W92939  44.934  25.949  14.971
24535W        W92940  33.991  37.718   3.233
24536W        W92941  35.363  28.629  12.874
24537W        W92942  32.467  15.433  10.512
24538W        W92943  19.757  11.458   3.324
24539W        W92944   3.001  30.083  14.851
24540W        W92945   2.349  19.806   0.457
24541W        W92946   9.585   0.521   5.075
24542W        W92947  17.333  35.888   9.561
24543W        W92948  15.740   1.672  11.036
24544W        W92949  21.311  35.831  12.146
24545W        W92950  17.286  27.435  12.023
24546W        W92951   8.233  24.446  11.963
24547W        W92952  33.595  23.164   0.335
24548W        W92953  30.000   2.238   0.855
24549W        W92954  11.849  20.379  10.680
24550W        W92955  31.436  11.801  12.418
24551W        W92956  21.098  18.859  13.932
24552W        W92957  18.147  42.472  11.642
24553W        W92958  21.639  42.174   2.890
24554W        W92959   8.631  39.978   4.851
24555W        W92960  33.137  11.419  14.411
24556W        W92961  32.168  13.037  11.654
24557W        W92962   9.301  30.694   0.244
24558W        W92963  12.819  38.773  13.881
24559W        W92964  11.109  12.771   0.355
24560W        W92965  39.277  15.138   2.272
24561W        W92966  32.197   7.487  11.113
24562W        W92967  34.580  22.209  12.019
24563W        W92968  36.386   5.391  11.863
24564W        W92969  17.418  31.746  12.121
24565W        W92970   3.872  32.578   4.467
24566W        W92971  18.270  33.863  10.736
24567W        W92972   8.249  42.263   3.079
24568W        W92973  34.539  38.751   4.420
24569W        W92974  16.300  13.928   1.410
24570W        W92975   9.603  10.237   5.310
24571W        W92976   1.872  23.776  14.996
24572W        W92977  30.783   8.784   1.212
24573W        W92978   8.260  20.065   0.737
24574W        W92979  39.483  10.584   0.910
24575W        W92980  39.348  37.243  11.071
24576W        W92981   9.800  12.703   4.935
24577W        W92982  31.160  20.725  13.771
24578W        W92983  13.061  22.937  14.351
24579W        W92984   6.206  21.508  14.439
24580W        W92985  18.751  11.606  13.073
24581W        W92986  18.844  25.513  11.935
24582W        W92987  23.518  12.265  14.795
24583W        W92988  41.920   6.803   0.527
24584W        W92989  43.454  38.551  14.496
24585W        W92990  20.017   0.918  13.761
24586W        W92991  44.825   7.099   4.586
24587W        W92992  27.551  28.211   3.739
24588W        W92993  15.694   2.976  12.454
24589W        W92994  10.057  25.003   2.191
24590W        W92995  34.020  27.439  14.740
24591W        W92996  38.329  25.563  12.662
24592W        W92997  29.895   9.908   0.834
24593W        W92998  15.386  21.582  10.508
24594W        W92999  10.370   3.914   0.376
24595W        W93000  26.013   7.893   3.319
24596W        W93001  43.003  10.790   4.707
24597W        W93002   9.398   7.711  10.733
24598W        W93003  39.809  33.831   1.809
24599W        W93004  32.255  35.187   2.243
24600W        W93005  31.217  38.099  12.155
24601W        W93006  28.270  31.019  12.171
24602W        W93007  34.684  39.352   1.900
24603W        W93008   4.044  16.826   3.025
24604W        W93009  19.990  34.908   1.009
24605W        W93010   3.016  38.908  14.980
24606W        W93011  36.507  40.444   3.139
24607W        W93012   5.840  24.479  13.551
24608W        W93013  31.795  22.188  10.794
24609W        W93014   1.268  30.461  14.844
24610W        W93015  25.668  20.783  12.906
24611W        W93016  40.086  41.382   5.151
24612W        W93017  11.329  19.843  13.957
24613W        W93018  10.218  37.001   4.523
24614W        W93019  40.323  12.573  13.550
24615W        W93020  12.790   1.210  14.904
24616W        W93021  21.227   9.735  14.014
24617W        W93022   0.058  32.632  10.732
24618W        W93023  37.455  16.211  10.657
24619W        W93024   6.761  26.627  13.320
24620W        W93025  38.341  22.685  14.409
24621W        W93026  37.043   1.009  14.767
24622W        W93027   2.231  43.425   2.254
24623W        W93028  41.081  17.618   2.421
24624W        W93029  25.140  23.770  11.587
24625W        W93030  40.794  40.361   2.677
24626W        W93031   3.231  16.333   0.471
24627W        W93032  13.908  29.169   0.204
24628W        W93033  35.997  34.921  13.542
24629W        W93034  20.539  39.586  13.061
24630W        W93035   0.477  13.680   4.129
24631W        W93036  21.975  18.219  13.078
24632W        W93037  44.431  43.430  12.886
24633W        W93038   3.282  19.375   2.840
24634W        W93039  27.320  23.208   2.757
24635W        W93040   0.791  15.653  13.128
24636W        W93041   8.827  14.083  10.109
24637W        W93042  36.580  21.294   3.232
24638W        W93043  26.677  15.523  14.022
24639W        W93044   1.816  25.733   3.093
24640W        W93045  37.018  22.803   2.067
24641W        W93046  36.715  23.885   3.156
24642W        W93047  42.028  12.707  13.849
24643W        W93048   8.674   2.290   2.636
24644W        W93049  23.739  32.841   2.842
24645W        W93050   3.431  13.858   3.269
24646W        W93051   4.612  28.418  11.087
24647W        W93052  34.400  16.697  14.275
24648W        W93053  29.427   3.677   3.676
24649W        W93054  11.305  16.629   1.012
24650W        W93055  44.396  41.016  13.501
24651W        W93056  26.312  31.838  11.011
24652W        W93057  34.323   8.820   3.342
24653W        W93058   1.404   6.908   1.698
24654W        W93059  18.036  10.056  14.806
24655W        W93060  20.004  39.389   1.865
24656W        W93061  40.737  28.664  13.899
24657W        W93062  29.226  28.974   3.335
24658W        W93063  19.564  32.176   3.628
24659W        W93064  12.888  41.777  10.602
24660W        W93065  22.322   1.850   1.811
24661W        W93066  30.898  31.685   2.587
24662W        W93067  22.802  40.919  14.073
24663W        W93068  13.311  33.354  10.619
24664W        W93069  13.546  31.985  11.475
24665W        W93070  13.905  16.951  12.317
24666W        W93071  28.705  35.125   0.423
24667W        W93072  36.047  26.620  14.857
24668W        W93073  21.634  14.817   2.248
24669W        W93074  44.232  44.968   1.195
24670W        W93075   6.479  43.940   3.447
24671W        W93076  37.080  17.247   2.755
24672W        W93077  10.910  23.606  14.954
24673W        W93078   4.812  13.058   2.376
24674W        W93079  38.886  14.180   1.798
24675W        W93080  23.623  25.511  11.571
24676W        W93081  33.489  26.716   5.018
24677W        W93082  36.081  32.486  13.311
24678W        W93083  24.457  39.209   0.480
24679W        W93084  30.845  12.572   2.367
24680W        W93085  22.272  14.212  11.155
24681W        W93086  42.868  30.780   4.993
24682W        W93087  43.055  38.886  11.146
24683W        W93088   9.632   6.701  13.466
24684W        W93089  26.068   7.642  13.092
24685W        W93090  17.125  37.457   0.449
24686W        W93091  36.298  32.007   0.999
24687W        W93092  18.114   5.731   2.611
24688W        W93093  28.084  23.003  11.644
24689W        W93094  30.522  34.913   4.125
24690W        W93095  30.396  20.324  13.560
24691W        W93096  35.101  21.623   3.105
24692W        W93097  41.907   0.667  11.339
24693W        W93098   8.727  25.425   4.130
24694W        W93099  13.995  35.876   0.728
24695W        W93100  16.091   4.724   2.215
24696W        W93101  40.287  11.704   2.340
24697W        W93102  23.063  23.090  14.327
24698W        W93103  10.379   0.248   0.217
24699W        W93104  28.077  31.663   0.894
24700W        W93105  39.854  42.534   4.764
24701W        W93106  32.475  31.133   0.979
24702W        W93107  15.748   1.328   4.990
24703W        W93108  29.219  38.888  13.014
24704W        W93109  23.012   3.344  10.648
24705W        W93110  27.896  30.848   4.107
24706W        W93111  25.925   0.730  11.112
24707W        W93112  39.114  30.577   1.401
24708W        W93113   5.730  39.991  12.776
24709W        W93114  24.995  27.585   4.288
24710W        W93115  42.426  15.896  11.177
24711W        W93116   4.670   3.208   4.200
24712W        W93117  42.410  43.039   0.297
24713W        W93118  15.742   1.694   2.621
24714W        W93119   3.933   7.346   3.189
24715W        W93120  27.195  39.788  12.608
24716W        W93121   7.784  20.540  11.090
24717W        W93122  34.576  22.737   0.811
24718W        W93123  31.823  20.070   3.967
24719W        W93124  17.056   4.809   4.107
24720W        W93125  16.220  41.067   4.136
24721W        W93126   3.218   8.863  10.700
24722W        W93127   0.188  40.496  10.749
24723W        W93128   5.382  21.716  13.273
24724W        W93129  44.715  16.351  12.459
24725W        W93130  36.410  21.612  12.501
24726W        W93131  31.779  43.979  13.554
24727W        W93132   5.292  29.070   4.392
24728W        W93133  37.943   8.300   1.648
24729W        W93134  43.687  14.074  11.216
24730W        W93135  27.077  44.321  14.420
24731W        W93136  43.052   0.770   1.923
24732W        W93137   5.587  31.725   0.807
24733W        W93138  12.782   3.349   4.502
24734W        W93139   2.457  34.818  10.724
24735W        W93140  26.829   1.756  12.982
24736W        W93141  28.348   9.616   1.159
24737W        W93142  31.578   7.041  14.020
24738W        W93143  34.872  15.070   2.478
24739W        W93144  39.906  21.996  12.098
24740W        W93145  40.982  38.239   2.153
24741W        W93146   1.881  15.688  13.916
24742W        W93147  40.511  37.180   2.724
24743W        W93148   6.475   1.051  11.042
24744W        W93149   2.751   4.734   1.287
24745W        W93150  34.380  31.559  11.566
24746W        W93151  12.625  11.630   1.922
24747W        W93152  36.960   0.637  13.836
24748W        W93153  22.975   7.288   0.325
24749W        W93154  21.416  33.127   1.351
24750W        W93155  19.120  27.724  14.335
24751W        W93156  23.610  29.458  12.043
24752W        W93157   4.116   4.679  13.429
24753W        W93158   3.227  27.544  12.693
24754W        W93159  30.721  25.052  11.307
24755W        W93160  17.584  30.116   2.452
24756W        W93161  23.159  14.054   2.162
24757W        W93162  21.816  22.791   4.588
24758W        W93163  16.201  42.418   4.554
24759W        W93164  42.514  24.842  13.490
24760W        W93165  40.469  23.954  10.582
24761W        W93166  12.570   3.201   4.066
24762W        W93167   7.941   8.964   2.369
24763W        W93168   0.131  29.086  11.113
24764W        W93169  18.037  20.992   9.701
24765W        W93170   0.859  11.406   3.481
24766W        W93171  12.761  32.937  12.897
24767W        W93172  16.710  20.129   3.352
24768W        W93173   5.020  25.961  13.792
24769W        W93174   9.413   8.659   3.232
24770W        W93175  18.654  16.862  11.427
24771W        W93176  25.580  25.460   0.671
24772W        W93177   7.610  41.273   2.058
24773W        W93178  39.396  11.293  10.928
24774W        W93179  29.055  44.438  13.509
24775W        W93180  14.273  43.082   2.281
24776W        W93181  27.743   8.327  13.069
24777W        W93182  15.108  18.002  13.039
24778W        W93183  28.098  43.978  14.922
24779W        W93184  26.553  32.343   3.715
24780W        W93185  17.523  27.750   1.501
24781W        W93186  25.400   6.343  10.054
24782W        W93187  14.416  42.865  11.009
24783W        W93188  31.584  26.802  11.490
24784W        W93189   2.922  19.139  11.679
24785W        W93190  15.927  10.211   5.032
24786W        W93191  40.836  41.611  10.670
24787W        W93192  31.533   9.862  13.292
24788W        W93193  33.707  30.349  14.677
24789W        W93194  21.577  17.123   0.785
24790W        W93195  11.869  33.112   1.768
24791W        W93196  40.431  42.349  10.661
24792W        W93197  23.636  39.058  13.857
24793W        W93198  31.800  30.973  12.986
24794W        W93199  28.486  37.528  13.841
24795W        W93200  20.048   5.753   0.604
24796W        W93201  22.563  38.286   0.460
24797W        W93202  11.842  29.894  14.098
24798W        W93203   6.767  32.486   1.382
24799W        W93204  33.885   8.113   4.473
24800W        W93205  22.280  12.654   0.728
24801W        W93206  40.656  19.219   3.644
24802W        W93207  30.622   5.014   4.698
24803W        W93208  37.574   2.205   2.153
24804W        W93209  16.709   6.477   1.039
24805W        W93210  28.149  21.325   1.850
24806W        W93211  38.927  16.719   2.972
24807W        W93212  21.159  32.687   2.637
24808W        W93213   0.187  12.292   1.900
24809W        W93214  30.171  40.278  12.993
24810W        W93215  44.557  36.945   0.394
24811W        W93216   6.411   0.223  14.292
24812W        W93217  12.368  26.435  11.488
24813W        W93218  21.781  29.736  10.705
24814W        W93219  22.418  13.600   2.157
24815W        W93220  19.561   6.810   1.426
24816W        W93221  27.342   1.472   2.813
24817W        W93222  40.563   3.978   0.217
24818W        W93223  10.281  10.862  12.862
24819W        W93224   9.434  18.665   4.056
24820W        W93225  30.018  36.381  13.559
24821W        W93226  13.884  42.534  14.067
24822W        W93227  15.788  23.193   9.809
24823W        W93228  25.100  41.728   3.031
24824W        W93229   3.314  36.554   2.789
24825W        W93230  44.453  12.896   1.196
24826W        W93231  35.274  42.794   1.391
24827W        W93232  27.111   3.768  13.939
24828W        W93233  16.842  17.863   1.328
24829W        W93234  37.864   7.455  13.404
24830W        W93235   6.125  32.522  13.336
24831W        W93236  27.419  24.880   2.569
24832W        W93237  42.450  31.050   1.279
24833W        W93238  44.527  10.685   3.881
24834W        W93239  32.638  20.124  11.953
24835W        W93240  11.754  28.445   4.694
24836W        W93241  33.858  39.993  12.331
24837W        W93242  23.772  23.177  13.845
24838W        W93243  17.487  40.684   2.437
24839W        W93244   2.697  29.347   4.645
24840W        W93245  16.190  12.169  11.650
24841W        W93246   1.329  12.639  12.486
24842W        W93247  35.743  10.179   3.543
24843W        W93248   0.901  15.450  11.365
24844W        W93249  20.655   4.201   1.257
24845W        W93250  40.404   5.160   2.235
24846W        W93251  18.117  44.433   3.783
24847W        W93252   6.823   9.882   0.535
24848W        W93253  15.267  18.703   1.327
24849W        W93254  42.031  27.664   1.418
24850W        W93255  16.545  16.084  13.428
24851W        W93256   3.428  35.365   3.794
24852W        W93257  24.199  11.100   2.269
24853W        W93258   2.368  38.434   4.351
24854W        W93259  16.873  11.570   9.811
24855W        W93260  21.294  26.481   0.483
24856W        W93261  23.091  24.911   0.851
24857W        W93262  22.554  41.092   1.210
24858W        W93263  41.200  26.752  12.091
24859W        W93264   9.653  25.237  11.809
24860W        W93265  41.192  20.682  11.696
24861W        W93266  17.669  30.538  13.559
24862W        W93267   7.036  41.327   4.355
24863W        W93268   6.234   1.847   0.083
24864W        W93269   4.773   4.960   3.769
24865W        W93270  20.155  17.385  12.439
24866W        W93271  26.946  27.580   3.193
24867W        W93272  32.341  41.787  11.933
24868W        W93273   9.598   4.004  11.147
24869W        W93274  35.636  40.398   3.109
24870W        W93275  10.182  44.779  13.405
24871W        W93276  17.110   6.281  10.838
24872W        W93277  32.912  42.390  14.066
24873W        W93278  44.886   4.312   2.741
24874W        W93279  14.197  14.810  12.390
24875W        W93280  10.123  19.089  11.753
24876W        W93281   3.512   5.888   1.755
24877W        W93282  27.990  16.209  12.798
24878W        W93283   2.306  27.441   1.192
24879W        W93284  26.558   2.653   4.278
24880W        W93285   8.420  10.239   3.854
24881W        W93286  37.778  42.371  10.832
24882W        W93287  40.348  40.521  12.940
24883W        W93288  31.645  24.747   1.229
24884W        W93289  16.117  26.152  13.193
24885W        W93290  23.010  13.631  13.537
24886W        W93291  38.488  13.665   3.987
24887W        W93292  33.337  43.477  12.095
24888W        W93293   0.146  43.827   3.862
24889W        W93294  16.081   3.532  11.474
24890W        W93295  35.965   5.901   0.391
24891W        W93296  18.744   3.907  12.386
24892W        W93297  38.111  31.691   1.278
24893W        W93298  30.905  36.621   4.857
24894W        W93299  17.608  36.417  14.594
24895W        W93300  27.462  33.932  14.001
24896W        W93301  16.828  37.699   2.817
24897W        W93302  19.544  15.529   2.856
24898W        W93303   2.495  26.786   3.184
24899W        W93304  29.655  19.619  14.038
24900W        W93305  12.928   0.000   3.256
24901W        W93306  24.763  11.251  11.788
24902W        W93307  14.988  40.345  14.132
24903W        W93308  10.717  42.996   4.710
24904W        W93309   5.382  15.455   0.930
24905W        W93310  42.065  31.952   3.209
24906W        W93311  40.358   1.907   2.171
24907W        W93312  25.272  33.113   3.627
24908W        W93313  42.405  20.263  14.080
24909W        W93314   4.203  24.116  13.779
24910W        W93315   4.131  40.071  14.374
24911W        W93316  28.062  39.521   2.803
24912W        W93317  36.222   9.895  10.543
24913W        W93318  33.553  15.851   0.801
24914W        W93319  38.949  38.958  12.009
24915W        W93320  20.192  23.259  14.888
24916W        W93321  32.764   2.627   4.681
24917W        W93322  30.325  35.330  10.883
24918W        W93323  29.964  23.461   2.801
24919W        W93324   5.307  40.205  14.096
24920W        W93325  28.998  32.933  11.535
24921W        W93326  32.624   7.468   4.186
24922W        W93327  41.812   4.959   1.152
24923W        W93328  17.669  16.954   1.487
24924W        W93329   5.621  22.545   2.453
24925W        W93330   3.120  10.093   3.291
24926W        W93331  11.313  35.288   3.270
24927W        W93332  36.575  22.987  12.563
24928W        W93333   2.346  21.277  13.086
24929W        W93334  44.606   8.323   3.755
24930W        W93335  23.548  35.382   3.726
24931W        W93336  27.506  38.576  13.831
24932W        W93337  17.624  11.841  14.482
24933W        W93338  18.874  10.867   4.572
24934W        W93339  15.017  40.956  13.976
24935W        W93340  33.417  19.385  11.538
24936W        W93341   8.005  31.663  10.568
24937W        W93342   8.303  33.474  12.914
24938W        W93343  43.005   4.342   4.278
24939W        W93344  21.156  28.578   1.694
24940W        W93345  22.694  14.559  11.176
24941W        W93346   8.457  43.762  12.436
24942W        W93347  32.253  41.879   3.631
24943W        W93348  22.105  11.607  13.561
24944W        W93349   7.700   8.796   0.961
24945W        W93350  17.217   5.751   5.082
24946W        W93351  43.002  34.035  14.006
24947W        W93352  40.047  42.494  14.858
24948W        W93353  37.424   2.729  13.279
24949W        W93354  18.016  37.895   3.848
24950W        W93355  21.807  30.036   3.588
24951W        W93356   9.401  26.171   2.563
24952W        W93357  31.481  26.070   1.028
24953W        W93358  20.769  38.414   1.203
24954W        W93359  34.301  41.011   1.800
24955W        W93360  43.826  33.917   0.896
24956W        W93361  20.700  18.958   1.826
24957W        W93362   5.398  23.214   4.119
24958W        W93363  24.782  17.637  11.947
24959W        W93364  36.040  30.147   3.183
24960W        W93365  21.216   7.331  13.864
24961W        W93366  38.330  39.711   1.567
24962W        W93367  43.954  10.232  13.355
24963W        W93368  31.276   4.873   1.765
24964W        W93369  16.608   0.806   1.747
24965W        W93370  29.129  36.625  11.959
24966W        W93371  10.280   0.225   5.877
24967W        W93372  28.933   5.338   3.907
24968W        W93373   8.354  42.478   4.099
24969W        W93374  39.421  28.939  13.044
24970W        W93375  13.274  42.040  14.365
24971W        W93376   4.428  32.285  10.695
24972W        W93377  15.060  36.686  11.155
24973W        W93378  17.923  24.087  13.744
24974W        W93379  26.600  15.782   3.130
24975W        W93380  41.317   7.716  12.167
24976W        W93381  27.059   4.729   1.114
24977W        W93382  40.796  13.640   3.737
24978W        W93383  40.999  14.039  12.910
24979W        W93384  19.997  31.546  13.028
24980W        W93385  28.213  38.959   4.624
24981W        W93386  13.820   1.864   0.460
24982W        W93387  28.671  26.398   2.777
24983W        W93388  20.546   1.260  11.036
24984W        W93389   1.831  10.322  10.730
24985W        W93390  41.540  22.603  10.890
24986W        W93391  30.698   7.446  14.373
24987W        W93392  15.530  23.260   2.372
24988W        W93393  27.953  34.617  10.147
24989W        W93394  44.653  22.887  14.624
24990W        W93395  22.685  36.584  14.853
24991W        W93396   3.460  33.915  12.940
24992W        W93397  31.052  43.501   4.060
24993W        W93398   6.612  41.441  11.124
24994W        W93399  22.886  23.219  10.709
24995W        W93400  33.042  31.247   4.607
24996W        W93401  30.394  11.763  12.918
24997W        W93402  16.636  44.751   3.606
24998W        W93403   4.277  15.769   4.262
24999W        W93404   6.874  37.911  14.481
25000W        W93405  39.544  13.693  13.429
25001W        W93406  19.064  13.178   1.340
25002W        W93407  29.445   4.701  14.305
25003W        W93408  13.123  35.276  10.419
25004W        W93409  19.844  22.456   4.096
25005W        W93410  38.612  17.209   3.074
25006W        W93411   4.452   8.294  14.979
25007W        W93412   8.887  11.697  10.693
25008W        W93413  34.442   9.856   0.545
25009W        W93414  32.837  17.076   1.919
25010W        W93415  20.748  40.259   2.599
25011W        W93416   7.235  33.962  10.762
25012W        W93417   9.325   3.763   0.789
25013W        W93418  20.868  14.121   3.439
25014W        W93419  44.225   2.364  11.553
25015W        W93420  36.782  19.838   0.726
25016W        W93421  39.855   8.759   2.168
25017W        W93422  43.904  43.490  13.801
25018W        W93423   2.530  26.230  13.589
25019W        W93424   5.358  33.192  14.949
25020W        W93425   8.786   8.383  13.568
25021W        W93426  19.260  38.742  12.621
25022W        W93427  20.313  33.621   0.918
25023W        W93428  16.252  33.889  13.871
25024W        W93429  11.680  31.670  14.341
25025W        W93430   6.255  15.739   1.434
25026W        W93431  11.575  24.042   3.603
25027W        W93432   5.800  44.943   3.697
25028W        W93433  22.183  41.579   3.261
25029W        W93434  18.149  15.761   2.288
25030W        W93435  41.294  18.086   3.861
25031W        W93436  31.404  16.371  11.155
25032W        W93437   5.137  38.426   1.140
25033W        W93438   8.163  35.492   3.353
25034W        W93439   7.870  11.243  12.327
25035W        W93440  21.627  37.127  14.787
25036W        W93441  18.685  31.048   1.966
25037W        W93442  36.392  15.360   0.394
25038W        W93443   9.663   3.447  14.950
25039W        W93444  44.384  41.699  14.401
25040W        W93445  26.893  38.123  14.991
25041W        W93446  23.667   8.474   2.790
25042W        W93447  30.374  14.419  12.989
25043W        W93448  43.262  31.876   3.413
25044W        W93449   9.348   3.450   2.804
25045W        W93450  37.985  15.162  14.809
25046W        W93451  32.850  44.006   1.405
25047W        W93452  21.300  12.442   4.628
25048W        W93453  22.823  21.927  12.005
25049W        W93454  30.741  14.321   0.040
25050W        W93455   1.798  31.016  13.314
25051W        W93456  20.982  33.176  13.022
25052W        W93457  37.426  34.070   4.643
25053W        W93458  19.290  24.457   0.981
25054W        W93459   9.108  10.810   4.112
25055W        W93460  13.371  44.971  14.294
25056W        W93461  19.498  16.255  14.478
25057W        W93462  37.303  23.738   3.783
25058W        W93463  19.178  18.042  12.919
25059W        W93464  41.572  39.693  13.369
25060W        W93465  37.338   7.465  13.396
25061W        W93466  13.486  35.986   0.668
25062W        W93467  44.896  31.580  11.939
25063W        W93468   9.962   5.666  14.466
25064W        W93469  28.042  16.013   4.492
25065W        W93470  10.379  20.021   1.064
25066W        W93471  31.954  18.128  12.000
25067W        W93472  12.063  12.845  12.453
25068W        W93473  33.920  35.411  13.334
25069W        W93474   0.974  33.478   3.007
25070W        W93475  33.167   3.453  14.486
25071W        W93476   4.671  30.864   5.183
25072W        W93477  10.693   2.832  13.801
25073W        W93478  19.631  23.742   1.071
25074W        W93479   9.626  33.000   4.224
25075W        W93480  43.052  40.408   0.862
25076W        W93481  27.626   4.671   1.935
25077W        W93482   6.437  20.664  10.753
25078W        W93483  12.878  29.154  14.520
25079W        W93484  33.392  26.896   4.519
25080W        W93485  37.070  13.333  14.827
25081W        W93486  34.925   4.474   0.742
25082W        W93487  36.609  44.846  13.105
25083W        W93488  26.537  16.899  10.624
25084W        W93489  11.385  40.251   2.339
25085W        W93490  24.916  35.672  14.888
25086W        W93491  32.104  30.733   1.746
25087W        W93492   4.468  16.815   1.298
25088W        W93493  42.692  24.001  12.620
25089W        W93494  26.185  41.155   1.075
25090W        W93495  40.834  20.236   1.359
25091W        W93496  35.072  24.248   1.165
25092W        W93497  29.063  18.359   4.746
25093W        W93498  29.524  16.010   2.984
25094W        W93499  39.141  25.712  13.985
25095W        W93500  10.453  34.722   2.137
25096W        W93501  38.764   0.847   1.428
25097W        W93502  18.221  44.755   4.239
25098W        W93503  18.627  30.148  10.814
25099W        W93504  39.246  42.952   3.967
25100W        W93505  13.696  29.754  13.497
25101W        W93506  23.265   2.033   1.626
25102W        W93507  43.910  42.861   1.151
25103W        W93508  39.948  19.703   5.037
25104W        W93509  32.000   8.674  12.884
25105W        W93510  43.286  42.279   2.842
25106W        W93511  38.499  38.889  12.672
25107W        W93512   9.821  43.427   3.782
25108W        W93513   0.306  32.855  12.578
25109W        W93514  25.912  21.133   2.805
25110W        W93515  21.253  30.850  11.582
25111W        W93516   4.942  29.039   1.762
25112W        W93517  18.829  41.724  11.113
25113W        W93518  10.650  40.607  11.120
25114W        W93519  27.182   8.415   1.688
25115W        W93520   4.921  19.215  10.364
25116W        W93521  24.927  19.680   4.740
25117W        W93522  16.547   6.407  12.057
25118W        W93523  31.156  21.315   1.785
25119W        W93524  26.624   3.899  10.408
25120W        W93525  43.922  39.785  10.709
25121W        W93526   4.897  29.134   2.756
25122W        W93527  11.024  13.819   1.839
25123W        W93528  15.303  16.071  14.044
25124W        W93529   8.663  35.606   2.606
25125W        W93530   5.416  44.388   3.250
25126W        W93531  36.056  40.705   3.271
25127W        W93532  14.582  28.150  11.646
25128W        W93533   6.925  19.723   0.805
25129W        W93534  32.960  19.076   4.657
25130W        W93535  31.000  38.883  10.238
25131W        W93536  21.659  25.644   1.258
25132W        W93537  10.198  19.836   4.495
25133W        W93538  34.022  22.984  14.767
25134W        W93539  27.093  34.886  14.448
25135W        W93540  18.065  34.999  13.012
25136W        W93541  11.867  22.183   4.492
25137W        W93542  23.440  21.523  13.094
25138W        W93543   4.384   3.035   3.331
25139W        W93544   8.199  43.719   3.258
25140W        W93545   6.851  35.116  12.994
25141W        W93546  21.458   9.614  12.390
25142W        W93547   6.176  19.673  12.099
25143W        W93548   3.432   5.810   0.842
25144W        W93549  27.047  38.915  12.620
25145W        W93550  16.758  28.699   2.388
25146W        W93551  30.653  27.020  11.952
25147W        W93552  18.751   1.321  10.670
25148W        W93553  37.979  32.412  13.828
25149W        W93554  37.881  18.572  11.507
25150W        W93555   1.454  10.445  14.873
25151W        W93556  43.060  27.087   0.395
25152W        W93557  27.892  27.118   2.806
25153W        W93558  38.047   8.988   0.080
25154W        W93559  41.069  40.424   3.100
25155W        W93560  10.953  36.303  14.285
25156W        W93561  36.339   1.406   3.733
25157W        W93562  26.943  42.883   1.147
25158W        W93563  27.899  17.428   2.259
25159W        W93564  44.939  13.600  13.849
25160W        W93565  10.634  15.262  14.451
25161W        W93566  36.046   2.797  12.962
25162W        W93567  23.996  39.009  14.329
25163W        W93568  26.014  42.892  13.490
25164W        W93569   0.945  18.277   1.797
25165W        W93570   0.852  10.435   4.955
25166W        W93571  28.976  14.365   0.296
25167W        W93572   9.806  25.732  11.074
25168W        W93573  10.218  26.530   3.870
25169W        W93574  15.273  20.497  10.985
25170W        W93575  25.051  16.488  13.346
25171W        W93576  21.668  38.413   0.013
25172W        W93577  20.316  26.873   2.854
25173W        W93578  35.881  37.196  11.100
25174W        W93579  37.656  38.027  10.660
25175W        W93580   8.583   9.491  11.996
25176W        W93581  23.530  38.070  14.787
25177W        W93582  21.990  25.094   2.892
25178W        W93583  29.166  15.234  12.566
25179W        W93584  41.396  40.502  12.042
25180W        W93585   9.804  30.692   5.507
25181W        W93586   5.612   7.380  13.548
25182W        W93587   8.653  31.925   2.080
25183W        W93588  22.717  43.408  14.089
25184W        W93589  38.967  22.568   0.111
25185W        W93590  18.989  23.663  13.535
25186W        W93591  30.111  38.517   4.507
25187W        W93592  42.483   8.055   3.255
25188W        W93593  36.414   3.260  11.948
25189W        W93594   1.223  22.459   0.860
25190W        W93595  17.107   8.855   2.622
25191W        W93596  42.116  26.508  12.458
25192W        W93597  38.095  19.665   1.393
25193W        W93598   2.434  29.106  10.714
25194W        W93599  37.888  38.989   9.808
25195W        W93600  42.313  33.563  12.601
25196W        W93601  15.413  17.577   1.458
25197W        W93602   2.308  33.403  11.606
25198W        W93603  34.618  33.535   2.173
25199W        W93604  37.482  33.414   1.878
25200W        W93605  17.722   7.948  12.026
25201W        W93606   6.277  28.003  12.109
25202W        W93607  29.482  24.122  14.189
25203W        W93608  13.287  40.105   1.405
25204W        W93609  24.556  30.917  13.976
25205W        W93610  26.479  31.912   1.612
25206W        W93611  37.343   3.504  12.897
25207W        W93612  10.095  19.596  11.231
25208W        W93613  34.685  34.357   3.692
25209W        W93614  41.003  22.639   0.372
25210W        W93615  33.177   2.129  13.549
25211W        W93616  10.886  20.673   3.937
25212W        W93617  18.277   6.724  12.448
25213W        W93618  22.577   2.623   0.780
25214W        W93619  20.457  41.667  12.487
25215W        W93620  23.049  14.216   0.725
25216W        W93621   4.425   4.161  12.412
25217W        W93622  42.985   1.535  13.856
25218W        W93623  21.247  36.346   1.418
25219W        W93624  15.682  38.583   0.827
25220W        W93625  20.713   6.778  14.383
25221W        W93626  39.257  14.558  14.808
25222W        W93627  13.226   6.371  14.196
25223W        W93628  15.621  11.886  12.076
25224W        W93629  10.904   0.461   2.400
25225W        W93630  13.827  21.488   1.372
25226W        W93631  44.967  29.697   1.456
25227W        W93632  39.817  44.059  11.144
25228W        W93633  40.827   6.714  11.572
25229W        W93634  36.090  42.070  14.837
25230W        W93635  32.468  44.315  10.422
25231W        W93636   2.956  15.123   1.802
25232W        W93637  30.086  22.972   2.366
25233W        W93638   5.845  40.825   4.364
25234W        W93639  37.998  19.203   0.732
25235W        W93640  36.796  13.062   4.569
25236W        W93641  11.258  14.609   3.353
25237W        W93642   1.462  12.226   2.426
25238W        W93643   3.138  10.336  13.655
25239W        W93644  11.076   2.697  10.171
25240W        W93645   7.364   7.866  12.104
25241W        W93646  30.733  18.979  11.292
25242W        W93647  18.542  19.073  12.619
25243W        W93648  15.861  20.487   1.382
25244W        W93649  15.275  18.172   1.349
25245W        W93650  39.496   9.627   1.689
25246W        W93651  36.095  29.113   3.205
25247W        W93652   1.494   2.892  13.400
25248W        W93653  28.457  11.171  11.510
25249W        W93654  11.111   6.253  14.940
25250W        W93655  26.731  10.616  12.937
25251W        W93656   6.332  34.197   2.079
25252W        W93657   6.003  30.163   3.686
25253W        W93658  36.272  34.817   4.413
25254W        W93659  44.641  26.068  14.526
25255W        W93660   7.238  29.907  14.924
25256W        W93661   4.411   0.500  14.997
25257W        W93662  27.649  18.522  11.667
25258W        W93663  30.940  29.159   4.126
25259W        W93664  43.460   0.909  13.101
25260W        W93665  33.928   1.020   3.705
25261W        W93666  39.350  13.943  13.002
25262W        W93667   9.741  28.940   2.381
25263W        W93668  15.415  26.517   4.181
25264W        W93669   5.401  29.722  10.990
25265W        W93670   7.320  31.242  14.723
25266W        W93671  25.170  30.440   1.790
25267W        W93672   6.945  21.756   3.331
25268W        W93673  31.758  16.777   0.808
25269W        W93674   0.372  19.596   0.956
25270W        W93675  23.723   8.211   3.751
25271W        W93676  32.169  43.934   0.285
25272W        W93677  35.086  21.242   4.588
25273W        W93678  24.589  43.516  11.933
25274W        W93679   3.962  12.736   1.803
25275W        W93680  21.734  35.041  14.761
25276W        W93681   9.407  25.605   0.417
25277W        W93682  16.697  17.396   5.072
25278W        W93683  30.441  44.712   3.162
25279W        W93684   4.711  26.978   0.919
25280W        W93685  20.677  35.381   4.155
25281W        W93686  34.338  11.662   3.691
25282W        W93687  17.889  10.891   0.483
25283W        W93688  15.844  16.189   1.421
25284W        W93689  25.676   0.478   0.399
25285W        W93690  29.033  23.277   0.295
25286W        W93691  35.854  41.380  13.978
25287W        W93692  41.081   1.030   2.709
25288W        W93693  35.084   6.177  12.156
25289W        W93694  27.454   7.738   2.647
25290W        W93695   3.933  42.022  11.078
25291W        W93696  12.338  25.484   3.655
25292W        W93697  11.277  31.283  11.571
25293W        W93698  43.850  19.097  14.324
25294W        W93699  30.593  22.075   4.725
25295W        W93700  40.686   1.913   2.600
25296W        W93701  30.434   5.649   0.908
25297W        W93702  17.449  30.957  12.363
25298W        W93703   4.188  42.651   4.507
25299W        W93704  33.571  25.041  14.998
25300W        W93705  16.279   5.990  13.115
25301W        W93706  27.427   5.138   1.854
25302W        W93707  38.929   7.719  14.738
25303W        W93708  41.477   0.917  14.564
25304W        W93709  34.287  16.056   2.577
25305W        W93710  44.383  29.951  12.611
25306W        W93711  17.535  22.839   0.615
25307W        W93712  37.489   0.562   2.838
25308W        W93713  20.651  14.179   3.904
25309W        W93714  11.792   9.317  12.420
25310W        W93715  40.594   5.339  10.637
25311W        W93716   2.676  13.720  13.989
25312W        W93717  37.878  29.643   3.177
25313W        W93718  35.114  32.763  13.794
25314W        W93719  36.843  43.977   0.238
25315W        W93720   0.812  11.368   2.973
25316W        W93721  26.506  14.514   0.454
25317W        W93722  17.474  33.540   4.119
25318W        W93723  25.602  40.739   0.904
25319W        W93724  32.234   5.709   5.197
25320W        W93725  29.512  16.257   3.426
25321W        W93726  23.826  32.122  12.997
25322W        W93727  23.797  14.318  10.403
25323W        W93728  32.859  28.427   0.243
25324W        W93729  19.834  24.031  14.446
25325W        W93730   2.145  27.591   2.633
25326W        W93731  44.371  14.766  13.967
25327W        W93732  11.432  12.619  14.947
25328W        W93733  23.746   7.401   4.211
25329W        W93734  41.406  16.325   0.876
25330W        W93735   5.249  25.288   4.784
25331W        W93736  36.378  17.968   4.711
25332W        W93737  20.723  16.693   2.154
25333W        W93738  35.772  43.955   3.785
25334W        W93739   5.830  38.013   3.200
25335W        W93740  17.840   3.864   1.298
25336W        W93741  11.158  41.755   0.779
25337W        W93742  40.261  17.922  13.390
25338W        W93743   5.448  40.988   1.485
25339W        W93744  15.472  40.272  11.117
25340W        W93745   7.184  31.605  12.751
25341W        W93746  28.655  31.628   1.403
25342W        W93747  15.799  40.340   2.161
25343W        W93748  17.325   5.483   2.152
25344W        W93749  35.184  18.101  14.321
25345W        W93750  24.161   6.314   5.077
25346W        W93751  29.523   9.991   1.782
25347W        W93752  33.214  35.934  12.187
25348W        W93753  21.461   7.834  10.944
25349W        W93754   6.387  29.336  13.881
25350W        W93755   7.129  31.518  10.858
25351W        W93756  28.547   3.317  11.463
25352W        W93757  39.538  24.989  12.144
25353W        W93758  30.551   3.469   4.720
25354W        W93759  32.839  28.352   3.735
25355W        W93760  21.508  39.172   2.408
25356W        W93761  21.926   3.806  14.962
25357W        W93762   3.108  43.365   2.381
25358W        W93763  39.974  31.061  13.749
25359W        W93764  15.799  37.669  13.346
25360W        W93765  35.110  15.511   3.969
25361W        W93766  10.145  17.818  14.419
25362W        W93767  17.829  18.578  14.325
25363W        W93768  37.467  19.335   0.811
25364W        W93769  24.581  13.830  11.643
25365W        W93770  11.018  36.438   4.243
25366W        W93771  22.118  42.927   4.739
25367W        W93772  25.293  34.871   2.237
25368W        W93773  38.352  19.589  10.282
25369W        W93774  41.004  25.175  11.463
25370W        W93775  12.115  40.515  11.582
25371W        W93776  24.203   1.408   2.802
25372W        W93777  12.992  27.697  12.509
25373W        W93778  15.488  40.706   0.278
25374W        W93779  32.958  28.976  12.996
25375W        W93780   6.920  15.998  13.443
25376W        W93781  42.532  14.086  10.760
25377W        W93782  11.397  13.718  12.120
25378W        W93783  18.504  34.022   4.590
25379W        W93784   8.694  32.144  10.332
25380W        W93785  44.564  12.390  12.114
25381W        W93786  28.181   1.270   2.753
25382W        W93787  14.602   9.612  13.969
25383W        W93788  29.320   1.823  12.421
25384W        W93789  16.145   1.720   4.823
25385W        W93790  10.847   5.891   0.263
25386W        W93791  19.708  15.753   2.424
25387W        W93792  16.161  20.647  10.970
25388W        W93793  39.815  13.084  12.099
25389W        W93794  24.812  29.478   3.318
25390W        W93795  27.172  44.104  10.389
25391W        W93796   9.402  41.551   4.121
25392W        W93797  33.346  12.293   0.061
25393W        W93798  43.269  20.114   3.666
25394W        W93799  31.025  41.892   3.331
25395W        W93800  43.866  17.246   3.032
25396W        W93801   0.397  41.594   1.497
25397W        W93802  10.139  34.896   0.792
25398W        W93803   5.862  40.760  12.435
25399W        W93804  28.922  21.289   0.728
25400W        W93805  16.614   8.227   0.913
25401W        W93806   9.849  27.503  11.828
25402W        W93807  24.969   1.499   2.449
25403W        W93808  38.348  13.257  13.442
25404W        W93809  17.404   0.726   0.459
25405W        W93810  11.396  14.064   4.208
25406W        W93811  20.775  38.423   3.356
25407W        W93812  25.742  18.996  12.948
25408W        W93813  40.928  16.531   1.761
25409W        W93814  31.886   8.758   2.211
25410W        W93815  20.305  40.500   2.434
25411W        W93816  11.277  14.074   2.426
25412W        W93817  17.671  39.919  11.314
25413W        W93818   6.722  27.189   1.334
25414W        W93819  44.493  36.569   1.241
25415W        W93820  37.794   8.836   3.707
25416W        W93821  32.979  13.892  11.968
25417W        W93822  36.035  18.119   2.765
25418W        W93823  44.928  25.211   2.880
25419W        W93824  41.879  28.098  12.445
25420W        W93825  19.296  40.182   4.487
25421W        W93826  38.305  30.263   4.190
25422W        W93827  14.865  32.118  10.785
25423W        W93828  17.189  34.424  13.114
25424W        W93829  22.341  42.330  12.069
25425W        W93830  25.053  34.495   2.898
25426W        W93831  40.273  20.786   4.103
25427W        W93832  31.608   1.036  14.920
25428W        W93833   4.030  33.864  13.940
25429W        W93834   0.434  16.025   1.231
25430W        W93835  16.532  38.387  14.825
25431W        W93836   1.870   9.061  12.998
25432W        W93837   8.396  35.687   4.265
25433W        W93838  43.402  25.602  10.940
25434W        W93839  25.582  11.779   3.257
25435W        W93840  29.704  32.692   3.744
25436W        W93841  34.844  42.566  11.127
25437W        W93842  18.640  16.703   0.067
25438W        W93843  35.097  34.573  11.269
25439W        W93844  16.917  36.567  12.079
25440W        W93845   4.220  17.847  11.545
25441W        W93846   6.517  12.247  13.846
25442W        W93847   7.601   3.974   2.212
25443W        W93848   7.705  38.406  14.699
25444W        W93849  42.921   4.702   4.655
25445W        W93850  34.399  19.100   1.451
25446W        W93851  22.691  13.649   4.373
25447W        W93852  15.590   6.888   5.170
25448W        W93853  18.029  12.091  11.565
25449W        W93854  36.687  22.068  11.540
25450W        W93855   9.357  34.720   3.011
25451W        W93856  39.516  26.962   3.227
25452W        W93857  37.217  28.631  11.868
25453W        W93858  12.854  20.987  11.041
25454W        W93859  44.404  21.079   2.301
25455W        W93860  25.728  29.254   0.446
25456W        W93861  42.276  20.754   3.250
25457W        W93862  14.315  10.184   3.336
25458W        W93863  36.326  43.914   0.312
25459W        W93864   3.469  20.087  14.053
25460W        W93865  28.389  16.163   0.736
25461W        W93866   2.123  26.382  12.289
25462W        W93867  44.906  39.532  12.017
25463W        W93868  36.285  31.023   0.941
25464W        W93869  10.647  33.057   4.677
25465W        W93870  11.220  37.852  11.677
25466W        W93871  19.843   1.890  11.807
25467W        W93872  28.780  41.435   4.372
25468W        W93873  24.129  16.693  10.636
25469W        W93874  33.102  21.131   0.291
25470W        W93875  42.708  13.222   2.868
25471W        W93876   2.447  13.806  13.506
25472W        W93877  11.675  21.256   2.652
25473W        W93878   6.761  31.628  11.931
25474W        W93879  25.520  18.641  14.759
25475W        W93880   4.133  19.155   2.938
25476W        W93881   8.245  37.287   1.804
25477W        W93882   4.126  10.591  10.840
25478W        W93883  43.867   2.513   2.750
25479W        W93884  24.711   6.507   2.201
25480W        W93885  35.324  10.454  10.713
25481W        W93886  40.625   8.367   0.375
25482W        W93887  22.776  37.216  10.706
25483W        W93888  34.959   6.401  13.948
25484W        W93889  43.619  13.772  12.941
25485W        W93890  22.001   4.689   1.336
25486W        W93891   9.341  23.463  12.089
25487W        W93892  12.137  42.200  12.162
25488W        W93893  25.261  37.321   2.210
25489W        W93894  22.737  10.239   0.012
25490W        W93895  15.106   8.459  11.206
25491W        W93896  33.715   4.326   1.441
25492W        W93897  25.635  28.027   3.434
25493W        W93898  41.263  27.526  10.850
25494W        W93899  37.926  26.945  10.613
25495W        W93900  38.060  36.353   0.826
25496W        W93901  25.793   1.212   2.813
25497W        W93902  34.270  12.559   3.139
25498W        W93903   1.434   6.412  12.083
25499W        W93904  17.579   9.417  10.630
25500W        W93905  28.620  31.102   2.570
25501W        W93906  20.560  11.582  11.461
25502W        W93907  39.109  25.260  12.842
25503W        W93908  10.707  14.859  14.796
25504W        W93909  38.439   9.364   3.109
25505W        W93910  39.809  35.511   4.023
25506W        W93911  36.764   3.813   2.816
25507W        W93912  40.540  30.902  11.049
25508W        W93913  35.896  11.552   0.533
25509W        W93914  43.325  34.781  11.137
25510W        W93915  40.797  33.537   4.326
25511W        W93916  38.288  35.806   1.764
25512W        W93917  13.094  19.541   0.422
25513W        W93918   8.826  29.190  11.965
25514W        W93919  42.785   8.341   2.388
25515W        W93920  17.579  33.037   2.272
25516W        W93921  18.741  22.291   3.913
25517W        W93922  32.060  34.415  13.867
25518W        W93923  22.934  14.055   4.600
25519W        W93924  10.707  43.340  13.823
25520W        W93925  23.051  28.943  11.586
25521W        W93926  31.432  32.855   4.868
25522W        W93927  11.632  13.728   0.707
25523W        W93928  19.264  31.397   3.136
25524W        W93929  25.591  29.877  11.166
25525W        W93930  43.907   1.936  11.560
25526W        W93931  25.559  43.072  14.422
25527W        W93932  31.621  32.301  11.143
25528W        W93933  30.672  28.397  14.798
25529W        W93934  11.541  14.619   9.965
25530W        W93935  41.985  12.256  13.579
25531W        W93936  39.925   7.453   3.174
25532W        W93937  32.569  34.647  14.040
25533W        W93938  28.916  41.004   0.671
25534W        W93939  10.269   6.790   3.135
25535W        W93940  33.499  16.629   0.342
25536W        W93941  40.049  24.812  13.500
25537W        W93942  42.322  34.818   2.501
25538W        W93943   3.772  19.075  12.958
25539W        W93944  25.646  12.188  12.134
25540W        W93945   8.841  28.484  14.372
25541W        W93946  18.272  25.956  12.106
25542W        W93947   5.169   3.803   2.212
25543W        W93948  31.774  22.717  11.602
25544W        W93949   4.801   5.017   1.993
25545W        W93950   7.619  38.358  11.245
25546W        W93951  40.965  14.356   3.730
25547W        W93952  16.459   1.289   1.605
25548W        W93953  37.087  31.651   3.780
25549W        W93954  36.960  43.283   4.029
25550W        W93955   9.084  17.786   3.548
25551W        W93956  15.780  44.430  13.644
25552W        W93957  15.868   2.707  11.569
25553W        W93958  17.690   5.318  14.049
25554W        W93959  12.692  37.766   4.457
25555W        W93960  21.542  25.381   0.158
25556W        W93961   2.393  30.219   3.931
25557W        W93962  33.629  43.803   4.309
25558W        W93963   6.681  43.333  12.475
25559W        W93964  15.567  25.531  14.260
25560W        W93965  15.595  10.510  14.320
25561W        W93966  40.494  18.168  11.980
25562W        W93967   8.479  33.961   1.828
25563W        W93968   9.847  44.167  10.633
25564W        W93969   7.757   0.972  14.467
25565W        W93970  32.821  33.058  14.771
25566W        W93971  26.676  20.705  12.968
25567W        W93972  27.353  27.007   1.683
25568W        W93973   4.417  11.440  12.128
25569W        W93974  14.294  28.050   3.298
25570W        W93975  16.815  37.668   3.677
25571W        W93976  41.496   0.430  10.696
25572W        W93977   4.235   4.832   2.174
25573W        W93978   2.926   7.185   0.579
25574W        W93979  38.396  20.526   4.420
25575W        W93980  19.536  15.365  14.396
25576W        W93981  32.211   8.195  13.521
25577W        W93982  11.911  42.274   0.256
25578W        W93983  44.025   3.691  12.026
25579W        W93984  22.259   4.914  12.407
25580W        W93985  13.660  27.041   2.412
25581W        W93986  14.018  39.348  14.570
25582W        W93987  29.593   7.180   0.432
25583W        W93988  44.239  28.026   1.824
25584W        W93989   4.030  41.324  12.038
25585W        W93990   2.108  34.016   4.483
25586W        W93991  41.968  41.111  14.389
25587W        W93992  20.602  44.108  11.695
25588W        W93993   6.480  35.499  14.409
25589W        W93994  29.189  19.581  12.468
25590W        W93995   8.088  36.122  13.384
25591W        W93996  23.100  35.934   2.731
25592W        W93997   5.501   3.830   4.109
25593W        W93998  29.935  32.428  10.543
25594W        W93999  19.362  32.169  13.728
25595W        W94000  38.262   1.294   4.220
25596W        W94001   3.494  16.250   4.156
25597W        W94002  32.210  22.374   1.811
25598W        W94003  15.381  29.991  14.299
25599W        W94004  10.330  22.409  12.452
25600W        W94005   9.895   4.289  10.250
25601W        W94006   0.329  25.025   1.700
25602W        W94007  29.180  17.773  14.724
25603W        W94008   9.915  32.964  11.581
25604W        W94009  17.252  38.020  12.973
25605W        W94010  29.943   4.792  12.024
25606W        W94011  30.013   6.128  12.985
25607W        W94012   4.752  15.421   1.325
25608W        W94013  31.538  12.041  13.561
25609W        W94014  38.822  18.510  11.444
25610W        W94015   2.508  18.294  13.555
25611W        W94016  38.540  36.867   4.303
25612W        W94017  12.580  30.021   2.873
25613W        W94018  11.220   4.048  10.037
25614W        W94019   1.741  37.004  13.765
25615W        W94020  19.627  12.823   0.776
25616W        W94021  34.270  37.408   2.203
25617W        W94022  15.499   4.867   3.351
25618W        W94023  28.975  12.607  10.600
25619W        W94024  23.414  15.873  13.856
25620W        W94025  23.617  10.419  14.051
25621W        W94026  23.299  31.979  14.859
25622W        W94027  44.746  42.337  13.467
25623W        W94028  30.055  30.136  13.879
25624W        W94029  12.195   2.628   1.357
25625W        W94030  34.443  21.335   3.749
25626W        W94031   9.710  23.086   4.610
25627W        W94032  43.728  44.916   2.678
25628W        W94033  35.532  27.736  12.857
25629W        W94034   9.653   4.338   2.388
25630W        W94035  13.697  15.636   4.173
25631W        W94036  37.825   9.149  14.631
25632W        W94037   3.402  25.784  10.091
25633W        W94038  44.436  31.695   0.821
25634W        W94039  30.827  14.187  13.064
25635W        W94040  32.678  30.313   0.519
25636W        W94041  34.030   8.853   0.426
25637W        W94042  12.715   6.444  14.278
25638W        W94043  30.731  20.331  14.397
25639W        W94044  23.496  39.685  10.713
25640W        W94045  27.906  20.025   2.314
25641W        W94046  30.050  13.856   4.001
25642W        W94047  14.794  11.872  12.984
25643W        W94048  38.456  34.301  12.923
25644W        W94049  12.410  44.701   1.826
25645W        W94050  13.730  43.006   2.827
25646W        W94051  29.659  37.031  13.787
25647W        W94052   8.017  10.546   1.719
25648W        W94053   3.341  19.672   3.879
25649W        W94054  42.039  28.473   3.800
25650W        W94055  43.387  33.088  14.070
25651W        W94056   3.434  39.796   1.327
25652W        W94057  44.723  29.069  11.402
25653W        W94058  26.646  20.322  12.110
25654W        W94059  11.330  21.217  11.998
25655W        W94060  34.405  37.597   0.834
25656W        W94061  31.726  34.463  10.653
25657W        W94062  17.416  29.270  10.840
25658W        W94063  31.430   4.827  12.180
25659W        W94064  43.503   1.735   2.324
25660W        W94065   9.933   0.739  10.338
25661W        W94066  27.578  32.213   0.812
25662W        W94067  26.230  26.778  13.841
25663W        W94068  26.614   9.504  11.988
25664W        W94069  15.121   1.409   2.117
25665W        W94070  32.634  21.000  12.276
25666W        W94071  27.279   0.334  11.504
25667W        W94072  42.019  17.199   3.905
25668W        W94073  43.061  17.663   1.312
25669W        W94074  21.594   5.428   4.632
25670W        W94075  33.901  14.702   4.549
25671W        W94076  15.831   9.084  11.033
25672W        W94077  44.379   9.676  14.924
25673W        W94078  38.931  30.300  10.591
25674W        W94079  42.042  29.117  11.172
25675W        W94080   1.240   1.039  14.953
25676W        W94081  43.855  24.022  14.276
25677W        W94082  35.066  31.045   0.276
25678W        W94083  33.875  27.217   3.654
25679W        W94084  43.788   1.763   0.493
25680W        W94085  17.303   7.664  11.995
25681W        W94086  15.012  42.318   3.161
25682W        W94087   0.007  28.423  14.353
25683W        W94088  32.394  31.708   3.379
25684W        W94089   9.792   2.717  12.077
25685W        W94090  31.108  28.479  14.427
25686W        W94091   3.951  18.537   1.860
25687W        W94092  17.460  18.487  13.508
25688W        W94093   9.592   1.689  12.527
25689W        W94094  22.583  28.902  12.904
25690W        W94095   4.962  33.860  11.067
25691W        W94096  14.734  43.379  14.213
25692W        W94097  25.999  13.611  10.802
25693W        W94098   6.886  18.141   4.818
25694W        W94099   9.982  36.523   4.503
25695W        W94100  30.073  25.258  13.824
25696W        W94101  44.349  44.659   2.128
25697W        W94102   1.763  10.927  14.492
25698W        W94103  34.814   6.690   4.800
25699W        W94104   9.952  19.320  12.182
25700W        W94105  35.348  20.626  11.518
25701W        W94106  10.137   6.586  14.797
25702W        W94107   5.856  19.709  14.684
25703W        W94108  39.252  35.981  13.868
25704W        W94109  34.898  13.366   0.190
25705W        W94110  11.421  31.634   2.231
25706W        W94111   5.153   6.697   4.550
25707W        W94112  28.080  16.218  13.347
25708W        W94113  30.135  35.528  12.092
25709W        W94114  30.197   1.877   4.225
25710W        W94115  16.664  37.517  14.684
25711W        W94116  39.517  33.409  12.050
25712W        W94117  15.001  24.122  14.376
25713W        W94118  40.666  40.057  13.356
25714W        W94119  30.163  18.508   2.333
25715W        W94120   3.468  23.280   2.714
25716W        W94121  21.446  39.670   2.296
25717W        W94122  22.890  20.310  11.029
25718W        W94123  39.475  25.631  12.027
25719W        W94124  14.419  28.826  13.386
25720W        W94125  33.869  30.665   2.068
25721W        W94126  28.127  15.835  10.668
25722W        W94127   9.441  35.818  10.823
25723W        W94128   8.881  13.949   0.761
25724W        W94129   0.428   9.620  10.865
25725W        W94130  10.886  27.958   1.376
25726W        W94131  34.551  41.753   2.430
25727W        W94132  23.646  30.492   0.977
25728W        W94133  18.944  34.487  12.979
25729W        W94134  11.894  25.115   1.712
25730W        W94135  33.538   5.922   3.323
25731W        W94136  13.219  36.409   0.936
25732W        W94137  26.677  28.069   1.375
25733W        W94138  12.683  43.384  10.734
25734W        W94139  36.024   0.331   1.771
25735W        W94140  34.942   0.496   0.182
25736W        W94141   6.688  44.874  10.756
25737W        W94142  29.086   4.796   0.494
25738W        W94143  17.552  15.081   0.513
25739W        W94144  13.818  10.096  14.081
25740W        W94145  24.297  37.845   4.951
25741W        W94146  15.246  42.318  14.365
25742W        W94147  33.531  33.587   4.579
25743W        W94148  44.817  37.671   3.150
25744W        W94149  15.974   3.733  11.934
25745W        W94150  14.233  22.451   3.225
25746W        W94151   8.102  20.294   2.169
25747W        W94152  33.679  19.126   3.813
25748W        W94153   1.561   0.939  11.568
25749W        W94154  13.339  44.314   3.143
25750W        W94155  40.519  22.527  13.476
25751W        W94156   9.808  22.515   2.319
25752W        W94157  32.674  11.195   0.784
25753W        W94158  24.637  42.515   0.746
25754W        W94159   7.687  30.940  11.512
25755W        W94160  41.620   6.140   2.318
25756W        W94161  28.072  33.130  14.849
25757W        W94162   2.939  34.335  14.473
25758W        W94163   3.042  10.127   2.380
25759W        W94164   0.592  26.877   3.799
25760W        W94165  39.517  23.880  11.768
25761W        W94166  23.726   4.426   4.728
25762W        W94167   8.787  13.783   1.726
25763W        W94168  15.245   5.179  11.600
25764W        W94169   5.941  30.959  12.807
25765W        W94170   2.549   3.454   4.746
25766W        W94171   1.270  33.054  14.797
25767W        W94172  33.749  34.083  11.988
25768W        W94173  40.532  11.706  12.847
25769W        W94174  18.095   1.205  13.029
25770W        W94175   3.470   1.522   4.538
25771W        W94176   2.272   8.965  11.979
25772W        W94177  44.277  33.369  11.205
25773W        W94178  21.983  42.803   0.444
25774W        W94179  12.278  35.341  14.904
25775W        W94180  37.417   1.863  11.627
25776W        W94181  41.795  43.417  11.561
25777W        W94182  15.250  39.084   2.856
25778W        W94183  15.778  13.141  12.888
25779W        W94184  41.976   6.886   2.786
25780W        W94185  30.177   9.827   4.330
25781W        W94186  12.145  16.331   0.842
25782W        W94187  40.550   3.810  13.884
25783W        W94188  26.502  25.458  12.771
25784W        W94189   5.846  18.578   2.158
25785W        W94190  38.232  30.191   1.448
25786W        W94191  43.576  40.867   0.390
25787W        W94192   1.033  42.344  12.462
25788W        W94193   5.230  33.428   0.388
25789W        W94194   2.511   7.023   0.917
25790W        W94195  24.233  40.120  13.372
25791W        W94196  18.159   4.720  14.894
25792W        W94197   4.880  44.020  14.876
25793W        W94198  18.638  22.667   3.093
25794W        W94199  16.377  14.235  10.717
25795W        W94200  43.872   0.495   2.040
25796W        W94201  18.121  20.821   1.250
25797W        W94202  25.636  35.805   3.157
25798W        W94203  13.317   7.111  11.589
25799W        W94204  14.979  23.056   4.525
25800W        W94205   0.110  13.196   0.323
25801W        W94206  18.266  44.152   2.354
25802W        W94207  28.779  29.489   3.790
25803W        W94208  12.596  43.877  13.047
25804W        W94209  33.688  23.408   2.263
25805W        W94210  34.592  11.309   1.867
25806W        W94211  26.675  13.776   3.796
25807W        W94212  29.128  19.191   4.931
25808W        W94213   4.168   0.856   1.748
25809W        W94214  15.814  20.988  13.786
25810W        W94215  41.124  11.224  10.643
25811W        W94216  23.542  31.665   1.808
25812W        W94217  24.189  36.236   4.218
25813W        W94218  24.265  32.469  14.987
25814W        W94219   8.754  31.571   2.430
25815W        W94220  25.162  31.873  12.247
25816W        W94221  18.276  34.124  11.259
25817W        W94222  40.389  14.872   3.341
25818W        W94223  39.906   3.894   2.294
25819W        W94224  40.911  39.505  12.591
25820W        W94225  27.503  43.210   0.379
25821W        W94226  41.387  19.142  13.993
25822W        W94227  30.633  20.160   2.115
25823W        W94228   1.413  27.940  12.251
25824W        W94229  15.295  15.610   4.617
25825W        W94230  39.464  14.823  12.560
25826W        W94231  20.728  25.116   2.377
25827W        W94232  22.887  17.079  13.453
25828W        W94233  14.909  17.818   1.185
25829W        W94234  19.970  26.230   0.738
25830W        W94235   8.418  30.567  14.949
25831W        W94236   4.414  10.047  12.097
25832W        W94237  14.152  39.540  14.014
25833W        W94238  15.156   4.291  11.434
25834W        W94239  12.063  28.588  10.366
25835W        W94240  36.138  30.450   2.748
25836W        W94241  20.695  12.846  13.482
25837W        W94242  19.315  17.258  12.379
25838W        W94243  11.734   8.957   1.571
25839W        W94244  20.824  35.153  12.505
25840W        W94245  28.462  44.206   1.245
25841W        W94246  31.521  42.996   4.559
25842W        W94247   8.696  42.561  10.616
25843W        W94248  14.042   5.175  13.845
25844W        W94249  43.668  19.701  10.263
25845W        W94250  26.649  33.711  11.795
25846W        W94251   2.422   8.440   0.837
25847W        W94252  19.317  14.871  10.604
25848W        W94253   2.720  21.261  14.392
25849W        W94254  28.688  32.243   4.596
25850W        W94255   7.323  23.986   3.269
25851W        W94256   0.066   6.880   2.880
25852W        W94257  38.607   6.250  13.845
25853W        W94258   7.636  25.802   3.280
25854W        W94259   9.817  28.151  13.478
25855W        W94260  12.315  33.436  14.798
25856W        W94261  39.292   1.796   1.222
25857W        W94262   6.126  16.709  12.455
25858W        W94263  10.835   1.868  13.062
25859W        W94264  21.507   2.690   4.234
25860W        W94265   2.262  22.557   3.166
25861W        W94266  28.768   3.412  11.932
25862W        W94267  19.128   4.284  14.531
25863W        W94268  31.064  26.485  10.059
25864W        W94269  28.570  28.711   4.543
25865W        W94270  11.129  10.467  14.159
25866W        W94271   4.896  12.602  12.136
25867W        W94272  19.807  34.431  12.598
25868W        W94273  23.091  21.683  10.383
25869W        W94274  44.958  44.488   1.944
25870W        W94275  28.640  19.598   1.799
25871W        W94276   9.484   8.948   4.620
25872W        W94277   2.803  11.543  11.247
25873W        W94278  25.593  26.909   2.253
25874W        W94279  44.893  28.515   3.132
25875W        W94280  37.747   2.390  11.727
25876W        W94281  37.873  41.839  12.824
25877W        W94282  17.698  30.531  13.028
25878W        W94283  15.674  29.216   2.657
25879W        W94284  11.074  11.635  11.299
25880W        W94285  34.540   3.420   2.900
25881W        W94286   1.746  17.489   4.694
25882W        W94287  12.172  35.491  10.873
25883W        W94288  38.828  35.934  10.424
25884W        W94289  31.696   7.524  14.165
25885W        W94290   6.397  11.567   0.240
25886W        W94291  15.346   8.148  12.575
25887W        W94292  26.063  13.664  13.005
25888W        W94293  29.150   9.160  13.529
25889W        W94294  42.558  43.799   2.096
25890W        W94295  39.172   3.135   4.940
25891W        W94296  33.405  40.607   3.700
25892W        W94297  39.731  10.160  14.457
25893W        W94298  30.379  34.482   1.113
25894W        W94299  42.437  23.217  14.709
25895W        W94300   2.654  32.007   1.865
25896W        W94301  24.412  44.505   3.754
25897W        W94302  39.889   7.929   0.631
25898W        W94303   6.401  19.442  13.876
25899W        W94304  26.492   0.753   4.200
25900W        W94305  30.390  32.237   1.864
25901W        W94306   8.429  14.024   9.795
25902W        W94307   9.130  26.960  10.238
25903W        W94308   5.126  44.392   0.164
25904W        W94309  27.084  15.776   2.182
25905W        W94310  23.744  15.620   3.753
25906W        W94311  41.018  11.327   4.026
25907W        W94312  12.289  29.628   2.160
25908W        W94313  33.359   5.317   1.407
25909W        W94314  36.264   7.482  14.710
25910W        W94315  23.918  37.497   2.270
25911W        W94316   0.137  19.515  14.964
25912W        W94317  29.491   2.468  11.770
25913W        W94318   7.421  32.948  14.831
25914W        W94319   3.269   5.950  11.638
25915W        W94320  19.120  31.443   3.938
25916W        W94321  42.268  31.598   0.411
25917W        W94322   0.751   1.053  12.380
25918W        W94323  22.008   7.259  11.557
25919W        W94324  24.630  33.545   4.129
25920W        W94325  23.129  34.108   2.474
25921W        W94326  12.645  40.127   4.227
25922W        W94327   8.803  23.783   2.726
25923W        W94328   4.929  24.473   3.255
25924W        W94329  18.020  14.123  12.853
25925W        W94330  34.526  40.939  12.235
25926W        W94331  42.848  11.263   1.879
25927W        W94332  39.849  19.154  11.966
25928W        W94333  38.791  37.743  14.587
25929W        W94334  22.600  16.912  11.620
25930W        W94335  22.559   7.985  14.481
25931W        W94336  17.630   8.691   3.341
25932W        W94337  15.848   4.709  11.987
25933W        W94338  18.840   1.634  12.045
25934W        W94339   8.731  25.991   2.300
25935W        W94340   0.493   9.788  12.823
25936W        W94341  23.135  29.520  12.428
25937W        W94342  20.332  43.956  11.307
25938W        W94343  12.714  13.827   1.762
25939W        W94344  28.469  28.760   2.838
25940W        W94345  25.765  19.760  11.165
25941W        W94346  19.009  17.078   2.389
25942W        W94347  40.684  11.758  12.318
25943W        W94348  16.741  27.648  11.146
25944W        W94349  37.065  32.047   3.184
25945W        W94350  27.681   1.751  13.333
25946W        W94351  26.552  12.736   0.701
25947W        W94352  19.077  30.865  14.806
25948W        W94353  15.578  11.026  14.359
25949W        W94354  36.536   0.690   3.128
25950W        W94355   8.675  27.084  10.462
25951W        W94356  30.576   8.811   1.698
25952W        W94357  27.997  28.683   2.595
25953W        W94358  36.734   6.667   3.250
25954W        W94359  26.169  21.526   1.688
25955W        W94360  34.938  21.526   0.705
25956W        W94361  15.161   8.013  13.456
25957W        W94362  11.860   2.673   4.148
25958W        W94363  41.531  10.629   4.526
25959W        W94364  26.491  12.857  14.677
25960W        W94365   8.741  33.466  13.201
25961W        W94366  31.563  11.245   0.189
25962W        W94367  33.170   8.237   3.615
25963W        W94368  28.428  25.647   3.734
25964W        W94369  30.976   7.202   4.569
25965W        W94370  10.322  26.285  11.122
25966W        W94371  18.423   0.223   3.337
25967W        W94372  16.327  17.620   4.146
25968W        W94373   2.976  37.212   1.968
25969W        W94374  38.292   2.301   4.056
25970W        W94375  14.260  26.972   3.774
25971W        W94376   2.400  23.522  13.843
25972W        W94377   3.813  41.276  11.572
25973W        W94378  34.075  40.376  10.631
25974W        W94379  16.309  44.174   1.799
25975W        W94380   5.918   1.930   4.343
25976W        W94381  17.410  11.557   3.256
25977W        W94382  34.156   8.854  14.502
25978W        W94383  36.921  35.842   0.933
25979W        W94384  43.377  41.833   2.589
25980W        W94385  26.487  31.022  11.082
25981W        W94386  18.258  35.291  11.639
25982W        W94387   3.552   0.884  14.626
25983W        W94388   3.463  42.060   0.928
25984W        W94389   9.720  25.189  13.443
25985W        W94390  33.558   5.016  11.501
25986W        W94391  38.050  39.908   3.149
25987W        W94392  17.135  12.256  13.656
25988W        W94393  28.321  26.744  11.155
25989W        W94394   2.472   8.213  11.534
25990W        W94395  44.418  19.344   2.785
25991W        W94396  36.433  33.946   1.891
25992W        W94397  43.556  11.066  11.661
25993W        W94398  44.500  17.989   1.212
25994W        W94399  36.620  32.288   1.990
25995W        W94400  15.712  27.977   2.664
25996W        W94401   8.181   5.234   1.442
25997W        W94402  37.553  30.655   3.671
25998W        W94403  39.324  26.887  13.894
25999W        W94404   7.634  43.461  13.956
26000W        W94405  29.505   4.733   2.824
26001W        W94406  41.417  36.811   0.819
26002W        W94407  32.056   7.421   2.168
26003W        W94408  36.480  29.044   3.963
26004W        W94409  36.082  27.142  12.413
26005W        W94410  18.866  28.202  13.812
26006W        W94411  35.019  14.309  11.610
26007W        W94412  33.062  29.297   1.785
26008W        W94413  35.474   8.817  13.333
26009W        W94414  35.862  37.573   4.543
26010W        W94415   8.975  18.807  13.975
26011W        W94416  41.817  43.450  14.730
26012W        W94417   5.301  36.663  14.370
26013W        W94418  26.170  38.579  13.084
26014W        W94419  12.359  12.948   1.798
26015W        W94420  43.339  19.824  13.918
26016W        W94421  21.148  39.949   4.050
26017W        W94422  12.784   5.554  14.053
26018W        W94423   3.311  44.762  11.458
26019W        W94424  10.753  22.772   4.080
26020W        W94425  23.736   5.713  12.529
26021W        W94426  18.119  22.054   2.692
26022W        W94427   5.597  25.032  11.419
26023W        W94428  33.491   7.908  11.134
26024W        W94429   3.421  32.582  12.612
26025W        W94430  34.563  41.326   2.121
26026W        W94431  18.033  25.132  12.903
26027W        W94432  41.589  38.475  12.050
26028W        W94433  16.602  26.644  12.122
26029W        W94434  17.434  24.991   0.040
26030W        W94435  17.964  34.059   0.931
26031W        W94436  16.791  22.514   2.715
26032W        W94437  34.399  35.814  11.064
26033W        W94438  43.706  44.427  13.831
26034W        W94439  31.174   2.869   2.800
26035W        W94440   6.682  15.098  10.227
26036W        W94441   2.737  38.100   3.716
26037W        W94442  28.070  31.155   3.728
26038W        W94443   9.650  43.961   4.204
26039W        W94444  31.918  10.815   2.688
26040W        W94445  42.210  26.566   9.882
26041W        W94446   4.790  23.250   1.446
26042W        W94447  43.432  21.529   3.626
26043W        W94448  28.893  14.332   2.732
26044W        W94449  40.454  43.228   4.659
26045W        W94450   5.403   8.150   0.852
26046W        W94451   7.736  40.031  10.707
26047W        W94452  26.119  26.684   5.069
26048W        W94453  31.855  27.256  11.387
26049W        W94454  15.302  16.186  12.468
26050W        W94455  35.036  34.827   1.272
26051W        W94456  32.991  14.238   3.560
26052W        W94457   1.929  23.898   2.397
26053W        W94458  39.543  22.395   0.790
26054W        W94459   8.671  12.330  14.877
26055W        W94460  21.602  33.332  11.465
26056W        W94461  35.796  34.982  14.039
26057W        W94462  43.817   1.712   4.722
26058W        W94463  33.815   2.423   1.480
26059W        W94464  44.330   3.579  10.398
26060W        W94465  12.192  30.750   3.648
26061W        W94466  35.233  13.232   2.850
26062W        W94467  42.175   0.165  12.709
26063W        W94468   0.113   6.730   5.019
26064W        W94469  14.916  27.455   3.098
26065W        W94470   4.237   1.279   3.889
26066W        W94471  17.810  10.859  10.538
26067W        W94472   5.909  27.066  13.081
26068W        W94473   5.723  10.651  14.362
26069W        W94474  39.490  42.085   3.558
26070W        W94475  22.523  16.410  11.512
26071W        W94476  31.404   7.915  13.987
26072W        W94477   5.008  30.126   3.721
26073W        W94478  43.660  33.134  13.521
26074W        W94479  32.770  41.930   3.644
26075W        W94480  13.816  13.296   0.592
26076W        W94481  25.525  34.941   0.280
26077W        W94482  39.531  31.361   1.268
26078W        W94483  25.085  43.631  11.041
26079W        W94484  14.292  32.906   2.132
26080W        W94485  25.982   6.863   4.132
26081W        W94486  28.266  13.098   0.685
26082W        W94487  30.466  38.809  14.983
26083W        W94488  29.947   2.470  12.574
26084W        W94489  27.998   9.766  13.364
26085W        W94490  39.965  23.089  11.462
26086W        W94491  26.147   8.395   2.139
26087W        W94492  34.285   8.034   1.475
26088W        W94493  24.980  23.453   1.241
26089W        W94494  25.635  32.919  12.988
26090W        W94495  41.755  39.655   1.332
26091W        W94496  29.793   2.040  11.906
26092W        W94497   7.134  28.449   1.651
26093W        W94498  40.414   6.738  11.274
26094W        W94499   3.217   1.262  13.071
26095W        W94500   8.865  19.109  10.766
26096W        W94501  27.047   7.778  14.309
26097W        W94502  42.604   9.907   2.349
26098W        W94503  27.697   2.616   0.562
26099W        W94504  39.680   9.730  10.890
26100W        W94505  14.656  18.216  12.400
26101W        W94506  10.298  28.542   1.982
26102W        W94507   9.804   7.167  11.468
26103W        W94508  18.267   6.966   4.937
26104W        W94509   6.660  41.265   4.767
26105W        W94510   2.451  10.294  11.878
26106W        W94511   4.537  10.396   3.803
26107W        W94512  10.224  39.733   3.365
26108W        W94513   3.664  12.941   1.414
26109W        W94514  19.634  44.646  11.787
26110W        W94515   9.946  28.134   3.681
26111W        W94516  38.779  35.964  12.951
26112W        W94517  25.931  39.072   4.058
26113W        W94518   7.875  41.524  12.894
26114W        W94519  17.992  25.757  13.392
26115W        W94520  44.481  14.278  12.459
26116W        W94521   4.196  13.127   3.101
26117W        W94522  20.872   2.404  12.419
26118W        W94523  13.862  35.918   3.941
26119W        W94524   9.410  39.483   2.449
26120W        W94525  33.612   5.712   1.186
26121W        W94526   5.080  18.706  11.937
26122W        W94527   2.960  37.306   3.789
26123W        W94528  36.612  37.354  13.534
26124W        W94529  40.803  23.649   3.739
26125W        W94530  31.800  14.193   2.244
26126W        W94531  28.392  13.558   0.932
26127W        W94532   2.745   7.321   1.849
26128W        W94533   6.848  10.124  12.546
26129W        W94534  31.739  23.202   3.656
26130W        W94535  22.948   9.081   4.193
26131W        W94536  24.984  26.498  14.312
26132W        W94537  29.528  44.773   3.124
26133W        W94538  18.558   2.142  10.496
26134W        W94539  40.996  24.889  14.286
26135W        W94540  23.479   3.381   1.664
26136W        W94541  12.669   7.363  12.424
26137W        W94542   0.016  18.536  14.711
26138W        W94543  39.073  26.647  13.470
26139W        W94544  25.861   8.130  13.082
26140W        W94545   9.844  18.119   5.429
26141W        W94546  30.623  22.749   3.111
26142W        W94547  43.688  40.953  14.403
26143W        W94548  38.521   5.336  11.686
26144W        W94549  30.026   3.770   4.703
26145W        W94550  29.373  42.787  11.202
26146W        W94551  20.708   1.545  12.029
26147W        W94552  15.983   2.225  13.590
26148W        W94553  42.379  29.920  11.123
26149W        W94554  39.420  24.104  13.114
26150W        W94555   3.219  42.500   0.778
26151W        W94556  30.593  36.348   1.794
26152W        W94557  37.405  21.089  10.536
26153W        W94558  42.019  41.657  13.405
26154W        W94559  41.040  18.021  12.013
26155W        W94560   1.652  34.742   3.191
26156W        W94561  13.603  10.333   2.781
26157W        W94562  12.349  14.241   2.131
26158W        W94563  36.113   1.033   1.789
26159W        W94564  19.564  13.394  14.593
26160W        W94565  26.913  24.902   0.438
26161W        W94566   0.517  23.590  13.469
26162W        W94567  24.436  44.814   2.082
26163W        W94568  28.254  43.631   3.368
26164W        W94569   8.329  15.783  14.048
26165W        W94570   4.384   3.802  11.120
26166W        W94571  16.773  31.544  12.478
26167W        W94572  11.935  14.945   0.706
26168W        W94573  42.914  16.776  12.113
26169W        W94574  12.208  38.290   3.203
26170W        W94575  16.244   6.724   2.378
26171W        W94576  22.350  27.847   1.679
26172W        W94577  15.258  43.902   3.387
26173W        W94578   5.013  13.059  11.689
26174W        W94579  20.121  16.106   3.104
26175W        W94580  17.806  36.818  12.155
26176W        W94581  22.018  26.198  12.850
26177W        W94582  24.017  44.535   0.957
26178W        W94583  11.167  30.949  11.205
26179W        W94584  40.400  44.492   3.194
26180W        W94585  38.541  25.690   2.865
26181W        W94586  29.866  19.293   1.239
26182W        W94587  24.475  31.650   1.882
26183W        W94588  17.169  13.591   1.511
26184W        W94589   9.776  14.127   0.900
26185W        W94590  38.113  19.121   0.244
26186W        W94591  39.738  16.716   2.433
26187W        W94592   0.760   3.857   0.839
26188W        W94593  13.123  14.539  10.734
26189W        W94594  22.516  29.053  10.260
26190W        W94595   7.234  44.047   2.242
26191W        W94596  30.908  22.125   1.378
26192W        W94597   6.859  27.075   0.319
26193W        W94598  20.838  21.214  12.126
26194W        W94599  14.673  20.000   4.196
26195W        W94600  42.538  39.336  13.774
26196W        W94601  33.187  22.658  11.470
26197W        W94602  11.769  27.478   1.279
26198W        W94603  28.638  39.590   4.227
26199W        W94604  23.150  41.849   0.904
26200W        W94605  37.460  29.675  10.352
26201W        W94606  38.928   4.464  14.327
26202W        W94607  13.241  26.056  11.173
26203W        W94608   6.809  10.406   0.544
26204W        W94609  44.006  38.988  10.983
26205W        W94610  40.012  39.071   5.207
26206W        W94611  16.119  40.468   0.859
26207W        W94612  31.878  13.153  14.706
26208W        W94613  31.481  42.452   2.303
26209W        W94614  24.581  13.340   1.956
26210W        W94615  21.977   5.676  14.103
26211W        W94616  22.479  31.677   2.816
26212W        W94617  26.403  42.850   4.938
26213W        W94618   5.599  33.862  12.576
26214W        W94619  22.112  41.567   1.871
26215W        W94620  41.429  21.149   2.774
26216W        W94621  29.252  11.966   4.188
26217W        W94622  39.328   0.483  10.840
26218W        W94623  16.860  32.603   3.456
26219W        W94624  21.797  30.608  13.925
26220W        W94625  44.406  16.091  12.834
26221W        W94626  39.257  35.962  10.758
26222W        W94627  26.579   9.910   3.698
26223W        W94628   7.838  39.187  11.040
26224W        W94629  31.082  22.487   0.424
26225W        W94630  34.062  36.537  12.357
26226W        W94631  35.811   5.222  10.515
26227W        W94632  14.187  14.343   1.312
26228W        W94633  20.577  11.802   0.255
26229W        W94634  27.255  32.485  14.799
26230W        W94635  14.634  35.046   2.582
26231W        W94636  17.590  33.462   1.828
26232W        W94637  25.410  35.915   4.114
26233W        W94638  23.062  27.889  11.581
26234W        W94639  26.476  40.236   3.764
26235W        W94640  14.559  26.013   4.190
26236W        W94641  33.109  41.832  10.720
26237W        W94642  21.242  10.831  13.447
26238W        W94643   5.207  27.465   2.434
26239W        W94644  33.028  22.276   0.436
26240W        W94645  38.089  37.171   1.752
26241W        W94646  36.467  28.109   3.727
26242W        W94647  30.419  10.367  10.685
26243W        W94648  36.063  21.312  14.309
26244W        W94649   8.896   0.834   2.786
26245W        W94650  33.585  44.227  11.461
26246W        W94651   3.713  37.896  14.287
26247W        W94652  38.983  39.401  13.925
26248W        W94653  40.018  35.414  13.575
26249W        W94654  33.312  33.856  13.797
26250W        W94655  37.919  17.058  12.350
26251W        W94656  17.608  29.175  13.542
26252W        W94657  43.840  33.190   3.713
26253W        W94658  31.422  41.472  13.824
26254W        W94659   7.172  11.724  14.064
26255W        W94660  23.149  14.891   4.133
26256W        W94661  21.652  25.051   4.648
26257W        W94662  40.403  11.558   0.424
26258W        W94663   9.737   5.816  12.627
26259W        W94664  23.216   8.712  12.610
26260W        W94665  28.778   7.432  11.170
26261W        W94666  42.965  38.503   1.775
26262W        W94667  25.952   6.966   2.315
26263W        W94668  14.794  40.189   0.546
26264W        W94669   8.797  32.961   4.557
26265W        W94670  10.798  43.537   4.735
26266W        W94671  17.367  40.841   4.167
26267W        W94672   9.919  40.068   2.285
26268W        W94673  24.597  28.669   1.825
26269W        W94674  10.478  32.845   0.964
26270W        W94675  20.413  33.382   0.474
26271W        W94676   5.631  21.186   2.316
26272W        W94677  15.074  12.764  12.103
26273W        W94678  16.583  26.161  12.312
26274W        W94679   6.979  10.478   3.261
26275W        W94680  29.576  23.943  12.870
26276W        W94681  34.441  33.506   0.720
26277W        W94682  41.766  44.448   0.687
26278W        W94683  11.197  22.704   3.794
26279W        W94684  41.305  17.830  14.007
26280W        W94685  19.858  23.677  11.219
26281W        W94686  10.484  11.877  14.466
26282W        W94687  34.649  43.733  11.534
26283W        W94688  27.879  20.501  14.607
26284W        W94689  29.302   5.723   2.030
26285W        W94690   0.661  26.758   4.308
26286W        W94691   4.828  38.832   0.862
26287W        W94692   0.423  32.008   2.806
26288W        W94693  18.120  37.778   4.945
26289W        W94694  41.028  16.005   0.664
26290W        W94695   4.030  31.414  10.938
26291W        W94696  17.750  36.373  11.713
26292W        W94697  43.727  14.264   2.639
26293W        W94698  32.654   9.364   3.769
26294W        W94699  20.526  18.167  11.907
26295W        W94700   6.425  42.846   0.823
26296W        W94701   3.713  20.568   4.572
26297W        W94702  26.964  17.559  13.511
26298W        W94703  36.832  22.502  12.607
26299W        W94704  15.167  17.018   1.395
26300W        W94705  12.165  17.561  13.101
26301W        W94706  32.954   1.378  14.523
26302W        W94707  17.862  27.451  11.074
26303W        W94708  11.897  19.920  12.994
26304W        W94709  15.252  36.335   4.291
26305W        W94710   2.419   9.794  13.445
26306W        W94711  34.639  33.522   1.661
26307W        W94712   3.991  36.222   0.447
26308W        W94713  42.796   2.421   4.553
26309W        W94714   8.589  26.934  14.388
26310W        W94715  26.256  14.800   1.859
26311W        W94716  41.826  39.831   3.358
26312W        W94717  27.524  36.229   1.891
26313W        W94718   0.750  41.408   2.372
26314W        W94719  40.566  36.025  10.149
26315W        W94720  11.345  41.358  14.402
26316W        W94721  33.577  11.188  10.164
26317W        W94722  21.267  30.105   3.599
26318W        W94723  26.734  17.628  13.986
26319W        W94724  31.119  36.580   0.358
26320W        W94725  42.721  44.058  13.954
26321W        W94726  11.492   5.897  12.561
26322W        W94727  17.617  33.969   1.593
26323W        W94728  26.674   4.775   4.545
26324W        W94729  25.083   4.821   2.215
26325W        W94730  38.550  25.394   4.653
26326W        W94731  42.650  30.396  14.959
26327W        W94732  23.954  42.586  14.526
26328W        W94733  31.564  12.639  10.661
26329W        W94734  39.503  38.259   0.150
26330W        W94735   4.985   3.699   4.117
26331W        W94736  28.081  10.618  12.171
26332W        W94737  28.650  10.362   4.819
26333W        W94738  27.381  14.606  11.637
26334W        W94739  39.138  11.137  14.602
26335W        W94740   8.960  13.749  14.788
26336W        W94741  25.369  17.876  14.343
26337W        W94742  41.887   4.474  12.546
26338W        W94743  16.294  28.629   3.229
26339W        W94744   4.675  37.170   4.150
26340W        W94745  15.091  20.009  13.384
26341W        W94746  16.524  21.257   0.431
26342W        W94747  18.189  28.733  12.379
26343W        W94748  35.822  34.903   4.127
26344W        W94749  27.755  35.522  13.103
26345W        W94750  38.508  22.648   4.494
26346W        W94751  22.272  10.914  11.456
26347W        W94752  42.994  40.779   1.652
26348W        W94753  33.414  37.823   0.695
26349W        W94754  35.516   1.449   4.890
26350W        W94755  30.113   2.494  10.961
26351W        W94756  13.153  32.799  11.399
26352W        W94757   0.395  37.264  13.901
26353W        W94758  44.354  39.554  11.534
26354W        W94759  41.060   1.225   3.183
26355W        W94760   1.020  31.079  12.532
26356W        W94761  17.689  14.762  11.685
26357W        W94762  11.022  43.781   4.323
26358W        W94763  36.560  16.759  12.005
26359W        W94764  13.170   5.230  13.905
26360W        W94765  37.919  25.578  11.383
26361W        W94766  29.205  43.188   1.518
26362W        W94767  11.553  18.924   2.526
26363W        W94768   0.257  10.157  13.355
26364W        W94769  37.900  32.467   0.687
26365W        W94770  10.678  29.099   3.095
26366W        W94771  14.375  37.613   0.566
26367W        W94772  14.551  32.813  13.746
26368W        W94773  40.376  33.897   1.739
26369W        W94774   1.707  29.911  11.497
26370W        W94775  29.512  43.549   1.337
26371W        W94776  21.261  12.430   2.442
26372W        W94777  40.400  28.005   1.842
26373W        W94778  28.165  42.601   4.395
26374W        W94779  44.215  35.874   4.315
26375W        W94780  42.710  21.200   0.856
26376W        W94781  13.602  10.562  12.725
26377W        W94782  11.771  37.790   3.755
26378W        W94783  10.510  26.078   1.644
26379W        W94784  39.295   9.456   1.237
26380W        W94785  31.465   8.367   1.766
26381W        W94786  32.230  44.020   1.879
26382W        W94787  41.295  12.956   3.933
26383W        W94788   3.369  14.859   2.898
26384W        W94789  31.136  22.048   0.106
26385W        W94790  44.449  10.848   3.402
26386W        W94791   6.278  42.113  11.219
26387W        W94792  42.493  30.890  14.985
26388W        W94793  43.886  31.961   3.618
26389W        W94794   3.331  27.843  11.875
26390W        W94795  13.633  33.573  10.970
26391W        W94796  35.338  28.770   4.561
26392W        W94797   7.727  24.627   1.645
26393W        W94798  24.242   8.528   2.178
26394W        W94799   9.651  37.491  13.016
26395W        W94800   1.157  21.220   0.746
26396W        W94801  21.262  25.665   2.756
26397W        W94802  28.576  37.163  11.505
26398W        W94803  17.914   9.681  14.444
26399W        W94804  16.335  15.052   2.264
26400W        W94805  16.054  22.462  14.411
26401W        W94806  25.682  34.545  12.010
26402W        W94807  19.605   1.433   2.118
26403W        W94808  40.985  33.468  11.892
26404W        W94809  27.033  26.848  10.374
26405W        W94810  44.328  23.119  10.504
26406W        W94811  37.034   1.544   0.963
26407W        W94812  31.170  43.006   0.572
26408W        W94813   5.964  15.795  11.049
26409W        W94814  33.741  17.558  12.954
26410W        W94815  41.863  39.422  11.057
26411W        W94816  27.178  18.276   0.215
26412W        W94817   7.373   3.373  11.955
26413W        W94818  17.637  12.641   3.722
26414W        W94819  29.410   2.398   4.594
26415W        W94820  22.568  11.942   3.034
26416W        W94821   6.160   0.784   5.037
26417W        W94822  25.595  22.197  11.549
26418W        W94823  22.075  15.397   0.697
26419W        W94824  31.988  11.572   2.745
26420W        W94825   8.911  26.543   3.136
26421W        W94826   6.972   6.856   0.379
26422W        W94827   8.811  30.224   3.528
26423W        W94828   7.333  23.098   2.231
26424W        W94829   1.776  22.231   3.630
26425W        W94830  33.757  11.147  13.822
26426W        W94831  39.990  30.616   4.331
26427W        W94832  19.194  26.375  11.599
26428W        W94833  26.317   9.437   4.983
26429W        W94834  26.100  41.848  12.397
26430W        W94835  24.926  43.471  13.975
26431W        W94836  28.202  22.537  10.737
26432W        W94837  33.815   9.692  14.308
26433W        W94838   0.479  38.502   4.006
26434W        W94839  12.389  33.162  12.467
26435W        W94840  26.471   1.125  13.523
26436W        W94841   2.442  11.791  12.413
26437W        W94842  36.941   9.615   3.211
26438W        W94843   8.246  22.199  13.908
26439W        W94844  25.954  42.022  14.526
26440W        W94845  18.143  14.112  14.820
26441W        W94846  32.780  41.196   0.140
26442W        W94847  40.400  14.027   4.424
26443W        W94848  41.100  41.126  13.323
26444W        W94849  27.876  27.573   1.381
26445W        W94850  28.512   7.108  12.204
26446W        W94851  22.224  18.344   0.412
26447W        W94852  43.792  39.953   1.248
26448W        W94853  25.347  12.254  14.022
26449W        W94854  44.885  25.713  13.372
26450W        W94855  23.480  13.740   2.845
26451W        W94856  38.781  14.269   5.096
26452W        W94857  15.162  10.280  12.347
26453W        W94858  18.229   2.262   4.649
26454W        W94859  21.086  20.770  10.254
26455W        W94860  19.369  29.610   0.415
26456W        W94861  26.511   3.193  12.052
26457W        W94862   5.551   4.382  12.858
26458W        W94863  33.852  28.142  10.231
26459W        W94864  14.875  40.352   3.214
26460W        W94865  25.043  27.791  10.526
26461W        W94866  41.896  38.291  13.853
26462W        W94867   8.704   2.911  11.524
26463W        W94868  11.426  18.360   2.381
26464W        W94869  31.250  13.213   1.844
26465W        W94870   2.940   4.404   0.473
26466W        W94871   0.422  32.718   4.128
26467W        W94872  41.453   4.261   4.509
26468W        W94873   1.188  26.277  13.682
26469W        W94874  26.543  38.758   3.558
26470W        W94875  38.588  37.420  13.325
26471W        W94876  22.892   6.543  11.267
26472W        W94877  34.409  37.655  11.753
26473W        W94878   7.862  22.171   3.387
26474W        W94879   5.205   3.828   0.936
26475W        W94880  40.500  38.598   4.390
26476W        W94881   3.889   2.401   2.034
26477W        W94882  27.233  36.208   3.158
26478W        W94883  36.565  36.457   0.330
26479W        W94884  10.095   8.891   4.106
26480W        W94885   4.724  23.201   4.950
26481W        W94886  32.931  10.641   4.526
26482W        W94887  22.446  22.234   1.936
26483W        W94888  16.833  13.794   3.525
26484W        W94889   2.791  37.500  10.313
26485W        W94890  39.042  33.926   4.742
26486W        W94891  37.291  35.876  10.727
26487W        W94892  11.111  24.017  13.445
26488W        W94893  31.279  18.538  13.610
26489W        W94894  41.995   8.113   1.981
26490W        W94895  33.085   3.458   0.522
26491W        W94896  20.216  40.603  14.985
26492W        W94897  21.328   5.242  13.502
26493W        W94898  28.641  19.667   0.828
26494W        W94899  30.981  12.287   4.866
26495W        W94900  43.052   9.707   2.524
26496W        W94901  21.075  44.410  13.741
26497W        W94902  39.076  25.880  14.897
26498W        W94903  26.091   8.909  11.115
26499W        W94904   0.864  25.280  14.734
26500W        W94905  19.593  26.727   0.079
26501W        W94906   1.859  39.906   3.381
26502W        W94907  41.232   0.869   0.010
26503W        W94908  38.463  41.036  13.535
26504W        W94909  29.366  19.923  12.038
26505W        W94910   5.141  15.164  10.791
26506W        W94911  26.637  21.758   0.813
26507W        W94912  18.056  10.991   3.572
26508W        W94913  15.830  16.291  11.896
26509W        W94914  22.485  32.181  13.893
26510W        W94915   9.797  29.140  14.790
26511W        W94916  11.152  21.897  13.838
26512W        W94917  14.719  20.217   1.572
26513W        W94918  43.318   1.585   2.792
26514W        W94919  12.863   5.315  13.476
26515W        W94920  27.127   3.808   3.134
26516W        W94921  12.036  12.232   2.311
26517W        W94922  38.557  21.415  14.867
26518W        W94923  32.487   0.497   3.521
26519W        W94924  26.473  32.484  13.921
26520W        W94925  24.390  37.437   3.677
26521W        W94926  11.792  43.812  14.352
26522W        W94927   5.479  21.973   0.901
26523W        W94928  42.742  25.168   2.202
26524W        W94929  32.991  19.050  14.035
26525W        W94930  25.671   8.505   3.678
26526W        W94931  19.653   1.076   1.187
26527W        W94932  22.733  24.242   4.071
26528W        W94933  43.180  10.772  13.846
26529W        W94934  12.090  10.271   0.676
26530W        W94935  28.710  35.394   1.912
26531W        W94936  28.214  15.563   4.230
26532W        W94937  28.661  30.622  14.813
26533W        W94938   3.909  10.263   1.825
26534W        W94939  39.418  29.029   0.856
26535W        W94940  13.691  19.290  14.408
26536W        W94941   0.923  32.619  14.654
26537W        W94942   5.726  15.715  10.626
26538W        W94943   6.888  25.261  14.942
26539W        W94944  26.319  11.900   4.601
26540W        W94945   2.398  22.618  13.320
26541W        W94946  18.413   5.331   2.810
26542W        W94947  41.524  23.560  14.405
26543W        W94948  17.608  10.661   1.366
26544W        W94949  32.050  43.036  13.388
26545W        W94950  38.812   8.265   2.609
26546W        W94951  43.261   4.112  12.479
26547W        W94952  39.015  14.661   0.284
26548W        W94953   6.820  36.086   2.147
26549W        W94954  34.043   1.213   4.576
26550W        W94955  38.287   7.147  13.457
26551W        W94956  29.030   1.359  10.404
26552W        W94957  42.477  23.470   4.069
26553W        W94958  29.981  24.675  13.818
26554W        W94959  16.862  31.934   3.606
26555W        W94960  39.052  39.966   2.833
26556W        W94961  15.436  34.773   1.359
26557W        W94962  24.940  43.072  10.572
26558W        W94963  38.878  24.164  11.628
26559W        W94964  17.634  39.341   3.574
26560W        W94965  25.013  14.829   4.104
26561W        W94966  36.332  44.355  10.992
26562W        W94967  35.571   9.092  12.846
26563W        W94968   1.478  32.097  11.566
26564W        W94969  11.845  41.594   3.289
26565W        W94970  21.735  29.106   0.549
26566W        W94971   0.409  44.494   2.211
26567W        W94972   9.909  20.203   4.275
26568W        W94973  43.723  43.578   2.822
26569W        W94974  42.990  27.021  13.523
26570W        W94975  21.719  15.784  12.116
26571W        W94976   9.019  14.887  13.099
26572W        W94977   9.451  21.286   0.327
26573W        W94978  22.688   5.250  13.978
26574W        W94979  16.515  11.578  13.223
26575W        W94980  16.732   5.368   3.555
26576W        W94981  39.943   7.222  13.161
26577W        W94982   3.702  29.783   2.778
26578W        W94983  31.767   8.174   2.431
26579W        W94984  17.363   8.212   1.324
26580W        W94985   4.332   3.992  14.455
26581W        W94986   9.130  23.505   3.375
26582W        W94987  25.301   2.403  13.690
26583W        W94988  43.080   0.836  14.735
26584W        W94989  39.508  18.876   1.842
26585W        W94990  31.477  11.655   2.790
26586W        W94991  24.750  28.855  12.941
26587W        W94992  39.825  10.952   1.037
26588W        W94993  38.488  25.054   3.344
26589W        W94994  24.726   5.297   2.751
26590W        W94995  21.647  19.506   4.314
26591W        W94996  10.320   1.434  11.904
26592W        W94997  30.383  27.431  12.172
26593W        W94998  44.663   9.697  13.886
26594W        W94999   0.788   7.636   1.821
26595W        W95000  26.763  38.325   3.756
26596W        W95001  16.092  24.727  10.716
26597W        W95002  21.149  39.486   4.295
26598W        W95003   1.416  19.091  13.479
26599W        W95004  10.028  18.168   2.251
26600W        W95005  26.315   8.624  11.705
26601W        W95006  30.586  43.543   4.497
26602W        W95007  43.762  12.566   0.465
26603W        W95008   4.400   7.949  13.991
26604W        W95009  17.690  41.294  13.438
26605W        W95010  40.950  44.827   0.885
26606W        W95011  21.648  38.032  11.267
26607W        W95012   6.871  32.664  14.342
26608W        W95013  31.744  18.823   2.891
26609W        W95014  43.045   8.648  13.875
26610W        W95015   1.221  29.456   0.981
26611W        W95016  41.379  40.429   1.706
26612W        W95017  27.535   4.672   4.829
26613W        W95018   2.238  10.136  10.458
26614W        W95019   5.695  17.181   0.658
26615W        W95020  26.526   4.650   5.047
26616W        W95021  44.375  28.685   0.933
26617W        W95022  34.613  21.092  11.801
26618W        W95023  21.036  26.962  13.832
26619W        W95024  22.149  12.374   4.648
26620W        W95025   5.754  29.441  13.059
26621W        W95026   1.216  33.043   3.258
26622W        W95027  17.343  44.103  11.533
26623W        W95028   2.522  14.783   4.612
26624W        W95029  10.281  39.294   3.045
26625W        W95030  32.628  22.607  10.678
26626W        W95031  32.357  20.717  12.605
26627W        W95032  33.898   4.426   0.981
26628W        W95033   9.653  18.864   3.647
26629W        W95034  20.398   6.764  11.998
26630W        W95035  39.782  44.174   1.908
26631W        W95036  33.767  34.069  13.708
26632W        W95037   2.788  25.465   3.291
26633W        W95038   9.185   5.387  12.110
26634W        W95039  23.295  36.784  11.013
26635W        W95040  37.317  43.427  12.867
26636W        W95041  22.253   4.766  11.491
26637W        W95042  42.477  16.197   3.852
26638W        W95043   5.020   6.908   0.318
26639W        W95044  12.730  13.825   2.736
26640W        W95045   2.230  20.012   3.677
26641W        W95046   9.970  42.382  12.094
26642W        W95047  28.479  20.756   0.442
26643W        W95048  26.683  44.388   4.541
26644W        W95049  40.993   4.590  12.282
26645W        W95050  26.779  35.626  12.151
26646W        W95051  12.810  41.781   0.513
26647W        W95052  14.541  40.614   0.696
26648W        W95053  14.574  28.439   4.661
26649W        W95054  20.124   8.827   2.360
26650W        W95055  41.667  22.668  10.382
26651W        W95056  15.147  15.290   4.235
26652W        W95057  11.712  31.630   0.707
26653W        W95058   0.157  33.513   4.548
26654W        W95059  27.558  33.429   1.891
26655W        W95060  13.592   6.754   2.436
26656W        W95061  43.474   9.702  12.061
26657W        W95062   2.383  18.794  14.447
26658W        W95063  33.479  30.564   1.680
26659W        W95064  12.794  11.580   1.414
26660W        W95065  37.562  25.053  13.432
26661W        W95066   9.422   4.982   1.803
26662W        W95067   7.622  11.631  13.024
26663W        W95068  35.190  18.851  13.476
26664W        W95069  12.659  25.594  13.025
26665W        W95070   4.119  28.008  13.836
26666W        W95071  24.937   2.026   0.959
26667W        W95072  25.020  33.944  12.055
26668W        W95073  36.761   7.761   0.512
26669W        W95074  34.136  10.646   1.315
26670W        W95075  38.775  19.032   0.199
26671W        W95076  26.725  20.246  13.458
26672W        W95077  10.688   5.509   1.670
26673W        W95078  42.795  15.037   2.656
26674W        W95079   5.469  26.968  12.813
26675W        W95080  36.816  31.191   3.857
26676W        W95081  15.078   1.857   1.846
26677W        W95082  27.054  36.062   0.228
26678W        W95083  39.490  44.819  11.412
26679W        W95084  42.971   7.261   0.509
26680W        W95085  15.490   4.399   0.810
26681W        W95086  11.938   1.841   2.533
26682W        W95087   0.773  25.815   2.202
26683W        W95088  23.108  22.429  11.143
26684W        W95089  22.065  36.025  13.520
26685W        W95090  43.868  40.894   2.257
26686W        W95091  24.326  15.716   1.325
26687W        W95092   8.230  12.205  11.455
26688W        W95093  22.552  18.000   0.978
26689W        W95094  28.096  43.029   4.132
26690W        W95095   6.216  21.854   4.141
26691W        W95096  23.295  19.477   3.167
26692W        W95097  32.515  14.663  14.440
26693W        W95098  16.652  35.898  13.957
26694W        W95099  28.403   1.004   0.938
26695W        W95100   4.138  15.633   3.207
26696W        W95101  43.351  38.284   0.378
26697W        W95102   9.044  38.837   0.720
26698W        W95103  21.629  44.912   1.958
26699W        W95104  35.781   3.486   3.429
26700W        W95105  23.017  15.760  12.235
26701W        W95106  42.940  34.573   0.310
26702W        W95107  41.034  33.002  12.453
26703W        W95108   9.090  24.235   4.269
26704W        W95109   6.281  30.268   5.576
26705W        W95110  38.549   1.029  11.914
26706W        W95111  20.203  34.860  12.508
26707W        W95112  39.936  29.031   4.670
26708W        W95113   2.589   6.426   3.289
26709W        W95114  36.942  23.787   4.145
26710W        W95115  38.151  36.777   3.441
26711W        W95116  35.937  14.382   0.318
26712W        W95117  35.287   0.851  12.294
26713W        W95118   5.329   6.921   4.124
26714W        W95119   4.691  40.388   1.385
26715W        W95120  14.156  19.259  14.035
26716W        W95121  40.525  15.829  11.582
26717W        W95122  30.816  26.109   3.730
26718W        W95123   6.184   6.936   0.989
26719W        W95124  12.917  35.042  11.025
26720W        W95125  28.378  39.074   9.761
26721W        W95126   5.801   3.897  11.349
26722W        W95127  34.638   8.857  11.203
26723W        W95128  28.019  24.162   2.158
26724W        W95129  43.672  21.719  14.862
26725W        W95130   9.645  40.548   3.678
26726W        W95131  11.754  15.433   4.217
26727W        W95132  22.823   2.422  11.393
26728W        W95133  19.867  29.198  11.566
26729W        W95134  26.231   3.679   3.120
26730W        W95135  22.582  26.024   1.817
26731W        W95136  32.534   1.692  12.483
26732W        W95137  30.597  36.464  14.281
26733W        W95138  32.814   4.395   2.409
26734W        W95139  44.728  19.827  14.700
26735W        W95140  29.527  22.564  12.950
26736W        W95141  32.374  11.878  12.526
26737W        W95142  39.112  31.170  14.999
26738W        W95143  15.546  20.289  13.936
26739W        W95144  23.368  31.008  12.981
26740W        W95145  10.334  21.303   1.107
26741W        W95146  14.429   2.154   3.374
26742W        W95147   7.891   1.689  13.795
26743W        W95148  34.314   6.773   1.670
26744W        W95149  24.454  16.361  12.579
26745W        W95150  43.368   1.053   4.065
26746W        W95151   1.587  10.928  14.948
26747W        W95152  11.529  20.008   4.080
26748W        W95153  17.606  14.755  13.762
26749W        W95154  12.291  16.341  14.468
26750W        W95155  35.827  25.749  10.825
26751W        W95156  37.649  37.894   3.213
26752W        W95157   0.512  12.794   4.249
26753W        W95158  26.995  15.328   0.335
26754W        W95159  33.603  26.555   2.616
26755W        W95160   9.280  14.736  10.661
26756W        W95161  29.944   5.842  11.160
26757W        W95162  34.616  19.091   2.683
26758W        W95163  26.107  10.543  12.572
26759W        W95164  19.355   3.248   0.835
26760W        W95165  36.014  28.751  14.945
26761W        W95166  35.407  18.773   2.829
26762W        W95167  36.522   4.951  11.576
26763W        W95168  44.261  32.061   2.263
26764W        W95169  18.835  17.240  12.577
26765W        W95170   2.005  13.185  12.962
26766W        W95171  17.111  14.559   3.799
26767W        W95172  19.033   0.451  13.563
26768W        W95173  14.583  18.577   3.181
26769W        W95174   9.152   5.161  12.947
26770W        W95175  29.625  13.060  14.377
26771W        W95176  36.604  37.028  12.879
26772W        W95177  42.298  28.196  12.192
26773W        W95178   8.307   1.237  11.101
26774W        W95179  40.510   9.079  14.002
26775W        W95180  36.938   9.818   4.779
26776W        W95181  27.351  25.577   0.772
26777W        W95182  12.402  41.329  11.870
26778W        W95183   9.896  33.700  12.478
26779W        W95184  36.309   3.384  14.788
26780W        W95185  28.158  38.077   3.690
26781W        W95186  11.708  14.362  13.503
26782W        W95187   0.363  13.807   1.696
26783W        W95188  30.528   4.116  12.460
26784W        W95189  16.406   5.789  12.622
26785W        W95190  36.058  35.414  11.485
26786W        W95191  39.959   0.458   2.245
26787W        W95192   1.888   0.891   1.716
26788W        W95193   5.235  41.937  14.354
26789W        W95194  14.145  10.566   2.998
26790W        W95195   2.894  19.677  11.770
26791W        W95196  29.474  20.782   2.137
26792W        W95197   8.330  27.342   9.691
26793W        W95198  12.619  37.108   3.746
26794W        W95199  13.503  34.807   4.875
26795W        W95200   7.734  21.145   5.252
26796W        W95201  26.993   9.302   1.922
26797W        W95202  25.055  40.326   1.261
26798W        W95203   3.960  26.194  13.938
26799W        W95204  15.695  29.910  12.089
26800W        W95205  40.474  17.200   3.747
26801W        W95206  22.495  40.064   3.136
26802W        W95207  20.260  22.149   3.815
26803W        W95208  28.113  10.305   2.235
26804W        W95209  33.822  43.352   2.241
26805W        W95210  14.195  31.417  11.962
26806W        W95211  24.651   5.579  14.741
26807W        W95212  19.555  31.569   4.214
26808W        W95213   5.672  42.889  14.455
26809W        W95214  29.508  17.678  14.342
26810W        W95215  36.953   1.447  12.633
26811W        W95216  19.572  10.806   2.390
26812W        W95217   6.944  25.727  12.150
26813W        W95218  11.807  31.470  12.410
26814W        W95219  36.010  41.529  10.755
26815W        W95220   4.944  36.095  14.771
26816W        W95221  38.270  42.164   4.194
26817W        W95222   1.578   0.709   4.197
26818W        W95223  20.879  40.010   3.562
26819W        W95224   9.816  15.010   2.461
26820W        W95225  43.820  19.233  12.567
26821W        W95226  43.331  11.753  10.555
26822W        W95227  14.775  11.322  12.973
26823W        W95228  38.392  12.730   3.272
26824W        W95229  25.454  42.468  13.941
26825W        W95230  23.582   3.357  14.247
26826W        W95231  10.591  44.162   1.706
26827W        W95232  30.032  23.276   3.280
26828W        W95233  18.058  37.502   0.840
26829W        W95234  37.346  34.201   0.465
26830W        W95235  28.236   9.111   1.209
26831W        W95236   6.171  32.616  12.595
26832W        W95237  41.218   4.233  11.910
26833W        W95238   8.266   4.863  10.780
26834W        W95239  40.560   5.305   1.705
26835W        W95240  42.719  16.675   1.338
26836W        W95241  15.079  31.486   0.466
26837W        W95242  38.709  25.962   2.421
26838W        W95243  27.422  43.515  13.456
26839W        W95244  22.476  33.975   1.473
26840W        W95245  43.893  38.386  11.796
26841W        W95246   5.801  29.483  10.751
26842W        W95247  29.270  41.332   2.869
26843W        W95248  19.509  36.127  12.078
26844W        W95249   3.463  22.568   2.394
26845W        W95250  32.627  25.102  11.964
26846W        W95251   6.831   5.465  13.664
26847W        W95252  29.401  16.687   3.841
26848W        W95253  23.295   3.814  10.634
26849W        W95254  11.119   3.379   4.177
26850W        W95255  31.114   2.137  10.606
26851W        W95256  15.786   1.333  12.901
26852W        W95257   6.803  16.290   3.255
26853W        W95258   5.645  36.991   4.339
26854W        W95259  21.672  32.516   0.941
26855W        W95260  30.375  14.703  13.734
26856W        W95261  30.194  30.684  11.536
26857W        W95262   6.732   2.789  10.656
26858W        W95263  21.513  20.850  12.545
26859W        W95264  36.415  39.473   2.647
26860W        W95265  17.750  34.252   3.225
26861W        W95266  18.286  11.680  14.930
26862W        W95267  23.198  39.965  14.644
26863W        W95268  24.502   3.671   1.835
26864W        W95269  41.588  20.074  13.541
26865W        W95270   4.332   5.278   3.854
26866W        W95271  32.922  44.026  12.632
26867W        W95272  17.050   0.726   0.911
26868W        W95273  38.202  18.471  13.160
26869W        W95274   2.676   1.332   2.149
26870W        W95275  24.559  35.429   2.317
26871W        W95276  31.026  23.114  12.624
26872W        W95277   0.813  42.996  14.399
26873W        W95278  36.251  25.627  11.063
26874W        W95279  17.596  43.499   2.354
26875W        W95280  42.865  43.483   4.572
26876W        W95281   6.459  28.616  13.137
26877W        W95282  11.278  28.539   4.036
26878W        W95283  42.300   0.313  13.746
26879W        W95284  19.192  35.578   2.423
26880W        W95285  11.718  34.656   0.237
26881W        W95286  39.985   9.248   1.976
26882W        W95287  19.032  12.200  14.414
26883W        W95288  35.187   7.251   2.655
26884W        W95289  26.659   7.429   4.171
26885W        W95290  38.188  43.450   3.574
26886W        W95291  17.141  20.889  13.448
26887W        W95292  12.270  15.707   2.849
26888W        W95293   9.689  34.873  11.509
26889W        W95294  17.233  32.600  14.727
26890W        W95295   3.811  23.617  13.528
26891W        W95296   7.120   6.461  12.988
26892W        W95297  33.601  10.862   3.304
26893W        W95298   2.664  14.943   2.712
26894W        W95299  15.287  40.457   3.961
26895W        W95300   6.997  20.024  11.924
26896W        W95301  41.141  25.106   0.709
26897W        W95302  38.887  43.896  10.739
26898W        W95303  40.214  44.169   4.128
26899W        W95304  40.543  31.238   1.405
26900W        W95305  24.674  12.276   0.397
26901W        W95306  14.190  19.688   3.874
26902W        W95307   1.360  13.237   4.807
26903W        W95308  12.656  29.103  11.600
26904W        W95309  15.223  31.387   1.479
26905W        W95310   8.420  43.355  11.629
26906W        W95311  32.996   3.990  14.361
26907W        W95312  17.680  40.414   4.408
26908W        W95313  16.092  20.634   2.342
26909W        W95314  24.969  16.057  14.995
26910W        W95315   8.131  25.062   3.619
26911W        W95316  38.822  20.187   3.893
26912W        W95317   9.480  16.341  11.223
26913W        W95318  26.657   6.617   3.303
26914W        W95319  16.276  31.156   0.287
26915W        W95320  34.151   6.838  11.220
26916W        W95321  26.867  15.675  13.534
26917W        W95322   0.460  25.279   2.831
26918W        W95323   1.807  32.575   1.943
26919W        W95324   8.745   6.371   3.032
26920W        W95325  40.779   1.313   1.846
26921W        W95326  29.522  34.124   3.150
26922W        W95327  30.516   2.473  14.298
26923W        W95328   9.986  18.707   0.751
26924W        W95329  22.195  44.949   2.802
26925W        W95330  41.319  10.377   0.429
26926W        W95331  16.770  43.321   1.933
26927W        W95332  30.540  10.667   2.744
26928W        W95333   1.748  18.203   2.745
26929W        W95334  39.460  39.018  10.277
26930W        W95335  10.870   0.285   4.532
26931W        W95336   7.754   7.892  13.829
26932W        W95337   1.263   5.353  14.470
26933W        W95338  17.742  12.402   3.294
26934W        W95339   0.213  20.131   3.206
26935W        W95340  24.204  23.483  12.997
26936W        W95341  15.610  35.647  13.944
26937W        W95342  12.745  38.098  11.083
26938W        W95343  21.221  23.134  13.048
26939W        W95344   5.909  41.441  12.953
26940W        W95345  11.925  22.998   1.232
26941W        W95346  22.142  20.287  10.581
26942W        W95347  42.471  18.601  13.409
26943W        W95348   8.219  27.369   4.100
26944W        W95349  16.045  18.040  12.584
26945W        W95350  12.572   1.053  11.640
26946W        W95351  30.650  29.186  14.119
26947W        W95352  41.537  40.467  12.957
26948W        W95353  41.947  10.512  14.190
26949W        W95354  17.581  36.102   2.866
26950W        W95355  20.415  29.350  14.059
26951W        W95356   7.812   3.216   0.459
26952W        W95357  31.509  43.305  12.877
26953W        W95358  41.836  13.606  13.690
26954W        W95359  33.011   1.274   3.885
26955W        W95360  43.441  23.685  14.369
26956W        W95361  33.875  22.727   3.246
26957W        W95362  37.860   5.233   1.873
26958W        W95363  27.429  14.116  14.005
26959W        W95364   8.042   2.566  10.805
26960W        W95365  16.998  29.471  14.775
26961W        W95366  13.714   4.295  10.280
26962W        W95367  25.290   8.812   2.840
26963W        W95368  20.110  36.116  14.483
26964W        W95369  35.683  18.724  13.339
26965W        W95370  13.574  15.699   2.115
26966W        W95371  44.306  34.070   1.022
26967W        W95372  43.140  34.306   3.234
26968W        W95373   2.275  24.086  12.088
26969W        W95374   8.447  31.978  14.058
26970W        W95375  28.886  38.853   0.781
26971W        W95376  29.584  31.808   2.487
26972W        W95377   2.288   0.791   4.531
26973W        W95378  39.737   9.191   1.494
26974W        W95379  13.101   0.464  11.400
26975W        W95380  29.626  32.031   0.431
26976W        W95381  40.617  12.629  12.433
26977W        W95382  20.355  18.777   2.682
26978W        W95383  44.019  32.095   1.821
26979W        W95384  37.618  27.869   0.372
26980W        W95385  42.385  29.932  14.112
26981W        W95386  38.514  43.756  13.030
26982W        W95387  23.113  41.331  10.952
26983W        W95388  41.778  26.548  10.384
26984W        W95389  39.014   1.421  13.842
26985W        W95390  20.715  37.472  10.997
26986W        W95391  36.681  41.412   2.262
26987W        W95392  25.165  29.855   2.816
26988W        W95393  10.930  37.153   0.307
26989W        W95394   5.733   0.928   1.687
26990W        W95395   2.861   5.707  12.428
26991W        W95396  20.958  24.234   4.415
26992W        W95397  33.054  14.759  10.773
26993W        W95398  13.350  36.038   4.063
26994W        W95399   6.368  28.270   3.377
26995W        W95400   6.410  36.925   2.471
26996W        W95401  35.547  31.550  13.463
26997W        W95402   8.214  36.550  10.815
26998W        W95403  33.582  10.539  11.877
26999W        W95404   9.681  20.607   3.347
27000W        W95405  34.319  39.592   0.988
27001W        W95406  18.211  18.625  11.523
27002W        W95407  31.649  25.712  14.536
27003W        W95408   4.888  42.803  11.654
27004W        W95409  31.346  17.068  13.079
27005W        W95410  30.921  28.432  10.705
27006W        W95411  14.167  19.048   1.970
27007W        W95412  26.864   2.860  11.748
27008W        W95413  33.630  29.675  11.103
27009W        W95414  23.424  35.013   4.144
27010W        W95415  38.418  37.395  10.457
27011W        W95416  25.508   4.379  12.818
27012W        W95417  29.077  36.465  10.631
27013W        W95418  22.125   3.260  13.781
27014W        W95419  16.216  40.513  10.669
27015W        W95420   6.325   8.136   2.383
27016W        W95421  19.151  35.045   3.446
27017W        W95422  40.819  14.846   0.783
27018W        W95423   1.541  35.598  11.669
27019W        W95424   9.569  10.133   3.324
27020W        W95425  29.459  44.810   4.068
27021W        W95426  40.780  36.398   4.352
27022W        W95427  31.960  22.288  13.070
27023W        W95428  18.477  41.262  14.405
27024W        W95429  14.571  39.383   3.255
27025W        W95430  23.053  42.817   2.312
27026W        W95431  21.684   3.714  12.505
27027W        W95432   9.301   2.664   3.150
27028W        W95433   8.902  37.061  11.605
27029W        W95434  24.516  18.868  12.986
27030W        W95435  31.429   8.139  11.149
27031W        W95436  13.576  38.314  13.080
27032W        W95437   4.089  11.721   4.643
27033W        W95438  38.651  13.885  11.987
27034W        W95439  14.125  33.020   0.093
27035W        W95440   8.737  27.435   3.616
27036W        W95441  42.415   6.207  13.493
27037W        W95442  39.719  39.253   2.752
27038W        W95443  18.788   2.769   3.261
27039W        W95444   3.446  42.731  13.632
27040W        W95445  34.102  16.513  11.581
27041W        W95446  22.727   8.756  10.982
27042W        W95447  38.432  25.008  12.978
27043W        W95448  41.759  16.122  12.649
27044W        W95449  28.121  40.062  11.960
27045W        W95450   5.213  40.995  14.428
27046W        W95451   3.095  38.786   4.976
27047W        W95452  17.482  17.824   0.219
27048W        W95453   4.973   4.268   0.719
27049W        W95454  38.600  28.506   2.269
27050W        W95455  28.950  40.116  14.500
27051W        W95456  16.478  22.937   2.380
27052W        W95457  15.729  43.882  11.788
27053W        W95458  35.326  33.630  12.538
27054W        W95459   8.603  11.665   4.312
27055W        W95460  37.540   3.533   5.442
27056W        W95461  40.819   2.504  14.920
27057W        W95462  23.194   5.477   0.199
27058W        W95463  20.372  17.313   1.886
27059W        W95464   2.413  39.371   0.302
27060W        W95465  29.395  39.769   2.384
27061W        W95466  41.560  13.773   4.040
27062W        W95467   2.839  44.468  10.715
27063W        W95468  32.066  32.709   4.077
27064W        W95469  43.681  26.548   0.378
27065W        W95470  28.683  24.457  12.881
27066W        W95471  41.098  24.567  13.412
27067W        W95472   3.000   2.288   0.966
27068W        W95473  43.130   3.896   0.429
27069W        W95474  18.596  43.935   4.566
27070W        W95475  40.307  12.668   1.346
27071W        W95476   2.284  37.561  13.787
27072W        W95477  42.397   9.229   4.231
27073W        W95478   8.043   5.642   3.349
27074W        W95479  26.879  24.705   4.314
27075W        W95480   3.424  42.913  14.580
27076W        W95481   0.345  25.049   1.194
27077W        W95482  32.130  21.314  12.914
27078W        W95483  32.035  32.184   4.062
27079W        W95484  37.114   3.856   1.855
27080W        W95485  44.018  29.784  11.263
27081W        W95486  31.101  39.791   0.927
27082W        W95487  11.906  17.622   0.244
27083W        W95488  35.004  35.346  12.815
27084W        W95489   2.427  28.513  13.319
27085W        W95490  11.274  31.781   2.785
27086W        W95491  24.474  22.275   0.865
27087W        W95492   7.350  39.990   3.279
27088W        W95493  39.532  31.181  13.431
27089W        W95494  44.312  25.685   2.383
27090W        W95495  37.183  12.797  14.045
27091W        W95496  22.181  34.103  11.188
27092W        W95497   8.668  39.011   0.298
27093W        W95498  30.367  10.583  13.432
27094W        W95499  40.777  11.609  14.592
27095W        W95500  36.035  14.011  12.857
27096W        W95501  21.195  38.618  12.253
27097W        W95502  11.098  24.792   1.074
27098W        W95503  29.179   7.415   1.423
27099W        W95504  10.961  28.028   2.136
27100W        W95505  17.293   0.238   0.369
27101W        W95506  39.591  26.144  10.835
27102W        W95507  37.939  40.984  12.652
27103W        W95508   7.301  15.476   1.985
27104W        W95509   3.455   3.895  13.580
27105W        W95510  40.050  16.050  12.629
27106W        W95511  22.496  40.843   2.787
27107W        W95512  12.437  30.338  13.483
27108W        W95513  21.928  38.542  11.989
27109W        W95514  35.818  35.024   3.089
27110W        W95515  23.736  22.127   2.443
27111W        W95516  17.345  25.727  11.146
27112W        W95517  29.130  12.235   2.208
27113W        W95518  24.691  23.108   4.354
27114W        W95519  44.655  32.586   3.692
27115W        W95520  11.835   7.292  14.136
27116W        W95521  24.980  37.585   2.732
27117W        W95522  44.524  22.264   2.159
27118W        W95523   5.984  38.842  14.902
27119W        W95524  35.900  38.376  12.932
27120W        W95525  25.640  10.824   1.260
27121W        W95526  32.570  15.736  14.820
27122W        W95527  11.071  21.634  14.307
27123W        W95528  42.281  12.664   1.164
27124W        W95529  39.878  38.983  11.305
27125W        W95530  37.904  20.991   1.669
27126W        W95531  16.596  18.886  11.541
27127W        W95532   3.980   1.997   0.803
27128W        W95533  31.794  40.595  13.844
27129W        W95534   1.843  24.643  10.839
27130W        W95535  22.655   0.307   1.274
27131W        W95536  30.483  24.388  13.887
27132W        W95537   7.492  29.619   2.336
27133W        W95538  37.892  31.608  14.396
27134W        W95539  13.832  14.178   0.431
27135W        W95540  27.668  29.164  14.933
27136W        W95541  44.445  38.493   1.877
27137W        W95542   9.664  37.319  11.335
27138W        W95543  38.077  20.976   0.821
27139W        W95544  40.816  35.569   2.749
27140W        W95545  40.258   0.716  11.609
27141W        W95546   3.682  19.751   9.841
27142W        W95547  24.094  27.152   0.885
27143W        W95548  23.757   6.326   0.265
27144W        W95549  26.702  25.808  11.146
27145W        W95550   5.374  25.898  12.430
27146W        W95551  18.838  31.097   2.831
27147W        W95552   1.998   3.239  10.250
27148W        W95553  24.741  35.457  13.940
27149W        W95554  32.993  29.683  13.754
27150W        W95555  18.727   4.207   4.503
27151W        W95556   9.693  26.485  13.627
27152W        W95557  44.097  16.137   1.306
27153W        W95558  15.908  32.933  13.870
27154W        W95559  17.602  33.571   0.043
27155W        W95560  36.650  25.006  12.452
27156W        W95561   3.474   1.826   2.641
27157W        W95562   2.875  10.145   3.763
27158W        W95563  31.014  41.000   4.118
27159W        W95564  35.859  12.188   2.650
27160W        W95565  38.388  40.340   3.273
27161W        W95566  41.065  36.581  14.372
27162W        W95567  14.179  38.103  14.848
27163W        W95568  16.576  16.808  11.615
27164W        W95569  35.919  22.516  11.941
27165W        W95570  32.392   4.301  13.592
27166W        W95571  20.339   4.895   0.719
27167W        W95572  44.706  28.594  14.812
27168W        W95573  32.171  17.992   4.214
27169W        W95574   3.784  23.744  10.149
27170W        W95575  44.488  17.068   1.817
27171W        W95576  13.852  24.347  13.015
27172W        W95577  14.494  43.528  13.374
27173W        W95578  35.694  37.225   0.972
27174W        W95579  16.142   2.801  11.094
27175W        W95580  16.255  10.128   2.286
27176W        W95581  21.045  32.394  12.596
27177W        W95582  14.276  24.271   1.797
27178W        W95583  25.227  18.545  10.745
27179W        W95584  20.755  30.925   1.228
27180W        W95585   2.862  17.718   2.423
27181W        W95586  44.820  43.690   1.493
27182W        W95587  26.958  28.384  14.817
27183W        W95588  38.156  41.966  10.860
27184W        W95589  10.762   0.809  12.995
27185W        W95590  25.724  21.039   1.379
27186W        W95591  21.850  42.998  12.137
27187W        W95592  27.968   8.676   3.375
27188W        W95593  22.237  38.861   1.915
27189W        W95594  36.336   3.831   9.794
27190W        W95595  32.898  44.944   2.029
27191W        W95596  37.514   8.734  11.510
27192W        W95597   2.285  12.253  13.106
27193W        W95598  31.879  29.150  13.227
27194W        W95599  10.602  26.460   1.233
27195W        W95600   7.303  36.383   3.709
27196W        W95601  32.531  11.244  10.562
27197W        W95602   4.686  40.818   1.680
27198W        W95603  17.779  11.108  11.852
27199W        W95604  14.668   5.724  11.242
27200W        W95605  19.738  43.924  10.465
27201W        W95606  19.583  28.828  12.425
27202W        W95607  42.698   3.634   4.017
27203W        W95608  27.169  39.527   0.851
27204W        W95609  44.807   3.510   2.387
27205W        W95610   7.097  11.413   1.331
27206W        W95611  31.463  34.352   4.443
27207W        W95612  19.299  33.517  13.918
27208W        W95613  43.396  16.732  14.862
27209W        W95614  11.122   4.894  12.133
27210W        W95615   7.005  29.301   3.595
27211W        W95616  38.456  39.006  11.270
27212W        W95617  23.783  44.325  10.734
27213W        W95618  40.174  33.816  13.010
27214W        W95619   5.694  28.136   0.898
27215W        W95620  40.736   5.394  13.993
27216W        W95621  26.205  28.528  11.718
27217W        W95622  42.696  19.690  13.316
27218W        W95623  17.966  16.859   3.437
27219W        W95624   8.739  25.792   0.782
27220W        W95625  14.663  17.712  12.945
27221W        W95626  36.544  14.967  12.864
27222W        W95627  26.750  33.104  11.199
27223W        W95628  36.118  26.136  11.049
27224W        W95629  41.410  16.802  13.848
27225W        W95630   6.493  12.240   1.901
27226W        W95631  17.046  38.121   3.659
27227W        W95632   7.826  23.115   2.359
27228W        W95633   4.243   5.204   0.392
27229W        W95634  35.490  32.330  13.041
27230W        W95635   6.839  27.797  14.762
27231W        W95636  40.258  18.050  12.435
27232W        W95637  28.887  28.428  10.814
27233W        W95638  14.063   7.762   4.228
27234W        W95639   0.814  35.222  12.785
27235W        W95640   3.629  31.363  13.017
27236W        W95641   5.795  42.785   0.600
27237W        W95642  15.598  36.721   5.525
27238W        W95643   7.291   0.590  10.599
27239W        W95644  31.865  40.346  14.299
27240W        W95645  22.598   3.064   3.597
27241W        W95646  34.430  32.022   1.716
27242W        W95647  38.465  15.419  10.936
27243W        W95648  30.947  36.584  12.127
27244W        W95649  13.432  37.484  14.598
27245W        W95650   7.197   1.910   0.006
27246W        W95651  33.128  25.975  11.696
27247W        W95652  40.772  26.613  10.826
27248W        W95653  41.779  40.922   4.700
27249W        W95654   5.946  18.205   1.338
27250W        W95655  33.352  36.049  11.722
27251W        W95656  34.282   9.398  12.569
27252W        W95657  26.918  22.823   0.645
27253W        W95658  14.250   0.461  12.022
27254W        W95659  42.849  17.557  11.598
27255W        W95660  37.322  30.524  12.666
27256W        W95661  24.518  27.512   2.839
27257W        W95662  18.308  12.690   0.600
27258W        W95663   4.959  25.657  11.180
27259W        W95664  11.630  36.367   3.589
27260W        W95665  28.180  37.501  10.040
27261W        W95666  14.199  40.438  14.327
27262W        W95667   5.072  37.027   2.322
27263W        W95668   2.971  34.992   2.712
27264W        W95669   2.791   2.447   4.771
27265W        W95670  28.611  19.060  11.188
27266W        W95671  23.744   8.636   4.637
27267W        W95672  12.227  34.017  13.840
27268W        W95673  35.977  26.968  11.341
27269W        W95674  43.523  21.242  11.533
27270W        W95675   6.440  42.535  10.963
27271W        W95676  13.524   4.292   5.118
27272W        W95677   7.431   8.294   3.565
27273W        W95678  32.486  11.552  12.142
27274W        W95679  25.051   2.377  14.725
27275W        W95680   0.310  25.435   2.364
27276W        W95681  10.015  27.884   4.132
27277W        W95682   2.628  34.275  11.625
27278W        W95683  41.832  25.947  14.439
27279W        W95684  30.453   8.095   0.993
27280W        W95685   8.689   0.986   5.036
27281W        W95686  41.093  44.247  12.288
27282W        W95687   6.620   5.986   0.700
27283W        W95688  42.439  20.969   4.766
27284W        W95689  28.853  22.028  14.977
27285W        W95690  30.802  40.351   5.412
27286W        W95691  35.553  38.168  14.916
27287W        W95692  41.870  19.524   4.373
27288W        W95693  11.900   8.242   0.257
27289W        W95694  13.682   2.224   0.091
27290W        W95695  22.969  25.422  13.572
27291W        W95696   4.625   4.403  14.394
27292W        W95697  26.927  43.498  12.052
27293W        W95698  28.736  13.147   0.924
27294W        W95699  44.529  27.406  12.912
27295W        W95700  39.510  11.355  13.780
27296W        W95701  19.229  16.173   3.065
27297W        W95702  27.887   9.326  12.719
27298W        W95703  27.440  20.616  12.546
27299W        W95704  37.394  29.138   3.638
27300W        W95705  41.921  19.345   1.854
27301W        W95706   2.897  32.881   4.650
27302W        W95707  26.519  13.317  14.464
27303W        W95708  24.550  19.480  13.509
27304W        W95709   7.685  32.452   2.568
27305W        W95710  36.451  30.448  12.609
27306W        W95711  25.745  38.415   0.713
27307W        W95712  13.129  12.800   2.650
27308W        W95713   6.674   6.882   0.814
27309W        W95714   0.222  33.401   1.896
27310W        W95715  25.596   6.249  11.574
27311W        W95716  16.781  19.774  11.358
27312W        W95717  17.779  19.940  12.531
27313W        W95718  39.785   5.482  14.001
27314W        W95719  32.078  30.311  12.731
27315W        W95720   4.873  22.623   4.588
27316W        W95721   8.822  32.534   3.840
27317W        W95722   6.979  15.069   2.858
27318W        W95723  16.805  27.910  11.654
27319W        W95724  11.622   2.993  12.636
27320W        W95725  42.795   8.341   1.466
27321W        W95726   6.051  31.245   2.154
27322W        W95727  22.604  11.355   2.165
27323W        W95728   3.885  13.612  13.068
27324W        W95729  31.844   4.243   3.263
27325W        W95730  31.903  41.283   5.060
27326W        W95731  38.057  18.690  13.625
27327W        W95732   0.169  44.951   2.269
27328W        W95733  37.531  20.779   0.740
27329W        W95734  26.984   4.257  13.075
27330W        W95735  12.126  37.354  13.394
27331W        W95736  27.422  16.817  13.465
27332W        W95737  12.594   4.831   0.847
27333W        W95738  21.946   6.855  11.951
27334W        W95739  16.552  44.877  10.622
27335W        W95740   8.874  35.091   1.373
27336W        W95741  18.181  22.607   0.734
27337W        W95742  34.444  28.975   3.685
27338W        W95743  11.792  12.064  11.516
27339W        W95744  12.192  20.076   1.628
27340W        W95745  19.597  13.524  10.400
27341W        W95746  10.315  23.159  13.425
27342W        W95747  40.084   2.688   4.097
27343W        W95748  19.271  30.128  14.296
27344W        W95749   3.663  43.741  12.668
27345W        W95750   3.537  18.779  13.652
27346W        W95751  29.815  11.830   5.068
27347W        W95752  22.111  11.841   4.729
27348W        W95753  37.272  27.417   4.024
27349W        W95754  27.668  27.207   4.051
27350W        W95755  40.364  30.159  13.110
27351W        W95756   8.298  29.444   1.041
27352W        W95757   3.041  28.537   4.773
27353W        W95758  24.885   1.415   4.114
27354W        W95759  11.302   3.471  10.724
27355W        W95760   5.227  31.359  14.739
27356W        W95761   6.994  12.287  12.974
27357W        W95762  17.749  44.222   4.115
27358W        W95763   5.167  33.931  10.545
27359W        W95764   2.633  41.749   4.950
27360W        W95765  17.686  20.631   9.815
27361W        W95766   6.203  20.830   4.187
27362W        W95767  19.669  37.178  10.954
27363W        W95768  42.035   8.541  12.018
27364W        W95769  24.185   5.242  12.976
27365W        W95770  34.108  41.119  11.960
27366W        W95771  25.696  18.530   2.843
27367W        W95772  34.137  11.404  14.097
27368W        W95773  38.915  21.665  12.580
27369W        W95774   6.251   9.633   2.321
27370W        W95775  20.745  36.233  11.291
27371W        W95776  30.940  35.153  12.113
27372W        W95777  38.448  12.174   1.423
27373W        W95778  12.565  12.101   0.412
27374W        W95779  15.525  13.142   2.722
27375W        W95780  24.954  13.202  13.826
27376W        W95781  16.831  14.006  11.457
27377W        W95782  32.255  15.166  13.325
27378W        W95783  16.593  13.784  13.532
27379W        W95784   7.806   0.254   0.944
27380W        W95785  40.446  27.593  12.891
27381W        W95786   7.854  23.206   0.400
27382W        W95787  11.241  25.712  11.076
27383W        W95788  38.265  23.158   4.604
27384W        W95789  24.196   6.743   1.951
27385W        W95790  38.891  31.684   3.144
27386W        W95791  11.139   3.975  13.000
27387W        W95792  34.023  27.423  13.553
27388W        W95793  19.141  10.940   1.676
27389W        W95794  30.954  11.771   4.823
27390W        W95795  24.684  19.976   2.136
27391W        W95796  41.143  29.596   2.689
27392W        W95797  11.712  22.624   0.451
27393W        W95798  19.561  11.373   4.266
27394W        W95799  36.024   9.141  14.881
27395W        W95800  42.335  13.898  14.305
27396W        W95801  33.215  20.733  13.853
27397W        W95802   6.772  31.216   3.008
27398W        W95803  22.127  26.712  12.836
27399W        W95804  34.002  11.826  12.073
27400W        W95805  18.037  12.608  11.559
27401W        W95806  32.344  40.999  13.495
27402W        W95807   9.834  21.626  10.621
27403W        W95808  41.896  32.377  13.011
27404W        W95809  41.497   1.845   3.605
27405W        W95810  37.972  44.912  11.338
27406W        W95811   6.890  26.245  14.964
27407W        W95812  34.421  10.265   3.075
27408W        W95813  10.904  18.669   4.216
27409W        W95814   5.851  42.164   4.268
27410W        W95815  40.058  15.887  14.476
27411W        W95816  38.306   9.898  13.535
27412W        W95817  11.700   1.760   1.386
27413W        W95818   6.347  11.422  10.713
27414W        W95819  27.925  32.653   0.758
27415W        W95820  21.048  22.091   4.556
27416W        W95821   7.460  20.852   4.670
27417W        W95822  12.661  32.855  11.502
27418W        W95823  18.680  36.079   1.847
27419W        W95824   0.743  35.980   4.207
27420W        W95825  30.201  28.862   3.057
27421W        W95826  21.977   0.152   4.527
27422W        W95827   9.804  39.414   0.668
27423W        W95828   5.009  35.646   3.796
27424W        W95829  30.671   0.500   0.933
27425W        W95830  43.005  14.586   3.452
27426W        W95831  37.615   7.858   2.351
27427W        W95832  17.413   0.918   3.728
27428W        W95833  23.731  13.859  11.511
27429W        W95834  16.318  34.357  12.974
27430W        W95835  43.252  22.285  13.127
27431W        W95836  37.132  20.267   1.867
27432W        W95837   7.170  43.280   2.726
27433W        W95838  29.738   5.728   2.405
27434W        W95839  33.712  18.116  11.281
27435W        W95840   4.708   0.289   1.334
27436W        W95841   5.859  23.387   1.355
27437W        W95842  33.697  32.944  10.882
27438W        W95843  13.298  18.931  11.890
27439W        W95844  37.681   8.995  13.293
27440W        W95845  30.429   2.950  13.420
27441W        W95846  10.969   9.326  13.520
27442W        W95847  19.605  35.183   3.236
27443W        W95848  31.697  26.953  10.970
27444W        W95849   3.719  35.544  10.909
27445W        W95850  27.719  22.800   0.450
27446W        W95851  33.907  34.741   0.370
27447W        W95852   3.795  17.936   2.278
27448W        W95853  19.701   0.395  12.508
27449W        W95854   0.501  43.462   4.605
27450W        W95855  19.559  38.759   2.474
27451W        W95856   8.067  30.381  14.521
27452W        W95857   7.179  43.274  10.596
27453W        W95858   6.279  11.923   3.552
27454W        W95859  39.936  20.214   0.437
27455W        W95860  28.224   9.930  14.380
27456W        W95861  23.116  26.469   3.966
27457W        W95862   2.853  26.900  13.101
27458W        W95863  23.000  27.382  11.506
27459W        W95864  24.542  15.095   1.872
27460W        W95865  37.347  15.877  11.018
27461W        W95866   5.865  11.538   3.373
27462W        W95867   4.353  23.151   0.253
27463W        W95868  12.393   9.912   4.157
27464W        W95869  33.015  15.510  12.932
27465W        W95870  37.078  14.329   2.245
27466W        W95871  28.018  32.577   4.102
27467W        W95872  16.410  38.574   4.355
27468W        W95873  16.767  13.005  13.579
27469W        W95874  18.182   2.137  10.944
27470W        W95875  28.631   4.620  13.906
27471W        W95876  36.757  10.220  13.342
27472W        W95877  31.328  33.501   3.656
27473W        W95878  25.121  13.869  11.140
27474W        W95879  21.333  40.253   3.688
27475W        W95880   5.315  43.855  10.605
27476W        W95881  43.240  35.970   0.025
27477W        W95882  35.977  35.106  13.020
27478W        W95883  38.026  36.924   2.208
27479W        W95884  34.124  43.623  13.387
27480W        W95885  19.147   7.866  11.695
27481W        W95886  11.736   6.629   2.669
27482W        W95887  42.052  43.898  14.511
27483W        W95888  42.981  17.280  14.896
27484W        W95889  44.035  13.591  13.884
27485W        W95890  23.496  14.562  10.745
27486W        W95891  43.772  22.618   3.323
27487W        W95892  44.750  37.363   4.198
27488W        W95893  33.980   3.373   4.625
27489W        W95894  20.894  44.460  11.478
27490W        W95895  16.375  10.120   4.115
27491W        W95896   4.447  44.025   3.131
27492W        W95897  14.233  20.276   0.877
27493W        W95898  12.311  39.424  14.182
27494W        W95899   5.664   1.833   5.053
27495W        W95900  17.293  30.800  11.900
27496W        W95901  14.611  18.757  13.816
27497W        W95902  25.200  21.940  10.760
27498W        W95903   5.633   9.204   2.894
27499W        W95904   1.736  21.947   2.494
27500W        W95905  38.013  44.181   2.447
27501W        W95906   0.828  12.546  12.654
27502W        W95907  29.685  34.597   4.625
27503W        W95908  10.833  44.952   4.129
27504W        W95909  30.111  36.861   1.086
27505W        W95910   8.317  16.162  11.683
27506W        W95911  24.050   4.904  12.077
27507W        W95912  41.440  12.301   4.465
27508W        W95913  22.453  20.747   3.099
27509W        W95914  33.918  28.304   1.716
27510W        W95915  44.393  21.349  12.625
27511W        W95916  13.919  37.147  12.442
27512W        W95917  18.735  14.654  12.983
27513W        W95918  12.727  39.068  14.808
27514W        W95919  39.388  11.217   0.885
27515W        W95920   3.351  23.155  13.883
27516W        W95921  34.017  13.682   3.680
27517W        W95922   8.778  42.766   0.021
27518W        W95923   4.279  39.987   0.247
27519W        W95924  34.531  17.112   1.400
27520W        W95925  22.978  20.736  11.332
27521W        W95926  15.616  10.359  10.608
27522W        W95927  31.556  44.558   4.673
27523W        W95928  41.447  28.022  10.883
27524W        W95929  37.729  31.922   4.688
27525W        W95930  12.062  42.894  10.137
27526W        W95931  21.606  13.599   3.698
27527W        W95932  26.543  24.252   5.201
27528W        W95933   3.213  24.643   3.188
27529W        W95934  17.281  44.304  10.580
27530W        W95935  32.108   9.363   0.934
27531W        W95936  44.529   8.685   1.721
27532W        W95937  10.620  44.944   3.671
27533W        W95938  17.243  44.879   0.726
27534W        W95939  40.883  30.191   0.082
27535W        W95940   4.396  36.503  12.131
27536W        W95941  21.127  19.539   1.292
27537W        W95942  32.455  19.074   1.177
27538W        W95943  31.548  18.840  12.351
27539W        W95944  21.921  36.876  12.051
27540W        W95945  19.757   7.574   3.713
27541W        W95946  12.430  18.214   1.222
27542W        W95947  18.665   9.400   3.597
27543W        W95948  43.960  17.557  12.401
27544W        W95949  20.585  37.131   3.078
27545W        W95950  28.130  21.288  11.095
27546W        W95951  40.028  35.653   0.073
27547W        W95952  42.838  37.508   1.443
27548W        W95953   9.021   8.966   0.946
27549W        W95954  27.599  28.910  10.537
27550W        W95955   3.830  37.746   0.284
27551W        W95956  13.140  12.194  11.022
27552W        W95957  18.467  38.934  10.373
27553W        W95958  14.120  24.613  10.510
27554W        W95959  30.996   3.882   3.174
27555W        W95960  15.109  21.128   4.647
27556W        W95961  26.335  20.639   0.464
27557W        W95962  23.248  25.143  11.377
27558W        W95963   3.612   1.797  11.108
27559W        W95964  10.598  10.424   1.649
27560W        W95965  19.951  35.281   5.145
27561W        W95966  34.016  26.343   4.187
27562W        W95967  37.412   2.735  11.942
27563W        W95968  39.495   0.892  10.569
27564W        W95969  13.606  44.526  11.116
27565W        W95970  20.507  41.508  14.145
27566W        W95971  28.556  10.045  12.728
27567W        W95972  12.765  33.494   2.599
27568W        W95973  20.177  27.839  13.855
27569W        W95974  20.230  28.080   1.829
27570W        W95975   5.466  17.806   3.068
27571W        W95976   0.359  20.660  13.882
27572W        W95977  31.682  31.342   4.564
27573W        W95978  20.711   2.722  12.872
27574W        W95979   5.804  24.449   4.756
27575W        W95980  18.498  30.183  11.800
27576W        W95981  14.645  23.054  13.993
27577W        W95982  20.792  40.610   0.884
27578W        W95983  40.638  24.523   0.221
27579W        W95984  23.446  12.847  13.000
27580W        W95985   3.242   9.742  13.079
27581W        W95986  24.847  26.023  14.434
27582W        W95987  11.053  31.043   3.303
27583W        W95988   9.756  10.200  10.654
27584W        W95989  33.891  13.672   1.638
27585W        W95990   6.576  22.962  14.563
27586W        W95991  36.572  19.217   2.636
27587W        W95992  38.019  42.410  13.494
27588W        W95993  43.196  32.712  12.368
27589W        W95994  12.326  22.488  10.450
27590W        W95995  21.013  10.883   3.673
27591W        W95996   6.454  37.865  10.822
27592W        W95997  43.470   6.297  14.126
27593W        W95998   5.685  27.595  11.439
27594W        W95999  24.289  16.170  13.047
27595W        W96000   1.765   6.949   1.332
27596W        W96001  19.675  28.572  14.999
27597W        W96002  41.810  38.205  11.621
27598W        W96003  14.658  16.860   1.520
27599W        W96004  20.929  24.225   5.277
27600W        W96005  41.926  10.649  13.474
27601W        W96006   6.988  34.933  13.982
27602W        W96007  34.568  22.995  14.849
27603W        W96008  40.312  25.250   3.627
27604W        W96009  44.083  27.064  11.103
27605W        W96010  20.305  28.284  14.746
27606W        W96011  41.590  42.530   0.296
27607W        W96012   3.118  18.618  12.168
27608W        W96013  11.868  17.741   1.745
27609W        W96014  33.413  24.109   4.162
27610W        W96015  19.547  28.145   0.247
27611W        W96016  31.571  16.025  14.808
27612W        W96017   7.654  44.948  11.508
27613W        W96018  13.603  37.369   3.652
27614W        W96019  21.337  15.753   3.211
27615W        W96020  30.363  19.289  11.067
27616W        W96021  10.048   1.234  10.418
27617W        W96022  15.868   9.567  14.363
27618W        W96023  42.040  38.067  13.402
27619W        W96024   3.559  22.767  14.830
27620W        W96025  34.431  33.739  12.591
27621W        W96026  21.150  25.890  10.646
27622W        W96027  27.598   7.183  12.479
27623W        W96028  23.894  16.192   4.315
27624W        W96029  30.078  21.009  10.077
27625W        W96030  16.746  18.501  13.184
27626W        W96031  41.245  32.624   0.562
27627W        W96032  13.862   3.400  11.525
27628W        W96033  21.336   1.380   0.723
27629W        W96034  38.356  14.714  10.773
27630W        W96035  30.145   1.876   3.252
27631W        W96036  12.407  43.669  14.370
27632W        W96037  36.269  19.258   0.861
27633W        W96038  27.113  26.895   4.074
27634W        W96039  17.471  41.012   0.732
27635W        W96040   2.478  40.803  12.505
27636W        W96041  29.491  40.332  14.330
27637W        W96042   9.325  28.617   0.657
27638W        W96043  30.066  17.663  14.607
27639W        W96044  15.710  31.190  14.417
27640W        W96045  29.894  14.763  12.632
27641W        W96046  16.936  43.895  14.399
27642W        W96047  16.371  21.524  10.763
27643W        W96048  27.363  12.792  11.721
27644W        W96049  19.199  36.516   2.425
27645W        W96050  11.021   4.090   1.435
27646W        W96051  12.769  10.231   1.864
27647W        W96052  39.617  26.833  13.474
27648W        W96053  18.089  41.763   0.371
27649W        W96054  43.815  24.456   2.487
27650W        W96055  30.703  24.901  13.144
27651W        W96056   3.815   3.186   3.618
27652W        W96057  30.200  26.732  14.649
27653W        W96058  22.944  13.329   0.930
27654W        W96059  41.365  40.128  13.866
27655W        W96060  16.128  39.862   4.737
27656W        W96061  35.552   8.818  11.542
27657W        W96062  39.860  43.023  10.435
27658W        W96063  33.103  21.947  12.965
27659W        W96064  31.564  37.900   0.417
27660W        W96065  34.072   5.304  10.885
27661W        W96066   6.229  23.249  10.330
27662W        W96067  21.027   7.380   3.265
27663W        W96068  20.538  22.693   3.040
27664W        W96069  22.451  17.682   3.325
27665W        W96070  36.321   4.448   3.896
27666W        W96071  17.245   6.027   4.572
27667W        W96072  33.311  28.378  12.563
27668W        W96073  35.563  36.527   1.851
27669W        W96074  42.393  16.399   1.670
27670W        W96075  35.025  11.682   0.367
27671W        W96076  20.049  21.283   0.232
27672W        W96077   0.511   4.943   1.139
27673W        W96078  33.535  26.489  11.156
27674W        W96079  10.873  30.593   1.974
27675W        W96080  10.119   2.423   0.321
27676W        W96081  40.491   1.004  10.744
27677W        W96082   0.443  25.175  14.999
27678W        W96083  13.360   6.337  11.177
27679W        W96084  43.389  12.272   0.748
27680W        W96085  14.902  22.252  11.135
27681W        W96086  22.135  14.154   0.774
27682W        W96087  28.735  44.650   1.187
27683W        W96088  38.032  14.488   4.920
27684W        W96089  28.223  39.059  14.062
27685W        W96090  34.008  26.665  14.004
27686W        W96091  32.201  37.427  12.100
27687W        W96092  21.794  43.043  11.136
27688W        W96093  34.081  31.605   4.690
27689W        W96094  37.472   9.418  12.448
27690W        W96095   2.473  17.794  13.339
27691W        W96096   6.637   2.408   3.776
27692W        W96097  22.135  43.015   2.742
27693W        W96098  22.088   8.694   1.836
27694W        W96099  10.639  43.523  12.040
27695W        W96100  11.808  17.621  14.212
27696W        W96101  10.722  22.716  14.039
27697W        W96102  21.483   2.127   1.874
27698W        W96103  38.184   1.805   4.205
27699W        W96104  42.446   9.749   4.133
27700W        W96105  10.233  27.333  13.437
27701W        W96106  42.792  11.182   3.402
27702W        W96107   3.434  20.488  13.499
27703W        W96108  40.046  43.176   1.884
27704W        W96109  25.692  44.967   0.375
27705W        W96110  26.112   6.819   1.844
27706W        W96111   0.263  43.857  10.888
27707W        W96112  39.222  33.560  11.191
27708W        W96113  20.772  31.479  11.737
27709W        W96114  35.483  33.005  13.506
27710W        W96115  24.242  30.533  13.879
27711W        W96116  35.930  32.136  14.864
27712W        W96117  13.394  24.145  13.586
27713W        W96118  44.320  43.998   2.861
27714W        W96119  17.645  13.742  10.895
27715W        W96120  19.665   8.393   1.053
27716W        W96121  40.853  34.167   4.306
27717W        W96122   2.681  12.539   5.013
27718W        W96123  26.646  13.803   1.679
27719W        W96124  31.405  43.043  11.504
27720W        W96125  16.869  27.561   4.978
27721W        W96126  33.402  13.539  14.296
27722W        W96127   9.734  19.170   0.001
27723W        W96128  12.574  31.416  12.979
27724W        W96129  27.545  14.637  13.165
27725W        W96130  17.998  35.493  13.996
27726W        W96131  29.057  24.482   2.606
27727W        W96132  30.598  36.137   3.231
27728W        W96133   4.407   3.991   4.522
27729W        W96134  11.077  19.619   4.657
27730W        W96135  24.356  34.425  10.743
27731W        W96136  38.778  39.076   2.706
27732W        W96137   9.737  44.843   2.250
27733W        W96138   1.190  37.144   1.349
27734W        W96139  27.633  10.444  11.705
27735W        W96140  42.325  24.098  14.683
27736W        W96141  21.637  40.146   4.081
27737W        W96142  30.419  35.464   0.677
27738W        W96143  12.649  15.592   2.157
27739W        W96144   7.680   4.890   2.435
27740W        W96145  15.488  31.520  11.009
27741W        W96146  30.153  33.880   1.405
27742W        W96147  26.526  21.926   0.171
27743W        W96148  16.531  18.149   0.055
27744W        W96149  42.407  19.787   1.326
27745W        W96150   2.972  23.339   1.826
27746W        W96151  22.988  13.187  13.812
27747W        W96152  14.686  32.385   4.045
27748W        W96153   0.800   9.471   2.364
27749W        W96154  10.207   0.520  12.222
27750W        W96155  42.286  36.998  13.572
27751W        W96156  37.621  34.561   2.886
27752W        W96157   7.673  10.242   0.850
27753W        W96158   0.745  29.986   1.186
27754W        W96159  26.175  39.897   1.280
27755W        W96160  10.498   0.686   1.493
27756W        W96161  32.245  30.094   4.549
27757W        W96162   4.906  30.236   1.163
27758W        W96163  33.610  36.764  14.873
27759W        W96164  16.183  34.534  14.897
27760W        W96165  16.301  27.606  12.066
27761W        W96166  22.536  37.876  14.198
27762W        W96167   8.892  33.075   9.842
27763W        W96168  30.019  17.669   2.628
27764W        W96169  12.305  28.680  10.781
27765W        W96170  37.978  34.538  12.144
27766W        W96171   7.205  40.826   4.328
27767W        W96172  18.513  31.613   4.621
27768W        W96173  34.927  26.989   1.257
27769W        W96174   2.126  38.815  14.733
27770W        W96175  23.658   7.333  10.807
27771W        W96176  30.703  42.901   3.229
27772W        W96177   3.002  29.027  13.421
27773W        W96178   1.758  44.256   5.062
27774W        W96179  21.719  17.069   2.901
27775W        W96180  41.405   7.353  10.484
27776W        W96181  15.591  19.794   0.853
27777W        W96182   8.442  22.028  14.383
27778W        W96183  28.554  41.509   2.453
27779W        W96184  40.284  30.643  10.656
27780W        W96185   2.001   1.233  12.346
27781W        W96186  32.903  12.174   4.614
27782W        W96187   1.241  40.840  13.949
27783W        W96188  38.290  43.525   4.386
27784W        W96189  26.213  18.159   4.623
27785W        W96190  28.011  18.724  13.346
27786W        W96191   0.903  19.122  13.466
27787W        W96192  38.224  38.113   3.746
27788W        W96193  11.091  36.664   0.781
27789W        W96194  38.828   2.784  10.603
27790W        W96195   7.861  26.013  11.904
27791W        W96196  41.449  30.689   1.255
27792W        W96197  35.113  38.674  11.176
27793W        W96198  33.076   5.449  14.567
27794W        W96199  33.035  35.789   1.117
27795W        W96200   8.784  11.147  10.641
27796W        W96201   2.503  44.567  10.105
27797W        W96202  15.397  32.651   3.266
27798W        W96203  12.643  38.430  12.905
27799W        W96204  34.547   4.776  14.460
27800W        W96205   0.810   1.969   0.260
27801W        W96206  17.704  14.918  12.166
27802W        W96207  28.708  26.469   3.685
27803W        W96208  30.177  36.815   4.265
27804W        W96209  35.994  22.720   4.141
27805W        W96210  44.393   5.229  11.574
27806W        W96211  36.691  42.199  12.150
27807W        W96212  16.133  39.994   3.679
27808W        W96213   6.926  28.048  13.251
27809W        W96214   8.399   7.360   4.419
27810W        W96215   7.557  30.100   5.024
27811W        W96216  38.076  19.133   1.234
27812W        W96217  41.314  13.565   0.850
27813W        W96218  24.750  36.363  14.043
27814W        W96219  33.418   3.155  11.170
27815W        W96220   1.192   8.233   0.789
27816W        W96221  42.159  35.878  13.010
27817W        W96222  33.057  38.515  14.541
27818W        W96223  41.053  42.060  10.797
27819W        W96224   4.468  32.892  13.366
27820W        W96225  13.062   6.871  14.219
27821W        W96226  39.291  15.354  13.455
27822W        W96227   5.324  31.078  13.410
27823W        W96228  25.009  29.624   0.235
27824W        W96229  28.005   9.964   1.406
27825W        W96230  18.088  26.091  10.347
27826W        W96231  11.402  28.422  13.406
27827W        W96232  38.866  41.260  11.632
27828W        W96233   9.868  17.224   3.137
27829W        W96234  26.142  39.967   5.021
27830W        W96235  44.112  40.906  14.740
27831W        W96236  15.581  27.185   2.229
27832W        W96237  16.339   2.318  11.008
27833W        W96238  18.336  14.159  11.521
27834W        W96239  17.347  16.699  11.167
27835W        W96240  11.821  18.688   1.559
27836W        W96241  41.842   5.905   0.721
27837W        W96242  35.472  16.525   1.314
27838W        W96243  22.289  33.873  10.745
27839W        W96244  43.989  38.068  12.730
27840W        W96245  35.170   0.801  11.748
27841W        W96246  35.656  31.490  13.962
27842W        W96247  20.204  41.540  12.044
27843W        W96248  24.978  36.384  10.698
27844W        W96249  34.463  14.863  11.411
27845W        W96250   8.103  44.541  13.046
27846W        W96251  27.085  21.776  14.090
27847W        W96252  20.633   4.171   4.539
27848W        W96253  34.864  18.442   4.393
27849W        W96254   4.791  43.827   3.548
27850W        W96255  25.441  22.170   1.731
27851W        W96256  24.509   0.032  12.046
27852W        W96257  14.529   4.292   0.971
27853W        W96258  16.556   9.400   3.311
27854W        W96259  40.422  21.015  10.191
27855W        W96260  20.780  19.981  12.040
27856W        W96261   9.432  16.194  12.545
27857W        W96262  41.182   1.897  12.497
27858W        W96263  24.157   0.167   2.800
27859W        W96264  44.403  14.088   3.932
27860W        W96265  10.234  36.638  11.441
27861W        W96266  43.849  11.530   1.871
27862W        W96267  17.510   6.124   2.835
27863W        W96268  12.050  15.834  10.195
27864W        W96269  10.400  26.793   4.782
27865W        W96270  33.435  24.544   0.859
27866W        W96271  30.883   1.268   3.691
27867W        W96272  14.508   3.292   2.690
27868W        W96273   8.855  18.864  12.827
27869W        W96274  35.122  32.047   3.306
27870W        W96275  10.779  36.815  12.367
27871W        W96276   3.462   1.740   4.010
27872W        W96277  41.632  27.607  11.198
27873W        W96278  14.233  31.401  12.852
27874W        W96279  43.484  11.389  14.388
27875W        W96280  24.725  42.242   1.717
27876W        W96281  11.306   6.830  10.732
27877W        W96282   9.658   9.826  12.329
27878W        W96283   5.279   6.621   0.687
27879W        W96284  18.805  12.708   1.342
27880W        W96285  41.010  24.669  12.896
27881W        W96286  35.567  43.092   2.774
27882W        W96287  20.433  36.050   0.747
27883W        W96288  33.062   4.406  10.326
27884W        W96289   1.978  16.062   3.619
27885W        W96290  34.721  29.674  14.043
27886W        W96291  33.590   7.423   1.781
27887W        W96292  32.800  27.578  14.239
27888W        W96293  35.906  36.378  12.558
27889W        W96294  19.470  38.492   0.868
27890W        W96295  13.114  38.081   4.336
27891W        W96296  15.085   7.988  11.438
27892W        W96297  29.701  36.034  14.338
27893W        W96298   5.048  14.596  14.484
27894W        W96299   0.804  30.614  12.475
27895W        W96300  23.539  36.792  14.454
27896W        W96301  41.827   2.895   0.087
27897W        W96302  34.982   1.201   1.279
27898W        W96303  18.600  11.872   4.590
27899W        W96304  10.791  34.709   0.403
27900W        W96305  43.261   7.241  10.592
27901W        W96306  19.732  15.197   4.992
27902W        W96307  11.041   4.445   4.716
27903W        W96308   2.271  36.798   1.291
27904W        W96309  27.450  18.773   2.400
27905W        W96310  18.767  20.598   5.152
27906W        W96311  37.135  35.663  13.540
27907W        W96312  37.378  36.805   1.181
27908W        W96313  38.949   5.440  14.531
27909W        W96314  37.292   3.316  13.833
27910W        W96315  25.872  16.721   1.883
27911W        W96316  41.818   3.606  13.512
27912W        W96317  40.449  32.566  14.380
27913W        W96318  38.958  16.540   4.730
27914W        W96319  25.768  36.532  11.935
27915W        W96320   0.287  10.661   0.323
27916W        W96321   4.949  32.070  10.716
27917W        W96322  33.789  15.634  13.697
27918W        W96323   7.653  35.905  13.241
27919W        W96324  31.150  34.965  11.685
27920W        W96325  34.459  21.598   4.530
27921W        W96326  37.462  26.438   3.242
27922W        W96327  33.298  26.361   4.623
27923W        W96328  32.706   3.761  14.750
27924W        W96329  31.954  44.186   1.446
27925W        W96330   6.791  34.873   3.726
27926W        W96331  28.298   8.300   0.927
27927W        W96332  38.269  28.551   4.545
27928W        W96333   9.331  30.344  13.935
27929W        W96334   8.997  24.217   0.402
27930W        W96335  44.424  39.482   1.277
27931W        W96336  41.790  32.570   1.258
27932W        W96337  16.191   3.539   2.923
27933W        W96338  26.096  10.419   4.899
27934W        W96339  28.698   3.557   0.672
27935W        W96340  10.095  17.297  11.050
27936W        W96341   2.547   2.039   4.508
27937W        W96342  32.600  10.813  12.792
27938W        W96343  11.217   5.592   4.119
27939W        W96344   2.284   3.218  13.304
27940W        W96345  38.371  17.242  14.070
27941W        W96346  35.614  28.771   4.107
27942W        W96347  37.862  26.267   0.635
27943W        W96348  27.437  37.435  12.412
27944W        W96349  28.000   1.464  13.775
27945W        W96350   4.176  26.238  10.705
27946W        W96351   9.185  38.020  11.484
27947W        W96352  28.193  14.054   1.413
27948W        W96353  39.114  34.197  11.986
27949W        W96354  23.663  15.923  12.457
27950W        W96355   1.272   1.189  11.163
27951W        W96356  37.245   9.153  12.062
27952W        W96357  34.658   9.379   0.975
27953W        W96358  26.830  35.138  13.899
27954W        W96359  11.565  17.079  13.574
27955W        W96360  16.760  20.525   2.973
27956W        W96361  15.542   7.399   2.398
27957W        W96362  28.192  31.012   2.891
27958W        W96363  15.056  30.653  14.904
27959W        W96364  43.483  35.279   2.747
27960W        W96365  41.331   4.211   1.852
27961W        W96366  26.902  37.896  14.112
27962W        W96367  14.299  43.609   2.337
27963W        W96368  17.067  32.506   0.717
27964W        W96369   8.981  17.321  12.055
27965W        W96370  35.439  30.422   0.177
27966W        W96371  30.630  42.250   3.809
27967W        W96372  44.044  16.231  11.088
27968W        W96373   3.838  37.663  12.134
27969W        W96374  23.772   7.412  12.901
27970W        W96375  38.161  42.400  11.642
27971W        W96376  35.636   6.126   2.033
27972W        W96377   7.853  43.443  13.037
27973W        W96378  33.044  37.635  13.352
27974W        W96379  18.709  13.756   1.229
27975W        W96380  26.253  39.514  14.093
27976W        W96381  12.888  17.460  11.512
27977W        W96382  25.505  36.121   4.573
27978W        W96383  12.207   6.054  11.497
27979W        W96384  24.561   2.111   1.767
27980W        W96385  36.174  27.974  14.358
27981W        W96386  40.420  15.863   5.107
27982W        W96387  24.966  23.528   2.836
27983W        W96388  29.587  13.921   3.313
27984W        W96389   0.111   3.952  12.884
27985W        W96390  10.773  20.233   3.656
27986W        W96391  40.821  40.545   1.801
27987W        W96392  44.746   2.382  14.939
27988W        W96393  31.808   9.722   1.306
27989W        W96394  38.974  22.553   2.380
27990W        W96395  32.427   2.411  14.575
27991W        W96396  42.749  11.571  13.058
27992W        W96397  40.816  22.430   0.887
27993W        W96398  11.403  30.651   1.982
27994W        W96399  38.406   1.719   0.727
27995W        W96400  29.042   3.198  11.552
27996W        W96401  40.010   1.479  13.113
27997W        W96402  27.976  19.500   2.280
27998W        W96403  11.688  15.301  14.403
27999W        W96404   3.794  27.140   4.297
28000W        W96405  43.861  35.643  14.233
28001W        W96406  11.703   3.758  12.112
28002W        W96407  25.667  44.286  14.830
28003W        W96408  17.953  20.479  12.502
28004W        W96409  37.489  12.231   3.443
28005W        W96410  37.943  14.927   4.664
28006W        W96411  14.189   2.163  13.314
28007W        W96412  17.622  21.774  10.706
28008W        W96413   3.850  23.140  12.356
28009W        W96414  38.609   5.087  10.355
28010W        W96415  36.335   0.524   1.349
28011W        W96416  20.148  39.030   3.340
28012W        W96417  20.810  33.644  11.351
28013W        W96418  27.952   1.310  13.270
28014W        W96419  25.534   5.864   1.853
28015W        W96420   8.238  42.847   0.329
28016W        W96421  24.774  38.322   0.858
28017W        W96422   1.852  21.713  10.749
28018W        W96423  44.748   3.984   4.583
28019W        W96424  15.625  16.028   2.820
28020W        W96425   8.153  36.122  12.045
28021W        W96426  29.013   6.598  10.658
28022W        W96427  21.659   5.642   4.177
28023W        W96428  41.571  21.653  11.778
28024W        W96429  28.437  39.783   3.025
28025W        W96430  42.500  14.612  11.602
28026W        W96431  43.790  43.804   0.046
28027W        W96432  38.141  42.508   1.394
28028W        W96433   5.577  18.155   2.308
28029W        W96434   1.227   3.118  13.912
28030W        W96435  27.669   5.804   4.019
28031W        W96436  33.150  12.747   0.845
28032W        W96437  18.638  37.482   4.252
28033W        W96438   5.191  24.546   2.798
28034W        W96439  23.328  38.852   2.964
28035W        W96440  21.327  14.274   3.639
28036W        W96441  13.890  12.371   3.231
28037W        W96442  43.022  43.211   4.997
28038W        W96443  35.920  18.724  12.861
28039W        W96444  39.071  30.112  11.057
28040W        W96445  33.640   2.007   3.735
28041W        W96446  11.666   2.211   4.106
28042W        W96447   5.249  40.228  11.136
28043W        W96448  17.968  12.479   4.080
28044W        W96449  34.506  11.804  12.058
28045W        W96450  25.135  17.710   3.875
28046W        W96451  30.426  27.285   1.792
28047W        W96452  23.778  30.510   3.788
28048W        W96453   4.787  13.794   3.643
28049W        W96454   1.800  18.141   1.773
28050W        W96455  12.149  21.800  13.005
28051W        W96456  19.983  38.436   1.742
28052W        W96457  17.604  20.864  14.882
28053W        W96458  31.638  43.098  11.052
28054W        W96459  24.562  32.185  10.257
28055W        W96460  38.967   0.846  10.684
28056W        W96461  39.517  20.255   1.401
28057W        W96462  24.129   3.409   0.841
28058W        W96463   9.811  11.148  12.933
28059W        W96464   0.656   5.982  12.969
28060W        W96465  21.771  29.856  13.393
28061W        W96466   0.842   8.168  14.963
28062W        W96467   5.675   3.319   1.714
28063W        W96468  28.407  25.462   4.694
28064W        W96469  15.630  24.759   2.182
28065W        W96470   9.674  11.167   1.189
28066W        W96471   2.532  36.349   3.725
28067W        W96472   7.132  41.521  11.162
28068W        W96473  40.596  11.707  11.061
28069W        W96474   5.724  39.586  14.425
28070W        W96475  42.538  35.033  13.943
28071W        W96476  42.310   0.901   1.313
28072W        W96477  13.230  30.378   0.003
28073W        W96478  14.958  23.245  11.237
28074W        W96479  33.954  25.464  14.359
28075W        W96480  15.344  35.053  12.400
28076W        W96481  18.760  24.541  10.996
28077W        W96482  32.883  33.945  14.614
28078W        W96483   1.427   5.022   1.170
28079W        W96484  26.773   2.279   5.128
28080W        W96485  31.015   7.849  11.145
28081W        W96486  28.012  24.691   0.332
28082W        W96487  15.264   4.895  14.358
28083W        W96488   1.404   9.771   4.680
28084W        W96489  19.430  30.196  12.457
28085W        W96490  21.767  20.771   4.675
28086W        W96491  21.501   7.335  10.768
28087W        W96492   9.110   6.660   0.882
28088W        W96493  42.345   5.662  12.394
28089W        W96494  14.681   9.690   0.727
28090W        W96495  16.349  15.092  13.191
28091W        W96496   2.048   0.136   0.425
28092W        W96497   1.836   8.485   4.140
28093W        W96498   7.378  29.450   4.257
28094W        W96499  19.655  25.509   1.706
28095W        W96500  35.510  31.560   0.854
28096W        W96501  24.874  18.877  14.371
28097W        W96502  34.568  18.478  12.967
28098W        W96503  35.905  10.848   1.763
28099W        W96504  43.248   4.343   1.799
28100W        W96505   2.007  11.826  14.147
28101W        W96506   1.000  11.097  11.887
28102W        W96507   0.275  38.812   4.620
28103W        W96508  24.897   9.217   0.554
28104W        W96509   8.339   1.731   0.922
28105W        W96510  38.671  25.450  13.024
28106W        W96511  36.442  19.079  14.019
28107W        W96512  41.391  10.761  11.880
28108W        W96513  17.091  31.140   0.747
28109W        W96514  20.154  36.741   3.995
28110W        W96515  44.912   6.929   2.383
28111W        W96516  33.190  34.658  10.968
28112W        W96517  17.218  15.835   2.124
28113W        W96518   9.134  31.461   0.775
28114W        W96519  31.764  32.953  14.894
28115W        W96520  40.189   3.331   0.718
28116W        W96521  10.034   0.211   9.664
28117W        W96522  11.533   1.235  13.372
28118W        W96523  39.561  21.793  12.442
28119W        W96524  31.417   9.004  13.960
28120W        W96525  25.294  22.141  12.193
28121W        W96526  25.805  15.642   4.592
28122W        W96527   8.612  34.259  11.955
28123W        W96528  19.268   4.994  11.564
28124W        W96529  31.689  42.907  14.157
28125W        W96530  36.320   0.518   4.650
28126W        W96531  33.028   6.860   0.299
28127W        W96532  16.979  29.070   0.485
28128W        W96533  25.592   1.930   1.319
28129W        W96534  20.247   7.995   2.913
28130W        W96535  37.869  29.056  13.072
28131W        W96536  14.290  27.170  13.850
28132W        W96537  39.818  29.719  11.195
28133W        W96538  40.361   5.973  14.433
28134W        W96539  15.256  35.855   4.470
28135W        W96540  11.179  14.187  13.495
28136W        W96541  23.590  37.122  10.740
28137W        W96542  16.746   3.996   3.830
28138W        W96543  35.734   4.725  13.944
28139W        W96544  44.918  32.769   4.110
28140W        W96545   6.923  29.008   2.780
28141W        W96546  41.462  16.635   0.446
28142W        W96547  30.936  11.626  11.162
28143W        W96548  44.834  26.911  10.616
28144W        W96549   6.669  13.203   4.245
28145W        W96550  32.022  41.613   3.246
28146W        W96551  14.698   0.981   1.340
28147W        W96552   0.951  35.915   2.266
28148W        W96553  24.295   8.341  13.290
28149W        W96554  17.774  25.980  10.928
28150W        W96555  20.252  13.848   1.721
28151W        W96556  11.755   0.359   2.936
28152W        W96557  30.709   1.444  12.545
28153W        W96558  28.302  17.854  10.785
28154W        W96559  41.280  43.081  13.034
28155W        W96560   7.366  23.550  12.720
28156W        W96561  32.649  43.362   1.357
28157W        W96562  38.581  36.935  11.640
28158W        W96563  14.523  14.278  11.205
28159W        W96564  25.994  36.434  13.191
28160W        W96565  38.437  23.685   4.589
28161W        W96566  11.095  18.609  11.183
28162W        W96567   1.611  29.029   1.413
28163W        W96568  24.747  15.127   0.947
28164W        W96569   7.788  26.453   0.097
28165W        W96570  17.430  17.272   0.385
28166W        W96571  32.916   5.910   3.614
28167W        W96572  16.732  15.990   2.289
28168W        W96573  19.060  43.939  12.328
28169W        W96574  10.282  22.516   4.583
28170W        W96575  34.934   5.464  11.663
28171W        W96576  14.110   5.905   1.439
28172W        W96577  31.133   4.683  14.893
28173W        W96578  12.509  44.793  11.185
28174W        W96579  24.918   5.992  14.971
28175W        W96580  25.764  34.487   0.378
28176W        W96581  27.877  18.714   2.654
28177W        W96582  14.683  16.133   4.509
28178W        W96583  33.929  44.676   1.397
28179W        W96584  13.051  23.706   3.308
28180W        W96585  25.837  15.799  10.301
28181W        W96586  39.157  13.097   4.325
28182W        W96587   9.741   7.266   4.843
28183W        W96588  12.273  14.432   1.649
28184W        W96589   8.002   4.897  11.225
28185W        W96590  33.812  29.753  12.497
28186W        W96591  10.334   8.263   2.438
28187W        W96592  22.641  19.920   0.832
28188W        W96593  17.730   5.930  13.905
28189W        W96594  31.915  24.867  10.432
28190W        W96595   5.005   3.664  13.554
28191W        W96596   4.366  16.134   4.710
28192W        W96597  14.108  43.818  10.743
28193W        W96598  34.445  32.687  12.609
28194W        W96599   6.917  15.489  13.323
28195W        W96600  29.575  26.192   0.897
28196W        W96601  23.565  25.776  12.008
28197W        W96602  22.479   6.178   4.237
28198W        W96603   3.843  22.252   4.088
28199W        W96604  32.980  41.537  13.682
28200W        W96605  17.388  11.183  10.498
28201W        W96606  39.306  17.281   2.276
28202W        W96607  30.565  35.061  13.911
28203W        W96608  25.090  38.941   4.084
28204W        W96609  36.002  19.469   3.614
28205W        W96610   0.386  30.053  12.553
28206W        W96611  26.620   0.020   0.367
28207W        W96612  31.882  21.067  13.773
28208W        W96613  27.146  16.332  12.300
28209W        W96614  13.766   6.265   1.296
28210W        W96615   0.489  40.818  11.683
28211W        W96616  11.224  26.767   2.449
28212W        W96617   1.943  39.936   2.857
28213W        W96618  10.305  30.090   0.832
28214W        W96619  13.533  36.856   3.644
28215W        W96620  41.992  32.154   3.681
28216W        W96621  24.524  29.886  12.848
28217W        W96622  41.808  11.938   1.422
28218W        W96623  30.478   4.307  10.771
28219W        W96624  44.259  14.543  12.864
28220W        W96625  19.771  17.601   3.722
28221W        W96626  33.913  33.162  13.318
28222W        W96627  10.778  25.001  13.478
28223W        W96628  22.197  23.930  13.205
28224W        W96629  36.852  29.946  13.939
28225W        W96630  12.326   3.354   0.064
28226W        W96631  11.672  10.911  12.503
28227W        W96632  44.960  11.567   3.274
28228W        W96633  20.625  24.455   1.725
28229W        W96634  12.183   5.147   2.773
28230W        W96635   3.460  10.132  14.999
28231W        W96636  29.889  30.230  11.573
28232W        W96637  18.644   6.561   3.297
28233W        W96638   3.689  15.200  12.833
28234W        W96639  29.575  41.415   1.368
28235W        W96640  20.607   3.235  10.696
28236W        W96641  14.794  26.367  12.525
28237W        W96642  21.330  23.049   3.421
28238W        W96643   5.958  20.161  12.025
28239W        W96644  36.570  19.077  14.524
28240W        W96645  40.520  36.138  13.516
28241W        W96646  11.126  15.081  10.659
28242W        W96647  18.172   3.991  14.300
28243W        W96648  21.158  33.952   0.808
28244W        W96649  24.700  44.231   3.356
28245W        W96650  38.323  25.598  12.110
28246W        W96651  43.577  38.554   4.827
28247W        W96652  16.710  15.345  10.688
28248W        W96653   5.910  11.253  10.511
28249W        W96654  40.584  22.677  11.035
28250W        W96655  43.363  11.994   1.170
28251W        W96656  25.106  24.007   2.677
28252W        W96657  14.858  18.674  12.395
28253W        W96658   3.743  11.332   4.717
28254W        W96659  26.929  36.971   0.688
28255W        W96660   1.140   9.668   1.937
28256W        W96661  11.237  26.969  13.956
28257W        W96662  37.328   7.311  12.067
28258W        W96663  22.126  26.018   0.563
28259W        W96664  20.149  10.819  14.187
28260W        W96665  31.692  23.717   4.414
28261W        W96666  27.569  26.199  13.968
28262W        W96667  11.154  29.554   0.889
28263W        W96668  39.905  10.600   1.850
28264W        W96669   2.976  32.485  14.835
28265W        W96670  36.594   5.607  10.710
28266W        W96671  37.893  29.572   0.336
28267W        W96672  13.385  24.246   4.666
28268W        W96673  19.075  33.572  12.048
28269W        W96674  40.447  20.259   0.395
28270W        W96675  26.459   3.224   2.902
28271W        W96676  29.976  16.344   0.916
28272W        W96677  27.931  14.102  14.003
28273W        W96678  13.735  19.524   3.644
28274W        W96679  19.936   0.401   1.208
28275W        W96680  11.287  22.550   2.395
28276W        W96681  43.890   8.897  12.960
28277W        W96682  13.380  37.264  13.067
28278W        W96683   5.205   8.242   3.639
28279W        W96684  22.835  35.566   2.994
28280W        W96685  30.166  34.666  12.457
28281W        W96686  16.534  10.757  13.995
28282W        W96687  28.046   9.636  11.066
28283W        W96688  42.331  39.398  14.538
28284W        W96689  44.691  24.461   1.225
28285W        W96690  11.382   9.399  11.539
28286W        W96691  17.308  37.886   0.264
28287W        W96692  41.796  17.481  11.925
28288W        W96693  15.739   4.332   1.808
28289W        W96694  32.056  40.456   3.627
28290W        W96695  24.695  27.650  11.335
28291W        W96696  16.806   3.408  12.086
28292W        W96697   5.774  23.027  14.539
28293W        W96698  27.215  29.407  14.897
28294W        W96699  31.645  42.131  10.644
28295W        W96700   3.324  35.020   4.948
28296W        W96701  17.837  21.178   2.208
28297W        W96702   7.835  27.770   0.673
28298W        W96703  40.376   1.748  11.888
28299W        W96704  19.091   5.892  14.822
28300W        W96705  35.764  28.235  14.536
28301W        W96706  25.978  28.483  13.390
28302W        W96707  23.196   1.502  13.764
28303W        W96708  17.537   9.171   0.028
28304W        W96709  17.123   0.999   2.758
28305W        W96710  19.984  31.894  14.273
28306W        W96711  41.213  25.551   1.717
28307W        W96712   1.965  26.044   2.696
28308W        W96713  29.620  12.754  13.938
28309W        W96714   9.823   8.752  11.156
28310W        W96715  16.606  29.410  11.988
28311W        W96716  12.143  16.126  12.470
28312W        W96717  43.862  31.429   4.346
28313W        W96718  10.420  13.844  13.097
28314W        W96719  20.265  14.365  14.081
28315W        W96720  10.879  33.374  14.886
28316W        W96721   7.026  31.871  14.133
28317W        W96722  36.363   4.889   3.616
28318W        W96723   5.673  19.048  11.610
28319W        W96724  32.545  30.482   1.850
28320W        W96725   1.927   9.249   4.114
28321W        W96726   7.716  17.230   1.516
28322W        W96727  22.981  21.043   1.306
28323W        W96728  18.798  30.353   5.029
28324W        W96729  10.661  41.472   2.877
28325W        W96730  42.984  38.086   2.105
28326W        W96731  13.277  33.304   0.063
28327W        W96732  11.071  12.295   0.525
28328W        W96733  34.930  27.213  14.828
28329W        W96734  42.117  15.734   3.573
28330W        W96735   9.841  39.550   3.719
28331W        W96736   2.436   8.422   2.232
28332W        W96737  22.253  43.257  14.251
28333W        W96738  24.941  41.617   4.953
28334W        W96739  17.189  40.119  13.804
28335W        W96740   1.293  30.783   0.254
28336W        W96741  20.647  35.767   9.995
28337W        W96742  14.340  21.302  11.936
28338W        W96743  36.378  38.961  10.775
28339W        W96744  41.744  11.449  12.084
28340W        W96745  11.623  16.193   2.999
28341W        W96746  44.401  20.903   4.773
28342W        W96747  41.333  26.086  11.503
28343W        W96748  26.348  29.498  13.353
28344W        W96749  10.865  24.630   1.775
28345W        W96750   4.581  39.443  14.682
28346W        W96751   9.104  35.625   2.930
28347W        W96752  22.337   7.809  13.126
28348W        W96753  21.617  23.307   0.882
28349W        W96754  21.689   1.739   0.889
28350W        W96755  23.658  11.801   0.014
28351W        W96756  26.128  25.334   4.165
28352W        W96757  25.119  39.367  11.750
28353W        W96758  11.375  18.884   0.414
28354W        W96759  23.021  16.439  13.980
28355W        W96760   4.365   7.226   0.332
28356W        W96761   4.724  39.587   1.888
28357W        W96762  12.296  39.366  13.091
28358W        W96763  29.710  20.892  12.411
28359W        W96764  39.135  24.689  12.468
28360W        W96765  43.013   3.467   2.607
28361W        W96766  43.816  25.037   4.601
28362W        W96767  16.585  11.147  14.411
28363W        W96768  31.712   6.642   4.256
28364W        W96769   7.343  37.430   2.392
28365W        W96770  40.957  40.366   0.976
28366W        W96771  34.490  13.668   2.026
28367W        W96772  40.661  13.814  14.262
28368W        W96773  22.178  20.501   2.310
28369W        W96774  38.894  40.435   1.990
28370W        W96775  34.404  16.122   3.081
28371W        W96776  21.874  11.349   3.714
28372W        W96777   1.832  31.419   2.224
28373W        W96778  20.378  16.575   0.711
28374W        W96779   1.011  17.996  14.578
28375W        W96780  14.341  36.281   1.666
28376W        W96781   7.311   4.485   0.249
28377W        W96782  44.376  15.282   1.742
28378W        W96783  11.461  39.368  14.948
28379W        W96784  42.839  10.296  10.798
28380W        W96785  21.157  33.625   3.146
28381W        W96786   9.765  44.991  12.994
28382W        W96787  39.812  35.148   3.632
28383W        W96788  34.722  43.743  12.633
28384W        W96789  30.410  33.638   0.914
28385W        W96790  27.201   5.583  14.817
28386W        W96791  29.468  23.718   4.585
28387W        W96792   6.897  29.465   4.434
28388W        W96793   9.395  21.141  11.169
28389W        W96794  35.376  34.759   2.865
28390W        W96795  27.914  17.710   0.329
28391W        W96796  16.861  21.629   0.608
28392W        W96797   9.409  28.910   4.515
28393W        W96798   3.964  10.246  12.166
28394W        W96799  33.942  21.696  10.841
28395W        W96800   7.652  37.849  12.425
28396W        W96801  41.245  32.941  13.446
28397W        W96802  26.060  36.799   4.644
28398W        W96803  10.769   0.269  12.892
28399W        W96804   0.153  22.481  11.752
28400W        W96805  31.039  23.907   2.385
28401W        W96806  33.841   6.331  13.927
28402W        W96807   9.108  26.047   0.355
28403W        W96808  13.665  27.270  11.712
28404W        W96809  16.211  30.049  12.388
28405W        W96810  39.113  13.788   2.681
28406W        W96811  24.932  15.284   3.901
28407W        W96812   9.283  13.317   2.811
28408W        W96813   5.180   5.220   0.328
28409W        W96814  28.946  21.577   3.450
28410W        W96815  11.624  36.076  14.038
28411W        W96816  16.167   7.185   3.662
28412W        W96817  31.076  42.888   1.326
28413W        W96818  20.269   0.943  14.246
28414W        W96819   7.242  12.243   4.792
28415W        W96820  15.569  17.598  10.089
28416W        W96821  33.444   4.619  10.963
28417W        W96822  10.104  40.443   2.729
28418W        W96823  24.701   3.469  11.985
28419W        W96824  19.038   1.901   1.710
28420W        W96825   5.849  34.977   0.044
28421W        W96826   8.794  22.560   3.556
28422W        W96827  24.047  12.092  14.086
28423W        W96828  13.791  34.890  10.410
28424W        W96829  43.414  12.154   4.660
28425W        W96830   7.450  41.917   0.656
28426W        W96831  18.667  39.642  11.171
28427W        W96832  43.221   1.781  14.783
28428W        W96833  12.630  44.709   2.296
28429W        W96834  19.614  38.921  13.541
28430W        W96835  42.108  26.979  11.783
28431W        W96836  24.201  38.358  11.648
28432W        W96837  32.501  33.272   0.285
28433W        W96838  18.687  24.724   1.306
28434W        W96839  24.722  34.942   2.218
28435W        W96840  37.095  11.707   0.377
28436W        W96841  22.710  18.764   1.615
28437W        W96842  14.592  19.107  12.442
28438W        W96843  37.049  28.278  10.998
28439W        W96844  27.552   3.939  14.849
28440W        W96845  37.524   5.459  12.455
28441W        W96846  32.499  22.705   3.637
28442W        W96847  10.651  21.273   0.706
28443W        W96848  36.015   4.485  11.416
28444W        W96849  35.170  17.113   2.703
28445W        W96850  26.451  25.841   1.849
28446W        W96851  19.762   5.874   3.621
28447W        W96852   4.879  32.602   4.039
28448W        W96853  28.459  28.812  14.830
28449W        W96854  25.357  11.186   4.195
28450W        W96855  11.952  11.202  12.850
28451W        W96856   9.099  27.040   2.362
28452W        W96857   0.865  25.808  14.758
28453W        W96858  23.875  11.150   3.531
28454W        W96859  38.744  27.187  14.852
28455W        W96860  34.119  42.482  13.451
28456W        W96861  25.152   3.262  11.723
28457W        W96862  27.869   8.132  10.846
28458W        W96863  29.071  13.832  12.579
28459W        W96864  26.415  30.922  12.879
28460W        W96865  29.997  26.555   0.169
28461W        W96866  24.158  38.067   2.028
28462W        W96867  16.207   4.871   3.515
28463W        W96868  39.787  18.044   0.798
28464W        W96869  44.664  14.295  11.136
28465W        W96870  29.099   4.152   1.396
28466W        W96871   5.290  43.308  14.484
28467W        W96872  35.632  38.379  10.550
28468W        W96873  11.118   2.295  13.171
28469W        W96874  12.446  15.730  12.330
28470W        W96875  19.699  28.467  11.953
28471W        W96876  36.369   9.664  13.853
28472W        W96877   4.151  33.139  11.419
28473W        W96878  17.056   9.118   1.213
28474W        W96879  43.449  31.474  11.009
28475W        W96880  28.031   1.506   2.277
28476W        W96881  37.863  28.971   3.764
28477W        W96882  13.206  19.550  12.552
28478W        W96883  13.579  42.607   1.935
28479W        W96884  32.569   3.744   0.251
28480W        W96885  41.775  37.353  11.036
28481W        W96886  28.964  38.947  13.454
28482W        W96887  17.981  40.850   2.345
28483W        W96888  19.261   0.981   2.095
28484W        W96889  40.695  29.436   2.467
28485W        W96890  17.931  28.987  10.820
28486W        W96891   5.234  25.075  11.048
28487W        W96892  30.951  18.024   4.586
28488W        W96893   8.357  30.573   1.215
28489W        W96894  19.507  40.699  14.897
28490W        W96895  38.348  20.548  11.636
28491W        W96896  24.137  28.075  12.037
28492W        W96897  35.899  31.679   4.341
28493W        W96898  21.491  42.776   1.204
28494W        W96899   3.328   3.354  10.614
28495W        W96900  31.387  19.023   0.982
28496W        W96901  14.399  19.842   1.310
28497W        W96902   8.706  16.334  12.167
28498W        W96903   0.014  42.716  13.280
28499W        W96904   6.012  37.701  10.573
28500W        W96905  38.380  35.529  12.372
28501W        W96906  43.132  21.714  12.410
28502W        W96907  32.675   2.770  12.834
28503W        W96908  42.906  12.301   4.804
28504W        W96909   4.382  29.956   1.560
28505W        W96910  22.162   6.526  13.739
28506W        W96911   7.350  22.026  11.637
28507W        W96912  34.935  17.333   3.681
28508W        W96913  30.912  10.055   0.079
28509W        W96914  24.835  32.126   0.694
28510W        W96915  43.102   8.754   2.795
28511W        W96916  31.956  17.538   2.842
28512W        W96917  27.119  39.649   9.758
28513W        W96918  30.656   0.459   2.389
28514W        W96919  25.758  44.431   1.528
28515W        W96920  29.923  23.205   0.261
28516W        W96921  34.642  38.997  12.357
28517W        W96922  33.556  40.090   3.742
28518W        W96923   2.425  32.783  10.783
28519W        W96924   7.203   8.168  12.548
28520W        W96925   7.742  32.474  12.053
28521W        W96926   9.289  43.347   3.739
28522W        W96927   7.279   5.094  12.591
28523W        W96928   0.277  26.650   1.195
28524W        W96929  28.206  32.043   2.395
28525W        W96930   4.341  28.940  14.855
28526W        W96931   7.062  14.513  14.124
28527W        W96932   1.738  24.602  12.826
28528W        W96933  21.000  36.941  13.059
28529W        W96934  22.678  16.069   1.379
28530W        W96935  21.187  16.323  12.433
28531W        W96936  33.490  24.116  12.393
28532W        W96937   0.947   8.741   1.729
28533W        W96938  31.022  32.010   1.439
28534W        W96939  22.713  34.173  10.680
28535W        W96940  10.945   5.220  13.478
28536W        W96941  36.639  35.533   3.948
28537W        W96942  12.655   0.685  14.943
28538W        W96943   8.239   3.824   2.791
28539W        W96944   3.179   4.673   5.448
28540W        W96945   4.676   0.945   0.896
28541W        W96946  40.161  15.543  12.041
28542W        W96947  35.334  26.474   0.272
28543W        W96948  44.222  39.400  10.507
28544W        W96949  42.434  22.668   3.683
28545W        W96950   0.636  32.110  11.902
28546W        W96951  42.861   9.546   3.914
28547W        W96952  21.342   6.277   5.216
28548W        W96953  39.272  22.891  14.470
28549W        W96954  14.998   7.842  10.529
28550W        W96955   3.763  16.232   0.387
28551W        W96956  29.704  20.563  14.896
28552W        W96957  35.750  10.079   5.400
28553W        W96958  21.173  23.145  13.885
28554W        W96959  10.855  27.069   1.744
28555W        W96960  18.465  28.912  10.688
28556W        W96961  19.741  32.134   1.464
28557W        W96962  22.084  20.955  11.360
28558W        W96963  36.072  33.614   1.744
28559W        W96964  39.503  44.431   2.772
28560W        W96965  40.071  22.801  13.223
28561W        W96966  29.653  36.280  13.888
28562W        W96967  18.959  34.182  12.527
28563W        W96968  15.272  10.614  13.368
28564W        W96969  26.133  28.565  14.399
28565W        W96970  25.157   8.904   2.308
28566W        W96971   0.828  16.760   1.911
28567W        W96972  39.257  37.422  12.547
28568W        W96973   2.816  14.688  13.902
28569W        W96974   7.221  24.680  10.591
28570W        W96975  29.411   1.542  13.258
28571W        W96976  15.202  21.263   4.152
28572W        W96977  21.674  22.596   0.316
28573W        W96978  11.151  36.377   2.129
28574W        W96979   6.963   5.135  14.039
28575W        W96980  25.072  20.238  12.497
28576W        W96981  16.882  24.906  14.377
28577W        W96982   4.663  40.494   2.498
28578W        W96983   6.895  26.984  12.503
28579W        W96984   3.796  33.455  12.349
28580W        W96985  36.573   6.501  14.058
28581W        W96986  33.441   3.210  14.884
28582W        W96987  19.796  38.338  10.722
28583W        W96988  33.774  14.412   4.151
28584W        W96989  32.636  25.282   4.398
28585W        W96990  20.048  27.569   2.375
28586W        W96991  30.405   1.980  10.778
28587W        W96992  41.028  39.927   2.916
28588W        W96993  33.494  13.915   4.825
28589W        W96994  30.831  25.719  11.114
28590W        W96995   5.847  24.153   3.937
28591W        W96996  19.062  18.711  14.077
28592W        W96997  12.407  31.925  13.008
28593W        W96998  14.488   5.762  10.749
28594W        W96999  41.559  34.447   3.057
28595W        W97000  36.883  20.257   2.470
28596W        W97001  36.906  38.286   4.019
28597W        W97002  10.797   8.045   1.073
28598W        W97003  44.279  41.588  11.669
28599W        W97004  12.728  39.546   0.052
28600W        W97005  14.428  31.702  11.584
28601W        W97006   8.847   8.765  14.423
28602W        W97007   0.805  28.434   4.636
28603W        W97008  14.293  30.969  13.338
28604W        W97009  40.151  15.817  11.074
28605W        W97010  42.400  40.524   3.739
28606W        W97011   4.292  43.940   3.635
28607W        W97012  12.806  23.069  13.383
28608W        W97013  30.478   1.582   3.865
28609W        W97014  44.684  39.070  13.819
28610W        W97015  32.059  18.304  12.962
28611W        W97016  34.492   3.266   4.662
28612W        W97017  20.007   9.216  13.812
28613W        W97018  40.870  35.180   2.021
28614W        W97019   6.962  36.986   2.371
28615W        W97020  10.665  18.175   4.350
28616W        W97021  43.384  11.689   4.914
28617W        W97022   6.735  34.619  13.072
28618W        W97023  32.631  34.900   0.527
28619W        W97024  41.569   7.742  10.825
28620W        W97025  33.850  18.118  10.773
28621W        W97026  21.075  39.058  14.531
28622W        W97027   4.983  38.393  14.343
28623W        W97028  12.638  18.277   1.720
28624W        W97029  40.441   4.446   2.852
28625W        W97030  34.151  19.832  13.509
28626W        W97031  13.649  11.074  14.109
28627W        W97032  43.774  30.501  13.700
28628W        W97033  32.416  15.706   1.426
28629W        W97034  25.235  36.263   5.081
28630W        W97035  40.005   4.013   3.246
28631W        W97036  31.979  29.939  14.826
28632W        W97037  37.163  30.660   1.162
28633W        W97038  10.288   7.347   1.375
28634W        W97039  34.644  35.067  10.652
28635W        W97040  13.571  32.037   3.156
28636W        W97041  43.880  30.048   0.420
28637W        W97042  23.968  26.345   2.304
28638W        W97043  22.055   0.292  10.718
28639W        W97044   8.167  39.845   3.552
28640W        W97045   3.664  13.701   0.969
28641W        W97046  20.223  16.197   1.173
28642W        W97047  14.620  15.323  12.970
28643W        W97048  10.708  40.550   3.408
28644W        W97049  10.892  44.498   3.827
28645W        W97050  19.909  38.984  13.056
28646W        W97051  10.276  14.807   3.587
28647W        W97052   7.001  19.621  11.621
28648W        W97053   5.410   0.744   3.640
28649W        W97054  40.414  39.314  13.710
28650W        W97055  23.215  38.006  12.862
28651W        W97056  26.019  18.554  11.179
28652W        W97057   8.374  39.361   3.644
28653W        W97058   2.860  38.791  13.040
28654W        W97059  13.073  27.579   0.886
28655W        W97060  38.679  24.968   4.418
28656W        W97061  13.190  31.468   4.854
28657W        W97062  19.873  26.639  12.404
28658W        W97063   1.477   8.430  13.451
28659W        W97064   7.788   5.190   3.273
28660W        W97065   4.814  30.560   4.760
28661W        W97066  31.574  44.064   2.888
28662W        W97067  32.576  24.010   0.755
28663W        W97068  28.022   2.518   2.347
28664W        W97069   8.164   0.539  13.531
28665W        W97070  40.418  37.071   4.429
28666W        W97071  25.069  25.448   3.869
28667W        W97072   2.962  16.713   0.727
28668W        W97073   6.614  39.097   4.477
28669W        W97074  22.154  15.087  14.504
28670W        W97075  28.453  30.059   4.578
28671W        W97076  36.985  33.857   4.420
28672W        W97077  29.186  11.297  14.377
28673W        W97078   0.942  42.425   3.144
28674W        W97079   7.211  18.108   2.489
28675W        W97080  26.082  19.287  12.375
28676W        W97081  25.476  32.979  14.030
28677W        W97082   1.197  36.479   2.340
28678W        W97083  40.432  28.419   0.625
28679W        W97084  29.644  20.503  11.165
28680W        W97085   2.698  25.404  13.649
28681W        W97086   9.924  15.101  11.664
28682W        W97087  43.068  28.827  14.282
28683W        W97088  40.757  11.593  10.569
28684W        W97089   1.360  41.956   1.907
28685W        W97090   3.377   6.867  14.344
28686W        W97091  12.400  30.196   5.321
28687W        W97092  12.247  25.613   1.608
28688W        W97093   9.380  11.044  12.573
28689W        W97094  31.198  15.373   0.385
28690W        W97095  18.609  23.131  12.119
28691W        W97096  31.053  34.013  12.633
28692W        W97097  41.449  34.383  10.662
28693W        W97098  20.692  25.216  14.422
28694W        W97099  25.325  40.909  10.939
28695W        W97100  43.796  19.251   0.232
28696W        W97101  36.829   8.644  13.410
28697W        W97102  36.042  22.724  13.878
28698W        W97103  32.738  14.089  14.954
28699W        W97104  18.755  43.534   1.443
28700W        W97105  11.143  35.014   1.434
28701W        W97106  11.607  42.978   1.370
28702W        W97107  33.016  14.168   3.051
28703W        W97108  10.238  33.499   4.178
28704W        W97109  20.110  24.401   1.379
28705W        W97110  29.183  34.501   3.297
28706W        W97111  29.589  28.745   0.255
28707W        W97112  42.976  11.219   1.360
28708W        W97113  38.379   8.094   1.875
28709W        W97114  35.017  16.605   2.048
28710W        W97115  29.921  32.561   0.393
28711W        W97116  22.611  38.258   3.190
28712W        W97117  33.179  13.597  12.376
28713W        W97118  20.825  19.629  10.768
28714W        W97119  39.512  27.965  12.048
28715W        W97120  42.367  15.094  10.790
28716W        W97121  39.659  27.792  12.526
28717W        W97122  21.751  40.317  12.831
28718W        W97123  32.375  38.032  12.901
28719W        W97124   3.526  28.446  12.478
28720W        W97125  42.525  31.498   0.921
28721W        W97126  27.892  13.399   0.907
28722W        W97127  32.656   8.254   3.677
28723W        W97128  42.691  37.414   3.193
28724W        W97129  13.096  12.227   3.704
28725W        W97130  28.412  35.107   4.525
28726W        W97131  37.798   9.267  11.334
28727W        W97132   4.956  43.507  10.488
28728W        W97133   0.380  44.603   4.036
28729W        W97134  40.035  43.311   3.185
28730W        W97135  31.599  39.089   4.820
28731W        W97136  16.941  26.718   4.849
28732W        W97137  42.210  20.517   4.939
28733W        W97138  44.636  32.410   2.321
28734W        W97139  28.606  38.855  10.587
28735W        W97140  41.804   5.392   0.791
28736W        W97141  36.536  40.347  14.382
28737W        W97142  34.673  29.155  12.519
28738W        W97143   0.275  11.703  13.218
28739W        W97144  19.388  21.444   3.240
28740W        W97145  19.347  19.206   4.321
28741W        W97146   1.431  31.072   4.911
28742W        W97147  14.266  36.325   0.726
28743W        W97148  33.516  35.574   1.131
28744W        W97149  15.641   7.252   1.907
28745W        W97150  14.337  43.549   0.509
28746W        W97151   6.836   6.484   1.311
28747W        W97152   7.488  21.118  14.260
28748W        W97153  35.556   6.230  10.420
28749W        W97154   5.442  36.090  13.106
28750W        W97155   5.749  21.726  14.544
28751W        W97156  14.605  13.728  11.581
28752W        W97157  15.990   9.810   3.816
28753W        W97158  38.955  11.716   1.981
28754W        W97159  39.954  20.182   1.738
28755W        W97160   7.711  42.056  14.335
28756W        W97161  18.855  34.569  12.184
28757W        W97162  31.083  43.337   4.542
28758W        W97163  41.041  20.311  11.235
28759W        W97164  41.796  35.924  14.704
28760W        W97165  41.568  11.855   1.871
28761W        W97166  20.026  39.666  14.161
28762W        W97167  34.542  24.466  14.013
28763W        W97168   1.976  12.179   2.376
28764W        W97169  38.472  14.938   3.371
28765W        W97170  44.138  14.361  11.162
28766W        W97171  43.471  25.069   1.305
28767W        W97172  15.353   5.400  10.632
28768W        W97173  31.376  41.939   2.935
28769W        W97174  37.441  17.115   0.149
28770W        W97175  43.914  40.023  12.975
28771W        W97176  20.858  42.569   2.686
28772W        W97177  39.356  44.476   1.828
28773W        W97178  34.442  34.683  12.890
28774W        W97179  19.066  38.603   2.380
28775W        W97180  14.831  32.055  13.155
28776W        W97181  35.364  43.332   2.351
28777W        W97182   4.960  19.294  10.958
28778W        W97183   3.231  26.470   0.878
28779W        W97184  15.298  25.176   2.013
28780W        W97185  40.587  14.918   4.275
28781W        W97186  28.062  36.869  11.364
28782W        W97187  40.382  23.983  13.341
28783W        W97188  20.091  42.977  14.315
28784W        W97189  24.260  25.309   3.180
28785W        W97190  27.185   6.493   2.633
28786W        W97191  12.720  11.740  11.732
28787W        W97192  32.220  16.680   2.740
28788W        W97193  37.522  32.723   4.656
28789W        W97194   4.614  15.345  13.165
28790W        W97195  24.651  13.844  10.776
28791W        W97196  32.177  31.389   2.288
28792W        W97197   7.372  18.224   4.721
28793W        W97198  36.363   8.927  10.753
28794W        W97199  28.560  32.507   1.513
28795W        W97200   2.937  18.567  13.802
28796W        W97201   7.794  34.764  14.464
28797W        W97202  32.133  29.404   1.370
28798W        W97203  25.904   2.052   4.738
28799W        W97204   2.666   8.607   3.361
28800W        W97205  17.741  35.434   0.039
28801W        W97206  38.776  14.814  12.059
28802W        W97207  13.502   3.679  11.868
28803W        W97208   2.599  44.193   4.570
28804W        W97209  30.797  29.950  14.342
28805W        W97210  42.782  33.254  11.599
28806W        W97211  33.069  13.642  10.657
28807W        W97212  17.829  26.198   2.940
28808W        W97213  44.475  41.322   0.327
28809W        W97214   4.890  43.932  13.042
28810W        W97215  29.128  30.076  13.467
28811W        W97216  34.951  29.746  13.309
28812W        W97217  19.333  34.485   3.735
28813W        W97218  24.126  27.998   2.919
28814W        W97219  24.989  13.367  11.163
28815W        W97220  44.451  26.972   0.384
28816W        W97221  30.852  31.704  10.562
28817W        W97222  21.310  23.243  14.367
28818W        W97223  26.583  25.889   2.627
28819W        W97224  13.465  18.128  10.901
28820W        W97225  15.674  15.556  12.689
28821W        W97226   3.055  43.255   4.638
28822W        W97227  25.237   1.366   3.751
28823W        W97228  28.342   4.378   0.275
28824W        W97229  29.168   4.979  13.324
28825W        W97230   8.383  24.369   3.108
28826W        W97231  24.593  34.944   0.269
28827W        W97232  33.945   3.021  14.811
28828W        W97233  26.152  23.796   0.465
28829W        W97234  25.895   8.936  14.834
28830W        W97235  28.854   5.458  14.741
28831W        W97236  32.022  16.701  10.620
28832W        W97237  41.144  38.995  13.796
28833W        W97238  31.842   4.491   2.684
28834W        W97239   7.468  28.633   4.616
28835W        W97240  21.046  27.434  10.455
28836W        W97241  30.089  35.592   0.285
28837W        W97242  18.503  15.327  10.964
28838W        W97243  43.557  31.564  13.000
28839W        W97244   1.946   2.589   0.470
28840W        W97245  38.276  27.453  14.857
28841W        W97246  41.285  43.251   4.883
28842W        W97247  10.671  40.342  14.148
28843W        W97248  16.529   3.173  13.613
28844W        W97249  20.044  19.545  12.470
28845W        W97250  41.112  40.986   2.815
28846W        W97251  37.459  11.672  11.684
28847W        W97252  44.811  18.269  13.218
28848W        W97253  44.669  38.841   0.497
28849W        W97254   1.439   0.739   1.474
28850W        W97255  24.041  30.179   3.181
28851W        W97256   4.206   9.150   0.403
28852W        W97257  38.833   9.673   1.367
28853W        W97258  34.151  38.476   1.795
28854W        W97259  23.648  30.592   4.873
28855W        W97260   5.560   9.306  14.597
28856W        W97261  32.459  12.738   4.069
28857W        W97262  37.331   3.665   1.415
28858W        W97263   2.292  14.727  14.475
28859W        W97264  17.697   2.268  10.760
28860W        W97265  32.084   9.652   0.400
28861W        W97266  21.732  24.115   4.839
28862W        W97267  34.163  24.715  13.107
28863W        W97268  16.040  24.571   5.074
28864W        W97269  11.519   4.151   1.309
28865W        W97270   0.678  12.922  13.523
28866W        W97271  24.225  11.889  12.392
28867W        W97272  29.431   5.325   2.340
28868W        W97273   5.118  16.754  14.435
28869W        W97274  16.141  15.610  14.417
28870W        W97275  36.756   1.178   4.054
28871W        W97276  18.984   1.044   2.939
28872W        W97277  28.323  24.956  10.737
28873W        W97278  29.068  16.190  12.080
28874W        W97279  31.081  33.767  14.516
28875W        W97280  39.927  31.968   0.686
28876W        W97281  33.147  41.042  12.044
28877W        W97282   8.394   2.745   0.842
28878W        W97283  11.619  22.093  10.728
28879W        W97284  25.989   5.942   4.331
28880W        W97285  30.842  32.377  11.569
28881W        W97286  11.404  35.431   0.540
28882W        W97287  15.980  29.573   4.456
28883W        W97288  24.550  37.986  12.496
28884W        W97289   2.221  28.927  11.161
28885W        W97290  21.811   9.990  12.416
28886W        W97291  35.932   1.612  13.746
28887W        W97292  20.272   2.024   2.258
28888W        W97293  38.487  33.795  10.604
28889W        W97294  16.441  32.606   3.142
28890W        W97295  27.761  16.074  10.378
28891W        W97296  41.873  29.702   0.846
28892W        W97297  18.160  38.229  11.998
28893W        W97298   4.693   0.916   4.949
28894W        W97299  19.812   1.774   4.309
28895W        W97300  40.779  26.950  11.657
28896W        W97301  14.240  11.694   0.270
28897W        W97302  14.278  10.298   2.027
28898W        W97303   0.001  27.495   1.769
28899W        W97304  23.278   4.800  10.888
28900W        W97305  25.747  18.214  13.412
28901W        W97306  24.027   0.423   4.528
28902W        W97307  43.077   8.174   3.887
28903W        W97308  23.777  18.167  11.130
28904W        W97309  18.506  18.214  11.738
28905W        W97310  32.877  37.666   0.671
28906W        W97311  27.934  20.492  12.464
28907W        W97312  28.949  23.082   2.312
28908W        W97313  44.980  16.697   0.918
28909W        W97314  12.801  10.898  14.770
28910W        W97315   6.644   5.868  13.400
28911W        W97316  25.522  32.688   3.783
28912W        W97317  43.405  38.532  13.438
28913W        W97318  26.898  21.087  10.372
28914W        W97319   6.403  27.131   2.669
28915W        W97320  40.376  24.440   3.390
28916W        W97321  40.459  43.787  12.461
28917W        W97322  38.816   1.482   0.299
28918W        W97323   2.795  29.988   3.078
28919W        W97324  24.314  41.362   2.339
28920W        W97325  16.375  28.596  12.086
28921W        W97326  44.823  37.121  14.418
28922W        W97327  16.558   7.536  13.501
28923W        W97328  25.997   4.573   0.651
28924W        W97329  15.235  41.239   1.195
28925W        W97330  42.719  29.074  10.526
28926W        W97331  25.927  40.241  12.126
28927W        W97332  33.389  26.212   5.122
28928W        W97333  27.517  33.906   2.197
28929W        W97334  27.474   0.043  14.863
28930W        W97335  43.874   1.851  10.739
28931W        W97336  24.482   5.184   1.412
28932W        W97337  20.148   1.013  12.907
28933W        W97338  27.191  13.222   4.740
28934W        W97339  18.149   1.200   0.162
28935W        W97340  23.498  22.518   3.602
28936W        W97341   7.979  42.293  13.470
28937W        W97342  25.369  24.816   5.217
28938W        W97343  42.046   7.845  11.013
28939W        W97344  21.046  30.084  13.856
28940W        W97345  17.230  17.772  11.876
28941W        W97346   5.057   2.667   1.190
28942W        W97347  34.640  16.308   2.266
28943W        W97348   8.094  14.043   4.598
28944W        W97349  35.321  30.629   3.126
28945W        W97350  26.239  13.060  11.532
28946W        W97351  44.621  29.476   2.364
28947W        W97352  38.781  18.319  13.449
28948W        W97353   0.864   1.330  10.855
28949W        W97354  22.555  40.999  12.616
28950W        W97355  21.291  37.891   3.644
28951W        W97356  33.870  19.248  13.508
28952W        W97357  22.477  14.069   2.825
28953W        W97358   1.995   2.446  12.517
28954W        W97359  13.044  22.225   2.773
28955W        W97360  43.713  38.886   3.649
28956W        W97361  32.491  26.238   1.417
28957W        W97362  36.308  12.174   4.115
28958W        W97363  11.003  23.756  12.989
28959W        W97364   4.146  35.653  11.205
28960W        W97365   9.117  32.409   1.845
28961W        W97366  44.474  11.495  10.504
28962W        W97367  28.633  27.422  12.852
28963W        W97368  39.260  10.546   2.291
28964W        W97369  12.108  25.469  11.854
28965W        W97370  43.423  22.127  11.869
28966W        W97371  41.031  28.566  12.583
28967W        W97372  24.724  12.556   3.678
28968W        W97373  38.798  30.449   9.978
28969W        W97374  37.535  10.893  14.502
28970W        W97375  13.655   2.162  14.587
28971W        W97376  15.374  29.515  14.547
28972W        W97377  17.683  26.680   4.137
28973W        W97378   1.926  41.398  13.087
28974W        W97379   8.285  19.036  13.070
28975W        W97380  35.776   0.739  12.400
28976W        W97381  11.720  36.700   1.665
28977W        W97382  21.992  43.304  13.528
28978W        W97383  12.087  40.339   2.715
28979W        W97384   0.869  40.324   0.959
28980W        W97385  40.376  28.759  14.391
28981W        W97386   7.183  17.688   4.858
28982W        W97387  29.476  10.935  14.938
28983W        W97388   1.989  35.353  12.325
28984W        W97389  11.711   8.674   0.570
28985W        W97390  41.945  30.382  10.740
28986W        W97391  16.624  24.514  14.119
28987W        W97392  23.129  16.124  10.622
28988W        W97393  18.823  36.488   4.033
28989W        W97394  38.947  41.404  12.122
28990W        W97395  28.894  28.645  12.485
28991W        W97396   3.355  24.520   0.626
28992W        W97397  38.366  13.081  12.962
28993W        W97398  28.216  41.507   3.637
28994W        W97399   0.849  25.940   0.276
28995W        W97400  34.895  40.341   1.902
28996W        W97401  10.337  16.253  12.994
28997W        W97402  37.068  36.559  13.475
28998W        W97403   4.733  38.536   4.211
28999W        W97404   7.777  24.597  11.237
29000W        W97405  15.762  36.511  12.807
29001W        W97406  28.995  27.735   3.751
29002W        W97407  20.793  15.625   4.171
29003W        W97408  24.782  44.006   1.071
29004W        W97409  34.491  13.987  13.332
29005W        W97410   5.189  36.591  12.238
29006W        W97411  27.375  22.607   0.793
29007W        W97412   2.788  22.579   1.563
29008W        W97413  13.109   1.096   0.304
29009W        W97414  13.467   0.428  14.068
29010W        W97415  10.703  11.897   4.867
29011W        W97416  17.970  25.966   3.561
29012W        W97417  26.165  42.725   1.807
29013W        W97418  35.989  12.306  14.001
29014W        W97419   3.451  30.905  12.870
29015W        W97420  18.812  19.322   1.966
29016W        W97421  33.956  25.736  10.944
29017W        W97422   4.253  39.400   2.165
29018W        W97423  25.977   0.202  13.422
29019W        W97424  28.954   9.500   2.187
29020W        W97425  22.199  36.657   4.867
29021W        W97426   2.462   9.518   0.707
29022W        W97427   6.759  18.090   3.202
29023W        W97428  30.558  10.346   0.318
29024W        W97429  20.176  16.155   2.598
29025W        W97430  17.051  29.034   4.542
29026W        W97431  20.218   9.272  10.200
29027W        W97432  10.332  42.004   4.258
29028W        W97433   9.977   4.251  10.870
29029W        W97434  30.380  44.138   4.123
29030W        W97435   6.275  42.884  10.619
29031W        W97436  28.982  21.564  13.951
29032W        W97437  20.755  12.541   2.724
29033W        W97438  16.630  43.973   0.242
29034W        W97439   8.442  16.554   2.322
29035W        W97440  34.116  38.139  11.126
29036W        W97441  26.451  27.273   2.715
29037W        W97442  16.293  27.777   3.810
29038W        W97443  41.101  12.166  13.921
29039W        W97444  11.036  10.696   3.237
29040W        W97445  10.693  33.669   0.340
29041W        W97446   8.176  12.273   0.082
29042W        W97447   2.191  12.189   0.510
29043W        W97448  40.351  24.982  13.114
29044W        W97449  26.692   2.006   3.345
29045W        W97450  40.201   6.263   2.170
29046W        W97451  36.777  28.511   4.591
29047W        W97452  19.757  11.293   1.229
29048W        W97453  18.252  41.248  14.881
29049W        W97454  27.513  24.584  14.991
29050W        W97455  42.701  40.306  13.488
29051W        W97456  35.638  32.392   0.539
29052W        W97457   4.327  12.183   2.694
29053W        W97458  21.643  23.644   0.483
29054W        W97459  29.445  12.594  12.458
29055W        W97460  34.470  19.492  12.877
29056W        W97461  42.576  11.334   4.721
29057W        W97462  18.755  23.465  14.861
29058W        W97463  17.928  30.812  12.524
29059W        W97464  40.235  18.796  11.702
29060W        W97465  29.196  19.593  10.708
29061W        W97466  28.487   5.241   0.068
29062W        W97467   9.105  14.034   4.625
29063W        W97468  23.998   2.116   4.094
29064W        W97469   1.890  15.052  13.263
29065W        W97470  10.645  18.328  14.321
29066W        W97471  40.987  42.535   2.725
29067W        W97472  21.763  38.053   2.749
29068W        W97473  44.555  14.632   0.842
29069W        W97474   3.452   7.402   2.263
29070W        W97475  33.494  11.869  12.021
29071W        W97476   5.661  25.055  14.431
29072W        W97477  36.865  38.781   4.131
29073W        W97478  35.893  24.079   1.750
29074W        W97479  31.537  10.824   2.119
29075W        W97480  21.329  28.528   1.181
29076W        W97481  39.943  24.095   1.794
29077W        W97482  36.831  35.871   1.857
29078W        W97483  11.199  22.019   0.408
29079W        W97484  30.395  33.709   3.457
29080W        W97485   8.682   1.842   1.848
29081W        W97486  32.802  12.267  11.190
29082W        W97487  10.713  41.568  11.122
29083W        W97488  12.394  12.750  14.700
29084W        W97489  44.375  31.188   0.901
29085W        W97490   8.108   2.315   3.763
29086W        W97491  28.074  23.098   4.597
29087W        W97492  26.862  25.592   4.082
29088W        W97493  11.288  44.710   1.383
29089W        W97494  16.280   2.403   0.778
29090W        W97495  34.481  28.689   2.451
29091W        W97496  43.378  14.100  10.792
29092W        W97497  18.501   6.626   0.949
29093W        W97498  37.083  14.296   3.288
29094W        W97499   2.911  33.168  13.074
29095W        W97500  31.541  26.444  11.085
29096W        W97501   1.504  15.563  14.293
29097W        W97502  39.512   7.539   4.706
29098W        W97503  33.674  10.735   1.500
29099W        W97504  29.913   1.521  13.328
29100W        W97505  27.535  37.033  11.184
29101W        W97506   7.742  43.830   2.371
29102W        W97507  30.334  11.597  12.001
29103W        W97508   1.590  21.042   4.192
29104W        W97509  44.956  26.421  14.745
29105W        W97510  37.501  32.943   2.683
29106W        W97511  30.485  19.200  12.117
29107W        W97512   2.107   8.108  11.881
29108W        W97513  14.460  29.472  12.528
29109W        W97514  16.010  14.312   3.140
29110W        W97515   1.452  14.015   2.212
29111W        W97516  12.824   7.231  11.443
29112W        W97517  37.124  10.725  13.052
29113W        W97518  15.784   6.264  14.840
29114W        W97519  30.306  25.224   4.587
29115W        W97520   6.698  24.178   3.120
29116W        W97521  19.592  11.401  12.868
29117W        W97522   8.381  23.462   4.536
29118W        W97523  14.094  36.103  13.354
29119W        W97524   7.642  30.588   0.455
29120W        W97525  32.979  30.229   2.000
29121W        W97526  12.298  42.545  10.775
29122W        W97527   3.022  29.943   0.892
29123W        W97528  18.585  14.096   3.200
29124W        W97529   2.793  10.096   2.855
29125W        W97530  41.575  18.041   4.872
29126W        W97531  19.537  12.130   1.656
29127W        W97532   5.219  30.588   3.797
29128W        W97533  39.473  41.416  10.981
29129W        W97534   7.052  26.679  12.896
29130W        W97535  39.345   2.762  12.414
29131W        W97536  24.125  16.618   1.353
29132W        W97537   8.365  22.995  14.413
29133W        W97538  25.717  42.295  14.886
29134W        W97539   1.710   5.181  14.296
29135W        W97540  27.180  36.942  13.746
29136W        W97541   0.388   6.448   3.018
29137W        W97542  23.560  23.956   4.292
29138W        W97543  35.993   2.480  11.616
29139W        W97544  43.508  40.808   1.717
29140W        W97545  34.578  32.449  11.055
29141W        W97546  18.713   4.931   4.975
29142W        W97547  18.215  25.911  11.213
29143W        W97548   0.219   3.379  10.679
29144W        W97549  20.807  10.267   1.513
29145W        W97550  14.196   8.482  14.305
29146W        W97551  15.591  18.136   0.931
29147W        W97552  25.458  30.174  10.774
29148W        W97553  41.930  31.898  13.731
29149W        W97554  34.827  26.292  11.560
29150W        W97555  29.406  14.223   2.639
29151W        W97556  30.526  40.494  14.335
29152W        W97557  30.536  21.028   1.434
29153W        W97558  14.609   5.934   2.336
29154W        W97559  42.954  38.928   2.345
29155W        W97560   6.482  15.872   3.242
29156W        W97561  32.461   2.380  12.546
29157W        W97562  36.526   9.791  14.354
29158W        W97563  22.018  36.685   0.440
29159W        W97564  39.519  25.011  12.657
29160W        W97565  20.122  28.641   0.707
29161W        W97566  16.001  37.042  14.264
29162W        W97567  10.873  10.771  11.177
29163W        W97568  11.615  10.194   4.568
29164W        W97569  43.516   7.811   3.240
29165W        W97570   3.985  19.348  10.832
29166W        W97571   1.205   6.240   0.022
29167W        W97572  15.898  33.991   3.091
29168W        W97573  10.296  29.408   2.921
29169W        W97574  17.031  38.061  10.464
29170W        W97575   7.369  24.394  10.983
29171W        W97576  28.627  12.181  13.800
29172W        W97577  23.017  40.588   0.033
29173W        W97578  40.465  30.683   4.537
29174W        W97579  13.620  33.081  14.214
29175W        W97580  25.008  16.378  11.595
29176W        W97581  21.777   7.295   0.901
29177W        W97582  24.995  33.448  12.561
29178W        W97583  33.868  18.546  12.499
29179W        W97584  26.686  28.259   4.710
29180W        W97585   2.752  27.195  14.570
29181W        W97586  11.146  27.788  12.207
29182W        W97587  11.807  24.366   1.300
29183W        W97588  19.098  27.571   4.006
29184W        W97589  11.262  30.859   4.519
29185W        W97590  21.527  30.677  14.358
29186W        W97591  13.442  16.688   0.907
29187W        W97592  17.606  39.865   3.212
29188W        W97593  15.362  30.378   0.881
29189W        W97594  17.040  27.139  12.533
29190W        W97595  30.149  26.047   0.153
29191W        W97596  36.463  33.909   2.875
29192W        W97597  18.602  27.058  11.722
29193W        W97598  16.334  21.655   0.697
29194W        W97599  33.623  25.131   4.298
29195W        W97600  39.011   5.948  14.548
29196W        W97601  13.648  19.331  12.365
29197W        W97602  24.819  29.945   2.447
29198W        W97603   0.141  14.145   0.287
29199W        W97604  28.362  29.506   0.342
29200W        W97605   0.469  39.157  12.896
29201W        W97606  11.680  37.143   1.983
29202W        W97607  12.136  14.165  10.731
29203W        W97608   4.431  22.507  13.932
29204W        W97609  39.545  29.162   2.170
29205W        W97610  14.767  26.494   9.936
29206W        W97611  40.028  40.421   2.379
29207W        W97612  28.036  17.579  12.794
29208W        W97613  32.341  12.694   0.439
29209W        W97614  22.416  28.466   3.244
29210W        W97615  40.097   3.234   2.771
29211W        W97616  13.810  38.896   1.883
29212W        W97617   8.361  41.007  13.061
29213W        W97618  27.221  39.789  14.931
29214W        W97619  15.017   5.735  13.233
29215W        W97620  44.760   1.921   0.219
29216W        W97621  24.607   4.183  13.564
29217W        W97622   3.255  13.799  11.722
29218W        W97623  15.493  30.892  14.783
29219W        W97624  28.991  25.454  12.086
29220W        W97625   4.708  36.496   3.629
29221W        W97626  13.603  12.037   4.423
29222W        W97627   7.788  24.253  12.816
29223W        W97628  34.991  14.747   3.328
29224W        W97629  31.200  35.188   4.846
29225W        W97630   8.655   3.964   3.506
29226W        W97631  20.978  41.593   4.128
29227W        W97632  30.458  44.107   0.370
29228W        W97633  13.130  27.508   4.896
29229W        W97634  18.090  16.734   1.698
29230W        W97635  38.722  29.367   4.193
29231W        W97636  19.220  17.069   0.419
29232W        W97637  36.902  11.590  12.489
29233W        W97638  33.569  34.559   2.333
29234W        W97639  20.646  20.776   2.729
29235W        W97640  16.059  42.815  13.384
29236W        W97641   6.474   4.914  12.039
29237W        W97642   4.051  20.922  11.510
29238W        W97643   4.024  30.499   2.325
29239W        W97644  14.146  36.058  14.813
29240W        W97645  15.908  33.757  14.901
29241W        W97646   5.231   2.595  12.863
29242W        W97647  39.284   5.384   2.222
29243W        W97648  22.609  13.133  12.543
29244W        W97649  24.280   6.603  12.540
29245W        W97650  38.333  39.504  14.725
29246W        W97651  15.891  12.660  13.063
29247W        W97652   1.495  22.730  14.897
29248W        W97653  20.705  13.873   1.272
29249W        W97654  17.549   3.178   3.763
29250W        W97655  31.171  23.846  10.447
29251W        W97656  35.440   7.100  14.791
29252W        W97657  24.062   4.416  10.945
29253W        W97658  31.410  21.648  14.639
29254W        W97659  11.383  17.959   3.359
29255W        W97660  20.287  35.390   3.367
29256W        W97661   4.853  35.618  13.860
29257W        W97662  22.230   8.066  14.018
29258W        W97663  13.721  16.294  13.954
29259W        W97664  44.493  31.691   4.718
29260W        W97665  37.036  43.000   4.694
29261W        W97666  11.139  18.166   0.048
29262W        W97667  37.219  35.520   2.857
29263W        W97668  13.098  38.108   1.339
29264W        W97669  40.920   3.477  13.746
29265W        W97670   2.151  40.812  13.884
29266W        W97671  28.544  30.140   2.212
29267W        W97672  43.628  19.394  13.945
29268W        W97673  33.572  32.377  12.024
29269W        W97674  41.033   4.881  10.231
29270W        W97675  36.388  32.828  11.251
29271W        W97676  15.038  35.874   0.856
29272W        W97677  19.674   0.271  11.505
29273W        W97678  17.125  10.597   1.163
29274W        W97679   7.260   2.255  11.054
29275W        W97680   7.438   3.142  10.170
29276W        W97681   7.258  43.266   4.083
29277W        W97682  19.223  31.215  13.449
29278W        W97683  40.087   2.494  13.786
29279W        W97684  41.851  35.470  12.871
29280W        W97685   1.260  39.857  13.831
29281W        W97686   9.671   5.566  12.158
29282W        W97687   6.306  26.650   0.312
29283W        W97688   1.462  44.318  10.451
29284W        W97689   5.591  17.316   1.163
29285W        W97690  17.368   8.440   4.429
29286W        W97691   0.815  25.066  14.247
29287W        W97692   0.417  43.759  12.433
29288W        W97693  15.982   8.280   4.129
29289W        W97694  40.536  15.829   2.111
29290W        W97695  21.953  38.308  12.919
29291W        W97696  30.222  14.451   0.715
29292W        W97697  13.850  18.821  13.115
29293W        W97698  29.895  44.187   2.824
29294W        W97699  11.722  38.382  11.489
29295W        W97700   3.395  20.773   2.364
29296W        W97701   1.987  42.886   3.306
29297W        W97702  39.139  40.062   3.996
29298W        W97703   7.385  38.233  13.790
29299W        W97704  10.393  18.210   2.594
29300W        W97705  19.558  31.076  14.785
29301W        W97706  17.813  36.897   1.491
29302W        W97707  37.447  27.985  11.160
29303W        W97708  40.256  44.940   1.527
29304W        W97709  32.977  39.421   4.797
29305W        W97710  30.773  33.071  13.005
29306W        W97711   2.848  44.392   1.713
29307W        W97712  39.335  17.184  10.793
29308W        W97713  12.636  39.435  11.035
29309W        W97714   8.457  41.835   2.213
29310W        W97715   0.339  42.009   0.204
29311W        W97716  38.535  33.745   3.556
29312W        W97717   5.895   2.413   1.706
29313W        W97718  10.632  22.447  11.196
29314W        W97719  27.663   5.893  14.289
29315W        W97720  20.559  42.629   1.992
29316W        W97721  22.822  14.705  12.553
29317W        W97722  13.318   9.478  13.485
29318W        W97723   3.407  40.472  14.328
29319W        W97724  19.763  38.783  14.547
29320W        W97725  35.298  44.737   1.432
29321W        W97726  40.526   4.328  13.867
29322W        W97727  38.390  17.978   3.820
29323W        W97728  21.586  27.440   4.812
29324W        W97729  31.704  14.757  12.531
29325W        W97730  42.282  34.860  13.485
29326W        W97731  13.895  31.141  13.614
29327W        W97732  30.254  24.337   1.315
29328W        W97733  37.167  39.919   0.306
29329W        W97734  26.460  35.450   4.818
29330W        W97735   2.595  23.242   3.591
29331W        W97736  19.346  21.195   4.837
29332W        W97737  30.597   6.950  11.980
29333W        W97738  37.470  21.083  13.094
29334W        W97739   0.743  13.283   4.335
29335W        W97740  20.090  28.953  12.527
29336W        W97741  33.402  25.357   2.308
29337W        W97742  30.949  32.118   2.870
29338W        W97743   6.986  34.841  12.571
29339W        W97744  40.440  36.199   0.783
29340W        W97745  42.790  32.989   4.239
29341W        W97746  12.128  35.848  14.057
29342W        W97747  34.562  41.790   1.909
29343W        W97748   2.935  26.597   4.868
29344W        W97749  28.294  16.777  11.045
29345W        W97750  37.364  16.584   2.277
29346W        W97751  39.793  40.336   3.241
29347W        W97752  33.518   1.348  12.765
29348W        W97753  32.939   1.670  12.112
29349W        W97754  37.568  32.078   3.262
29350W        W97755   6.730  18.316   4.074
29351W        W97756  32.580  25.530   3.255
29352W        W97757  23.072  14.345   1.739
29353W        W97758  30.565   2.556  11.609
29354W        W97759  37.616  20.010   2.689
29355W        W97760  24.132  17.784  14.396
29356W        W97761  15.648  44.804   1.917
29357W        W97762   9.692  42.878   2.267
29358W        W97763   9.005  17.924   1.339
29359W        W97764  29.695  24.561   3.291
29360W        W97765  16.987  26.599  12.984
29361W        W97766   5.386  42.337  14.973
29362W        W97767   4.098   4.215   2.784
29363W        W97768   9.112  23.619   1.376
29364W        W97769  41.483   3.859  12.676
29365W        W97770  21.395  42.599   2.678
29366W        W97771   4.833  38.593  10.397
29367W        W97772  23.144  18.750   2.424
29368W        W97773  10.639  43.380   2.359
29369W        W97774  30.019  13.075  13.919
29370W        W97775  35.825  28.862   2.859
29371W        W97776  33.641  31.840  12.033
29372W        W97777  23.881  11.769  11.013
29373W        W97778   4.671  38.614  10.898
29374W        W97779  44.206  16.885  14.066
29375W        W97780  30.607  18.265  12.571
29376W        W97781  36.010  24.029  13.689
29377W        W97782  41.842  19.048   1.415
29378W        W97783   3.296  36.404  13.363
29379W        W97784  21.524  17.006   3.719
29380W        W97785  37.798  42.364   4.074
29381W        W97786  16.114  38.115   2.413
29382W        W97787  23.731  35.611   3.267
29383W        W97788   0.400  10.846  12.117
29384W        W97789  44.966  14.515  13.527
29385W        W97790  18.433   3.881   1.161
29386W        W97791  35.927  30.534   4.539
29387W        W97792  23.628  22.988   4.629
29388W        W97793  34.346   4.688   3.065
29389W        W97794  42.078  25.607  11.522
29390W        W97795   9.376  18.298   5.215
29391W        W97796   3.217  43.714  10.731
29392W        W97797   8.181  13.799   0.484
29393W        W97798  25.204  19.123   0.166
29394W        W97799  12.287  17.962   0.366
29395W        W97800  39.928  34.123   3.637
29396W        W97801  43.818  12.821   4.538
29397W        W97802  11.364  42.970   2.762
29398W        W97803  37.082  39.418  13.833
29399W        W97804  14.706  24.656   4.039
29400W        W97805  25.134  19.564  14.907
29401W        W97806   4.751  28.641  14.946
29402W        W97807   0.687  28.072  11.982
29403W        W97808  28.985  40.494  11.440
29404W        W97809  13.488  10.141  11.151
29405W        W97810  43.809  23.955   0.856
29406W        W97811  26.206   3.937   2.272
29407W        W97812  40.955  33.662   0.028
29408W        W97813  24.088  25.060  13.994
29409W        W97814  27.546  22.281  12.474
29410W        W97815  36.187   7.700  13.037
29411W        W97816  38.382   1.957  14.424
29412W        W97817  38.361  20.216   2.221
29413W        W97818  16.345   0.696  14.048
29414W        W97819   2.815   3.302   4.332
29415W        W97820  25.704  30.942  14.799
29416W        W97821  27.948  40.580  10.751
29417W        W97822  14.801  32.571  14.563
29418W        W97823  31.915  41.463   4.173
29419W        W97824   1.162  36.658  12.832
29420W        W97825  21.007  23.934   3.851
29421W        W97826  39.370  11.775   2.723
29422W        W97827   2.407  19.760   4.586
29423W        W97828  34.022  18.854   1.706
29424W        W97829  39.964  21.567   0.278
29425W        W97830  29.441  11.688   3.307
29426W        W97831   6.442   7.919   1.925
29427W        W97832  33.502  17.142   4.038
29428W        W97833   4.210  29.521  12.173
29429W        W97834  32.551   4.214  13.121
29430W        W97835  15.587  10.915  11.965
29431W        W97836  31.542   8.175  12.001
29432W        W97837   1.360  25.132   4.030
29433W        W97838   3.098  23.351   3.542
29434W        W97839   9.436  29.877  12.259
29435W        W97840  12.141  19.997  13.905
29436W        W97841  29.377   2.222   3.596
29437W        W97842  20.903  36.674  12.022
29438W        W97843  12.833   4.513   5.033
29439W        W97844   3.102  30.398  11.559
29440W        W97845  44.931  16.605  13.407
29441W        W97846  12.412  19.541   4.071
29442W        W97847  38.418  36.340   0.416
29443W        W97848  44.354  44.256  10.659
29444W        W97849   2.931  16.281   3.292
29445W        W97850  44.069  11.817   2.834
29446W        W97851  36.925  40.885  11.269
29447W        W97852  23.074  37.087   2.239
29448W        W97853  32.567  41.832  13.857
29449W        W97854  31.519  43.204  12.339
29450W        W97855  37.981  21.767  12.933
29451W        W97856  24.065  25.755   2.971
29452W        W97857  29.947  27.216  10.559
29453W        W97858   9.638  42.324   1.667
29454W        W97859  11.730   3.983  14.771
29455W        W97860   2.634  37.343  12.063
29456W        W97861  16.283  42.097  12.806
29457W        W97862  18.245  20.621  11.538
29458W        W97863  12.802  15.431  14.233
29459W        W97864  37.143  30.149  13.014
29460W        W97865  35.033   7.198   4.820
29461W        W97866  33.052  44.426  14.477
29462W        W97867  43.907   2.985  12.489
29463W        W97868  10.837  41.906  10.619
29464W        W97869  25.262  26.126   0.614
29465W        W97870  33.446  14.573  14.941
29466W        W97871  29.880  31.381  14.826
29467W        W97872   9.795  25.079  11.347
29468W        W97873  21.654  43.482   1.773
29469W        W97874  29.239  32.306   3.347
29470W        W97875  26.974  14.072   4.594
29471W        W97876  11.723  24.401   2.274
29472W        W97877   2.616  22.134   2.289
29473W        W97878   3.219   1.184  14.897
29474W        W97879  17.642  40.563  14.977
29475W        W97880  15.598  32.468  11.093
29476W        W97881  41.796  21.080   1.212
29477W        W97882  22.961   9.842   1.204
29478W        W97883  15.682  12.821  12.072
29479W        W97884  32.428   8.260  13.076
29480W        W97885  11.401  24.048   1.289
29481W        W97886   6.243   2.464  12.042
29482W        W97887  42.938  11.474  10.287
29483W        W97888   8.038  44.340   4.458
29484W        W97889  43.267  24.513   3.985
29485W        W97890   8.807  22.262  14.015
29486W        W97891  22.537  43.088   0.932
29487W        W97892  10.184  33.182  12.025
29488W        W97893  37.324  19.269  13.466
29489W        W97894  28.872  25.125   3.262
29490W        W97895  28.547  29.526  10.740
29491W        W97896   9.655  30.118   3.847
29492W        W97897  28.981  20.303   4.565
29493W        W97898  16.294  34.954   1.718
29494W        W97899  15.545  19.976  13.106
29495W        W97900  16.327  26.963   2.624
29496W        W97901  33.887   2.345  10.681
29497W        W97902  34.326  35.961   1.316
29498W        W97903   1.649  41.504   3.487
29499W        W97904   1.803   9.913  14.219
29500W        W97905  32.670  22.639  12.994
29501W        W97906  27.421  11.633   2.419
29502W        W97907  20.258  28.618  12.939
29503W        W97908  14.805  12.893  10.863
29504W        W97909  39.060   0.414  12.534
29505W        W97910  13.777   9.240   2.294
29506W        W97911  40.836   2.991   2.093
29507W        W97912  12.552  14.167  11.067
29508W        W97913  17.617  37.138  12.547
29509W        W97914  29.151  31.391   1.440
29510W        W97915  14.929  34.724  10.121
29511W        W97916  30.871  30.029   3.182
29512W        W97917  33.646   7.748   0.345
29513W        W97918  25.435   8.759   4.095
29514W        W97919   6.667  34.634   4.535
29515W        W97920  13.045  31.944  11.515
29516W        W97921  40.040  25.160  10.754
29517W        W97922  43.524  29.396   1.374
29518W        W97923  13.499  20.710   1.708
29519W        W97924  17.500   4.769   1.685
29520W        W97925  43.386  40.320   2.698
29521W        W97926  38.625  42.124   3.325
29522W        W97927  31.074  31.654   5.098
29523W        W97928  19.341   0.877  13.584
29524W        W97929   3.512   4.229   1.475
29525W        W97930   1.014  19.226  14.817
29526W        W97931  10.347  44.467  11.675
29527W        W97932  31.356  31.456   2.602
29528W        W97933   2.955  43.665  12.992
29529W        W97934  20.042  31.394   4.385
29530W        W97935  33.099  33.273  12.916
29531W        W97936  33.865  29.732   1.882
29532W        W97937   5.292  39.497  10.628
29533W        W97938  36.456   4.274  13.426
29534W        W97939   7.906  35.659  11.923
29535W        W97940  37.552  37.822  14.871
29536W        W97941   7.826  39.819   3.130
29537W        W97942  18.156  15.212   2.739
29538W        W97943   1.649  10.230   0.403
29539W        W97944  10.769  12.276  14.699
29540W        W97945   2.795   8.458  13.782
29541W        W97946  24.612  30.926   2.370
29542W        W97947  27.166  16.595  14.023
29543W        W97948  13.349  21.151   3.691
29544W        W97949  20.865   0.883  13.562
29545W        W97950  14.080   4.228   2.825
29546W        W97951  34.867   2.816   4.698
29547W        W97952  36.758  44.875  13.946
29548W        W97953  35.751  43.318   0.247
29549W        W97954  44.375  18.092   0.372
29550W        W97955  36.729  34.322   1.257
29551W        W97956  35.182  24.986  11.666
29552W        W97957  40.316  34.635   0.902
29553W        W97958  20.756   5.715  14.735
29554W        W97959  36.483   7.847   0.926
29555W        W97960  31.143  29.970  12.593
29556W        W97961  28.632  27.938   3.253
29557W        W97962  24.149  41.797   2.667
29558W        W97963  25.744  38.116   1.454
29559W        W97964  35.683  11.397  10.811
29560W        W97965  13.777  11.911   0.367
29561W        W97966  32.522  34.406   2.480
29562W        W97967  43.067   2.382   4.114
29563W        W97968  32.478  43.562  14.400
29564W        W97969   0.749  33.988   0.190
29565W        W97970  11.770  17.347   3.958
29566W        W97971  43.490   9.820   2.828
29567W        W97972   4.234  15.261   0.245
29568W        W97973  37.899  20.501   1.008
29569W        W97974   5.263  12.169  10.975
29570W        W97975   7.075   9.212   2.746
29571W        W97976  37.321  15.687   4.169
29572W        W97977   9.221   4.195   3.167
29573W        W97978  12.689  27.516   4.043
29574W        W97979  16.029  24.113   0.783
29575W        W97980  21.130   0.775  10.591
29576W        W97981  42.311  24.938  14.890
29577W        W97982  32.617  35.809  13.332
29578W        W97983  13.863  42.290   2.252
29579W        W97984  31.803   9.963   0.028
29580W        W97985  10.133  11.853  12.102
29581W        W97986  16.273  39.870  14.562
29582W        W97987  15.816   3.991  12.352
29583W        W97988  42.481  22.939   0.319
29584W        W97989   7.619   0.864   3.292
29585W        W97990  40.061   9.697  11.610
29586W        W97991  23.746  14.736   3.798
29587W        W97992   9.257  40.048  14.947
29588W        W97993  27.765  19.619   0.345
29589W        W97994  10.333  20.563  10.322
29590W        W97995  31.863  24.426  13.518
29591W        W97996   0.742   1.054  14.766
29592W        W97997  11.627  31.947  12.374
29593W        W97998  20.225  11.638   2.776
29594W        W97999  29.148   3.820  11.711
29595W        W98000  17.964   9.401   2.381
29596W        W98001  35.564  18.751  13.850
29597W        W98002  33.901   4.456   0.016
29598W        W98003  41.498   7.060   0.377
29599W        W98004  33.931   3.511  14.082
29600W        W98005  24.419  43.268  12.500
29601W        W98006  20.161   4.717   2.418
29602W        W98007   3.851  25.405   4.636
29603W        W98008  37.031  41.277   3.857
29604W        W98009  15.690  12.815  11.155
29605W        W98010  26.615  22.594  12.073
29606W        W98011  42.891  23.606   1.744
29607W        W98012  26.982   3.921  11.737
29608W        W98013  34.197  28.968  11.618
29609W        W98014  27.115  25.929   4.394
29610W        W98015  29.726  12.369  14.949
29611W        W98016  28.688  20.721   1.415
29612W        W98017   0.827  24.999   1.869
29613W        W98018  36.938  32.391  12.405
29614W        W98019  28.127  31.983  13.100
29615W        W98020  29.167  36.468   3.793
29616W        W98021  18.154  13.184  14.823
29617W        W98022  23.862  29.479  14.323
29618W        W98023  15.437  43.303   0.985
29619W        W98024  32.442  32.879   1.311
29620W        W98025  11.752  41.348   3.734
29621W        W98026  18.125  21.788  10.692
29622W        W98027  41.903   4.599   3.620
29623W        W98028  30.602  34.505  14.768
29624W        W98029   4.500   8.698   0.333
29625W        W98030  14.787  12.346  12.037
29626W        W98031  17.271  27.677   4.590
29627W        W98032   9.227   5.886  13.917
29628W        W98033  36.933  23.689   0.394
29629W        W98034   3.769  11.545  12.739
29630W        W98035  41.479   3.382  11.535
29631W        W98036  30.416  42.727   0.906
29632W        W98037   0.971  29.959  11.327
29633W        W98038  24.153  25.207  11.734
29634W        W98039  30.543  34.525   4.526
29635W        W98040  37.021   5.955  14.283
29636W        W98041  25.278  21.346   1.439
29637W        W98042  32.862  20.630  12.007
29638W        W98043  37.097  33.017   1.901
29639W        W98044  12.067  36.916   1.332
29640W        W98045  26.513  18.151  14.854
29641W        W98046  20.001  20.698   3.925
29642W        W98047  24.471  14.129   1.840
29643W        W98048  10.763  16.718  11.892
29644W        W98049  31.001  24.186   0.051
29645W        W98050  26.145   4.151  11.210
29646W        W98051   3.011  30.119   1.614
29647W        W98052  20.163   1.829  14.121
29648W        W98053  19.596  37.326  12.534
29649W        W98054  38.027  33.973   4.875
29650W        W98055  24.621  29.142   2.016
29651W        W98056   2.010  22.944  13.454
29652W        W98057   9.151   1.435  12.627
29653W        W98058  36.488  44.179  12.429
29654W        W98059  34.806   1.601  12.922
29655W        W98060  32.134  21.148  12.431
29656W        W98061  33.401  40.070  12.545
29657W        W98062  32.990   5.822  13.794
29658W        W98063  33.072  15.178   4.477
29659W        W98064  25.633  25.592   4.618
29660W        W98065  22.709  39.916  11.837
29661W        W98066  26.598  32.659  14.885
29662W        W98067  11.791  42.064  12.931
29663W        W98068  22.728  26.960   0.788
29664W        W98069  22.621  20.435   0.753
29665W        W98070  12.071   9.703  13.513
29666W        W98071  29.882  37.683   4.260
29667W        W98072  35.690   2.824   0.902
29668W        W98073   8.254  27.919  11.256
29669W        W98074   3.426   9.319   0.775
29670W        W98075  28.786   2.078   0.805
29671W        W98076  25.058  37.170   4.071
29672W        W98077  18.173  16.963  11.146
29673W        W98078  32.555  31.066   4.629
29674W        W98079  35.889  16.772  14.857
29675W        W98080  22.229   0.295  12.559
29676W        W98081   4.493  38.406   2.402
29677W        W98082  35.451   4.440  12.106
29678W        W98083  34.594   4.229   3.087
29679W        W98084   5.198  11.832   2.417
29680W        W98085   5.227   1.818   0.295
29681W        W98086   4.174  14.749   3.368
29682W        W98087  34.599  28.950   0.768
29683W        W98088  33.378  17.854   2.227
29684W        W98089   0.383  28.635   3.664
29685W        W98090   6.229  34.277   3.249
29686W        W98091  12.430   3.240   3.574
29687W        W98092  28.468   0.834   3.829
29688W        W98093  35.994  42.879  13.584
29689W        W98094  15.700  44.928   1.394
29690W        W98095   3.757   0.412  14.430
29691W        W98096  30.929  39.542  10.874
29692W        W98097  34.189   0.344   2.161
29693W        W98098  19.171  21.999   0.924
29694W        W98099   5.178  35.930   3.015
29695W        W98100  24.771  15.645   4.509
29696W        W98101  15.815   1.285  13.800
29697W        W98102  38.024  32.668  14.284
29698W        W98103   6.983   5.070  14.873
29699W        W98104  29.397  34.919  13.382
29700W        W98105  18.595  23.604   3.198
29701W        W98106  35.498  32.463  13.534
29702W        W98107   8.709  19.046   0.075
29703W        W98108  17.556  22.656  12.288
29704W        W98109  36.093  29.980  14.414
29705W        W98110  14.681  33.796  14.569
29706W        W98111  36.692  27.986   1.795
29707W        W98112  40.377  26.952   1.754
29708W        W98113  31.143   8.885  10.202
29709W        W98114  27.054   0.041   4.313
29710W        W98115  32.493   8.777  13.004
29711W        W98116  28.959  27.564   0.562
29712W        W98117  18.834  14.772   3.531
29713W        W98118  32.478  29.459  10.671
29714W        W98119  28.613  29.043  12.984
29715W        W98120  39.927  18.157  14.871
29716W        W98121  39.389  16.318  13.448
29717W        W98122  43.813  39.779  13.861
29718W        W98123  13.092  39.030   3.810
29719W        W98124  25.219   6.426  14.171
29720W        W98125   5.798  11.857   0.870
29721W        W98126  11.309  44.789  11.967
29722W        W98127   3.243  32.099  12.696
29723W        W98128  42.462  19.250  12.036
29724W        W98129   5.386  39.830  14.995
29725W        W98130  15.589  21.250  10.856
29726W        W98131  17.645  19.555   4.305
29727W        W98132  39.881  26.621  13.078
29728W        W98133  15.997   5.861  10.448
29729W        W98134  31.925  29.737   2.698
29730W        W98135  17.084   7.427  12.790
29731W        W98136  21.666  36.613  12.433
29732W        W98137  11.211  44.184  14.431
29733W        W98138  22.513   0.868   2.641
29734W        W98139   8.329  42.205   3.617
29735W        W98140  14.375  20.737   2.188
29736W        W98141  26.006  31.478   2.795
29737W        W98142  43.064   2.283  14.746
29738W        W98143  15.627  13.123   3.652
29739W        W98144  37.033  41.822  12.311
29740W        W98145  34.604  42.252   1.678
29741W        W98146   7.005  24.699  12.828
29742W        W98147  28.581  14.143  12.133
29743W        W98148  18.213  14.052  13.959
29744W        W98149  33.612  18.197  10.322
29745W        W98150  32.188  19.900   1.596
29746W        W98151  29.054  29.187   2.845
29747W        W98152  38.303   7.712  14.112
29748W        W98153   0.485  12.734  13.049
29749W        W98154  39.382  38.913  11.202
29750W        W98155  26.863  14.835  11.585
29751W        W98156  39.763  14.560  11.991
29752W        W98157  35.528  43.589  13.977
29753W        W98158   8.744  24.551   1.358
29754W        W98159  23.997   2.943   0.953
29755W        W98160   4.580   8.438  11.618
29756W        W98161   2.930  30.436  12.049
29757W        W98162  19.639  26.562   1.937
29758W        W98163  12.853  31.828   3.319
29759W        W98164  38.340  13.762   4.471
29760W        W98165  38.984  30.335   1.858
29761W        W98166  19.448  33.983   0.954
29762W        W98167  20.493  35.002   3.751
29763W        W98168  26.214  42.807  12.514
29764W        W98169  41.390  10.156   1.823
29765W        W98170  37.931  39.138   4.121
29766W        W98171  17.469  10.566  13.133
29767W        W98172  18.290  20.675  13.536
29768W        W98173  44.850  21.381   1.316
29769W        W98174  42.797  39.857   1.453
29770W        W98175  12.592  27.221   3.268
29771W        W98176   2.335  25.758   3.333
29772W        W98177   8.864  15.303   0.879
29773W        W98178  21.042  30.948   0.789
29774W        W98179   4.811  37.500   1.403
29775W        W98180  30.687  22.698  14.414
29776W        W98181  15.603  20.701   1.825
29777W        W98182   2.205   6.844  12.359
29778W        W98183   1.917   3.013   2.258
29779W        W98184  24.147  26.956  10.539
29780W        W98185  25.306   1.457   3.255
29781W        W98186   6.811   7.703  13.861
29782W        W98187  21.643  27.006  12.588
29783W        W98188   9.661  20.090   3.769
29784W        W98189  32.612  26.132  12.372
29785W        W98190  34.950  20.219   3.215
29786W        W98191  32.332   5.682  11.022
29787W        W98192   9.453  28.446   3.648
29788W        W98193   5.479  44.459   1.913
29789W        W98194  21.690   7.933   3.666
29790W        W98195  17.359   1.799   3.724
29791W        W98196  18.507  17.989  12.753
29792W        W98197  26.965  38.334  11.059
29793W        W98198   4.285  33.064   3.816
29794W        W98199  34.662  15.309   4.212
29795W        W98200   7.484  13.730   3.251
29796W        W98201  20.244   9.334  14.858
29797W        W98202  37.304  32.228   4.540
29798W        W98203  31.496  39.876  12.420
29799W        W98204  20.750  15.183   0.820
29800W        W98205  27.130  25.956  13.247
29801W        W98206  16.515  28.630  10.739
29802W        W98207  10.161  42.780  10.829
29803W        W98208  29.512  28.484   1.361
29804W        W98209   1.477  35.928   3.127
29805W        W98210   2.349  17.598   2.631
29806W        W98211  11.091  17.207  13.393
29807W        W98212   2.552  10.184   4.189
29808W        W98213   1.685  38.349  12.550
29809W        W98214  28.981  41.225   3.338
29810W        W98215  25.031  15.413  11.881
29811W        W98216  22.948  39.355   2.194
29812W        W98217   9.680   8.295   5.022
29813W        W98218  33.668  29.658   4.326
29814W        W98219  43.277  21.649   4.106
29815W        W98220  24.982   2.528   0.749
29816W        W98221   4.389   0.794   4.091
29817W        W98222  27.197  40.550  12.984
29818W        W98223  37.131  22.739   0.290
29819W        W98224  16.694   7.831  14.329
29820W        W98225  37.039  27.535   1.151
29821W        W98226  34.922   9.441   1.827
29822W        W98227   0.452  40.958  14.253
29823W        W98228  37.314   7.907   3.753
29824W        W98229  44.803  27.716  11.335
29825W        W98230   6.467   7.480  13.046
29826W        W98231  10.635  28.125   2.581
29827W        W98232  28.186  38.402   1.887
29828W        W98233  42.924   6.126   3.303
29829W        W98234  29.953  29.279  13.570
29830W        W98235  43.045  20.632   3.647
29831W        W98236  27.164  15.733   4.291
29832W        W98237  38.061  34.426   4.237
29833W        W98238   1.874   9.265  15.000
29834W        W98239  41.849  12.930  13.006
29835W        W98240  43.830  35.505   4.404
29836W        W98241   6.425  28.225   0.322
29837W        W98242  41.925  24.753   3.524
29838W        W98243  41.832   8.812   2.609
29839W        W98244  40.675   5.685   2.887
29840W        W98245   5.655  39.291  12.448
29841W        W98246  24.303   4.920   0.236
29842W        W98247  33.579  15.964   3.158
29843W        W98248  27.422  30.039  12.789
29844W        W98249  23.281  25.932   3.328
29845W        W98250   5.772   4.600   2.645
29846W        W98251  22.552  25.510   1.246
29847W        W98252  28.319  12.129   1.761
29848W        W98253  36.863  37.066   0.059
29849W        W98254  10.655  26.026   0.335
29850W        W98255  42.232  42.460  13.986
29851W        W98256   2.830   2.672  11.162
29852W        W98257   3.821  43.104   3.665
29853W        W98258   3.527  19.160   0.084
29854W        W98259  29.214   9.651   4.291
29855W        W98260   7.358  13.371  12.948
29856W        W98261  12.127  37.047   4.600
29857W        W98262   8.573   7.309  14.899
29858W        W98263  22.737  40.511  13.312
29859W        W98264  27.486  41.061   3.191
29860W        W98265  36.564  40.857   0.028
29861W        W98266  19.210  21.101   4.350
29862W        W98267   5.514  11.895   3.368
29863W        W98268  20.644  32.463  11.482
29864W        W98269   2.148  14.113   1.259
29865W        W98270   2.372  32.265  12.036
29866W        W98271  34.426  31.452   2.863
29867W        W98272  16.168  38.947  10.622
29868W        W98273  16.224  12.266  10.801
29869W        W98274  32.580  17.297  12.078
29870W        W98275   0.978  13.715   4.012
29871W        W98276  36.550  31.664   3.705
29872W        W98277  36.450  21.153  11.052
29873W        W98278  22.535  36.860  14.422
29874W        W98279  21.595  13.612  13.652
29875W        W98280   5.681   4.813  13.735
29876W        W98281  27.959   3.533   0.233
29877W        W98282  16.313  43.287   2.237
29878W        W98283  42.842  30.609   2.290
29879W        W98284  11.720   3.443  13.443
29880W        W98285  21.941   4.334  11.455
29881W        W98286  37.950  34.666   2.336
29882W        W98287  11.671  17.212   4.924
29883W        W98288  13.058  37.940  13.884
29884W        W98289   7.272   3.954   4.247
29885W        W98290  26.980  31.067   0.897
29886W        W98291   3.466  38.564  13.577
29887W        W98292  28.503  33.960  13.024
29888W        W98293  43.341  19.795   1.346
29889W        W98294   6.719  25.383   0.420
29890W        W98295   5.176  44.837  12.670
29891W        W98296  43.251  38.975  12.603
29892W        W98297  33.636   0.900   4.110
29893W        W98298  32.328  37.439   4.789
29894W        W98299   2.396  12.239  14.617
29895W        W98300  13.329  22.655  13.996
29896W        W98301  32.879   0.566   0.264
29897W        W98302  11.878  35.451   0.253
29898W        W98303   1.950  32.579   0.660
29899W        W98304  26.992  42.571  12.633
29900W        W98305  23.193  13.626   3.306
29901W        W98306  11.713  30.681   0.206
29902W        W98307  30.416   0.402  13.367
29903W        W98308  18.496  36.117  14.563
29904W        W98309   7.838  41.873   0.279
29905W        W98310  44.937  22.771   2.671
29906W        W98311  13.031   8.724   1.367
29907W        W98312  29.094  23.742   3.156
29908W        W98313  31.015   6.902  11.506
29909W        W98314  28.499  37.296   1.817
29910W        W98315   6.765  27.610  10.125
29911W        W98316   2.184   9.891   5.077
29912W        W98317  39.378  36.041  14.973
29913W        W98318  11.755   3.351   1.184
29914W        W98319  36.034   2.634  14.474
29915W        W98320  15.592   5.180   2.737
29916W        W98321  15.065  25.678  10.989
29917W        W98322  23.447  20.514   0.524
29918W        W98323  27.952  24.387  11.278
29919W        W98324  32.953  41.518  13.174
29920W        W98325   3.989  29.099  13.229
29921W        W98326  15.314  42.312   2.706
29922W        W98327  24.455  34.410  11.623
29923W        W98328   5.333  26.033   1.155
29924W        W98329  30.506   8.167   3.373
29925W        W98330  27.169  42.023   3.565
29926W        W98331  39.324  35.777  12.917
29927W        W98332  21.773  39.919  11.462
29928W        W98333  27.026  14.579  12.015
29929W        W98334  21.491   5.520  13.118
29930W        W98335   3.443  23.229  10.719
29931W        W98336  43.863   3.318  12.942
29932W        W98337  44.038  10.731  12.440
29933W        W98338  34.781   7.558   2.362
29934W        W98339  20.191  14.647   2.230
29935W        W98340  25.638  30.530  12.606
29936W        W98341   4.270  33.152  10.924
29937W        W98342  14.681   9.089   1.899
29938W        W98343  24.776  23.983   2.262
29939W        W98344  37.058   9.816   3.762
29940W        W98345  41.426  43.335   3.863
29941W        W98346  12.385  29.558  11.508
29942W        W98347  35.009  43.684  13.949
29943W        W98348  16.431  44.829  12.515
29944W        W98349  25.152   0.855  12.947
29945W        W98350  32.504  22.327   0.418
29946W        W98351  16.891  36.925   3.203
29947W        W98352  22.634  35.185  12.489
29948W        W98353  40.603   8.654   4.434
29949W        W98354  35.521  19.101  14.329
29950W        W98355  17.862   5.360   5.536
29951W        W98356   4.252   5.973  13.024
29952W        W98357  28.594  16.513  10.229
29953W        W98358  33.138  12.629   2.207
29954W        W98359   2.732   7.132  12.041
29955W        W98360  20.715  21.131   0.867
29956W        W98361  23.655  24.078  14.348
29957W        W98362   9.384   7.403  11.679
29958W        W98363  29.083  22.575   2.413
29959W        W98364  39.043  17.563   0.437
29960W        W98365  13.160   4.071   0.811
29961W        W98366  31.044  22.694  10.822
29962W        W98367  15.515   3.453   1.456
29963W        W98368  38.042  37.198   2.636
29964W        W98369   7.661  41.352  11.232
29965W        W98370  10.220  22.372   3.752
29966W        W98371  41.066  17.801  12.956
29967W        W98372  25.582  40.366   0.477
29968W        W98373  43.317  25.177  12.413
29969W        W98374  43.793  18.292   4.959
29970W        W98375   9.115  35.057   3.330
29971W        W98376  23.664  13.950   2.357
29972W        W98377  33.471   8.801  10.583
29973W        W98378  30.108  17.475  13.547
29974W        W98379   7.309  24.935   2.873
29975W        W98380  28.832  21.502  11.519
29976W        W98381  37.277   9.427  13.342
29977W        W98382   5.619  36.091   2.797
29978W        W98383   7.286  10.700  11.733
29979W        W98384  39.348  16.028   0.346
29980W        W98385   7.740  15.422  13.744
29981W        W98386  18.167   7.721  11.855
29982W        W98387  37.150   8.092   2.211
29983W        W98388  35.973  30.072  11.187
29984W        W98389  36.500  17.888   2.778
29985W        W98390   4.073  13.530  12.557
29986W        W98391  28.126  25.621  12.009
29987W        W98392  34.548  17.778  13.501
29988W        W98393  22.628  10.844  10.618
29989W        W98394  44.275  41.082  11.683
29990W        W98395  11.057  10.828  13.722
29991W        W98396   2.973  29.889   2.106
29992W        W98397  37.350  20.675   4.550
29993W        W98398  29.557  27.226   1.871
29994W        W98399  27.878  16.433  14.264
29995W        W98400   1.227  14.242  13.084
29996W        W98401  31.070  43.175  12.627
29997W        W98402  31.953  22.083  13.944
29998W        W98403  40.262  11.376   3.269
29999W        W98404  18.615   4.698   0.179
30000W        W98405  15.022  28.130   0.201
30001W        W98406  27.236  12.812   0.793
30002W        W98407   7.257  11.043  14.781
30003W        W98408   5.848  11.887   4.297
30004W        W98409  39.042  10.422  12.414
30005W        W98410  10.636   6.727   1.464
30006W        W98411  36.559  22.121  12.383
30007W        W98412  24.552  20.199  12.950
30008W        W98413  34.164  30.680  11.156
30009W        W98414  23.434   4.126   4.252
30010W        W98415  26.204  26.713   1.361
30011W        W98416  39.133  33.130   1.348
30012W        W98417  26.822   9.854  11.650
30013W        W98418  24.257  13.224  13.022
30014W        W98419  11.772  29.153  10.096
30015W        W98420  10.936  21.715  12.549
30016W        W98421  15.678  27.453   2.690
30017W        W98422  18.259   1.159  14.650
30018W        W98423   4.350  34.184  14.850
30019W        W98424  42.811  30.105   2.281
30020W        W98425   9.802   7.408   3.798
30021W        W98426  11.043  24.052  12.535
30022W        W98427   7.454  11.787  13.567
30023W        W98428  38.280  35.213   0.254
30024W        W98429  18.904   8.236   4.176
30025W        W98430   0.720  20.973  12.014
30026W        W98431  24.678  11.914   0.036
30027W        W98432  25.852   9.355   4.098
30028W        W98433  25.678   1.949   3.293
30029W        W98434   6.269  41.579  10.746
30030W        W98435  11.335  15.132  14.876
30031W        W98436  34.554   6.437   4.009
30032W        W98437  22.624  31.647   1.926
30033W        W98438  38.110   5.903  13.516
30034W        W98439   6.218  25.405   4.532
30035W        W98440  17.489  43.057  14.819
30036W        W98441  12.639   5.943  14.389
30037W        W98442  43.470  24.821   4.932
30038W        W98443  20.520  37.902   4.585
30039W        W98444  44.062  28.920  12.120
30040W        W98445  18.319  23.800  12.495
30041W        W98446   2.922  35.631   2.291
30042W        W98447  18.817  34.132   3.258
30043W        W98448  35.810  39.827   3.556
30044W        W98449  22.247  17.557   3.790
30045W        W98450   3.354   5.600   1.311
30046W        W98451  27.723  18.286  14.326
30047W        W98452  26.454  32.330  10.978
30048W        W98453   0.213   6.140  11.135
30049W        W98454   1.769  15.598   2.709
30050W        W98455   5.464  24.643   2.373
30051W        W98456  34.707  11.090   3.058
30052W        W98457  36.746  31.099  13.430
30053W        W98458  20.546  10.411   0.517
30054W        W98459  17.865  19.506  14.435
30055W        W98460  15.321   4.693   4.622
30056W        W98461   1.250  14.478   3.040
30057W        W98462  14.771  39.502   4.606
30058W        W98463   6.751  30.069  11.690
30059W        W98464  41.411  29.162  12.013
30060W        W98465  11.862  40.565  12.871
30061W        W98466  10.721  18.113   0.788
30062W        W98467  28.398  30.843   4.003
30063W        W98468  37.960  37.330   4.899
30064W        W98469  12.571  25.849  12.593
30065W        W98470  20.147  14.313   5.220
30066W        W98471  12.113  18.199   1.639
30067W        W98472  25.554  18.763   1.154
30068W        W98473  33.373  19.546   3.864
30069W        W98474   7.217   7.910  13.006
30070W        W98475  33.326  13.279  12.926
30071W        W98476  22.670  22.535  13.254
30072W        W98477  27.912  34.955   4.569
30073W        W98478  11.131  11.956  12.082
30074W        W98479  40.241  10.254  14.370
30075W        W98480  32.936  35.111   0.928
30076W        W98481  35.358  44.275   3.134
30077W        W98482  22.166  35.538   4.126
30078W        W98483  12.070  28.462  11.217
30079W        W98484  23.502  27.622   1.670
30080W        W98485  39.414  10.379  11.452
30081W        W98486  21.239  36.871   2.755
30082W        W98487  10.212   0.794   3.276
30083W        W98488  18.542  27.569   2.629
30084W        W98489  40.301  30.734  14.378
30085W        W98490   9.455  15.520   2.438
30086W        W98491   1.918  15.546   3.624
30087W        W98492  29.843   3.097  13.015
30088W        W98493  11.309  19.933  11.427
30089W        W98494  21.883   9.730  10.386
30090W        W98495  37.873  24.982   4.002
30091W        W98496  31.814  32.470  13.782
30092W        W98497  23.281   6.168   2.212
30093W        W98498   4.829   9.545   4.274
30094W        W98499  24.159   5.385   1.768
30095W        W98500  23.309  15.001   0.804
30096W        W98501   7.666  36.071  11.156
30097W        W98502   8.930  36.115  11.628
30098W        W98503  26.207  29.905  13.668
30099W        W98504  35.622  28.132  11.145
30100W        W98505  41.420   3.898  10.782
30101W        W98506  12.643  12.284   3.929
30102W        W98507  13.899   3.482   3.857
30103W        W98508   2.948  27.669   1.958
30104W        W98509  15.695  18.171  14.063
30105W        W98510  36.044  29.710   1.696
30106W        W98511   2.191  42.571   0.746
30107W        W98512   5.312   9.935   2.316
30108W        W98513  21.600  20.186  13.069
30109W        W98514  11.292   8.180   0.842
30110W        W98515  29.560  11.543   4.280
30111W        W98516  39.570   2.731   4.088
30112W        W98517  34.113  32.733  13.539
30113W        W98518  17.802  31.811   0.965
30114W        W98519  19.596  29.903  11.146
30115W        W98520  33.993   9.626  13.027
30116W        W98521   6.324   4.719  11.592
30117W        W98522  33.072  12.193  13.934
30118W        W98523  15.670  41.504  11.593
30119W        W98524  13.141  34.897   3.345
30120W        W98525  27.062  10.717  13.390
30121W        W98526  22.730  44.885  14.813
30122W        W98527  33.481  42.967   2.189
30123W        W98528   2.660   8.835  11.528
30124W        W98529  27.594  37.319   1.765
30125W        W98530   8.856  40.830   4.156
30126W        W98531  20.579  44.196  12.536
30127W        W98532  34.422  10.539  14.980
30128W        W98533  29.001  13.059   1.361
30129W        W98534  34.556  43.863   2.313
30130W        W98535  43.324   7.166  13.670
30131W        W98536  14.469  34.012   4.185
30132W        W98537   8.939   1.509  13.083
30133W        W98538  43.369  12.507   2.424
30134W        W98539  23.094  41.641   4.725
30135W        W98540  14.771  43.811  11.875
30136W        W98541  36.484  10.204  14.694
30137W        W98542  12.132  25.498  12.364
30138W        W98543  37.195  31.069   1.972
30139W        W98544  28.189  18.300  10.442
30140W        W98545  35.934  24.981   4.108
30141W        W98546  40.786  36.887  11.727
30142W        W98547   6.192  30.908   4.331
30143W        W98548  13.248  41.294   3.987
30144W        W98549  15.158  13.925  12.862
30145W        W98550  42.458  35.165  14.524
30146W        W98551  39.852  32.296  12.477
30147W        W98552  43.318  15.248  11.072
30148W        W98553  33.960  31.915   1.927
30149W        W98554  22.172  35.155   4.738
30150W        W98555   1.921  16.730   0.528
30151W        W98556   3.700  44.536   3.222
30152W        W98557  24.176  32.538   1.836
30153W        W98558  32.645   3.382   3.172
30154W        W98559  15.694  35.396  13.485
30155W        W98560  28.553  40.964   3.619
30156W        W98561  19.823  37.102  14.529
30157W        W98562  31.989  25.164  14.471
30158W        W98563   3.266  37.941   0.995
30159W        W98564  25.746  12.417  12.592
30160W        W98565  35.737   5.674  10.246
30161W        W98566  23.750  20.216  11.880
30162W        W98567  21.262  25.646  13.001
30163W        W98568  39.776   3.370  11.212
30164W        W98569  26.899  35.377   5.105
30165W        W98570  10.704  42.103  11.081
30166W        W98571   3.223  43.979   1.788
30167W        W98572  14.464  38.806   2.339
30168W        W98573   6.870   0.439  14.286
30169W        W98574  14.861  21.215  10.204
30170W        W98575  23.365  20.129  10.944
30171W        W98576   2.231  28.719   2.194
30172W        W98577   0.486   4.571   4.185
30173W        W98578  19.658  42.318  12.840
30174W        W98579  11.543   3.770   5.018
30175W        W98580  40.328  29.235  11.704
30176W        W98581  26.027  34.027   2.451
30177W        W98582   2.959  28.646  11.578
30178W        W98583  28.607   7.634   2.241
30179W        W98584  39.828  39.529  12.025
30180W        W98585  22.821  26.165   1.363
30181W        W98586  27.584  34.050   2.710
30182W        W98587  33.501   9.454   4.278
30183W        W98588  16.280  13.910   2.722
30184W        W98589   5.871  15.961   9.836
30185W        W98590  23.125  34.057  14.417
30186W        W98591   9.336  22.171   0.499
30187W        W98592  34.362  37.006   0.274
30188W        W98593  11.497  26.748  12.216
30189W        W98594  21.931   1.797  11.627
30190W        W98595  24.505  28.659   2.772
30191W        W98596  21.756  24.027  13.480
30192W        W98597   6.906  29.069  11.703
30193W        W98598  16.302   5.698   0.835
30194W        W98599  16.676  37.581   0.209
30195W        W98600  32.699   5.401  10.736
30196W        W98601  27.890  15.720  13.488
30197W        W98602  30.338  44.497   0.030
30198W        W98603   9.192   7.203   0.844
30199W        W98604  22.289   6.929  13.282
30200W        W98605   9.775   9.649   3.425
30201W        W98606   1.666  19.705  13.740
30202W        W98607   3.153  11.678   1.244
30203W        W98608  32.669  25.747   1.389
30204W        W98609   6.459  37.968   1.270
30205W        W98610  29.514  43.497  11.108
30206W        W98611  31.848  29.985   1.317
30207W        W98612   4.580  13.897   2.205
30208W        W98613  44.396  37.122  12.679
30209W        W98614  26.032  15.654  12.959
30210W        W98615  19.029  10.987  11.138
30211W        W98616   2.273  34.032  11.996
30212W        W98617  14.986  34.902  14.833
30213W        W98618  17.635  28.265   1.219
30214W        W98619  27.381  10.347   4.013
30215W        W98620  38.801  17.683   0.890
30216W        W98621  15.318  12.794  10.796
30217W        W98622  24.655  11.270  14.337
30218W        W98623  37.432  26.660  14.942
30219W        W98624  24.189  33.098   2.870
30220W        W98625  31.859  43.916   3.840
30221W        W98626  23.383  36.330  14.314
30222W        W98627  39.015   0.765  12.017
30223W        W98628  30.975  26.989  14.624
30224W        W98629   1.897  42.269  11.576
30225W        W98630   1.669  10.385  12.524
30226W        W98631   9.755   2.208   1.739
30227W        W98632  16.279  25.034   5.017
30228W        W98633   5.230  44.367  13.135
30229W        W98634  14.852  12.322   1.403
30230W        W98635   4.997  39.372  13.881
30231W        W98636  10.826  14.651  11.515
30232W        W98637   2.932  42.271  13.970
30233W        W98638   8.857   2.766   2.730
30234W        W98639  12.244  40.916  14.725
30235W        W98640   2.505  33.596  10.210
30236W        W98641  41.776  39.830  13.863
30237W        W98642   9.139  12.315   2.501
30238W        W98643  40.870   3.216  12.272
30239W        W98644  43.295   8.664  14.730
30240W        W98645  34.543  11.327   0.436
30241W        W98646  34.337   2.791   4.796
30242W        W98647  43.118  14.981  14.030
30243W        W98648  41.290   5.935  12.291
30244W        W98649  43.690  18.203  10.582
30245W        W98650  37.965  29.592  13.033
30246W        W98651  17.185  41.540   1.796
30247W        W98652   2.375  39.093  13.906
30248W        W98653  42.032   6.929   3.657
30249W        W98654  31.514   8.892   1.872
30250W        W98655  38.032  43.350   0.483
30251W        W98656  27.995  35.719   1.437
30252W        W98657  15.066  31.572   4.855
30253W        W98658  16.867  38.746  11.098
30254W        W98659  35.500  11.901   0.741
30255W        W98660  12.029   6.992   3.426
30256W        W98661  16.997  26.223  12.624
30257W        W98662   3.379  38.907  13.928
30258W        W98663   8.254  37.964   4.635
30259W        W98664   9.240  33.546   0.461
30260W        W98665  37.004   3.349   2.697
30261W        W98666  24.575   2.951   2.457
30262W        W98667  38.966   3.455  12.577
30263W        W98668  12.572  18.164  14.066
30264W        W98669   7.738  17.206  14.057
30265W        W98670  24.137  17.564   1.466
30266W        W98671  39.089  15.168   0.405
30267W        W98672  21.086  32.903  12.559
30268W        W98673  10.894  39.781   0.375
30269W        W98674  42.051  13.158  13.563
30270W        W98675  43.847  42.305  14.453
30271W        W98676   4.831   9.237  13.248
30272W        W98677   9.651  37.487  10.741
30273W        W98678   0.297  12.774   0.029
30274W        W98679  42.470  15.776   0.845
30275W        W98680   5.421   6.839  14.877
30276W        W98681   2.005   6.524  11.528
30277W        W98682  33.508  36.175  12.538
30278W        W98683  34.502   4.986  13.843
30279W        W98684  10.261  10.469   2.644
30280W        W98685  25.513  26.172   1.690
30281W        W98686   7.754  28.527   3.304
30282W        W98687  10.596  35.803   2.899
30283W        W98688   1.177  23.729   4.549
30284W        W98689  16.216   3.513  12.906
30285W        W98690  37.698   8.905   2.390
30286W        W98691  36.963  26.994   4.966
30287W        W98692   3.877   9.434  11.092
30288W        W98693  26.010   1.856  10.751
30289W        W98694  13.717  34.380   2.764
30290W        W98695  30.010  21.085  10.593
30291W        W98696  14.776  19.217   2.754
30292W        W98697  40.020  42.140  12.352
30293W        W98698   3.888  30.529  14.092
30294W        W98699  11.628  11.068   1.806
30295W        W98700  12.659  16.887   1.725
30296W        W98701  14.697  18.034  11.523
30297W        W98702  20.071  18.512  13.853
30298W        W98703  15.631   7.637  12.649
30299W        W98704  30.132  20.724   2.681
30300W        W98705  16.623   1.121   2.174
30301W        W98706  12.551  21.944   3.793
30302W        W98707  39.807  32.833  13.200
30303W        W98708  12.766  33.574   5.119
30304W        W98709   7.379  26.575  14.784
30305W        W98710  24.765   6.016  10.698
30306W        W98711  34.984  15.279  13.560
30307W        W98712  38.822  16.598  14.983
30308W        W98713  19.044   5.503   2.183
30309W        W98714  38.816   1.744   1.491
30310W        W98715  12.798  26.582  14.686
30311W        W98716  31.557  42.392  12.312
30312W        W98717   2.310  36.310  11.926
30313W        W98718  33.048   7.154   4.107
30314W        W98719  28.123   4.732  13.904
30315W        W98720  15.145  10.763  14.265
30316W        W98721  28.488  33.818  11.718
30317W        W98722   9.230  34.683  13.847
30318W        W98723  10.302   0.897   4.974
30319W        W98724  23.712   2.123   2.178
30320W        W98725  12.958  30.576  11.037
30321W        W98726  43.341  13.409  13.897
30322W        W98727  30.318  11.260   1.321
30323W        W98728  32.381  27.180  12.965
30324W        W98729  24.237  43.767  13.291
30325W        W98730  21.424  23.186   0.421
30326W        W98731  16.141   5.752   1.322
30327W        W98732   8.630  17.356  14.822
30328W        W98733  17.636  11.980  11.855
30329W        W98734  44.625  10.112  12.003
30330W        W98735  13.102  44.093   3.984
30331W        W98736  15.133  39.979  13.224
30332W        W98737  31.895  11.630   1.294
30333W        W98738  21.049  10.672  14.531
30334W        W98739  24.460   7.898   1.215
30335W        W98740  24.012   3.737   0.475
30336W        W98741   0.346  32.870  13.997
30337W        W98742  39.522  25.031  10.762
30338W        W98743  34.628  24.639  12.001
30339W        W98744   0.895  41.900   3.573
30340W        W98745  44.375  32.657  14.804
30341W        W98746  10.602   4.531  12.938
30342W        W98747   1.406  44.443  11.528
30343W        W98748  23.242   3.872   2.818
30344W        W98749  32.844   6.246   4.569
30345W        W98750  21.815  20.028   3.478
30346W        W98751  17.673  16.069  14.700
30347W        W98752  38.859  36.262   2.667
30348W        W98753  25.379   0.728   0.789
30349W        W98754  37.263  44.200   1.717
30350W        W98755  33.471  36.898  11.936
30351W        W98756  16.342  12.256   1.936
30352W        W98757   4.771   6.662  11.094
30353W        W98758  35.316  14.049   4.573
30354W        W98759  41.492  29.767  14.717
30355W        W98760   2.439  21.140   1.942
30356W        W98761  31.615  20.645   2.788
30357W        W98762   1.634   1.576  14.033
30358W        W98763  42.040   2.208   0.214
30359W        W98764   0.027   8.862   0.810
30360W        W98765  13.261  27.055  14.051
30361W        W98766   7.655  18.629  11.145
30362W        W98767  28.110  34.307  14.538
30363W        W98768  32.499  38.979   4.575
30364W        W98769  16.340  35.731   1.342
30365W        W98770  18.137   4.375   3.699
30366W        W98771  28.874  35.024   1.591
30367W        W98772   1.021  40.317   4.143
30368W        W98773  39.766  30.227   0.935
30369W        W98774  32.332   0.383   0.181
30370W        W98775  24.055   3.451   4.558
30371W        W98776  32.558  10.824   2.350
30372W        W98777  38.080  36.883  10.558
30373W        W98778  25.138  39.413   3.844
30374W        W98779  38.614  27.248   2.395
30375W        W98780   6.283  40.364   5.105
30376W        W98781  29.189   4.547  14.759
30377W        W98782  13.570  21.426   2.393
30378W        W98783  21.988  30.238   1.233
30379W        W98784   4.306  44.300  14.184
30380W        W98785   4.023  36.307   2.192
30381W        W98786  24.600   3.302   2.846
30382W        W98787  39.636   1.057   4.567
30383W        W98788   0.877  41.404  10.732
30384W        W98789  16.725  13.853   4.024
30385W        W98790   2.595  20.461  14.996
30386W        W98791   9.983  17.459  14.073
30387W        W98792   1.405  37.443  13.975
30388W        W98793  36.109  23.172  14.119
30389W        W98794   8.203  34.373   3.720
30390W        W98795   7.101  10.945  12.153
30391W        W98796  26.057  26.224   4.263
30392W        W98797  36.333   7.470  10.982
30393W        W98798  18.349  35.878   3.201
30394W        W98799  40.012   5.721  14.731
30395W        W98800  26.849   8.791   1.850
30396W        W98801   8.624  24.580   0.326
30397W        W98802  24.024  29.996  13.011
30398W        W98803  21.014  19.461   2.358
30399W        W98804  20.758  30.113   1.823
30400W        W98805   3.752  19.708   3.547
30401W        W98806  10.836  13.300   1.066
30402W        W98807  20.545   0.502   0.355
30403W        W98808  25.512  38.114  11.028
30404W        W98809  17.876  27.000   3.619
30405W        W98810   7.739  23.778  12.991
30406W        W98811  24.981  38.914  14.043
30407W        W98812  33.378   7.757  12.524
30408W        W98813  37.858  33.489  11.571
30409W        W98814  24.251  23.294  14.751
30410W        W98815  12.673  24.700   3.286
30411W        W98816  17.751  42.721  13.015
30412W        W98817  34.248  12.687   4.456
30413W        W98818  26.196  19.086  14.848
30414W        W98819  18.988  34.841   0.922
30415W        W98820   0.423  41.505   4.889
30416W        W98821  10.935   8.873   3.780
30417W        W98822  36.399  26.853  11.613
30418W        W98823  20.989  16.020  10.743
30419W        W98824   8.878  15.199   4.107
30420W        W98825  16.312  21.540   2.603
30421W        W98826   4.678  25.051  14.726
30422W        W98827  35.963  31.119  11.019
30423W        W98828   2.213  23.050   3.200
30424W        W98829  26.436  43.255  12.017
30425W        W98830  15.197  16.563   2.233
30426W        W98831   2.057   3.253  14.162
30427W        W98832  16.464  13.078   3.967
30428W        W98833  13.638  24.537  12.270
30429W        W98834  21.761  14.578   2.707
30430W        W98835  17.317  34.840  14.254
30431W        W98836  32.145  36.838   2.725
30432W        W98837   1.155  29.994  12.154
30433W        W98838   1.300  30.672  11.478
30434W        W98839  16.460  36.325   4.950
30435W        W98840  20.727  39.604   0.308
30436W        W98841  34.881  23.800  11.191
30437W        W98842  24.943  39.431   1.293
30438W        W98843  43.342  25.507   0.316
30439W        W98844  12.206  44.647  12.913
30440W        W98845  23.951   2.945  14.218
30441W        W98846  11.725  28.541   5.664
30442W        W98847  23.138  17.729   2.453
30443W        W98848  23.966   1.630   2.141
30444W        W98849  16.128  41.542   0.403
30445W        W98850  15.876  15.308   2.369
30446W        W98851   9.631  16.826   2.892
30447W        W98852  43.126  19.255   3.869
30448W        W98853  22.165  33.154  11.999
30449W        W98854  35.778   3.908   3.128
30450W        W98855   0.408  36.096   1.389
30451W        W98856   1.102  17.624  13.407
30452W        W98857  43.880  11.810   3.710
30453W        W98858  26.727  36.909   1.780
30454W        W98859  34.656  21.612   2.815
30455W        W98860  31.231  15.232   1.299
30456W        W98861  31.839  34.238   3.275
30457W        W98862   5.331  23.021  14.288
30458W        W98863  38.889  38.567   1.815
30459W        W98864  30.520  32.435  13.516
30460W        W98865   0.294  16.384  10.687
30461W        W98866  11.207  13.265  14.825
30462W        W98867  26.930  14.176  14.785
30463W        W98868  44.424  43.778   2.409
30464W        W98869   6.209  30.865  13.620
30465W        W98870  29.891  19.184  10.825
30466W        W98871  37.304  10.581   1.241
30467W        W98872   1.958  32.209  11.728
30468W        W98873  23.544  25.204   0.721
30469W        W98874  30.016  19.202  11.864
30470W        W98875  44.988  25.836   4.248
30471W        W98876  21.599  28.463  14.161
30472W        W98877  30.384  44.650   2.306
30473W        W98878  25.636  25.975  13.324
30474W        W98879  19.227  39.750  12.502
30475W        W98880  40.902  20.281  13.993
30476W        W98881  31.737  30.722   1.382
30477W        W98882  23.202  28.006   0.491
30478W        W98883   0.725  27.721  10.384
30479W        W98884   5.875  30.122   3.179
30480W        W98885  21.526  44.945  14.802
30481W        W98886   7.264   3.591  12.536
30482W        W98887   9.396  36.692   2.770
30483W        W98888   0.264   0.547  10.656
30484W        W98889  32.031  13.806  13.861
30485W        W98890   7.674  35.583   3.546
30486W        W98891  17.677   6.707   2.314
30487W        W98892   9.677  41.350   2.893
30488W        W98893   2.218  31.099   2.389
30489W        W98894   3.154   7.886   0.068
30490W        W98895  21.753  23.738  13.028
30491W        W98896  42.012  12.231  10.690
30492W        W98897  18.204  38.083   1.474
30493W        W98898   3.970  38.202   0.038
30494W        W98899  29.636  29.295  11.655
30495W        W98900   1.881  29.155   0.961
30496W        W98901  14.067   2.588  14.886
30497W        W98902   4.990   0.998   2.761
30498W        W98903  20.224  38.593   4.653
30499W        W98904  44.913   6.445  10.848
30500W        W98905  38.472  43.966   1.951
30501W        W98906   9.288  14.104   1.636
30502W        W98907  28.598  37.419  10.364
30503W        W98908   6.193  20.114   3.198
30504W        W98909   9.672  15.140  12.115
30505W        W98910   3.196  25.560  12.111
30506W        W98911  27.523  20.158   0.749
30507W        W98912   7.212  25.566  10.680
30508W        W98913   3.790  25.053  14.648
30509W        W98914  13.669  35.902   1.161
30510W        W98915  11.964  10.184  12.101
30511W        W98916  22.110  43.456  11.147
30512W        W98917  27.526  41.302   1.507
30513W        W98918   3.813  10.343  11.189
30514W        W98919   4.471  39.730   3.682
30515W        W98920  17.879   7.646  14.360
30516W        W98921  44.916  27.538  13.829
30517W        W98922  34.508  27.713   1.382
30518W        W98923   3.838  36.051   2.963
30519W        W98924  28.460   8.894   3.379
30520W        W98925   6.221  24.930   1.204
30521W        W98926   7.236  35.021   3.514
30522W        W98927  12.285  23.128  13.409
30523W        W98928  12.882  41.369   2.517
30524W        W98929  37.950   9.678  13.879
30525W        W98930  10.903  28.383   5.130
30526W        W98931  40.011   6.961   1.120
30527W        W98932  25.796  42.266  10.085
30528W        W98933  31.854  10.922   4.199
30529W        W98934  38.354  35.070  14.246
30530W        W98935  20.805  41.456   0.646
30531W        W98936  37.100  38.909  13.957
30532W        W98937  43.889  23.992   4.600
30533W        W98938  28.356  42.148   4.910
30534W        W98939  25.568   4.443   4.652
30535W        W98940  34.410   1.172   3.834
30536W        W98941   2.861  26.569  12.592
30537W        W98942  11.038  31.227  13.482
30538W        W98943  12.879  12.780  12.858
30539W        W98944  11.328  21.237  14.880
30540W        W98945   0.559  23.530  10.317
30541W        W98946  39.085   9.392  13.541
30542W        W98947  24.648  21.139  10.449
30543W        W98948  33.186  36.036   4.331
30544W        W98949  36.794  27.962   0.737
30545W        W98950  22.675   5.449  11.975
30546W        W98951   3.905  44.478   4.124
30547W        W98952  42.898  42.781   4.105
30548W        W98953  39.925  28.410  10.642
30549W        W98954   6.164  36.686   4.428
30550W        W98955  40.675  21.685   3.199
30551W        W98956  41.967   6.180   3.180
30552W        W98957  12.461  40.466   0.481
30553W        W98958  41.872  21.200  12.610
30554W        W98959  24.543   2.624   2.035
30555W        W98960  21.114  37.192  11.139
30556W        W98961  26.055  10.764   4.445
30557W        W98962  36.600  23.996   0.057
30558W        W98963  37.374   1.266   3.607
30559W        W98964   2.802  20.992  13.110
30560W        W98965  42.720   4.328   0.959
30561W        W98966   4.819   6.865   0.816
30562W        W98967  30.883  39.765  14.977
30563W        W98968  31.612  35.955  11.437
30564W        W98969   5.802  42.664   2.090
30565W        W98970  14.809  11.844   2.674
30566W        W98971  16.493  22.521   4.105
30567W        W98972  14.002  31.366   5.023
30568W        W98973   3.947  11.751  14.255
30569W        W98974  26.467  37.225   1.463
30570W        W98975   9.235   4.743   2.256
30571W        W98976  21.214  42.099  13.861
30572W        W98977   1.981  23.918  14.484
30573W        W98978  29.608  31.391   2.841
30574W        W98979  18.206  44.245  13.517
30575W        W98980  25.403  13.526  14.348
30576W        W98981  24.285  42.997  14.303
30577W        W98982  38.277  39.866   2.695
30578W        W98983  43.842  11.746  10.482
30579W        W98984   4.327   8.207  10.456
30580W        W98985  39.537  37.875  12.632
30581W        W98986  25.750  38.565  14.364
30582W        W98987  33.411  12.646  13.875
30583W        W98988  23.905  34.449   2.087
30584W        W98989  34.094  38.348  14.127
30585W        W98990  21.563   0.860  14.016
30586W        W98991   7.881   5.404  13.822
30587W        W98992  31.566  15.834  13.775
30588W        W98993  14.661  16.761  12.827
30589W        W98994  14.152   2.866   2.186
30590W        W98995  15.368  38.064   1.966
30591W        W98996  35.064  33.582  11.990
30592W        W98997  24.954  31.105   0.476
30593W        W98998   9.780  41.253  14.070
30594W        W98999  29.006  35.019   4.037
30595W        W99000  23.342   1.500   3.561
30596W        W99001  15.312  30.036  10.379
30597W        W99002  16.020  15.118  11.160
30598W        W99003  33.112  30.624  14.344
30599W        W99004  21.509  34.443  12.966
30600W        W99005   5.010   9.041   5.059
30601W        W99006  15.317  33.878  13.857
30602W        W99007   2.194  10.264  13.362
30603W        W99008  20.469  19.486  14.754
30604W        W99009  41.597  12.043  13.898
30605W        W99010   3.327  37.727   3.753
30606W        W99011   1.363  10.479   2.729
30607W        W99012  43.064   0.440   1.444
30608W        W99013   9.469  21.024   1.642
30609W        W99014  18.555  40.906  10.644
30610W        W99015  40.179  41.021   9.835
30611W        W99016  39.566  23.587  12.783
30612W        W99017  26.164   5.772  14.465
30613W        W99018  28.000   2.985   3.313
30614W        W99019   0.287   7.208   1.566
30615W        W99020   1.668  32.867   2.757
30616W        W99021  23.297  33.072  12.396
30617W        W99022  37.577   7.815  10.818
30618W        W99023   6.873  36.777  13.817
30619W        W99024  33.766  44.756   2.221
30620W        W99025  44.916  12.339  14.242
30621W        W99026  42.264  26.589  13.737
30622W        W99027  25.707   7.256  12.949
30623W        W99028  16.427  11.302  10.605
30624W        W99029  10.399  36.883   2.584
30625W        W99030  29.953  16.329   3.121
30626W        W99031  29.815  14.353   4.893
30627W        W99032   4.670   7.970   3.276
30628W        W99033  31.168  39.121  10.701
30629W        W99034  39.035  34.425   4.494
30630W        W99035  39.607  36.656  13.569
30631W        W99036  27.798  38.180   4.558
30632W        W99037  37.332  11.698  14.905
30633W        W99038  13.076  10.183   4.924
30634W        W99039  44.849   9.588  14.729
30635W        W99040  16.763   4.965   0.949
30636W        W99041  40.793  34.910  14.461
30637W        W99042  19.845  12.881  11.646
30638W        W99043  16.642   4.923   3.807
30639W        W99044   6.226  41.515   1.948
30640W        W99045  35.953  15.569   2.894
30641W        W99046  30.676  43.501  12.495
30642W        W99047  35.461  15.321  14.914
30643W        W99048  35.066   9.118  12.969
30644W        W99049   1.489  21.552  10.380
30645W        W99050  35.110  44.555  14.723
30646W        W99051  11.719  25.961   2.322
30647W        W99052  36.522   4.391   3.428
30648W        W99053  41.326  34.892  11.230
30649W        W99054   4.545  11.207  12.982
30650W        W99055  11.623  34.203  12.482
30651W        W99056  30.397  35.541   4.945
30652W        W99057  33.522  20.176  14.305
30653W        W99058   7.867  18.180  12.222
30654W        W99059  16.389  39.377  11.496
30655W        W99060  12.319  19.080   1.760
30656W        W99061  26.041  38.060   2.606
30657W        W99062  12.721  37.636  11.296
30658W        W99063  34.523  26.291  10.394
30659W        W99064  40.851  10.142   2.841
30660W        W99065  34.047  21.500   1.808
30661W        W99066  25.013  10.571   1.298
30662W        W99067  31.380  25.308  14.789
30663W        W99068  30.091  15.809  13.414
30664W        W99069   6.447  14.099   1.760
30665W        W99070  37.746   9.069  11.854
30666W        W99071  15.612   0.269  14.452
30667W        W99072  29.946  25.056  14.266
30668W        W99073  15.190  26.387   0.738
30669W        W99074  41.398   7.364  12.562
30670W        W99075  28.844  22.547   4.238
30671W        W99076  36.051   6.213   0.807
30672W        W99077  25.280  16.040   2.425
30673W        W99078  18.587  38.873   1.712
30674W        W99079  36.893  30.295   3.764
30675W        W99080  29.061   7.363  12.964
30676W        W99081  28.015  42.940  12.044
30677W        W99082  23.294  16.224   4.417
30678W        W99083  38.422  41.408   4.938
30679W        W99084   5.448   7.371  11.231
30680W        W99085   1.366   3.896  11.093
30681W        W99086   4.463  25.588  10.255
30682W        W99087  29.406  12.625  11.303
30683W        W99088   7.902  41.553  12.357
30684W        W99089  14.002  12.612  13.592
30685W        W99090  36.812  21.145   1.414
30686W        W99091  19.316  20.988  13.969
30687W        W99092  30.946  34.808   5.093
30688W        W99093  30.554  30.360   1.390
30689W        W99094  28.165  35.958  13.884
30690W        W99095   1.782  39.485   3.083
30691W        W99096  16.358  34.035  13.399
30692W        W99097  18.201  31.594  12.556
30693W        W99098   7.904  12.161   4.115
30694W        W99099  33.943  10.158  14.468
30695W        W99100  36.612  19.216  11.156
30696W        W99101  17.564  29.182   3.574
30697W        W99102   2.442  24.830   4.562
30698W        W99103   5.732  26.035   0.830
30699W        W99104  12.574  33.109   4.734
30700W        W99105  36.365  38.383   4.732
30701W        W99106   8.678   8.904   1.358
30702W        W99107  31.292  29.903  10.344
30703W        W99108  26.601   1.628  13.539
30704W        W99109  42.505  44.268  14.394
30705W        W99110  33.538  25.365   0.401
30706W        W99111  11.140  24.130   3.879
30707W        W99112  16.517  41.837   3.790
30708W        W99113  44.896  37.861  12.883
30709W        W99114   2.412  35.431   2.285
30710W        W99115  39.596  35.083   4.250
30711W        W99116  15.098  20.021   0.783
30712W        W99117  36.340  36.859  11.547
30713W        W99118   9.304  15.021   5.393
30714W        W99119  41.922  26.696  14.870
30715W        W99120   3.948   0.497   4.191
30716W        W99121  31.366  27.233  11.270
30717W        W99122  32.523  34.491   3.989
30718W        W99123  44.746   2.793   2.882
30719W        W99124  39.071  27.390  14.472
30720W        W99125  24.146  32.074  13.417
30721W        W99126  20.268  10.179  10.215
30722W        W99127   7.615  42.780  12.105
30723W        W99128  13.410   9.490   1.943
30724W        W99129  19.986  33.716  10.166
30725W        W99130  27.942  38.659  14.278
30726W        W99131  31.887  42.300   3.656
30727W        W99132   9.653  14.517  10.188
30728W        W99133  36.541  23.993  13.739
30729W        W99134  20.260  26.153  11.238
30730W        W99135   8.595  19.166   4.134
30731W        W99136  34.482  25.422  11.577
30732W        W99137  39.485  14.684  11.535
30733W        W99138  12.358  22.859  14.976
30734W        W99139  17.857  13.048   1.881
30735W        W99140   3.911  30.007  11.557
30736W        W99141  40.408  11.231   2.190
30737W        W99142  33.776  40.355   4.321
30738W        W99143  24.076   1.964  12.465
30739W        W99144   5.446  13.638   2.386
30740W        W99145  43.383  41.692  14.853
30741W        W99146   0.839  24.640  13.957
30742W        W99147  30.326  38.979  14.486
30743W        W99148  34.981  15.912   3.563
30744W        W99149  29.970  11.689   3.615
30745W        W99150  20.017  20.518   0.484
30746W        W99151   1.926  17.621   0.467
30747W        W99152  43.548   2.825  13.448
30748W        W99153  27.550  33.969  11.706
30749W        W99154  24.805   6.413   1.356
30750W        W99155  17.720  11.555  12.138
30751W        W99156  31.440   5.289   0.245
30752W        W99157  14.063   7.222   1.610
30753W        W99158  44.824   0.435  12.370
30754W        W99159   7.116  20.625   4.352
30755W        W99160  28.722  37.782   4.878
30756W        W99161  44.306  19.116  12.422
30757W        W99162  16.266  30.323   4.236
30758W        W99163   0.218  29.527   3.212
30759W        W99164   4.632  30.405  11.179
30760W        W99165  34.363  26.619  14.475
30761W        W99166  37.690  25.249  13.919
30762W        W99167  12.924  36.365   4.112
30763W        W99168  24.204  21.221   0.368
30764W        W99169  24.690  37.803  13.406
30765W        W99170  10.805  27.698  11.525
30766W        W99171  41.803   3.151  13.262
30767W        W99172  41.332   1.307  11.341
30768W        W99173   3.746  17.782  12.529
30769W        W99174  24.202  36.118   0.320
30770W        W99175   2.885  14.138   1.210
30771W        W99176  28.648   3.825   1.476
30772W        W99177   4.410   9.442  14.090
30773W        W99178  32.090  12.156   3.982
30774W        W99179  40.004   3.946  12.937
30775W        W99180  30.825  29.933  11.600
30776W        W99181  13.266  30.836   0.337
30777W        W99182   9.389  38.259   2.050
30778W        W99183  38.581  43.282  12.456
30779W        W99184   2.773  11.627   2.410
30780W        W99185  20.347  42.507   2.679
30781W        W99186  13.657  28.070  12.169
30782W        W99187  41.358  10.256   2.862
30783W        W99188  30.551  18.808   3.589
30784W        W99189   4.019  33.064   4.630
30785W        W99190  14.193  26.573   2.234
30786W        W99191  17.710  42.493   3.889
30787W        W99192  24.087  32.477   3.710
30788W        W99193  22.568  30.288  11.915
30789W        W99194  13.430  29.074  12.961
30790W        W99195  32.445   7.760  13.702
30791W        W99196  36.607  10.416  12.402
30792W        W99197  31.166  10.076  11.144
30793W        W99198  43.838  26.229   0.757
30794W        W99199  39.529   9.233  12.040
30795W        W99200  23.484  25.837  14.886
30796W        W99201  38.859  31.082  11.201
30797W        W99202  15.408  27.457   4.222
30798W        W99203  19.654  31.382   0.995
30799W        W99204  40.952  14.486   1.302
30800W        W99205   7.242  20.777  11.127
30801W        W99206   1.708  28.637   0.335
30802W        W99207  16.527  26.606  11.276
30803W        W99208  23.514  23.903  14.856
30804W        W99209  10.222  38.116  11.079
30805W        W99210  23.543   9.909  13.941
30806W        W99211  35.970   1.534   2.479
30807W        W99212  43.739  19.206  11.477
30808W        W99213  11.112   4.691  14.426
30809W        W99214  18.082  34.980  13.846
30810W        W99215  14.389  27.386  14.456
30811W        W99216  28.746  29.791  11.165
30812W        W99217  19.931  22.997   1.733
30813W        W99218   8.868  32.172   3.093
30814W        W99219  18.553  40.737   1.470
30815W        W99220  17.418   7.334  10.495
30816W        W99221  39.843  37.832  14.408
30817W        W99222  29.256  10.737  11.245
30818W        W99223  16.175  25.179  13.047
30819W        W99224  27.063  17.590  11.938
30820W        W99225  22.557  20.866   0.477
30821W        W99226  26.605  34.160   4.134
30822W        W99227  32.966  44.342  10.581
30823W        W99228  25.910  42.980   4.104
30824W        W99229  12.069  44.989  14.765
30825W        W99230   9.856   9.645  12.790
30826W        W99231  14.759  30.130  10.819
30827W        W99232   7.821  33.927   1.689
30828W        W99233  13.612   3.779   0.932
30829W        W99234  34.906   6.699   3.740
30830W        W99235  15.556  31.414  14.874
30831W        W99236   9.474  35.069  12.509
30832W        W99237  15.621  36.853  11.023
30833W        W99238  35.071   7.344  13.947
30834W        W99239  44.535   0.550   4.665
30835W        W99240  31.781   1.840   4.565
30836W        W99241  33.873  22.250  12.381
30837W        W99242  25.323  24.591   1.856
30838W        W99243   8.207  21.036  10.642
30839W        W99244  21.793  36.677  14.968
30840W        W99245  42.705  22.791   1.697
30841W        W99246  37.774   0.082  12.489
30842W        W99247  22.637   2.075   3.381
30843W        W99248  41.350  32.399  14.817
30844W        W99249  15.448  14.257   4.185
30845W        W99250  29.210  38.007  12.567
30846W        W99251  43.950  22.299  12.515
30847W        W99252   2.839  23.126   0.980
30848W        W99253  17.919  14.220  14.374
30849W        W99254   9.763  40.584   1.750
30850W        W99255  28.197  12.036   3.727
30851W        W99256  14.268  37.563   2.093
30852W        W99257   8.934  35.103  13.099
30853W        W99258  13.692   0.284   2.335
30854W        W99259  17.149  17.097   4.163
30855W        W99260  12.748   2.733  12.401
30856W        W99261  17.047   6.432   4.187
30857W        W99262  12.790   1.239  13.987
30858W        W99263  42.755  14.151   3.704
30859W        W99264  36.733  13.671   0.057
30860W        W99265   2.219   7.297  12.118
30861W        W99266  44.812  16.478   1.775
30862W        W99267  35.405  20.594   1.705
30863W        W99268  20.316  18.995  14.560
30864W        W99269  21.513  13.179  12.446
30865W        W99270  17.667  17.559  13.305
30866W        W99271  10.248  31.268  12.144
30867W        W99272  19.576   5.172   2.684
30868W        W99273   8.264  12.905   1.736
30869W        W99274  27.595  28.028   4.831
30870W        W99275  25.883  43.916  13.077
30871W        W99276  40.955  25.929  14.414
30872W        W99277   5.678  37.597   1.431
30873W        W99278  16.835  11.848  12.925
30874W        W99279  32.471   8.639  10.626
30875W        W99280  12.352  31.591   3.267
30876W        W99281  42.884  32.665   0.957
30877W        W99282  28.651   6.780   4.266
30878W        W99283  27.125   7.691  13.814
30879W        W99284  14.317  30.795  14.313
30880W        W99285  25.187  13.385   3.827
30881W        W99286   3.194  27.068   3.638
30882W        W99287  17.791  39.367   0.725
30883W        W99288   1.004  34.927  12.345
30884W        W99289  12.255   9.786  10.853
30885W        W99290  15.750  12.337  14.797
30886W        W99291  31.696  18.402  13.318
30887W        W99292  39.165  33.600   4.106
30888W        W99293  15.302  12.971  13.004
30889W        W99294  20.349  20.267   3.260
30890W        W99295   1.338  17.047   1.227
30891W        W99296  23.184  36.814   0.454
30892W        W99297  28.724  23.655  11.995
30893W        W99298  44.468  39.021  10.770
30894W        W99299  10.676  18.144  14.808
30895W        W99300  34.770  40.489   4.120
30896W        W99301  27.233  19.829   1.734
30897W        W99302   6.976  13.735  14.697
30898W        W99303   8.094  35.185  14.326
30899W        W99304  44.281   6.662   1.366
30900W        W99305   1.531  20.751   1.467
30901W        W99306  44.763  21.704   0.863
30902W        W99307  14.575   9.225  12.302
30903W        W99308  35.147  32.618   2.242
30904W        W99309   7.301  26.708   1.205
30905W        W99310  12.644  31.940   2.370
30906W        W99311  37.923  21.010  13.387
30907W        W99312   7.370  26.037  10.748
30908W        W99313  21.819  43.947  14.847
30909W        W99314  38.386  29.496   3.218
30910W        W99315  20.630   0.540  14.335
30911W        W99316  43.950  20.960  11.043
30912W        W99317  27.228  31.280   2.497
30913W        W99318  18.463  36.899   4.448
30914W        W99319  39.537   6.432   0.685
30915W        W99320  11.896  24.776  13.425
30916W        W99321  42.766   6.177   1.764
30917W        W99322  31.960  18.406  11.543
30918W        W99323  42.231   2.997  12.947
30919W        W99324   3.322   2.862  14.501
30920W        W99325  12.650  17.006   1.183
30921W        W99326  33.954  13.902   3.229
30922W        W99327   6.175  10.370  12.629
30923W        W99328  33.858  28.089  14.288
30924W        W99329  18.013  39.519  14.962
30925W        W99330   9.320  14.163   9.903
30926W        W99331  28.678   8.969   1.842
30927W        W99332  16.105  35.985   2.838
30928W        W99333  37.922  32.571  10.650
30929W        W99334  11.125  18.209   4.605
30930W        W99335  19.641  23.055   2.166
30931W        W99336  37.815   8.795  13.736
30932W        W99337   7.396   5.533   3.254
30933W        W99338  10.856  21.268   1.251
30934W        W99339  16.048  36.626  11.293
30935W        W99340   5.469  43.918   2.871
30936W        W99341  38.857   2.855   4.556
30937W        W99342   3.469  27.933   2.623
30938W        W99343  32.873  11.628   4.814
30939W        W99344   2.749  11.062   0.752
30940W        W99345  12.738  32.321   2.017
30941W        W99346  44.713  34.755  13.432
30942W        W99347  40.014   4.454  13.080
30943W        W99348  13.082   7.154   2.293
30944W        W99349  25.239  41.471  11.464
30945W        W99350   3.483  29.885   1.511
30946W        W99351   1.004  43.589   0.312
30947W        W99352   7.407  11.710  11.538
30948W        W99353  19.501  19.718   3.272
30949W        W99354  30.860   7.225  12.869
30950W        W99355  11.127  30.004   4.093
30951W        W99356  15.196   3.799  11.585
30952W        W99357  14.879   0.782  11.657
30953W        W99358  15.137  15.864  10.630
30954W        W99359  30.989  16.491  12.604
30955W        W99360  19.066  11.135  12.532
30956W        W99361   1.262   3.868  13.537
30957W        W99362  41.398  15.069   1.799
30958W        W99363  37.813  36.195  11.828
30959W        W99364   6.776  23.589   1.735
30960W        W99365  21.927  28.356  10.434
30961W        W99366  22.747  44.481   2.548
30962W        W99367  30.959  38.560  12.045
30963W        W99368  25.943   8.844   4.145
30964W        W99369  21.149  42.187   0.211
30965W        W99370  13.239  30.187   1.402
30966W        W99371  15.743  18.451   1.338
30967W        W99372  14.139  19.765   0.877
30968W        W99373  35.352  23.518   2.885
30969W        W99374  32.657  23.183   1.366
30970W        W99375   0.556  19.140   0.073
30971W        W99376  33.480  10.740  13.998
30972W        W99377   3.263   4.426  10.836
30973W        W99378  42.900  30.343   2.787
30974W        W99379  12.628   2.714  14.327
30975W        W99380  40.949  21.332   2.704
30976W        W99381  43.805   2.720   1.072
30977W        W99382   5.182  23.792   0.416
30978W        W99383  37.752   0.480  12.847
30979W        W99384  31.574  40.432   2.741
30980W        W99385  27.556   7.780   2.120
30981W        W99386  12.128  20.289  11.140
30982W        W99387  28.449  20.849   1.884
30983W        W99388  33.828  30.435   2.528
30984W        W99389  15.056  13.645   0.503
30985W        W99390  37.505   3.434  11.976
30986W        W99391   3.750   2.317  14.508
30987W        W99392  29.621  42.954   1.778
30988W        W99393  11.857  24.905   3.098
30989W        W99394  38.273  22.506   1.849
30990W        W99395   8.095  26.881   2.141
30991W        W99396  43.940  10.555   0.653
30992W        W99397  30.542  22.605   4.662
30993W        W99398  34.484  42.958  11.231
30994W        W99399  31.791  26.413   1.861
30995W        W99400  25.486  11.236  13.369
30996W        W99401  32.607  21.999   1.921
30997W        W99402  25.826  28.043  10.653
30998W        W99403  11.157  22.075   2.607
30999W        W99404  13.677   4.282   3.226
31000W        W99405  33.450   7.339   1.266
31001W        W99406  21.137  43.924   2.515
31002W        W99407  35.080  32.538  14.844
31003W        W99408  12.076  40.338  13.977
31004W        W99409  42.395  10.254   4.049
31005W        W99410  13.136  37.150   3.796
31006W        W99411  22.996  17.945   1.474
31007W        W99412  27.873  42.007  11.525
31008W        W99413  10.973  29.152  11.355
31009W        W99414  26.057  30.820   0.865
31010W        W99415  36.378   8.743   3.046
31011W        W99416  14.362  24.975  14.360
31012W        W99417  38.969  39.159  10.490
31013W        W99418  18.801  26.064   4.542
31014W        W99419  38.066  16.199   2.160
31015W        W99420  30.970  25.154   1.205
31016W        W99421  36.985  12.586  14.505
31017W        W99422  29.560  32.083  10.358
31018W        W99423  40.482  21.563  12.522
31019W        W99424  15.583  25.205  10.179
31020W        W99425  12.476  25.762  12.093
31021W        W99426  26.625   2.450  10.960
31022W        W99427  22.072   3.801  11.530
31023W        W99428  16.652  39.904   3.423
31024W        W99429  34.521  15.140   1.139
31025W        W99430  12.400  40.949   1.743
31026W        W99431  10.135  39.100  12.079
31027W        W99432  22.836  25.862  10.018
31028W        W99433   9.152  21.262   4.899
31029W        W99434   7.465  11.806   1.266
31030W        W99435  28.852  23.060   4.161
31031W        W99436  25.577   1.982  13.329
31032W        W99437  30.033  23.591   4.640
31033W        W99438   1.386   3.740   3.653
31034W        W99439  13.309  38.430   0.527
31035W        W99440  16.020  30.532  14.861
31036W        W99441   7.846   7.475   0.468
31037W        W99442  25.535  21.188  10.428
31038W        W99443  31.559  10.169  14.592
31039W        W99444   0.686  14.059   2.810
31040W        W99445  33.568   4.421   3.246
31041W        W99446  36.423  28.220   2.912
31042W        W99447   2.221   7.704  12.485
31043W        W99448  19.991  28.426  12.465
31044W        W99449  44.358   7.786   0.044
31045W        W99450  36.476  12.872   0.334
31046W        W99451  22.408   6.262   2.319
31047W        W99452  14.538   0.238  13.734
31048W        W99453  13.085   9.696  12.557
31049W        W99454  44.087  23.685  14.937
31050W        W99455  40.715  21.244  14.795
31051W        W99456  35.501  13.026  14.445
31052W        W99457  40.383  29.037  13.937
31053W        W99458  39.534  21.478  13.802
31054W        W99459  14.846  29.861  10.268
31055W        W99460   3.702   4.949   2.224
31056W        W99461  13.307   4.613  11.724
31057W        W99462  30.981  16.036   3.259
31058W        W99463  21.028  41.487  11.615
31059W        W99464  18.003   1.691   0.272
31060W        W99465  26.479  21.181   4.650
31061W        W99466  20.094   5.827   1.239
31062W        W99467  36.937  37.000   2.459
31063W        W99468  14.077  21.023   1.383
31064W        W99469   9.909  20.837  14.441
31065W        W99470   6.914  43.460   0.429
31066W        W99471  22.140  16.259  13.405
31067W        W99472   6.168  17.726   4.668
31068W        W99473  20.686  19.066   0.855
31069W        W99474  17.756   8.985  13.759
31070W        W99475  35.479  31.397   0.348
31071W        W99476  17.497  27.227   0.363
31072W        W99477  35.692  40.322   2.577
31073W        W99478  20.192  42.031   2.615
31074W        W99479  11.219  42.952   4.514
31075W        W99480  40.542   5.890  10.986
31076W        W99481  44.314  11.270   1.209
31077W        W99482  20.729  12.036   3.237
31078W        W99483  20.079   2.436  11.126
31079W        W99484  26.021   0.862   4.440
31080W        W99485  27.936   1.998  13.963
31081W        W99486  20.601   5.242  14.891
31082W        W99487  12.501  11.691   0.753
31083W        W99488  43.719   2.425  11.574
31084W        W99489  43.236  22.797  13.054
31085W        W99490   4.218  14.247   2.126
31086W        W99491   8.783   7.546   0.736
31087W        W99492  26.937  29.987  12.604
31088W        W99493  10.731  30.912  12.004
31089W        W99494  32.989  35.023  11.869
31090W        W99495   0.553  16.291   3.600
31091W        W99496  42.524  27.234  12.032
31092W        W99497  13.210  17.676   4.374
31093W        W99498  22.311  32.023  13.071
31094W        W99499   6.283  10.656   2.203
31095W        W99500  30.092   6.463   0.010
31096W        W99501   8.458  25.501   2.348
31097W        W99502  39.022  34.123  13.563
31098W        W99503  24.727   9.644   4.755
31099W        W99504  17.242   5.870  12.165
31100W        W99505  23.894   4.280  11.847
31101W        W99506   0.801  26.221   4.405
31102W        W99507  19.338  42.543  12.067
31103W        W99508  16.016  37.462   4.680
31104W        W99509  24.533  34.429  12.461
31105W        W99510   7.133   6.948   3.175
31106W        W99511  28.514  16.062   5.379
31107W        W99512  33.948  32.259   4.140
31108W        W99513  20.014  28.553  14.314
31109W        W99514  10.343  20.726   4.578
31110W        W99515   2.401  20.782  10.958
31111W        W99516   2.359  37.942  14.520
31112W        W99517  10.540  23.801  10.288
31113W        W99518  31.397   4.922   1.274
31114W        W99519  43.745   3.843  13.346
31115W        W99520  22.101  17.832   2.119
31116W        W99521  30.891  39.562  11.945
31117W        W99522  12.741  22.144   1.766
31118W        W99523  19.074  16.155  12.941
31119W        W99524  14.107  29.007   1.769
31120W        W99525  35.906  40.043  12.252
31121W        W99526   9.697   2.007  14.723
31122W        W99527  11.815  38.394  12.029
31123W        W99528  13.590  24.539   4.294
31124W        W99529   1.946  35.737   2.303
31125W        W99530   2.020  31.541  14.524
31126W        W99531  40.800   5.948   1.624
31127W        W99532  28.647  14.686   0.967
31128W        W99533  13.664   8.253  10.687
31129W        W99534   0.031  19.090   3.606
31130W        W99535   1.403  13.605   0.284
31131W        W99536  19.576  42.375   4.460
31132W        W99537  17.059  35.541  13.928
31133W        W99538  23.388  42.864   2.734
31134W        W99539  27.760  25.753  12.891
31135W        W99540   7.416  12.301  13.531
31136W        W99541   5.945   5.199  10.942
31137W        W99542  15.843  16.321  13.996
31138W        W99543  19.280  32.235   0.351
31139W        W99544  23.512   6.844  12.084
31140W        W99545  33.044  11.138   4.685
31141W        W99546   2.235  36.603  11.089
31142W        W99547  20.615  17.952   4.372
31143W        W99548   6.340  25.950   1.360
31144W        W99549  40.493   7.222  12.093
31145W        W99550  15.677  10.583   1.928
31146W        W99551  17.793  32.901  11.087
31147W        W99552  36.812  39.981   1.187
31148W        W99553  25.179  26.873   2.621
31149W        W99554  13.673  29.427  13.894
31150W        W99555   5.925  21.598   2.405
31151W        W99556  18.070  30.914  11.678
31152W        W99557  10.440  28.038   3.870
31153W        W99558  32.917  31.862   4.002
31154W        W99559   4.539  10.421  13.505
31155W        W99560  12.275  23.549  14.492
31156W        W99561  23.987  33.062  13.330
31157W        W99562   6.792  10.241   2.822
31158W        W99563  17.854  38.550  11.386
31159W        W99564  28.214  28.412  10.881
31160W        W99565  22.034   2.710  14.248
31161W        W99566   6.834  11.584  10.691
31162W        W99567  44.404  22.529  14.916
31163W        W99568  40.847   0.470  13.989
31164W        W99569  11.615  24.221   0.832
31165W        W99570  14.902   7.678   3.665
31166W        W99571  20.184  23.604  11.866
31167W        W99572  43.452  34.356   1.861
31168W        W99573   9.754  30.410   0.210
31169W        W99574  21.271  31.913   5.036
31170W        W99575  42.859   2.774   1.426
31171W        W99576  32.232  31.586   1.166
31172W        W99577  25.957  24.736  10.806
31173W        W99578  14.367   7.923  12.543
31174W        W99579   2.258   3.726  14.268
31175W        W99580  23.635  15.529   3.245
31176W        W99581  26.160  20.677   1.466
31177W        W99582  41.626  37.320  11.569
31178W        W99583   1.408   2.501   4.580
31179W        W99584  22.460  15.190   3.609
31180W        W99585  13.628  18.414  14.910
31181W        W99586   9.744  25.622   1.438
31182W        W99587  31.950  13.822  12.963
31183W        W99588  34.946  24.044  13.382
31184W        W99589   5.841  32.402  12.931
31185W        W99590   5.288  26.988   2.636
31186W        W99591  33.823  28.453   1.224
31187W        W99592   4.744   1.757   2.274
31188W        W99593  18.392   9.845   4.598
31189W        W99594  33.059  11.238  12.809
31190W        W99595  13.969   2.451   1.365
31191W        W99596  15.674  26.475   1.806
31192W        W99597  22.572  17.319   4.282
31193W        W99598   5.237   9.470   3.219
31194W        W99599  31.919  35.216  14.397
31195W        W99600  43.788  38.755  11.403
31196W        W99601   0.505  41.434  12.087
31197W        W99602  34.400  18.850  14.987
31198W        W99603  41.820  27.700  13.613
31199W        W99604  38.106  40.330   0.957
31200W        W99605  18.128  29.994  10.727
31201W        W99606  18.171  16.576  12.492
31202W        W99607  29.347  14.720   0.355
31203W        W99608  32.657   7.470  12.043
31204W        W99609  22.711  24.108  12.521
31205W        W99610  36.793  18.282   2.601
31206W        W99611   7.364   5.445   4.123
31207W        W99612  36.416  25.900  14.952
31208W        W99613  13.300  27.078   4.659
31209W        W99614  21.094   0.024   4.053
31210W        W99615   0.016  43.601  14.440
31211W        W99616  41.295  38.135   4.123
31212W        W99617  15.177  23.603  13.579
31213W        W99618   8.464  13.730  14.496
31214W        W99619  33.568  36.413  14.440
31215W        W99620  10.904  19.940  12.046
31216W        W99621  13.867  38.782   1.367
31217W        W99622  12.368   1.511  14.889
31218W        W99623   5.722  38.849   0.387
31219W        W99624   2.376   4.717   4.513
31220W        W99625   5.857  35.087   4.271
31221W        W99626  28.467  34.015   1.832
31222W        W99627  34.162  43.801  12.881
31223W        W99628  29.014  28.425   2.614
31224W        W99629  18.663  29.313  10.379
31225W        W99630   6.281  15.462   0.885
31226W        W99631  11.635   5.662   2.858
31227W        W99632  22.229  19.099  10.950
31228W        W99633  39.284   6.400  10.132
31229W        W99634   2.369  22.206   0.903
31230W        W99635   7.848  43.243  14.897
31231W        W99636  25.785  39.943  10.215
31232W        W99637   9.732  17.587  11.757
31233W        W99638   3.532  35.624  12.926
31234W        W99639  13.738  42.437   3.747
31235W        W99640  16.591   0.604  13.572
31236W        W99641  40.041  20.048  12.143
31237W        W99642  32.904  29.701  11.606
31238W        W99643  36.935  40.657   2.933
31239W        W99644  26.072  24.708  13.435
31240W        W99645  19.527  37.347  14.971
31241W        W99646   4.688   7.361   2.626
31242W        W99647  10.601   1.073   1.183
31243W        W99648  41.968  30.896  13.072
31244W        W99649  42.769   2.503   3.700
31245W        W99650  37.825  26.254  12.469
31246W        W99651   4.085  31.403   3.604
31247W        W99652  33.323  20.290   4.160
31248W        W99653  22.188   2.457   2.337
31249W        W99654  29.703  29.478  13.152
31250W        W99655   8.627  15.259   3.543
31251W        W99656  33.191  19.787   4.736
31252W        W99657   2.453   1.271  14.436
31253W        W99658  28.618  15.615   5.064
31254W        W99659  18.797  22.433   2.643
31255W        W99660  14.744  13.379   3.306
31256W        W99661  35.574  26.412  14.788
31257W        W99662  35.071  21.106  11.595
31258W        W99663   4.711  33.591   5.090
31259W        W99664  22.713   4.946  12.178
31260W        W99665  16.242  33.651   2.216
31261W        W99666  36.493  12.347   0.310
31262W        W99667  13.333   3.022   5.114
31263W        W99668  40.856  26.002   3.871
31264W        W99669  43.425  19.510   3.026
31265W        W99670  17.797  14.006  12.380
31266W        W99671   4.243  29.041  11.958
31267W        W99672  23.915  16.705   0.762
31268W        W99673   8.598   0.870   0.849
31269W        W99674  24.684  33.011  10.915
31270W        W99675  33.459  32.989  13.155
31271W        W99676   1.938  29.176  10.820
31272W        W99677  28.476  13.953   0.030
31273W        W99678  38.770  18.876   4.773
31274W        W99679  13.695  36.498  12.168
31275W        W99680  40.513  10.937  13.462
31276W        W99681  33.692  38.881  10.595
31277W        W99682  14.226   6.611   0.397
31278W        W99683  43.337  41.641  11.619
31279W        W99684   4.765   2.876  14.863
31280W        W99685  28.483  41.828  13.089
31281W        W99686  25.276   3.365   0.049
31282W        W99687  21.753  37.580   3.037
31283W        W99688  41.807  40.778   1.680
31284W        W99689  29.653  21.198  11.457
31285W        W99690  40.214  12.744  14.564
31286W        W99691   8.893  38.471  12.681
31287W        W99692   4.508  37.461  14.541
31288W        W99693  28.062  37.325   3.221
31289W        W99694  43.105  44.943   1.731
31290W        W99695  43.373  31.964  13.281
31291W        W99696  27.353  23.683   3.016
31292W        W99697   4.244  38.502  13.002
31293W        W99698  21.157   3.200   3.229
31294W        W99699  35.079  32.172  11.207
31295W        W99700  33.053   6.648  11.622
31296W        W99701  23.772  18.830  11.839
31297W        W99702  13.174  41.778   4.297
31298W        W99703  38.608  44.862   4.536
31299W        W99704  27.210  44.576  13.991
31300W        W99705  33.231  14.771  11.796
31301W        W99706  10.882  42.979   2.126
31302W        W99707   5.379  39.252  14.202
31303W        W99708   8.638  21.153   5.011
31304W        W99709  12.711  18.714   3.723
31305W        W99710  40.220  16.752  12.382
31306W        W99711  24.977  22.451  12.450
31307W        W99712  12.857  33.951   3.408
31308W        W99713  14.555  23.494   2.279
31309W        W99714  32.934  15.304   0.644
31310W        W99715  32.991  12.234   4.125
31311W        W99716  13.157  34.098  14.809
31312W        W99717  20.286  40.223  12.471
31313W        W99718  13.527  37.758  13.799
31314W        W99719  42.316   4.156  12.400
31315W        W99720  20.122  21.693   0.560
31316W        W99721  24.685   9.120   4.617
31317W        W99722  30.474  40.075  12.614
31318W        W99723  31.060  10.503  12.541
31319W        W99724  37.563  26.796  11.479
31320W        W99725  38.374   5.222   3.959
31321W        W99726   7.573   2.887   1.373
31322W        W99727   2.990  40.067   1.861
31323W        W99728  28.627  26.031  12.435
31324W        W99729   7.442  35.917  10.730
31325W        W99730   1.526   1.229   4.147
31326W        W99731  23.002  27.605  11.999
31327W        W99732  27.357  40.527   2.992
31328W        W99733  41.991  28.622  11.498
31329W        W99734  26.013  31.040   5.022
31330W        W99735  29.891  24.473  11.544
31331W        W99736  39.046   7.100   0.283
31332W        W99737  11.830   8.101   1.336
31333W        W99738  20.992  15.887  13.044
31334W        W99739   4.375   1.341   4.394
31335W        W99740  36.649  21.662   2.894
31336W        W99741  33.354  41.787  13.351
31337W        W99742   8.668   1.713  12.678
31338W        W99743  27.286   1.260  11.565
31339W        W99744  25.953   1.988  11.270
31340W        W99745   6.757  39.607  14.037
31341W        W99746   6.128  22.950   4.951
31342W        W99747  15.713   2.272  14.047
31343W        W99748  17.139  43.534  12.939
31344W        W99749  27.137   4.501   4.517
31345W        W99750   4.776  33.975   3.833
31346W        W99751  22.612  37.707  13.701
31347W        W99752  30.863  30.136   0.973
31348W        W99753  13.046  37.158   0.805
31349W        W99754  28.464  19.154   4.969
31350W        W99755  39.263  16.049  13.867
31351W        W99756  13.033  34.452  14.376
31352W        W99757  17.261  13.232  13.390
31353W        W99758  17.765  13.339  11.199
31354W        W99759  23.400  23.264   2.496
31355W        W99760   8.079  35.941   1.894
31356W        W99761  34.155  32.967   1.010
31357W        W99762  12.614  38.806  11.608
31358W        W99763  29.577  42.353   2.845
31359W        W99764   1.993   4.382   0.394
31360W        W99765  31.107  36.968   0.713
31361W        W99766  27.214  16.279   2.672
31362W        W99767   5.845   3.784   1.482
31363W        W99768  33.987  41.549   3.370
31364W        W99769  37.020   8.347  10.490
31365W        W99770   6.929  23.746   2.863
31366W        W99771  23.464  39.507  12.935
31367W        W99772  35.841   9.726   3.267
31368W        W99773   0.484  25.470  12.046
31369W        W99774  12.853  20.061   0.694
31370W        W99775   3.134  27.028  11.437
31371W        W99776  29.942   5.379  12.417
31372W        W99777  21.480  19.248   2.500
31373W        W99778  27.937  42.340   3.405
31374W        W99779  11.643  38.407   4.526
31375W        W99780  30.055   0.800  13.813
31376W        W99781  26.355   8.734   1.795
31377W        W99782  28.083  25.547   3.373
31378W        W99783   1.195   5.787   1.110
31379W        W99784  36.282  20.572   1.121
31380W        W99785  37.484  20.261   0.841
31381W        W99786  18.696  33.011  11.567
31382W        W99787  11.418  43.808  11.089
31383W        W99788  44.327   8.166   4.843
31384W        W99789  26.544  38.068   3.304
31385W        W99790  11.631  20.591   0.974
31386W        W99791  16.246  29.563   1.764
31387W        W99792   5.464  12.261   2.244
31388W        W99793  34.377  44.313   4.476
31389W        W99794  27.147  17.569  14.938
31390W        W99795   8.458  44.738  13.910
31391W        W99796  29.448   5.222  10.376
31392W        W99797  18.404  17.727   3.142
31393W        W99798  26.034  26.857   0.313
31394W        W99799  20.372  18.716  13.488
31395W        W99800  27.025   9.142   3.962
31396W        W99801   7.877  16.321  13.353
31397W        W99802  21.554  26.416   1.046
31398W        W99803  34.063  18.592   0.313
31399W        W99804  20.047   3.377  14.773
31400W        W99805  36.103   5.275  10.099
31401W        W99806  33.380  14.776   4.220
31402W        W99807  44.967  16.358   4.602
31403W        W99808  25.705  28.358  11.070
31404W        W99809  25.449  40.476  13.074
31405W        W99810  27.128   1.494  11.113
31406W        W99811  36.920  16.032  12.510
31407W        W99812  19.253   1.835  14.384
31408W        W99813   3.798  37.058  10.881
31409W        W99814  18.739  12.847  10.895
31410W        W99815  41.842  30.130  11.169
31411W        W99816  18.826  14.302   4.738
31412W        W99817  15.538   8.605   1.585
31413W        W99818   5.061  18.530  13.967
31414W        W99819  41.790  42.487  10.672
31415W        W99820  43.322  43.255  14.778
31416W        W99821  21.472  21.202  12.932
31417W        W99822  14.697  44.352  14.531
31418W        W99823  11.136  16.305  14.271
31419W        W99824  33.942  21.599  10.341
31420W        W99825  19.341  31.068   2.747
31421W        W99826   0.841   3.532  13.455
31422W        W99827  10.665  29.988  12.950
31423W        W99828  27.003  16.704   2.893
31424W        W99829   3.938  41.509  11.129
31425W        W99830  26.463   6.951   1.476
31426W        W99831   3.315  40.447  10.731
31427W        W99832   5.820  39.144  13.290
31428W        W99833  17.198   1.498   2.803
31429W        W99834  40.498  22.487   1.361
31430W        W99835  42.536  13.899   3.158
31431W        W99836   0.568  25.792   2.720
31432W        W99837  38.106  18.382   4.083
31433W        W99838  40.078  36.088  11.576
31434W        W99839  10.467  32.569   4.533
31435W        W99840   5.960  20.487  10.826
31436W        W99841  17.556  15.622   1.364
31437W        W99842   9.379  41.248   0.811
31438W        W99843   7.171  35.646   2.174
31439W        W99844  37.548  14.132  12.933
31440W        W99845   6.709  43.538   2.691
31441W        W99846   6.781   0.799  13.461
31442W        W99847  40.504  26.482  13.868
31443W        W99848  26.247   6.386  11.031
31444W        W99849  29.183   7.071   4.323
31445W        W99850  14.075  44.981  12.059
31446W        W99851  15.625  30.299  11.601
31447W        W99852  22.559   1.991  14.999
31448W        W99853   4.269  23.640   2.291
31449W        W99854  31.470  41.294   0.313
31450W        W99855   9.321   8.502  13.560
31451W        W99856  31.462  38.772  11.967
31452W        W99857  19.455  35.561  13.912
31453W        W99858  32.353  13.358  13.794
31454W        W99859   8.619  13.813  11.636
31455W        W99860  42.606  41.024  12.981
31456W        W99861   1.822  41.304  10.727
31457W        W99862  33.909  26.974  12.823
31458W        W99863  44.149  13.128   4.163
31459W        W99864  12.781  11.627  12.251
31460W        W99865   8.936   4.080  14.556
31461W        W99866  28.104  34.471   0.995
31462W        W99867  27.609  22.302   0.435
31463W        W99868   7.854   9.165  10.693
31464W        W99869  38.032   0.478   0.342
31465W        W99870   0.429  15.190   2.358
31466W        W99871  29.013  18.033  11.498
31467W        W99872  14.126  41.976   3.273
31468W        W99873  31.337  32.396  13.997
31469W        W99874   3.217   9.284   0.286
31470W        W99875   2.781   2.176  13.035
31471W        W99876   4.246  14.872  14.879
31472W        W99877   7.555  11.822  10.700
31473W        W99878  33.603   4.769   3.722
31474W        W99879  23.542  14.173  12.498
31475W        W99880  38.724   9.859   4.604
31476W        W99881  18.743   9.720  13.798
31477W        W99882  39.062  43.364   3.685
31478W        W99883  14.423   5.313  11.042
31479W        W99884  18.306  31.835   0.020
31480W        W99885  11.225  43.475  10.744
31481W        W99886  13.418  10.249  10.253
31482W        W99887  16.616  23.850  13.293
31483W        W99888   1.314  24.878   2.391
31484W        W99889  43.736  38.485   4.320
31485W        W99890   4.210  26.846  12.108
31486W        W99891  16.201  12.921  14.396
31487W        W99892  14.053  32.562   5.495
31488W        W99893  19.764   6.998   1.870
31489W        W99894  12.554   2.676   5.017
31490W        W99895   8.156  25.278  13.810
31491W        W99896   2.399  26.951  10.612
31492W        W99897  37.235  18.661   2.682
31493W        W99898  10.242  12.858   3.613
31494W        W99899  11.659   2.950  13.160
31495W        W99900  37.045   4.962  11.527
31496W        W99901  12.094  41.313  13.639
31497W        W99902  24.869  26.933  14.954
31498W        W99903  13.685  28.593  13.044
31499W        W99904  33.272  42.060   3.618
31500W        W99905   4.882  23.235   4.088
31501W        W99906   0.314  25.743  13.089
31502W        W99907  35.942  14.571   4.920
31503W        W99908  35.668   8.327  11.630
31504W        W99909  44.895  39.575  13.128
31505W        W99910  43.442  36.075   4.709
31506W        W99911  32.348  11.737   4.158
31507W        W99912   3.802  37.193  11.940
31508W        W99913  26.066  15.776   0.376
31509W        W99914  11.394   7.481  14.326
31510W        W99915   6.086  33.629  12.601
31511W        W99916  28.109  13.315  12.107
31512W        W99917  13.893  33.494  14.272
31513W        W99918  35.506   1.825   4.502
31514W        W99919  16.472  35.704   9.729
31515W        W99920   0.219  19.721  10.712
31516W        W99921  14.692   7.736   0.154
31517W        W99922  40.261  16.024  13.981
31518W        W99923  28.044  34.483  11.190
31519W        W99924  29.779  24.402  12.417
31520W        W99925  18.570  14.893  12.033
31521W        W99926  13.574  39.382  11.536
31522W        W99927  22.933  32.383  10.650
31523W        W99928  35.300  13.563  10.773
31524W        W99929   7.212  15.769  11.182
31525W        W99930   4.888  36.073   2.500
31526W        W99931  26.527  29.663  11.991
31527W        W99932  44.890  29.465  14.523
31528W        W99933  36.327   8.085  12.291
31529W        W99934  37.659  23.537  13.420
31530W        W99935  38.205   9.249  11.662
31531W        W99936  12.059  31.866  11.522
31532W        W99937  35.915  16.073   4.274
31533W        W99938  13.610  37.076   2.677
31534W        W99939  29.170  40.324   3.223
31535W        W99940  40.385   6.373   2.664
31536W        W99941   2.316  13.025  13.816
31537W        W99942  13.676  21.074   2.767
31538W        W99943  37.350  33.204  13.497
31539W        W99944   2.029  37.823   1.403
31540W        W99945  12.350  17.462   0.486
31541W        W99946  41.862  19.092   4.057
31542W        W99947  44.283  12.336  11.610
31543W        W99948  30.419  23.875  13.979
31544W        W99949  30.700  22.198  12.808
31545W        W99950  14.625  23.476   1.461
31546W        W99951  40.782  10.266  13.867
31547W        W99952  40.509  10.752   4.466
31548W        W99953  31.548  32.687  11.995
31549W        W99954  38.166  30.423  11.662
31550W        W99955  34.050   3.768   2.219
31551W        W99956  25.382  28.625   2.244
31552W        W99957  44.341  13.078  12.888
31553W        W99958  37.305  28.001   1.070
31554W        W99959   6.803  21.995  12.090
31555W        W99960   3.496  10.640  13.433
31556W        W99961   4.471  23.625   1.171
31557W        W99962  21.208  14.166   0.016
31558W        W99963  16.997  36.550   4.809
31559W        W99964  18.725  16.760   0.577
31560W        W99965  41.722   0.271  11.688
31561W        W99966  16.562  27.391   2.916
31562W        W99967   2.244   3.746   4.418
31563W        W99968  36.155  40.477  10.452
31564W        W99969  28.928  33.595   4.151
31565W        W99970   1.890  31.741  11.544
31566W        W99971  16.295   4.448  10.693
31567W        W99972   4.216  35.117  12.089
31568W        W99973   7.332  25.094  14.280
31569W        W99974  35.874  11.741   2.906
31570W        W99975  25.955  21.058   4.529
31571W        W99976  41.340  43.474  12.009
31572W        W99977  43.433  31.094   2.633
31573W        W99978  10.388  10.768  14.821
31574W        W99979   2.921  36.881   0.146
31575W        W99980  15.203  36.729   1.306
31576W        W99981  37.442  43.925   0.915
31577W        W99982  17.170  41.565   4.919
31578W        W99983  27.510  31.820  10.929
31579W        W99984  40.407  40.510   0.231
31580W        W99985  35.069  36.378   3.718
31581W        W99986   4.817  44.992   4.573
31582W        W99987  19.315  40.488   3.668
31583W        W99988  11.600  15.745  13.715
31584W        W99989   4.452  37.563   4.390
31585W        W99990  22.339   2.352  12.602
31586W        W99991   8.977  15.610   3.340
31587W        W99992   5.985  37.352   4.508
31588W        W99993  24.517  34.137  14.187
31589W        W99994  27.847  37.247  14.485
31590W        W99995  23.412   3.233   3.955
31591W        W99996  43.731   9.247   2.226
31592W        W99997  33.900   8.585  10.767
31593W        W99998   5.379  38.483   3.725
31594W        W99999  25.655   5.726  13.090
31595W        W    0  41.994  30.103   4.393
31596W        W    1  27.947  35.880   0.910
31597W        W    2  38.944  19.306   5.003
31598W        W    3  11.793   5.884   3.338
31599W        W    4  36.186  23.292   0.768
31600W        W    5  40.797  18.763   3.155
31601W        W    6  37.148  34.887  10.621
31602W        W    7  26.435  28.836  10.932
31603W        W    8  35.652   2.457  12.907
31604W        W    9  36.152  37.370   0.750
31605W        W   10  19.505  14.706  13.994
31606W        W   11  12.387   4.698   4.840
31607W        W   12   2.922  14.874   2.271
31608W        W   13  21.270  21.658   4.254
31609W        W   14  17.316  34.626   0.461
31610W        W   15   4.785  27.680   3.573
31611W        W   16  32.097  38.952  12.116
31612W        W   17  29.100  18.964   0.539
31613W        W   18   5.196  24.595  12.074
31614W        W   19  39.972  15.545  12.562
31615W        W   20  28.260  13.515  14.816
31616W        W   21  30.926   2.258   4.540
31617W        W   22  27.981  26.396   4.426
31618W        W   23  26.872  39.593   4.522
31619W        W   24   1.530   5.041  14.836
31620W        W   25  36.913  40.870  12.582
31621W        W   26   4.186  17.224  14.811
31622W        W   27  43.940   0.841  13.521
31623W        W   28  39.640  24.542  12.459
31624W        W   29  22.019   1.016   4.201
31625W        W   30   1.216  35.850   3.571
31626W        W   31  16.472  31.103  12.284
31627W        W   32  36.060  15.609  14.230
31628W        W   33   4.222   7.522   1.809
31629W        W   34  13.754  34.772  14.800
31630W        W   35   0.573   9.875  14.435
31631W        W   36  13.854   9.355  11.528
31632W        W   37  24.916   5.908   1.419
31633W        W   38  28.360   1.291  12.684
31634W        W   39  39.331   1.266   0.224
31635W        W   40  33.147  42.919   1.375
31636W        W   41   7.273  30.052   1.011
31637W        W   42  30.181  32.474   4.604
31638W        W   43  22.262  21.800   3.820
31639W        W   44   3.419  30.007  11.646
31640W        W   45  44.662  28.482  12.599
31641W        W   46  32.392  19.288  13.100
31642W        W   47  33.578  26.613  10.234
31643W        W   48   2.277  18.180   2.018
31644W        W   49  31.930  10.298   5.058
31645W        W   50   4.931  25.079   0.157
31646W        W   51  10.331  17.253   3.923
31647W        W   52  33.802  32.094  13.057
31648W        W   53  35.701   3.209  12.505
31649W        W   54  22.749   8.778  13.955
31650W        W   55  11.742  19.737   0.502
31651W        W   56  43.443  33.010   3.441
31652W        W   57  35.904  15.626   1.882
31653W        W   58  11.372   3.676   1.315
31654W        W   59  14.031  13.756  10.750
31655W        W   60  31.462  40.415  13.466
31656W        W   61  26.174  16.047   1.262
31657W        W   62  37.386   7.846   5.031
31658W        W   63  33.481  17.057  12.518
31659W        W   64  24.509  26.610   0.452
31660W        W   65   9.197  26.585  13.453
31661W        W   66  24.183   6.444  14.319
31662W        W   67  38.506  34.131   0.821
31663W        W   68  28.095   6.325   1.357
31664W        W   69   7.402   4.309   4.594
31665W        W   70  38.626   0.962   2.448
31666W        W   71  14.356   9.979  14.265
31667W        W   72  13.262  37.165   4.769
31668W        W   73  13.875   6.817  10.772
31669W        W   74  17.544  41.730   3.033
31670W        W   75  32.805  36.077   0.753
31671W        W   76  14.239  34.105   1.728
31672W        W   77  26.187   5.749  13.145
31673W        W   78  31.552  30.363  12.582
31674W        W   79  44.395  38.396   0.424
31675W        W   80  40.246  23.686   1.905
31676W        W   81  10.673  35.820   3.659
31677W        W   82  41.682  18.383  14.917
31678W        W   83  43.898   2.601   2.051
31679W        W   84  26.469   8.881  13.184
31680W        W   85  16.732  43.792  12.025
31681W        W   86  12.918  31.223  13.366
31682W        W   87  37.448  19.553  10.522
31683W        W   88   0.725   3.308   0.030
31684W        W   89  38.355   8.661  12.521
31685W        W   90  27.067  38.747  13.545
31686W        W   91  21.092  36.402  12.768
31687W        W   92  25.934  29.151  11.490
31688W        W   93  29.518  22.700  13.444
31689W        W   94  33.131  22.158  12.246
31690W        W   95  43.549  15.576  10.702
31691W        W   96  28.023  44.205  14.454
31692W        W   97   8.407  44.933  11.145
31693W        W   98  42.386  27.159  14.423
31694W        W   99   1.205   2.683   1.787
31695W        W  100  24.912  31.390   1.857
31696W        W  101  29.739  24.898  14.726
31697W        W  102   3.595  31.673  10.778
31698W        W  103  30.342  24.972  12.193
31699W        W  104  21.582   0.965  10.216
31700W        W  105  40.402  37.955   1.318
31701W        W  106  12.516   3.775   9.953
31702W        W  107   2.320  34.622   1.893
31703W        W  108  14.596  25.101  10.164
31704W        W  109   0.022  16.332   3.633
31705W        W  110  38.958  19.726  10.984
31706W        W  111  41.375  35.968  11.844
31707W        W  112  12.528  17.075  12.413
31708W        W  113  12.670   2.313   2.876
31709W        W  114  15.311  42.562  12.122
31710W        W  115   3.394  27.361   1.780
31711W        W  116   1.376  44.364  13.353
31712W        W  117  41.709  37.778   2.685
31713W        W  118  38.737  30.855   4.262
31714W        W  119  13.571  18.551   4.187
31715W        W  120  33.894  39.976  13.315
31716W        W  121   8.138  13.102   4.767
31717W        W  122  23.221  34.974   2.393
31718W        W  123  32.954  32.736  14.353
31719W        W  124   4.389   4.684   5.126
31720W        W  125  23.279   7.534  12.867
31721W        W  126  11.825  21.734   0.430
31722W        W  127  28.737  35.094   2.804
31723W        W  128  33.443  22.990  13.423
31724W        W  129  28.242  30.208   1.034
31725W        W  130   9.742  43.075   0.535
31726W        W  131  18.363  14.123  10.774
31727W        W  132   5.982  41.844   0.957
31728W        W  133  21.067  13.810  10.646
31729W        W  134  25.502   0.010  11.333
31730W        W  135  32.030  11.568  11.397
31731W        W  136  44.747  29.874   0.448
31732W        W  137  29.920  22.290   4.172
31733W        W  138  36.927  22.626  11.678
31734W        W  139  31.953  13.185   4.613
31735W        W  140  41.394  42.355  14.810
31736W        W  141   5.395   0.606  13.008
31737W        W  142  35.968  33.873   0.199
31738W        W  143  20.643  32.627   4.221
31739W        W  144  37.538  13.665  12.724
31740W        W  145  16.910  22.024   1.851
31741W        W  146  13.299  12.678   0.126
31742W        W  147  33.354   1.269  13.237
31743W        W  148   6.796   9.345   4.140
31744W        W  149  22.432  37.144   2.192
31745W        W  150   9.179  11.241  14.466
31746W        W  151   2.777  28.081  12.456
31747W        W  152  41.777   3.266  14.353
31748W        W  153  41.543  12.934  12.609
31749W        W  154  29.694  38.449  14.709
31750W        W  155  29.494   6.255   3.808
31751W        W  156  12.476  34.012   5.156
31752W        W  157  21.122  31.505  10.670
31753W        W  158  39.323  19.283   4.634
31754W        W  159  13.518  42.190   4.153
31755W        W  160  38.570  13.170   3.753
31756W        W  161  36.281  35.035   3.846
31757W        W  162   5.404  44.143  14.812
31758W        W  163  35.952  29.915   2.175
31759W        W  164  13.765  44.905   3.182
31760W        W  165   8.868  25.580   2.643
31761W        W  166   9.893  42.560  11.204
31762W        W  167  40.909  28.166   2.682
31763W        W  168  10.678  36.497   2.304
31764W        W  169   5.768  41.972  14.467
31765W        W  170  22.588  41.205   1.717
31766W        W  171   5.898  15.191  12.041
31767W        W  172  37.910  18.496  12.399
31768W        W  173  28.754   7.773   3.225
31769W        W  174  41.500   3.471   1.457
31770W        W  175   6.808  32.068  11.271
31771W        W  176  22.600   3.304  14.002
31772W        W  177  30.765  34.602  10.616
31773W        W  178   2.314  19.285   4.852
31774W        W  179  15.311  43.888   3.918
31775W        W  180  25.759   0.024  13.871
31776W        W  181  12.882   7.814  14.396
31777W        W  182  21.712   2.188   3.742
31778W        W  183  38.180  30.952   3.487
31779W        W  184  27.153  38.404  12.503
31780W        W  185   3.391  34.413   4.810
31781W        W  186  13.532  13.839  10.812
31782W        W  187  37.796  39.379  13.006
31783W        W  188  36.488  35.658  11.639
31784W        W  189  11.589  10.411  14.944
31785W        W  190  30.927  20.684   4.619
31786W        W  191  43.326   7.698  13.042
31787W        W  192  26.652  13.572   1.215
31788W        W  193  35.307  27.554   4.619
31789W        W  194   5.902  36.385  13.787
31790W        W  195   8.255  28.486   2.343
31791W        W  196  33.800   2.490   1.985
31792W        W  197  10.220  27.011  12.530
31793W        W  198  28.365  39.149   3.060
31794W        W  199  18.556  28.451  10.915
31795W        W  200   1.036  28.976  11.574
31796W        W  201   4.226  28.053  12.045
31797W        W  202   8.549  40.193   3.656
31798W        W  203   1.642   6.894  11.410
31799W        W  204  15.056  24.274   4.197
31800W        W  205  40.254  32.359   0.788
31801W        W  206  41.494  35.134   2.760
31802W        W  207  19.611  42.609   3.615
31803W        W  208  23.728  25.782   1.753
31804W        W  209  24.529   4.516  14.929
31805W        W  210   6.236  35.832  14.833
31806W        W  211  16.371  11.597   9.969
31807W        W  212  24.265  16.848  12.551
31808W        W  213   7.824  39.140  12.929
31809W        W  214  29.570  18.627   0.567
31810W        W  215  30.789   4.307   2.933
31811W        W  216  42.846   4.396  13.915
31812W        W  217  38.926   0.037   2.210
31813W        W  218  15.435  14.750   1.140
31814W        W  219   2.015  25.216   1.854
31815W        W  220  35.499   7.783   3.639
31816W        W  221  16.708   4.792   9.993
31817W        W  222  31.926  37.782  12.942
31818W        W  223  40.383  42.562   1.509
31819W        W  224  22.478  13.152   3.047
31820W        W  225  41.738  26.420   4.937
31821W        W  226  35.574  29.415  10.652
31822W        W  227  17.142  12.507   0.617
31823W        W  228   7.927  21.340   0.684
31824W        W  229   0.553  22.219  13.077
31825W        W  230  36.464   8.873   0.837
31826W        W  231  40.703  21.072   2.340
31827W        W  232  20.723   5.392   4.204
31828W        W  233  21.726  15.482  11.692
31829W        W  234   0.414  35.506  14.441
31830W        W  235   9.384  31.952   3.191
31831W        W  236  35.090   0.416  14.466
31832W        W  237  26.050  18.841   0.276
31833W        W  238  31.361  13.963  14.131
31834W        W  239  21.794   6.351   1.396
31835W        W  240  28.589  11.346   1.504
31836W        W  241  17.860  33.876  13.405
31837W        W  242  18.184   4.646  12.424
31838W        W  243  10.389   3.952  10.964
31839W        W  244  44.301  17.792   0.777
31840W        W  245  17.988  12.152   2.828
31841W        W  246  29.276  12.446  12.911
31842W        W  247  41.242  15.548   3.312
31843W        W  248  24.035  19.058   3.631
31844W        W  249  12.727  17.393   4.052
31845W        W  250  34.626  30.392  11.163
31846W        W  251  32.976  27.571  11.114
31847W        W  252   9.377  37.521  13.492
31848W        W  253  37.436  15.176   0.365
31849W        W  254   1.936  23.761  12.402
31850W        W  255  28.935  24.148   2.223
31851W        W  256   0.344  43.548   3.423
31852W        W  257  29.911   4.432   0.322
31853W        W  258  39.545  26.813  12.611
31854W        W  259  24.965   8.909   3.243
31855W        W  260   9.233  13.654   1.973
31856W        W  261  42.381  15.794   2.559
31857W        W  262  44.847  38.986   3.767
31858W        W  263  29.087  33.003   4.188
31859W        W  264  10.479  18.590   3.307
31860W        W  265  28.668  19.065  11.983
31861W        W  266   6.024   3.422   0.730
31862W        W  267  32.497  12.220   1.121
31863W        W  268  28.698   2.894   3.716
31864W        W  269  37.372  41.561   4.098
31865W        W  270  43.418   4.213  14.731
31866W        W  271   3.909  11.099   2.756
31867W        W  272  34.971   0.003  13.377
31868W        W  273  10.364  35.562   3.318
31869W        W  274  11.103  25.014   3.776
31870W        W  275  22.586  41.958   3.868
31871W        W  276  17.179  29.501   3.701
31872W        W  277  38.938  11.469   2.518
31873W        W  278  20.051  30.591  11.539
31874W        W  279  18.157   6.837  13.354
31875W        W  280  30.679   3.779  10.831
31876W        W  281   4.522  32.087   0.352
31877W        W  282  20.538   7.469   4.128
31878W        W  283  36.019  32.077   4.783
31879W        W  284  23.604  32.054  14.384
31880W        W  285  19.186  19.231  10.506
31881W        W  286  15.874   1.211   4.195
31882W        W  287  17.139  41.517  11.431
31883W        W  288   9.109   2.969   1.623
31884W        W  289  19.312  40.588   0.869
31885W        W  290  17.219  42.464  11.629
31886W        W  291  32.622  17.395  13.987
31887W        W  292  23.520  32.189   1.847
31888W        W  293   6.667  38.342   1.575
31889W        W  294  25.382   8.117   1.154
31890W        W  295  13.925  35.461   1.266
31891W        W  296  22.250   2.184  10.673
31892W        W  297  24.581  24.472   2.196
31893W        W  298  22.782  31.786   2.391
31894W        W  299  42.804   3.900   4.466
31895W        W  300  26.061  13.025   1.395
31896W        W  301  20.738   0.573  12.185
31897W        W  302  10.190  16.811   3.663
31898W        W  303  26.537  22.277  11.652
31899W        W  304  11.666   2.307  11.462
31900W        W  305  26.778  22.564   5.009
31901W        W  306  18.236  13.569   2.518
31902W        W  307  26.644  28.596  14.441
31903W        W  308  35.100   0.719  11.235
31904W        W  309  27.922   7.486  11.677
31905W        W  310  36.391  34.345   3.267
31906W        W  311  30.408   5.396  13.454
31907W        W  312  35.746  27.642  13.849
31908W        W  313  21.567  19.599   1.543
31909W        W  314  31.011  16.793   2.498
31910W        W  315  34.318  25.082   1.862
31911W        W  316  22.184  24.979   3.929
31912W        W  317  22.929  30.646  11.947
31913W        W  318   1.921  21.187  10.750
31914W        W  319  16.590   1.914  13.990
31915W        W  320   3.122  38.932   1.440
31916W        W  321  24.749  36.137  13.105
31917W        W  322  43.661  21.015  14.478
31918W        W  323  17.388  26.965   3.450
31919W        W  324  19.038  22.029   4.277
31920W        W  325  32.041   8.242   4.246
31921W        W  326  13.300  22.442  10.794
31922W        W  327  44.041  16.054  14.913
31923W        W  328  27.565   8.007  12.297
31924W        W  329  25.087  33.315  13.865
31925W        W  330  13.046  26.506  13.214
31926W        W  331  42.983  17.808   0.778
31927W        W  332  18.754   1.794  13.099
31928W        W  333  13.247  40.874  11.529
31929W        W  334  40.220  19.019  14.935
31930W        W  335  34.064  22.949   0.281
31931W        W  336  31.412  36.261  12.943
31932W        W  337  40.856  28.761   4.087
31933W        W  338  15.915  11.303  10.776
31934W        W  339  41.438  13.424   1.790
31935W        W  340  22.358  14.758  12.751
31936W        W  341  26.393   4.451  13.962
31937W        W  342  23.636  20.140  11.379
31938W        W  343  24.060  17.077   1.598
31939W        W  344   8.107  39.065   4.507
31940W        W  345   6.265  13.073   0.771
31941W        W  346   0.503   6.877  13.022
31942W        W  347  18.152  31.033  14.244
31943W        W  348  33.732  19.657   4.734
31944W        W  349  17.372  32.087   4.098
31945W        W  350  20.311  15.711  14.438
31946W        W  351   0.238  41.416   4.389
31947W        W  352  23.892  28.670  13.335
31948W        W  353   2.195  11.836  10.510
31949W        W  354  31.367  14.609  11.049
31950W        W  355  37.466  28.213  13.363
31951W        W  356  12.258  37.492   3.713
31952W        W  357  11.727  41.526  12.911
31953W        W  358  36.058   4.014  11.619
31954W        W  359  17.643  30.095   4.280
31955W        W  360  28.688   8.726  12.929
31956W        W  361  37.908   2.996   4.663
31957W        W  362  31.466  14.178   4.286
31958W        W  363   5.396  32.187  12.808
31959W        W  364   4.351   0.323   4.435
31960W        W  365   9.323  35.373   1.402
31961W        W  366  26.927  12.375   0.830
31962W        W  367   2.396   2.862  14.241
31963W        W  368  37.991  21.468   4.230
31964W        W  369  14.622  42.643   3.758
31965W        W  370  19.946  31.449   1.441
31966W        W  371  35.840  12.690  10.722
31967W        W  372   2.701  18.788   3.681
31968W        W  373  12.658  27.047   1.934
31969W        W  374  16.087  17.970   0.837
31970W        W  375  44.245  23.188   3.687
31971W        W  376  13.567  14.792   1.722
31972W        W  377   3.301  40.668  12.843
31973W        W  378   2.438  34.404   3.136
31974W        W  379  10.133  21.296   2.670
31975W        W  380  27.370  17.079  11.028
31976W        W  381  11.782  44.409   4.863
31977W        W  382  43.060  17.066  11.716
31978W        W  383  17.617  28.591  11.586
31979W        W  384  35.892   6.905   1.869
31980W        W  385   1.527   2.292   0.398
31981W        W  386  19.372   9.660   0.011
31982W        W  387  44.796  35.941  14.881
31983W        W  388  27.696  15.707   3.382
31984W        W  389  15.871  14.851   0.878
31985W        W  390  23.227  21.683   4.747
31986W        W  391  23.379  28.752  10.735
31987W        W  392  20.233  41.927   0.341
31988W        W  393  31.548  40.430   3.743
31989W        W  394   3.354  13.861  10.724
31990W        W  395  16.162  31.540  13.566
31991W        W  396  14.164  29.118  14.749
31992W        W  397   4.999  15.977  10.292
31993W        W  398  22.202  24.589   0.885
31994W        W  399  39.297  11.316  11.448
31995W        W  400  24.831   6.971   4.675
31996W        W  401  19.578  18.511  14.482
31997W        W  402  31.942  15.325  12.123
31998W        W  403  18.771  15.558  11.348
31999W        W  404  24.095  23.748  11.617
32000W        W  405  15.302  10.331   2.266
32001W        W  406  22.046  13.136   0.766
32002W        W  407   2.526  28.625   0.731
32003W        W  408   0.251   0.486   4.138
32004W        W  409  22.526  33.285   5.046
32005W        W  410  39.533  20.821   3.103
32006W        W  411  19.323  42.809   1.379
32007W        W  412  16.163  33.263   2.630
32008W        W  413  31.648   8.204  10.697
32009W        W  414  33.821  34.954  13.539
32010W        W  415  17.315  26.097   1.268
32011W        W  416  34.518   2.895   4.317
32012W        W  417  35.237  31.264   1.223
32013W        W  418  34.956  29.666   4.649
32014W        W  419   5.913   0.492  12.161
32015W        W  420  15.269  11.260   2.244
32016W        W  421  31.542  22.680   1.103
32017W        W  422  15.312  41.294  14.738
32018W        W  423   8.241  34.405  12.824
32019W        W  424  42.906  24.857  12.483
32020W        W  425  18.480  33.626  10.334
32021W        W  426  10.718  18.505  13.725
32022W        W  427  34.956  42.290  12.888
32023W        W  428  41.313  36.336  12.621
32024W        W  429  24.768  18.264   2.415
32025W        W  430  10.656  40.499   1.357
32026W        W  431  13.746  14.158  14.464
32027W        W  432   2.978  19.555  11.013
32028W        W  433  18.057  30.074   3.379
32029W        W  434  34.543  27.023  14.199
32030W        W  435  15.828  28.487   2.665
32031W        W  436  17.134  40.991  11.196
32032W        W  437  12.423  32.121   3.284
32033W        W  438  28.622  18.165   2.292
32034W        W  439  12.832  26.931   2.905
32035W        W  440   1.403  10.231  11.000
32036W        W  441  34.583   4.955  10.342
32037W        W  442  20.536  22.256   1.205
32038W        W  443   5.332  13.331  14.049
32039W        W  444  35.789  32.130  12.073
32040W        W  445  13.365  29.986   4.653
32041W        W  446  16.654  43.408   0.949
32042W        W  447  12.062  38.030   4.620
32043W        W  448  42.087   4.720   2.694
32044W        W  449  24.623  17.580  14.825
32045W        W  450  34.511  37.891   2.175
32046W        W  451  18.627  14.166   4.266
32047W        W  452  39.770   9.240   2.927
32048W        W  453  29.426  14.217   0.490
32049W        W  454  10.258  16.251  13.894
32050W        W  455  21.221  21.744  11.228
32051W        W  456  39.571  13.007  11.610
32052W        W  457  16.212  17.321   4.593
32053W        W  458  10.787  41.045  12.489
32054W        W  459   6.421   3.774  12.527
32055W        W  460  39.490  14.870   3.383
32056W        W  461   5.281  32.823  11.130
32057W        W  462  26.241   2.457   0.421
32058W        W  463  11.906  14.295   4.145
32059W        W  464  10.668  18.701   1.992
32060W        W  465  25.051  15.643   1.727
32061W        W  466  22.172  13.160   2.063
32062W        W  467  28.601  41.338  13.071
32063W        W  468  36.122  18.347   4.971
32064W        W  469  34.857  14.634  11.200
32065W        W  470  16.236  30.436  14.368
32066W        W  471  31.894  39.516   1.565
32067W        W  472  20.207  20.246  11.371
32068W        W  473  43.975   6.424  13.257
32069W        W  474   1.460  32.045   2.718
32070W        W  475  21.788  13.143   4.457
32071W        W  476  27.150  31.322  12.475
32072W        W  477  42.283  28.927   3.673
32073W        W  478   0.451  22.605  14.918
32074W        W  479   5.838  28.643   0.878
32075W        W  480  27.984  31.422  12.368
32076W        W  481  40.244   9.040   4.469
32077W        W  482   6.966  13.373  11.155
32078W        W  483  34.061  20.246   0.849
32079W        W  484   8.408  24.752   2.729
32080W        W  485  31.858  11.710   4.119
32081W        W  486  20.718   8.237  10.518
32082W        W  487  14.286   2.451  12.845
32083W        W  488  31.958  16.298   4.404
32084W        W  489   8.193  34.427   0.629
32085W        W  490  41.104   2.660   1.768
32086W        W  491  15.389  32.008  13.905
32087W        W  492  10.929  10.202   3.279
32088W        W  493  35.317  37.085  11.530
32089W        W  494  32.326  35.385  13.439
32090W        W  495  32.042  24.625   4.955
32091W        W  496   8.501  12.319   3.289
32092W        W  497  18.590  15.670  12.782
32093W        W  498  32.146  26.848   4.107
32094W        W  499  20.582   4.416   3.202
32095W        W  500   9.336  14.227   2.637
32096W        W  501  15.146  20.250   2.404
32097W        W  502  16.807   6.710  10.981
32098W        W  503  32.488  30.129   3.100
32099W        W  504  44.782  29.654   2.988
32100W        W  505  28.752  37.150   1.318
32101W        W  506  18.560  10.172  13.959
32102W        W  507  14.716   7.193   2.735
32103W        W  508  36.604  11.257   3.678
32104W        W  509  29.346  11.163  13.125
32105W        W  510  36.844  15.692   2.313
32106W        W  511  22.118  35.919  12.608
32107W        W  512  30.183  24.018  13.528
32108W        W  513  28.932   7.349  14.738
32109W        W  514  16.815  15.126  12.435
32110W        W  515  13.632  38.309   1.320
32111W        W  516  38.405  32.547  14.948
32112W        W  517   4.629  19.499   1.744
32113W        W  518  34.442   0.570  12.767
32114W        W  519  38.515  19.671  12.577
32115W        W  520  12.306  15.262   3.087
32116W        W  521  41.932  21.607   4.471
32117W        W  522  31.107  25.234   4.177
32118W        W  523  32.954  21.560  14.817
32119W        W  524  28.439  10.891   3.216
32120W        W  525  39.592  38.362  13.361
32121W        W  526  30.709  36.061  13.970
32122W        W  527  21.186  39.357  13.401
32123W        W  528  11.208  38.670   1.679
32124W        W  529  19.158   4.335  13.642
32125W        W  530  34.813  43.037   1.399
32126W        W  531  25.002  17.487  14.422
32127W        W  532  17.897   0.536   3.145
32128W        W  533  42.376  44.738   2.233
32129W        W  534  26.439  24.251   0.843
32130W        W  535  22.751  10.646   1.481
32131W        W  536  35.589  36.521   3.372
32132W        W  537  27.029  32.517   2.713
32133W        W  538  14.413  34.916  11.983
32134W        W  539  17.590  24.016   1.890
32135W        W  540  13.115   0.856   2.434
32136W        W  541   1.988  12.651  11.230
32137W        W  542  19.829  30.075   4.141
32138W        W  543   2.985  30.943  10.760
32139W        W  544  44.007   7.602   3.152
32140W        W  545  24.853  15.013  11.628
32141W        W  546  24.642  38.969   4.326
32142W        W  547  25.743  17.672  11.589
32143W        W  548  42.961  12.814   2.236
32144W        W  549   4.255  44.032  10.772
32145W        W  550  12.442  19.079   4.705
32146W        W  551  35.916  26.282   4.867
32147W        W  552  19.799  22.103  11.910
32148W        W  553  34.865   0.477   3.336
32149W        W  554  30.293  16.525   1.378
32150W        W  555  27.129  16.584   3.378
32151W        W  556  28.519  34.532  14.284
32152W        W  557   3.672  40.455   2.768
32153W        W  558   7.516  37.328  14.021
32154W        W  559  39.068  22.310  14.346
32155W        W  560   2.001  36.894   0.252
32156W        W  561  12.262   2.957  11.545
32157W        W  562  36.734  26.676  11.950
32158W        W  563  36.877  37.430  13.082
32159W        W  564  18.492   1.732   2.398
32160W        W  565  32.178   1.323  12.539
32161W        W  566  30.427  38.872  10.317
32162W        W  567  38.158  25.002   1.890
32163W        W  568   2.904  41.057   1.891
32164W        W  569  33.025  25.721   3.054
32165W        W  570  21.916  27.778   1.410
32166W        W  571  18.714  37.972   0.672
32167W        W  572  17.656  17.709  12.803
32168W        W  573  12.751   2.271  12.674
32169W        W  574   8.649   6.305  12.402
32170W        W  575  14.549  39.347  11.176
32171W        W  576  13.647  14.876  11.565
32172W        W  577   2.782  10.604   4.593
32173W        W  578  10.386   1.554  12.398
32174W        W  579  12.535  39.922   3.772
32175W        W  580  17.203   3.897  10.667
32176W        W  581  40.366  22.707   4.046
32177W        W  582  20.587  23.142  10.714
32178W        W  583   2.457  42.551   1.217
32179W        W  584  18.142   1.261   4.605
32180W        W  585  32.011  29.197   1.849
32181W        W  586  38.864  35.656   2.114
32182W        W  587  25.214  16.427   5.384
32183W        W  588   0.759  11.084  13.055
32184W        W  589  40.271   8.673   2.743
32185W        W  590  11.394  38.975   1.307
32186W        W  591   0.469   0.943  12.821
32187W        W  592  15.627   2.727  11.094
32188W        W  593  38.280  21.781   2.151
32189W        W  594  26.514  22.152   1.588
32190W        W  595  21.311  44.552  12.065
32191W        W  596  23.215  15.754  10.241
32192W        W  597   9.892  21.951  11.649
32193W        W  598   8.309  13.197   2.176
32194W        W  599  27.058  16.764   0.541
32195W        W  600  35.633  39.554   4.152
32196W        W  601  41.906  37.924  12.557
32197W        W  602  25.168  29.034  13.643
32198W        W  603  36.523  24.987   3.398
32199W        W  604  43.450  13.219  11.230
32200W        W  605  19.333  20.761   1.735
32201W        W  606   5.152  34.321   3.176
32202W        W  607   2.926  10.296   1.889
32203W        W  608   2.224  24.730   2.184
32204W        W  609  41.802  26.729  12.132
32205W        W  610   7.433  20.741   3.873
32206W        W  611  41.246  23.589   1.905
32207W        W  612  40.834  39.549  13.468
32208W        W  613  30.429  26.134  14.396
32209W        W  614  42.316   5.867  14.418
32210W        W  615  32.179   6.206  11.523
32211W        W  616  38.257  23.846   1.996
32212W        W  617  34.901   7.559  10.750
32213W        W  618  43.359  41.114  11.533
32214W        W  619  37.368   9.753  12.021
32215W        W  620  43.937  32.426  12.866
32216W        W  621  10.637  44.153  12.396
32217W        W  622   0.751  24.967  13.008
32218W        W  623  44.127   0.748   3.771
32219W        W  624  42.386   8.154  14.797
32220W        W  625   7.827  24.624   4.715
32221W        W  626   5.975  28.076   0.468
32222W        W  627  27.914   6.830  10.595
32223W        W  628  40.307   6.337  10.951
32224W        W  629  43.487  12.036  13.271
32225W        W  630  18.638  36.235   3.629
32226W        W  631   0.177  10.633  13.675
32227W        W  632  34.023  31.699  14.429
32228W        W  633  33.141  20.796   4.853
32229W        W  634   3.806  33.380  11.037
32230W        W  635  15.420  25.998  12.120
32231W        W  636  37.572  35.773  14.387
32232W        W  637  14.671  13.882   3.333
32233W        W  638   6.345  36.941   2.981
32234W        W  639  33.110  33.209   4.629
32235W        W  640  27.087  36.540   0.951
32236W        W  641  40.785   1.315  11.391
32237W        W  642  43.516  14.804   0.889
32238W        W  643  26.662  38.565   0.208
32239W        W  644  16.128  39.930   1.745
32240W        W  645  22.643  25.723   3.198
32241W        W  646  16.777  21.696  11.621
32242W        W  647  27.768  25.197  12.040
32243W        W  648   9.156  44.475  11.072
32244W        W  649  12.375  40.418  12.959
32245W        W  650  13.243  11.256  12.688
32246W        W  651  28.035   1.874  14.497
32247W        W  652  26.401  26.124  12.666
32248W        W  653  30.083  27.249   1.280
32249W        W  654  35.358  26.917  10.581
32250W        W  655  13.327   1.299  14.856
32251W        W  656   5.872  10.411  13.911
32252W        W  657  28.673   4.635   0.749
32253W        W  658  15.210   5.705  11.489
32254W        W  659  36.337   2.344   4.798
32255W        W  660   5.302  10.658  13.115
32256W        W  661  38.368  44.779   4.095
32257W        W  662  35.454  14.860  11.993
32258W        W  663   7.150  15.360  10.241
32259W        W  664  28.789  17.862   4.527
32260W        W  665  22.257  15.763   2.406
32261W        W  666  25.776  16.704   4.555
32262W        W  667   8.368   2.564   4.142
32263W        W  668  13.470  30.857   4.906
32264W        W  669  27.911   3.245  14.380
32265W        W  670  38.804  35.353   1.174
32266W        W  671  20.454  29.865  14.111
32267W        W  672  14.307  37.060   2.303
32268W        W  673  24.301  36.591  11.110
32269W        W  674  31.427  20.156   1.317
32270W        W  675   4.595  26.096  12.877
32271W        W  676   9.887  33.937   1.675
32272W        W  677  17.102   1.990  13.912
32273W        W  678  26.686  22.032  12.074
32274W        W  679  26.235  15.284  11.086
32275W        W  680   7.683  12.538   2.219
32276W        W  681  36.944  12.193   0.499
32277W        W  682  31.143  37.470  14.777
32278W        W  683  18.198  27.929   1.626
32279W        W  684  44.772  11.403  13.561
32280W        W  685  17.752  10.380  10.688
32281W        W  686  43.942  28.505   1.178
32282W        W  687  44.172  27.956  11.989
32283W        W  688  40.923  13.005   4.723
32284W        W  689  39.522  25.523  12.939
32285W        W  690  28.431  15.704   3.776
32286W        W  691  15.709  30.466  13.554
32287W        W  692  11.388  10.314   3.682
32288W        W  693  38.995  11.397  12.678
32289W        W  694  39.171  14.240   3.728
32290W        W  695  43.192  35.574  12.515
32291W        W  696  18.987  17.187  14.474
32292W        W  697  38.308   5.218   4.479
32293W        W  698  29.129  18.512   0.321
32294W        W  699   8.774  25.677   3.130
32295W        W  700  13.047  16.740  12.120
32296W        W  701   9.566  43.354  11.027
32297W        W  702   2.293   9.649  12.586
32298W        W  703  31.406  16.525  14.780
32299W        W  704  23.568  12.986   0.488
32300W        W  705  24.500  38.019   1.191
32301W        W  706  32.882   6.899  12.814
32302W        W  707  42.777   8.852   2.310
32303W        W  708  31.134  31.160   4.764
32304W        W  709   1.312   9.170  12.011
32305W        W  710  19.463  18.686  12.467
32306W        W  711  36.370  17.028   2.109
32307W        W  712  22.077  16.680  13.012
32308W        W  713   2.394  39.773  13.049
32309W        W  714  31.703  16.332  13.814
32310W        W  715  26.604  24.329  12.439
32311W        W  716   9.860  37.101   3.864
32312W        W  717  13.126  16.350  14.310
32313W        W  718   7.001  41.176   3.665
32314W        W  719   3.502  38.000  10.740
32315W        W  720  17.326  31.851  14.135
32316W        W  721  29.731  16.305  14.426
32317W        W  722   1.216  26.016   4.721
32318W        W  723  29.228  18.316  14.622
32319W        W  724   4.594  44.144  11.149
32320W        W  725  36.516  26.839   1.620
32321W        W  726  28.121  29.671   2.740
32322W        W  727  24.698  14.595   1.780
32323W        W  728  11.120  43.842   0.331
32324W        W  729  21.651  31.960  14.805
32325W        W  730  41.871   0.821   2.658
32326W        W  731  28.991  19.618  13.519
32327W        W  732  28.422  21.489   2.401
32328W        W  733   2.406  41.476  13.392
32329W        W  734  13.121  13.064   3.789
32330W        W  735  22.448  21.801   0.628
32331W        W  736  44.943   6.293  11.865
32332W        W  737  35.032  41.273  10.715
32333W        W  738  14.085  13.108  13.960
32334W        W  739  12.836  19.338  13.715
32335W        W  740  44.982  14.363   4.661
32336W        W  741  28.452  16.623   1.792
32337W        W  742   0.513  22.723  10.637
32338W        W  743   8.798   4.632   2.870
32339W        W  744   1.020  34.694  14.049
32340W        W  745  33.210  19.054  11.202
32341W        W  746  13.697   7.744  11.048
32342W        W  747  36.412  30.133  12.137
32343W        W  748  40.329  28.586   2.665
32344W        W  749   7.169   4.912  10.574
32345W        W  750  32.082  30.220   1.766
32346W        W  751  44.007  18.728   1.311
32347W        W  752   9.905  23.038  14.322
32348W        W  753  40.434   7.310  10.600
32349W        W  754  22.232   7.303  11.013
32350W        W  755  13.777  42.015  12.091
32351W        W  756  20.600   8.510  13.455
32352W        W  757   1.406   8.393  12.528
32353W        W  758   6.493   3.197   0.213
32354W        W  759   3.478  11.921  14.564
32355W        W  760  43.407  34.954  14.717
32356W        W  761  32.650  28.905   2.286
32357W        W  762  30.067   5.804   3.625
32358W        W  763  26.198  22.557   1.323
32359W        W  764  44.871  27.167   4.299
32360W        W  765  25.127   3.448   2.832
32361W        W  766  32.324  27.123   2.376
32362W        W  767  28.930  24.647  12.480
32363W        W  768  15.844   6.479   3.017
32364W        W  769  42.285  29.141   1.409
32365W        W  770  33.123  27.180   1.318
32366W        W  771  42.005   7.310  13.160
32367W        W  772  18.864  14.176  10.707
32368W        W  773  11.929  28.299  11.966
32369W        W  774  19.008  32.179  14.418
32370W        W  775  16.886  10.690  14.358
32371W        W  776  43.479  12.839  14.638
32372W        W  777  19.566  21.190   1.889
32373W        W  778  29.273  28.498  12.175
32374W        W  779   8.385   4.501  12.502
32375W        W  780  18.534  16.417   1.333
32376W        W  781   0.429   1.006   0.551
32377W        W  782  31.079  41.341   3.556
32378W        W  783  25.994   5.196   3.777
32379W        W  784  38.100  13.624   0.949
32380W        W  785  32.101  41.787  14.763
32381W        W  786  21.089  34.049  11.480
32382W        W  787   4.780  10.431  11.234
32383W        W  788  26.542  26.057  10.704
32384W        W  789  36.618  32.289   2.836
32385W        W  790  16.864  21.624  12.933
32386W        W  791   3.334  36.370   4.190
32387W        W  792   8.949  30.463  13.187
32388W        W  793  32.973  22.295   2.930
32389W        W  794  40.070  29.792   0.881
32390W        W  795   5.584  33.197  10.922
32391W        W  796   3.833  30.506  13.582
32392W        W  797   3.224  32.035  14.854
32393W        W  798  42.352  19.197  12.945
32394W        W  799   5.174  41.309  13.997
32395W        W  800   4.951   5.801   4.907
32396W        W  801   8.480  18.591   0.799
32397W        W  802  29.240   8.881   1.401
32398W        W  803  14.149  38.422  13.804
32399W        W  804  25.645  36.061  13.283
32400W        W  805   6.720  41.767   0.382
32401W        W  806  40.340  21.521  14.407
32402W        W  807   5.798   7.263   0.860
32403W        W  808   3.263   3.829   2.662
32404W        W  809  21.757   9.746   2.368
32405W        W  810  17.525  43.026   2.676
32406W        W  811   5.798  32.937  14.801
32407W        W  812  22.487  24.727  13.663
32408W        W  813  23.209   4.493   3.323
32409W        W  814  26.592  21.235  11.598
32410W        W  815  31.454  13.572   4.880
32411W        W  816  44.045  17.946   2.786
32412W        W  817  32.588  10.891   3.231
32413W        W  818  31.406  20.273   4.201
32414W        W  819  11.140   3.382  14.432
32415W        W  820  29.103   7.989   0.935
32416W        W  821  32.889  29.172  10.651
32417W        W  822   6.152   2.451   1.230
32418W        W  823  21.242  20.532  11.117
32419W        W  824   8.294  37.721  11.181
32420W        W  825  31.015   6.868  10.639
32421W        W  826  16.437  36.504  13.531
32422W        W  827  35.211  32.281   0.286
32423W        W  828  25.030   4.602   0.223
32424W        W  829  10.796   2.178  11.315
32425W        W  830  16.140  42.781   5.058
32426W        W  831  43.962   7.147   3.468
32427W        W  832  39.863  19.252   4.820
32428W        W  833  16.119  41.795   2.613
32429W        W  834  37.825  34.107   1.407
32430W        W  835   0.797   0.815   0.205
32431W        W  836  12.633  15.818   1.676
32432W        W  837  25.692  21.182  11.441
32433W        W  838  22.297  38.511  11.562
32434W        W  839  21.706  33.424   4.773
32435W        W  840  31.671  24.145  10.692
32436W        W  841  22.434  11.011   1.632
32437W        W  842  17.659  40.896   4.581
32438W        W  843  43.015  18.338  12.014
32439W        W  844   9.834  35.471  14.011
32440W        W  845  19.589  25.615  10.760
32441W        W  846   3.192  22.580   0.619
32442W        W  847  27.979  32.131  11.637
32443W        W  848   9.308  11.840   1.348
32444W        W  849  34.465  14.512  12.390
32445W        W  850  31.036  40.330  14.274
32446W        W  851  18.146  26.962   4.641
32447W        W  852  41.837   9.078  14.717
32448W        W  853  44.714  14.653   1.384
32449W        W  854   4.253   6.339   2.644
32450W        W  855  17.129   4.915   2.608
32451W        W  856  14.658   7.427  11.073
32452W        W  857   9.649  31.922  11.892
32453W        W  858   8.885  16.819  12.055
32454W        W  859  30.068  10.207  14.400
32455W        W  860   1.319  23.728  13.848
32456W        W  861  38.384  12.209   4.592
32457W        W  862  44.962  10.547  12.924
32458W        W  863   1.417  31.652  13.325
32459W        W  864  35.979  36.110  10.971
32460W        W  865   5.251  11.387  12.562
32461W        W  866  27.431  42.297  12.546
32462W        W  867   4.914  29.140  11.541
32463W        W  868  27.593  37.570   3.212
32464W        W  869  20.274  39.434  12.067
32465W        W  870   3.417  32.991   3.937
32466W        W  871  39.982  13.171   1.251
32467W        W  872  32.193  15.545   0.145
32468W        W  873   2.220  33.800   1.483
32469W        W  874  41.987  31.632   1.849
32470W        W  875  32.747  39.620  12.123
32471W        W  876  23.831  35.274   4.342
32472W        W  877   2.033  39.734   1.086
32473W        W  878   5.433  11.394  13.890
32474W        W  879  31.941  13.938   2.660
32475W        W  880   5.363   7.848  10.509
32476W        W  881   9.905  15.174   0.753
32477W        W  882  29.258  19.676   4.909
32478W        W  883  33.692  12.284  10.780
32479W        W  884  19.158  13.058  11.116
32480W        W  885  34.803   5.234  14.401
32481W        W  886  18.871   0.909   4.799
32482W        W  887  39.059  22.026   2.346
32483W        W  888  20.768  30.864   0.345
32484W        W  889  39.060   9.039  13.918
32485W        W  890  11.343  15.344  13.938
32486W        W  891   6.606  38.297  11.125
32487W        W  892  19.159  33.375   3.204
32488W        W  893  41.778  33.179  10.779
32489W        W  894  23.594  44.180  12.509
32490W        W  895  34.876  35.716   1.604
32491W        W  896  16.127  22.199  10.534
32492W        W  897  34.128  42.992   0.105
32493W        W  898  35.333   4.595   4.548
32494W        W  899  40.745  11.145   0.302
32495W        W  900  24.583  37.750  12.051
32496W        W  901  20.291  31.051  11.508
32497W        W  902  31.007   8.034   3.472
32498W        W  903   0.691  24.295   2.599
32499W        W  904   0.247  19.696  13.618
32500W        W  905  21.780  26.258   1.492
32501W        W  906  40.299  24.831   0.945
32502W        W  907   9.752  25.710  11.995
32503W        W  908  33.466  37.233   0.759
32504W        W  909  30.861  20.099  12.112
32505W        W  910   5.194  21.585   1.252
32506W        W  911  10.305   9.757  14.892
32507W        W  912  33.962   1.956   1.718
32508W        W  913  29.615   1.034   5.004
32509W        W  914  23.686  39.104   3.742
32510W        W  915   4.718  24.485  12.145
32511W        W  916   5.556  11.734  11.737
32512W        W  917  40.892  23.001   3.502
32513W        W  918  12.609  41.825  14.519
32514W        W  919  29.764  26.212   3.572
32515W        W  920  40.022  17.608  14.825
32516W        W  921  25.491   2.857  11.651
32517W        W  922  39.763  42.875   4.046
32518W        W  923   7.626   9.637   3.253
32519W        W  924  36.041  36.695  11.151
32520W        W  925  34.394   5.495  13.850
32521W        W  926  42.633  10.457  12.386
32522W        W  927  21.534   2.333  13.727
32523W        W  928  26.757   6.234  11.955
32524W        W  929  20.575  37.808  10.616
32525W        W  930  43.554   5.326   4.467
32526W        W  931   1.646  44.246   1.983
32527W        W  932   7.314  28.568  10.602
32528W        W  933  15.636  41.983   3.347
32529W        W  934  24.558  10.792  11.576
32530W        W  935   4.854  26.625   1.298
32531W        W  936  29.293  44.831  14.378
32532W        W  937   8.846  14.341   1.797
32533W        W  938   6.481  30.660  11.965
32534W        W  939   9.002  10.253  13.482
32535W        W  940  40.600  30.414   4.967
32536W        W  941   6.417  22.761   4.520
32537W        W  942  27.169  39.218  11.374
32538W        W  943  16.504  11.672   3.704
32539W        W  944  41.918  20.678  12.477
32540W        W  945  23.691   6.209   3.649
32541W        W  946  19.071  39.351   4.056
32542W        W  947  39.900  14.570   0.749
32543W        W  948  38.227  13.049  13.898
32544W        W  949   9.897  33.429   0.679
32545W        W  950  24.962  33.955   4.231
32546W        W  951  44.731  26.026   2.553
32547W        W  952  10.054  34.885  14.030
32548W        W  953  11.235  22.742   4.316
32549W        W  954  36.491   8.439  10.580
32550W        W  955  26.429   2.296   0.890
32551W        W  956  13.725  14.374   3.386
32552W        W  957  35.876  14.039   2.759
32553W        W  958  13.271  11.159   2.241
32554W        W  959   0.944  12.580  11.682
32555W        W  960  41.053   2.081   5.242
32556W        W  961   5.673   1.046   4.394
32557W        W  962  29.518  22.958  10.642
32558W        W  963   2.269  37.427  10.302
32559W        W  964  33.382  12.559   4.183
32560W        W  965  16.208  19.517  13.217
32561W        W  966   1.023   2.851  14.821
32562W        W  967  28.162  12.507   3.550
32563W        W  968  24.721  34.136   2.748
32564W        W  969  12.511  32.043  10.633
32565W        W  970  11.321  43.015  13.001
32566W        W  971  16.151  15.117   0.184
32567W        W  972  25.425  26.924  14.910
32568W        W  973   2.817  21.751  14.483
32569W        W  974   3.259  25.692   3.371
32570W        W  975  17.188  13.695  11.644
32571W        W  976  25.695  24.656  13.054
32572W        W  977  21.757  44.149   4.036
32573W        W  978   5.102  20.572   4.640
32574W        W  979  23.849  41.455   3.244
32575W        W  980  12.785   1.379  12.646
32576W        W  981  20.506  31.018  13.784
32577W        W  982   3.813  38.770   1.683
32578W        W  983  39.586  15.370  13.010
32579W        W  984  19.764  35.316  14.725
32580W        W  985   6.289  39.017  13.482
32581W        W  986  16.582  38.660  10.448
32582W        W  987  32.384  22.500  12.585
32583W        W  988  30.957  19.129   3.629
32584W        W  989   2.487  39.671   1.356
32585W        W  990  41.368  21.178  11.730
32586W        W  991  40.492  14.850   1.888
32587W        W  992  29.943  26.002  14.242
32588W        W  993  31.280  31.131  12.985
32589W        W  994  13.197  32.310   2.272
32590W        W  995  39.567  27.987   2.796
32591W        W  996   4.863  22.194  14.007
32592W        W  997   0.307  23.953  14.886
32593W        W  998  34.753  14.110  11.209
32594W        W  999  25.928  30.926   1.954
32595W        W 1000  24.407  16.754   1.802
32596W        W 1001   4.919  36.992  14.996
32597W        W 1002  15.207  35.835  10.760
32598W        W 1003   9.169   5.258   3.168
32599W        W 1004  17.978  41.434   1.186
32600W        W 1005   2.557   1.065   4.960
32601W        W 1006  12.930   1.863   0.867
32602W        W 1007  18.342  40.026  12.641
32603W        W 1008  41.533  12.575  13.921
32604W        W 1009  12.580  34.356   3.220
32605W        W 1010  17.537   6.194  11.112
32606W        W 1011   8.957   6.213  11.975
32607W        W 1012  21.797  42.744  10.729
32608W        W 1013  22.184  18.534  12.649
32609W        W 1014  32.944  21.211   3.067
32610W        W 1015  23.930   1.966  13.925
32611W        W 1016  39.481  22.849  11.606
32612W        W 1017  31.890  37.588   4.180
32613W        W 1018  25.123  16.545  14.803
32614W        W 1019  31.094  17.177   2.144
32615W        W 1020  25.531  43.286   0.750
32616W        W 1021  43.390  37.776   0.287
32617W        W 1022   4.690  37.798   4.792
32618W        W 1023   7.987   7.347  13.038
32619W        W 1024  44.800  16.556  10.718
32620W        W 1025  25.173  25.612  13.836
32621W        W 1026  40.438  22.875  12.148
32622W        W 1027   7.425  30.165   2.386
32623W        W 1028  23.692  19.120  10.819
32624W        W 1029   2.981  24.781  14.517
32625W        W 1030  36.069  41.007   1.515
32626W        W 1031  19.130  23.515   3.231
32627W        W 1032  14.277  25.159   2.695
32628W        W 1033  37.783  20.066   1.253
32629W        W 1034  38.088   7.254   1.959
32630W        W 1035  12.372  18.376   3.324
32631W        W 1036  37.417   0.028  11.169
32632W        W 1037  40.775  34.657   4.512
32633W        W 1038  31.701  11.254   0.977
32634W        W 1039  44.423  30.939  12.521
32635W        W 1040  23.524  37.298  14.347
32636W        W 1041   0.677  39.926   4.013
32637W        W 1042  36.548  42.273   1.599
32638W        W 1043  42.314   2.506  13.203
32639W        W 1044  21.647  11.220   2.167
32640W        W 1045  15.867  36.458   2.702
32641W        W 1046  30.614  12.792   1.284
32642W        W 1047   2.674  16.200  14.873
32643W        W 1048  18.500  12.248  11.590
32644W        W 1049  34.021  27.437  11.962
32645W        W 1050  14.349  12.065   2.372
32646W        W 1051  40.466  35.806  11.387
32647W        W 1052  29.520  25.146   5.011
32648W        W 1053  17.604   3.796   0.838
32649W        W 1054  27.481  42.734  12.826
32650W        W 1055  31.487  22.884   3.300
32651W        W 1056  14.329  16.742  11.977
32652W        W 1057   3.831  33.413  14.294
32653W        W 1058  30.819  27.933  10.581
32654W        W 1059  15.908  37.570  10.355
32655W        W 1060  26.966  34.102  14.032
32656W        W 1061  42.898  33.132   4.809
32657W        W 1062   6.280  19.208  10.751
32658W        W 1063   0.923   5.247  12.054
32659W        W 1064  36.930  34.036   2.671
32660W        W 1065  42.502   0.232   2.320
32661W        W 1066  43.477  33.179   0.461
32662W        W 1067  44.906   6.690   1.358
32663W        W 1068  21.970  14.531   1.951
32664W        W 1069   9.891  37.602   2.248
32665W        W 1070  33.488   3.049   4.332
32666W        W 1071   0.779  36.607   4.648
32667W        W 1072  12.225   5.415   1.788
32668W        W 1073   3.137  42.965   0.975
32669W        W 1074   3.757   2.345   1.536
32670W        W 1075  23.239  39.332  12.499
32671W        W 1076  34.353   2.457  14.238
32672W        W 1077  13.638  14.197   2.878
32673W        W 1078   5.772  14.777  14.975
32674W        W 1079  37.978  30.520   1.826
32675W        W 1080  19.060   3.278   4.979
32676W        W 1081  44.781  29.072   4.205
32677W        W 1082  23.289  40.901  14.261
32678W        W 1083  21.306  38.605   2.476
32679W        W 1084  25.457  43.087   3.300
32680W        W 1085  35.757  19.700   0.561
32681W        W 1086  14.085  30.511  13.167
32682W        W 1087   1.905  25.610   2.184
32683W        W 1088   8.804  29.639  13.397
32684W        W 1089   3.399   2.979   2.441
32685W        W 1090   5.705  34.116   1.210
32686W        W 1091  40.819  32.528  11.584
32687W        W 1092  33.492  29.002  11.226
32688W        W 1093  28.077  23.254  14.734
32689W        W 1094   4.112  43.559  11.712
32690W        W 1095  40.860  44.104   0.802
32691W        W 1096  26.453  33.794   0.695
32692W        W 1097   9.293  42.674  13.050
32693W        W 1098  24.476  39.470  13.080
32694W        W 1099  15.730   4.815   3.825
32695W        W 1100  20.669  44.979   0.717
32696W        W 1101  18.019   2.891  13.179
32697W        W 1102  32.891   4.225  14.966
32698W        W 1103   8.304  34.738  14.247
32699W        W 1104  26.668  16.741  13.101
32700W        W 1105  17.922  28.169  11.663
32701W        W 1106  12.220  16.754   1.961
32702W        W 1107  35.418  43.759  13.482
32703W        W 1108  17.670  32.208   3.300
32704W        W 1109  10.778  27.416  13.475
32705W        W 1110   3.630  44.604   5.095
32706W        W 1111  15.326   3.203  12.165
32707W        W 1112  37.144   5.067   0.762
32708W        W 1113  26.565  15.348  10.690
32709W        W 1114   0.317  40.728   0.494
32710W        W 1115  23.716  24.524  10.708
32711W        W 1116   0.959  10.700   4.499
32712W        W 1117   3.125  16.162   1.134
32713W        W 1118  19.000  21.703   1.337
32714W        W 1119  44.103  39.068  13.029
32715W        W 1120  28.190  13.635   1.880
32716W        W 1121  41.959  14.070   0.470
32717W        W 1122  30.138  24.000  12.382
32718W        W 1123  17.838   0.282   1.830
32719W        W 1124  42.885   3.036  13.943
32720W        W 1125  38.640  19.581   2.255
32721W        W 1126  20.143  32.509   0.470
32722W        W 1127  40.371   8.137   0.780
32723W        W 1128  28.086  33.347  14.352
32724W        W 1129  26.770  40.423   9.550
32725W        W 1130  25.155   3.464  10.746
32726W        W 1131  38.544  32.246   4.349
32727W        W 1132  33.378  28.692  13.991
32728W        W 1133  33.970  32.262  11.743
32729W        W 1134  35.503  17.073   1.379
32730W        W 1135   1.569  33.938  11.125
32731W        W 1136  41.115  26.537  11.640
32732W        W 1137  42.428  36.320  10.600
32733W        W 1138  11.583  11.511   3.978
32734W        W 1139   0.025  13.793  14.897
32735W        W 1140   5.464  37.526  11.620
32736W        W 1141   2.004  21.763  12.435
32737W        W 1142   0.403  34.713   4.051
32738W        W 1143  40.658  37.258   3.984
32739W        W 1144  40.493   2.315   2.849
32740W        W 1145  20.070  32.073   3.127
32741W        W 1146  13.510   4.778   3.249
32742W        W 1147  20.657  23.512   4.172
32743W        W 1148  19.903   9.165  11.888
32744W        W 1149  29.035   1.409   0.562
32745W        W 1150  39.423   6.956   3.247
32746W        W 1151   9.609  15.042  10.269
32747W        W 1152  40.838   5.428  14.947
32748W        W 1153   6.669   8.858  12.962
32749W        W 1154  25.097  33.010   4.124
32750W        W 1155  37.957  16.136  13.351
32751W        W 1156  30.508  44.859  11.102
32752W        W 1157  10.671   0.594  11.022
32753W        W 1158  33.143  34.563  11.696
32754W        W 1159  11.904  10.259   3.562
32755W        W 1160  19.778  18.982  14.518
32756W        W 1161   8.849  38.600   4.172
32757W        W 1162  34.914  39.825   1.769
32758W        W 1163  27.972  34.966  11.013
32759W        W 1164   4.774  35.807  11.074
32760W        W 1165   7.226  34.827  14.440
32761W        W 1166  21.099   8.645  13.390
32762W        W 1167  13.213  35.331  14.470
32763W        W 1168   4.344  19.762   1.334
32764W        W 1169  33.872  44.094   2.880
32765W        W 1170  41.327   1.876   0.489
32766W        W 1171   3.307  10.272  11.651
32767W        W 1172  22.842   6.067   3.320
32768W        W 1173  20.790  42.351  12.065
32769W        W 1174  40.745  23.895  11.501
32770W        W 1175   6.879  29.847  12.488
32771W        W 1176   0.249   7.393   4.590
32772W        W 1177  25.206  27.434  14.345
32773W        W 1178   2.338   5.076   5.436
32774W        W 1179   2.221  22.699  11.918
32775W        W 1180  12.807  41.316   0.787
32776W        W 1181  32.686   2.853   2.695
32777W        W 1182  12.147  41.468  11.387
32778W        W 1183  13.224  33.382   4.941
32779W        W 1184  37.136  31.142   3.222
32780W        W 1185  27.792  31.321   4.273
32781W        W 1186  17.802  10.850   2.399
32782W        W 1187  26.548   5.687  10.405
32783W        W 1188  13.096  29.866  12.035
32784W        W 1189  34.470   9.298   4.191
32785W        W 1190   2.180   7.399  14.345
32786W        W 1191   8.911  35.558   4.708
32787W        W 1192  43.728  29.740  14.228
32788W        W 1193  10.545  15.532   1.469
32789W        W 1194  34.921  25.957   3.215
32790W        W 1195  36.847  40.104   0.686
32791W        W 1196  12.134  36.959   3.691
32792W        W 1197  23.543  27.292  13.054
32793W        W 1198  30.109  36.757  14.825
32794W        W 1199   1.920  19.969   0.239
32795W        W 1200  39.479  18.775   2.850
32796W        W 1201  27.922  36.964  10.437
32797W        W 1202  27.175  24.608  12.088
32798W        W 1203  29.808  31.227  12.913
32799W        W 1204  29.739  37.088  14.303
32800W        W 1205  27.588  15.187   2.639
32801W        W 1206   6.728  14.371   1.434
32802W        W 1207  36.066   5.562   2.868
32803W        W 1208   1.519   4.851  10.722
32804W        W 1209  44.266   6.586  12.845
32805W        W 1210  20.731  20.447   2.308
32806W        W 1211   9.617  22.089  12.064
32807W        W 1212  19.450  30.219  11.520
32808W        W 1213  43.822   7.813  14.812
32809W        W 1214  16.080  41.288  13.080
32810W        W 1215  26.579  36.248  14.350
32811W        W 1216  13.711  34.376   0.665
32812W        W 1217  15.438  29.057   3.638
32813W        W 1218   2.809  36.883  14.084
32814W        W 1219   8.084  18.163  11.310
32815W        W 1220  28.650  41.838  14.861
32816W        W 1221  20.088   9.176   1.235
32817W        W 1222  37.323   4.902  11.960
32818W        W 1223   6.737  42.446  12.875
32819W        W 1224  44.373  35.061   1.265
32820W        W 1225  19.768  27.549  12.423
32821W        W 1226   2.346   9.280   0.254
32822W        W 1227  16.259   0.166   1.856
32823W        W 1228  35.166  28.054   2.679
32824W        W 1229  12.948  35.874   4.842
32825W        W 1230  38.827  34.959  14.528
32826W        W 1231  12.688  12.276   3.068
32827W        W 1232   4.673   2.302   1.285
32828W        W 1233  44.031  13.298   4.639
32829W        W 1234  38.268  34.655   3.297
32830W        W 1235   9.709  42.750   4.561
32831W        W 1236  19.544  39.995  11.496
32832W        W 1237  15.378  28.732  13.909
32833W        W 1238  31.050  30.995   0.921
32834W        W 1239  27.115   7.151  13.923
32835W        W 1240  44.312  21.083   0.046
32836W        W 1241   6.670  27.691  10.612
32837W        W 1242   1.531  14.622  12.880
32838W        W 1243  23.970  44.280  11.195
32839W        W 1244   2.729  20.528   2.270
32840W        W 1245  32.686   5.459  11.745
32841W        W 1246  16.337  44.949  14.560
32842W        W 1247  37.055  16.330  14.846
32843W        W 1248  23.169  42.955  10.387
32844W        W 1249  10.087  21.519  13.492
32845W        W 1250  27.570  34.635   4.332
32846W        W 1251  37.508   7.265  14.063
32847W        W 1252  25.946  35.106   0.000
32848W        W 1253  38.554   5.467   1.747
32849W        W 1254  16.137   3.456  13.451
32850W        W 1255  12.562   0.709  12.486
32851W        W 1256  23.133  28.189   2.783
32852W        W 1257  20.992  26.610  11.148
32853W        W 1258  22.736  22.585   4.500
32854W        W 1259  37.410  10.279  12.036
32855W        W 1260  15.740  14.655  10.646
32856W        W 1261  21.011  25.162  10.789
32857W        W 1262   4.395  21.608   4.158
32858W        W 1263   3.965   1.561  10.756
32859W        W 1264  17.889   1.738  13.868
32860W        W 1265  26.923  21.221  14.823
32861W        W 1266  40.002  40.666   0.795
32862W        W 1267  16.938  12.324   3.087
32863W        W 1268   2.506  32.178   0.915
32864W        W 1269  25.024   3.364  14.560
32865W        W 1270   4.671  23.657  13.467
32866W        W 1271  29.070  42.431  10.826
32867W        W 1272  39.499  44.376  13.084
32868W        W 1273   6.999  32.631   3.680
32869W        W 1274  25.004  20.254  14.291
32870W        W 1275  36.879  42.095  13.238
32871W        W 1276  11.900  40.875  13.332
32872W        W 1277   0.484   8.550   1.787
32873W        W 1278  14.329   0.113   4.751
32874W        W 1279  26.649  27.923   3.785
32875W        W 1280  26.007  42.750  10.042
32876W        W 1281   9.022  14.587   5.472
32877W        W 1282  37.576   8.060   4.603
32878W        W 1283   9.834  32.549   4.034
32879W        W 1284  15.727  18.746  11.208
32880W        W 1285  24.591   4.209  14.488
32881W        W 1286  26.196  24.498  14.782
32882W        W 1287  23.930   1.359  12.081
32883W        W 1288  15.524   4.867  13.888
32884W        W 1289  14.805  44.869  12.452
32885W        W 1290  15.247  24.316   1.438
32886W        W 1291  32.915  31.619  10.686
32887W        W 1292   8.149  13.413  14.191
32888W        W 1293  22.790  23.284  14.808
32889W        W 1294  16.167  33.379  13.879
32890W        W 1295  20.706   8.202  13.040
32891W        W 1296   6.636  39.501  13.495
32892W        W 1297   4.483  11.291   2.433
32893W        W 1298  44.092  37.922  14.093
32894W        W 1299  19.580   9.386   3.156
32895W        W 1300   1.302   0.800  12.021
32896W        W 1301   6.176  27.393   1.355
32897W        W 1302  42.924  28.600   3.480
32898W        W 1303  41.081  22.233  12.451
32899W        W 1304  23.964  32.574   3.213
32900W        W 1305   3.185   6.207  13.947
32901W        W 1306   6.464  24.708  10.276
32902W        W 1307  40.867  17.541   0.299
32903W        W 1308  31.007   2.490   3.153
32904W        W 1309  22.951  44.385  14.008
32905W        W 1310   6.797  43.043   4.564
32906W        W 1311  29.196  26.150   1.505
32907W        W 1312   8.870  35.044   3.813
32908W        W 1313  30.543  11.657   2.589
32909W        W 1314  40.165   5.846  12.417
32910W        W 1315  18.541  41.357   4.445
32911W        W 1316  20.511  22.816   2.540
32912W        W 1317  25.565  12.534   4.255
32913W        W 1318   5.287  12.291   4.839
32914W        W 1319  11.967  14.814  14.394
32915W        W 1320  42.264  22.118   0.942
32916W        W 1321  20.593   1.721   0.917
32917W        W 1322  43.018  35.340  11.907
32918W        W 1323  29.230  26.708  10.823
32919W        W 1324  30.995   0.631  10.292
32920W        W 1325  21.791   5.486   0.462
32921W        W 1326  12.048  10.339  13.140
32922W        W 1327  34.040  27.945  14.912
32923W        W 1328  21.160  44.680  10.637
32924W        W 1329  26.020  32.797  11.245
32925W        W 1330  11.083   6.867   4.479
32926W        W 1331   9.725  23.606  12.586
32927W        W 1332  18.014  12.899  11.095
32928W        W 1333  33.113   8.251  14.823
32929W        W 1334   4.170  10.056  13.458
32930W        W 1335  12.716  13.580  11.661
32931W        W 1336  13.200   3.480  10.416
32932W        W 1337  24.344   7.397  10.393
32933W        W 1338  40.612  38.168   2.947
32934W        W 1339  34.273  29.667   2.219
32935W        W 1340  25.524  17.377  14.364
32936W        W 1341  37.000  18.336  11.100
32937W        W 1342   1.782   6.110   4.107
32938W        W 1343   3.880  44.980  12.061
32939W        W 1344  36.078  15.796  11.974
32940W        W 1345   8.148  18.684  11.093
32941W        W 1346  16.254   2.390  14.009
32942W        W 1347  30.774  27.746   0.813
32943W        W 1348  26.342   1.775   1.669
32944W        W 1349   7.698  42.119  10.748
32945W        W 1350  44.697  41.517   4.413
32946W        W 1351  13.100  32.277   3.208
32947W        W 1352  30.530  32.871  11.248
32948W        W 1353  21.645  30.653  13.007
32949W        W 1354  24.245  31.590  12.471
32950W        W 1355  31.971  28.591  11.636
32951W        W 1356  44.934  25.294   0.980
32952W        W 1357   0.309  11.648  11.095
32953W        W 1358   5.723   7.591   1.374
32954W        W 1359  27.271  19.782   0.437
32955W        W 1360  30.041  12.204   2.933
32956W        W 1361  31.096  21.452  11.062
32957W        W 1362  16.319  44.326  12.439
32958W        W 1363   5.003  21.014   1.698
32959W        W 1364  33.934  28.915   0.252
32960W        W 1365  26.618  12.598   4.200
32961W        W 1366  12.428  44.015   0.509
32962W        W 1367  13.593  12.980   2.048
32963W        W 1368  40.999  11.070  13.300
32964W        W 1369   2.951  12.759  14.065
32965W        W 1370  12.652  41.586  11.478
32966W        W 1371  39.961  19.599  13.607
32967W        W 1372  42.925   2.037   4.895
32968W        W 1373  25.147  27.947   1.739
32969W        W 1374  10.176   6.613   3.636
32970W        W 1375  36.330  41.636  11.382
32971W        W 1376  23.246   8.615   0.576
32972W        W 1377  25.918  39.628   0.324
32973W        W 1378  40.814  35.651   2.247
32974W        W 1379  41.922  29.090  12.065
32975W        W 1380  35.912   6.416   1.666
32976W        W 1381  15.664  37.638   1.927
32977W        W 1382  40.943  29.990   2.146
32978W        W 1383  30.560   3.962  13.958
32979W        W 1384   7.096   9.740  12.769
32980W        W 1385  32.721  35.281   3.543
32981W        W 1386  38.019   7.186   2.940
32982W        W 1387  20.358  43.189  12.640
32983W        W 1388  24.073  31.951   2.742
32984W        W 1389  41.448  10.101   0.864
32985W        W 1390  32.541  39.416  11.655
32986W        W 1391  17.253  13.668   2.013
32987W        W 1392   7.163  14.177   1.058
32988W        W 1393  26.666   8.355  10.426
32989W        W 1394  26.193  17.316   2.664
32990W        W 1395  24.768  22.745  13.140
32991W        W 1396  38.099  18.173  14.265
32992W        W 1397   8.578  35.848   2.026
32993W        W 1398  36.570  36.360  13.526
32994W        W 1399  14.159  44.482  12.095
32995W        W 1400  25.347  20.242  12.050
32996W        W 1401   3.835  21.028  14.925
32997W        W 1402  39.462  37.190   5.091
32998W        W 1403   0.281   0.259  11.481
32999W        W 1404  27.879  26.053   2.243
33000W        W 1405  19.567  23.117   2.656
33001W        W 1406  40.445  35.087  13.589
33002W        W 1407  38.717   1.828   2.734
33003W        W 1408  41.140  33.954  12.112
33004W        W 1409  19.579  21.452   0.341
33005W        W 1410  34.433  39.074  13.218
33006W        W 1411  44.666   5.221  11.129
33007W        W 1412   2.197  11.342  12.593
33008W        W 1413  23.477   4.848  12.932
33009W        W 1414  19.313  32.886   0.016
33010W        W 1415  25.815  40.916  14.873
33011W        W 1416   3.455  14.568   4.720
33012W        W 1417  17.816  44.421  10.921
33013W        W 1418  17.124  38.304  14.392
33014W        W 1419  11.341  39.481   0.465
33015W        W 1420  14.722  18.302   4.731
33016W        W 1421  19.339  35.712   2.899
33017W        W 1422  15.004  35.368  12.624
33018W        W 1423  24.484   7.375  12.654
33019W        W 1424  24.203  36.943   3.644
33020W        W 1425  18.085  25.932   0.826
33021W        W 1426  14.053  39.382   3.174
33022W        W 1427  27.237  38.985  10.408
33023W        W 1428  42.803  32.965  13.294
33024W        W 1429  31.561   1.395   0.827
33025W        W 1430   0.311  28.421   2.682
33026W        W 1431  18.263  26.535  14.984
33027W        W 1432  28.184  28.716   3.810
33028W        W 1433  24.566   3.689  14.553
33029W        W 1434  39.026  33.947  14.431
33030W        W 1435  31.592   1.961  14.474
33031W        W 1436  32.172   6.160   1.198
33032W        W 1437  20.214  32.326   4.108
33033W        W 1438  42.659  20.278   4.318
33034W        W 1439  37.038  39.388  12.529
33035W        W 1440  35.244  10.980   3.671
33036W        W 1441   3.720  17.658   0.305
33037W        W 1442  14.254  42.605   2.102
33038W        W 1443  38.821  20.763  11.630
33039W        W 1444  33.079  42.304   1.419
33040W        W 1445  30.651  42.904  11.093
33041W        W 1446  24.539   6.973  14.964
33042W        W 1447  44.863   2.621  12.509
33043W        W 1448  26.564  16.157  12.468
33044W        W 1449  21.931   3.306  14.844
33045W        W 1450   3.273  42.705   1.828
33046W        W 1451  10.605  24.107  13.475
33047W        W 1452  19.528  29.117  13.748
33048W        W 1453  37.004  32.149  12.871
33049W        W 1454  43.152   8.580  12.181
33050W        W 1455   5.025  26.595   4.378
33051W        W 1456  42.319   9.084   3.355
33052W        W 1457  22.485  13.782  13.354
33053W        W 1458  39.028  12.790  13.689
33054W        W 1459  32.587  21.691  12.871
33055W        W 1460  14.345  28.901   0.237
33056W        W 1461   4.193  22.787  13.000
33057W        W 1462  30.127  13.331   3.891
33058W        W 1463   2.798  20.528  12.894
33059W        W 1464  23.168  15.316   3.231
33060W        W 1465  37.937  19.673  10.660
33061W        W 1466   0.639  28.157   2.996
33062W        W 1467  14.671  18.811  10.544
33063W        W 1468  28.827  13.287  10.663
33064W        W 1469  42.071  44.809   0.874
33065W        W 1470   6.451  26.491  14.836
33066W        W 1471  39.198  28.696  10.963
33067W        W 1472   3.962   6.449  13.515
33068W        W 1473  15.804  35.354  14.844
33069W        W 1474  20.991   0.835  13.070
33070W        W 1475   7.282  31.742   3.587
33071W        W 1476  18.673  13.823  14.109
33072W        W 1477  18.980  20.939   0.817
33073W        W 1478  41.378  29.416  12.503
33074W        W 1479  11.766   3.294   0.658
33075W        W 1480  31.429   1.588   3.329
33076W        W 1481  10.688  30.132   2.640
33077W        W 1482   6.187   2.819  13.878
33078W        W 1483  16.644  15.363   1.923
33079W        W 1484   6.378  17.247   4.649
33080W        W 1485  35.815  23.463   3.710
33081W        W 1486   3.375  11.701  13.029
33082W        W 1487  41.557  27.894   1.386
33083W        W 1488  15.839  41.359   2.856
33084W        W 1489  11.386  28.005  13.071
33085W        W 1490  18.318   8.335  11.668
33086W        W 1491  33.763   8.680  13.099
33087W        W 1492  25.501  23.552   4.545
33088W        W 1493   2.304  17.652   3.179
33089W        W 1494  42.054  12.810  12.502
33090W        W 1495  31.510  18.605   3.308
33091W        W 1496   1.513  44.885   0.539
33092W        W 1497  22.600  29.898  13.083
33093W        W 1498   5.307   6.150  10.546
33094W        W 1499   7.744  19.676   3.256
33095W        W 1500  23.207   1.737   4.650
33096W        W 1501   4.210  38.812  10.493
33097W        W 1502  19.145  39.238  12.504
33098W        W 1503  13.853  22.156  13.473
33099W        W 1504  42.310  28.346  11.179
33100W        W 1505  36.973  30.921   0.238
33101W        W 1506   6.570  32.696   0.934
33102W        W 1507  12.515  16.674  12.064
33103W        W 1508  35.534  43.254  12.376
33104W        W 1509  29.949  38.839  14.931
33105W        W 1510  34.383  28.092  13.989
33106W        W 1511   8.651  18.539   3.625
33107W        W 1512  39.457  22.013  14.632
33108W        W 1513   2.818  10.285  11.469
33109W        W 1514  20.679   3.367   3.367
33110W        W 1515  22.577  24.599  12.398
33111W        W 1516  34.882  34.906   2.697
33112W        W 1517  15.679  30.204   1.260
33113W        W 1518  24.082  29.625   4.050
33114W        W 1519  13.338   2.724  11.527
33115W        W 1520  15.774  10.380   0.969
33116W        W 1521  18.177  19.612  12.623
33117W        W 1522  18.704  28.121  12.034
33118W        W 1523  33.299  27.710  14.258
33119W        W 1524  43.286  10.760  12.948
33120W        W 1525  14.739  16.901  14.851
33121W        W 1526  11.862  14.681   0.247
33122W        W 1527   7.463  22.309   3.749
33123W        W 1528  16.534   5.741  13.472
33124W        W 1529  32.957  30.640   2.443
33125W        W 1530   3.409  43.960   3.587
33126W        W 1531   3.447  42.081  13.122
33127W        W 1532   6.062   9.747  12.573
33128W        W 1533  29.137  41.431  14.251
33129W        W 1534  28.240   7.763   3.210
33130W        W 1535  35.971  17.298   1.290
33131W        W 1536  32.686  27.177   1.602
33132W        W 1537  31.642  27.885  12.757
33133W        W 1538  19.699  38.461  12.355
33134W        W 1539  39.036  34.435   3.969
33135W        W 1540  31.035  12.764   0.940
33136W        W 1541   0.027  11.448   1.049
33137W        W 1542   0.550  30.041  11.043
33138W        W 1543   5.046  32.636   3.278
33139W        W 1544  29.152  36.139  12.967
33140W        W 1545  15.174  22.506  11.693
33141W        W 1546  31.995   0.444   2.191
33142W        W 1547  17.348  17.832  14.712
33143W        W 1548  11.150  18.627   2.762
33144W        W 1549   2.069  32.979  13.051
33145W        W 1550  24.021  20.574   4.131
33146W        W 1551   1.037   2.938  11.656
33147W        W 1552   9.212  17.758  11.892
33148W        W 1553  25.222   5.125  12.056
33149W        W 1554  17.020   8.598   1.239
33150W        W 1555  16.336  32.204   2.761
33151W        W 1556   1.725   3.968   4.561
33152W        W 1557  16.320  37.329   0.526
33153W        W 1558   3.472   6.558  12.579
33154W        W 1559  29.583   3.420  13.324
33155W        W 1560  32.089  37.303   3.718
33156W        W 1561  40.928   2.045  13.828
33157W        W 1562  28.232  19.779  12.472
33158W        W 1563   2.924  27.275   4.018
33159W        W 1564  37.653  26.728   0.729
33160W        W 1565  14.066  25.406  11.049
33161W        W 1566  26.063  39.103   2.750
33162W        W 1567  28.186  22.793  11.176
33163W        W 1568  37.194  38.009  12.083
33164W        W 1569  28.954  17.062   1.341
33165W        W 1570   4.679  26.042  11.971
33166W        W 1571  15.502  34.987   4.173
33167W        W 1572  40.090   0.748   4.607
33168W        W 1573  41.906   9.924   1.794
33169W        W 1574   6.701  37.281  11.148
33170W        W 1575  38.842  37.272  12.873
33171W        W 1576  16.512  14.546   2.278
33172W        W 1577  19.787  30.336  11.879
33173W        W 1578  14.345   5.052  13.354
33174W        W 1579  33.663  31.274  12.048
33175W        W 1580   0.165  30.027   2.916
33176W        W 1581   4.743  39.310   4.588
33177W        W 1582  37.321   1.953  13.910
33178W        W 1583   3.015   2.690   2.155
33179W        W 1584  12.557  41.450  13.380
33180W        W 1585   2.457   8.500  11.960
33181W        W 1586  13.096  38.845   0.297
33182W        W 1587  32.158  18.463   1.308
33183W        W 1588  21.211  15.751   2.248
33184W        W 1589   2.428  35.566  12.576
33185W        W 1590  21.322   4.736  13.444
33186W        W 1591  17.228  39.960   0.186
33187W        W 1592  13.207  39.590   1.338
33188W        W 1593   8.139  18.661   3.626
33189W        W 1594  35.891  20.316   3.252
33190W        W 1595  12.285  21.752  14.966
33191W        W 1596   3.515  41.843  13.600
33192W        W 1597   3.427   9.775   2.416
33193W        W 1598  21.922   2.999   4.192
33194W        W 1599  34.603  37.344   4.483
33195W        W 1600   6.618  36.374  11.553
33196W        W 1601   7.740  24.042  14.884
33197W        W 1602   9.078  23.930  14.803
33198W        W 1603  17.299  12.092   3.447
33199W        W 1604   4.948  13.557   2.314
33200W        W 1605   9.865  15.810   3.603
33201W        W 1606  30.631  17.388   3.719
33202W        W 1607  18.913   0.870   2.461
33203W        W 1608  21.603   3.559  11.539
33204W        W 1609  38.041  10.248  14.790
33205W        W 1610   0.836   6.906  14.415
33206W        W 1611  28.075  23.802  11.933
33207W        W 1612  39.919  13.747  13.805
33208W        W 1613  31.598   1.380  14.434
33209W        W 1614  23.507  16.421  11.191
33210W        W 1615   3.289  43.659  13.519
33211W        W 1616  10.736  20.759   1.313
33212W        W 1617   7.257  25.896  13.549
33213W        W 1618   0.326  24.187  10.906
33214W        W 1619  30.753   2.807  13.826
33215W        W 1620  14.096   6.762  14.607
33216W        W 1621  31.606  15.954   3.907
33217W        W 1622  11.509  13.020  13.405
33218W        W 1623  43.122  39.924  13.549
33219W        W 1624  30.363  38.164   1.176
33220W        W 1625   2.406  38.148   1.252
33221W        W 1626  18.725  12.504   4.997
33222W        W 1627  34.873  32.418   2.742
33223W        W 1628  16.068  31.479   3.861
33224W        W 1629  26.001   7.629   3.803
33225W        W 1630  36.940  34.960   3.413
33226W        W 1631  32.094  20.227  10.610
33227W        W 1632  40.327  41.289  10.441
33228W        W 1633  11.334  38.380  11.820
33229W        W 1634  12.276  29.911   4.908
33230W        W 1635   5.197   3.905   4.538
33231W        W 1636  16.295   9.388  11.213
33232W        W 1637  15.279  22.530   3.685
33233W        W 1638  34.203  35.413  11.527
33234W        W 1639  41.416  21.753  14.817
33235W        W 1640  23.453  42.812   0.405
33236W        W 1641   6.353  10.769  10.848
33237W        W 1642  15.179  36.467   3.291
33238W        W 1643  26.038  14.092  10.660
33239W        W 1644  40.929  19.507   4.262
33240W        W 1645   5.156  28.140  13.813
33241W        W 1646  10.682  18.747   1.478
33242W        W 1647   5.457  25.678  13.991
33243W        W 1648  26.787   2.521   0.436
33244W        W 1649   8.471  36.277   1.722
33245W        W 1650   0.438  11.347   3.804
33246W        W 1651   6.774   4.930  13.580
33247W        W 1652  31.439  30.300   1.410
33248W        W 1653   5.923  18.373   3.657
33249W        W 1654  12.328  42.405  13.742
33250W        W 1655  27.406  11.819  11.869
33251W        W 1656  24.659  40.404  13.503
33252W        W 1657  18.199  13.711  12.554
33253W        W 1658  38.975  40.470   4.275
33254W        W 1659  42.478  38.451   3.694
33255W        W 1660  16.717  18.773   1.675
33256W        W 1661   2.282  25.231  13.373
33257W        W 1662  35.865  10.363  12.923
33258W        W 1663  44.810  18.204   2.978
33259W        W 1664   0.521   2.476  12.095
33260W        W 1665  31.105  12.870   1.452
33261W        W 1666  20.720  33.503   3.694
33262W        W 1667  42.457  37.902  10.664
33263W        W 1668  33.142  43.939  11.278
33264W        W 1669   2.701  18.552  11.023
33265W        W 1670  23.807  34.325   1.215
33266W        W 1671  15.742  19.698  10.233
33267W        W 1672  16.700   6.337   3.049
33268W        W 1673  12.064  28.142   4.974
33269W        W 1674  27.103  10.880  13.885
33270W        W 1675  12.347  34.013  10.755
33271W        W 1676  35.828  41.522   0.666
33272W        W 1677   6.333  10.524   0.740
33273W        W 1678  30.182  32.953   1.484
33274W        W 1679  15.059  25.693  12.399
33275W        W 1680  33.333  11.661  10.260
33276W        W 1681  12.593  25.986  11.168
33277W        W 1682  14.687  31.756  13.551
33278W        W 1683  34.497  18.500   4.779
33279W        W 1684  32.788  19.306  12.186
33280W        W 1685  44.703  42.028   2.796
33281W        W 1686   4.848  27.177   1.385
33282W        W 1687   7.901   3.950  11.259
33283W        W 1688  27.396  26.846  13.377
33284W        W 1689  32.498  30.613   3.999
33285W        W 1690  28.978  18.114   0.047
33286W        W 1691  35.506  44.093   0.288
33287W        W 1692   5.887   7.777  13.418
33288W        W 1693  25.193  13.072  11.634
33289W        W 1694  24.222  26.421  11.619
33290W        W 1695  14.392  43.181   9.993
33291W        W 1696   0.176  39.335   4.573
33292W        W 1697  21.179   4.474   0.816
33293W        W 1698   8.521   4.208  13.774
33294W        W 1699  22.644  29.538  13.587
33295W        W 1700   4.342  11.500  10.756
33296W        W 1701  37.039  18.858  11.120
33297W        W 1702  26.035  19.503   5.056
33298W        W 1703  36.097  19.240   1.345
33299W        W 1704  36.329  41.262  11.820
33300W        W 1705  15.341  29.555   2.919
33301W        W 1706  27.427  10.726  10.758
33302W        W 1707  24.707  19.210   1.503
33303W        W 1708  13.611  19.688  12.970
33304W        W 1709   8.776  14.684  14.530
33305W        W 1710   5.723  20.002   1.753
33306W        W 1711  32.866   2.039  13.934
33307W        W 1712  33.758  24.421   2.912
33308W        W 1713  27.323  15.594   4.769
33309W        W 1714  42.067  38.478  10.799
33310W        W 1715  17.972   1.471  14.357
33311W        W 1716  14.273  26.203  12.624
33312W        W 1717  13.048  14.791   1.787
33313W        W 1718  41.885   0.612  14.542
33314W        W 1719  43.496   3.804  12.087
33315W        W 1720  22.246  18.807   2.344
33316W        W 1721   8.675  21.208   0.652
33317W        W 1722   1.743   5.203   0.773
33318W        W 1723  29.623  26.940  12.692
33319W        W 1724  24.835  39.721   2.110
33320W        W 1725  43.280  18.012   5.160
33321W        W 1726  38.249  35.144   3.141
33322W        W 1727   9.612  14.607  11.040
33323W        W 1728  14.477   1.993   2.395
33324W        W 1729  15.368  24.519   2.800
33325W        W 1730  33.967  11.119  12.455
33326W        W 1731   5.232  27.689   1.953
33327W        W 1732  12.299  12.139  13.971
33328W        W 1733  14.316  38.233  11.953
33329W        W 1734   4.690  23.468  11.091
33330W        W 1735  29.057  10.611  13.421
33331W        W 1736  20.713  44.792  13.802
33332W        W 1737   6.681  17.189   4.219
33333W        W 1738  14.715  11.393  12.008
33334W        W 1739   8.896   9.917  12.048
33335W        W 1740  35.862  35.621   1.789
33336W        W 1741  25.638  43.012  12.997
33337W        W 1742   6.205   6.024  13.067
33338W        W 1743  21.097  21.002   1.294
33339W        W 1744  28.109  19.797  13.271
33340W        W 1745   1.992  38.413   4.000
33341W        W 1746  33.716  11.385  12.033
33342W        W 1747  28.289  27.725  13.131
33343W        W 1748  18.321  24.870  10.267
33344W        W 1749   4.273  33.304  13.154
33345W        W 1750  26.504  21.840   2.413
33346W        W 1751  32.033  22.264   5.026
33347W        W 1752  11.402  35.467   4.669
33348W        W 1753  39.354  23.452   0.834
33349W        W 1754  29.637  30.692   1.192
33350W        W 1755   0.915  11.674  12.485
33351W        W 1756  26.804  24.091  13.638
33352W        W 1757  10.017  21.557  12.354
33353W        W 1758  33.906  43.413   3.440
33354W        W 1759  37.897  26.541   2.766
33355W        W 1760  42.450  38.747   0.498
33356W        W 1761  18.139   4.195  14.874
33357W        W 1762  33.939   7.094  10.357
33358W        W 1763   4.384   3.144   2.364
33359W        W 1764  41.208  34.798   3.240
33360W        W 1765   4.220  12.582   4.676
33361W        W 1766  30.123  31.466  11.940
33362W        W 1767  28.501  43.529   0.388
33363W        W 1768  36.621   1.932  11.403
33364W        W 1769   5.957   1.006   2.697
33365W        W 1770  21.575  39.398   2.910
33366W        W 1771   4.336  27.708  11.667
33367W        W 1772   9.643  10.074   4.208
33368W        W 1773  34.752  22.054  14.592
33369W        W 1774  39.637  43.014  13.364
33370W        W 1775  33.348   1.890  11.251
33371W        W 1776  32.550   8.340   1.292
33372W        W 1777  16.793  25.476  12.052
33373W        W 1778  41.988  14.602  14.452
33374W        W 1779  36.071  39.118   3.528
33375W        W 1780  27.722  32.188  12.297
33376W        W 1781  35.481  34.553   1.283
33377W        W 1782   0.278   8.267  13.310
33378W        W 1783  30.557   2.776  14.723
33379W        W 1784   6.822  36.349   1.687
33380W        W 1785   6.905  26.754  14.889
33381W        W 1786   2.194  42.060   3.504
33382W        W 1787   0.792  17.147  13.931
33383W        W 1788  44.363  15.209  14.240
33384W        W 1789  25.525  37.137   1.314
33385W        W 1790  43.662  38.737   3.148
33386W        W 1791   5.821   5.952  10.825
33387W        W 1792  34.975  12.572   5.421
33388W        W 1793  44.404  24.061  12.944
33389W        W 1794  40.904  31.224   0.437
33390W        W 1795  27.237   3.951   2.286
33391W        W 1796  38.002   3.184   0.353
33392W        W 1797   1.337  18.999  14.448
33393W        W 1798   3.650  22.808   2.833
33394W        W 1799  17.330  12.071  14.095
33395W        W 1800  28.110  26.542   0.742
33396W        W 1801  32.107  17.015  13.417
33397W        W 1802  26.655  27.345  14.932
33398W        W 1803  44.436  38.516  10.684
33399W        W 1804  33.349  30.011  14.854
33400W        W 1805  17.562  43.491  12.603
33401W        W 1806   6.786  44.489  12.897
33402W        W 1807  34.526   3.683  11.229
33403W        W 1808   6.157   8.212  13.521
33404W        W 1809  17.668   4.534  11.955
33405W        W 1810  27.305  12.690  10.714
33406W        W 1811  29.067  14.377  14.415
33407W        W 1812  31.579  32.506   4.140
33408W        W 1813   3.141  35.995   4.546
33409W        W 1814  24.575  28.153   2.708
33410W        W 1815  15.549   2.339  11.423
33411W        W 1816  18.550  32.283   1.398
33412W        W 1817  25.606  18.244   1.269
33413W        W 1818   7.346  18.120  12.085
33414W        W 1819   9.387  22.225   2.276
33415W        W 1820  39.416  43.769   0.680
33416W        W 1821   0.650  10.458  10.871
33417W        W 1822  31.967  22.829   1.390
33418W        W 1823   5.609  13.895   1.950
33419W        W 1824  38.862  39.869   3.609
33420W        W 1825   4.290  11.810  11.218
33421W        W 1826  40.181   8.946  11.961
33422W        W 1827  19.710  27.915   4.655
33423W        W 1828  16.241  30.876  11.191
33424W        W 1829   0.265   4.479  12.893
33425W        W 1830  21.572  26.295  12.043
33426W        W 1831  30.431   5.983  11.050
33427W        W 1832  39.933  42.542  10.616
33428W        W 1833  40.314  40.461   2.834
33429W        W 1834  38.916  13.147  12.106
33430W        W 1835  36.527  44.772   4.212
33431W        W 1836  37.563   6.265   3.232
33432W        W 1837  24.583   2.566   4.746
33433W        W 1838  12.888  24.390   0.440
33434W        W 1839  18.705  11.435   2.846
33435W        W 1840  38.314   7.797  12.599
33436W        W 1841  16.615  29.600  13.836
33437W        W 1842  23.032  11.836  11.942
33438W        W 1843  44.389  14.249  10.715
33439W        W 1844  25.938   2.181   0.785
33440W        W 1845  31.844   2.277  12.254
33441W        W 1846   9.939  18.334  11.844
33442W        W 1847  16.643  40.401   3.612
33443W        W 1848  40.928  43.647  10.834
33444W        W 1849  37.173  32.623  12.816
33445W        W 1850  34.979   7.985   3.184
33446W        W 1851  33.990  32.220   2.376
33447W        W 1852   3.696  15.694  13.569
33448W        W 1853  38.581   2.614  12.865
33449W        W 1854   8.366  38.718  13.526
33450W        W 1855   6.347  43.313  10.889
33451W        W 1856  41.509  18.331  12.094
33452W        W 1857  24.583   1.842   3.342
33453W        W 1858   4.028   5.846   1.892
33454W        W 1859   2.847  40.313   3.235
33455W        W 1860  15.523  40.535  11.982
33456W        W 1861  43.492  17.115  11.981
33457W        W 1862  10.413  39.319  12.459
33458W        W 1863  44.365  41.918   4.542
33459W        W 1864  38.196  29.204   1.545
33460W        W 1865  12.526   6.871  14.079
33461W        W 1866  23.566  24.025  13.820
33462W        W 1867  18.287  10.156   5.011
33463W        W 1868  26.177  42.735  11.087
33464W        W 1869  21.947  13.347   3.368
33465W        W 1870  15.789  16.169   4.118
33466W        W 1871  36.937   0.441  14.550
33467W        W 1872   4.300  27.718   2.234
33468W        W 1873  28.848  38.037  13.584
33469W        W 1874  38.444  33.593   2.707
33470W        W 1875  34.296  44.697   0.241
33471W        W 1876  38.019  40.537  14.013
33472W        W 1877  34.571  20.756  10.975
33473W        W 1878  12.239  40.119  12.542
33474W        W 1879  42.451   5.054  11.456
33475W        W 1880   6.345   8.122   0.486
33476W        W 1881  27.241  25.188  12.765
33477W        W 1882  30.161  30.163  12.436
33478W        W 1883  21.119  40.547   2.783
33479W        W 1884  25.776  37.871   3.634
33480W        W 1885  38.368  22.052  14.028
33481W        W 1886  30.934  41.837  12.847
33482W        W 1887   9.438  14.086   5.009
33483W        W 1888  33.392  29.021   0.842
33484W        W 1889  13.827  34.852   4.096
33485W        W 1890  16.697   0.285  13.961
33486W        W 1891  28.842   9.820   1.244
33487W        W 1892  20.750  12.390  11.072
33488W        W 1893  43.628  39.473   4.578
33489W        W 1894   6.985  25.119  10.739
33490W        W 1895  41.691  25.110   4.764
33491W        W 1896  39.324  31.630   0.841
33492W        W 1897  28.584  18.013  11.185
33493W        W 1898  34.725  16.737   0.801
33494W        W 1899  41.122  18.050   2.822
33495W        W 1900  10.504  18.964  13.916
33496W        W 1901   7.277  23.706   1.918
33497W        W 1902   9.443  37.331   4.176
33498W        W 1903   9.135  39.776  14.015
33499W        W 1904  35.895  38.027  12.552
33500W        W 1905  10.810   6.377  12.927
33501W        W 1906  22.099  27.594  11.530
33502W        W 1907  18.698  26.535  11.635
33503W        W 1908  30.204  29.255  14.522
33504W        W 1909  21.475  31.645  12.897
33505W        W 1910  15.435  17.042   5.235
33506W        W 1911  15.410  22.481   2.750
33507W        W 1912  35.969  13.286   5.027
33508W        W 1913   7.646  30.903  12.917
33509W        W 1914   7.965  20.500   3.011
33510W        W 1915  34.056  28.498  10.537
33511W        W 1916   9.858  20.795  11.228
33512W        W 1917  36.778  33.497  11.645
33513W        W 1918  33.313  29.667  12.419
33514W        W 1919  39.606  24.693  14.426
33515W        W 1920  10.208  13.356  12.950
33516W        W 1921  32.574  17.039   0.276
33517W        W 1922  29.994   9.139   1.184
33518W        W 1923  11.751  26.239  13.397
33519W        W 1924  34.955  17.190   0.734
33520W        W 1925  18.579  14.393  14.857
33521W        W 1926  22.696   7.299  13.864
33522W        W 1927   0.254  37.651   1.353
33523W        W 1928  25.487  38.763  12.037
33524W        W 1929  37.251  20.138  12.168
33525W        W 1930   4.974  32.969   0.201
33526W        W 1931  24.202  27.569   1.187
33527W        W 1932  18.011  19.224   0.301
33528W        W 1933   7.020  12.226   1.935
33529W        W 1934  16.455  14.188   4.331
33530W        W 1935  23.697  41.773   0.028
33531W        W 1936  23.144  28.396  14.035
33532W        W 1937  26.951  37.307   2.597
33533W        W 1938   2.900  38.472   4.114
33534W        W 1939  42.461  24.108  14.192
33535W        W 1940   9.746  43.789  11.852
33536W        W 1941  39.108  31.341  12.426
33537W        W 1942  44.232  24.029   4.995
33538W        W 1943  34.129  43.001   1.914
33539W        W 1944  38.637  13.192   4.264
33540W        W 1945   9.341   9.428   4.427
33541W        W 1946  42.728  13.936  13.965
33542W        W 1947  12.349  14.800   3.305
33543W        W 1948  29.735  13.395   2.476
33544W        W 1949  33.379  32.554  10.450
33545W        W 1950  22.256   7.775   0.846
33546W        W 1951   2.188  20.767  14.812
33547W        W 1952  38.398  11.924  13.335
33548W        W 1953  24.177  30.865   3.599
33549W        W 1954  22.467  39.509  14.860
33550W        W 1955   5.148   2.128   1.343
33551W        W 1956  32.957  39.547  11.365
33552W        W 1957  20.078   5.156  12.154
33553W        W 1958  18.707  36.618   0.922
33554W        W 1959   8.368   0.367   0.651
33555W        W 1960  10.094  27.597  12.775
33556W        W 1961  26.089   9.113  13.493
33557W        W 1962  20.110  29.957   3.665
33558W        W 1963  17.673  26.938  13.812
33559W        W 1964  22.451   0.515  13.052
33560W        W 1965  18.802  35.066  12.367
33561W        W 1966  17.737  13.829   1.360
33562W        W 1967   5.563  16.835  12.210
33563W        W 1968  40.429  25.063   5.143
33564W        W 1969   3.199   3.515   0.431
33565W        W 1970   1.024  33.900  14.758
33566W        W 1971   1.661  24.164  10.735
33567W        W 1972  23.899  44.458  10.108
33568W        W 1973  25.194  16.145   1.815
33569W        W 1974  19.190  13.134   0.831
33570W        W 1975   3.853  23.403   4.648
33571W        W 1976  34.624   0.154  11.714
33572W        W 1977  19.052  14.314   3.306
33573W        W 1978   2.498  39.909  12.571
33574W        W 1979  32.835  43.301   0.362
33575W        W 1980   0.937  27.184  14.505
33576W        W 1981  39.395  43.771   2.031
33577W        W 1982  25.956  28.669  12.446
33578W        W 1983   7.009  27.604   1.173
33579W        W 1984  40.098  15.118  13.780
33580W        W 1985   2.438  13.646   3.390
33581W        W 1986   2.952  13.655   3.320
33582W        W 1987  32.882   8.399  11.851
33583W        W 1988  18.301  43.700   4.204
33584W        W 1989  35.104  28.457  11.969
33585W        W 1990  12.961  15.806  12.136
33586W        W 1991  26.918  26.959  12.402
33587W        W 1992  26.492  17.172  12.904
33588W        W 1993   9.683  28.894   1.436
33589W        W 1994  11.086   9.142  12.857
33590W        W 1995   8.500  24.051  11.238
33591W        W 1996   4.217  18.666  14.369
33592W        W 1997  17.721  37.660  14.747
33593W        W 1998   1.204   2.909   2.766
33594W        W 1999  28.100  25.303   0.324
33595W        W 2000  40.357   5.646   4.871
33596W        W 2001   4.591  20.231   1.379
33597W        W 2002  40.996  43.675  14.385
33598W        W 2003   8.829  30.999   4.094
33599W        W 2004  21.978  28.666   0.381
33600W        W 2005  14.327  15.594  14.352
33601W        W 2006  43.768  34.063  13.295
33602W        W 2007  37.561   4.904  12.479
33603W        W 2008   0.550  15.649  11.717
33604W        W 2009   7.217  40.576   3.076
33605W        W 2010  27.991  12.541  12.525
33606W        W 2011   8.713   7.749   4.581
33607W        W 2012  24.678  18.174  14.820
33608W        W 2013  38.737  29.372   2.154
33609W        W 2014  30.679  23.498   4.318
33610W        W 2015  31.497  37.603   4.715
33611W        W 2016  20.181  20.110  10.873
33612W        W 2017  24.219  37.580  13.040
33613W        W 2018  38.570  30.521   2.742
33614W        W 2019  27.449  41.846   2.711
33615W        W 2020  36.161  32.895   0.998
33616W        W 2021   6.011  25.648   1.084
33617W        W 2022  19.576   0.981  14.030
33618W        W 2023   1.540  36.799   3.194
33619W        W 2024  27.438  30.883  12.576
33620W        W 2025   9.242  30.902   2.334
33621W        W 2026  44.508  33.872  11.186
33622W        W 2027  29.456  10.461   3.004
33623W        W 2028  14.734  21.181  11.182
33624W        W 2029  24.072  29.406   2.719
33625W        W 2030  41.157  19.263   2.830
33626W        W 2031  31.425  34.744   0.014
33627W        W 2032   1.088  21.731  11.705
33628W        W 2033   5.945  13.201   3.530
33629W        W 2034  32.159  34.689   2.263
33630W        W 2035  21.894  31.517  14.665
33631W        W 2036  42.153  18.662  11.961
33632W        W 2037  12.832  37.938  14.355
33633W        W 2038  29.578  18.662  10.730
33634W        W 2039  35.058  36.932  11.097
33635W        W 2040  35.476  12.768  12.008
33636W        W 2041   7.608  24.611   0.440
33637W        W 2042  35.486   2.332  11.524
33638W        W 2043   5.334  14.683   0.305
33639W        W 2044  16.606  32.173   2.294
33640W        W 2045  37.955  10.736  11.501
33641W        W 2046  34.834  39.996   1.265
33642W        W 2047  40.718  16.789  12.376
33643W        W 2048  11.666  25.981  11.059
33644W        W 2049  17.481  15.113  14.450
33645W        W 2050   8.407  11.419   1.720
33646W        W 2051  18.133   7.209  14.147
33647W        W 2052  23.979  35.523   4.805
33648W        W 2053  35.091   8.369  14.616
33649W        W 2054  44.581  25.692  11.545
33650W        W 2055  19.669  20.743  14.826
33651W        W 2056  35.125  24.036  11.608
33652W        W 2057  26.509   1.885   2.448
33653W        W 2058  14.990   6.242  10.245
33654W        W 2059   6.870  16.553   2.633
33655W        W 2060  26.415  24.059  14.944
33656W        W 2061  13.593  10.736   3.113
33657W        W 2062   6.190  16.852   4.325
33658W        W 2063  32.510   3.691  11.127
33659W        W 2064  30.489  30.032  10.393
33660W        W 2065  41.969  30.564   4.594
33661W        W 2066  10.125  28.251  11.188
33662W        W 2067  23.175  19.965   3.383
33663W        W 2068  17.024   5.877  13.568
33664W        W 2069   1.437  27.463  12.002
33665W        W 2070   2.217  29.205   4.558
33666W        W 2071  12.306  22.969  10.692
33667W        W 2072  15.747  12.631   4.551
33668W        W 2073  12.688  25.736  10.700
33669W        W 2074  34.927   5.985   3.194
33670W        W 2075   1.732   1.635  13.117
33671W        W 2076  42.898  28.871   1.778
33672W        W 2077  28.586   8.587  10.660
33673W        W 2078   1.495  35.970  12.955
33674W        W 2079  42.368   7.968   2.390
33675W        W 2080  33.297  38.113  12.581
33676W        W 2081   8.240  40.954   2.784
33677W        W 2082  38.940  15.354  10.698
33678W        W 2083  15.576  42.946   0.244
33679W        W 2084  13.930   5.906   0.946
33680W        W 2085  24.050  35.591  11.425
33681W        W 2086  18.018  36.397   0.353
33682W        W 2087   2.915   7.285   3.257
33683W        W 2088  23.076  11.667   3.786
33684W        W 2089  38.072   5.350  13.874
33685W        W 2090  22.831  44.332  14.502
33686W        W 2091  25.733  37.913  12.863
33687W        W 2092   5.271  13.591   0.914
33688W        W 2093   8.696   4.921   1.043
33689W        W 2094  16.179   7.091   0.621
33690W        W 2095  28.155  27.365   2.416
33691W        W 2096  43.908  11.650  13.747
33692W        W 2097   8.916  33.850  13.500
33693W        W 2098   4.943  18.736  10.113
33694W        W 2099  25.023  31.222   4.633
33695W        W 2100  11.450  13.307  13.918
33696W        W 2101  42.024  25.569  12.902
33697W        W 2102  23.020  16.573  12.691
33698W        W 2103  11.974  38.723   0.285
33699W        W 2104  36.984  14.608  14.573
33700W        W 2105  38.419  26.948  13.948
33701W        W 2106  27.583  19.722  14.448
33702W        W 2107  38.106  22.267   1.390
33703W        W 2108  43.831   4.833  14.458
33704W        W 2109  16.303  25.185   1.723
33705W        W 2110  39.214  37.002  13.814
33706W        W 2111  20.663  16.777  10.391
33707W        W 2112  17.231  30.497   2.343
33708W        W 2113  25.952  41.573  13.722
33709W        W 2114   8.771  44.709  13.498
33710W        W 2115  37.361  21.098  13.601
33711W        W 2116  30.842  27.957   4.181
33712W        W 2117  41.082  12.670   4.326
33713W        W 2118  33.794  41.157   1.539
33714W        W 2119   0.297  29.113  13.617
33715W        W 2120  30.394  40.825  10.772
33716W        W 2121  36.867  44.414  12.183
33717W        W 2122   2.239  15.518   4.073
33718W        W 2123  31.003   1.907  14.909
33719W        W 2124  13.242   8.221   1.448
33720W        W 2125  24.092   9.859  11.272
33721W        W 2126  14.659  19.737   3.651
33722W        W 2127  15.644  18.685   4.338
33723W        W 2128  21.624  33.019   0.872
33724W        W 2129  31.472  29.389   4.725
33725W        W 2130  32.468   6.305  12.155
33726W        W 2131  24.198  39.312  11.727
33727W        W 2132  21.998   0.856   2.173
33728W        W 2133   1.398  27.562   3.245
33729W        W 2134  21.745   7.133  12.329
33730W        W 2135  21.256  27.127  14.836
33731W        W 2136  38.206  14.239  14.927
33732W        W 2137  34.560   8.134  14.302
33733W        W 2138  13.679  32.028  14.684
33734W        W 2139   7.423   7.302   3.848
33735W        W 2140  14.622  19.978  13.737
33736W        W 2141  13.536  31.171   0.809
33737W        W 2142  13.388  11.821   0.047
33738W        W 2143  26.130  42.444  11.537
33739W        W 2144  33.083  10.255  12.465
33740W        W 2145  11.201   0.327   0.246
33741W        W 2146  12.892  39.910  10.929
33742W        W 2147  28.663  36.103  13.886
33743W        W 2148   5.291  36.628   0.725
33744W        W 2149  27.345   5.896  12.483
33745W        W 2150  24.138  40.054   3.208
33746W        W 2151  25.662   3.310  11.436
33747W        W 2152   8.460  14.885  12.269
33748W        W 2153  27.910  13.723   4.943
33749W        W 2154  36.704  19.800   4.627
33750W        W 2155  30.465  21.280   2.864
33751W        W 2156   5.690  21.745   2.854
33752W        W 2157   3.844  25.570  14.737
33753W        W 2158  20.097  34.820  11.994
33754W        W 2159  26.029  24.053  13.066
33755W        W 2160  28.857  15.810  12.379
33756W        W 2161  31.039   5.328   1.954
33757W        W 2162  41.758  34.635  14.768
33758W        W 2163  42.635  25.991   2.855
33759W        W 2164  33.092  12.110  10.378
33760W        W 2165   1.701   3.503   1.330
33761W        W 2166  22.568  39.481   4.590
33762W        W 2167  18.493  27.000   0.478
33763W        W 2168   7.710  11.799   3.804
33764W        W 2169   0.317  35.080   2.761
33765W        W 2170  38.505  38.550  11.049
33766W        W 2171  25.619  21.645  13.360
33767W        W 2172   6.602  33.597   0.986
33768W        W 2173  42.301  17.276   2.679
33769W        W 2174  32.864  27.443  10.607
33770W        W 2175  15.269  16.157   1.372
33771W        W 2176  41.399  20.343   4.096
33772W        W 2177  30.096  18.565  14.940
33773W        W 2178  30.209  12.112  11.898
33774W        W 2179  14.175  11.081   1.391
33775W        W 2180  44.185  34.853  14.321
33776W        W 2181  43.521  18.812  12.591
33777W        W 2182  28.540  15.065  11.986
33778W        W 2183  43.936  31.639  10.939
33779W        W 2184   0.011  24.203  14.558
33780W        W 2185  12.289  30.016  10.568
33781W        W 2186  38.981  25.724   4.744
33782W        W 2187  36.789  22.236  13.042
33783W        W 2188   5.679  12.775  14.053
33784W        W 2189  41.008  25.867   1.347
33785W        W 2190  20.608  16.134   4.392
33786W        W 2191  30.436   6.151   3.894
33787W        W 2192  27.923  18.757  14.918
33788W        W 2193  22.792  30.594   4.255
33789W        W 2194   2.755  27.537  12.397
33790W        W 2195   5.376  14.728  10.636
33791W        W 2196  25.164   4.218   4.914
33792W        W 2197  22.830   7.384   0.830
33793W        W 2198  28.730  44.578   4.622
33794W        W 2199  30.160  31.590  11.449
33795W        W 2200  26.241  14.761  11.167
33796W        W 2201  30.894  15.319   2.234
33797W        W 2202  42.020  34.056   3.659
33798W        W 2203  18.703  31.451   3.573
33799W        W 2204  35.359  24.325   4.462
33800W        W 2205  19.221   1.410   4.484
33801W        W 2206   0.947  44.174   4.204
33802W        W 2207  25.599  11.316   2.409
33803W        W 2208  29.718  30.524  13.943
33804W        W 2209  41.930  25.132   4.313
33805W        W 2210   2.464  15.840  14.575
33806W        W 2211  11.021  15.561  13.108
33807W        W 2212  22.691   2.443   4.637
33808W        W 2213  25.199  19.507  12.899
33809W        W 2214  23.046   4.184  10.230
33810W        W 2215  34.465   2.207   0.266
33811W        W 2216  25.654  40.313  11.698
33812W        W 2217  19.829  32.919  14.883
33813W        W 2218  30.750  15.587  10.373
33814W        W 2219  27.438  18.573   2.912
33815W        W 2220  28.427   6.119   3.083
33816W        W 2221  23.624  34.152  14.477
33817W        W 2222  20.522  24.703   1.244
33818W        W 2223   1.189  19.576  13.544
33819W        W 2224   9.694  26.668  10.973
33820W        W 2225   1.575  29.755  13.486
33821W        W 2226  22.397   8.342   4.709
33822W        W 2227  41.033  13.560   3.299
33823W        W 2228   4.969  29.502   2.373
33824W        W 2229  27.237  25.709  12.732
33825W        W 2230  39.661  12.635   4.794
33826W        W 2231  24.091  24.137  13.866
33827W        W 2232  38.538  18.465   5.032
33828W        W 2233   1.254  19.996  14.483
33829W        W 2234  18.090   5.458  11.041
33830W        W 2235   2.290  39.958  13.790
33831W        W 2236  27.074  17.833  11.501
33832W        W 2237  33.453  43.983  12.152
33833W        W 2238  25.443   9.317  13.108
33834W        W 2239   7.222  38.799  11.500
33835W        W 2240  43.031  44.931   3.595
33836W        W 2241  24.552  27.234   3.283
33837W        W 2242  23.771  12.923   2.435
33838W        W 2243   1.809   9.452  13.995
33839W        W 2244  34.383  28.378  14.432
33840W        W 2245  24.416  24.518   0.471
33841W        W 2246  32.251  13.234  10.731
33842W        W 2247  19.163  18.172   4.607
33843W        W 2248   3.718  11.285   1.879
33844W        W 2249  31.154  19.692   2.768
33845W        W 2250  22.501  41.887  14.359
33846W        W 2251   7.823   8.342   2.872
33847W        W 2252   0.943  33.611   1.817
33848W        W 2253   4.690  19.908   2.564
33849W        W 2254  12.915  31.633   0.116
33850W        W 2255  23.131  42.538  10.848
33851W        W 2256  22.307  24.319   1.849
33852W        W 2257  44.281   1.236   3.693
33853W        W 2258  25.657   3.821   0.484
33854W        W 2259  44.073  25.639  11.585
33855W        W 2260  16.354  29.120   1.512
33856W        W 2261  43.854  12.116  12.897
33857W        W 2262  28.897  19.171   2.234
33858W        W 2263  30.454  27.084   3.667
33859W        W 2264  30.052  43.229   0.092
33860W        W 2265  44.170  33.647   0.635
33861W        W 2266  19.207   3.885   2.843
33862W        W 2267  25.019  36.153  11.865
33863W        W 2268   7.909  15.949  13.800
33864W        W 2269  43.990  16.220  11.928
33865W        W 2270  42.381  31.777  13.899
33866W        W 2271  37.899  19.834  11.989
33867W        W 2272  22.694  43.844  12.132
33868W        W 2273  14.823  32.333   0.008
33869W        W 2274  28.106  11.227   1.743
33870W        W 2275  24.438   6.315   1.729
33871W        W 2276  21.108  16.694   4.882
33872W        W 2277  43.004   9.312  13.327
33873W        W 2278  17.561  12.853   0.506
33874W        W 2279  44.274  37.380   0.263
33875W        W 2280  17.052   8.269  11.191
33876W        W 2281  30.420  36.731   4.713
33877W        W 2282  30.705   2.328   0.041
33878W        W 2283  34.733  18.907  11.397
33879W        W 2284  30.622  44.461   0.955
33880W        W 2285   6.613  16.247  12.608
33881W        W 2286  36.150  19.668  13.904
33882W        W 2287   1.496   9.053  14.645
33883W        W 2288  37.475  18.550  14.714
33884W        W 2289  32.571  32.327   0.457
33885W        W 2290  33.044  28.750   4.707
33886W        W 2291  32.505  34.154  13.921
33887W        W 2292   0.719  10.303   0.995
33888W        W 2293   7.145  30.003  12.046
33889W        W 2294  39.087  16.598   3.463
33890W        W 2295  27.595  26.679  12.916
33891W        W 2296  20.595   8.939   4.070
33892W        W 2297  11.745  32.437  10.611
33893W        W 2298  39.553  20.146  14.417
33894W        W 2299  26.499  18.738  11.189
33895W        W 2300  19.077  16.923  14.909
33896W        W 2301   3.814  35.825  11.647
33897W        W 2302  11.879  33.032   0.793
33898W        W 2303   8.165  10.241  14.867
33899W        W 2304  38.962  43.491   3.193
33900W        W 2305   4.476  27.199  11.559
33901W        W 2306   5.520  44.307   4.542
33902W        W 2307  27.820   1.859   1.015
33903W        W 2308  26.559  23.519   4.600
33904W        W 2309   1.719  22.207  14.863
33905W        W 2310  43.142  11.309  10.738
33906W        W 2311  32.694  32.917  12.046
33907W        W 2312  42.443   6.344  12.904
33908W        W 2313  25.079  44.729   4.225
33909W        W 2314   0.248  17.689   4.570
33910W        W 2315  35.055  11.200   4.866
33911W        W 2316   6.528  39.020   0.788
33912W        W 2317  35.845  42.042   2.087
33913W        W 2318   5.814  34.399   2.048
33914W        W 2319  28.046  43.573   4.405
33915W        W 2320  38.807  31.914   2.674
33916W        W 2321  17.376   5.571   4.195
33917W        W 2322  41.012  41.003  14.737
33918W        W 2323   8.356  26.685  12.532
33919W        W 2324  43.830  10.063   4.164
33920W        W 2325  42.026  35.960  11.120
33921W        W 2326  31.096  34.607  13.391
33922W        W 2327   7.149  43.278  13.975
33923W        W 2328  15.886  32.351  12.048
33924W        W 2329   9.690  27.169   3.280
33925W        W 2330  23.997  11.590   2.315
33926W        W 2331  15.033  32.091  14.573
33927W        W 2332  25.139   8.871   4.499
33928W        W 2333  12.150   5.247   4.332
33929W        W 2334  32.082  16.168  10.673
33930W        W 2335  37.967  36.035  14.149
33931W        W 2336  24.966  39.855  10.434
33932W        W 2337   4.465  38.423  14.251
33933W        W 2338   0.732  23.561  11.654
33934W        W 2339  13.355   5.580   4.254
33935W        W 2340   4.239  26.993  11.146
33936W        W 2341  10.275  15.723   0.685
33937W        W 2342   5.395  42.300  11.099
33938W        W 2343  39.388   8.918  12.432
33939W        W 2344   8.104  25.795  13.937
33940W        W 2345  34.008  23.601  10.844
33941W        W 2346   7.988  14.623  11.087
33942W        W 2347  39.790  17.837  12.834
33943W        W 2348  28.072  26.827   0.300
33944W        W 2349  37.717  37.516   2.867
33945W        W 2350  10.366  40.916   1.258
33946W        W 2351  34.584  41.731  14.862
33947W        W 2352  22.028  21.123   0.371
33948W        W 2353  35.360  25.657   4.159
33949W        W 2354  42.744  10.196   0.308
33950W        W 2355  33.360   0.093  14.845
33951W        W 2356  17.025  12.126   0.270
33952W        W 2357   8.920   9.680  11.600
33953W        W 2358  34.543  14.659   0.960
33954W        W 2359  18.802  11.631   3.307
33955W        W 2360  29.501  34.392   1.088
33956W        W 2361  27.857  30.124   2.772
33957W        W 2362  36.297  41.994  11.022
33958W        W 2363   0.743  18.682  12.444
33959W        W 2364  36.833  19.878   2.118
33960W        W 2365  41.224  13.125  13.991
33961W        W 2366   0.970  30.019   1.726
33962W        W 2367   0.908  19.811   3.283
33963W        W 2368   6.893  15.362   0.032
33964W        W 2369  33.456  30.552  11.416
33965W        W 2370   8.066   6.904   3.691
33966W        W 2371  12.328  25.010  11.667
33967W        W 2372   6.954  34.446   0.356
33968W        W 2373  11.701  24.898   0.301
33969W        W 2374   5.389  40.344   1.942
33970W        W 2375  19.687   7.868  12.419
33971W        W 2376  16.188  17.871  14.780
33972W        W 2377  21.495  15.194  10.549
33973W        W 2378  40.326  39.335   1.278
33974W        W 2379  20.821  24.371   3.606
33975W        W 2380  16.617  16.344   1.922
33976W        W 2381  29.414   8.081   3.681
33977W        W 2382  26.560  41.874   4.868
33978W        W 2383  13.223  44.741   0.933
33979W        W 2384  10.172  41.569  11.100
33980W        W 2385   5.632  44.575  11.540
33981W        W 2386   0.396  38.653  12.820
33982W        W 2387  43.708   2.228   1.756
33983W        W 2388  39.802  38.328   1.764
33984W        W 2389  43.596  41.803  13.967
33985W        W 2390  34.492   2.290  10.761
33986W        W 2391  35.352  35.520   4.047
33987W        W 2392  35.202  20.618   3.721
33988W        W 2393   5.760  41.746   1.879
33989W        W 2394  36.867  40.095  12.031
33990W        W 2395  31.106  13.810  12.024
33991W        W 2396  28.750   9.900  14.233
33992W        W 2397  15.802  21.904  11.254
33993W        W 2398  44.424  13.819   2.126
33994W        W 2399  27.030  36.496   2.802
33995W        W 2400  20.591  14.402  13.255
33996W        W 2401   8.609  26.557   3.550
33997W        W 2402  18.711  30.357  10.351
33998W        W 2403  12.844   8.823  12.052
33999W        W 2404  35.379  15.817   0.864
34000W        W 2405  10.835   7.117  12.429
34001W        W 2406  19.045  38.370   3.839
34002W        W 2407   8.281  15.256   3.159
34003W        W 2408   2.244  30.641   2.061
34004W        W 2409  20.579  41.896  11.223
34005W        W 2410  32.616   2.846   4.104
34006W        W 2411  19.576  10.637  11.526
34007W        W 2412  28.529   2.437   2.230
34008W        W 2413  43.134  27.294  14.764
34009W        W 2414  27.966   6.442  13.851
34010W        W 2415  28.102  27.199   0.993
34011W        W 2416  30.547  24.420  12.962
34012W        W 2417   0.394  24.149   3.438
34013W        W 2418  43.901  21.747   2.470
34014W        W 2419  14.022   2.985  12.878
34015W        W 2420   2.512  31.634  14.641
34016W        W 2421  17.776  28.173  14.776
34017W        W 2422   3.038  30.178  13.326
34018W        W 2423  40.310  13.678   1.395
34019W        W 2424  41.982  29.711  14.897
34020W        W 2425  35.339  25.541  13.970
34021W        W 2426  20.097   7.821  10.688
34022W        W 2427   3.910  32.526  10.741
34023W        W 2428  13.789   6.417  14.901
34024W        W 2429   2.969  25.453   4.479
34025W        W 2430  33.219  41.806  11.527
34026W        W 2431   9.248  38.397   0.484
34027W        W 2432  32.584  14.986   3.575
34028W        W 2433  25.404  30.819  11.244
34029W        W 2434  13.231  23.017   3.857
34030W        W 2435  29.573  11.224  12.661
34031W        W 2436  13.745   3.884  12.312
34032W        W 2437  39.571   9.628   0.252
34033W        W 2438  33.874  44.269  12.978
34034W        W 2439  11.872  33.178  14.897
34035W        W 2440   0.117  19.612  12.505
34036W        W 2441   1.816   3.447  13.360
34037W        W 2442  43.981  40.575   0.225
34038W        W 2443  12.129  22.666  11.986
34039W        W 2444  18.231  20.512   3.315
34040W        W 2445  37.389  23.071  13.680
34041W        W 2446   3.262  23.723  14.729
34042W        W 2447  14.994   3.310   2.529
34043W        W 2448  33.507  35.610  13.925
34044W        W 2449  33.606  25.583  10.193
34045W        W 2450  27.912  38.894  11.623
34046W        W 2451  19.817  31.637   3.759
34047W        W 2452  37.010  28.498  12.328
34048W        W 2453  27.552   2.550  12.934
34049W        W 2454  14.389  30.594   2.425
34050W        W 2455  34.383  25.925  11.494
34051W        W 2456   2.826  35.959  14.898
34052W        W 2457   2.204  21.012  13.509
34053W        W 2458  27.770  13.305  14.858
34054W        W 2459   4.229  29.539   0.814
34055W        W 2460  23.615  24.505  14.989
34056W        W 2461  39.700   7.471  10.965
34057W        W 2462   2.186  17.778   4.708
34058W        W 2463  42.446  11.244  12.798
34059W        W 2464  36.452  26.915   2.150
34060W        W 2465  18.322  29.643  14.399
34061W        W 2466   9.941  19.222   0.476
34062W        W 2467  29.108   2.204  11.509
34063W        W 2468  43.352  32.665  11.598
34064W        W 2469   2.036  13.331  13.459
34065W        W 2470   9.052  26.770   0.732
34066W        W 2471  35.242  25.497  11.727
34067W        W 2472  28.674  43.358   0.845
34068W        W 2473  15.494  15.178  12.340
34069W        W 2474  38.925  24.291  14.975
34070W        W 2475  41.767  33.238  14.911
34071W        W 2476   8.728   2.265   5.165
34072W        W 2477   9.414  27.060   1.911
34073W        W 2478   1.472  14.159  11.678
34074W        W 2479  31.383   6.345   2.117
34075W        W 2480  23.197   0.492   1.420
34076W        W 2481  12.822  25.789   2.004
34077W        W 2482  33.079   0.519   2.687
34078W        W 2483  32.396  25.894  13.307
34079W        W 2484  38.969  27.284   1.379
34080W        W 2485  21.142  19.326  14.277
34081W        W 2486   7.694  30.828   4.565
34082W        W 2487  10.400  12.364  14.292
34083W        W 2488  18.689  35.997   4.141
34084W        W 2489  23.526  41.049   2.741
34085W        W 2490  28.439   5.279  13.361
34086W        W 2491  21.549   5.738   3.331
34087W        W 2492   3.738  14.159  12.047
34088W        W 2493  28.574   1.014  10.911
34089W        W 2494  39.825  41.237  11.618
34090W        W 2495  30.137  24.154   0.459
34091W        W 2496  30.009  37.995  14.522
34092W        W 2497  11.869   4.368   3.223
34093W        W 2498  15.799  12.027  14.288
34094W        W 2499  26.959  36.499  11.562
34095W        W 2500  21.538  15.291   4.533
34096W        W 2501  40.653  19.720   0.785
34097W        W 2502   3.222  29.581  11.451
34098W        W 2503  42.605  27.846  14.041
34099W        W 2504  10.231  27.879  11.951
34100W        W 2505   5.210   2.915   2.749
34101W        W 2506  25.555   9.339  14.941
34102W        W 2507  17.531  41.784  14.235
34103W        W 2508  37.183  31.933  12.442
34104W        W 2509   3.748  25.236   4.170
34105W        W 2510  41.374  37.938   2.295
34106W        W 2511   8.351  40.574  12.804
34107W        W 2512   4.087  26.022  14.768
34108W        W 2513  32.756  38.365  10.839
34109W        W 2514   3.886   7.192  11.154
34110W        W 2515  21.117  17.692  12.629
34111W        W 2516  44.396  27.947  11.087
34112W        W 2517  41.011  35.322   0.833
34113W        W 2518  11.858  17.572  10.964
34114W        W 2519  37.827  35.582  12.903
34115W        W 2520  31.796  33.396  14.593
34116W        W 2521  28.572  11.248  11.001
34117W        W 2522  20.119   8.859   4.316
34118W        W 2523  26.402  31.928   4.653
34119W        W 2524  33.512  41.311   1.964
34120W        W 2525  41.760   2.148  10.706
34121W        W 2526  33.425  37.154  13.989
34122W        W 2527  21.759  11.223  11.908
34123W        W 2528  19.596  31.378   1.830
34124W        W 2529  31.294  19.223  11.439
34125W        W 2530  23.492   3.441   2.625
34126W        W 2531   7.139   7.384  12.022
34127W        W 2532   0.805   7.656  14.962
34128W        W 2533  44.548  13.230   2.483
34129W        W 2534  16.667   5.108   2.704
34130W        W 2535  18.243  38.741  11.143
34131W        W 2536  15.685  12.597   3.638
34132W        W 2537  27.686  36.837  13.668
34133W        W 2538  39.270  39.411  11.168
34134W        W 2539  40.497   7.399   3.995
34135W        W 2540  35.357   6.405   2.370
34136W        W 2541   8.862  28.133  10.721
34137W        W 2542  27.761  24.685   3.429
34138W        W 2543  17.109   0.290  14.463
34139W        W 2544  13.313  15.653   0.135
34140W        W 2545   3.888  30.436  11.888
34141W        W 2546  24.634  36.640  13.043
34142W        W 2547   6.938  41.069   2.272
34143W        W 2548   3.309  37.344  13.985
34144W        W 2549   9.456  36.928   2.296
34145W        W 2550   5.688  27.216   1.453
34146W        W 2551  44.477   7.901  13.303
34147W        W 2552   7.697   0.827  11.972
34148W        W 2553  23.242  40.466  10.696
34149W        W 2554  25.711  38.568   1.204
34150W        W 2555  38.274  44.263  11.552
34151W        W 2556   0.344  11.730   1.879
34152W        W 2557  12.661  40.804  11.223
34153W        W 2558  12.510   2.401   3.556
34154W        W 2559  36.976  35.793  12.320
34155W        W 2560  21.748  21.064  12.130
34156W        W 2561   1.459  30.471  12.095
34157W        W 2562  22.104  29.378   4.062
34158W        W 2563  39.950  33.210   4.314
34159W        W 2564  22.657  36.006   4.720
34160W        W 2565  35.328   3.817   0.333
34161W        W 2566   0.375  37.891   4.576
34162W        W 2567  21.273  29.471  12.409
34163W        W 2568  14.711  24.779   0.115
34164W        W 2569  25.584  11.814  10.715
34165W        W 2570  35.785  41.387   4.104
34166W        W 2571  14.683  19.479   4.094
34167W        W 2572   6.203  37.494   1.328
34168W        W 2573  27.427  21.078  12.825
34169W        W 2574  32.585  15.859   2.878
34170W        W 2575  20.644  33.596  11.847
34171W        W 2576  13.911  41.428  13.408
34172W        W 2577  25.571   6.910   1.022
34173W        W 2578  39.566  11.719  11.115
34174W        W 2579  22.994  11.673  11.464
34175W        W 2580  15.674  33.160   1.449
34176W        W 2581  18.802  22.978  12.564
34177W        W 2582   5.691  11.361   0.729
34178W        W 2583  27.220  37.035  14.726
34179W        W 2584   1.361  35.073   4.549
34180W        W 2585  33.109  43.912   2.042
34181W        W 2586   9.742  20.995   5.007
34182W        W 2587  28.514  28.707  13.362
34183W        W 2588  28.056  15.899   9.982
34184W        W 2589   4.750  39.983   3.298
34185W        W 2590  23.130   7.965  13.160
34186W        W 2591  36.583  36.628   2.297
34187W        W 2592  27.377   6.252  12.846
34188W        W 2593  35.191  42.877  12.383
34189W        W 2594   9.178  30.059   1.807
34190W        W 2595  29.634  12.127   2.194
34191W        W 2596   6.746  20.964  12.072
34192W        W 2597  34.552  25.810  10.630
34193W        W 2598  10.780   7.365  14.784
34194W        W 2599  17.036  23.460  14.955
34195W        W 2600  35.351  43.066   0.481
34196W        W 2601  25.804   2.195  12.904
34197W        W 2602  37.487  16.119  13.123
34198W        W 2603   5.944   7.121   2.188
34199W        W 2604   7.155  28.129  11.700
34200W        W 2605   3.263   4.517   4.504
34201W        W 2606  32.359  41.741  11.042
34202W        W 2607  20.789  10.121  11.854
34203W        W 2608  16.698  37.156   3.656
34204W        W 2609   7.199  13.188  14.269
34205W        W 2610   1.356   4.119   3.269
34206W        W 2611  23.475  27.446  12.088
34207W        W 2612  17.895  29.581  13.411
34208W        W 2613   0.774  11.231  14.937
34209W        W 2614  37.827  16.264   3.186
34210W        W 2615  18.522  40.447  14.934
34211W        W 2616  21.736  33.977   0.845
34212W        W 2617   1.921  31.391   3.849
34213W        W 2618   8.718  29.231   1.263
34214W        W 2619   5.809  26.972   0.995
34215W        W 2620  33.356  38.809  11.555
34216W        W 2621   7.982   4.879   2.869
34217W        W 2622  42.991  44.212   4.179
34218W        W 2623  24.530  25.540   4.648
34219W        W 2624  34.163  28.099  11.367
34220W        W 2625  16.601  16.433  13.805
34221W        W 2626  21.806  15.331   0.130
34222W        W 2627  15.151   3.819   4.498
34223W        W 2628  36.860  28.747   3.750
34224W        W 2629   3.930   2.910  11.275
34225W        W 2630  13.732  17.168   0.184
34226W        W 2631  40.377  21.768   3.636
34227W        W 2632  12.303  23.770   1.870
34228W        W 2633  31.849   2.237   1.451
34229W        W 2634  10.455  19.504   1.692
34230W        W 2635  36.977  24.302  14.826
34231W        W 2636  30.946  24.381  10.810
34232W        W 2637  10.278  44.165  14.861
34233W        W 2638  30.085   8.278  11.302
34234W        W 2639  37.479  42.316  11.800
34235W        W 2640  17.595  28.227  13.352
34236W        W 2641  34.333  11.173  11.118
34237W        W 2642  13.350  18.433  11.716
34238W        W 2643   7.338   9.953  10.724
34239W        W 2644  33.660  44.252   1.506
34240W        W 2645  17.218  12.160  13.111
34241W        W 2646  42.739  39.136   0.284
34242W        W 2647   9.166  29.955   0.819
34243W        W 2648   3.442  43.929  11.231
34244W        W 2649  21.204  41.744  12.049
34245W        W 2650  37.093  13.900  12.024
34246W        W 2651  39.481  22.154   1.976
34247W        W 2652  32.425  33.096   3.990
34248W        W 2653  39.244  35.836   1.812
34249W        W 2654  22.966   6.241   1.797
34250W        W 2655  43.466  22.044  13.519
34251W        W 2656  27.171   6.334  12.233
34252W        W 2657  13.862  44.830  13.358
34253W        W 2658  15.895  39.437  11.635
34254W        W 2659  11.003  43.867  11.940
34255W        W 2660  23.758   3.331   3.591
34256W        W 2661  18.945  31.885  12.317
34257W        W 2662  43.131  28.821  12.109
34258W        W 2663  15.543  21.481   0.305
34259W        W 2664  35.129  17.149   3.246
34260W        W 2665  22.696  20.075   1.759
34261W        W 2666   7.866   5.912   1.904
34262W        W 2667  26.995  13.576  14.494
34263W        W 2668  25.277  25.487  12.350
34264W        W 2669  16.048  15.603   1.964
34265W        W 2670  37.153  21.792  12.078
34266W        W 2671  29.176   7.690  12.520
34267W        W 2672  28.115  36.816   2.344
34268W        W 2673  37.537  39.563  14.007
34269W        W 2674  39.523   7.823  11.526
34270W        W 2675  10.115   2.270  14.820
34271W        W 2676  19.515   0.496  12.001
34272W        W 2677  38.240  36.476   2.289
34273W        W 2678  31.605   0.265  11.499
34274W        W 2679  17.341  41.395   2.690
34275W        W 2680  33.366  38.154   0.307
34276W        W 2681   3.245  24.763  13.037
34277W        W 2682  12.048  22.666   4.119
34278W        W 2683  43.352  29.986  14.509
34279W        W 2684   6.486  11.395  12.729
34280W        W 2685   7.321  31.905  11.112
34281W        W 2686  34.119  21.301   2.391
34282W        W 2687  14.532  42.473   1.681
34283W        W 2688   7.198  27.890  10.049
34284W        W 2689  16.323  23.186  11.631
34285W        W 2690  37.294  18.634   4.321
34286W        W 2691   8.750   5.299   0.246
34287W        W 2692  23.547  15.819   4.186
34288W        W 2693  18.260   4.989  14.478
34289W        W 2694   3.533  21.239   3.104
34290W        W 2695   2.759   0.804  12.656
34291W        W 2696  19.049  17.601   1.679
34292W        W 2697   6.911   2.384   1.845
34293W        W 2698  29.975  35.247   4.888
34294W        W 2699  13.806  17.881   1.829
34295W        W 2700  18.134  15.843  13.032
34296W        W 2701  16.420  32.959   0.241
34297W        W 2702  10.647  24.967  10.960
34298W        W 2703  23.318   8.723   2.215
34299W        W 2704  41.101  43.289   0.375
34300W        W 2705   2.496   4.656  12.328
34301W        W 2706  18.382  19.142   4.711
34302W        W 2707  26.232  33.504  14.389
34303W        W 2708  34.442   9.340  13.060
34304W        W 2709   6.739  40.933  11.266
34305W        W 2710  44.256  25.804  11.093
34306W        W 2711   4.519  12.439  13.969
34307W        W 2712  26.235   7.368   0.815
34308W        W 2713  41.358  31.791   2.293
34309W        W 2714   7.968  11.999  12.842
34310W        W 2715  39.621  16.968   5.037
34311W        W 2716  30.076  27.152   4.626
34312W        W 2717  31.281  14.365  11.636
34313W        W 2718  12.722   7.721   1.530
34314W        W 2719   9.937  44.496  14.666
34315W        W 2720  20.195  20.643   2.944
34316W        W 2721  37.311  19.614   4.471
34317W        W 2722  14.412  17.315  10.611
34318W        W 2723  19.040  15.799  12.578
34319W        W 2724  30.631  39.374   5.186
34320W        W 2725  11.170  35.894  12.139
34321W        W 2726   4.195  25.006  14.944
34322W        W 2727   8.641  18.703   1.701
34323W        W 2728  22.991  27.565   2.547
34324W        W 2729   4.159   8.469  12.998
34325W        W 2730  25.060   5.266  12.513
34326W        W 2731  33.004  13.649  14.814
34327W        W 2732  37.311  32.152  11.990
34328W        W 2733   8.839  26.147   4.833
34329W        W 2734  37.496  38.792   2.430
34330W        W 2735  15.793  24.263  14.764
34331W        W 2736  14.166  17.172   5.032
34332W        W 2737  35.085  28.593  10.603
34333W        W 2738   9.767  39.480  11.436
34334W        W 2739  23.058  15.509  13.695
34335W        W 2740  22.221  17.144   2.840
34336W        W 2741   6.960   8.167  12.016
34337W        W 2742  27.711  21.477   0.699
34338W        W 2743   5.457  32.590   1.804
34339W        W 2744  10.798  43.558   3.867
34340W        W 2745   4.071  43.299   2.125
34341W        W 2746  36.413  22.174   2.435
34342W        W 2747   7.505  27.509   1.395
34343W        W 2748  26.552  13.175   0.416
34344W        W 2749  15.142  31.411  13.898
34345W        W 2750  29.613  26.158   1.822
34346W        W 2751   8.306  30.048   3.602
34347W        W 2752  35.289  16.703  14.061
34348W        W 2753  24.666  21.942  13.614
34349W        W 2754   6.655   6.435  11.159
34350W        W 2755  29.742  29.229   1.873
34351W        W 2756   6.391   6.988   1.949
34352W        W 2757  44.376  24.113  10.797
34353W        W 2758  38.076  35.781  11.493
34354W        W 2759  11.114  41.397   2.223
34355W        W 2760  21.092  34.644   0.334
34356W        W 2761   7.863  35.296   1.667
34357W        W 2762  22.023   3.491  11.103
34358W        W 2763   5.642  40.175  13.253
34359W        W 2764   5.176  22.198  13.318
34360W        W 2765  30.488  20.136   4.669
34361W        W 2766  24.134  44.519  12.620
34362W        W 2767  38.837   8.675  10.703
34363W        W 2768  29.118   5.738   3.591
34364W        W 2769  29.017  19.692   2.162
34365W        W 2770   1.017  33.383  14.139
34366W        W 2771  32.809  42.357   1.839
34367W        W 2772  22.771  29.041   3.685
34368W        W 2773  16.055  30.856   2.266
34369W        W 2774  23.011  15.566  12.710
34370W        W 2775   3.489   4.760  12.177
34371W        W 2776  40.135  14.241  12.908
34372W        W 2777  20.256   0.449   2.875
34373W        W 2778   0.540  30.285   1.976
34374W        W 2779  24.231  13.579   4.164
34375W        W 2780  44.645  42.788   0.029
34376W        W 2781   7.756  14.357  10.722
34377W        W 2782  15.672  44.524   0.585
34378W        W 2783  23.322  15.821  14.735
34379W        W 2784  27.707  13.800   1.706
34380W        W 2785  22.416  36.759  13.011
34381W        W 2786  27.894  43.512   0.174
34382W        W 2787  14.257  32.845   1.211
34383W        W 2788  26.242  17.195   4.889
34384W        W 2789  22.142   1.164  14.974
34385W        W 2790  16.765   9.642  10.470
34386W        W 2791  13.745  32.548  14.246
34387W        W 2792  22.551  21.186  11.440
34388W        W 2793  20.845  28.040   0.887
34389W        W 2794  27.220  32.244  10.973
34390W        W 2795  12.346  33.148   4.005
34391W        W 2796  12.281  36.627   4.942
34392W        W 2797  10.163   5.739  13.492
34393W        W 2798   0.899  17.027   1.470
34394W        W 2799  37.853  23.358  12.367
34395W        W 2800  10.792  30.097  11.021
34396W        W 2801  40.408  23.467  12.756
34397W        W 2802  36.931  37.412   3.810
34398W        W 2803   6.783   0.489   2.343
34399W        W 2804  39.338  13.743  12.534
34400W        W 2805  13.626  18.991  11.502
34401W        W 2806  10.693  12.347  10.870
34402W        W 2807  11.743   3.151  10.834
34403W        W 2808  44.665  44.300  13.800
34404W        W 2809   0.023   0.186   2.722
34405W        W 2810  11.782  32.653  14.845
34406W        W 2811  14.979  22.047  13.066
34407W        W 2812  14.520  31.467   5.026
34408W        W 2813  29.475  29.498   2.621
34409W        W 2814  11.894  34.636  12.466
34410W        W 2815  20.338   7.507   2.741
34411W        W 2816  42.812  41.572   1.790
34412W        W 2817   8.844   8.512  11.905
34413W        W 2818  25.489  27.496  13.931
34414W        W 2819  44.896  23.650   2.324
34415W        W 2820  10.662  31.165  12.456
34416W        W 2821  13.083   3.559  10.899
34417W        W 2822   0.383   9.837   0.910
34418W        W 2823  14.787  14.806  12.067
34419W        W 2824  19.540  23.892   1.670
34420W        W 2825  35.357  11.426  13.453
34421W        W 2826  29.860  42.351  13.815
34422W        W 2827  31.714   3.288  12.131
34423W        W 2828  12.764  41.657   3.366
34424W        W 2829  43.726   3.454  14.880
34425W        W 2830  13.567  11.105   1.362
34426W        W 2831   1.085  16.250   3.637
34427W        W 2832  40.381  44.312   0.858
34428W        W 2833  43.416  41.606  12.992
34429W        W 2834  18.014  41.868  14.454
34430W        W 2835  10.176  30.895  12.498
34431W        W 2836  16.111  22.141   0.701
34432W        W 2837  39.606   1.751  13.857
34433W        W 2838  10.951  24.321   3.372
34434W        W 2839  35.701  36.507  10.783
34435W        W 2840  25.054   2.874   3.707
34436W        W 2841  43.799   0.299  12.400
34437W        W 2842  20.753  35.688  14.780
34438W        W 2843  11.086  43.725  14.737
34439W        W 2844   8.728  32.690  14.933
34440W        W 2845   2.931  36.989  11.060
34441W        W 2846  33.555   4.824   1.366
34442W        W 2847  32.434  44.489  13.242
34443W        W 2848  32.485   4.390  11.509
34444W        W 2849  42.533   0.860   0.800
34445W        W 2850  13.156   7.586  13.162
34446W        W 2851   7.826   6.305  14.680
34447W        W 2852  24.466  11.760   4.107
34448W        W 2853   2.553   2.563   1.871
34449W        W 2854  27.273  42.237  10.697
34450W        W 2855  21.982  23.626  14.026
34451W        W 2856  36.651  21.253   2.323
34452W        W 2857  36.751  33.526   0.735
34453W        W 2858  16.147  28.553   2.222
34454W        W 2859  14.658  13.819  12.083
34455W        W 2860  31.660  27.886   3.447
34456W        W 2861  14.634  28.362  10.688
34457W        W 2862  36.775  27.004   3.432
34458W        W 2863  16.643  23.494   3.204
34459W        W 2864  29.450  30.249   0.279
34460W        W 2865   6.239  34.477  13.091
34461W        W 2866  24.092  33.101   4.176
34462W        W 2867   6.418   0.458  12.038
34463W        W 2868  22.169  26.169   4.293
34464W        W 2869  35.868  39.422  12.943
34465W        W 2870  19.010   3.148   2.256
34466W        W 2871  23.015  22.164   4.645
34467W        W 2872  17.766  38.301   2.360
34468W        W 2873  42.346  43.895   3.067
34469W        W 2874  35.521  11.820   0.235
34470W        W 2875  41.765  21.079   3.708
34471W        W 2876   7.083  38.505  13.394
34472W        W 2877  21.710   6.912   1.391
34473W        W 2878   5.418  24.179  10.845
34474W        W 2879  26.950  13.056  12.044
34475W        W 2880   4.893  33.781   2.462
34476W        W 2881  33.400   1.825  12.310
34477W        W 2882  27.999  15.130   1.624
34478W        W 2883  12.807  44.867  10.781
34479W        W 2884  23.665  15.282  11.918
34480W        W 2885   8.216  35.362   0.767
34481W        W 2886  29.980  40.497  14.290
34482W        W 2887  13.208  26.318   0.454
34483W        W 2888  31.392  33.052  11.620
34484W        W 2889  42.340  26.937  11.053
34485W        W 2890   1.581  36.001   1.391
34486W        W 2891  39.824  31.615   0.293
34487W        W 2892  36.874   7.842   2.743
34488W        W 2893  33.460  35.968  13.032
34489W        W 2894  11.833  28.029  12.796
34490W        W 2895  19.534   2.245   1.828
34491W        W 2896  27.151  15.531   1.138
34492W        W 2897  31.093  42.963   4.134
34493W        W 2898  18.716  30.466   0.599
34494W        W 2899  28.827   6.823  14.739
34495W        W 2900  17.009  16.519   3.119
34496W        W 2901  17.945  24.216   1.239
34497W        W 2902  38.950  20.158  13.263
34498W        W 2903  37.587  44.208  12.450
34499W        W 2904  15.425  42.503  10.340
34500W        W 2905   1.173  16.477   4.116
34501W        W 2906  31.962  27.167   4.639
34502W        W 2907  23.590  42.614  11.602
34503W        W 2908  26.372  41.410  13.501
34504W        W 2909  23.977  33.495   0.821
34505W        W 2910  34.057  28.596  13.427
34506W        W 2911  33.803   3.877   4.628
34507W        W 2912  21.555  40.366  11.370
34508W        W 2913  30.432  41.461  14.722
34509W        W 2914  37.587  28.654  11.319
34510W        W 2915  29.934  31.141  11.549
34511W        W 2916   3.641  38.943  12.081
34512W        W 2917   6.199   8.106   0.997
34513W        W 2918  27.526  15.779   1.403
34514W        W 2919   8.839  20.199   0.826
34515W        W 2920  29.019  30.447   3.686
34516W        W 2921  32.183  16.233   2.419
34517W        W 2922  21.400  42.867  11.451
34518W        W 2923   5.240  34.078   3.605
34519W        W 2924   5.262   9.660   0.826
34520W        W 2925  31.142  31.552   1.216
34521W        W 2926   2.608   5.163  12.214
34522W        W 2927   0.775  38.554   2.417
34523W        W 2928  13.304   4.477  11.229
34524W        W 2929   7.195   0.085   2.262
34525W        W 2930  33.652  37.178   4.323
34526W        W 2931   3.359  16.545  12.888
34527W        W 2932   9.974   6.216  13.530
34528W        W 2933  11.307  31.245   3.694
34529W        W 2934  15.201   9.143   2.765
34530W        W 2935  24.259  44.970   4.553
34531W        W 2936  20.628  17.835   3.090
34532W        W 2937   3.750  11.262  14.303
34533W        W 2938  12.897  25.589  13.884
34534W        W 2939   2.206   5.258   1.787
34535W        W 2940   3.435  30.200  10.724
34536W        W 2941  17.108  25.154   4.565
34537W        W 2942  20.081  21.347   3.323
34538W        W 2943  30.487  36.726   1.426
34539W        W 2944   5.755  42.032  12.052
34540W        W 2945  25.152  40.309  10.274
34541W        W 2946  19.621   6.829  14.447
34542W        W 2947   2.842  32.671   0.322
34543W        W 2948   5.036  18.508   5.045
34544W        W 2949   4.406   0.738   1.308
34545W        W 2950   3.455   7.452  11.224
34546W        W 2951  36.564  39.925   3.274
34547W        W 2952  31.070  24.143  12.375
34548W        W 2953  40.815  19.489  11.063
34549W        W 2954  10.933  35.992  13.401
34550W        W 2955  38.389   1.554   4.634
34551W        W 2956  13.365   4.811  13.150
34552W        W 2957  42.813   4.781   1.719
34553W        W 2958   6.280  19.310   2.224
34554W        W 2959  27.917  25.682  14.780
34555W        W 2960  13.650  29.347  12.573
34556W        W 2961  10.725   5.417  13.038
34557W        W 2962   7.118  16.185  12.822
34558W        W 2963  42.659  35.361  12.261
34559W        W 2964  12.847  32.543  12.015
34560W        W 2965   6.565  27.599  11.875
34561W        W 2966   9.721  20.231  12.459
34562W        W 2967  37.059   5.224   4.988
34563W        W 2968  24.613  21.617   4.804
34564W        W 2969  34.304   0.034  12.087
34565W        W 2970  12.471  35.084   3.858
34566W        W 2971  16.536  29.060   4.492
34567W        W 2972  20.752  13.205   2.332
34568W        W 2973  42.017  30.328  10.234
34569W        W 2974  38.810  40.983   0.333
34570W        W 2975  36.441   8.194   3.786
34571W        W 2976  36.360  29.665  11.090
34572W        W 2977   6.704  30.052  13.857
34573W        W 2978  44.444  17.731  10.117
34574W        W 2979   8.948  28.844   0.406
34575W        W 2980  17.728  39.836   3.718
34576W        W 2981  10.009  37.478   0.840
34577W        W 2982  15.753   3.762  12.984
34578W        W 2983  43.123   5.781   1.290
34579W        W 2984  18.111   5.765   4.868
34580W        W 2985  32.673  30.056  11.276
34581W        W 2986  12.659  29.556   3.112
34582W        W 2987  15.909   4.427  11.550
34583W        W 2988  14.880  29.345  10.152
34584W        W 2989  20.625  42.801   1.478
34585W        W 2990  44.545  16.119   2.660
34586W        W 2991  31.083  41.710   0.892
34587W        W 2992  31.328  30.855   1.710
34588W        W 2993   3.241   1.855  14.356
34589W        W 2994   5.211  21.623  10.797
34590W        W 2995  22.716  15.342  14.361
34591W        W 2996   2.263  42.896  14.747
34592W        W 2997  35.090  13.974  12.029
34593W        W 2998  31.699  12.871   2.329
34594W        W 2999  19.606  42.529  13.806
34595W        W 3000   7.728  13.328  10.750
34596W        W 3001  15.086  39.318  11.466
34597W        W 3002  25.686  43.711  13.540
34598W        W 3003  44.359  22.459  13.847
34599W        W 3004  18.880  42.838   4.140
34600W        W 3005  20.035  30.655  14.576
34601W        W 3006  20.019  36.325   1.510
34602W        W 3007  17.240  38.436   1.517
34603W        W 3008  35.804   3.206  14.805
34604W        W 3009  16.732  40.349  10.627
34605W        W 3010  31.183  33.522  11.505
34606W        W 3011  22.686  19.251  11.165
34607W        W 3012  17.748  11.593  14.952
34608W        W 3013  13.976  31.959   1.154
34609W        W 3014   2.937   0.906  10.761
34610W        W 3015  25.456   9.212  14.378
34611W        W 3016  37.916   6.141  10.643
34612W        W 3017   5.226  19.286   3.428
34613W        W 3018  20.700  34.000   1.582
34614W        W 3019  25.259  17.850   3.312
34615W        W 3020  27.721  32.330  10.964
34616W        W 3021  35.544  21.930  14.978
34617W        W 3022  11.657   7.325   1.872
34618W        W 3023  14.310  13.129   2.398
34619W        W 3024  22.274  21.439  12.801
34620W        W 3025  37.140  33.409   1.137
34621W        W 3026  31.453  38.326  10.986
34622W        W 3027  32.459  37.972   4.838
34623W        W 3028  32.561   0.290  10.386
34624W        W 3029   0.667   8.784   3.486
34625W        W 3030   5.919   3.423  13.941
34626W        W 3031   7.413  39.466   3.072
34627W        W 3032   3.374  19.661   4.744
34628W        W 3033   0.547  33.986  11.120
34629W        W 3034  26.202   5.400   0.134
34630W        W 3035  33.020  11.388   3.574
34631W        W 3036  13.741   0.318  14.483
34632W        W 3037   6.296   9.210  11.410
34633W        W 3038  31.891  33.973   2.812
34634W        W 3039  13.537  32.824   2.792
34635W        W 3040   4.832  36.391  13.021
34636W        W 3041  41.851  27.259   1.733
34637W        W 3042  40.064  23.604   0.965
34638W        W 3043  16.131  27.278   3.704
34639W        W 3044  25.072   2.761  11.910
34640W        W 3045  25.411   7.884   1.914
34641W        W 3046  26.912  32.914  13.369
34642W        W 3047  31.002  18.065   1.024
34643W        W 3048  29.439  33.530  14.578
34644W        W 3049  44.073   8.435  13.999
34645W        W 3050  28.458   3.269  13.477
34646W        W 3051   2.861  33.299   1.989
34647W        W 3052  32.036   5.154  12.973
34648W        W 3053   0.586  39.121  11.382
34649W        W 3054  36.477   0.043   3.729
34650W        W 3055  43.325  24.190   2.717
34651W        W 3056  42.783   2.691  11.565
34652W        W 3057  32.587  20.963   0.396
34653W        W 3058  41.889  44.526   3.479
34654W        W 3059  29.021  36.818   1.046
34655W        W 3060   5.010   8.880   1.256
34656W        W 3061  25.232  20.560   1.442
34657W        W 3062   3.429   1.418   1.959
34658W        W 3063  34.849  40.071   2.598
34659W        W 3064   5.772  12.028   1.381
34660W        W 3065  22.910  33.322   4.083
34661W        W 3066   4.692  14.248   2.736
34662W        W 3067   5.810  15.320   0.647
34663W        W 3068  43.604  23.976   3.282
34664W        W 3069  12.086  36.951  12.152
34665W        W 3070   6.309  22.890  13.310
34666W        W 3071  38.516  15.293   1.512
34667W        W 3072  24.697  24.751  12.882
34668W        W 3073  35.151  21.542   4.029
34669W        W 3074  16.613  17.763   3.655
34670W        W 3075   0.196  23.130  10.725
34671W        W 3076  17.810  31.026  10.402
34672W        W 3077  25.994  35.877   0.511
34673W        W 3078  41.309   2.181   1.860
34674W        W 3079   5.784  23.444   3.234
34675W        W 3080  31.097  32.304  11.152
34676W        W 3081  38.920  17.966   3.596
34677W        W 3082  44.000  10.972   0.935
34678W        W 3083  12.779   0.381   2.890
34679W        W 3084  22.470  20.697  14.634
34680W        W 3085  43.339  39.379   2.920
34681W        W 3086  12.676  44.871  13.037
34682W        W 3087  28.190  33.389   2.518
34683W        W 3088  39.500  33.746   2.695
34684W        W 3089  44.500   0.437  11.943
34685W        W 3090  31.620  19.777  12.860
34686W        W 3091  35.785  33.438  12.632
34687W        W 3092  20.617  17.327   1.109
34688W        W 3093  23.902  41.939   3.623
34689W        W 3094  38.957  29.195  11.071
34690W        W 3095  41.223  19.867  11.055
34691W        W 3096  20.147  15.329  10.600
34692W        W 3097  41.919  23.142  12.258
34693W        W 3098  13.374   4.733   4.525
34694W        W 3099  42.948  11.385  14.396
34695W        W 3100  15.253   0.784   4.894
34696W        W 3101  12.662  29.127  10.611
34697W        W 3102  26.039  19.220  10.038
34698W        W 3103  21.805  32.595   3.681
34699W        W 3104  21.474  38.759  11.828
34700W        W 3105  38.987  21.206  10.476
34701W        W 3106  33.413  44.443  11.024
34702W        W 3107   5.925   5.626  14.356
34703W        W 3108  13.863   8.011  12.483
34704W        W 3109  19.460  18.030  11.342
34705W        W 3110   2.841  12.124   1.152
34706W        W 3111   1.223   9.330   4.192
34707W        W 3112  30.367  14.557   5.034
34708W        W 3113  28.783  18.379   5.605
34709W        W 3114  19.621  15.411  10.679
34710W        W 3115   3.976  14.116   4.017
34711W        W 3116  34.454  27.707  13.600
34712W        W 3117  41.770  21.798   1.904
34713W        W 3118   1.550  36.781   0.473
34714W        W 3119  34.037   3.934  14.356
34715W        W 3120  15.333   3.951  12.519
34716W        W 3121   6.418   4.482   1.790
34717W        W 3122  27.883  40.501   0.049
34718W        W 3123  19.603   0.015  12.156
34719W        W 3124   4.625  40.109  14.240
34720W        W 3125   4.772  22.193  12.707
34721W        W 3126  21.603  38.031   3.245
34722W        W 3127  21.576  21.824  12.551
34723W        W 3128  19.171  22.778   2.677
34724W        W 3129  37.360  34.687   3.335
34725W        W 3130  10.647  16.628   3.359
34726W        W 3131  43.816  39.499   1.658
34727W        W 3132  22.757   2.995   4.588
34728W        W 3133  21.764   4.020   3.339
34729W        W 3134  31.005  32.932   1.832
34730W        W 3135  14.346  28.609  13.849
34731W        W 3136  42.600   1.706  14.298
34732W        W 3137  11.131  37.863  12.599
34733W        W 3138  12.071  15.263   1.096
34734W        W 3139  20.405  22.569   4.068
34735W        W 3140  42.528  28.454   4.714
34736W        W 3141  35.350  33.520  13.532
34737W        W 3142  42.454  38.043   2.119
34738W        W 3143  17.081  32.464  12.437
34739W        W 3144  43.717  44.308  11.108
34740W        W 3145  27.201   1.127   2.428
34741W        W 3146  20.718  26.667  10.681
34742W        W 3147  16.629  14.807  14.307
34743W        W 3148   3.822  28.112   4.245
34744W        W 3149   5.676  15.169  13.004
34745W        W 3150   1.521   5.726   0.699
34746W        W 3151   2.341   1.081  12.681
34747W        W 3152  27.371   3.512  10.546
34748W        W 3153  11.376  35.351  14.492
34749W        W 3154  18.860   6.435  13.342
34750W        W 3155  34.001  31.637   0.325
34751W        W 3156  13.669  35.845  10.724
34752W        W 3157  29.982  31.125   0.849
34753W        W 3158  41.893   9.111  11.914
34754W        W 3159   4.443  27.036   3.620
34755W        W 3160  39.176  22.024   0.659
34756W        W 3161  15.825  10.706  10.266
34757W        W 3162  33.529  16.236  12.871
34758W        W 3163  40.884   2.475   0.885
34759W        W 3164  10.349  16.768  13.778
34760W        W 3165  15.623  23.808   0.744
34761W        W 3166  39.485  35.118   1.211
34762W        W 3167  19.049  13.800   3.287
34763W        W 3168  38.632  43.199   3.455
34764W        W 3169  22.195  37.822  12.905
34765W        W 3170  35.606  30.036   0.480
34766W        W 3171   2.185  43.777  11.664
34767W        W 3172  19.576  35.780   0.903
34768W        W 3173  39.943  35.572  14.563
34769W        W 3174  35.100  35.025  11.558
34770W        W 3175  15.244  44.499  10.691
34771W        W 3176  41.301  24.785  12.050
34772W        W 3177   1.914   2.795   0.946
34773W        W 3178  33.215  42.799   2.633
34774W        W 3179   0.725  39.476   4.665
34775W        W 3180  10.896  14.154  13.073
34776W        W 3181  36.764  17.292   4.263
34777W        W 3182   6.879  43.324   2.265
34778W        W 3183  16.259   6.454   0.014
34779W        W 3184  43.868   8.284  11.275
34780W        W 3185  24.017  43.202   2.164
34781W        W 3186  30.158   2.728   2.805
34782W        W 3187  36.368   7.319  13.340
34783W        W 3188  35.477   4.456   0.884
34784W        W 3189  30.839  17.068  11.466
34785W        W 3190  12.726   7.728  10.953
34786W        W 3191   3.414  33.292  12.047
34787W        W 3192  31.598   5.799   3.226
34788W        W 3193  40.105   8.812   1.707
34789W        W 3194  15.708  23.522   1.231
34790W        W 3195   3.313   8.400   3.760
34791W        W 3196  29.203  20.341   0.783
34792W        W 3197  43.549  33.117   1.252
34793W        W 3198  32.650   3.389   2.184
34794W        W 3199  21.581  16.842  13.116
34795W        W 3200  42.016  19.836   0.993
34796W        W 3201  25.922   5.767   4.845
34797W        W 3202  20.563  25.258  10.511
34798W        W 3203  35.524  10.243   4.542
34799W        W 3204   5.855  38.680  13.511
34800W        W 3205  38.270   5.297   2.165
34801W        W 3206  41.005   0.453   1.286
34802W        W 3207  19.676  39.769  11.942
34803W        W 3208  18.713  34.438   4.837
34804W        W 3209   5.443  33.709  10.944
34805W        W 3210  28.359  19.154  12.421
34806W        W 3211  19.242  33.551   3.771
34807W        W 3212  43.757   9.343   2.765
34808W        W 3213  24.959  27.634  11.957
34809W        W 3214  27.475  15.762  14.441
34810W        W 3215  35.526   5.700   1.287
34811W        W 3216  19.021  40.559  14.966
34812W        W 3217  23.124  31.950  10.136
34813W        W 3218   0.719  43.246   3.255
34814W        W 3219  38.728  32.630  10.275
34815W        W 3220  26.922  12.814  13.956
34816W        W 3221  18.754  18.247   4.971
34817W        W 3222  34.105   6.875   4.640
34818W        W 3223  39.442  14.204   2.695
34819W        W 3224   0.567   0.891   4.158
34820W        W 3225  21.612  44.914   0.835
34821W        W 3226  39.628  43.009   3.553
34822W        W 3227  16.659  33.661  14.505
34823W        W 3228   2.029  30.067   0.779
34824W        W 3229  17.013   7.258   1.398
34825W        W 3230   3.256  42.370   4.753
34826W        W 3231  30.460  32.720   3.189
34827W        W 3232  42.007   6.397  12.146
34828W        W 3233  27.130   2.765   3.194
34829W        W 3234   5.298  27.643   2.932
34830W        W 3235  20.313  19.640  12.045
34831W        W 3236   5.093  33.304  10.995
34832W        W 3237  32.428  11.310   3.484
34833W        W 3238  31.834  19.536   0.166
34834W        W 3239  38.293  43.756  11.504
34835W        W 3240   6.636  23.396  10.619
34836W        W 3241  15.601  19.771  10.724
34837W        W 3242   9.166  28.076   4.172
34838W        W 3243  36.314  39.137  13.008
34839W        W 3244  36.581  33.291   4.564
34840W        W 3245  19.128  21.482   0.838
34841W        W 3246  40.754   1.786  11.175
34842W        W 3247   6.014   1.373   0.950
34843W        W 3248  11.227  32.874   2.939
34844W        W 3249  27.542  26.595   4.676
34845W        W 3250  12.906  27.518   3.566
34846W        W 3251  16.653   0.904  12.860
34847W        W 3252  43.492  31.633   2.694
34848W        W 3253   5.579  37.236   2.335
34849W        W 3254   0.014  42.321   1.911
34850W        W 3255  10.377  25.196   4.081
34851W        W 3256   0.330   9.147  12.001
34852W        W 3257  30.036  33.908  13.561
34853W        W 3258   3.522  37.412  14.988
34854W        W 3259  10.723   3.212  12.368
34855W        W 3260  22.554  11.361  11.486
34856W        W 3261  29.717   2.930  11.058
34857W        W 3262  40.623  20.722  11.893
34858W        W 3263  41.405  20.512  12.439
34859W        W 3264  27.446  44.731   4.143
34860W        W 3265  20.909  22.695   4.138
34861W        W 3266  18.131  40.772   0.030
34862W        W 3267  16.662  34.837  11.540
34863W        W 3268  30.085   8.168   4.596
34864W        W 3269  28.144  43.535   4.942
34865W        W 3270  24.453  41.312   0.524
34866W        W 3271  25.765  34.614   2.164
34867W        W 3272   9.770  26.776  12.679
34868W        W 3273  26.123  34.334   4.016
34869W        W 3274  41.416   0.422  14.359
34870W        W 3275  21.357  21.459   5.145
34871W        W 3276  30.597   2.039  13.017
34872W        W 3277  41.350  22.945  12.041
34873W        W 3278  41.315  23.680  11.600
34874W        W 3279  42.357  29.258   2.900
34875W        W 3280   0.464  33.659   4.161
34876W        W 3281  22.761  13.410  12.961
34877W        W 3282  32.015  17.044  11.054
34878W        W 3283  13.579   9.739  11.714
34879W        W 3284  24.278  11.810  13.292
34880W        W 3285  43.384   8.230  10.991
34881W        W 3286  27.077  30.134   3.632
34882W        W 3287  14.185  39.910  12.580
34883W        W 3288  26.091  44.325  14.301
34884W        W 3289  31.381  31.007  14.871
34885W        W 3290  28.331   0.961  13.083
34886W        W 3291  26.570  29.904   0.209
34887W        W 3292   6.932  42.009  13.723
34888W        W 3293  42.032   6.348   4.485
34889W        W 3294  22.020   7.716   2.415
34890W        W 3295  24.173  11.410   3.882
34891W        W 3296  34.111  31.326  12.929
34892W        W 3297   4.320   7.875  12.173
34893W        W 3298  32.916  31.142  13.440
34894W        W 3299  10.631   9.151  12.564
34895W        W 3300  42.430  44.436   3.475
34896W        W 3301  10.474  30.740   0.290
34897W        W 3302  14.146  43.014   3.167
34898W        W 3303  24.637  23.476   4.720
34899W        W 3304   5.107  29.475  14.642
34900W        W 3305  17.331  18.941  12.006
34901W        W 3306  28.820  10.296   2.818
34902W        W 3307  22.516  24.723   3.180
34903W        W 3308   8.485  30.795   4.916
34904W        W 3309  10.331  16.011  13.444
34905W        W 3310  31.511  23.110  11.432
34906W        W 3311  20.038  25.277  11.050
34907W        W 3312  38.045  30.126  12.958
34908W        W 3313  22.049   0.187  13.041
34909W        W 3314   4.792   6.925  12.892
34910W        W 3315   4.889  26.942   2.262
34911W        W 3316  41.325   0.914  13.519
34912W        W 3317  32.290  13.329  12.856
34913W        W 3318  14.731  44.564   0.997
34914W        W 3319  32.974  12.442   1.230
34915W        W 3320  21.738  27.951  14.332
34916W        W 3321   2.843  11.809   3.862
34917W        W 3322  41.428  17.546  14.417
34918W        W 3323   6.704  28.601   4.957
34919W        W 3324  27.244  10.158  11.511
34920W        W 3325  29.514  12.647   2.196
34921W        W 3326   0.491  36.390  11.488
34922W        W 3327   6.433  23.900   0.220
34923W        W 3328  26.266   8.259  14.381
34924W        W 3329  18.708  26.209  12.072
34925W        W 3330  26.143  29.005   4.233
34926W        W 3331  17.782  32.878   0.990
34927W        W 3332  27.964  12.872   5.045
34928W        W 3333  37.556  11.109  11.659
34929W        W 3334   3.989   9.257   4.117
34930W        W 3335  14.812  27.915   0.934
34931W        W 3336  33.357  39.434   2.593
34932W        W 3337  13.313   7.909   3.655
34933W        W 3338  21.100  22.972   0.776
34934W        W 3339  37.761  15.132  14.358
34935W        W 3340  24.655  17.664  13.876
34936W        W 3341  25.973  34.977   2.857
34937W        W 3342  36.035  32.559  12.140
34938W        W 3343  33.105  26.232  11.229
34939W        W 3344  24.695  27.116   0.459
34940W        W 3345  35.912   3.291  12.992
34941W        W 3346  36.694  18.404   2.087
34942W        W 3347  16.837  15.122  13.371
34943W        W 3348  24.978   6.826   4.177
34944W        W 3349  35.612  29.564   2.370
34945W        W 3350  28.826   0.744   0.673
34946W        W 3351  12.685   6.200   2.011
34947W        W 3352  14.297  30.149   2.165
34948W        W 3353  18.712   3.201  11.663
34949W        W 3354  26.401  29.969   1.081
34950W        W 3355  15.499  18.896  13.367
34951W        W 3356  30.381  28.135   4.490
34952W        W 3357  34.436  36.706  11.312
34953W        W 3358  28.049  43.339  13.890
34954W        W 3359  44.765  16.842   1.392
34955W        W 3360  18.654  11.635   1.764
34956W        W 3361  30.352   9.719  13.551
34957W        W 3362   7.859   2.599  11.638
34958W        W 3363   2.997  31.579   1.271
34959W        W 3364  24.991   1.816  11.526
34960W        W 3365  23.839  39.584  12.059
34961W        W 3366  29.523  31.953   1.846
34962W        W 3367   0.471  18.521   3.265
34963W        W 3368   6.643  25.298  14.474
34964W        W 3369   8.266   0.310   0.164
34965W        W 3370  31.993  15.719   1.122
34966W        W 3371  20.282  10.725   4.038
34967W        W 3372   7.430  36.908   3.629
34968W        W 3373   8.456  17.799   4.055
34969W        W 3374  30.759  40.822   5.648
34970W        W 3375   0.692  16.139   1.675
34971W        W 3376  29.020  10.089  13.385
34972W        W 3377  22.576  26.046  14.720
34973W        W 3378   8.700  41.791  14.794
34974W        W 3379  40.843   8.662  12.450
34975W        W 3380  25.970   9.208  14.388
34976W        W 3381  35.838  44.390  12.938
34977W        W 3382  36.963  19.105  13.945
34978W        W 3383  10.507  21.442  12.562
34979W        W 3384  10.874  39.359   0.689
34980W        W 3385   9.201  14.855  11.198
34981W        W 3386  26.588   4.516   1.256
34982W        W 3387  21.477  25.151   2.826
34983W        W 3388   7.402   3.186   0.751
34984W        W 3389   8.452  37.029  10.742
34985W        W 3390  38.430  17.442   2.635
34986W        W 3391  19.525  37.357  13.407
34987W        W 3392   1.136  32.929  14.316
34988W        W 3393  33.558  29.133  14.268
34989W        W 3394  17.984  29.070  11.492
34990W        W 3395   8.749   7.858  12.374
34991W        W 3396   9.397  36.752  10.866
34992W        W 3397  24.031  34.187   0.586
34993W        W 3398   8.600  37.341   3.682
34994W        W 3399   3.035  15.111   1.294
34995W        W 3400   4.404  31.990   4.897
34996W        W 3401  44.939  34.527  11.382
34997W        W 3402  39.482  29.537  13.802
34998W        W 3403   8.658  25.079  13.853
34999W        W 3404   5.810  14.264   2.888
35000W        W 3405  39.350  19.467  13.101
35001W        W 3406  34.754  32.458  11.528
35002W        W 3407  42.762  44.004  11.017
35003W        W 3408  38.269  14.729  14.803
35004W        W 3409  10.059  30.899   2.670
35005W        W 3410  25.194   6.242   4.262
35006W        W 3411  17.141  13.714  12.641
35007W        W 3412  31.146   0.493  12.346
35008W        W 3413  41.967   0.055   2.230
35009W        W 3414  13.700  44.168   9.797
35010W        W 3415  11.223  43.478  11.634
35011W        W 3416  28.804  11.443  13.054
35012W        W 3417  32.170  23.070  14.146
35013W        W 3418  18.779  21.227  11.975
35014W        W 3419  37.796   5.775   0.803
35015W        W 3420   0.423  27.425  10.709
35016W        W 3421  21.729   9.207  13.337
35017W        W 3422  37.874  37.652  11.699
35018W        W 3423  23.526   0.834   4.155
35019W        W 3424  10.738  29.439   0.612
35020W        W 3425   9.047   7.458   1.663
35021W        W 3426  22.830  32.932  10.438
35022W        W 3427  18.742  26.747  14.917
35023W        W 3428  42.400  10.566  13.279
35024W        W 3429  23.604  42.559  12.494
35025W        W 3430  27.047  22.569   2.139
35026W        W 3431  10.349  31.888  12.376
35027W        W 3432  12.102  31.337  14.363
35028W        W 3433  28.187  35.817  12.989
35029W        W 3434  41.255  36.952  11.507
35030W        W 3435   9.241   0.371  10.985
35031W        W 3436  17.072  10.206  13.029
35032W        W 3437  36.967  30.864  12.034
35033W        W 3438  28.114  21.801  11.101
35034W        W 3439  27.310   8.174  14.537
35035W        W 3440   9.166  22.369  13.629
35036W        W 3441  36.299  32.981  14.986
35037W        W 3442  43.491  14.710  13.810
35038W        W 3443  19.457  15.314   1.212
35039W        W 3444  12.764  39.777  11.410
35040W        W 3445   8.054   4.249  13.985
35041W        W 3446  20.651   0.356   4.119
35042W        W 3447  31.337  25.282   4.684
35043W        W 3448  25.659  44.608   3.451
35044W        W 3449  40.477  38.821   0.016
35045W        W 3450  43.818   7.190  13.829
35046W        W 3451  22.690  32.971   1.756
35047W        W 3452  35.437   7.107   1.787
35048W        W 3453  34.714   3.463   4.209
35049W        W 3454   3.172  26.139  10.937
35050W        W 3455   9.981  30.574  14.050
35051W        W 3456  29.723   0.913  12.485
35052W        W 3457  42.022  36.894   1.704
35053W        W 3458  29.099  34.660   1.282
35054W        W 3459  17.070   5.757   0.477
35055W        W 3460  30.669   1.797   4.507
35056W        W 3461  17.648  41.304  10.752
35057W        W 3462   5.866  24.677   0.811
35058W        W 3463   8.654  42.352   1.700
35059W        W 3464  28.558  13.751  10.484
35060W        W 3465  11.888  13.647  14.785
35061W        W 3466   4.126  10.899   3.189
35062W        W 3467  26.470  28.141   2.860
35063W        W 3468  41.704  29.685   4.487
35064W        W 3469  25.004  30.062  12.720
35065W        W 3470  27.086   3.136   0.643
35066W        W 3471  38.853   6.965   3.644
35067W        W 3472   4.170  44.496  10.551
35068W        W 3473   2.796   3.718  14.294
35069W        W 3474  19.713  16.406  13.613
35070W        W 3475  11.561  16.532   9.636
35071W        W 3476  20.748  11.866  12.335
35072W        W 3477   7.197  29.716   3.336
35073W        W 3478  36.921  43.703   5.130
35074W        W 3479  26.052  20.822  12.566
35075W        W 3480  18.985  38.238  14.211
35076W        W 3481  44.429  26.392  12.979
35077W        W 3482  13.547   4.343   0.225
35078W        W 3483  42.890   9.446   3.142
35079W        W 3484  40.976   0.175   0.328
35080W        W 3485  18.200   4.634   3.254
35081W        W 3486  35.825   2.364  14.896
35082W        W 3487  15.186  21.519   3.682
35083W        W 3488  22.514  32.785  12.058
35084W        W 3489   8.147  40.371   3.413
35085W        W 3490  35.031  37.807  13.524
35086W        W 3491  41.280  27.713  14.515
35087W        W 3492   7.290  43.814   2.716
35088W        W 3493   6.015  37.505   0.496
35089W        W 3494   7.840   4.750  14.010
35090W        W 3495  33.311  39.423  14.963
35091W        W 3496  18.636   6.199  14.851
35092W        W 3497  41.105  19.953  13.660
35093W        W 3498  44.232   2.819  13.748
35094W        W 3499  21.777  18.725  12.063
35095W        W 3500  36.935  32.125  10.207
35096W        W 3501   1.499   1.329   0.289
35097W        W 3502  20.683  23.208   0.966
35098W        W 3503  15.741  31.034   3.316
35099W        W 3504  44.042  36.047  11.145
35100W        W 3505   3.368  36.574  12.866
35101W        W 3506  38.826  44.174  12.691
35102W        W 3507  32.233  33.860  12.966
35103W        W 3508   5.856  22.220   4.161
35104W        W 3509  19.222  11.712   4.580
35105W        W 3510  30.656  19.098   4.036
35106W        W 3511  27.153   3.634  14.820
35107W        W 3512  22.470   9.197   3.316
35108W        W 3513  10.680  22.460   1.762
35109W        W 3514  12.855  40.386  14.776
35110W        W 3515  20.777  31.621   2.148
35111W        W 3516  33.567  14.704   0.411
35112W        W 3517  17.249  31.617   4.690
35113W        W 3518  37.546  15.874  11.929
35114W        W 3519  12.652  21.218  10.004
35115W        W 3520  20.447  36.554   1.725
35116W        W 3521  43.333  36.921  11.577
35117W        W 3522  12.694  40.288  11.224
35118W        W 3523  14.822  23.272   0.559
35119W        W 3524  18.651   6.849   1.877
35120W        W 3525  25.114  44.178   2.837
35121W        W 3526  28.678  36.373   4.531
35122W        W 3527  14.184  27.956  11.397
35123W        W 3528  31.642  40.082   2.337
35124W        W 3529   4.437  14.710  12.988
35125W        W 3530  12.898  19.561   3.177
35126W        W 3531   0.694   9.428   5.014
35127W        W 3532  31.370   9.873  13.780
35128W        W 3533  28.470  30.033  11.533
35129W        W 3534   1.207   3.817   2.706
35130W        W 3535  25.091  25.565   1.948
35131W        W 3536  32.955  38.577   2.437
35132W        W 3537  33.306  39.616  12.165
35133W        W 3538  26.378  26.600  11.603
35134W        W 3539  26.912  24.352  14.068
35135W        W 3540  28.970  21.109   1.204
35136W        W 3541  14.389  17.041   1.960
35137W        W 3542  12.231  21.661  11.968
35138W        W 3543  26.136  26.995  10.917
35139W        W 3544  28.678  24.156  11.636
35140W        W 3545  15.216  37.592   1.682
35141W        W 3546   2.755  25.509  11.839
35142W        W 3547  25.613  28.565  10.616
35143W        W 3548   5.104  15.220  11.286
35144W        W 3549  16.310  17.658  12.306
35145W        W 3550  15.814   3.262  12.051
35146W        W 3551  32.315   4.672   2.838
35147W        W 3552  28.234  18.529   2.168
35148W        W 3553   8.411   9.971  10.414
35149W        W 3554  22.802  11.370   2.720
35150W        W 3555  43.353  10.580   2.275
35151W        W 3556   6.187  24.681   0.259
35152W        W 3557  20.186  16.976  10.293
35153W        W 3558  32.416  13.101  11.189
35154W        W 3559  16.759  21.085   4.647
35155W        W 3560  37.345  14.045  12.445
35156W        W 3561  41.457  14.731  12.649
35157W        W 3562  28.454  22.032  10.773
35158W        W 3563  39.791  38.808  13.542
35159W        W 3564  14.991  35.979  13.618
35160W        W 3565  35.351  29.641  12.499
35161W        W 3566   7.804  36.980   0.806
35162W        W 3567  15.847   2.196  12.881
35163W        W 3568  24.301  23.527   0.271
35164W        W 3569  14.428  13.428  13.001
35165W        W 3570  37.525  15.824   5.030
35166W        W 3571  29.613  17.529   2.915
35167W        W 3572  36.176   7.882   1.325
35168W        W 3573  25.495  12.862  12.828
35169W        W 3574   8.183  12.677   0.407
35170W        W 3575  38.771  35.434  10.230
35171W        W 3576  18.129   5.358   3.787
35172W        W 3577  37.405  26.419   0.390
35173W        W 3578  15.763  24.201   4.768
35174W        W 3579  11.321   3.954   0.479
35175W        W 3580  34.568   7.356  13.793
35176W        W 3581  27.340  42.727   4.973
35177W        W 3582  35.463   3.189   3.715
35178W        W 3583  23.275   4.032  13.851
35179W        W 3584   1.906  27.752   0.245
35180W        W 3585  13.090  29.093   4.996
35181W        W 3586  32.701   7.303   3.713
35182W        W 3587  39.071  38.310  13.320
35183W        W 3588  11.869  13.681  11.875
35184W        W 3589  40.003  18.679  12.144
35185W        W 3590   6.050   5.697   4.113
35186W        W 3591   7.408  43.696   0.409
35187W        W 3592  25.581  34.828   3.335
35188W        W 3593  16.314  34.881   2.693
35189W        W 3594  43.654  32.575   2.691
35190W        W 3595  35.590  23.667  12.892
35191W        W 3596  33.868   1.041   1.824
35192W        W 3597  15.462  32.719  13.854
35193W        W 3598  15.609  17.460   2.515
35194W        W 3599  21.711  19.635   3.807
35195W        W 3600  29.106  40.952  14.073
35196W        W 3601   9.019  25.496  12.441
35197W        W 3602  35.452   9.832   0.826
35198W        W 3603  21.307  39.886   1.293
35199W        W 3604  24.159  13.087   1.444
35200W        W 3605  34.059  34.165  14.558
35201W        W 3606  31.106  13.482   0.276
35202W        W 3607  12.376  30.748  14.799
35203W        W 3608  36.559  16.542  12.489
35204W        W 3609  34.570  24.569   2.787
35205W        W 3610  28.083  38.870  10.534
35206W        W 3611  24.521  30.390  11.698
35207W        W 3612  44.155  19.228   1.242
35208W        W 3613  12.370  18.568   4.063
35209W        W 3614  17.644  40.788  13.316
35210W        W 3615   9.103  10.987   0.345
35211W        W 3616  10.373  33.046   1.850
35212W        W 3617   9.298  29.553  12.656
35213W        W 3618  33.974  33.184  13.825
35214W        W 3619   4.404  25.766   3.726
35215W        W 3620  11.246  12.678   2.322
35216W        W 3621  17.019  37.435   1.501
35217W        W 3622   0.329  31.599  13.300
35218W        W 3623  20.217   7.276   5.451
35219W        W 3624  33.136  22.457  12.874
35220W        W 3625  21.549   1.686   4.101
35221W        W 3626  31.180  35.617  12.093
35222W        W 3627  27.644  11.348   1.553
35223W        W 3628  37.503  24.194  12.114
35224W        W 3629  30.683  43.240  11.930
35225W        W 3630  14.755  26.282  11.640
35226W        W 3631  43.225  41.460  13.960
35227W        W 3632  23.630   6.692   4.508
35228W        W 3633  23.986  13.953   0.420
35229W        W 3634   6.868  19.798   1.728
35230W        W 3635  18.752  24.987   3.059
35231W        W 3636  18.103  16.265  14.490
35232W        W 3637   0.895   2.318   3.561
35233W        W 3638  17.377   6.555   0.406
35234W        W 3639  37.258  30.574  10.695
35235W        W 3640  30.783   7.877  10.689
35236W        W 3641  34.345  37.877  14.077
35237W        W 3642  29.658  25.771  10.584
35238W        W 3643   1.663  32.303  13.820
35239W        W 3644  42.395  41.979   2.975
35240W        W 3645   4.413  30.852  11.252
35241W        W 3646   4.309  20.211  11.066
35242W        W 3647  25.861   0.183   1.642
35243W        W 3648  13.222  43.793  12.416
35244W        W 3649  42.324  19.821   0.030
35245W        W 3650   7.317  12.843   3.163
35246W        W 3651  44.244  19.552   0.148
35247W        W 3652  31.668  24.138   1.313
35248W        W 3653  23.725  31.118   3.622
35249W        W 3654  30.584   0.261   1.856
35250W        W 3655  32.636  33.880   0.291
35251W        W 3656   9.903   2.873   0.440
35252W        W 3657  38.375  15.832   4.566
35253W        W 3658  34.898  23.680   1.013
35254W        W 3659  26.363   6.732   2.850
35255W        W 3660  10.345  29.928   2.949
35256W        W 3661  25.774  16.137   3.343
35257W        W 3662  21.440  22.926  13.491
35258W        W 3663  20.134  11.921   4.088
35259W        W 3664   0.357  16.266  14.399
35260W        W 3665  10.217   4.208  14.782
35261W        W 3666  20.565  37.109  11.335
35262W        W 3667  41.523   1.457   3.228
35263W        W 3668   7.333  37.126   4.109
35264W        W 3669  42.210  22.542   4.122
35265W        W 3670  38.890  20.568   0.823
35266W        W 3671  26.387  15.703  13.335
35267W        W 3672  15.023  36.840   2.799
35268W        W 3673  25.501  17.235   3.746
35269W        W 3674  27.981  15.433  14.426
35270W        W 3675  33.153  37.469   3.257
35271W        W 3676  13.341  30.643   1.194
35272W        W 3677  36.926  24.319   3.372
35273W        W 3678  37.619  42.515   1.280
35274W        W 3679  13.887  38.168   0.825
35275W        W 3680  30.229   0.976   1.805
35276W        W 3681  44.236  11.479  12.029
35277W        W 3682  33.454  32.927   4.298
35278W        W 3683  25.041  20.014  12.965
35279W        W 3684  36.273  42.492   0.669
35280W        W 3685   9.586   0.953   3.591
35281W        W 3686  15.574  27.869  14.071
35282W        W 3687  37.798   4.456  11.154
35283W        W 3688   0.917   4.910   1.776
35284W        W 3689  11.888  29.637  11.403
35285W        W 3690  31.644  44.429   3.695
35286W        W 3691   6.540  41.273   4.229
35287W        W 3692  37.811   4.233  12.964
35288W        W 3693  11.764  38.055   2.203
35289W        W 3694   5.433  24.140   2.239
35290W        W 3695   0.715  41.316  12.527
35291W        W 3696  34.434  23.927  13.244
35292W        W 3697   0.327  27.899   1.752
35293W        W 3698  11.689  39.047  11.304
35294W        W 3699  24.614  42.998   4.854
35295W        W 3700   4.375  22.572   4.446
35296W        W 3701  22.723  23.710  10.697
35297W        W 3702   3.197  31.372  14.500
35298W        W 3703  17.648  44.869  11.199
35299W        W 3704  44.290  33.077   4.717
35300W        W 3705  12.052   2.932   0.948
35301W        W 3706  38.610  11.367   4.197
35302W        W 3707  35.625  23.000  13.989
35303W        W 3708  35.061  17.584  10.529
35304W        W 3709  37.334  31.962  13.554
35305W        W 3710  23.730  30.687  14.013
35306W        W 3711   0.379  38.382  10.626
35307W        W 3712  16.158  21.746   1.175
35308W        W 3713  16.178  29.969  10.954
35309W        W 3714  20.379   5.832   0.190
35310W        W 3715   1.760   5.740   2.818
35311W        W 3716  40.429  28.534   4.299
35312W        W 3717  37.335   5.921  12.300
35313W        W 3718   3.639  24.805  10.785
35314W        W 3719   9.894  14.732  13.546
35315W        W 3720  29.054  15.211  13.078
35316W        W 3721   1.445  29.870   3.073
35317W        W 3722  27.019  30.794   4.158
35318W        W 3723  33.857  31.239   0.714
35319W        W 3724  19.082  42.915  13.305
35320W        W 3725  24.819  34.910  12.441
35321W        W 3726  17.222  37.783  12.211
35322W        W 3727  15.191   2.452   3.135
35323W        W 3728   8.702  39.296  14.862
35324W        W 3729  42.272  16.720  11.489
35325W        W 3730  40.493  13.200   0.309
35326W        W 3731  19.659   1.943  10.870
35327W        W 3732  23.465  44.234  10.338
35328W        W 3733  10.835  41.788  13.752
35329W        W 3734  16.717  30.496   2.379
35330W        W 3735   1.880  44.984   3.712
35331W        W 3736   8.977  31.953   0.296
35332W        W 3737  16.890   5.509   5.446
35333W        W 3738  14.423  36.126  11.543
35334W        W 3739   8.187   9.005   0.861
35335W        W 3740  25.965   2.934   1.363
35336W        W 3741   0.307  43.810  14.864
35337W        W 3742  16.516   9.617  13.517
35338W        W 3743   7.849  15.534   9.834
35339W        W 3744  17.730   7.378   4.433
35340W        W 3745  39.401   7.004   4.579
35341W        W 3746   3.030  19.204   1.254
35342W        W 3747  32.904  17.527  13.325
35343W        W 3748  15.210  37.655  14.905
35344W        W 3749  38.797   3.190   4.086
35345W        W 3750   5.929  36.061   0.808
35346W        W 3751   4.253   8.484   4.605
35347W        W 3752  19.664  30.843  12.052
35348W        W 3753   7.092  24.563   0.374
35349W        W 3754  40.062  35.125  10.660
35350W        W 3755  27.433  30.978   4.411
35351W        W 3756  37.861   2.740  12.463
35352W        W 3757  26.917  35.813  11.045
35353W        W 3758   1.622  41.375   0.520
35354W        W 3759  24.338  15.880   2.191
35355W        W 3760  39.296   3.295   0.536
35356W        W 3761   4.939  44.527   1.851
35357W        W 3762  30.146   4.685   2.182
35358W        W 3763  23.497  24.109   2.726
35359W        W 3764   0.983  23.532   4.995
35360W        W 3765  10.537  31.319  10.533
35361W        W 3766  14.771  21.147   2.032
35362W        W 3767   7.941  28.233  10.652
35363W        W 3768  26.312  15.985  11.989
35364W        W 3769  22.137  43.995   3.646
35365W        W 3770  15.123   2.421  13.413
35366W        W 3771  25.082   1.016   2.331
35367W        W 3772  34.066  35.389   1.783
35368W        W 3773  30.553  23.181  14.457
35369W        W 3774  29.917  40.985  11.161
35370W        W 3775  24.460  15.786  13.401
35371W        W 3776  43.923  37.094  14.316
35372W        W 3777  31.615  16.729   5.805
35373W        W 3778  13.269   3.692  12.360
35374W        W 3779  34.538  28.363  13.572
35375W        W 3780  35.053  16.032   4.045
35376W        W 3781  13.314  29.292  13.400
35377W        W 3782  27.523  13.721   2.673
35378W        W 3783  39.970  19.507   2.594
35379W        W 3784  13.191   9.884   4.516
35380W        W 3785  26.114  23.710   2.258
35381W        W 3786   6.406  26.512  10.736
35382W        W 3787  44.641  36.453   3.810
35383W        W 3788   1.860  19.599  11.919
35384W        W 3789   3.266  30.212   3.008
35385W        W 3790  12.632   3.771   0.794
35386W        W 3791  37.928   0.489  13.328
35387W        W 3792   6.763  13.397  12.466
35388W        W 3793  40.850  13.757   2.865
35389W        W 3794  30.643  35.446   4.172
35390W        W 3795  10.547  37.374  11.618
35391W        W 3796  31.656   8.589  11.081
35392W        W 3797  16.862  43.302  14.100
35393W        W 3798  40.498  26.068  12.004
35394W        W 3799   9.849  41.925   1.430
35395W        W 3800  42.155  15.951   0.195
35396W        W 3801   9.110  23.077  14.746
35397W        W 3802   7.268  22.251  12.099
35398W        W 3803   5.704  37.411  12.069
35399W        W 3804  40.932  22.802  14.443
35400W        W 3805  20.094  32.787  13.313
35401W        W 3806  21.752  44.964   3.682
35402W        W 3807  42.346  11.434   0.404
35403W        W 3808   2.423   1.583  11.471
35404W        W 3809  32.260  38.342  11.055
35405W        W 3810  42.324  10.900   1.275
35406W        W 3811  37.268  30.840   0.669
35407W        W 3812  34.333  36.231  14.058
35408W        W 3813  42.586  23.994  10.955
35409W        W 3814  11.154   0.809  10.942
35410W        W 3815  20.743  28.013   4.611
35411W        W 3816  22.540  15.355   0.437
35412W        W 3817   3.892  18.129   0.303
35413W        W 3818  44.768  21.170   0.837
35414W        W 3819  29.333  27.080  14.545
35415W        W 3820  29.703  33.953  13.929
35416W        W 3821  26.607  39.997  12.363
35417W        W 3822  12.651  13.212  14.988
35418W        W 3823   3.480  14.743  10.971
35419W        W 3824  18.805  43.472   3.735
35420W        W 3825  33.427  36.630  13.987
35421W        W 3826  36.292  23.618   3.615
35422W        W 3827  21.116  33.045   0.897
35423W        W 3828  30.969  31.200  12.578
35424W        W 3829  20.292  13.394  14.484
35425W        W 3830  25.472  12.186   0.032
35426W        W 3831  18.355  23.964  11.236
35427W        W 3832  19.206  10.522  13.282
35428W        W 3833   0.251  15.742  14.383
35429W        W 3834  14.577  11.869  12.106
35430W        W 3835   9.638  27.806  14.534
35431W        W 3836  31.657  20.971  10.645
35432W        W 3837  42.934   9.061  12.086
35433W        W 3838  12.263   4.344   3.580
35434W        W 3839  20.790  40.939   1.291
35435W        W 3840  18.189  18.501   0.688
35436W        W 3841  27.755  25.522  11.248
35437W        W 3842  43.059  28.003  12.524
35438W        W 3843  33.492  21.117   5.137
35439W        W 3844  15.149  23.667   0.572
35440W        W 3845   9.287  15.820   4.122
35441W        W 3846  27.058  41.358   1.199
35442W        W 3847   1.468   2.771   1.326
35443W        W 3848  36.508  23.143   3.652
35444W        W 3849   0.893  12.350   3.292
35445W        W 3850  20.743  21.633   1.840
35446W        W 3851  31.325  10.764   0.268
35447W        W 3852   0.904  15.606  13.649
35448W        W 3853   6.493  22.775  12.549
35449W        W 3854  19.061  13.067   2.351
35450W        W 3855  10.277  39.500  14.287
35451W        W 3856  32.558  18.184   3.271
35452W        W 3857   4.755  12.975  14.715
35453W        W 3858  44.669  39.916   3.930
35454W        W 3859  14.131  10.631  10.788
35455W        W 3860  10.191  12.244  10.772
35456W        W 3861  31.229  23.800  12.028
35457W        W 3862  38.165  24.584   0.285
35458W        W 3863  22.492  35.522   0.852
35459W        W 3864  10.957  37.353   4.116
35460W        W 3865  12.906  18.681  12.984
35461W        W 3866  25.062  32.033   4.608
35462W        W 3867  20.630   8.731  10.713
35463W        W 3868  23.535  18.600  10.972
35464W        W 3869  44.290  33.369   2.672
35465W        W 3870  15.714  36.465   4.061
35466W        W 3871  23.550  24.011   3.743
35467W        W 3872   7.908   3.356  13.339
35468W        W 3873  20.221  31.565   0.417
35469W        W 3874   7.236  35.789  11.192
35470W        W 3875  44.352  22.532  11.767
35471W        W 3876  36.581  38.057  14.895
35472W        W 3877  31.852  19.985  14.823
35473W        W 3878   5.927   0.987   0.313
35474W        W 3879  24.683  23.035  10.741
35475W        W 3880  19.811  44.302  12.126
35476W        W 3881  18.271   0.811   3.371
35477W        W 3882   9.321  25.966   3.753
35478W        W 3883  28.187  34.215   1.431
35479W        W 3884  42.054  23.042  10.313
35480W        W 3885  17.247   8.931   3.562
35481W        W 3886  42.054  38.303   4.592
35482W        W 3887  15.611  41.593  12.951
35483W        W 3888  37.490   1.315   0.863
35484W        W 3889   1.746  24.806  14.633
35485W        W 3890  23.777  32.908  10.905
35486W        W 3891  23.283   6.432   0.833
35487W        W 3892   6.957  42.787   0.814
35488W        W 3893  20.807  23.184  14.525
35489W        W 3894  11.709  29.613  14.770
35490W        W 3895  20.520   2.323   1.231
35491W        W 3896  31.103  16.937  11.907
35492W        W 3897  13.179  18.689   4.490
35493W        W 3898  29.273   8.050   0.397
35494W        W 3899   4.935  34.455   1.401
35495W        W 3900  44.406  23.412  14.310
35496W        W 3901  20.310  29.656   0.715
35497W        W 3902  34.177  20.007   3.857
35498W        W 3903  33.497   3.792   0.683
35499W        W 3904   7.502  25.606  12.931
35500W        W 3905   3.902  33.547  12.853
35501W        W 3906  37.621  38.324   1.451
35502W        W 3907  28.005  20.094  12.857
35503W        W 3908  40.487  32.971  12.490
35504W        W 3909   4.807  35.316  11.414
35505W        W 3910  20.308  26.209   2.128
35506W        W 3911  39.448   5.983   4.594
35507W        W 3912  44.442   5.227  10.668
35508W        W 3913  26.178  43.927  12.460
35509W        W 3914  38.085  21.495  11.586
35510W        W 3915  34.134  19.560  11.595
35511W        W 3916  20.040  32.351  13.057
35512W        W 3917  10.885  42.927  12.049
35513W        W 3918   9.304  12.890  11.197
35514W        W 3919  12.842  34.063   1.439
35515W        W 3920  25.499  27.644   1.523
35516W        W 3921  16.793   0.289   4.649
35517W        W 3922  41.943   9.609  13.411
35518W        W 3923   8.490  10.696  12.189
35519W        W 3924  39.828  21.893   4.140
35520W        W 3925   9.176  26.898   4.980
35521W        W 3926  38.923  39.944   4.476
35522W        W 3927  12.959  18.194   1.332
35523W        W 3928  36.105  24.687   1.019
35524W        W 3929   8.378  11.823  10.781
35525W        W 3930  31.186  32.199  11.943
35526W        W 3931  34.055  34.509  11.908
35527W        W 3932  30.627  19.335   2.375
35528W        W 3933  14.679   3.830   0.483
35529W        W 3934  10.175  38.624  12.307
35530W        W 3935   1.387  35.997   4.041
35531W        W 3936  16.198  36.652  13.068
35532W        W 3937  24.954  44.212  11.615
35533W        W 3938  21.454  31.966   3.741
35534W        W 3939  29.444  27.804  14.892
35535W        W 3940  23.217  18.767  13.471
35536W        W 3941   2.733  25.763   1.036
35537W        W 3942  24.986  32.157  11.530
35538W        W 3943   3.780   9.410   3.124
35539W        W 3944  28.631  20.211  14.308
35540W        W 3945   0.400   8.744   0.064
35541W        W 3946  19.722  37.354   1.403
35542W        W 3947   6.724  38.069  11.647
35543W        W 3948  18.150  42.707  13.341
35544W        W 3949  44.271  32.615   0.697
35545W        W 3950  20.471  28.181   1.390
35546W        W 3951  12.923  36.990   3.333
35547W        W 3952  11.123   7.194   0.142
35548W        W 3953  33.153  33.956   0.063
35549W        W 3954  23.560  19.645  10.843
35550W        W 3955  17.253  42.727  13.361
35551W        W 3956  41.827  27.500  14.493
35552W        W 3957   7.458  21.968  12.510
35553W        W 3958  16.952  19.217   3.724
35554W        W 3959   6.339  44.878  13.876
35555W        W 3960  40.439   7.639   2.660
35556W        W 3961  32.921   8.314   2.642
35557W        W 3962  10.226   1.185  13.611
35558W        W 3963  44.400  40.808  12.098
35559W        W 3964  37.402  28.787   0.710
35560W        W 3965  39.284  44.901   1.330
35561W        W 3966  20.103  28.949   2.663
35562W        W 3967  29.019   3.888   3.391
35563W        W 3968  21.319  26.926  13.329
35564W        W 3969  35.551  30.833  11.150
35565W        W 3970  28.016  16.833  14.546
35566W        W 3971  33.876  36.455   2.918
35567W        W 3972   0.991  19.753   0.742
35568W        W 3973  22.517  23.599   0.958
35569W        W 3974  11.664  38.002   1.374
35570W        W 3975  19.216  13.271  10.658
35571W        W 3976   5.504  42.335  12.417
35572W        W 3977  15.143  18.331  14.862
35573W        W 3978  40.576  15.733   3.811
35574W        W 3979  22.780  25.155   2.338
35575W        W 3980   5.607  25.143   2.285
35576W        W 3981   8.896  30.759   3.580
35577W        W 3982   1.237  28.069   4.098
35578W        W 3983  15.620   0.317   2.779
35579W        W 3984  41.139  24.681   2.212
35580W        W 3985  33.678  37.128  11.146
35581W        W 3986  38.379  29.618  13.366
35582W        W 3987  16.667  25.594   3.522
35583W        W 3988  36.405  33.835   0.493
35584W        W 3989  44.058   6.684   3.705
35585W        W 3990   8.904  19.319  11.998
35586W        W 3991   4.373   1.344   2.724
35587W        W 3992  29.428  14.872  13.787
35588W        W 3993   9.838  43.720  12.904
35589W        W 3994  23.887  36.975   1.742
35590W        W 3995  30.068  40.775   1.868
35591W        W 3996  38.343  42.397   0.481
35592W        W 3997  27.054  15.049  14.292
35593W        W 3998   1.697  18.673   3.817
35594W        W 3999   9.443  40.811   2.353
35595W        W 4000  38.602  18.396  14.713
35596W        W 4001  12.758  41.835   4.622
35597W        W 4002  44.791  25.211   4.592
35598W        W 4003  25.026  28.411   1.918
35599W        W 4004  13.276  13.718   2.718
35600W        W 4005  38.410  28.957   0.709
35601W        W 4006  20.596  24.165   1.300
35602W        W 4007  28.935  14.119  14.840
35603W        W 4008  44.365   1.761   4.002
35604W        W 4009   8.956  31.438  11.042
35605W        W 4010  19.823   7.259   1.374
35606W        W 4011  30.209  28.135  12.926
35607W        W 4012  16.207   0.874   1.321
35608W        W 4013  33.536  25.986  12.036
35609W        W 4014  29.312   6.835  14.528
35610W        W 4015  34.682  26.496  12.985
35611W        W 4016  16.585  11.096  13.470
35612W        W 4017  13.356  26.762   4.255
35613W        W 4018   7.159  38.073   1.813
35614W        W 4019  16.018  21.300   4.885
35615W        W 4020  19.961  15.934   1.603
35616W        W 4021   9.881  30.172  14.759
35617W        W 4022   6.441  17.858   2.506
35618W        W 4023  20.435   3.194   0.081
35619W        W 4024   4.662  12.937  14.175
35620W        W 4025  19.102  10.273  12.820
35621W        W 4026  27.674  41.775   1.264
35622W        W 4027  21.784  21.531   4.284
35623W        W 4028  40.321  20.601  14.390
35624W        W 4029  36.070  30.437   3.625
35625W        W 4030  34.612   1.454  11.915
35626W        W 4031   5.272  20.630   0.920
35627W        W 4032  18.680  29.090  14.315
35628W        W 4033  19.576  11.815  10.821
35629W        W 4034  38.144  25.932  14.751
35630W        W 4035  20.841  12.649  14.397
35631W        W 4036  12.595  41.649   4.129
35632W        W 4037  33.365  22.061  10.472
35633W        W 4038   9.242  35.389   0.484
35634W        W 4039  12.652  41.862   1.896
35635W        W 4040   8.127   0.861   3.457
35636W        W 4041  30.995  11.061  14.907
35637W        W 4042  32.594  40.815   4.237
35638W        W 4043  44.027   6.892  11.229
35639W        W 4044  17.557   2.848   4.530
35640W        W 4045   6.204  27.688  14.371
35641W        W 4046  12.840  19.164   1.725
35642W        W 4047  31.795  22.452   4.210
35643W        W 4048  24.211   3.938   1.500
35644W        W 4049  39.484  33.216   4.141
35645W        W 4050  27.425   4.060   0.722
35646W        W 4051  28.619  37.304   4.666
35647W        W 4052  10.515   5.956   0.767
35648W        W 4053  33.119  15.775   0.505
35649W        W 4054  17.039  23.047   0.766
35650W        W 4055  31.930  11.933  14.791
35651W        W 4056  23.118  25.885  13.382
35652W        W 4057   8.712  27.992  13.996
35653W        W 4058  35.318  19.619  14.162
35654W        W 4059  37.686  17.368  12.002
35655W        W 4060   6.790   4.999   3.882
35656W        W 4061  38.822  43.813  14.008
35657W        W 4062  12.818  38.884  12.610
35658W        W 4063  19.160  10.662   2.102
35659W        W 4064  20.249  33.148  10.856
35660W        W 4065   2.362   9.285  14.746
35661W        W 4066   6.881   2.778   4.628
35662W        W 4067  12.089  39.129  11.615
35663W        W 4068   4.971  37.071  12.340
35664W        W 4069  28.343  25.597  13.846
35665W        W 4070  36.385  37.181   3.187
35666W        W 4071  20.675  44.868  10.560
35667W        W 4072  15.596  29.293   2.172
35668W        W 4073  33.488  19.815   5.153
35669W        W 4074  27.313  41.545   1.904
35670W        W 4075  25.106  42.687   1.214
35671W        W 4076  19.144  30.629  12.524
35672W        W 4077  31.873  39.828  12.045
35673W        W 4078   0.435  32.491  13.210
35674W        W 4079  27.186  16.573  13.069
35675W        W 4080  10.797   3.870   3.708
35676W        W 4081  34.587  33.864  11.885
35677W        W 4082   6.744  16.345  13.114
35678W        W 4083   8.372   1.820  13.959
35679W        W 4084  15.825   3.213  11.069
35680W        W 4085  27.499   6.854   2.403
35681W        W 4086  30.428  34.195   1.697
35682W        W 4087  26.675  34.568   3.172
35683W        W 4088   2.749   0.651   1.903
35684W        W 4089   8.619  36.790  13.473
35685W        W 4090  21.629  39.748   0.389
35686W        W 4091  32.548  16.849  12.392
35687W        W 4092  20.434  14.572  11.039
35688W        W 4093  26.639   9.705   1.894
35689W        W 4094   9.931   3.826  13.106
35690W        W 4095   6.620  16.130  10.313
35691W        W 4096  39.236  38.387   3.114
35692W        W 4097   5.506  25.950  11.588
35693W        W 4098  42.207  27.064  13.041
35694W        W 4099  38.939  34.376  13.107
35695W        W 4100  24.741  35.163  10.577
35696W        W 4101   7.874  20.087   4.291
35697W        W 4102  30.547  29.998  13.874
35698W        W 4103   1.272  11.948   1.247
35699W        W 4104  33.676   0.994   0.758
35700W        W 4105  40.293  27.246   3.069
35701W        W 4106  33.943  25.917   0.796
35702W        W 4107   9.472  23.443   0.937
35703W        W 4108  43.728  26.193   2.172
35704W        W 4109  20.370  20.752   0.931
35705W        W 4110  24.691   6.136  11.196
35706W        W 4111  44.309   8.285   4.165
35707W        W 4112  22.251  22.938  10.127
35708W        W 4113   0.420  29.141   3.534
35709W        W 4114  12.173  12.563   2.740
35710W        W 4115  31.645  43.143   3.235
35711W        W 4116  12.827   0.179   2.372
35712W        W 4117  28.218  42.487   1.588
35713W        W 4118  19.337  31.725   3.560
35714W        W 4119  29.559  11.571  11.460
35715W        W 4120  17.386  23.642   2.374
35716W        W 4121  22.809  13.625  11.537
35717W        W 4122  34.136  11.800   2.270
35718W        W 4123  42.381  32.471   0.993
35719W        W 4124  32.669  44.789  10.495
35720W        W 4125   0.849  24.701   2.301
35721W        W 4126  16.704  15.616  14.795
35722W        W 4127  14.682  30.503  12.075
35723W        W 4128  13.172  40.054  14.464
35724W        W 4129   0.563   9.245   2.764
35725W        W 4130  41.321   5.711  14.887
35726W        W 4131   3.171  30.079   4.386
35727W        W 4132  41.888  37.648  14.477
35728W        W 4133  25.231  35.804   4.885
35729W        W 4134   4.844  26.345   0.277
35730W        W 4135  24.310  14.894   0.749
35731W        W 4136  31.743  39.191  12.905
35732W        W 4137  11.653  35.588  12.701
35733W        W 4138   0.019   4.172   4.170
35734W        W 4139  43.619  30.588   3.357
35735W        W 4140  25.540  34.345   3.038
35736W        W 4141  27.462  42.764  14.839
35737W        W 4142   7.677  22.703   2.088
35738W        W 4143  24.862  23.618   1.870
35739W        W 4144  35.856  39.142  12.070
35740W        W 4145  11.439  15.173  11.054
35741W        W 4146  38.099  11.101  14.055
35742W        W 4147  29.454  13.513  11.498
35743W        W 4148  28.632  17.348   4.540
35744W        W 4149  41.772  28.193   0.682
35745W        W 4150  10.777  28.104   0.894
35746W        W 4151   6.763  17.224  10.935
35747W        W 4152   3.831  12.252  14.016
35748W        W 4153  13.917   7.746  11.998
35749W        W 4154   0.664  33.178   1.834
35750W        W 4155  12.110   4.994   0.828
35751W        W 4156  35.535  27.566  13.348
35752W        W 4157  17.064   6.156   1.268
35753W        W 4158   9.048  35.173  13.808
35754W        W 4159   4.824  28.538  13.919
35755W        W 4160  40.305  17.833  11.603
35756W        W 4161   0.442  16.751   2.740
35757W        W 4162   0.947  23.996  11.497
35758W        W 4163  14.248  12.305  14.901
35759W        W 4164   7.773  10.872   3.675
35760W        W 4165  17.834  23.375  13.323
35761W        W 4166   7.388   9.847  13.203
35762W        W 4167  36.431  28.940  12.137
35763W        W 4168   2.402  34.643  12.636
35764W        W 4169   1.017  40.744  11.672
35765W        W 4170  23.080  16.670  11.686
35766W        W 4171  14.590   1.508   1.334
35767W        W 4172  22.090  39.528   4.363
35768W        W 4173   9.282  30.868  14.754
35769W        W 4174  13.212   0.429   2.144
35770W        W 4175  27.666  14.851   0.781
35771W        W 4176  42.522  31.657  13.014
35772W        W 4177  15.189  21.080  10.574
35773W        W 4178  32.749  15.383  13.364
35774W        W 4179  42.173  27.690   2.203
35775W        W 4180  27.021   5.309  13.330
35776W        W 4181  24.318  21.168  13.224
35777W        W 4182  32.315  28.083  11.648
35778W        W 4183  26.628  12.766   2.629
35779W        W 4184  22.641  43.813   0.804
35780W        W 4185  30.945  21.243   2.676
35781W        W 4186   7.586   4.255  13.074
35782W        W 4187  22.255  14.548   2.846
35783W        W 4188  43.944   2.183   2.345
35784W        W 4189  37.029  44.472   2.076
35785W        W 4190   2.923  22.536  10.760
35786W        W 4191  42.541  23.266  14.118
35787W        W 4192  41.828   4.459  13.067
35788W        W 4193  43.499   1.678  12.587
35789W        W 4194  27.577  39.893  14.022
35790W        W 4195  18.186  40.529  12.914
35791W        W 4196  14.772  10.631  13.920
35792W        W 4197  27.029  28.699   4.513
35793W        W 4198  39.519  23.164  13.080
35794W        W 4199  26.630  22.122  11.176
35795W        W 4200  26.204  10.807  13.016
35796W        W 4201  27.263   7.411   0.713
35797W        W 4202  19.232   7.785  13.879
35798W        W 4203  44.518  43.403   0.576
35799W        W 4204  14.131  15.202   0.189
35800W        W 4205   3.884  19.115   0.466
35801W        W 4206  28.710  32.038   2.220
35802W        W 4207  15.165  24.511  10.578
35803W        W 4208  18.243  10.342  12.119
35804W        W 4209  31.721  19.747   1.420
35805W        W 4210  15.134   4.549   2.453
35806W        W 4211  42.787   5.672   1.706
35807W        W 4212  19.508  37.950   4.549
35808W        W 4213  11.261  16.050  11.011
35809W        W 4214  43.797  43.540  12.958
35810W        W 4215  14.128  29.134   3.361
35811W        W 4216  30.746  30.954  11.172
35812W        W 4217   4.931  10.146  14.219
35813W        W 4218  35.179  23.253  14.038
35814W        W 4219  21.043  29.072   1.838
35815W        W 4220   5.681  12.618  12.674
35816W        W 4221  41.462   6.331  12.636
35817W        W 4222  29.549   1.870   0.207
35818W        W 4223   0.959  22.471   4.140
35819W        W 4224  37.036  10.336  13.788
35820W        W 4225  41.361   9.874  11.630
35821W        W 4226   3.462   1.397  14.470
35822W        W 4227  44.187   1.427   1.733
35823W        W 4228  43.247  23.282  11.673
35824W        W 4229  31.346   9.284   3.702
35825W        W 4230  13.528  13.192  11.142
35826W        W 4231  37.586  26.423   2.305
35827W        W 4232  12.237  26.987  13.260
35828W        W 4233   4.975  13.910  12.098
35829W        W 4234  25.005  13.494   1.161
35830W        W 4235  37.861  26.658   0.243
35831W        W 4236  17.075  20.932  14.777
35832W        W 4237  29.605  42.499  11.590
35833W        W 4238  17.991  15.083   0.194
35834W        W 4239  41.323  32.521  13.846
35835W        W 4240  20.162   4.375  13.441
35836W        W 4241  17.289  21.160  14.343
35837W        W 4242   5.789  28.766   3.772
35838W        W 4243  23.215  16.188  11.933
35839W        W 4244  23.525  36.534   1.787
35840W        W 4245  32.934  37.683  12.503
35841W        W 4246  32.994  25.740  14.218
35842W        W 4247  34.479  26.724  13.397
35843W        W 4248   8.343  40.124   4.441
35844W        W 4249  35.988   6.888   3.652
35845W        W 4250   6.230   9.797   1.826
35846W        W 4251  34.816   4.997  13.003
35847W        W 4252  41.053  41.779   3.798
35848W        W 4253  17.450  10.325  13.938
35849W        W 4254   5.874   4.143   3.930
35850W        W 4255   0.997  27.667  11.860
35851W        W 4256  35.901  36.139   1.874
35852W        W 4257  38.819  30.048   3.329
35853W        W 4258   9.849  35.144   0.427
35854W        W 4259  20.134  23.546  13.796
35855W        W 4260  11.853  27.476  14.448
35856W        W 4261  18.251  43.547  12.984
35857W        W 4262  18.151   8.600   1.810
35858W        W 4263  18.921  42.537  10.633
35859W        W 4264   8.223   9.644  11.366
35860W        W 4265   2.268   2.202   3.179
35861W        W 4266   0.328  32.645  11.188
35862W        W 4267   0.354  44.217   2.677
35863W        W 4268  33.847   2.235   2.834
35864W        W 4269   8.610  26.082  13.316
35865W        W 4270  38.403  33.522  14.257
35866W        W 4271  11.169  24.264   2.635
35867W        W 4272  22.979  28.842   1.239
35868W        W 4273  44.380  39.226   0.294
35869W        W 4274  17.264  19.879   1.308
35870W        W 4275  23.848   0.681   0.340
35871W        W 4276  26.094  16.340   0.347
35872W        W 4277  21.276   1.289  12.309
35873W        W 4278  13.991  28.188   3.694
35874W        W 4279   1.330  38.502  14.093
35875W        W 4280  38.879   6.372  10.719
35876W        W 4281  34.926  15.069  10.910
35877W        W 4282  24.543  25.448   3.647
35878W        W 4283  19.297  27.434   3.007
35879W        W 4284  24.611  23.890   0.960
35880W        W 4285   2.985  32.955  14.511
35881W        W 4286  34.646  20.239  12.132
35882W        W 4287   8.884  44.702   0.352
35883W        W 4288  13.849  16.559   2.611
35884W        W 4289   5.786  23.997  14.579
35885W        W 4290  26.435  11.289  12.947
35886W        W 4291  22.926   4.851   4.522
35887W        W 4292  15.006   9.802   3.919
35888W        W 4293   3.354  15.661   3.850
35889W        W 4294  10.101  13.494  11.473
35890W        W 4295  35.354  23.233   3.794
35891W        W 4296   6.264   1.281  10.619
35892W        W 4297  33.575  19.749  14.597
35893W        W 4298  41.401  26.542   1.703
35894W        W 4299  40.862  36.422   2.409
35895W        W 4300   4.683  39.068   5.039
35896W        W 4301   9.396   5.396  14.510
35897W        W 4302   3.203  41.834   2.447
35898W        W 4303  14.225  18.086  13.095
35899W        W 4304  23.223  41.413  10.449
35900W        W 4305  14.086  14.722   1.723
35901W        W 4306  35.518  15.144   0.407
35902W        W 4307  20.193   4.186   2.414
35903W        W 4308  32.559  26.682   0.826
35904W        W 4309  36.371  30.384  10.729
35905W        W 4310   7.680  40.347   2.229
35906W        W 4311  24.118  32.052   1.324
35907W        W 4312  42.915   2.130  12.420
35908W        W 4313  30.344  20.050  12.034
35909W        W 4314  37.208  37.507   0.855
35910W        W 4315  23.220  31.095   2.494
35911W        W 4316  32.996   3.111  12.542
35912W        W 4317  15.311  26.518   2.235
35913W        W 4318  27.014  18.596  14.806
35914W        W 4319   8.360  32.170   2.851
35915W        W 4320   0.343  35.034  12.915
35916W        W 4321  14.346  10.594   3.802
35917W        W 4322  22.961  31.174  11.159
35918W        W 4323  32.335  40.493  14.976
35919W        W 4324  13.212   5.234  14.880
35920W        W 4325  43.528   2.998   0.706
35921W        W 4326  24.002   4.278   2.746
35922W        W 4327   5.280  29.897  14.032
35923W        W 4328  41.526  34.020   4.535
35924W        W 4329  16.264  21.257   4.440
35925W        W 4330  21.576  41.278   4.599
35926W        W 4331  11.805  27.567  10.736
35927W        W 4332  33.367  32.899   1.421
35928W        W 4333   0.699  40.081   2.643
35929W        W 4334  15.291  14.193  13.509
35930W        W 4335  13.338  39.764  10.721
35931W        W 4336  36.614  23.051   2.842
35932W        W 4337   4.248  20.421  13.979
35933W        W 4338  25.539  36.510  14.831
35934W        W 4339  44.468  29.343   5.004
35935W        W 4340  12.181  39.035   3.895
35936W        W 4341  31.716   6.443   3.763
35937W        W 4342  32.893   8.607   3.340
35938W        W 4343  22.693  16.036   2.276
35939W        W 4344  27.746  36.063  12.892
35940W        W 4345   2.457  21.077  13.975
35941W        W 4346   7.373  43.916   1.438
35942W        W 4347  38.936  27.286   2.800
35943W        W 4348   6.749  10.480   2.364
35944W        W 4349  44.608  41.004  14.925
35945W        W 4350   1.293  13.243  10.667
35946W        W 4351  19.570   0.997   0.343
35947W        W 4352   4.221  31.669   1.810
35948W        W 4353  29.631   6.830  12.758
35949W        W 4354  24.208  13.081  10.777
35950W        W 4355  22.755  14.030  11.240
35951W        W 4356  44.899  35.440  12.872
35952W        W 4357  30.389  31.522  14.343
35953W        W 4358  15.132  40.975  10.998
35954W        W 4359  11.981   3.419   1.659
35955W        W 4360  14.101  14.912   4.768
35956W        W 4361  21.519  42.908   0.683
35957W        W 4362   1.391  17.719   4.394
35958W        W 4363  13.926   0.442   0.928
35959W        W 4364  13.655  15.874  14.830
35960W        W 4365   5.221  35.802   0.422
35961W        W 4366  16.141   0.906   0.775
35962W        W 4367  22.863  36.537  10.264
35963W        W 4368  13.746  14.136  13.589
35964W        W 4369  28.306  15.546  10.279
35965W        W 4370  17.414  40.584  14.007
35966W        W 4371  27.627  21.250   4.574
35967W        W 4372   3.833  12.874  14.634
35968W        W 4373   9.185  26.146  11.498
35969W        W 4374   6.725  35.352  14.841
35970W        W 4375   7.804  42.919  13.083
35971W        W 4376   1.571  42.544   4.586
35972W        W 4377  30.958  19.925  11.051
35973W        W 4378  14.367  10.519  12.346
35974W        W 4379   1.328  18.460  11.553
35975W        W 4380  26.961  39.507  11.002
35976W        W 4381  31.397  34.882  12.777
35977W        W 4382  31.982  31.613   4.995
35978W        W 4383  26.910  20.164  14.705
35979W        W 4384  16.868   6.684  10.152
35980W        W 4385  16.622   5.318   0.309
35981W        W 4386  28.653   3.751  12.565
35982W        W 4387  14.426  35.547  12.949
35983W        W 4388  38.295  28.102   2.430
35984W        W 4389  23.241   8.736  14.029
35985W        W 4390   4.885  30.623   1.510
35986W        W 4391  26.010   3.721  10.890
35987W        W 4392  19.558  31.870  12.334
35988W        W 4393  17.109   2.831   2.624
35989W        W 4394  26.509  16.590  10.226
35990W        W 4395   1.966   0.460   0.017
35991W        W 4396   9.937  37.688  11.133
35992W        W 4397  10.129   3.991  12.288
35993W        W 4398  14.481   4.769   0.735
35994W        W 4399  43.281  24.597   1.221
35995W        W 4400  10.689  22.575  13.534
35996W        W 4401  39.269  29.639   0.329
35997W        W 4402  34.823  13.296  12.927
35998W        W 4403  28.584  42.485  14.266
35999W        W 4404  20.155  38.754  13.982
36000W        W 4405  37.385   4.205   0.821
36001W        W 4406  32.765  30.095   4.426
36002W        W 4407  12.232  38.068   3.709
36003W        W 4408  38.144   9.209   0.831
36004W        W 4409   7.934  26.894  12.813
36005W        W 4410   8.759  10.620   3.696
36006W        W 4411   7.220   3.153   4.158
36007W        W 4412  33.333  28.229  14.343
36008W        W 4413   6.239  24.072   3.365
36009W        W 4414  22.491  25.058   2.766
36010W        W 4415  34.920  13.787  14.439
36011W        W 4416  16.802  12.519  11.983
36012W        W 4417  17.178  33.945   4.038
36013W        W 4418   2.839  17.251  10.837
36014W        W 4419  42.913  41.812   2.254
36015W        W 4420   7.964  24.487  14.165
36016W        W 4421  25.019   2.850   2.185
36017W        W 4422  42.752   6.741  12.872
36018W        W 4423   9.148   7.852   4.831
36019W        W 4424   8.892  37.624  10.019
36020W        W 4425  41.316  13.705   1.362
36021W        W 4426  16.077  11.149  12.478
36022W        W 4427   6.338  22.494  14.669
36023W        W 4428   8.596  36.617   1.302
36024W        W 4429  40.792  16.162   0.251
36025W        W 4430  30.960  35.994  12.994
36026W        W 4431  16.908  19.090  13.898
36027W        W 4432  28.094  20.535   3.637
36028W        W 4433  29.682  15.102  10.736
36029W        W 4434   3.707  35.529  13.423
36030W        W 4435  36.791  20.553  11.560
36031W        W 4436  26.480  15.790  11.533
36032W        W 4437  41.481  18.828  11.960
36033W        W 4438  41.847  21.750  10.463
36034W        W 4439  29.600  29.472   0.849
36035W        W 4440  26.949  35.371  13.108
36036W        W 4441  15.157  35.843  12.650
36037W        W 4442  15.540  25.292   4.630
36038W        W 4443  23.406  36.002   1.780
36039W        W 4444  13.788   6.251  13.588
36040W        W 4445  21.513  17.818   0.411
36041W        W 4446  16.254   1.854  11.714
36042W        W 4447  29.170   1.212  12.939
36043W        W 4448  29.819  37.502  13.931
36044W        W 4449  17.764   3.207   0.897
36045W        W 4450  44.145  40.280  10.789
36046W        W 4451  19.734   8.475   1.951
36047W        W 4452  20.237   2.712  14.001
36048W        W 4453   4.798  31.767   0.039
36049W        W 4454  44.272  25.020  13.365
36050W        W 4455  31.204  32.555   2.162
36051W        W 4456  19.142   3.916   0.504
36052W        W 4457   0.920   4.166  11.177
36053W        W 4458  30.581  13.841  12.095
36054W        W 4459   3.480  26.406   1.339
36055W        W 4460  40.401  24.100   0.425
36056W        W 4461  22.944   8.899  10.530
36057W        W 4462  32.522  21.500  12.377
36058W        W 4463  36.522  38.913   1.784
36059W        W 4464  19.397  23.521   2.391
36060W        W 4465  35.591  38.674   4.071
36061W        W 4466  31.306   1.626  11.105
36062W        W 4467  33.384  35.882   4.784
36063W        W 4468  42.497  31.494  11.120
36064W        W 4469  44.749  33.395   3.328
36065W        W 4470  27.589   0.552  11.892
36066W        W 4471   8.210  28.088  12.202
36067W        W 4472   2.975   1.233  14.415
36068W        W 4473  35.661  13.532   2.768
36069W        W 4474   9.872   5.855   1.270
36070W        W 4475  19.202   6.614  11.147
36071W        W 4476   7.026  36.344   4.155
36072W        W 4477  43.925  33.012   3.200
36073W        W 4478  12.342  36.847   4.173
36074W        W 4479   5.394  40.574   2.789
36075W        W 4480  19.098  43.057   3.696
36076W        W 4481  41.754  36.376  11.179
36077W        W 4482  18.759  14.095  12.428
36078W        W 4483   7.483   3.371  13.929
36079W        W 4484  18.868   2.799   3.778
36080W        W 4485   1.804  24.609  13.979
36081W        W 4486  41.876   1.276   4.667
36082W        W 4487  42.267  13.648   1.208
36083W        W 4488  26.652  21.801   3.743
36084W        W 4489  14.393  13.865   1.202
36085W        W 4490  41.383   7.148  13.836
36086W        W 4491  44.975   2.254   3.561
36087W        W 4492   2.123  32.127   1.910
36088W        W 4493  33.606  40.802  14.121
36089W        W 4494  36.421  10.890  10.746
36090W        W 4495  34.042  34.958  13.066
36091W        W 4496   5.376  26.929   2.134
36092W        W 4497  17.180  42.019   3.285
36093W        W 4498  37.337   8.715   4.363
36094W        W 4499  17.039  39.788   1.685
36095W        W 4500  24.696  41.861  13.533
36096W        W 4501  11.148  13.058   4.072
36097W        W 4502  16.364  35.642  12.917
36098W        W 4503   4.375  12.909   2.079
36099W        W 4504  29.174  37.734  14.469
36100W        W 4505  10.644  21.192  11.488
36101W        W 4506  16.282  11.435   2.967
36102W        W 4507   9.861  12.306  14.307
36103W        W 4508  32.243  19.807  14.547
36104W        W 4509  43.261  40.814  10.575
36105W        W 4510   5.958  41.205  10.577
36106W        W 4511  37.307  36.545  13.991
36107W        W 4512  17.565   6.239  13.052
36108W        W 4513  28.549  10.606   0.954
36109W        W 4514   5.384  28.506  11.670
36110W        W 4515  24.290  15.955   4.538
36111W        W 4516  22.354  20.067   4.210
36112W        W 4517   8.113  11.661   3.481
36113W        W 4518  35.157   6.503   1.456
36114W        W 4519  25.958  35.369   4.879
36115W        W 4520  42.486  33.122   3.624
36116W        W 4521  20.111  44.777  14.977
36117W        W 4522   3.434  16.234   3.149
36118W        W 4523   4.213   0.293   0.426
36119W        W 4524  28.651   6.478  11.037
36120W        W 4525  31.504  36.912   3.185
36121W        W 4526   0.308   7.911   4.551
36122W        W 4527   7.622  42.889   4.039
36123W        W 4528  16.077  19.047   4.139
36124W        W 4529  15.498   8.031   4.467
36125W        W 4530  21.553  38.392  12.576
36126W        W 4531  33.318  17.431   1.843
36127W        W 4532  15.257  41.351  13.724
36128W        W 4533  36.304  43.408  12.916
36129W        W 4534  43.171  40.831   1.175
36130W        W 4535  40.032  34.850   1.872
36131W        W 4536   7.371  41.433  14.748
36132W        W 4537  40.485   8.227   4.201
36133W        W 4538  26.174  10.379  11.473
36134W        W 4539  38.145  38.381  13.515
36135W        W 4540  35.116   5.746   4.165
36136W        W 4541   3.297  26.923  11.950
36137W        W 4542  20.063  11.884   3.192
36138W        W 4543  36.988  42.171  10.209
36139W        W 4544   2.617  42.488  14.339
36140W        W 4545  22.917  38.583   4.174
36141W        W 4546  21.019  28.384  10.518
36142W        W 4547  43.471  43.921  13.133
36143W        W 4548  20.252  10.513   1.796
36144W        W 4549   8.213  35.545  13.950
36145W        W 4550  12.652  36.259  11.579
36146W        W 4551  43.722  13.366  13.511
36147W        W 4552  17.628  26.499   1.262
36148W        W 4553  26.525  25.510  10.671
36149W        W 4554  37.349   0.178  12.767
36150W        W 4555  10.163   9.314  13.034
36151W        W 4556   7.228  40.872   1.785
36152W        W 4557  42.886   5.906   0.809
36153W        W 4558  42.229   6.735   4.114
36154W        W 4559  37.808  27.967   2.324
36155W        W 4560  32.007  39.836  14.365
36156W        W 4561  23.272  32.588   1.358
36157W        W 4562   8.988  24.113   1.248
36158W        W 4563  15.025  43.261   3.242
36159W        W 4564  35.424  41.998  12.085
36160W        W 4565  44.416  16.388   4.653
36161W        W 4566  12.332  13.845  12.419
36162W        W 4567  25.753  38.900   4.792
36163W        W 4568  16.667  20.475  12.051
36164W        W 4569  39.411  32.656   0.804
36165W        W 4570  10.777  33.106  12.481
36166W        W 4571  22.555   7.450   1.265
36167W        W 4572  26.678  38.483   1.670
36168W        W 4573   6.037  19.612   4.250
36169W        W 4574  11.445  17.625   2.664
36170W        W 4575   5.784  39.696  10.725
36171W        W 4576  31.640  20.271  13.144
36172W        W 4577  44.078  38.466  11.076
36173W        W 4578  32.897  27.143  12.999
36174W        W 4579  37.114  40.373  13.841
36175W        W 4580  21.944  17.376   1.563
36176W        W 4581  37.622  38.478  13.469
36177W        W 4582   8.840  41.837   1.840
36178W        W 4583  14.664  22.154   1.944
36179W        W 4584   5.396  38.788   2.358
36180W        W 4585   5.401   3.986  11.012
36181W        W 4586   8.619   3.316   4.294
36182W        W 4587  30.589  16.709   3.315
36183W        W 4588   3.670  39.594   0.835
36184W        W 4589  28.569   1.870   1.448
36185W        W 4590  39.034  33.080  11.462
36186W        W 4591  42.394  39.532   0.848
36187W        W 4592  21.111  31.159  11.975
36188W        W 4593   1.612  33.026  11.226
36189W        W 4594  36.531  15.624   1.195
36190W        W 4595  21.280  38.796   0.420
36191W        W 4596  14.575  30.182  14.411
36192W        W 4597   1.914  19.252  10.565
36193W        W 4598  19.018  44.828  10.922
36194W        W 4599   4.217  42.005   1.462
36195W        W 4600  24.234   0.626  14.016
36196W        W 4601  31.635  40.624  11.676
36197W        W 4602   8.991  40.999   3.287
36198W        W 4603   9.943  13.084  13.823
36199W        W 4604  37.622   3.205  14.296
36200W        W 4605  13.345   1.739  14.545
36201W        W 4606   1.020  11.297   2.510
36202W        W 4607  36.825   3.821   4.655
36203W        W 4608  32.491  23.502  13.077
36204W        W 4609  22.507  35.295   5.085
36205W        W 4610  32.606  23.118   2.850
36206W        W 4611   0.229  27.948   0.854
36207W        W 4612  16.759  25.114  11.565
36208W        W 4613  13.799  38.937   3.318
36209W        W 4614   4.998  25.206  11.472
36210W        W 4615  12.060  25.036  11.227
36211W        W 4616   4.456  29.973   1.038
36212W        W 4617  29.959  28.440   3.262
36213W        W 4618  10.575   1.869   1.151
36214W        W 4619   2.777  41.086  14.559
36215W        W 4620   8.065  32.185  14.353
36216W        W 4621   5.949  30.769   2.296
36217W        W 4622  15.095  33.319  11.165
36218W        W 4623  32.545  35.647  13.846
36219W        W 4624  14.463   0.526   2.226
36220W        W 4625  22.218   2.392  13.529
36221W        W 4626  42.103  21.588   2.266
36222W        W 4627  25.673  39.292   1.807
36223W        W 4628  34.027  31.078   3.276
36224W        W 4629  14.669  38.442   1.133
36225W        W 4630  22.631  21.023  14.999
36226W        W 4631  32.170  28.729  14.319
36227W        W 4632  21.009  36.976   0.608
36228W        W 4633  13.533  13.123   2.862
36229W        W 4634   4.703  35.037  10.663
36230W        W 4635  19.119  19.838  12.350
36231W        W 4636  35.355  11.731  12.544
36232W        W 4637   8.790  31.829  13.191
36233W        W 4638  27.335  26.476   3.256
36234W        W 4639   4.845  37.861  13.024
36235W        W 4640  31.921  13.181   0.311
36236W        W 4641  38.829  10.831   1.650
36237W        W 4642  19.504   5.633  14.600
36238W        W 4643   4.217  11.334  12.578
36239W        W 4644  39.433  23.710   0.336
36240W        W 4645  14.746  17.747  10.716
36241W        W 4646   9.382   9.881  11.466
36242W        W 4647  31.848  29.073   4.189
36243W        W 4648  20.780  30.637  12.722
36244W        W 4649  39.594  41.891  11.081
36245W        W 4650   1.300  26.377  10.765
36246W        W 4651  33.927  43.912   3.371
36247W        W 4652   5.609  18.198   0.932
36248W        W 4653  14.860  19.070   0.071
36249W        W 4654  38.365  32.327  10.515
36250W        W 4655  18.573  36.783   3.411
36251W        W 4656  33.375  26.644  10.700
36252W        W 4657  41.270  31.375   1.937
36253W        W 4658  13.860  14.765   1.243
36254W        W 4659  20.010  35.689   2.753
36255W        W 4660   6.326  43.260  13.755
36256W        W 4661  11.810  20.108   4.520
36257W        W 4662   7.785   5.727   4.258
36258W        W 4663  31.630  15.372  11.476
36259W        W 4664  32.001  10.289  14.324
36260W        W 4665  35.071   4.967  11.602
36261W        W 4666  19.199  22.523  13.884
36262W        W 4667   7.248  24.601  11.425
36263W        W 4668  19.443  38.031  14.422
36264W        W 4669  22.251  22.480  11.393
36265W        W 4670  12.275  29.084   0.743
36266W        W 4671  18.518  31.390   1.267
36267W        W 4672  24.640  30.214  12.408
36268W        W 4673  29.981  41.836   4.223
36269W        W 4674  26.084  30.154   1.470
36270W        W 4675   6.291   7.641  11.093
36271W        W 4676  21.572   5.885  12.002
36272W        W 4677   4.900   3.910  14.469
36273W        W 4678  22.510  28.542  11.081
36274W        W 4679   5.875   1.553   0.495
36275W        W 4680   6.135  22.734  14.260
36276W        W 4681  12.695   7.240   1.730
36277W        W 4682  37.973   3.343  11.252
36278W        W 4683  23.859   8.949  10.264
36279W        W 4684  28.918  19.604  12.991
36280W        W 4685  34.237   9.438  11.589
36281W        W 4686   0.841  27.042  13.989
36282W        W 4687  27.949  41.389  11.857
36283W        W 4688  39.493  41.842   4.627
36284W        W 4689  13.247  24.165   2.439
36285W        W 4690  19.741  34.490   4.638
36286W        W 4691  43.559  36.628   1.278
36287W        W 4692   4.742  33.424   0.244
36288W        W 4693  20.654  21.570  11.776
36289W        W 4694  39.932  16.350   1.134
36290W        W 4695   6.560  39.916   1.781
36291W        W 4696  20.236  28.763  13.453
36292W        W 4697  10.742  28.584   3.256
36293W        W 4698   2.882   6.801   1.752
36294W        W 4699  10.857  43.746  10.433
36295W        W 4700  39.596   0.457   2.643
36296W        W 4701  13.901   5.336  13.378
36297W        W 4702  32.855  41.891  11.901
36298W        W 4703  42.875  26.984  14.412
36299W        W 4704  23.701  40.666  13.990
36300W        W 4705  36.483  32.110  12.980
36301W        W 4706   3.152   7.224   2.671
36302W        W 4707   2.822  27.821  11.958
36303W        W 4708  40.897  31.397  10.567
36304W        W 4709  18.214   5.749   4.116
36305W        W 4710  22.998   2.186  13.128
36306W        W 4711  18.237   0.940  12.464
36307W        W 4712   4.718   3.596   4.549
36308W        W 4713  26.485  29.596   4.031
36309W        W 4714  22.044   1.697  12.914
36310W        W 4715   9.838  23.182   0.269
36311W        W 4716   4.138  37.445  13.540
36312W        W 4717  31.018   2.320  14.603
36313W        W 4718  28.184  16.202   0.221
36314W        W 4719   3.236  21.330  14.371
36315W        W 4720  33.494  10.692  10.037
36316W        W 4721  21.585  40.325   1.225
36317W        W 4722  24.163  30.750   4.971
36318W        W 4723  15.756  40.414   3.702
36319W        W 4724  34.973  28.195   3.553
36320W        W 4725  16.249  43.336   1.243
36321W        W 4726  34.902  13.806   2.938
36322W        W 4727   1.749   6.558  13.358
36323W        W 4728  20.278  21.760  13.134
36324W        W 4729   6.878  20.040  12.454
36325W        W 4730  21.289  18.007  14.399
36326W        W 4731  34.446  10.767  12.799
36327W        W 4732   5.738  40.874   3.023
36328W        W 4733  40.740  23.773   0.223
36329W        W 4734   3.766  37.121   3.276
36330W        W 4735  10.886  28.219  11.536
36331W        W 4736   7.677  23.237  13.021
36332W        W 4737  16.492  22.648  11.598
36333W        W 4738  26.208  17.669  11.323
36334W        W 4739  32.582  25.482   4.858
36335W        W 4740  38.432  17.112   3.946
36336W        W 4741  29.055   8.639  10.445
36337W        W 4742  33.107  23.195   0.154
36338W        W 4743  39.365  19.682  10.615
36339W        W 4744  27.670  35.482   0.212
36340W        W 4745  36.554   1.108  14.624
36341W        W 4746   7.753   9.244   0.664
36342W        W 4747  34.568   0.858   1.040
36343W        W 4748  16.275   4.873   1.181
36344W        W 4749  22.233  40.172  13.015
36345W        W 4750  21.556  28.671   2.489
36346W        W 4751  24.655  34.138  14.687
36347W        W 4752  38.331  10.618   2.372
36348W        W 4753  11.700  13.148  14.934
36349W        W 4754  15.260   9.241   3.695
36350W        W 4755  33.155  25.505  14.697
36351W        W 4756   3.465  15.814  10.125
36352W        W 4757  23.519  15.394  13.975
36353W        W 4758  28.122  38.112  12.087
36354W        W 4759  26.931  37.364   4.130
36355W        W 4760  19.982  11.429  12.544
36356W        W 4761  20.068  10.296   0.337
36357W        W 4762   9.088  23.105   1.195
36358W        W 4763  21.301  12.695  14.738
36359W        W 4764   3.954  21.516  10.710
36360W        W 4765  22.389  12.221  10.005
36361W        W 4766   3.401  38.055  12.136
36362W        W 4767  27.082   9.577  12.850
36363W        W 4768  27.979   8.771   5.035
36364W        W 4769  42.976   7.416   4.827
36365W        W 4770  19.489  37.301   0.911
36366W        W 4771  10.814   2.630  12.931
36367W        W 4772  43.607  23.552  12.562
36368W        W 4773  41.363  38.646   2.868
36369W        W 4774  11.761  36.092   0.802
36370W        W 4775  20.392  10.635  13.771
36371W        W 4776  11.315  10.859   0.042
36372W        W 4777  43.606  26.668   0.906
36373W        W 4778   8.818  17.556  11.590
36374W        W 4779  26.619  36.748   0.328
36375W        W 4780  38.174  26.295  12.846
36376W        W 4781  11.657   0.603  14.093
36377W        W 4782  36.040  20.842   1.898
36378W        W 4783  31.059  17.387   3.043
36379W        W 4784  41.716  22.926   4.585
36380W        W 4785  43.458   8.747  11.820
36381W        W 4786  39.502  16.526  12.089
36382W        W 4787  28.532  32.869   2.218
36383W        W 4788   5.744  25.560  12.585
36384W        W 4789  39.130  22.104  11.074
36385W        W 4790  18.198  44.535  13.096
36386W        W 4791  40.920   5.986   2.143
36387W        W 4792  39.679  30.383  13.843
36388W        W 4793   6.634  29.867   5.695
36389W        W 4794  18.313  22.775  12.549
36390W        W 4795  21.915   8.249   2.432
36391W        W 4796   2.223   3.661  12.002
36392W        W 4797   1.943   3.100   0.531
36393W        W 4798  16.208  19.287   0.411
36394W        W 4799  35.970   0.865  13.791
36395W        W 4800  29.524  31.952  13.638
36396W        W 4801  42.209  32.160   4.845
36397W        W 4802  43.532  15.789   3.624
36398W        W 4803  37.813   7.200   0.069
36399W        W 4804   6.869  17.784   1.722
36400W        W 4805  26.365  30.423  13.024
36401W        W 4806  14.032  39.115   2.298
36402W        W 4807  15.097   3.020   0.926
36403W        W 4808  27.834  42.142  14.576
36404W        W 4809   9.132  40.493  10.966
36405W        W 4810  22.114  21.974  11.451
36406W        W 4811  29.965  29.406   1.374
36407W        W 4812   6.184   2.411  11.113
36408W        W 4813  18.830  30.494   3.229
36409W        W 4814   2.951  19.218  10.615
36410W        W 4815  21.593  22.859  14.539
36411W        W 4816  19.666  27.680  10.710
36412W        W 4817   8.141  36.453   2.140
36413W        W 4818  18.284  20.073  12.421
36414W        W 4819   6.679  28.152   1.747
36415W        W 4820  37.515  26.263   4.016
36416W        W 4821  30.985  39.457   2.257
36417W        W 4822  15.340  39.395   0.950
36418W        W 4823  23.131  23.981  14.524
36419W        W 4824   4.801  23.139   0.016
36420W        W 4825  26.299  25.261  14.352
36421W        W 4826  44.874  34.528   1.823
36422W        W 4827   5.785  17.032   3.243
36423W        W 4828  30.316   6.723  12.957
36424W        W 4829  36.593  28.511   4.121
36425W        W 4830  44.982   5.934  14.371
36426W        W 4831  38.402  21.961   3.595
36427W        W 4832  43.494   7.782   1.843
36428W        W 4833  42.571  11.551  14.934
36429W        W 4834  28.554  27.158  11.406
36430W        W 4835  40.970   7.670  12.572
36431W        W 4836  14.429  19.964  14.924
36432W        W 4837  30.763  13.112   0.390
36433W        W 4838  32.012  19.691  13.198
36434W        W 4839  42.337  11.213   1.718
36435W        W 4840  20.965  21.217  12.757
36436W        W 4841  33.660  43.756  13.024
36437W        W 4842  27.869  10.317   2.673
36438W        W 4843  44.898  16.971  13.824
36439W        W 4844  42.044  21.542  11.949
36440W        W 4845   7.592  10.545  12.118
36441W        W 4846  27.160  37.512   3.538
36442W        W 4847   9.309  10.367  14.529
36443W        W 4848   6.987   2.891   0.732
36444W        W 4849  36.820  14.198  13.336
36445W        W 4850  37.944  17.878   4.081
36446W        W 4851  37.680  21.086   4.386
36447W        W 4852  32.279  30.785  12.878
36448W        W 4853  38.370  27.667   3.159
36449W        W 4854  19.754  22.175   3.649
36450W        W 4855  38.586  39.031   3.886
36451W        W 4856  10.095  15.251  14.420
36452W        W 4857   1.630  28.416   2.657
36453W        W 4858  42.750   7.671  13.838
36454W        W 4859  27.412  37.015  12.993
36455W        W 4860  13.336  18.606   2.365
36456W        W 4861   5.766  42.421   2.594
36457W        W 4862  32.022  28.730   3.824
36458W        W 4863  40.971  43.506   3.686
36459W        W 4864  37.012   7.835   0.979
36460W        W 4865  43.605  33.397  14.984
36461W        W 4866  26.698  29.462  12.947
36462W        W 4867  36.611  38.351   0.921
36463W        W 4868  35.931  38.944   5.277
36464W        W 4869   1.391  34.580  14.441
36465W        W 4870  31.189  26.451  11.454
36466W        W 4871  10.159   4.247  12.866
36467W        W 4872  30.516   0.976  10.868
36468W        W 4873  34.813  42.027   1.228
36469W        W 4874  17.596  12.761  13.913
36470W        W 4875  27.005  34.192   3.313
36471W        W 4876  36.774  44.409   4.540
36472W        W 4877  18.748   1.102  11.944
36473W        W 4878  38.929  41.184   2.669
36474W        W 4879  42.718   3.006  11.981
36475W        W 4880  37.527  39.346   1.284
36476W        W 4881  37.918  38.735  14.472
36477W        W 4882   8.771   3.509  12.826
36478W        W 4883  14.685  41.506  12.645
36479W        W 4884  35.420  38.855  12.134
36480W        W 4885  18.074  28.999  13.377
36481W        W 4886   7.515  39.378   0.476
36482W        W 4887   4.005   0.809   3.757
36483W        W 4888  20.625  32.277  13.886
36484W        W 4889  34.752  18.317  12.109
36485W        W 4890   4.975   9.299   1.842
36486W        W 4891  22.729  22.179  10.721
36487W        W 4892  28.207  19.093   0.209
36488W        W 4893  10.653  36.052   1.315
36489W        W 4894  15.763  34.424  12.433
36490W        W 4895  32.437  11.913  11.198
36491W        W 4896  42.885  12.560  14.369
36492W        W 4897  23.519  26.917  14.813
36493W        W 4898  24.619  27.450  13.485
36494W        W 4899  18.567   3.841   2.018
36495W        W 4900  31.631  21.509  12.929
36496W        W 4901  12.377  17.889  14.477
36497W        W 4902  35.095  38.823  12.542
36498W        W 4903   5.106  19.726   3.646
36499W        W 4904   8.149   7.851   0.921
36500W        W 4905  32.073  23.594   2.590
36501W        W 4906  21.307  13.815   0.407
36502W        W 4907  34.839  20.279   0.385
36503W        W 4908  33.081  20.433  14.268
36504W        W 4909  41.503   0.799  13.031
36505W        W 4910  39.229  41.571  10.093
36506W        W 4911  27.680   9.928   3.130
36507W        W 4912  14.813  10.863  13.472
36508W        W 4913  29.582  31.910   3.343
36509W        W 4914  27.136  27.940   1.142
36510W        W 4915  31.964  11.575  12.556
36511W        W 4916  37.050  28.652   2.398
36512W        W 4917  23.640   5.467   4.142
36513W        W 4918  42.303  28.243   2.830
36514W        W 4919  23.864  21.419   0.741
36515W        W 4920  16.590  15.638   4.054
36516W        W 4921  31.501  33.038  14.334
36517W        W 4922  37.950  44.867   3.093
36518W        W 4923  21.272  30.035   1.801
36519W        W 4924  24.706  39.034   2.871
36520W        W 4925  28.141  21.445   0.972
36521W        W 4926  32.585  36.397   0.294
36522W        W 4927  32.582  26.749   1.338
36523W        W 4928   1.486  34.548  10.630
36524W        W 4929  42.318  40.647   1.771
36525W        W 4930   1.425  12.837   3.815
36526W        W 4931  30.456  24.275   4.174
36527W        W 4932  13.285  25.184  10.658
36528W        W 4933  31.048  15.060   2.776
36529W        W 4934  12.633   7.319  14.781
36530W        W 4935  40.818   6.611   9.686
36531W        W 4936  38.900  25.310  14.888
36532W        W 4937  33.880  35.115   2.867
36533W        W 4938   4.314  38.780   4.049
36534W        W 4939  18.018  31.090   4.649
36535W        W 4940  34.090  30.462  12.039
36536W        W 4941  34.010  27.944  10.705
36537W        W 4942  35.474  26.023   0.563
36538W        W 4943  25.031   0.523  10.994
36539W        W 4944  16.817  43.169  13.596
36540W        W 4945   0.812  36.124  10.729
36541W        W 4946  28.018  40.117  14.728
36542W        W 4947  34.864  44.256   2.267
36543W        W 4948  13.663  17.118   4.847
36544W        W 4949  22.626  33.587   3.201
36545W        W 4950  29.875  36.714   0.659
36546W        W 4951  36.945  42.420   1.954
36547W        W 4952   0.578   0.239   2.797
36548W        W 4953   2.165  10.831  11.209
36549W        W 4954  34.580  31.774   4.886
36550W        W 4955   6.875  22.947   2.391
36551W        W 4956  33.057  32.689   4.555
36552W        W 4957  21.166  33.203  12.115
36553W        W 4958   0.566  43.688  14.422
36554W        W 4959  42.271  11.166  11.967
36555W        W 4960  31.062  43.482  11.666
36556W        W 4961  44.612  34.823   2.195
36557W        W 4962  31.145  17.477   3.764
36558W        W 4963  43.516  20.029   0.352
36559W        W 4964  16.800  21.332  14.981
36560W        W 4965   8.904  18.351  12.842
36561W        W 4966  22.766  27.623  13.323
36562W        W 4967  18.640   5.297  14.315
36563W        W 4968  15.263  10.266   4.614
36564W        W 4969  36.782  44.710   1.312
36565W        W 4970   0.828  32.154  14.374
36566W        W 4971  43.126  36.526   3.323
36567W        W 4972  29.495  43.845   2.821
36568W        W 4973  14.969  36.475  12.117
36569W        W 4974   4.702  18.285   0.878
36570W        W 4975  22.525  22.177  11.683
36571W        W 4976  23.608  33.879  11.205
36572W        W 4977  38.985  24.961  12.073
36573W        W 4978  21.923  39.944  10.580
36574W        W 4979  27.557   3.562   0.811
36575W        W 4980  31.063  29.408   1.626
36576W        W 4981  37.074   9.394  13.829
36577W        W 4982  24.396   8.222  12.807
36578W        W 4983  24.307   4.491  13.297
36579W        W 4984  16.915  34.595   4.975
36580W        W 4985  28.873  20.032  12.507
36581W        W 4986   8.197  31.069   4.566
36582W        W 4987  27.684  27.074   2.329
36583W        W 4988  11.600  23.849  14.327
36584W        W 4989   1.708  12.673   1.142
36585W        W 4990  31.445  41.844   5.005
36586W        W 4991  34.384   3.364  11.617
36587W        W 4992   0.943  32.675   4.154
36588W        W 4993  42.487  20.802  11.950
36589W        W 4994   1.179  38.526  11.551
36590W        W 4995   9.663  30.449   3.013
36591W        W 4996   4.915  17.986  13.217
36592W        W 4997  20.068   0.015  13.219
36593W        W 4998  21.624  31.683   1.291
36594W        W 4999  15.762  36.137  11.491
36595W        W 5000  36.852   2.662   2.502
36596W        W 5001  16.619  39.012  12.182
36597W        W 5002  25.821  23.250  11.931
36598W        W 5003  22.954   3.992  13.366
36599W        W 5004  23.207  15.223   1.751
36600W        W 5005   7.148  36.348  10.750
36601W        W 5006  29.402  21.695   3.690
36602W        W 5007  33.093  44.745  13.220
36603W        W 5008  34.457   4.290   4.483
36604W        W 5009  16.278  10.319  13.302
36605W        W 5010  21.764   0.385   0.972
36606W        W 5011  19.289  42.886   3.256
36607W        W 5012  20.599  36.872   0.273
36608W        W 5013  37.864  14.224   2.678
36609W        W 5014  14.336   6.348  14.850
36610W        W 5015   8.388  29.418  13.082
36611W        W 5016  36.252   7.011  11.181
36612W        W 5017   0.266  35.943  14.647
36613W        W 5018  36.383  22.818   3.247
36614W        W 5019  15.143  12.256   2.749
36615W        W 5020  23.103   0.745  14.857
36616W        W 5021   3.341  30.606  13.401
36617W        W 5022  19.207  12.180  12.594
36618W        W 5023   4.616  34.123  12.443
36619W        W 5024  21.481   8.170  13.408
36620W        W 5025  25.922  34.987   0.981
36621W        W 5026  27.583  36.348   4.739
36622W        W 5027  24.500   4.417   4.219
36623W        W 5028  13.332  26.502   2.099
36624W        W 5029   9.431  14.472   4.620
36625W        W 5030  31.052  31.654   3.075
36626W        W 5031  29.925  12.505   4.268
36627W        W 5032   0.164  36.538   3.860
36628W        W 5033  13.735  42.458   4.545
36629W        W 5034  39.025  30.306  13.377
36630W        W 5035  39.540  38.884  14.616
36631W        W 5036  28.349  38.113  11.222
36632W        W 5037  20.139  23.252  12.860
36633W        W 5038  34.266  35.031  12.515
36634W        W 5039  35.335   8.181   1.272
36635W        W 5040   2.869  30.697   3.796
36636W        W 5041  36.080  44.808   1.856
36637W        W 5042  18.530  37.360  10.190
36638W        W 5043  41.827  42.019  11.510
36639W        W 5044  34.120   5.119   3.922
36640W        W 5045  21.807  28.259   2.294
36641W        W 5046  10.755  14.255   1.696
36642W        W 5047  11.095   4.957   0.781
36643W        W 5048  12.329  44.681  14.398
36644W        W 5049   1.843  44.634  11.688
36645W        W 5050  20.527  44.451   0.864
36646W        W 5051  40.956  16.634  14.330
36647W        W 5052   4.860  42.392  10.753
36648W        W 5053  41.906  20.171   1.366
36649W        W 5054  17.683  21.958  11.536
36650W        W 5055  43.305  44.829  12.885
36651W        W 5056  42.841  14.658   4.471
36652W        W 5057   5.633  29.526   1.912
36653W        W 5058  32.708   6.284   1.456
36654W        W 5059   1.154  16.371   1.936
36655W        W 5060   4.261   6.246   0.418
36656W        W 5061  19.732  13.513   2.817
36657W        W 5062  33.478   3.448   4.634
36658W        W 5063   7.492  20.529   0.510
36659W        W 5064  28.860  35.439   0.966
36660W        W 5065  17.316  44.319  13.321
36661W        W 5066  34.614  23.152   2.641
36662W        W 5067  34.531  26.323   4.905
36663W        W 5068  44.465   6.859  14.344
36664W        W 5069  42.996  40.902   2.582
36665W        W 5070  15.020  33.931   2.207
36666W        W 5071  43.452   4.276   0.245
36667W        W 5072  10.640  29.599   3.295
36668W        W 5073  23.322  44.885  11.408
36669W        W 5074   9.176   4.179   2.236
36670W        W 5075   6.423  27.761  12.573
36671W        W 5076  12.238  13.869  13.976
36672W        W 5077  29.056  24.028  12.921
36673W        W 5078  36.864   0.968  10.457
36674W        W 5079  27.560  32.070   1.762
36675W        W 5080  35.883  10.749   3.483
36676W        W 5081  33.575  44.949   0.726
36677W        W 5082   3.831  13.659  12.097
36678W        W 5083  32.415   3.309  14.975
36679W        W 5084  16.880  36.473   0.797
36680W        W 5085  27.196  32.518   3.736
36681W        W 5086  33.048  34.349  10.551
36682W        W 5087   9.651  11.209  14.716
36683W        W 5088  30.010  15.651  12.935
36684W        W 5089  17.736  12.319   2.368
36685W        W 5090  36.279  16.513  11.635
36686W        W 5091  16.850  19.679  14.368
36687W        W 5092  30.093   8.867  14.794
36688W        W 5093  20.139   5.908  13.546
36689W        W 5094  20.609  43.564  11.681
36690W        W 5095   3.679   3.040  10.837
36691W        W 5096  10.279  18.303  13.950
36692W        W 5097   7.954  32.362  11.597
36693W        W 5098  37.369  21.015  14.124
36694W        W 5099  40.447  37.730   2.776
36695W        W 5100  40.828  12.606   3.316
36696W        W 5101  23.500  10.256  13.578
36697W        W 5102   0.339  28.430   1.794
36698W        W 5103  29.911  34.519   3.852
36699W        W 5104   7.902  18.258  10.336
36700W        W 5105  22.475  44.210   4.703
36701W        W 5106  32.249  17.731  12.156
36702W        W 5107   3.453  21.684  10.716
36703W        W 5108  24.203  40.308  10.704
36704W        W 5109  14.148  20.523   3.682
36705W        W 5110  13.289  14.611   1.339
36706W        W 5111  22.571  29.933  13.970
36707W        W 5112   7.926  11.345   0.789
36708W        W 5113  29.322   3.027   4.576
36709W        W 5114  16.695  11.640   1.833
36710W        W 5115   5.400  33.988  13.964
36711W        W 5116  37.051   0.843   3.667
36712W        W 5117  14.106  40.109   2.864
36713W        W 5118   1.381  20.461   2.333
36714W        W 5119  30.930  13.048  12.434
36715W        W 5120  30.186   4.905  11.595
36716W        W 5121  14.069   3.303  10.676
36717W        W 5122  37.120   3.402  14.307
36718W        W 5123   2.987  20.191  13.811
36719W        W 5124  25.127  23.465  12.909
36720W        W 5125  20.071   3.860  13.417
36721W        W 5126  35.661  24.572  12.186
36722W        W 5127  25.236  33.087  14.919
36723W        W 5128  39.326  22.660  11.158
36724W        W 5129  35.451  40.082  14.860
36725W        W 5130  18.250  42.550   4.615
36726W        W 5131  27.940  22.233   2.773
36727W        W 5132  38.837  24.587   2.164
36728W        W 5133  10.240  13.980   3.072
36729W        W 5134   2.913  13.487   2.430
36730W        W 5135  34.413   6.839  10.375
36731W        W 5136   1.145   7.418  10.871
36732W        W 5137  32.390  15.389  12.880
36733W        W 5138  36.231   4.312  10.536
36734W        W 5139  39.564  32.393  13.931
36735W        W 5140   6.263  44.714   2.399
36736W        W 5141   2.873   3.040  11.512
36737W        W 5142  44.888  23.242  14.338
36738W        W 5143   8.365  20.515  13.511
36739W        W 5144   5.474   6.367  13.448
36740W        W 5145  24.429  15.995  13.859
36741W        W 5146  25.572  31.844   3.547
36742W        W 5147  13.328  21.415   4.905
36743W        W 5148  16.185  12.157   1.427
36744W        W 5149  16.025  19.410   1.854
36745W        W 5150  37.311  42.310  11.069
36746W        W 5151  29.669  39.283  14.963
36747W        W 5152  22.861  23.431   1.942
36748W        W 5153  33.567  44.867   2.665
36749W        W 5154  38.322  31.327  14.542
36750W        W 5155  44.546  40.349   4.660
36751W        W 5156  32.924   8.954   1.759
36752W        W 5157  16.080  13.791   1.855
36753W        W 5158  16.586  37.097   0.044
36754W        W 5159  26.666   7.350   2.746
36755W        W 5160  26.461   6.616  13.699
36756W        W 5161  29.856  20.100   3.243
36757W        W 5162  15.538  26.057   2.067
36758W        W 5163  33.319  32.943  11.253
36759W        W 5164  24.603  31.672   3.798
36760W        W 5165   7.447  12.336   3.226
36761W        W 5166  26.333  39.418   4.581
36762W        W 5167  30.487  39.569  12.556
36763W        W 5168  43.230  25.090  11.568
36764W        W 5169  31.746   6.017   2.232
36765W        W 5170  38.925  21.816  14.415
36766W        W 5171  31.671  19.099  11.091
36767W        W 5172  30.624  38.644  12.449
36768W        W 5173  34.800   3.700   1.608
36769W        W 5174   6.384  17.541  13.017
36770W        W 5175   0.404  23.509   2.260
36771W        W 5176  21.649  15.565   0.939
36772W        W 5177  20.719  29.404   4.708
36773W        W 5178  17.636   6.652  14.639
36774W        W 5179  33.354  33.693  11.916
36775W        W 5180   2.832  23.278  11.196
36776W        W 5181   2.923  20.909  10.032
36777W        W 5182  32.905  21.159  13.892
36778W        W 5183  17.730  13.814   2.219
36779W        W 5184  13.486   1.500   4.088
36780W        W 5185  15.572  28.636  13.435
36781W        W 5186  22.031  18.235   3.735
36782W        W 5187  18.612  29.475   0.750
36783W        W 5188  42.827  12.462  12.029
36784W        W 5189  19.312  41.963   3.139
36785W        W 5190  42.843  10.734   4.191
36786W        W 5191  33.926  41.348   3.855
36787W        W 5192  44.192  37.041   2.400
36788W        W 5193  25.585  11.781  11.676
36789W        W 5194  28.609  15.322   2.690
36790W        W 5195  17.836  17.302   3.698
36791W        W 5196  18.562  17.662   0.940
36792W        W 5197  41.579  25.792   0.223
36793W        W 5198  20.654  11.563  13.861
36794W        W 5199  23.503  44.870   4.043
36795W        W 5200   2.930  42.421  11.493
36796W        W 5201  26.903   8.800   4.328
36797W        W 5202  21.978  15.586   2.799
36798W        W 5203  11.968   8.893  12.624
36799W        W 5204  26.214  38.244  13.483
36800W        W 5205  14.764  38.737  12.761
36801W        W 5206   2.213  32.487  14.163
36802W        W 5207  28.748  21.686   1.602
36803W        W 5208   5.984  29.229   3.679
36804W        W 5209  39.733  42.147   2.674
36805W        W 5210  10.195  23.233  13.924
36806W        W 5211   9.689  32.900   3.170
36807W        W 5212   8.619  32.175  14.958
36808W        W 5213  40.266  16.275  11.595
36809W        W 5214  27.699  27.910   0.329
36810W        W 5215  24.963  34.104   4.752
36811W        W 5216  18.186  21.716   4.557
36812W        W 5217  18.449  26.072  13.068
36813W        W 5218  10.656  39.306   1.698
36814W        W 5219   8.320  12.637   4.535
36815W        W 5220  38.518  31.895   0.393
36816W        W 5221  38.356   8.388  14.987
36817W        W 5222  17.235  30.091   1.997
36818W        W 5223   3.941  25.745   4.225
36819W        W 5224  22.581  37.522  12.036
36820W        W 5225   2.290   2.999  13.765
36821W        W 5226  15.114  16.586   1.672
36822W        W 5227  29.985  10.824   4.734
36823W        W 5228  32.170  30.421   0.622
36824W        W 5229  26.243  42.396   4.183
36825W        W 5230  13.598  11.074  12.372
36826W        W 5231  32.053  16.103   4.907
36827W        W 5232  20.356  21.644  11.369
36828W        W 5233  25.448  31.007   3.329
36829W        W 5234  31.572  22.019  12.852
36830W        W 5235  38.731   2.863   2.753
36831W        W 5236  31.864   0.098  11.967
36832W        W 5237   0.525  44.856  12.420
36833W        W 5238  12.169   6.898   0.798
36834W        W 5239  40.078   0.208   4.626
36835W        W 5240  33.077  38.003  11.109
36836W        W 5241  38.296  25.671  13.293
36837W        W 5242  21.139  24.129   2.177
36838W        W 5243  24.165   1.069  13.762
36839W        W 5244  41.890  16.185   1.481
36840W        W 5245   8.435  41.412   2.641
36841W        W 5246  38.427  19.630  13.624
36842W        W 5247  42.524   5.963   3.017
36843W        W 5248   8.141  15.363  14.570
36844W        W 5249   4.172  13.615  11.546
36845W        W 5250  33.777  36.351   0.751
36846W        W 5251  10.680  23.222  12.634
36847W        W 5252  34.809  44.321   3.580
36848W        W 5253  21.589  11.935  11.351
36849W        W 5254   2.399  35.502   0.489
36850W        W 5255   4.710  26.827   4.025
36851W        W 5256   9.308  10.542  12.721
36852W        W 5257   7.445  17.952  13.625
36853W        W 5258  39.944   6.771  10.558
36854W        W 5259  35.360  11.022  13.953
36855W        W 5260   4.426  14.606  10.725
36856W        W 5261  40.389  16.238   4.721
36857W        W 5262  27.935   7.789   2.795
36858W        W 5263  44.766  44.932   3.418
36859W        W 5264  16.685   7.633   1.793
36860W        W 5265  24.006  35.236  14.835
36861W        W 5266  24.944  17.687  13.409
36862W        W 5267  33.554  42.102  10.561
36863W        W 5268   2.983  10.930  12.402
36864W        W 5269   2.614  42.974   0.962
36865W        W 5270   7.710  25.585  13.636
36866W        W 5271   8.490  27.472  10.151
36867W        W 5272  28.932   8.393  12.210
36868W        W 5273  36.961  24.281  10.862
36869W        W 5274  16.526   2.560  14.432
36870W        W 5275   6.081  25.033  10.504
36871W        W 5276   5.012  28.560   3.214
36872W        W 5277  22.332  36.123  12.174
36873W        W 5278  18.009   7.959   2.317
36874W        W 5279   4.482  13.942   4.081
36875W        W 5280   9.790  33.581   4.890
36876W        W 5281  18.175  14.721  11.514
36877W        W 5282  19.962  38.452   0.755
36878W        W 5283   0.211  42.515  11.045
36879W        W 5284  10.261  18.180  12.231
36880W        W 5285  20.062  14.879  12.810
36881W        W 5286  28.876  36.283  14.893
36882W        W 5287  37.975  17.138   1.876
36883W        W 5288  43.716  15.075   3.420
36884W        W 5289  23.521  12.106  13.307
36885W        W 5290  19.264  19.181  14.897
36886W        W 5291   4.292  14.697   0.358
36887W        W 5292   2.018  41.037  12.570
36888W        W 5293  22.593  20.544  10.663
36889W        W 5294  26.865  37.447  11.554
36890W        W 5295  44.285   1.004   1.417
36891W        W 5296  19.110  12.000   3.664
36892W        W 5297   8.484  40.899   3.290
36893W        W 5298  14.037  31.842  10.648
36894W        W 5299  43.387  28.240   3.659
36895W        W 5300  41.416   7.258   0.831
36896W        W 5301   7.216  18.756   0.286
36897W        W 5302   6.461  13.754   3.163
36898W        W 5303  37.979  18.621   1.415
36899W        W 5304  32.110  22.199   2.763
36900W        W 5305  42.975  16.369   2.275
36901W        W 5306  35.390  25.629  11.242
36902W        W 5307  37.298  42.574   4.045
36903W        W 5308   9.382  34.248   2.848
36904W        W 5309   6.484  34.921   0.864
36905W        W 5310  41.442  15.368   0.464
36906W        W 5311   4.948  32.920   2.140
36907W        W 5312  22.288  27.569  11.058
36908W        W 5313  24.072  36.894  10.628
36909W        W 5314  28.764  26.445  11.240
36910W        W 5315  39.040  21.609  11.700
36911W        W 5316  34.431   3.680  13.908
36912W        W 5317   9.423   8.972   2.383
36913W        W 5318  25.914   4.358  12.483
36914W        W 5319  30.145  11.308   4.937
36915W        W 5320  27.681   5.807   4.536
36916W        W 5321  18.841  20.141  14.789
36917W        W 5322  37.096  32.523   2.735
36918W        W 5323  26.454  35.098   3.013
36919W        W 5324  25.664   7.824  13.461
36920W        W 5325  24.008  16.106   1.283
36921W        W 5326  43.954  16.314   4.387
36922W        W 5327  29.536  33.511   0.919
36923W        W 5328   6.318  16.793   1.302
36924W        W 5329  12.521  41.441   1.207
36925W        W 5330  35.206  13.253   3.504
36926W        W 5331  42.056   7.921  12.597
36927W        W 5332  14.356  26.609  11.707
36928W        W 5333  25.774  36.330   3.343
36929W        W 5334   8.250  33.015  10.690
36930W        W 5335  42.829   3.792  12.558
36931W        W 5336  43.411  35.126   1.395
36932W        W 5337  32.100   6.734  10.663
36933W        W 5338  29.494  43.575   2.350
36934W        W 5339  12.401   6.811  13.538
36935W        W 5340  22.017   6.683  14.745
36936W        W 5341  27.539  12.389  13.608
36937W        W 5342  11.406  31.892   1.034
36938W        W 5343   1.426  11.762  14.821
36939W        W 5344  31.689  29.524  11.061
36940W        W 5345  31.430  17.346  10.634
36941W        W 5346  37.641  42.702  13.299
36942W        W 5347  37.150  23.664  12.903
36943W        W 5348  36.900  10.039  11.990
36944W        W 5349  23.198  36.909  13.497
36945W        W 5350  11.613  11.203  11.987
36946W        W 5351  18.282  43.472   0.242
36947W        W 5352   5.473  40.963   0.962
36948W        W 5353   0.756  19.784  13.819
36949W        W 5354  15.286   3.913   1.388
36950W        W 5355  11.647  34.475  11.246
36951W        W 5356  18.662  16.059  11.219
36952W        W 5357  25.253  37.021   1.749
36953W        W 5358   2.748  21.732  11.185
36954W        W 5359   5.232  37.491   1.705
36955W        W 5360  29.331   8.488   1.053
36956W        W 5361   2.877   9.553  13.388
36957W        W 5362  13.223   2.009  14.947
36958W        W 5363  30.761  38.805  10.692
36959W        W 5364   7.480  40.234  12.756
36960W        W 5365  43.175  26.563   0.332
36961W        W 5366  44.840   5.009   4.680
36962W        W 5367   4.033  17.832  12.068
36963W        W 5368  21.481  31.104  10.777
36964W        W 5369  18.793  24.237  11.658
36965W        W 5370  17.126  17.799   4.707
36966W        W 5371  30.756   8.079  14.255
36967W        W 5372   9.784  42.522  14.714
36968W        W 5373  15.240  37.249  12.262
36969W        W 5374  12.605  23.507  13.589
36970W        W 5375   1.369  41.500  10.908
36971W        W 5376  22.943  26.964   1.263
36972W        W 5377  31.722   1.823   1.103
36973W        W 5378  35.891  17.239   2.215
36974W        W 5379  17.652  44.342  13.882
36975W        W 5380  18.144  20.994   2.860
36976W        W 5381   3.179   9.798   1.955
36977W        W 5382   9.443   6.791  13.976
36978W        W 5383  19.612  34.436   1.443
36979W        W 5384  13.064  24.645   4.517
36980W        W 5385  40.373   7.087   4.391
36981W        W 5386  37.084  34.542   1.539
36982W        W 5387   0.422   1.483  12.863
36983W        W 5388  17.238  15.712  14.810
36984W        W 5389  11.769   3.874   4.579
36985W        W 5390  27.962  43.983   3.611
36986W        W 5391  16.600   1.504   1.143
36987W        W 5392  44.905  37.429  10.947
36988W        W 5393   7.944   4.697   4.127
36989W        W 5394   7.735  30.098  11.716
36990W        W 5395  42.843   9.853   3.493
36991W        W 5396  34.027  24.527  13.973
36992W        W 5397  30.403  24.498   0.781
36993W        W 5398  30.117   6.928   3.835
36994W        W 5399  30.703  32.456   2.214
36995W        W 5400  17.746  31.173   4.193
36996W        W 5401   6.447   3.830  14.360
36997W        W 5402  44.496   1.864   0.657
36998W        W 5403  43.421  18.066   0.752
36999W        W 5404  31.903   3.188  14.976
37000W        W 5405  32.377  18.090  14.515
37001W        W 5406  11.685  25.639   0.798
37002W        W 5407  38.546  32.278   2.438
37003W        W 5408  40.714  26.126  12.485
37004W        W 5409  27.987   6.821   4.630
37005W        W 5410   8.151   2.938  13.505
37006W        W 5411  41.019  10.461   2.044
37007W        W 5412   3.517  13.157   5.002
37008W        W 5413  24.498  18.842  12.067
37009W        W 5414  16.323  18.267   4.572
37010W        W 5415   7.241  18.787  13.910
37011W        W 5416   3.672  30.995  13.374
37012W        W 5417  15.597  26.259  11.359
37013W        W 5418   0.500  11.349   0.867
37014W        W 5419  20.587   3.234   2.885
37015W        W 5420   2.861  40.520  11.531
37016W        W 5421   9.293  42.537   4.362
37017W        W 5422   7.340   5.688  14.931
37018W        W 5423  10.372  17.682   1.441
37019W        W 5424  10.603   1.157   1.718
37020W        W 5425   9.598  34.247   3.832
37021W        W 5426  24.182   3.655  14.970
37022W        W 5427  40.548  16.300  14.844
37023W        W 5428  43.690  12.584   3.276
37024W        W 5429  39.644  23.122   1.319
37025W        W 5430  30.743  11.120   4.575
37026W        W 5431  39.952  10.113   1.995
37027W        W 5432  35.179   1.362  12.164
37028W        W 5433  15.140  18.579  10.445
37029W        W 5434  25.096   8.382   0.817
37030W        W 5435  32.652  43.595  13.487
37031W        W 5436   8.109  32.386  12.461
37032W        W 5437  37.624  12.324  11.492
37033W        W 5438  30.466  33.051  14.722
37034W        W 5439  43.881  24.094  12.910
37035W        W 5440  42.100   5.417   0.355
37036W        W 5441  20.328  41.836   3.611
37037W        W 5442  33.402  33.513  10.414
37038W        W 5443  25.979  25.246  10.777
37039W        W 5444  38.186  43.143   0.029
37040W        W 5445  39.557  38.059   3.486
37041W        W 5446  10.218  10.369  11.522
37042W        W 5447  16.600  25.259  12.771
37043W        W 5448  16.965  17.322   4.597
37044W        W 5449  19.278  26.165   1.439
37045W        W 5450  27.147  36.526  14.428
37046W        W 5451  40.381  27.483   1.723
37047W        W 5452   8.014   6.269   4.550
37048W        W 5453  38.323  27.142   3.796
37049W        W 5454  19.787  33.552   0.840
37050W        W 5455  15.755   8.686  14.170
37051W        W 5456  15.567  12.286  13.865
37052W        W 5457  36.215  43.529   3.788
37053W        W 5458  42.941  24.221  13.998
37054W        W 5459  43.047  27.107  11.565
37055W        W 5460  22.632  31.363  13.543
37056W        W 5461  27.511  19.082   2.815
37057W        W 5462  36.282  18.622  10.630
37058W        W 5463  31.494  19.670  10.291
37059W        W 5464  35.367  33.344   0.493
37060W        W 5465  44.073   1.694   3.572
37061W        W 5466  12.613   7.104   2.774
37062W        W 5467  32.623  20.153  14.375
37063W        W 5468  18.107  41.972  10.588
37064W        W 5469  19.575  19.610   2.289
37065W        W 5470  24.368  17.138  13.901
37066W        W 5471   2.480  16.325  14.393
37067W        W 5472   1.138  35.580  13.917
37068W        W 5473  11.617  41.863   3.708
37069W        W 5474  21.010  18.531   5.066
37070W        W 5475  32.498  13.667  12.006
37071W        W 5476  24.058  28.203  11.097
37072W        W 5477  41.586   8.051   3.293
37073W        W 5478  11.110   8.329  14.307
37074W        W 5479  43.128  15.116  14.966
37075W        W 5480  35.539  12.836   2.691
37076W        W 5481  44.497  38.271   2.714
37077W        W 5482  40.777  16.477   4.410
37078W        W 5483  29.855  34.859  14.028
37079W        W 5484  14.355  15.731  11.148
37080W        W 5485   1.997  17.522  10.798
37081W        W 5486  26.722   0.786  14.830
37082W        W 5487  16.307   4.879  14.301
37083W        W 5488   5.311  38.752   3.297
37084W        W 5489  42.641  22.070  10.274
37085W        W 5490  14.111  11.077   3.067
37086W        W 5491  19.722  34.023  11.776
37087W        W 5492  40.390   3.946   1.178
37088W        W 5493  40.254  24.130  11.528
37089W        W 5494  33.769   3.625  12.473
37090W        W 5495  14.105  32.918  12.067
37091W        W 5496   3.753  39.530   2.300
37092W        W 5497  34.991   9.976  11.993
37093W        W 5498  11.838  14.755   2.723
37094W        W 5499  26.638  10.664  11.258
37095W        W 5500  12.178  14.673   2.333
37096W        W 5501  29.187  26.534   2.772
37097W        W 5502   3.732  39.932   0.128
37098W        W 5503   5.729  23.139   2.787
37099W        W 5504   4.997   1.870   0.823
37100W        W 5505  13.755  27.013   0.945
37101W        W 5506  21.851   0.413  13.877
37102W        W 5507  25.995  27.650   4.690
37103W        W 5508  34.279  26.616   4.566
37104W        W 5509  39.087  21.052   0.954
37105W        W 5510  42.382   8.886   3.837
37106W        W 5511   8.134  14.790   2.968
37107W        W 5512  11.120   7.653   2.255
37108W        W 5513   2.475  33.932   0.517
37109W        W 5514  33.840  38.555   2.230
37110W        W 5515   7.135  32.441  13.473
37111W        W 5516  11.359  41.921  10.552
37112W        W 5517  43.461  20.518   3.936
37113W        W 5518  14.382  24.631  14.744
37114W        W 5519   0.062   1.674   2.421
37115W        W 5520  40.449  14.022  10.868
37116W        W 5521  23.185  38.515  11.679
37117W        W 5522  13.380  38.041   3.455
37118W        W 5523   6.427  35.513  13.459
37119W        W 5524  33.897   1.502  13.103
37120W        W 5525  33.389  16.539  12.467
37121W        W 5526  25.394  30.768  13.111
37122W        W 5527   6.468   5.185  13.965
37123W        W 5528  37.949  33.557   0.158
37124W        W 5529  21.607  43.178   0.250
37125W        W 5530  18.577   3.914  14.719
37126W        W 5531  41.857   3.005  12.003
37127W        W 5532  42.549  31.501   2.677
37128W        W 5533  30.356   7.965   4.207
37129W        W 5534  28.443  27.944   4.221
37130W        W 5535  33.867  20.082   2.380
37131W        W 5536  43.980  44.397  14.911
37132W        W 5537  32.992  36.614  11.183
37133W        W 5538  19.084   9.657  12.343
37134W        W 5539   5.901  27.726  12.446
37135W        W 5540   2.859  20.166   2.704
37136W        W 5541  39.628  13.847  14.437
37137W        W 5542  44.229  20.613  12.195
37138W        W 5543   0.678  24.116  13.441
37139W        W 5544  29.914  25.457   4.314
37140W        W 5545   2.389  12.113  11.776
37141W        W 5546  13.660  21.704   0.904
37142W        W 5547  18.686  42.534  14.929
37143W        W 5548  10.725  24.018  12.136
37144W        W 5549   9.700  24.144   3.598
37145W        W 5550  14.162  23.667   4.404
37146W        W 5551  10.852  10.460  12.846
37147W        W 5552  11.447  23.573   0.036
37148W        W 5553  32.077  16.381   3.883
37149W        W 5554  36.411  23.477   1.718
37150W        W 5555  14.407  26.516  10.763
37151W        W 5556  16.472  19.266   1.015
37152W        W 5557  23.031  20.731   0.299
37153W        W 5558   9.289  42.918   2.674
37154W        W 5559  40.032  18.538   2.180
37155W        W 5560  21.796  10.784  11.580
37156W        W 5561  35.837  14.168   4.604
37157W        W 5562   4.019  11.136   2.262
37158W        W 5563  36.974  29.593  11.685
37159W        W 5564  40.156  15.482   0.661
37160W        W 5565  44.224  18.780  13.826
37161W        W 5566  30.063  36.942  12.395
37162W        W 5567  25.342  14.671  12.518
37163W        W 5568  18.973  25.501  13.424
37164W        W 5569  38.597  17.840   2.333
37165W        W 5570  42.358  12.487   3.772
37166W        W 5571   6.783  26.117  13.433
37167W        W 5572  24.651  24.238   1.437
37168W        W 5573  23.065  15.921   4.055
37169W        W 5574  33.083  23.878   0.716
37170W        W 5575  12.550  23.757   3.261
37171W        W 5576   2.279  18.712  12.538
37172W        W 5577  39.600  20.506  12.117
37173W        W 5578   1.300  36.264   0.800
37174W        W 5579  26.501  36.636  12.982
37175W        W 5580   4.627  15.309  11.948
37176W        W 5581  24.208  22.173  13.482
37177W        W 5582  37.326   7.698  14.518
37178W        W 5583  30.614  41.352  13.779
37179W        W 5584  15.318  15.700  14.400
37180W        W 5585  24.226  30.944  10.689
37181W        W 5586  29.186  34.469   2.285
37182W        W 5587  31.011   3.419  12.880
37183W        W 5588  21.563  36.038   4.663
37184W        W 5589  30.670  28.977   0.976
37185W        W 5590  36.406   7.813   2.960
37186W        W 5591  31.500  23.347   0.080
37187W        W 5592   5.462  18.594   3.714
37188W        W 5593  43.723  35.462  11.445
37189W        W 5594   6.291   1.336   3.744
37190W        W 5595  42.986  13.746   3.967
37191W        W 5596  40.311  20.449   4.516
37192W        W 5597  11.595  16.490   3.432
37193W        W 5598  26.012  13.490   2.341
37194W        W 5599   7.203  36.674   4.512
37195W        W 5600   2.380  41.121   3.130
37196W        W 5601  24.820  37.082   2.776
37197W        W 5602  12.915  41.799   1.021
37198W        W 5603  40.805  39.905   4.856
37199W        W 5604  20.932  41.471  12.399
37200W        W 5605  20.713  37.448  14.467
37201W        W 5606  31.120  21.153   5.022
37202W        W 5607  31.596   4.524   3.736
37203W        W 5608  40.022  19.818   3.010
37204W        W 5609  38.832  37.057  11.186
37205W        W 5610  32.134  37.690  14.748
37206W        W 5611  12.766   4.594   2.828
37207W        W 5612  37.913  29.374  13.507
37208W        W 5613  13.881  31.014  12.064
37209W        W 5614  18.138   4.720  11.905
37210W        W 5615  33.337  14.341   3.913
37211W        W 5616   7.962  10.226   4.649
37212W        W 5617  11.819  15.317   2.877
37213W        W 5618  24.275  23.314  13.845
37214W        W 5619  33.424  26.752  11.595
37215W        W 5620  26.596  25.527  12.019
37216W        W 5621  11.263  35.413  12.426
37217W        W 5622  17.370  42.700   0.409
37218W        W 5623  17.354  27.114   2.746
37219W        W 5624  43.880  13.521   0.243
37220W        W 5625  16.149  33.021   3.081
37221W        W 5626  29.018  21.114  10.763
37222W        W 5627  38.988   3.383  14.312
37223W        W 5628   8.147  26.900   1.612
37224W        W 5629  16.787  42.318  14.223
37225W        W 5630  15.361  12.332  12.042
37226W        W 5631   1.266  18.171   2.555
37227W        W 5632  28.688   6.183  14.050
37228W        W 5633  25.700   5.401   1.043
37229W        W 5634  35.967  29.990   4.550
37230W        W 5635  31.136  13.874  13.344
37231W        W 5636  20.728   2.676   0.858
37232W        W 5637  10.210  41.960  12.373
37233W        W 5638  42.706  38.734  14.882
37234W        W 5639  14.542   8.852  11.359
37235W        W 5640   2.650  20.968  12.620
37236W        W 5641   0.583  12.819  10.723
37237W        W 5642  35.490  35.971   1.080
37238W        W 5643  44.966  11.867  14.443
37239W        W 5644  25.637  14.140   4.428
37240W        W 5645  40.603  23.787   0.845
37241W        W 5646  31.616   2.392  14.808
37242W        W 5647  37.112  16.137   2.168
37243W        W 5648  23.274  30.750  11.122
37244W        W 5649  38.471  43.624   3.152
37245W        W 5650  30.366  23.427   2.484
37246W        W 5651  10.592  22.094  10.755
37247W        W 5652  22.696  42.632  14.854
37248W        W 5653  31.102  12.417  10.770
37249W        W 5654  43.494  13.716  14.987
37250W        W 5655   9.952  35.551  11.146
37251W        W 5656  38.243  16.647   1.782
37252W        W 5657  13.562  28.394   0.796
37253W        W 5658  30.458   4.548   2.588
37254W        W 5659  16.688  35.067   3.678
37255W        W 5660  21.759  19.669   2.800
37256W        W 5661  31.711   2.774   2.623
37257W        W 5662  28.539  13.636   2.398
37258W        W 5663   7.745  12.384   0.421
37259W        W 5664  36.582  20.456   0.719
37260W        W 5665  17.493  44.434   0.815
37261W        W 5666  33.053  20.739   4.336
37262W        W 5667  36.484   8.784  14.471
37263W        W 5668  33.558   1.818   1.367
37264W        W 5669  30.075  28.219  12.416
37265W        W 5670  43.511   3.216  12.120
37266W        W 5671  24.517  16.233   0.192
37267W        W 5672  35.038   1.145  12.655
37268W        W 5673  41.385  41.307  14.958
37269W        W 5674  24.584  13.877   3.257
37270W        W 5675   2.823   7.462   0.092
37271W        W 5676  29.488  22.039  11.549
37272W        W 5677  14.704  10.636  13.014
37273W        W 5678   9.661  32.528   0.917
37274W        W 5679   1.067   0.833  11.458
37275W        W 5680  21.676  41.309   1.199
37276W        W 5681   7.940   9.896   1.272
37277W        W 5682  27.652  42.320   4.269
37278W        W 5683  34.015   4.397   4.746
37279W        W 5684  17.089  30.623   4.552
37280W        W 5685  15.183  21.461   1.932
37281W        W 5686   3.062  28.450  12.756
37282W        W 5687  27.036   4.720   1.756
37283W        W 5688  40.549  14.673   2.872
37284W        W 5689   9.729  19.523   2.274
37285W        W 5690  12.270  41.831  11.741
37286W        W 5691  28.542  35.086   2.318
37287W        W 5692  20.771  20.049   0.645
37288W        W 5693  44.074  22.653   2.908
37289W        W 5694  20.271   9.923   3.117
37290W        W 5695  17.580  12.782  14.850
37291W        W 5696  13.663  21.666  11.195
37292W        W 5697  23.605  17.282   0.255
37293W        W 5698  28.280  40.769   4.648
37294W        W 5699  31.692  10.417   2.389
37295W        W 5700  44.444  31.811  14.455
37296W        W 5701  27.160  13.762   1.544
37297W        W 5702  36.160   5.247   2.245
37298W        W 5703  10.776   9.703   3.202
37299W        W 5704  36.923   2.459  14.432
37300W        W 5705   9.658  28.081  11.168
37301W        W 5706  32.110  19.796   3.191
37302W        W 5707  12.594   9.288  14.410
37303W        W 5708  27.895  31.314  10.240
37304W        W 5709  31.099  44.383  14.791
37305W        W 5710  32.993  37.906  13.821
37306W        W 5711  27.216  26.055  11.862
37307W        W 5712  17.229   0.155  13.050
37308W        W 5713   5.532  38.791  12.525
37309W        W 5714  42.919  40.797  13.365
37310W        W 5715  29.618  18.675  12.489
37311W        W 5716   5.404  33.433   1.382
37312W        W 5717   2.003  21.997   1.202
37313W        W 5718   4.766  25.112  12.788
37314W        W 5719  27.421  19.991  13.850
37315W        W 5720  34.271  40.442   4.216
37316W        W 5721  11.023  33.271  12.892
37317W        W 5722  17.123  12.320  11.250
37318W        W 5723  42.647  17.443  11.124
37319W        W 5724   6.565  20.280   1.231
37320W        W 5725  33.770   2.874  10.585
37321W        W 5726  18.634  27.981  13.390
37322W        W 5727  11.645  19.060  14.303
37323W        W 5728   3.498  37.551  12.519
37324W        W 5729  31.333   0.591  14.149
37325W        W 5730  17.140   6.857  13.186
37326W        W 5731  15.248  33.410   1.337
37327W        W 5732  28.926  23.690  10.663
37328W        W 5733  17.508  42.943   4.632
37329W        W 5734  13.118  34.396   2.307
37330W        W 5735  37.919  24.203   1.814
37331W        W 5736   3.678  43.216  14.911
37332W        W 5737  30.667   8.901  11.067
37333W        W 5738  19.157  20.533  14.882
37334W        W 5739   0.240  21.147   1.947
37335W        W 5740  21.190  37.653  12.049
37336W        W 5741  41.067  40.460   3.617
37337W        W 5742  42.042  27.936   4.721
37338W        W 5743  11.262  20.518   4.306
37339W        W 5744   9.570   2.930   0.058
37340W        W 5745  32.060  10.475  10.287
37341W        W 5746  42.358   5.844  11.002
37342W        W 5747  27.663  39.956  12.356
37343W        W 5748  32.062   8.288   2.876
37344W        W 5749  13.980  32.455   0.216
37345W        W 5750  38.741  21.103  13.949
37346W        W 5751  38.909   2.568   5.599
37347W        W 5752  32.186  26.582  13.102
37348W        W 5753  37.944  10.787  10.982
37349W        W 5754  32.477   1.805  11.508
37350W        W 5755  40.460  35.034  12.036
37351W        W 5756  39.064  27.950  12.985
37352W        W 5757  17.694  18.141   2.707
37353W        W 5758  39.309  15.819   1.751
37354W        W 5759  16.059  13.137   2.368
37355W        W 5760  32.436   1.476  14.503
37356W        W 5761  13.164  29.503   4.676
37357W        W 5762  15.930  32.551   3.230
37358W        W 5763   2.448  14.414  14.864
37359W        W 5764  41.559  15.663  12.475
37360W        W 5765  23.017  24.678   1.315
37361W        W 5766  23.046  32.143  13.508
37362W        W 5767  29.030   8.417   1.462
37363W        W 5768   4.645  11.543   1.903
37364W        W 5769  17.520  21.584   3.796
37365W        W 5770   1.660  40.583  11.166
37366W        W 5771  16.679  24.193   2.388
37367W        W 5772  10.643  42.208  14.041
37368W        W 5773   7.769  39.099   2.399
37369W        W 5774  44.228  30.154  12.139
37370W        W 5775   3.295  29.351  14.310
37371W        W 5776  25.717  25.836   0.337
37372W        W 5777  30.240  29.635  12.339
37373W        W 5778  37.832   0.924  13.954
37374W        W 5779   0.443  40.498   2.364
37375W        W 5780  14.664  14.190   1.510
37376W        W 5781  43.512  30.169  14.023
37377W        W 5782  24.543  12.567   4.640
37378W        W 5783  23.074  24.499  13.286
37379W        W 5784   8.527  22.439  11.544
37380W        W 5785  14.007  17.075   1.040
37381W        W 5786   4.278  14.510   3.811
37382W        W 5787  21.189  35.542   0.696
37383W        W 5788  24.910  43.482  12.368
37384W        W 5789   6.297  37.535   1.859
37385W        W 5790   7.273  12.133   3.710
37386W        W 5791  22.716  24.903  11.960
37387W        W 5792  35.771  40.883   3.739
37388W        W 5793   5.319  10.329   0.383
37389W        W 5794  37.449   2.390  10.343
37390W        W 5795  33.872   4.789  10.081
37391W        W 5796  15.631  33.930  14.494
37392W        W 5797  21.072  35.147  12.981
37393W        W 5798  42.506   7.141   1.256
37394W        W 5799  21.193  20.948   2.735
37395W        W 5800  17.607  10.785   1.876
37396W        W 5801  10.603  40.405   2.832
37397W        W 5802  30.607   5.382  13.977
37398W        W 5803  43.353  41.364   1.229
37399W        W 5804  26.769   3.318   3.745
37400W        W 5805   7.308  28.542   0.732
37401W        W 5806  29.905  24.427  13.354
37402W        W 5807   0.183  20.525  12.958
37403W        W 5808  24.514  21.201  13.729
37404W        W 5809  26.815  31.548   1.749
37405W        W 5810  10.480  18.155   1.263
37406W        W 5811  36.603  14.148   1.470
37407W        W 5812  13.077  29.584  10.510
37408W        W 5813  35.015   9.686  13.752
37409W        W 5814  25.606   3.269   1.186
37410W        W 5815  26.158  37.875   1.266
37411W        W 5816   7.990   3.316  13.887
37412W        W 5817  24.559   2.643  13.398
37413W        W 5818  34.665   5.498   4.206
37414W        W 5819   1.681  43.870  12.556
37415W        W 5820  36.535  21.882   4.080
37416W        W 5821  19.886  27.657  12.940
37417W        W 5822   2.924  13.147  12.077
37418W        W 5823  19.990  29.477   3.487
37419W        W 5824  18.571  24.680  11.622
37420W        W 5825  15.896  32.008  13.997
37421W        W 5826  40.905   5.377  10.210
37422W        W 5827   4.218  30.621  14.469
37423W        W 5828  28.214  32.415  14.303
37424W        W 5829  18.815  10.614   3.320
37425W        W 5830  43.508   4.239   4.152
37426W        W 5831  12.452   6.762   0.377
37427W        W 5832  14.825  38.219   4.626
37428W        W 5833  35.972  34.848   2.071
37429W        W 5834  21.698  38.472   0.563
37430W        W 5835  16.452  43.891  10.580
37431W        W 5836  30.133  42.303  10.654
37432W        W 5837  43.000   8.693   4.365
37433W        W 5838   9.947   3.369   2.076
37434W        W 5839  40.786   0.510   3.475
37435W        W 5840  13.642  43.256   4.981
37436W        W 5841  37.279  39.285  11.766
37437W        W 5842  19.041  20.412   3.346
37438W        W 5843  22.911  23.922  12.078
37439W        W 5844  16.133  12.709   4.129
37440W        W 5845  31.097  26.953   0.655
37441W        W 5846   9.026  29.018   0.897
37442W        W 5847  38.887  37.639   0.417
37443W        W 5848   2.121  35.729  13.947
37444W        W 5849  16.419  41.246  13.899
37445W        W 5850  11.226   2.230  14.196
37446W        W 5851   0.844  20.867  11.360
37447W        W 5852  14.166  42.864  12.671
37448W        W 5853  41.376  21.717  10.772
37449W        W 5854   9.737   9.539   1.854
37450W        W 5855  16.819  31.966   4.099
37451W        W 5856  34.615  22.961   3.127
37452W        W 5857  13.290   1.343   2.263
37453W        W 5858  18.812   1.848  14.758
37454W        W 5859   3.969  43.869   1.302
37455W        W 5860  40.935  27.235   1.836
37456W        W 5861  14.121  19.260   1.080
37457W        W 5862  29.396  31.554  14.711
37458W        W 5863   4.755  28.368   0.401
37459W        W 5864  20.684  22.540   1.634
37460W        W 5865  24.148   7.883   0.798
37461W        W 5866  27.900  14.243  13.063
37462W        W 5867  13.646  13.908  11.684
37463W        W 5868  29.152  36.395   4.319
37464W        W 5869  17.251  15.691  12.964
37465W        W 5870  24.926   2.305   4.455
37466W        W 5871  10.487  31.668  13.594
37467W        W 5872   3.413  41.999  14.455
37468W        W 5873  15.435  24.819  11.122
37469W        W 5874  30.793  22.058   0.534
37470W        W 5875  20.089  42.840   3.672
37471W        W 5876  44.771  29.529   3.563
37472W        W 5877  37.504  21.742   3.132
37473W        W 5878  12.640  40.997   2.195
37474W        W 5879   0.064  18.280  12.739
37475W        W 5880  42.937   9.727   1.031
37476W        W 5881  11.303  35.434  11.905
37477W        W 5882  44.775  44.886   4.843
37478W        W 5883  35.536  19.309   1.300
37479W        W 5884  43.722  33.063  10.706
37480W        W 5885  43.860  24.690  12.573
37481W        W 5886  38.872  28.787  12.396
37482W        W 5887  28.182  10.566   4.645
37483W        W 5888  32.316  44.490   0.273
37484W        W 5889  25.981  41.440  11.198
37485W        W 5890  44.867   3.186   1.404
37486W        W 5891  20.984   1.785   9.968
37487W        W 5892  13.070  16.284   3.026
37488W        W 5893  43.195  44.861   2.665
37489W        W 5894  38.043  25.418   2.846
37490W        W 5895  18.108  32.677  11.434
37491W        W 5896  12.393  26.204   2.380
37492W        W 5897  22.543   1.307   1.197
37493W        W 5898   0.289  25.234  11.644
37494W        W 5899  14.253  13.900   4.567
37495W        W 5900  18.498  19.641   3.203
37496W        W 5901  10.742  20.568  12.893
37497W        W 5902  29.559   5.914  13.588
37498W        W 5903   4.999  30.572   2.476
37499W        W 5904  12.110  24.218   2.639
37500W        W 5905  11.892  35.866  10.096
37501W        W 5906  21.502  38.254  12.063
37502W        W 5907  29.918  29.947   4.456
37503W        W 5908  11.257   4.524  11.823
37504W        W 5909  41.064   9.562  14.459
37505W        W 5910  10.326  10.642   0.755
37506W        W 5911  34.821   0.978  12.091
37507W        W 5912  33.050  41.345   0.571
37508W        W 5913  26.698  37.455   0.681
37509W        W 5914  27.767  38.420   1.232
37510W        W 5915  40.638  38.541   1.906
37511W        W 5916   2.806  17.130   3.720
37512W        W 5917  20.232   4.978   3.782
37513W        W 5918   1.494  22.512  13.519
37514W        W 5919  19.552  37.881   2.299
37515W        W 5920  19.787  28.953  11.125
37516W        W 5921  40.906  38.555  14.550
37517W        W 5922  16.624  36.032   1.937
37518W        W 5923  34.832  15.206  11.382
37519W        W 5924  40.943  22.452   3.548
37520W        W 5925  21.185  18.115   3.133
37521W        W 5926  11.306  15.104   1.416
37522W        W 5927  30.491   3.820  14.933
37523W        W 5928  41.066   6.439  14.402
37524W        W 5929  37.380  16.461   1.310
37525W        W 5930  23.079  26.824  12.347
37526W        W 5931  27.589  44.246  12.972
37527W        W 5932  23.634  40.668  11.444
37528W        W 5933  44.512  23.039   4.118
37529W        W 5934  33.786  11.745   4.594
37530W        W 5935  31.920  17.209  10.578
37531W        W 5936  18.683  26.242   1.737
37532W        W 5937  44.806   8.631  13.499
37533W        W 5938  16.823  43.101  10.046
37534W        W 5939  18.221  11.335   4.325
37535W        W 5940  13.605  38.969  14.804
37536W        W 5941  18.627  31.301   4.071
37537W        W 5942  44.019  44.416   2.851
37538W        W 5943  27.186  10.069   3.184
37539W        W 5944  44.949   8.641  12.555
37540W        W 5945  24.533  34.662   2.740
37541W        W 5946  43.921  13.823  13.378
37542W        W 5947  21.355  27.960  11.671
37543W        W 5948   1.540  14.041  14.434
37544W        W 5949  22.730   1.676  12.031
37545W        W 5950  44.870  13.698   0.369
37546W        W 5951  41.846  23.929   2.325
37547W        W 5952  25.394   0.735  13.401
37548W        W 5953   5.227  18.103  11.495
37549W        W 5954  24.561  29.933  10.950
37550W        W 5955  15.762  37.474   4.177
37551W        W 5956  31.975  42.297   1.049
37552W        W 5957  19.250   8.762  11.419
37553W        W 5958  44.456   8.796  10.721
37554W        W 5959  15.582  17.272  14.264
37555W        W 5960  11.264  18.122   2.849
37556W        W 5961  17.325  22.496   2.698
37557W        W 5962  24.222  44.335  14.516
37558W        W 5963  42.240  20.878  10.740
37559W        W 5964   0.143  23.609   4.650
37560W        W 5965  20.839  17.866  13.045
37561W        W 5966  18.013  18.430  11.104
37562W        W 5967  23.721  15.150  13.587
37563W        W 5968  37.370  29.796   1.035
37564W        W 5969  43.822  22.237  14.807
37565W        W 5970  26.996  32.852   2.287
37566W        W 5971  33.885  30.872  13.462
37567W        W 5972  21.717  13.643  11.679
37568W        W 5973  22.630  36.049   2.958
37569W        W 5974  14.181  38.604   0.968
37570W        W 5975  40.260  26.925   2.659
37571W        W 5976   7.181   3.827   1.218
37572W        W 5977   7.633  21.087  13.312
37573W        W 5978  34.099  39.095  14.684
37574W        W 5979   8.791  16.604   1.339
37575W        W 5980  35.445   0.632   1.331
37576W        W 5981  26.944  18.522   4.990
37577W        W 5982   3.935  17.637   4.123
37578W        W 5983  29.655   7.783  11.488
37579W        W 5984  15.257  25.157   0.378
37580W        W 5985   1.509  27.233  12.904
37581W        W 5986   8.866  42.671  11.105
37582W        W 5987   4.259  27.364  12.064
37583W        W 5988  27.006   1.616   2.447
37584W        W 5989   4.223   6.909   3.133
37585W        W 5990   6.904  34.547   4.093
37586W        W 5991  16.081  11.756   3.359
37587W        W 5992  35.544  44.505   4.071
37588W        W 5993  19.654  42.877   4.549
37589W        W 5994  17.703  17.368  13.801
37590W        W 5995  29.212  31.364   3.850
37591W        W 5996   3.976  26.973   3.371
37592W        W 5997  35.938  15.555  12.809
37593W        W 5998  23.995   8.714  10.721
37594W        W 5999  29.684  32.310   2.198
37595W        W 6000  30.140  24.005   0.940
37596W        W 6001   1.272  23.483   1.193
37597W        W 6002  33.726  38.315  14.951
37598W        W 6003  40.808  24.232  13.973
37599W        W 6004  15.524  29.802  11.584
37600W        W 6005  29.279  13.739  14.813
37601W        W 6006  39.320  17.981   1.359
37602W        W 6007  22.753  20.315  14.462
37603W        W 6008  31.872   4.969   2.929
37604W        W 6009  25.166  40.470  11.660
37605W        W 6010  37.276  10.274   3.705
37606W        W 6011  22.654  11.256   4.177
37607W        W 6012   0.278  25.392  12.510
37608W        W 6013  26.986  23.335   4.080
37609W        W 6014  21.624  24.148   0.462
37610W        W 6015   2.008   0.963  14.359
37611W        W 6016   6.811  42.842  11.628
37612W        W 6017  41.965  18.886   3.291
37613W        W 6018  38.024  10.996   9.993
37614W        W 6019  23.698   2.623   4.930
37615W        W 6020   2.313  18.838   0.213
37616W        W 6021   1.857   5.733  12.073
37617W        W 6022   0.921  18.700  10.706
37618W        W 6023  22.461  40.472  10.175
37619W        W 6024  17.530  42.926   1.657
37620W        W 6025  37.234  19.216   4.813
37621W        W 6026  43.210  39.123  10.692
37622W        W 6027  27.417  17.692  14.450
37623W        W 6028  17.321  32.481   4.626
37624W        W 6029  23.127  21.217  10.597
37625W        W 6030  14.878  44.085   0.860
37626W        W 6031  10.646  18.973  14.976
37627W        W 6032   2.510  16.605  13.372
37628W        W 6033  30.064  37.563  10.572
37629W        W 6034  44.031  29.735   2.569
37630W        W 6035  27.064  42.529   3.602
37631W        W 6036  28.673  33.166  13.990
37632W        W 6037  17.667  17.216   4.170
37633W        W 6038  17.625  15.436   3.701
37634W        W 6039  32.744  17.609   1.081
37635W        W 6040  38.814  40.102  13.326
37636W        W 6041  30.262   3.369   3.376
37637W        W 6042  10.290  33.169   2.490
37638W        W 6043  23.580  12.365  12.848
37639W        W 6044  28.127  20.281   2.721
37640W        W 6045  13.030  40.558   1.244
37641W        W 6046   2.960   7.698   0.524
37642W        W 6047  29.443  36.937   4.901
37643W        W 6048  18.067   6.407  13.077
37644W        W 6049  32.939  44.588   5.173
37645W        W 6050  34.855  30.596  12.602
37646W        W 6051  28.453  11.925   4.572
37647W        W 6052  12.712  20.771   0.057
37648W        W 6053  42.735  36.455   0.378
37649W        W 6054  42.040  33.967   4.588
37650W        W 6055  35.141   1.483   1.698
37651W        W 6056  13.229  14.737  12.605
37652W        W 6057   5.253  32.424   3.724
37653W        W 6058  41.921  26.135   1.808
37654W        W 6059  26.926  27.862  12.824
37655W        W 6060   4.876  35.022  13.063
37656W        W 6061  13.071  41.543  10.168
37657W        W 6062   9.681   1.392   2.895
37658W        W 6063  28.158   3.262  11.107
37659W        W 6064  16.349  18.323   1.794
37660W        W 6065  10.623  18.675   2.500
37661W        W 6066  34.138  16.937   4.226
37662W        W 6067  31.359   2.273   4.101
37663W        W 6068  16.672   4.476   4.075
37664W        W 6069  37.365  20.906  14.644
37665W        W 6070  28.001   3.922  13.237
37666W        W 6071  18.140  44.033   0.797
37667W        W 6072  18.616  24.259  14.368
37668W        W 6073  36.450  30.610   1.367
37669W        W 6074  16.705  27.910  14.497
37670W        W 6075  16.161  15.559  10.406
37671W        W 6076  29.715   0.974   3.255
37672W        W 6077  32.596   7.905  14.415
37673W        W 6078   1.325   8.640  14.353
37674W        W 6079  27.919  40.709   1.983
37675W        W 6080   4.830  13.340  13.857
37676W        W 6081   0.936  21.762  14.266
37677W        W 6082  38.722  33.486  11.306
37678W        W 6083  17.153  41.406  14.947
37679W        W 6084   7.193  30.905  11.580
37680W        W 6085   6.591   6.824   4.759
37681W        W 6086  19.943  28.104   2.337
37682W        W 6087  34.573  41.582  12.430
37683W        W 6088  27.393  14.720  14.482
37684W        W 6089  19.794  39.244  11.936
37685W        W 6090  44.761  23.007   3.677
37686W        W 6091   0.253  24.461   2.352
37687W        W 6092  16.657  14.282   2.720
37688W        W 6093  11.870   1.267   1.410
37689W        W 6094  29.114  16.774  14.031
37690W        W 6095  43.615  20.033   1.764
37691W        W 6096  12.138  18.904  14.276
37692W        W 6097  32.255  12.290  10.919
37693W        W 6098  35.470  19.846   4.726
37694W        W 6099   6.783  15.802   0.698
37695W        W 6100  39.969  32.379  13.002
37696W        W 6101  11.446  19.126  12.128
37697W        W 6102   9.959  19.348   1.715
37698W        W 6103  30.325  33.357  11.278
37699W        W 6104  13.254  20.685   3.476
37700W        W 6105  33.603  44.255   2.046
37701W        W 6106  40.086   7.142  10.947
37702W        W 6107  15.483   6.365   5.158
37703W        W 6108  38.884  16.861   4.316
37704W        W 6109   8.955  22.148  11.544
37705W        W 6110  28.015  43.797   1.163
37706W        W 6111  26.111  20.755   0.007
37707W        W 6112   9.876  20.590   4.701
37708W        W 6113  38.094   6.093  14.367
37709W        W 6114  20.828  26.223  10.431
37710W        W 6115  25.676   2.839   3.324
37711W        W 6116  23.360   5.557  11.220
37712W        W 6117  27.634  42.785  12.346
37713W        W 6118  39.950  31.554   3.758
37714W        W 6119   2.176  12.764  14.722
37715W        W 6120   8.356  10.801  13.241
37716W        W 6121   6.975  17.879  14.821
37717W        W 6122  18.799  16.185   2.744
37718W        W 6123  31.588  20.540   0.461
37719W        W 6124  29.743  28.643   4.127
37720W        W 6125  25.500  13.836   3.577
37721W        W 6126  36.931  25.953   4.604
37722W        W 6127   8.880  34.568  13.087
37723W        W 6128  11.274   8.709  13.847
37724W        W 6129   6.632   3.320  12.972
37725W        W 6130  14.427  39.690  13.565
37726W        W 6131   8.776   0.172  13.249
37727W        W 6132  27.715  31.140   2.683
37728W        W 6133   9.947  16.230  14.912
37729W        W 6134  34.283  18.267  10.455
37730W        W 6135  10.209   0.782  14.393
37731W        W 6136  38.575  23.951  12.896
37732W        W 6137  11.337  28.444  11.651
37733W        W 6138   5.005   0.791  12.151
37734W        W 6139  14.456  32.927   3.285
37735W        W 6140   7.190  38.868   1.390
37736W        W 6141  11.693   6.110   2.655
37737W        W 6142  27.387  27.091   4.478
37738W        W 6143  27.414  25.945   3.230
37739W        W 6144  14.303   5.470  11.541
37740W        W 6145  16.804  43.810  13.911
37741W        W 6146  14.624  27.869  14.949
37742W        W 6147   3.722  37.290   0.540
37743W        W 6148  10.852   7.764   4.452
37744W        W 6149  12.977  26.245   1.836
37745W        W 6150  23.612  39.354   1.572
37746W        W 6151  28.064  32.564   2.398
37747W        W 6152  31.376  39.851  11.113
37748W        W 6153  11.622  40.094  13.982
37749W        W 6154  43.464  17.537   4.642
37750W        W 6155  37.818   4.126   2.210
37751W        W 6156  41.297  42.893   1.122
37752W        W 6157  38.797   8.271   1.086
37753W        W 6158  32.396   1.202   4.588
37754W        W 6159  21.110  22.357   5.026
37755W        W 6160  35.606  31.551   2.170
37756W        W 6161  24.549  13.207  13.484
37757W        W 6162  11.640  38.512   1.439
37758W        W 6163   9.983  36.377  12.199
37759W        W 6164  12.427  10.117  13.442
37760W        W 6165  16.685  40.491   4.593
37761W        W 6166  44.990  21.978   3.561
37762W        W 6167  11.523  24.089  12.148
37763W        W 6168   9.264  11.800  11.190
37764W        W 6169  14.818   3.618   1.465
37765W        W 6170   6.733   0.241   3.303
37766W        W 6171  31.098   0.331   4.339
37767W        W 6172  41.987   9.161  14.174
37768W        W 6173  29.124  34.606   1.786
37769W        W 6174  16.219  36.605  14.421
37770W        W 6175  26.384  26.798   4.580
37771W        W 6176  38.066  15.711   1.956
37772W        W 6177  29.913  36.079   1.763
37773W        W 6178  30.892  16.162   0.489
37774W        W 6179  24.099  36.032  10.289
37775W        W 6180  12.100  33.433   0.304
37776W        W 6181  27.472  43.278  14.821
37777W        W 6182  19.461  42.520  10.624
37778W        W 6183   1.378  19.774   1.281
37779W        W 6184  31.099  17.854  14.530
37780W        W 6185  38.946  44.522   2.182
37781W        W 6186  28.673  41.844  11.701
37782W        W 6187  17.431   6.066   0.251
37783W        W 6188  18.758  30.788   4.155
37784W        W 6189  27.283   4.205  13.639
37785W        W 6190  32.129   0.812   3.343
37786W        W 6191  38.963  16.135   3.682
37787W        W 6192  28.546  17.124  14.949
37788W        W 6193  40.087  24.910  14.408
37789W        W 6194  11.205  36.003  14.904
37790W        W 6195  17.503  23.161  13.880
37791W        W 6196   4.315   0.844   4.582
37792W        W 6197  40.381  16.722   1.714
37793W        W 6198   3.646   5.446   2.536
37794W        W 6199  22.465  28.454  11.977
37795W        W 6200  34.265  14.040  12.469
37796W        W 6201  18.326   0.168   0.038
37797W        W 6202   0.193  25.358  10.840
37798W        W 6203   7.626  31.318   2.845
37799W        W 6204  27.427  29.867   2.737
37800W        W 6205  25.895  31.078   4.536
37801W        W 6206  23.083  30.277   3.652
37802W        W 6207   7.915  44.702   1.774
37803W        W 6208  28.561  42.221  10.164
37804W        W 6209   9.611  18.186   4.178
37805W        W 6210   5.826   4.320  12.407
37806W        W 6211  17.809  24.731  10.326
37807W        W 6212  43.306   4.457  10.590
37808W        W 6213  28.027  30.176  10.713
37809W        W 6214   9.921   2.153  11.225
37810W        W 6215   1.253   7.035   3.406
37811W        W 6216  31.313   9.906   0.429
37812W        W 6217  17.624   1.442  13.437
37813W        W 6218   0.597  37.324  12.967
37814W        W 6219  25.910  38.541   3.912
37815W        W 6220  28.703  32.786   0.482
37816W        W 6221  42.460  31.385  12.038
37817W        W 6222   7.840  33.578   3.216
37818W        W 6223  37.544  23.409   2.070
37819W        W 6224  41.021  19.873  14.296
37820W        W 6225   8.372  44.549  11.932
37821W        W 6226  19.073  41.315  13.568
37822W        W 6227  23.149  36.404  10.689
37823W        W 6228  29.202  25.941  12.039
37824W        W 6229  29.641   4.295   0.866
37825W        W 6230  16.199  38.701  13.888
37826W        W 6231  10.661  39.514  11.874
37827W        W 6232  29.446  15.534  14.973
37828W        W 6233  11.829  18.152   0.233
37829W        W 6234   1.512  30.931   1.695
37830W        W 6235   4.324   4.320   2.285
37831W        W 6236   7.412   3.686  11.212
37832W        W 6237  12.831   6.340   1.516
37833W        W 6238  36.789   4.633   3.792
37834W        W 6239  34.674  44.989   3.279
37835W        W 6240   7.737  35.052   2.775
37836W        W 6241  15.505   2.473  14.491
37837W        W 6242   1.996  35.198   0.415
37838W        W 6243  20.386  16.646   2.556
37839W        W 6244  13.170   5.713  13.740
37840W        W 6245  10.868  10.996  14.797
37841W        W 6246  10.133   2.777   2.312
37842W        W 6247  34.539   8.965  13.405
37843W        W 6248   8.824   8.715   4.498
37844W        W 6249  18.871  42.435  11.957
37845W        W 6250   9.161   9.690   0.658
37846W        W 6251  22.750  15.163   0.877
37847W        W 6252  10.759   5.351  14.828
37848W        W 6253   9.747   6.741   2.467
37849W        W 6254   1.015   1.818  11.658
37850W        W 6255  26.154  13.783   1.910
37851W        W 6256  29.669  26.714   3.630
37852W        W 6257  27.050   5.839  12.066
37853W        W 6258  37.506  40.386   2.343
37854W        W 6259  16.684  24.066  10.840
37855W        W 6260  29.094  14.649  14.872
37856W        W 6261  33.790   7.602   4.388
37857W        W 6262  22.013  16.625  14.885
37858W        W 6263  19.698   1.266  11.564
37859W        W 6264  12.447  36.830   3.294
37860W        W 6265  25.358  25.071  13.547
37861W        W 6266  18.114   0.402  12.110
37862W        W 6267  27.259  41.105  13.883
37863W        W 6268   9.575  20.105   4.700
37864W        W 6269  37.556  25.716   5.179
37865W        W 6270   5.943   1.651  14.288
37866W        W 6271  37.858  43.637  12.468
37867W        W 6272   6.900   6.798  12.242
37868W        W 6273  17.524   9.126   4.138
37869W        W 6274   1.481  18.879   1.424
37870W        W 6275  39.608  40.824  14.930
37871W        W 6276  33.027   4.948  13.198
37872W        W 6277  22.553  35.813   2.013
37873W        W 6278   9.442  24.737  13.489
37874W        W 6279  43.470  15.317   1.237
37875W        W 6280  36.477  24.683  14.264
37876W        W 6281  35.135  20.525  13.995
37877W        W 6282  28.567  22.301   3.810
37878W        W 6283  34.782  34.941  12.571
37879W        W 6284  10.133  28.543   2.459
37880W        W 6285  44.768   3.045   3.778
37881W        W 6286  43.325  31.489   4.506
37882W        W 6287  11.063  26.994  13.476
37883W        W 6288   0.161  32.994   2.746
37884W        W 6289   6.228  19.711   4.813
37885W        W 6290   3.399  44.123   3.092
37886W        W 6291   3.385  12.315   4.604
37887W        W 6292  38.781   6.838  12.355
37888W        W 6293  42.196   9.270  12.799
37889W        W 6294   5.818  35.957  14.067
37890W        W 6295  26.743  13.332  10.753
37891W        W 6296  11.831  40.348   4.693
37892W        W 6297  23.144   8.380  13.501
37893W        W 6298  42.770   5.824  14.167
37894W        W 6299  37.582  19.072   2.664
37895W        W 6300   4.609  31.508   0.494
37896W        W 6301  26.114  22.619   0.432
37897W        W 6302  39.291  10.336   2.766
37898W        W 6303  15.360   1.951  11.737
37899W        W 6304  21.685  42.377  13.858
37900W        W 6305   0.266  40.135   1.341
37901W        W 6306  24.727   3.434  14.994
37902W        W 6307   8.286  42.323  12.626
37903W        W 6308   4.827   6.464  12.368
37904W        W 6309  15.008  38.435   2.073
37905W        W 6310  18.616  31.331   9.997
37906W        W 6311  17.286  16.151  14.369
37907W        W 6312  22.456  34.542  10.336
37908W        W 6313  39.296  33.017  11.025
37909W        W 6314  39.862  41.115   2.674
37910W        W 6315  20.661   5.718   1.949
37911W        W 6316  42.522  39.770  14.238
37912W        W 6317  20.256   1.301   2.800
37913W        W 6318  11.397  28.992   3.679
37914W        W 6319   3.973  14.738   1.653
37915W        W 6320  16.457  25.214   3.796
37916W        W 6321   5.291  16.322  14.166
37917W        W 6322  19.267  37.004   0.269
37918W        W 6323  41.268  39.469   1.420
37919W        W 6324  43.570  39.459   2.458
37920W        W 6325   6.161   8.600  12.104
37921W        W 6326   6.682  43.180  14.463
37922W        W 6327   8.199  35.344   2.794
37923W        W 6328  14.306  14.806  14.831
37924W        W 6329  35.165  27.187  13.424
37925W        W 6330  16.468  41.970   4.593
37926W        W 6331  25.065  14.130  10.683
37927W        W 6332   6.775  30.839  12.351
37928W        W 6333  44.180  18.285  10.694
37929W        W 6334  30.684  39.036   4.770
37930W        W 6335  10.207   3.709   2.380
37931W        W 6336  28.752  14.581  11.916
37932W        W 6337  27.192  17.134   1.730
37933W        W 6338  41.313  27.992   1.850
37934W        W 6339  16.337  26.178  14.748
37935W        W 6340   2.777  34.530   4.092
37936W        W 6341  19.383  32.174   1.916
37937W        W 6342  27.641  43.968   1.927
37938W        W 6343  17.568  18.166  12.530
37939W        W 6344   4.767  27.163  13.929
37940W        W 6345  21.534   7.224   4.129
37941W        W 6346   5.365   6.936  10.393
37942W        W 6347  24.305  26.467  10.585
37943W        W 6348  25.798  15.587   3.688
37944W        W 6349  31.444  36.455   2.969
37945W        W 6350   9.185  31.154   9.855
37946W        W 6351   0.877  28.479   0.029
37947W        W 6352  18.999   6.704   2.674
37948W        W 6353  12.792  44.358   9.834
37949W        W 6354  32.130  13.462   0.875
37950W        W 6355  19.554  42.027   2.398
37951W        W 6356  39.487  23.231   3.204
37952W        W 6357  19.989   7.417  13.483
37953W        W 6358  18.232  38.815  14.180
37954W        W 6359  32.210  35.406   3.669
37955W        W 6360  20.160  31.033  13.343
37956W        W 6361  36.534  21.055  10.555
37957W        W 6362  40.100  11.379   4.076
37958W        W 6363  17.557  32.036  10.521
37959W        W 6364  10.376   0.725  13.902
37960W        W 6365  18.219   9.211   3.680
37961W        W 6366  30.217  24.620  14.273
37962W        W 6367  13.102  15.703   1.894
37963W        W 6368  28.603  20.870  13.098
37964W        W 6369  42.998  18.562   1.410
37965W        W 6370  11.732  19.207  11.640
37966W        W 6371  40.906  12.315  13.462
37967W        W 6372  38.440  10.792   0.050
37968W        W 6373  33.500  23.966   2.760
37969W        W 6374   6.670  13.429   2.295
37970W        W 6375  19.657  11.916  11.734
37971W        W 6376  40.527  38.125   2.404
37972W        W 6377  29.726  41.837   3.715
37973W        W 6378  10.877  20.963  11.924
37974W        W 6379  33.101  10.752  12.608
37975W        W 6380  43.033  29.564   1.456
37976W        W 6381  30.179  32.422   2.297
37977W        W 6382  44.410   8.852   3.230
37978W        W 6383  20.189  33.877  11.451
37979W        W 6384  17.805  42.228   0.438
37980W        W 6385   5.086  17.143  10.488
37981W        W 6386  40.998   1.228   4.049
37982W        W 6387  30.999  19.679   2.258
37983W        W 6388   4.782   6.319   1.905
37984W        W 6389  18.464  43.243   1.111
37985W        W 6390  24.138  26.615   1.284
37986W        W 6391  13.281  32.388  11.692
37987W        W 6392   0.802  20.116  14.754
37988W        W 6393  23.960  19.882  11.081
37989W        W 6394  23.839  24.667  13.117
37990W        W 6395  25.577  28.726   0.409
37991W        W 6396  13.244  38.315  14.520
37992W        W 6397  11.184  32.046   0.027
37993W        W 6398   3.437   6.939  11.203
37994W        W 6399  29.134  22.155   1.173
37995W        W 6400  41.464  31.734   4.992
37996W        W 6401  34.963   8.688  13.257
37997W        W 6402  41.301  42.386  11.579
37998W        W 6403  27.921   9.388  10.618
37999W        W 6404  24.670  12.294  10.736
38000W        W 6405  14.815  39.504   3.718
38001W        W 6406  34.592  40.424   2.296
38002W        W 6407  22.242  27.340   3.282
38003W        W 6408  28.482  27.467   0.748
38004W        W 6409  42.179  34.413   2.186
38005W        W 6410  10.086   8.948   5.054
38006W        W 6411  15.175   1.776   4.484
38007W        W 6412  44.390  24.852  14.376
38008W        W 6413  42.995  30.960  13.865
38009W        W 6414  35.562  18.285   2.783
38010W        W 6415  30.400  21.537  14.844
38011W        W 6416  33.884  27.925   1.331
38012W        W 6417   4.767   5.701   1.217
38013W        W 6418  26.200   8.725   4.593
38014W        W 6419  35.543   0.410  14.204
38015W        W 6420  37.367  40.072  10.979
38016W        W 6421  39.637  33.255   1.435
38017W        W 6422  35.035   1.922  13.641
38018W        W 6423  33.305  30.423   9.963
38019W        W 6424  44.472  43.809   1.878
38020W        W 6425   3.887   6.743   2.776
38021W        W 6426   2.688   1.906   4.024
38022W        W 6427   7.655  43.796   1.859
38023W        W 6428  40.588  15.358   5.045
38024W        W 6429  11.465  24.722   0.722
38025W        W 6430   3.040  17.299   2.156
38026W        W 6431   6.246  17.379   2.438
38027W        W 6432   5.941  21.525   3.269
38028W        W 6433  41.999  22.030   4.825
38029W        W 6434  36.719   1.885  12.870
38030W        W 6435   2.036   2.887  10.627
38031W        W 6436  31.823  23.719   0.372
38032W        W 6437   3.321  19.295  13.007
38033W        W 6438   5.766  38.516   3.198
38034W        W 6439  30.605  11.600  12.452
38035W        W 6440   9.316  14.972   4.597
38036W        W 6441   3.735   1.274   3.658
38037W        W 6442  44.704  37.087   2.271
38038W        W 6443  38.292   4.317  13.568
38039W        W 6444   2.462  35.320   4.104
38040W        W 6445  30.597  39.834  11.614
38041W        W 6446   6.153  18.860  14.940
38042W        W 6447  15.460  28.535   0.937
38043W        W 6448  13.579   7.601  12.385
38044W        W 6449  11.798   8.859  14.565
38045W        W 6450  33.817  43.612  12.085
38046W        W 6451  25.147  28.416   0.853
38047W        W 6452  26.826   8.259  14.395
38048W        W 6453  22.678  20.291   3.244
38049W        W 6454  32.431  32.457  13.818
38050W        W 6455  12.655  37.857  14.851
38051W        W 6456   2.051   3.372   0.975
38052W        W 6457  20.688  12.739   1.653
38053W        W 6458  26.675  17.812  11.116
38054W        W 6459  30.660  40.428  11.959
38055W        W 6460  25.796  33.869  11.331
38056W        W 6461   1.532  12.021  11.991
38057W        W 6462  37.237  43.322   1.894
38058W        W 6463  31.280   4.943  12.883
38059W        W 6464  21.228  37.953   0.710
38060W        W 6465   5.885  13.855  13.850
38061W        W 6466  13.175   7.362   1.597
38062W        W 6467  10.549  18.162  11.805
38063W        W 6468  36.489  31.033  13.895
38064W        W 6469  22.286  22.251   0.807
38065W        W 6470  39.089  44.968  12.807
38066W        W 6471  10.254  29.397   1.374
38067W        W 6472  19.546   1.152   1.680
38068W        W 6473  11.165   1.456  13.074
38069W        W 6474  35.557   7.754  13.494
38070W        W 6475  11.272   8.906   0.342
38071W        W 6476  21.144   1.487   4.395
38072W        W 6477  19.585  22.258   0.665
38073W        W 6478  33.096   2.947   2.376
38074W        W 6479  18.110   2.028   4.158
38075W        W 6480   3.730  22.325   3.600
38076W        W 6481  32.794  28.755   3.379
38077W        W 6482  43.916   4.475  13.953
38078W        W 6483   2.198  38.290  13.441
38079W        W 6484  44.882  38.132  13.356
38080W        W 6485  29.496   7.557  13.901
38081W        W 6486  18.330  35.407   1.381
38082W        W 6487   6.258  17.807   9.822
38083W        W 6488  40.556  26.398  13.352
38084W        W 6489  36.984  44.240  11.225
38085W        W 6490  37.036  32.689   0.681
38086W        W 6491  20.414  42.304  13.772
38087W        W 6492  33.096   6.191   3.200
38088W        W 6493  33.624  35.315  14.766
38089W        W 6494  31.826  36.066  13.205
38090W        W 6495  44.030  28.544  11.522
38091W        W 6496  13.502  27.242  11.213
38092W        W 6497   0.207  36.861  12.937
38093W        W 6498  17.752   6.453  11.491
38094W        W 6499   3.872  15.767   2.732
38095W        W 6500  40.790   4.982  12.002
38096W        W 6501  29.537  40.280  13.403
38097W        W 6502  40.913  43.550  11.735
38098W        W 6503  13.117  26.998   2.293
38099W        W 6504  17.203  35.328  11.120
38100W        W 6505  38.946   8.592   0.689
38101W        W 6506  24.397   7.274   4.689
38102W        W 6507  35.631  25.238  11.568
38103W        W 6508   1.439  20.010   0.781
38104W        W 6509  32.554  38.617  13.982
38105W        W 6510  14.264   9.641   3.265
38106W        W 6511  37.573  44.234   2.732
38107W        W 6512  11.245   3.956   4.627
38108W        W 6513  34.098  27.128  11.104
38109W        W 6514   8.544  29.000  12.634
38110W        W 6515  31.352  36.079   4.325
38111W        W 6516  16.700   6.165  10.137
38112W        W 6517  18.631  10.177   3.164
38113W        W 6518  20.459   6.642  13.975
38114W        W 6519   1.497   2.201  13.997
38115W        W 6520  35.922   9.461   4.138
38116W        W 6521  27.504  18.016   0.777
38117W        W 6522  16.832  14.475   0.881
38118W        W 6523  44.759  31.572   0.439
38119W        W 6524   9.588   1.789  11.390
38120W        W 6525  14.211  22.448   1.366
38121W        W 6526  41.179   4.228  11.405
38122W        W 6527  27.376  21.486  11.192
38123W        W 6528  22.135  15.988  12.385
38124W        W 6529   5.828  21.521  11.590
38125W        W 6530   3.995  12.180   4.894
38126W        W 6531   1.351  12.563  14.384
38127W        W 6532  33.397  31.369   3.022
38128W        W 6533  29.110  25.112  13.819
38129W        W 6534  34.079   6.268  13.456
38130W        W 6535  16.726  43.511   2.424
38131W        W 6536   2.461  24.130   0.450
38132W        W 6537  23.975  33.650  11.541
38133W        W 6538  30.423  36.835  10.638
38134W        W 6539  36.449   3.430  11.101
38135W        W 6540  41.555  25.629   1.313
38136W        W 6541   5.283  42.346  13.537
38137W        W 6542  33.141  15.075  13.329
38138W        W 6543  44.926  30.577   1.180
38139W        W 6544  27.733  20.517  13.519
38140W        W 6545   4.752   5.916  13.110
38141W        W 6546  37.050  40.951  14.833
38142W        W 6547  14.516  16.545   4.850
38143W        W 6548  16.228  15.571   0.441
38144W        W 6549  43.488   9.628  14.795
38145W        W 6550  27.442  37.861   2.776
38146W        W 6551  43.617  40.775  14.888
38147W        W 6552   5.371  31.671  10.529
38148W        W 6553  13.404  23.410   3.568
38149W        W 6554   7.288  43.734  12.999
38150W        W 6555   0.771   3.745   4.893
38151W        W 6556  24.222   6.960  14.335
38152W        W 6557   0.348   9.792  11.331
38153W        W 6558  15.097   9.819  11.107
38154W        W 6559   7.851   2.192  13.870
38155W        W 6560   8.899  32.634   2.261
38156W        W 6561  29.498   0.023   3.578
38157W        W 6562  33.451  43.711   3.398
38158W        W 6563  10.903  44.356   0.351
38159W        W 6564  14.698  24.512   1.555
38160W        W 6565  40.513  11.208   1.323
38161W        W 6566  40.883   7.357  10.352
38162W        W 6567   5.442  35.015   1.020
38163W        W 6568  27.982  36.834  14.099
38164W        W 6569   5.960   9.357   1.905
38165W        W 6570  35.151   7.930  12.139
38166W        W 6571  12.178  43.161   3.772
38167W        W 6572  13.069  38.069   3.845
38168W        W 6573  42.851  17.710   2.766
38169W        W 6574  17.255  31.565   4.165
38170W        W 6575  39.437  41.761  10.595
38171W        W 6576  36.559  39.020   3.781
38172W        W 6577  12.094  10.394   0.176
38173W        W 6578  42.720   6.412   0.792
38174W        W 6579  19.134  19.615  11.449
38175W        W 6580  14.677  38.350  13.168
38176W        W 6581  22.292  17.522   2.487
38177W        W 6582  24.486   9.021   5.088
38178W        W 6583  12.686  32.484   3.522
38179W        W 6584   7.833   0.489   3.647
38180W        W 6585  26.214   4.200   1.805
38181W        W 6586  30.742  24.508   1.174
38182W        W 6587  38.209  20.795  10.809
38183W        W 6588  22.679   3.302   2.373
38184W        W 6589  30.013  10.119  12.025
38185W        W 6590  21.475  21.523   2.397
38186W        W 6591   9.695  39.773   3.260
38187W        W 6592  36.141  36.958  13.103
38188W        W 6593   8.866  22.998   1.674
38189W        W 6594  12.071   6.194  14.681
38190W        W 6595  29.144  26.216   2.017
38191W        W 6596  18.268  32.074   9.686
38192W        W 6597   1.002  36.285   3.843
38193W        W 6598  17.118  13.177  14.810
38194W        W 6599  37.427  31.989   1.820
38195W        W 6600  13.076  30.453   2.661
38196W        W 6601   9.322  13.850  11.180
38197W        W 6602  43.666   4.994  12.600
38198W        W 6603  34.133  15.360   0.118
38199W        W 6604  27.121  30.681  13.469
38200W        W 6605  25.776   4.879  14.832
38201W        W 6606  31.218  42.861   3.221
38202W        W 6607  43.359  18.707  13.519
38203W        W 6608   9.904  33.188  14.050
38204W        W 6609  16.358  31.669  14.526
38205W        W 6610  35.165   3.125  10.770
38206W        W 6611  36.578  15.234   2.266
38207W        W 6612  38.556   2.979  14.266
38208W        W 6613  21.297   2.849  11.226
38209W        W 6614   6.819  24.252  12.110
38210W        W 6615  12.997  23.252  11.230
38211W        W 6616   8.956  16.136  11.282
38212W        W 6617   5.706  25.445   4.518
38213W        W 6618  24.226  22.599  11.425
38214W        W 6619  16.542  21.654  14.675
38215W        W 6620  28.131   3.391   9.981
38216W        W 6621  37.112  22.585  12.189
38217W        W 6622   5.671  17.602   4.173
38218W        W 6623  15.805  34.047  11.272
38219W        W 6624  40.494  13.854  12.971
38220W        W 6625   9.203  35.115   0.962
38221W        W 6626  33.611  32.566   3.908
38222W        W 6627  27.461  20.064  12.822
38223W        W 6628  31.467  34.884   4.484
38224W        W 6629   7.107   4.767   4.589
38225W        W 6630  34.515  31.129  10.659
38226W        W 6631   2.245   7.449   1.871
38227W        W 6632  38.090  43.157  12.508
38228W        W 6633  12.480   4.226  14.870
38229W        W 6634  37.236  25.750   1.798
38230W        W 6635  43.336   7.683   2.776
38231W        W 6636  42.996   9.913  11.130
38232W        W 6637  30.952  43.372   1.492
38233W        W 6638  28.050  17.255  14.838
38234W        W 6639  20.800   4.729  13.485
38235W        W 6640  16.634  34.303  13.801
38236W        W 6641  10.547  41.504  13.438
38237W        W 6642  30.651  23.936  12.073
38238W        W 6643  18.046  30.531  10.710
38239W        W 6644   5.188  23.752  12.554
38240W        W 6645  44.947  12.381   3.287
38241W        W 6646   5.953  13.772   2.329
38242W        W 6647  42.845  14.890  12.513
38243W        W 6648  27.065  26.712   2.267
38244W        W 6649  19.990  16.665   4.664
38245W        W 6650  21.601  20.789  13.924
38246W        W 6651  33.350  29.242  12.723
38247W        W 6652  10.253  13.369  11.947
38248W        W 6653  11.256  17.244  11.526
38249W        W 6654  33.305  19.846   0.584
38250W        W 6655  27.099   0.563  13.908
38251W        W 6656  22.269  37.976   2.815
38252W        W 6657   8.302   4.311   4.185
38253W        W 6658   6.848   1.313  11.264
38254W        W 6659  36.884  18.598  10.674
38255W        W 6660  14.327  39.133   2.742
38256W        W 6661  43.913  40.287  13.891
38257W        W 6662  26.713   1.712   4.363
38258W        W 6663  44.824   3.176  10.993
38259W        W 6664  21.031   9.778   1.761
38260W        W 6665  35.382  42.053  11.186
38261W        W 6666  42.955  15.793  10.704
38262W        W 6667  39.954  23.276  13.384
38263W        W 6668  16.607  26.169   3.705
38264W        W 6669  44.888   7.454  11.186
38265W        W 6670  34.083  39.214   0.201
38266W        W 6671  44.891   1.995  11.655
38267W        W 6672  38.651  33.954  11.909
38268W        W 6673   4.180   0.018  13.108
38269W        W 6674  40.308  35.578  10.640
38270W        W 6675   5.718  36.345  10.972
38271W        W 6676  41.046  38.393  13.491
38272W        W 6677  34.828  12.604  13.987
38273W        W 6678  38.937  34.393   0.905
38274W        W 6679  16.165  13.844   4.647
38275W        W 6680  30.711  14.603  12.436
38276W        W 6681   0.296  20.626   1.846
38277W        W 6682  23.106  21.790  12.803
38278W        W 6683   1.832  42.370  13.012
38279W        W 6684  18.260  38.036   0.373
38280W        W 6685  11.989  19.013  12.989
38281W        W 6686   4.467  40.928   2.735
38282W        W 6687  27.581  34.170  11.230
38283W        W 6688   3.568  41.593   5.069
38284W        W 6689  20.148  27.456   1.242
38285W        W 6690  30.607   3.073  12.886
38286W        W 6691  29.892  35.936   3.756
38287W        W 6692   2.044  22.765   2.143
38288W        W 6693  14.163  31.671  14.969
38289W        W 6694  22.675  29.574   0.103
38290W        W 6695   0.839  22.614   3.160
38291W        W 6696   1.720  24.285   4.197
38292W        W 6697  18.189  29.430  10.673
38293W        W 6698  30.903  29.633  13.925
38294W        W 6699  20.587   0.794  10.541
38295W        W 6700  42.915  20.013  12.959
38296W        W 6701  37.146  36.521   0.819
38297W        W 6702  32.482  39.994   2.663
38298W        W 6703  30.072   9.729   3.803
38299W        W 6704  21.340  32.804   0.017
38300W        W 6705  41.592  42.154  14.373
38301W        W 6706  20.185   1.133  10.654
38302W        W 6707  15.895  16.791   0.393
38303W        W 6708  36.492   3.748  13.423
38304W        W 6709  34.476   1.288   1.357
38305W        W 6710  15.035  39.919  14.675
38306W        W 6711  17.561  28.566  14.429
38307W        W 6712  16.573  16.713  12.494
38308W        W 6713   3.337   4.357  13.856
38309W        W 6714  17.256  42.438   4.702
38310W        W 6715  34.865  37.905  14.017
38311W        W 6716  15.670  19.676  11.616
38312W        W 6717  28.459  43.845   0.861
38313W        W 6718  42.526  16.569  12.954
38314W        W 6719   1.531  38.194  14.449
38315W        W 6720  31.080  11.117   4.178
38316W        W 6721   8.117  43.263  13.886
38317W        W 6722  34.253  32.576  11.455
38318W        W 6723  38.429  30.200  12.043
38319W        W 6724  17.083  23.497  11.930
38320W        W 6725  22.973  24.688   2.232
38321W        W 6726  37.513   5.740   1.324
38322W        W 6727  14.604   9.723  11.170
38323W        W 6728   4.213   2.763   0.551
38324W        W 6729  27.986   4.505  12.523
38325W        W 6730  21.902  15.159   3.579
38326W        W 6731   2.765  16.382  11.192
38327W        W 6732   0.788  24.422   3.151
38328W        W 6733   3.323   8.337   1.890
38329W        W 6734  44.852  15.390   0.925
38330W        W 6735  23.048  36.381   2.978
38331W        W 6736  10.742   7.675   1.884
38332W        W 6737  15.635  37.865   2.382
38333W        W 6738  18.595  39.986  10.786
38334W        W 6739  23.550   0.466   0.773
38335W        W 6740   0.434   2.408  14.058
38336W        W 6741  36.014  41.513   2.195
38337W        W 6742   3.554  20.655  12.315
38338W        W 6743  12.867  21.207   4.814
38339W        W 6744   6.418  11.563  13.641
38340W        W 6745  32.967  16.013   0.031
38341W        W 6746  10.359  32.568  10.918
38342W        W 6747   7.094  38.703  13.897
38343W        W 6748  35.348  30.596   2.257
38344W        W 6749  25.924  26.991   1.695
38345W        W 6750  28.967   8.981   3.691
38346W        W 6751   2.771  20.424  14.518
38347W        W 6752  36.604  21.633  11.286
38348W        W 6753  22.461  30.380   2.483
38349W        W 6754  20.874  42.482  13.676
38350W        W 6755  35.955   0.030  14.976
38351W        W 6756  34.798  41.767   3.539
38352W        W 6757  34.645  21.548  12.511
38353W        W 6758  36.829  17.811   3.875
38354W        W 6759  42.502  29.585   3.829
38355W        W 6760   5.960  43.944  13.207
38356W        W 6761  13.739  20.684   4.647
38357W        W 6762  44.552   0.113  13.512
38358W        W 6763   2.957  44.204   3.753
38359W        W 6764   2.925  40.260   0.875
38360W        W 6765  12.339  43.556   3.380
38361W        W 6766  18.562  18.740  13.904
38362W        W 6767   5.841  32.508   4.235
38363W        W 6768  16.426  36.392  12.081
38364W        W 6769   3.704  18.327  13.880
38365W        W 6770   1.484  14.518   2.317
38366W        W 6771  35.483  31.459   5.100
38367W        W 6772  42.107  31.184  11.209
38368W        W 6773  40.766  18.163  12.441
38369W        W 6774  15.820  36.270   2.236
38370W        W 6775  29.013   5.695  10.962
38371W        W 6776  14.285   2.172  13.855
38372W        W 6777  36.358  17.184  11.090
38373W        W 6778  39.987  22.704  10.446
38374W        W 6779  38.821  42.935  13.915
38375W        W 6780  26.709  38.085  13.136
38376W        W 6781   0.645  10.841  11.239
38377W        W 6782  36.601   3.279   0.377
38378W        W 6783  34.031   0.106   4.416
38379W        W 6784  41.449  13.069   0.790
38380W        W 6785  15.713   5.655   2.596
38381W        W 6786  10.564  34.602   0.846
38382W        W 6787  30.754  13.074   1.763
38383W        W 6788   0.333  21.264  12.219
38384W        W 6789  42.090   8.326  10.820
38385W        W 6790  32.595  19.644   1.391
38386W        W 6791  24.679  22.554  10.519
38387W        W 6792  19.671  13.753  11.480
38388W        W 6793  21.512   5.069  12.881
38389W        W 6794   0.883  38.170   3.811
38390W        W 6795  13.332  20.550  10.668
38391W        W 6796  23.208  39.957  11.966
38392W        W 6797  14.531  16.102  14.408
38393W        W 6798   4.870  20.290   0.945
38394W        W 6799  34.359   3.786   3.250
38395W        W 6800  38.659  13.166   3.189
38396W        W 6801  23.501  33.884  11.694
38397W        W 6802  39.920   7.956  13.534
38398W        W 6803  23.143  40.486  14.548
38399W        W 6804  14.642  14.529   0.509
38400W        W 6805  44.875  19.227   3.122
38401W        W 6806   8.735  30.356  11.674
38402W        W 6807   8.424  27.551  13.986
38403W        W 6808  14.854  30.425   3.532
38404W        W 6809  30.228  30.633  13.727
38405W        W 6810  30.540  34.554  13.875
38406W        W 6811  26.889  26.586  11.629
38407W        W 6812   2.986  15.049   4.616
38408W        W 6813   1.723   2.944   4.659
38409W        W 6814  32.516  39.020  12.983
38410W        W 6815   2.717  19.615   1.260
38411W        W 6816  41.223   1.959   4.160
38412W        W 6817  44.096  19.219   2.377
38413W        W 6818  38.477  32.793  14.507
38414W        W 6819   0.786  28.157   1.847
38415W        W 6820   5.399  27.689  13.977
38416W        W 6821  34.169  32.712   2.315
38417W        W 6822  24.525  44.181  13.336
38418W        W 6823  16.549  14.523  12.531
38419W        W 6824  40.395  38.293  11.162
38420W        W 6825   7.662  16.419  12.218
38421W        W 6826  30.490  12.068   4.801
38422W        W 6827   1.635   5.113   4.243
38423W        W 6828   9.241   1.400  13.468
38424W        W 6829   3.512  13.056  11.561
38425W        W 6830  20.030   1.991   0.285
38426W        W 6831  15.367  17.978   1.842
38427W        W 6832  17.231  40.767  14.455
38428W        W 6833  41.576  15.219  12.897
38429W        W 6834  32.683  16.848  11.596
38430W        W 6835  39.907  28.032  11.694
38431W        W 6836   8.851   9.110   3.747
38432W        W 6837  26.457  11.365   2.312
38433W        W 6838  15.394  13.456  12.641
38434W        W 6839  23.274   6.379  12.106
38435W        W 6840  21.238  36.657   3.227
38436W        W 6841  17.327  20.677   3.389
38437W        W 6842  22.292  21.086  12.384
38438W        W 6843  28.626  32.706   4.884
38439W        W 6844   6.862  33.424   3.232
38440W        W 6845  15.070  15.857   4.239
38441W        W 6846   4.902   5.477  10.155
38442W        W 6847  24.745  34.413   0.395
38443W        W 6848  23.624  19.665  13.648
38444W        W 6849  13.772  18.333  12.896
38445W        W 6850  16.490  30.745  10.734
38446W        W 6851  34.021  17.887   3.837
38447W        W 6852  17.016  16.430   2.298
38448W        W 6853   8.996  15.176   4.993
38449W        W 6854  15.127  25.135  11.700
38450W        W 6855   3.792  32.847   3.565
38451W        W 6856  29.044  42.540  13.527
38452W        W 6857   8.765  17.275  11.154
38453W        W 6858  31.341   0.375  10.591
38454W        W 6859  19.495  12.140   4.753
38455W        W 6860   6.882  36.165   3.455
38456W        W 6861  15.760  13.840   2.296
38457W        W 6862  11.170  38.132   2.762
38458W        W 6863  27.212  21.730   2.718
38459W        W 6864   8.321   4.243   1.145
38460W        W 6865  23.351   3.973  14.887
38461W        W 6866   4.665  17.163  11.916
38462W        W 6867   4.281  43.216   4.797
38463W        W 6868   2.249  28.161   0.902
38464W        W 6869  17.716   9.312   4.929
38465W        W 6870  34.669  22.450   3.231
38466W        W 6871   6.357  11.373  14.750
38467W        W 6872  16.284  42.359  13.298
38468W        W 6873   8.873  18.202   9.844
38469W        W 6874  34.676   3.365  12.471
38470W        W 6875  22.270  21.506   3.391
38471W        W 6876  17.285   9.331  11.080
38472W        W 6877  27.881  35.567  11.068
38473W        W 6878  42.999  22.659   4.991
38474W        W 6879  25.010  10.827   2.724
38475W        W 6880  35.551  43.848  10.912
38476W        W 6881  25.924   1.344   4.166
38477W        W 6882  29.717  21.641   2.692
38478W        W 6883  18.528  15.162   3.771
38479W        W 6884  41.720  33.615   3.654
38480W        W 6885  31.442  11.948   1.378
38481W        W 6886  10.751  29.620   2.773
38482W        W 6887  19.325  10.625   3.385
38483W        W 6888  35.869  20.155   0.267
38484W        W 6889  37.945  32.054   5.152
38485W        W 6890  21.293  13.950   3.218
38486W        W 6891  32.195   2.119   4.621
38487W        W 6892  24.426  16.740   0.935
38488W        W 6893   2.181  13.195  14.351
38489W        W 6894  37.774   8.353  11.234
38490W        W 6895   2.713  37.911  14.018
38491W        W 6896  37.560  33.741   3.683
38492W        W 6897  28.639  44.385   1.739
38493W        W 6898   0.306  34.668  14.830
38494W        W 6899  37.917  16.445  10.666
38495W        W 6900  20.945  39.581   0.814
38496W        W 6901  37.540  32.934   1.635
38497W        W 6902  32.491  21.227   3.329
38498W        W 6903  42.779  21.897   1.625
38499W        W 6904  16.617  20.626   2.479
38500W        W 6905  16.273  36.282  14.005
38501W        W 6906  31.963  33.143   0.339
38502W        W 6907  12.402  24.062  10.512
38503W        W 6908  13.147  35.129  14.990
38504W        W 6909  14.675   8.917  10.104
38505W        W 6910  12.674  38.278  13.898
38506W        W 6911  10.903   2.894   4.049
38507W        W 6912  21.618   5.871  14.439
38508W        W 6913  11.308  15.304   2.789
38509W        W 6914  41.596   6.404  13.541
38510W        W 6915  25.905  29.435   4.383
38511W        W 6916   6.645  18.067  14.084
38512W        W 6917  35.030  21.213   1.745
38513W        W 6918  19.850  40.913   0.212
38514W        W 6919  44.865  19.567  13.975
38515W        W 6920  32.807  42.094   1.029
38516W        W 6921  29.259  22.158   3.148
38517W        W 6922  15.333  39.972  13.708
38518W        W 6923  34.610   8.465   0.770
38519W        W 6924  42.105  25.174   0.848
38520W        W 6925  11.094  10.789  11.641
38521W        W 6926  14.393  32.613  14.901
38522W        W 6927  38.313   0.052   2.761
38523W        W 6928  21.510  37.334   2.151
38524W        W 6929   8.508  28.998   0.818
38525W        W 6930  16.593  42.119  14.676
38526W        W 6931  13.548  25.531  13.305
38527W        W 6932  10.702  28.726  11.567
38528W        W 6933  23.507  32.044   4.149
38529W        W 6934   0.124   5.994  10.651
38530W        W 6935  26.445  25.141   0.290
38531W        W 6936  10.608   8.680  13.996
38532W        W 6937   1.244  43.606  14.869
38533W        W 6938  25.154  22.174   4.534
38534W        W 6939  34.948   0.969   2.609
38535W        W 6940  43.832  33.616   4.710
38536W        W 6941  38.424  20.539   3.907
38537W        W 6942  17.305  12.307   1.604
38538W        W 6943  16.758  13.777   4.540
38539W        W 6944  35.919  31.572   4.835
38540W        W 6945  30.930  12.863  14.568
38541W        W 6946  22.813  17.135  10.121
38542W        W 6947  28.094   5.188  11.867
38543W        W 6948  44.396  43.125   5.023
38544W        W 6949  14.667  38.413   3.213
38545W        W 6950  27.111  16.848   0.027
38546W        W 6951  40.498  11.473  11.496
38547W        W 6952  29.444  42.946   0.736
38548W        W 6953  20.965  16.563  14.930
38549W        W 6954  24.947  33.131  11.778
38550W        W 6955  39.699   2.478   1.860
38551W        W 6956   0.933  16.432   0.588
38552W        W 6957   7.390  19.705   1.720
38553W        W 6958   2.854  34.417  14.976
38554W        W 6959  28.059  16.624   2.630
38555W        W 6960   1.501  39.038  11.220
38556W        W 6961  23.767  44.302   1.498
38557W        W 6962  13.428  38.861  13.887
38558W        W 6963   7.900   3.983   0.930
38559W        W 6964  32.556  14.180  11.865
38560W        W 6965  37.589   6.850  11.942
38561W        W 6966  11.993   6.083  12.443
38562W        W 6967  36.797  14.637  10.738
38563W        W 6968  33.221   0.405  14.447
38564W        W 6969   9.297  41.389   3.629
38565W        W 6970  27.134   6.441  13.573
38566W        W 6971  31.465  21.028  14.093
38567W        W 6972   0.963  36.811  11.978
38568W        W 6973  30.583  22.169   2.860
38569W        W 6974  27.464  43.494   2.831
38570W        W 6975   8.164  40.507   2.228
38571W        W 6976   9.367   5.758  11.404
38572W        W 6977  32.472   4.015  12.067
38573W        W 6978  25.042  35.883   3.131
38574W        W 6979  29.197   0.610  14.047
38575W        W 6980  11.763   1.812  14.565
38576W        W 6981  23.171  39.019  12.938
38577W        W 6982  11.896  26.239  12.879
38578W        W 6983   0.243   9.193  12.886
38579W        W 6984  20.933  12.272   3.676
38580W        W 6985   7.209  10.926   1.186
38581W        W 6986  18.089  36.205  14.862
38582W        W 6987  11.685  12.993  12.908
38583W        W 6988   3.253  26.995  10.344
38584W        W 6989  37.844  41.568  10.682
38585W        W 6990   9.812  22.566  11.886
38586W        W 6991   0.397  30.971  14.019
38587W        W 6992  31.396   7.638   1.864
38588W        W 6993   3.462   1.817  13.818
38589W        W 6994   6.445  20.650   2.453
38590W        W 6995  12.339  28.215   2.399
38591W        W 6996  16.868  42.990  13.054
38592W        W 6997  13.307  29.937  14.390
38593W        W 6998  30.651  31.530   3.823
38594W        W 6999  35.316  44.490  12.896
38595W        W 7000   6.594  22.168  14.980
38596W        W 7001  28.957  15.066  11.232
38597W        W 7002  31.464  30.521  13.593
38598W        W 7003  26.845  32.673  12.899
38599W        W 7004  35.498  33.846  12.088
38600W        W 7005  14.568   9.403   4.198
38601W        W 7006  42.010  34.420  12.931
38602W        W 7007  33.626  39.585   3.830
38603W        W 7008  23.997  44.768   1.411
38604W        W 7009  36.532  35.433  14.552
38605W        W 7010  41.019   5.596  12.583
38606W        W 7011  13.832  27.192  12.994
38607W        W 7012   9.318   9.797   3.635
38608W        W 7013  19.699   8.076   3.688
38609W        W 7014  17.508  33.942  12.456
38610W        W 7015  40.524  10.272   1.166
38611W        W 7016  34.397   7.304   0.422
38612W        W 7017  14.815  26.296   4.998
38613W        W 7018   5.118  11.671   3.614
38614W        W 7019   7.865  14.128   4.142
38615W        W 7020   4.786   2.350  12.913
38616W        W 7021  19.601  43.012  14.916
38617W        W 7022  28.426  27.220   4.281
38618W        W 7023  19.618  13.920  14.483
38619W        W 7024  16.108  38.649  11.032
38620W        W 7025  26.139  34.585   3.168
38621W        W 7026  18.680  17.221  12.083
38622W        W 7027   9.682   0.006   4.191
38623W        W 7028  22.445   8.018   2.492
38624W        W 7029  13.296   3.279   1.823
38625W        W 7030  26.493  22.498  10.638
38626W        W 7031  32.505  43.020   4.662
38627W        W 7032  31.122  39.555  14.536
38628W        W 7033   2.683  33.931  14.298
38629W        W 7034  11.180  21.154  10.679
38630W        W 7035   9.642  14.143   3.869
38631W        W 7036  42.007   2.724   1.528
38632W        W 7037  16.584  30.529  13.981
38633W        W 7038   1.215  12.585  13.489
38634W        W 7039  11.203  24.484  12.053
38635W        W 7040  13.278  29.887   3.419
38636W        W 7041  13.197  32.334  11.173
38637W        W 7042  22.288  15.260   1.139
38638W        W 7043  39.535  20.650  10.775
38639W        W 7044  28.503  20.724  14.009
38640W        W 7045  28.891  13.635  13.450
38641W        W 7046  16.155  34.798   5.405
38642W        W 7047  40.923  29.164   2.864
38643W        W 7048  39.404  41.831  14.745
38644W        W 7049  35.317  40.044   2.813
38645W        W 7050  19.169   6.945   4.774
38646W        W 7051  20.185  23.086  11.962
38647W        W 7052  36.865  13.360   3.122
38648W        W 7053  27.694  42.323  12.096
38649W        W 7054  32.558  19.308  13.954
38650W        W 7055  24.239   1.421  14.599
38651W        W 7056  40.487  42.365   1.018
38652W        W 7057  12.788  27.503   2.167
38653W        W 7058  38.316  36.903  12.085
38654W        W 7059  25.091  38.844   2.572
38655W        W 7060  39.269  24.007   4.849
38656W        W 7061  24.477  15.117  13.864
38657W        W 7062  41.019   7.388   3.888
38658W        W 7063   6.192  16.747   3.307
38659W        W 7064  25.532   9.873   0.020
38660W        W 7065  43.996  18.810   3.118
38661W        W 7066  19.690  37.279   3.855
38662W        W 7067  14.296  22.874  12.424
38663W        W 7068  29.365  21.528  14.900
38664W        W 7069  11.248   8.102  14.807
38665W        W 7070  34.375  40.292  11.031
38666W        W 7071  33.917   6.935   3.760
38667W        W 7072  32.005   0.005   1.902
38668W        W 7073  44.010   4.765  12.214
38669W        W 7074  32.849   1.986   3.214
38670W        W 7075  15.107  21.119  14.808
38671W        W 7076  16.860  24.406   0.729
38672W        W 7077   8.596  15.322  10.410
38673W        W 7078  21.958   5.208  10.687
38674W        W 7079  40.303  21.965  10.777
38675W        W 7080  25.571  35.577   4.569
38676W        W 7081  10.109  31.581  14.909
38677W        W 7082  13.219  22.241  14.881
38678W        W 7083  39.510   4.461  12.959
38679W        W 7084  29.056  44.879   3.304
38680W        W 7085  24.133  10.611   1.344
38681W        W 7086  26.487  29.140  11.954
38682W        W 7087  37.820  31.834  11.244
38683W        W 7088  39.165  43.516  10.503
38684W        W 7089  41.136  30.449  14.236
38685W        W 7090   6.043  14.812  11.093
38686W        W 7091  22.059  27.486   1.921
38687W        W 7092  40.477  32.919  11.440
38688W        W 7093  20.191   5.679  11.005
38689W        W 7094  32.144  29.034   2.342
38690W        W 7095  35.366  37.340   3.721
38691W        W 7096  13.342  20.558  12.787
38692W        W 7097   9.374  18.154   9.749
38693W        W 7098   5.487  26.876  11.629
38694W        W 7099  36.000  39.616  11.953
38695W        W 7100  36.171  28.654   1.281
38696W        W 7101   4.823  25.110  13.729
38697W        W 7102  38.640  14.707   2.902
38698W        W 7103  33.837  25.155   2.108
38699W        W 7104  26.063  10.658  13.486
38700W        W 7105  37.942  42.072   2.760
38701W        W 7106  42.267   6.844   2.370
38702W        W 7107   5.068  27.893   5.181
38703W        W 7108  14.151  27.623  14.851
38704W        W 7109  37.928   6.855   1.652
38705W        W 7110  15.332  10.808  11.093
38706W        W 7111  12.819  21.038  11.562
38707W        W 7112  10.420  14.398  13.083
38708W        W 7113  40.407  36.675   2.649
38709W        W 7114   3.418   8.485  11.969
38710W        W 7115  41.614   5.985   1.197
38711W        W 7116  16.578  29.017   2.817
38712W        W 7117  26.291  43.465  11.580
38713W        W 7118   1.610  17.806  12.120
38714W        W 7119   1.684  13.991   3.675
38715W        W 7120  29.396  26.678   0.910
38716W        W 7121  42.406  36.998  14.076
38717W        W 7122  40.276   4.689  13.501
38718W        W 7123   9.680  43.031  14.639
38719W        W 7124  25.994  18.622   4.700
38720W        W 7125  39.905  11.332   0.694
38721W        W 7126   9.384  21.258  12.580
38722W        W 7127  25.994  44.670  11.160
38723W        W 7128   0.668   9.422  10.119
38724W        W 7129  16.699  19.051   0.603
38725W        W 7130   5.014   4.299   2.278
38726W        W 7131  10.697   6.672   2.342
38727W        W 7132  12.862  13.656   1.284
38728W        W 7133  16.474  26.317  13.580
38729W        W 7134   1.530  35.531   3.857
38730W        W 7135  39.619  35.851  11.113
38731W        W 7136   3.702  21.188   1.288
38732W        W 7137  25.274  10.229   0.966
38733W        W 7138  37.443  26.756   1.685
38734W        W 7139  37.801  11.853  11.320
38735W        W 7140  43.412  29.515   2.378
38736W        W 7141   8.905  35.108  11.207
38737W        W 7142  31.059  15.120   1.774
38738W        W 7143  30.539  10.838  10.902
38739W        W 7144  13.626  31.675  10.198
38740W        W 7145  33.479  12.367   0.936
38741W        W 7146  19.446  35.945  11.613
38742W        W 7147  43.363  42.514  14.486
38743W        W 7148  27.380  32.518  10.577
38744W        W 7149  19.593  44.614   2.202
38745W        W 7150  21.177  38.321   4.956
38746W        W 7151  38.622  13.460   0.972
38747W        W 7152  19.093  18.852   3.338
38748W        W 7153  25.243   0.898   4.860
38749W        W 7154   2.011  42.908   3.818
38750W        W 7155  14.795  35.686   4.613
38751W        W 7156   1.013   8.692  12.847
38752W        W 7157   1.393  21.794  13.097
38753W        W 7158  28.469  27.897  13.859
38754W        W 7159  22.961  18.320   1.814
38755W        W 7160  28.666   4.776   0.202
38756W        W 7161  23.050  14.781  10.838
38757W        W 7162  37.115  40.406   1.160
38758W        W 7163   9.792  13.629  11.090
38759W        W 7164   5.262  11.102   4.783
38760W        W 7165  28.465   6.876  13.408
38761W        W 7166  25.936  19.195  11.013
38762W        W 7167  10.386  30.910  13.957
38763W        W 7168  19.962  12.609  14.817
38764W        W 7169  11.833  41.045  11.182
38765W        W 7170   3.489   1.910   1.723
38766W        W 7171   6.671  20.779   1.480
38767W        W 7172   0.917  41.915  10.634
38768W        W 7173   3.294   6.562   4.330
38769W        W 7174  25.752  35.619  12.017
38770W        W 7175  26.137   2.324  10.903
38771W        W 7176  17.272  18.063   4.202
38772W        W 7177  31.118  24.270   3.375
38773W        W 7178  41.410   7.391   2.243
38774W        W 7179   2.909   4.162   2.811
38775W        W 7180  39.879  31.027  10.629
38776W        W 7181  38.871  20.991  14.920
38777W        W 7182   4.527  12.501   3.703
38778W        W 7183  21.259   9.651  11.124
38779W        W 7184  31.639   1.256  11.289
38780W        W 7185  25.936  16.800  13.506
38781W        W 7186  37.087   7.685   0.059
38782W        W 7187  25.358  10.348  14.042
38783W        W 7188   4.738  40.947   2.241
38784W        W 7189  36.880  10.649  10.789
38785W        W 7190  20.689   9.141  11.637
38786W        W 7191  41.991  13.188  11.395
38787W        W 7192  20.462  15.149   2.591
38788W        W 7193   9.305  21.840  11.733
38789W        W 7194  29.395  28.105  13.387
38790W        W 7195  33.897   8.713  12.587
38791W        W 7196  18.303  21.595  13.451
38792W        W 7197  11.701   5.850  14.384
38793W        W 7198  31.177  23.058  10.437
38794W        W 7199  25.949  26.212  12.433
38795W        W 7200  27.657   8.854   3.764
38796W        W 7201  31.436  22.536  12.478
38797W        W 7202  34.498   7.713   1.909
38798W        W 7203  14.552  39.942  14.839
38799W        W 7204  44.570  25.494   4.219
38800W        W 7205  26.582  36.856  11.526
38801W        W 7206   1.942  16.219  13.848
38802W        W 7207  28.732   1.785  10.795
38803W        W 7208  11.277  10.618   2.777
38804W        W 7209  32.840   2.145  12.259
38805W        W 7210  31.548  36.418   1.759
38806W        W 7211  15.104  39.364   3.280
38807W        W 7212  39.959  41.360  12.082
38808W        W 7213  37.061  25.121  11.216
38809W        W 7214  33.512  13.813  10.444
38810W        W 7215   4.803  28.553   1.829
38811W        W 7216  20.718  40.440  14.910
38812W        W 7217  43.903  22.614   0.514
38813W        W 7218  37.781  41.826   3.222
38814W        W 7219  44.033   5.924   0.378
38815W        W 7220  19.709  12.666  11.154
38816W        W 7221  40.687  12.561   0.493
38817W        W 7222  36.571  19.627   5.099
38818W        W 7223   9.361  37.797  11.960
38819W        W 7224  11.915   9.544  13.995
38820W        W 7225  38.399  30.151  13.596
38821W        W 7226   5.371  17.813   1.252
38822W        W 7227  39.552  41.362  12.415
38823W        W 7228   7.662  27.609  10.648
38824W        W 7229  43.521   1.424  11.649
38825W        W 7230  23.029  18.057   0.578
38826W        W 7231  14.862  38.968  14.372
38827W        W 7232  23.813  12.098   3.250
38828W        W 7233  38.074  33.618  12.082
38829W        W 7234  24.458  21.593  12.945
38830W        W 7235   1.540  43.978  13.048
38831W        W 7236  42.531  27.172   0.367
38832W        W 7237  15.272  41.822  14.566
38833W        W 7238  23.007  34.610   0.830
38834W        W 7239   7.250  18.723   3.714
38835W        W 7240  22.509  28.510   2.736
38836W        W 7241  10.712   6.679  13.412
38837W        W 7242   5.928  28.227   3.689
38838W        W 7243  29.364  37.505   1.836
38839W        W 7244  21.534  24.179  12.135
38840W        W 7245  23.056  21.839   2.306
38841W        W 7246  37.776   0.831  12.476
38842W        W 7247  15.826  41.025  11.719
38843W        W 7248  19.276  10.875   0.214
38844W        W 7249  12.255   5.913   2.227
38845W        W 7250  28.567  20.311   3.556
38846W        W 7251  10.407  14.774  14.384
38847W        W 7252   3.204  14.327  13.661
38848W        W 7253  41.828  42.531  13.452
38849W        W 7254  17.349  42.108  13.488
38850W        W 7255  37.324   9.365   3.814
38851W        W 7256  26.115  38.538   4.896
38852W        W 7257  43.366  10.888  14.308
38853W        W 7258  10.129  24.005   3.821
38854W        W 7259  19.783  16.734   4.187
38855W        W 7260  32.183   9.790   3.754
38856W        W 7261  44.466  24.679   0.798
38857W        W 7262  26.034  41.321   3.274
38858W        W 7263  15.632  44.816   4.103
38859W        W 7264   9.550  35.048  13.997
38860W        W 7265  29.640   1.820   1.763
38861W        W 7266  42.721  14.127   2.733
38862W        W 7267  35.033   3.980  14.923
38863W        W 7268   8.911  12.719   1.677
38864W        W 7269  37.076  30.555   1.684
38865W        W 7270  10.829  36.374  14.803
38866W        W 7271  14.810   3.463  13.844
38867W        W 7272   8.111   1.411   1.243
38868W        W 7273  36.985  39.619  13.376
38869W        W 7274   2.959   4.483   3.658
38870W        W 7275  23.346  23.919   0.789
38871W        W 7276  17.217  38.101  13.929
38872W        W 7277   4.018  24.182   3.334
38873W        W 7278   3.939  38.549   0.815
38874W        W 7279   8.787  19.557  13.585
38875W        W 7280  26.490   9.815  14.898
38876W        W 7281  13.477   2.448   3.174
38877W        W 7282  23.529   2.895  14.490
38878W        W 7283  42.724  24.354  13.424
38879W        W 7284  41.481   4.816  14.118
38880W        W 7285   6.848  16.298  14.987
38881W        W 7286  34.003  34.125   4.630
38882W        W 7287  25.637   9.861  13.347
38883W        W 7288  17.598   7.611   4.000
38884W        W 7289  35.756  34.915  12.380
38885W        W 7290  36.476   8.843  11.686
38886W        W 7291  42.600   8.381  11.499
38887W        W 7292  19.598   3.387  11.315
38888W        W 7293   6.172  41.765   1.478
38889W        W 7294   5.351  18.624   2.397
38890W        W 7295  35.968  29.109  13.989
38891W        W 7296  31.976   9.239  10.667
38892W        W 7297  17.095   4.967  11.164
38893W        W 7298  36.364  41.287   1.857
38894W        W 7299  24.174   2.505  11.601
38895W        W 7300  28.683  29.285  14.981
38896W        W 7301  14.211  33.526   0.978
38897W        W 7302  30.387  14.878  12.764
38898W        W 7303  23.051  13.646  11.979
38899W        W 7304  30.934  41.386  14.458
38900W        W 7305  30.568  28.044   2.786
38901W        W 7306  43.010  30.634   4.530
38902W        W 7307   3.222  29.093   4.358
38903W        W 7308  32.421  36.543  12.063
38904W        W 7309  38.630  36.480  13.332
38905W        W 7310  12.154  30.524  10.573
38906W        W 7311  30.031   3.540  14.894
38907W        W 7312  21.826  14.897  14.856
38908W        W 7313  11.736  20.955  12.883
38909W        W 7314   4.782  18.176   1.762
38910W        W 7315  19.465  16.550  14.033
38911W        W 7316  30.696  31.591  14.962
38912W        W 7317  34.606  38.849   1.514
38913W        W 7318  17.313  27.115   1.242
38914W        W 7319  39.286   4.449   2.223
38915W        W 7320  42.176   2.949  14.478
38916W        W 7321  12.331  12.356   4.719
38917W        W 7322  38.242  15.228   1.076
38918W        W 7323  40.818   8.099  11.397
38919W        W 7324   3.203  22.047   3.636
38920W        W 7325  38.021  36.840  14.591
38921W        W 7326  22.750  44.999  10.650
38922W        W 7327  29.582  28.775  10.381
38923W        W 7328  15.934  31.194  10.072
38924W        W 7329  35.656  17.256  12.049
38925W        W 7330  12.803  25.698   1.055
38926W        W 7331  25.901  11.786  11.114
38927W        W 7332   6.900  25.787   0.691
38928W        W 7333  11.705  27.119  10.503
38929W        W 7334  15.764  42.045  11.576
38930W        W 7335   4.054  11.589   3.704
38931W        W 7336  42.008  16.596   3.199
38932W        W 7337  29.381  22.565   2.848
38933W        W 7338  15.056   9.334  14.851
38934W        W 7339   3.290  29.641  11.999
38935W        W 7340  39.013  16.385   4.165
38936W        W 7341   6.235  21.540  11.026
38937W        W 7342  42.227  43.434  14.384
38938W        W 7343  28.613  13.090  14.922
38939W        W 7344  26.461  43.006   2.431
38940W        W 7345   3.280   7.212  12.022
38941W        W 7346   8.252  39.381  14.643
38942W        W 7347  27.982   7.373   1.921
38943W        W 7348  21.867  44.235   0.279
38944W        W 7349  28.457   3.145   3.152
38945W        W 7350  22.543  24.479   1.378
38946W        W 7351  40.061   2.094   4.476
38947W        W 7352   8.202  44.107  11.183
38948W        W 7353  15.101  18.995   0.921
38949W        W 7354  35.410  33.093  12.617
38950W        W 7355  18.610  30.691  13.855
38951W        W 7356  31.462  16.251   3.139
38952W        W 7357  13.589  37.763   2.235
38953W        W 7358   0.470  29.935   1.614
38954W        W 7359   0.765  21.318  13.414
38955W        W 7360  31.901   3.563  14.015
38956W        W 7361  39.823  31.017   2.910
38957W        W 7362  11.718   9.672   2.890
38958W        W 7363   9.840  41.873   0.905
38959W        W 7364  28.100  38.431   0.839
38960W        W 7365  39.474  37.913   1.398
38961W        W 7366  44.959  42.859  10.722
38962W        W 7367  18.521  39.363   1.861
38963W        W 7368  15.318  19.742   0.410
38964W        W 7369  42.615  23.779   3.078
38965W        W 7370  43.149  11.755   0.346
38966W        W 7371   2.956  32.482  12.896
38967W        W 7372  38.463   6.797   1.502
38968W        W 7373  11.245  14.020   0.492
38969W        W 7374  33.999  18.676   3.087
38970W        W 7375  23.767   5.676  10.923
38971W        W 7376   2.234  12.472   3.781
38972W        W 7377  23.722  44.291   2.887
38973W        W 7378  31.624   3.727   0.262
38974W        W 7379  17.294  28.582  13.584
38975W        W 7380   0.851  33.113  11.935
38976W        W 7381  25.378  12.186   1.960
38977W        W 7382  42.958  42.387  11.973
38978W        W 7383  33.442  28.924   5.004
38979W        W 7384  17.036  38.570   3.392
38980W        W 7385  30.550  22.636  13.012
38981W        W 7386  21.271  12.599   2.960
38982W        W 7387   3.148  35.996  14.477
38983W        W 7388  19.018  11.309   0.288
38984W        W 7389  38.372  15.736  10.526
38985W        W 7390   4.789  36.332  11.061
38986W        W 7391  26.405  33.742  13.089
38987W        W 7392  36.481  11.180   4.255
38988W        W 7393  28.520  10.312   4.325
38989W        W 7394  37.175   8.924  11.150
38990W        W 7395  40.090  36.581  12.946
38991W        W 7396  37.400   1.431   4.457
38992W        W 7397  38.795  15.239  14.335
38993W        W 7398   9.954  27.480  11.325
38994W        W 7399  13.793  42.660  12.942
38995W        W 7400  11.663  42.908  14.773
38996W        W 7401   7.454  42.247   4.200
38997W        W 7402  33.931  13.600   4.581
38998W        W 7403  43.227  18.813   4.128
38999W        W 7404  17.915  25.206  10.161
39000W        W 7405  11.340  36.853   0.340
39001W        W 7406  21.258  31.123  14.423
39002W        W 7407  16.127  35.923   0.905
39003W        W 7408  19.079  30.683   4.576
39004W        W 7409  37.425  29.230  13.288
39005W        W 7410   2.042  42.286  12.527
39006W        W 7411  13.378  32.650   0.927
39007W        W 7412  24.544  13.579  12.087
39008W        W 7413  37.940  39.929  12.943
39009W        W 7414  35.056  36.057   2.412
39010W        W 7415   4.376  19.614   4.175
39011W        W 7416  32.652   0.925   4.212
39012W        W 7417  23.221  28.419   1.417
39013W        W 7418  40.555   2.092  11.527
39014W        W 7419  27.376  14.173  11.952
39015W        W 7420  41.494  26.548  11.290
39016W        W 7421  39.954  33.642   3.874
39017W        W 7422  26.602  31.336   3.430
39018W        W 7423   8.033   1.945   5.040
39019W        W 7424   0.304   5.656   2.655
39020W        W 7425  21.461   2.479   1.455
39021W        W 7426  35.841   7.343   0.037
39022W        W 7427  42.319  37.807  11.543
39023W        W 7428   2.239  27.379   0.345
39024W        W 7429  34.074  42.773  12.984
39025W        W 7430   1.487  10.793  12.882
39026W        W 7431  26.519   2.822  14.773
39027W        W 7432   0.541  18.655   4.563
39028W        W 7433  27.006  18.004   4.967
39029W        W 7434  43.955  33.697   3.751
39030W        W 7435  22.307   2.172   1.424
39031W        W 7436  39.972   6.763  14.746
39032W        W 7437  35.491   8.453   0.547
39033W        W 7438   8.863  12.692   2.873
39034W        W 7439  40.898  12.453   2.358
39035W        W 7440  25.752  10.568   3.765
39036W        W 7441  22.964   1.105   1.973
39037W        W 7442   1.229   0.432   1.855
39038W        W 7443   2.250  28.707   4.451
39039W        W 7444   9.289  33.758   2.777
39040W        W 7445   8.814   1.870   0.708
39041W        W 7446  32.554  10.179   1.263
39042W        W 7447  16.201  17.509  11.842
39043W        W 7448  26.587  15.271  14.480
39044W        W 7449  13.244  42.602  10.771
39045W        W 7450  31.742  20.046   0.322
39046W        W 7451   1.830  20.127   1.590
39047W        W 7452  11.127  16.138   4.779
39048W        W 7453  25.947  31.458  11.809
39049W        W 7454  38.772  40.670   5.295
39050W        W 7455  12.676   3.907   1.708
39051W        W 7456  33.412  28.705  14.527
39052W        W 7457   5.873  29.944   0.340
39053W        W 7458  38.049   4.671   9.619
39054W        W 7459  22.020  36.848  14.477
39055W        W 7460  32.343  34.014  13.433
39056W        W 7461   7.785   9.643  13.464
39057W        W 7462  34.157  12.335  12.099
39058W        W 7463  13.580  17.961  13.970
39059W        W 7464   2.443   3.872   1.689
39060W        W 7465  38.862  35.428  11.283
39061W        W 7466  36.728  26.103   2.701
39062W        W 7467  40.928  30.457   4.548
39063W        W 7468  26.923   9.084  13.005
39064W        W 7469  20.639   3.971   2.216
39065W        W 7470  33.088   4.716   0.060
39066W        W 7471  10.499  24.614   3.443
39067W        W 7472  40.216  43.982   2.212
39068W        W 7473  16.289  33.873   0.284
39069W        W 7474  28.928  41.894   1.150
39070W        W 7475   6.637  32.966  11.439
39071W        W 7476  30.056  41.238   1.293
39072W        W 7477  25.213  35.812  14.473
39073W        W 7478   0.188  26.704   2.809
39074W        W 7479  23.642  23.122   2.930
39075W        W 7480  38.757  28.191   2.653
39076W        W 7481  12.671  22.568   2.774
39077W        W 7482  37.230  44.919   0.386
39078W        W 7483  34.509  27.346   3.354
39079W        W 7484  28.987  37.138   1.774
39080W        W 7485  30.727  23.554  11.138
39081W        W 7486  24.603  19.103  10.746
39082W        W 7487  43.203  17.334   2.732
39083W        W 7488  25.030  14.052  11.608
39084W        W 7489  27.839  21.044  10.765
39085W        W 7490  21.281   3.461  13.881
39086W        W 7491  10.988   5.217  12.537
39087W        W 7492   5.998  13.829  11.945
39088W        W 7493  35.011  22.515  11.930
39089W        W 7494  39.042  34.000   2.771
39090W        W 7495  37.619  17.619  13.498
39091W        W 7496   9.860  24.621   3.393
39092W        W 7497  36.957  25.090  12.906
39093W        W 7498   4.060   1.764   4.667
39094W        W 7499  23.152  36.747   2.616
39095W        W 7500  16.749  20.609  13.650
39096W        W 7501  43.274  31.718  12.376
39097W        W 7502   1.669  43.302   0.939
39098W        W 7503  43.896  38.361  14.271
39099W        W 7504  32.017   9.731   3.236
39100W        W 7505  10.697  18.623   4.674
39101W        W 7506  37.099  24.599  12.793
39102W        W 7507  33.032   6.736   1.826
39103W        W 7508  39.071   2.691  10.168
39104W        W 7509  20.422  19.158  11.885
39105W        W 7510  10.779  25.641  12.013
39106W        W 7511  19.882   3.669   0.948
39107W        W 7512  16.551  34.955   0.827
39108W        W 7513   6.314  16.503  10.522
39109W        W 7514  41.708  44.962   3.091
39110W        W 7515  16.684   5.822  13.978
39111W        W 7516  25.020   7.724  13.312
39112W        W 7517  28.019  11.847  12.042
39113W        W 7518  27.188   0.053  12.195
39114W        W 7519   7.173   4.131  11.341
39115W        W 7520  41.097  37.877  14.873
39116W        W 7521  24.709  14.105  12.080
39117W        W 7522  25.164  15.090  13.195
39118W        W 7523  18.906  40.446  14.400
39119W        W 7524  30.180  29.015   1.699
39120W        W 7525  32.588  12.088  12.079
39121W        W 7526   5.944  15.022   4.039
39122W        W 7527  12.888  14.514  14.581
39123W        W 7528  20.278   0.088   4.319
39124W        W 7529  42.978  23.207  10.644
39125W        W 7530   5.352  23.950  14.282
39126W        W 7531  38.127  42.410  12.530
39127W        W 7532  36.553  33.359  13.033
39128W        W 7533  21.285  38.888  10.222
39129W        W 7534  17.725  32.429   3.756
39130W        W 7535  26.619  10.315  11.705
39131W        W 7536   9.438  18.700   3.194
39132W        W 7537  33.191  24.585   0.384
39133W        W 7538  37.622  36.652  10.540
39134W        W 7539  33.244  35.917   2.550
39135W        W 7540  28.177   8.860  13.279
39136W        W 7541   5.724  32.572  14.336
39137W        W 7542  22.091  31.624   3.159
39138W        W 7543  34.086  19.766   4.304
39139W        W 7544  13.396  26.471  10.392
39140W        W 7545   9.578   4.611  14.259
39141W        W 7546  41.232   2.215  10.839
39142W        W 7547   2.144   3.581   2.107
39143W        W 7548  17.445  38.755   0.316
39144W        W 7549  35.129  33.570   4.665
39145W        W 7550   7.223  26.080   4.451
39146W        W 7551   0.350   4.615  11.986
39147W        W 7552  27.125  38.876   3.588
39148W        W 7553  39.290  27.978   3.242
39149W        W 7554  26.583  20.307   2.331
39150W        W 7555  20.507  37.022   0.757
39151W        W 7556  14.737   1.972   1.464
39152W        W 7557  30.494  17.006   1.461
39153W        W 7558  44.934  25.614  14.419
39154W        W 7559  22.960  14.596  11.675
39155W        W 7560  28.609  15.285  13.357
39156W        W 7561  14.179  34.540  11.686
39157W        W 7562  30.445  22.643   2.168
39158W        W 7563  33.617  11.164  14.353
39159W        W 7564  10.656  32.640  14.465
39160W        W 7565  20.301  39.295   2.836
39161W        W 7566   6.038  42.180   3.336
39162W        W 7567  12.136  36.477   0.759
39163W        W 7568   9.656  30.423   4.263
39164W        W 7569  29.964  44.993   4.033
39165W        W 7570  32.582  44.793  11.472
39166W        W 7571   8.671   5.693  13.113
39167W        W 7572  18.301  39.251  11.129
39168W        W 7573   2.029  44.227  12.382
39169W        W 7574  16.879  12.025  10.911
39170W        W 7575  16.304  43.443  14.743
39171W        W 7576   6.297  18.833   5.006
39172W        W 7577  44.500  35.343   3.647
39173W        W 7578  42.806  31.622   0.194
39174W        W 7579  27.011  16.140  13.787
39175W        W 7580  20.304   8.294   2.207
39176W        W 7581  33.630  31.841   2.877
39177W        W 7582  11.858  38.283   0.049
39178W        W 7583  34.395  25.685  12.524
39179W        W 7584  18.169  38.130  13.317
39180W        W 7585   8.889  12.927  12.483
39181W        W 7586  18.102  23.069  12.116
39182W        W 7587  27.070  34.162  12.065
39183W        W 7588   3.010  21.851   4.086
39184W        W 7589  43.475   3.477  10.762
39185W        W 7590  20.769   3.689   1.139
39186W        W 7591  39.421  29.907   0.721
39187W        W 7592   7.438  38.987   2.807
39188W        W 7593  17.679  43.727  11.634
39189W        W 7594  36.601  21.568  10.777
39190W        W 7595  17.723  36.914  13.001
39191W        W 7596   3.388  27.938  12.387
39192W        W 7597  17.902  10.197   1.340
39193W        W 7598  10.225  40.426  14.417
39194W        W 7599  13.744  39.757   1.424
39195W        W 7600  39.899  42.503  13.150
39196W        W 7601  10.331  11.134  12.417
39197W        W 7602  34.506   9.801  11.861
39198W        W 7603  22.911  30.315   2.238
39199W        W 7604  29.574  33.939   0.380
39200W        W 7605  26.597  11.009  10.470
39201W        W 7606   5.701  15.026  12.500
39202W        W 7607  19.990  18.053  14.377
39203W        W 7608   2.432  16.117   3.289
39204W        W 7609  35.913   3.657  14.563
39205W        W 7610   0.728  10.238   4.397
39206W        W 7611  17.771  12.101   4.379
39207W        W 7612   5.179  34.496  13.956
39208W        W 7613  25.646  40.082   3.212
39209W        W 7614  12.596  36.018   3.852
39210W        W 7615  26.839  27.553   1.283
39211W        W 7616  13.203  19.687  14.040
39212W        W 7617  35.401  38.150  12.373
39213W        W 7618  17.186  42.730   2.356
39214W        W 7619   8.222  10.300  11.165
39215W        W 7620  44.092  34.188   3.857
39216W        W 7621   3.182  13.583  13.959
39217W        W 7622  11.846  42.107   3.290
39218W        W 7623   5.345  25.325   0.354
39219W        W 7624  42.715  27.333  13.891
39220W        W 7625  12.351  15.951  11.506
39221W        W 7626   7.324   9.178  11.600
39222W        W 7627  24.232  20.629  12.507
39223W        W 7628   1.612   4.772   0.295
39224W        W 7629  32.603   2.847  14.813
39225W        W 7630  39.032   1.533  11.556
39226W        W 7631   9.185   2.330   3.848
39227W        W 7632  34.028  37.748  14.891
39228W        W 7633   8.128  17.049  12.337
39229W        W 7634  14.170  17.749  11.956
39230W        W 7635   2.750   3.845   4.459
39231W        W 7636  11.105   2.055   4.937
39232W        W 7637   5.983  18.234  11.008
39233W        W 7638  20.957  25.929  10.035
39234W        W 7639  28.217  13.223  13.032
39235W        W 7640  42.830  35.575   0.331
39236W        W 7641   1.354  19.727  12.885
39237W        W 7642  18.609   3.494  13.758
39238W        W 7643  39.162  40.455   3.641
39239W        W 7644   3.004   6.825  10.304
39240W        W 7645  40.485   3.838  11.172
39241W        W 7646   2.726  36.368  12.858
39242W        W 7647   8.198   8.365   0.706
39243W        W 7648   9.346  14.196   0.577
39244W        W 7649  23.481  40.025   1.664
39245W        W 7650  31.079  16.540   3.375
39246W        W 7651  42.650  21.875  12.563
39247W        W 7652  39.817  38.842   4.470
39248W        W 7653  28.450  13.061   1.773
39249W        W 7654  18.189  24.790  13.259
39250W        W 7655  36.930   1.346   2.722
39251W        W 7656  14.811  26.611   1.478
39252W        W 7657  15.326   4.764   2.876
39253W        W 7658  34.932   9.615  10.709
39254W        W 7659   5.210  12.870  14.970
39255W        W 7660  11.614  44.458  14.997
39256W        W 7661  37.473  12.325  14.753
39257W        W 7662  21.476  43.819  12.140
39258W        W 7663  16.484  38.883  13.472
39259W        W 7664  28.603  18.607  13.587
39260W        W 7665  14.058  15.232  14.668
39261W        W 7666  26.478  32.050   4.150
39262W        W 7667  21.205   2.660   0.239
39263W        W 7668   5.607   8.147  11.556
39264W        W 7669  23.171  20.325   3.029
39265W        W 7670   6.905  28.446  12.918
39266W        W 7671  17.974  11.696  13.651
39267W        W 7672  44.550   6.862   1.771
39268W        W 7673  17.424  32.281   2.773
39269W        W 7674  41.865  42.398  11.162
39270W        W 7675  36.058  33.468   2.245
39271W        W 7676  44.252  13.213  10.718
39272W        W 7677  38.372  37.597  14.301
39273W        W 7678  13.376  24.534  13.209
39274W        W 7679  32.528  23.970  12.874
39275W        W 7680  25.730   4.124   3.125
39276W        W 7681   9.757  20.399   2.634
39277W        W 7682  31.734  33.560  13.160
39278W        W 7683  18.178  43.216  13.375
39279W        W 7684  17.227  42.975  13.818
39280W        W 7685  37.610  27.165   4.395
39281W        W 7686  10.426  33.034  10.691
39282W        W 7687  28.647  28.541   5.060
39283W        W 7688  13.597   4.918  13.718
39284W        W 7689  37.949  23.042  10.594
39285W        W 7690   9.448  10.338  13.196
39286W        W 7691  18.271  33.947   9.645
39287W        W 7692  34.594  28.605  11.855
39288W        W 7693  33.114  12.314  12.055
39289W        W 7694   8.420  24.416  14.449
39290W        W 7695  39.864   5.311   0.002
39291W        W 7696  20.503  21.090   0.388
39292W        W 7697   2.609  35.623  14.055
39293W        W 7698  40.379  29.537   4.160
39294W        W 7699  30.823  21.559  10.627
39295W        W 7700  15.714  29.633   0.297
39296W        W 7701   9.860  31.372   0.307
39297W        W 7702  10.384  22.142  13.391
39298W        W 7703  11.442  16.848  14.505
39299W        W 7704   2.840  24.007   4.910
39300W        W 7705  16.758  36.641  14.466
39301W        W 7706  26.099  18.827  12.605
39302W        W 7707   1.080  29.975  14.924
39303W        W 7708  31.593  33.929   0.284
39304W        W 7709  11.646  17.691   5.128
39305W        W 7710  34.068  34.403   2.129
39306W        W 7711   4.719  10.757  11.646
39307W        W 7712  20.108  18.135   2.195
39308W        W 7713  18.265  26.652  12.542
39309W        W 7714  27.165  18.065  12.136
39310W        W 7715  32.972  32.262  13.080
39311W        W 7716  34.444   7.470  13.294
39312W        W 7717  36.604  39.040  12.589
39313W        W 7718  20.128  10.315   2.821
39314W        W 7719  41.324  34.412  14.903
39315W        W 7720  36.373   4.753   3.089
39316W        W 7721  40.523  20.218  12.016
39317W        W 7722   2.275  33.123  12.579
39318W        W 7723  13.720  15.306  13.909
39319W        W 7724  43.367  22.572  13.561
39320W        W 7725   3.275  42.617  10.578
39321W        W 7726   6.631   3.848   2.402
39322W        W 7727   5.484  41.049  10.774
39323W        W 7728  24.928  30.864  14.323
39324W        W 7729  43.542  32.077  12.810
39325W        W 7730  22.916  36.512  14.394
39326W        W 7731  27.482  41.419  14.989
39327W        W 7732  17.775   8.801   5.053
39328W        W 7733  39.485  22.473   4.733
39329W        W 7734  28.839  44.365  10.757
39330W        W 7735  43.203  19.146  13.807
39331W        W 7736   4.001  15.516   1.886
39332W        W 7737   0.087  43.293   1.789
39333W        W 7738  40.418  32.458  14.915
39334W        W 7739  24.166  33.537  10.306
39335W        W 7740  11.495  13.338   1.685
39336W        W 7741  18.189  43.978  12.370
39337W        W 7742  11.723  19.942  12.072
39338W        W 7743  24.467  10.410   0.129
39339W        W 7744  19.853  14.386  10.822
39340W        W 7745   6.117  17.072  11.570
39341W        W 7746  38.467   7.447   2.876
39342W        W 7747  37.403  38.487   4.719
39343W        W 7748  20.221  19.390   3.789
39344W        W 7749   2.223  20.568  10.524
39345W        W 7750  27.956   4.274   2.077
39346W        W 7751   0.292  33.553   1.011
39347W        W 7752  40.091  16.658  13.141
39348W        W 7753   2.725  34.588  12.046
39349W        W 7754  36.436  42.307  13.415
39350W        W 7755   8.915   8.143   2.744
39351W        W 7756  29.710   0.701   3.769
39352W        W 7757  10.638  19.571  11.179
39353W        W 7758  32.889   0.764   3.767
39354W        W 7759   6.275  20.607  12.062
39355W        W 7760  42.163   7.787   4.547
39356W        W 7761   7.202  20.203   1.733
39357W        W 7762   2.956  15.157  11.782
39358W        W 7763  34.949  28.928  12.903
39359W        W 7764  44.281  17.007   2.786
39360W        W 7765   5.382  38.386  14.725
39361W        W 7766  13.439  24.758   2.782
39362W        W 7767   2.700  32.361  12.455
39363W        W 7768  32.526   3.735   0.776
39364W        W 7769  29.922   3.483  14.383
39365W        W 7770  26.685   5.760  11.711
39366W        W 7771   4.962  38.544  13.310
39367W        W 7772  12.535  36.571   3.772
39368W        W 7773   2.938  17.453  13.561
39369W        W 7774  28.152   0.450   3.940
39370W        W 7775  41.357  13.262   0.320
39371W        W 7776  19.904   6.001  11.962
39372W        W 7777  25.150   3.968   3.637
39373W        W 7778  39.829  32.873  13.867
39374W        W 7779   2.085   8.300   1.212
39375W        W 7780  18.216  38.747  12.024
39376W        W 7781  34.640  32.099  10.525
39377W        W 7782  15.696  12.120   4.546
39378W        W 7783  34.903  17.346  14.718
39379W        W 7784  38.434  18.728  10.388
39380W        W 7785  35.758  11.673  14.812
39381W        W 7786  35.312  19.311   1.790
39382W        W 7787  39.787  10.944  12.422
39383W        W 7788  37.387  38.949  12.159
39384W        W 7789  11.246  44.526  11.524
39385W        W 7790  10.826  25.101  12.563
39386W        W 7791  14.431  25.648   2.596
39387W        W 7792   6.077  28.723   4.997
39388W        W 7793   2.263  38.040  11.382
39389W        W 7794  44.965  38.093  14.137
39390W        W 7795  29.608   3.358  12.414
39391W        W 7796  30.961  33.466   4.042
39392W        W 7797  28.510   6.928   2.887
39393W        W 7798  26.184  35.151  10.799
39394W        W 7799  33.165  40.510   1.275
39395W        W 7800  35.338  12.471  13.936
39396W        W 7801  40.205  32.492  11.000
39397W        W 7802  33.853  24.861   1.681
39398W        W 7803  15.064  38.526  12.401
39399W        W 7804  28.492  38.528   9.672
39400W        W 7805  19.367  21.719  14.944
39401W        W 7806  21.382   8.083  14.720
39402W        W 7807  43.461  10.618   0.884
39403W        W 7808  16.366  39.560   3.893
39404W        W 7809  19.734  16.369   1.818
39405W        W 7810  24.602  29.823   4.121
39406W        W 7811   7.091  32.231  14.496
39407W        W 7812  40.101  39.167  13.046
39408W        W 7813  38.015  13.009  12.304
39409W        W 7814  31.214  31.569   4.445
39410W        W 7815  39.242   9.669  11.206
39411W        W 7816  13.124  14.270   3.678
39412W        W 7817  40.952  15.595   4.159
39413W        W 7818  37.205   3.856  11.849
39414W        W 7819  33.436  11.229  12.449
39415W        W 7820  20.028  12.120   4.581
39416W        W 7821  37.451  14.063   0.412
39417W        W 7822  18.532   9.879  11.633
39418W        W 7823  32.569   9.946   0.303
39419W        W 7824   3.450  40.096   0.893
39420W        W 7825  14.328  33.149   1.660
39421W        W 7826   4.339  27.758  13.427
39422W        W 7827   4.877   6.718   2.833
39423W        W 7828  21.646  26.213  14.818
39424W        W 7829  34.579  13.424  11.454
39425W        W 7830  21.782   5.400  11.961
39426W        W 7831   8.724   5.644  13.965
39427W        W 7832  38.857   5.217  12.083
39428W        W 7833  39.296   7.907   9.875
39429W        W 7834  28.055  24.504  10.789
39430W        W 7835   3.466  28.673   4.153
39431W        W 7836  41.002  34.067   1.193
39432W        W 7837  31.613   0.786  11.522
39433W        W 7838  25.727  44.317  10.767
39434W        W 7839  20.645  23.828  13.401
39435W        W 7840   2.350  16.295   1.041
39436W        W 7841  32.137   7.401  12.347
39437W        W 7842  26.858  29.514  13.444
39438W        W 7843  12.591  39.218   2.172
39439W        W 7844   0.113  18.044  10.628
39440W        W 7845  27.680  14.185  12.429
39441W        W 7846  31.406  21.604  11.516
39442W        W 7847  43.356  42.963   0.512
39443W        W 7848   3.873  21.657   1.271
39444W        W 7849  28.766  17.740  13.817
39445W        W 7850  33.235  41.415   2.949
39446W        W 7851  33.925  19.145   3.329
39447W        W 7852  35.445  21.533   0.557
39448W        W 7853  43.218   6.440   0.864
39449W        W 7854  22.046   1.943   0.278
39450W        W 7855  38.075   0.190  14.303
39451W        W 7856   3.245  44.813   2.559
39452W        W 7857  29.490  37.874   1.435
39453W        W 7858   5.336  10.176  10.436
39454W        W 7859   2.574  36.442   2.229
39455W        W 7860   6.944  19.901  10.901
39456W        W 7861  32.067  17.269  12.045
39457W        W 7862   4.153  20.453   3.732
39458W        W 7863   9.377   6.861   0.489
39459W        W 7864  16.632  35.253  13.166
39460W        W 7865  23.541  24.502  13.527
39461W        W 7866  22.497  13.064  13.943
39462W        W 7867  11.769  38.827   2.679
39463W        W 7868  28.235  20.926  12.467
39464W        W 7869  44.210  16.810   4.330
39465W        W 7870  44.826  26.570  11.806
39466W        W 7871  25.664  30.939  14.034
39467W        W 7872   4.470  20.109   4.163
39468W        W 7873  38.366  36.320   1.789
39469W        W 7874  25.453  40.004  13.819
39470W        W 7875  13.137  36.842  11.170
39471W        W 7876  11.802  37.922   0.885
39472W        W 7877  13.612   2.879   1.330
39473W        W 7878   9.684  34.151  10.795
39474W        W 7879  15.676   0.284   3.802
39475W        W 7880  30.419  13.085  12.574
39476W        W 7881  25.059  15.307  10.874
39477W        W 7882  14.477  16.040  13.514
39478W        W 7883  11.970  37.789  14.325
39479W        W 7884  20.516  15.837   1.410
39480W        W 7885   5.198  21.880  12.045
39481W        W 7886  29.067  31.194  11.142
39482W        W 7887  15.074  34.867  13.943
39483W        W 7888  19.128  19.366   3.385
39484W        W 7889   1.339   8.413   1.785
39485W        W 7890   9.644  14.999   1.185
39486W        W 7891  32.127  39.841   4.782
39487W        W 7892  44.840  18.809   0.708
39488W        W 7893  18.395  27.052   2.788
39489W        W 7894  36.300  44.982  11.963
39490W        W 7895  15.426   5.769   4.639
39491W        W 7896  19.544  12.767  13.962
39492W        W 7897  12.378   3.822  14.547
39493W        W 7898   8.224  20.180   2.673
39494W        W 7899  19.547  17.263   4.217
39495W        W 7900   4.704   9.951   3.999
39496W        W 7901  23.339  24.544   3.567
39497W        W 7902  30.840  41.074  10.684
39498W        W 7903  26.641  23.528   2.212
39499W        W 7904   9.353   7.358   4.085
39500W        W 7905   5.457  43.588   0.352
39501W        W 7906  33.425  17.685  11.164
39502W        W 7907  10.212  43.201   2.879
39503W        W 7908  16.481  30.161   1.270
39504W        W 7909  44.770   1.322   2.198
39505W        W 7910  37.346  10.691  14.066
39506W        W 7911  14.017   7.760   0.895
39507W        W 7912  29.396  34.397  11.441
39508W        W 7913   5.419   8.442  14.234
39509W        W 7914  42.291  36.648  12.445
39510W        W 7915  20.037  25.543  13.473
39511W        W 7916  14.138  36.949  12.937
39512W        W 7917  18.015  37.686   2.244
39513W        W 7918  22.004   8.275   0.513
39514W        W 7919  20.586  20.212  12.878
39515W        W 7920  15.342  44.827  11.536
39516W        W 7921  10.742  15.649  11.747
39517W        W 7922  17.423  21.154  10.572
39518W        W 7923  30.434  16.614  13.837
39519W        W 7924  18.843  16.227  12.039
39520W        W 7925  10.889  40.070   1.183
39521W        W 7926  24.274  24.483  11.989
39522W        W 7927  41.291   7.777   1.466
39523W        W 7928  29.169  43.911  10.406
39524W        W 7929  35.929  11.323   4.172
39525W        W 7930   4.250  26.113   0.247
39526W        W 7931   2.776  20.652  13.959
39527W        W 7932   7.721   6.705   4.466
39528W        W 7933  26.739  21.290   1.076
39529W        W 7934   1.916  21.620  14.192
39530W        W 7935  22.054  24.722  12.905
39531W        W 7936  21.332  30.160  14.302
39532W        W 7937  44.855  16.049  10.660
39533W        W 7938  38.447  40.090  12.046
39534W        W 7939  33.818  23.558   2.747
39535W        W 7940   0.918   5.958   4.054
39536W        W 7941   4.056  12.768   3.812
39537W        W 7942  21.135  41.947  14.738
39538W        W 7943  41.468  39.052  11.978
39539W        W 7944  25.838  19.033   3.751
39540W        W 7945  34.483  41.595   0.986
39541W        W 7946  40.438  15.409   2.458
39542W        W 7947  29.134   4.993   0.029
39543W        W 7948  38.717   8.938  12.120
39544W        W 7949  32.822   5.815  11.035
39545W        W 7950  12.575  25.014  11.185
39546W        W 7951  24.696   5.271   0.906
39547W        W 7952  23.735  39.572  13.882
39548W        W 7953  37.445  10.587  11.614
39549W        W 7954  29.012  21.786  12.144
39550W        W 7955  15.753  24.490   3.304
39551W        W 7956   3.845  25.088  12.562
39552W        W 7957   9.903  36.854   2.819
39553W        W 7958  12.337   5.301   3.860
39554W        W 7959  25.487  20.168  14.455
39555W        W 7960  27.374  36.407  13.800
39556W        W 7961  21.480   4.477  11.129
39557W        W 7962  10.962  30.342  13.932
39558W        W 7963   6.830  32.057  12.259
39559W        W 7964   5.869  37.097  14.772
39560W        W 7965  44.280  30.243   3.192
39561W        W 7966   5.338  21.129  10.946
39562W        W 7967  16.644   7.010   1.021
39563W        W 7968  33.907  16.433  13.512
39564W        W 7969  42.781   2.340   1.711
39565W        W 7970   9.502  40.773  11.166
39566W        W 7971   5.678  39.164  10.706
39567W        W 7972   0.183  44.471  12.918
39568W        W 7973  16.824   0.380   0.565
39569W        W 7974  39.422  41.905   0.267
39570W        W 7975  21.132  23.854   0.616
39571W        W 7976  26.997  22.492  11.507
39572W        W 7977  19.798  25.551   4.448
39573W        W 7978  28.148  35.606  12.010
39574W        W 7979  22.207   8.263   1.573
39575W        W 7980  40.450  34.553  12.181
39576W        W 7981   1.250  11.140  11.015
39577W        W 7982  32.911  23.126   4.332
39578W        W 7983  17.306  43.583  14.245
39579W        W 7984   7.846  26.092   1.384
39580W        W 7985   3.693  16.959  11.974
39581W        W 7986   2.265   1.972  10.975
39582W        W 7987   8.173  27.055  11.252
39583W        W 7988  20.725  31.341  12.286
39584W        W 7989  23.814   4.397  13.253
39585W        W 7990  25.260  22.559  11.400
39586W        W 7991  19.792   3.874  11.237
39587W        W 7992  14.199  30.150   0.117
39588W        W 7993  26.704   2.258   4.605
39589W        W 7994   9.716  13.587   2.722
39590W        W 7995   0.873  41.775   1.681
39591W        W 7996  43.668  41.921  12.232
39592W        W 7997  15.354   4.593  10.405
39593W        W 7998  20.907  30.468  13.452
39594W        W 7999  40.617  23.506   3.050
39595W        W 8000  38.967  41.817   4.509
39596W        W 8001  21.254  38.408   1.382
39597W        W 8002  17.099  22.154   0.875
39598W        W 8003  18.706   6.422  10.602
39599W        W 8004  27.242  38.445   3.890
39600W        W 8005  32.053   2.919  11.598
39601W        W 8006  19.002  13.583   2.392
39602W        W 8007  28.878  22.481   2.948
39603W        W 8008  26.651  32.399  14.423
39604W        W 8009  41.377  26.555   1.177
39605W        W 8010   0.788  20.242  10.536
39606W        W 8011   5.683  20.252   3.157
39607W        W 8012  18.274  24.311   9.925
39608W        W 8013  33.491  12.018  12.868
39609W        W 8014  35.110  16.620  12.359
39610W        W 8015  33.109  18.787   2.824
39611W        W 8016  28.547  12.768   2.817
39612W        W 8017   7.233  24.572   1.459
39613W        W 8018  25.293  26.724  10.829
39614W        W 8019  35.229  38.279  10.874
39615W        W 8020  11.822  29.680   3.262
39616W        W 8021  44.276  22.637  12.276
39617W        W 8022  21.698   8.224   1.397
39618W        W 8023   9.214  13.781  10.261
39619W        W 8024  38.354   0.765   2.889
39620W        W 8025  27.540  21.978  13.322
39621W        W 8026  41.412  18.794   4.149
39622W        W 8027  12.343  24.207   3.125
39623W        W 8028  40.832   0.990  14.039
39624W        W 8029   5.805  35.006   2.922
39625W        W 8030  14.969  15.284   3.345
39626W        W 8031   4.838   3.011   1.888
39627W        W 8032  35.866  40.803  14.431
39628W        W 8033   6.457   1.205   1.911
39629W        W 8034  30.019  39.616   1.353
39630W        W 8035  21.275  44.559  12.957
39631W        W 8036  41.286  27.793   0.359
39632W        W 8037  33.515  13.788  13.391
39633W        W 8038  36.758  35.475   2.608
39634W        W 8039   2.755  34.855   1.794
39635W        W 8040  11.803   9.937  14.880
39636W        W 8041   0.833  19.627  14.482
39637W        W 8042  37.472   3.059  12.333
39638W        W 8043  39.070   1.959  11.832
39639W        W 8044  41.862   5.486  14.886
39640W        W 8045  26.285   1.306  11.521
39641W        W 8046  31.946   7.886  13.858
39642W        W 8047  18.995   8.883   1.660
39643W        W 8048  35.857   1.398   3.937
39644W        W 8049  41.966   4.787  11.459
39645W        W 8050  17.877   7.580   2.828
39646W        W 8051  29.215  40.603   0.817
39647W        W 8052   8.333   2.304   2.247
39648W        W 8053  17.644  19.697  13.885
39649W        W 8054  29.813   7.355  10.043
39650W        W 8055  37.112  36.966   1.596
39651W        W 8056  42.686  42.329   1.232
39652W        W 8057  35.606  34.513  14.916
39653W        W 8058  44.973  10.696   3.612
39654W        W 8059  27.649   2.259  14.333
39655W        W 8060  38.103  12.507  13.988
39656W        W 8061  26.076  43.357  14.253
39657W        W 8062  16.599  32.018  10.194
39658W        W 8063   6.394  25.624  13.400
39659W        W 8064  22.204  24.431  13.968
39660W        W 8065   2.441  29.859  13.825
39661W        W 8066  15.377  34.870  11.440
39662W        W 8067  44.361  39.598   4.180
39663W        W 8068  17.696  25.910  14.843
39664W        W 8069  37.474  33.119  13.998
39665W        W 8070  33.770  16.665  10.790
39666W        W 8071  19.074   2.684  14.879
39667W        W 8072  11.477  18.801  11.473
39668W        W 8073  25.646  19.771  14.159
39669W        W 8074  23.683  30.922  10.762
39670W        W 8075  29.478  41.578   3.307
39671W        W 8076  34.336  38.372   2.296
39672W        W 8077  37.093  11.127  12.387
39673W        W 8078   3.459  35.380  13.865
39674W        W 8079  24.542   2.050   4.701
39675W        W 8080  35.269  29.443   1.215
39676W        W 8081  22.109  28.139  13.022
39677W        W 8082  12.830  19.998   4.479
39678W        W 8083   3.686  44.673  14.998
39679W        W 8084  14.673  40.826   4.745
39680W        W 8085   0.329  16.637  11.982
39681W        W 8086  23.578  22.716  12.018
39682W        W 8087   1.663  12.215  12.462
39683W        W 8088  11.825  18.016  10.199
39684W        W 8089  37.082  23.158  10.755
39685W        W 8090  12.304   0.188  14.304
39686W        W 8091  26.878  34.534  12.943
39687W        W 8092   2.743  24.639  12.171
39688W        W 8093   3.293  20.013  11.845
39689W        W 8094  22.605  25.258   0.413
39690W        W 8095  14.635  16.031  10.772
39691W        W 8096  42.989  44.094  12.364
39692W        W 8097  12.522  28.887  14.772
39693W        W 8098  35.463  34.894   4.835
39694W        W 8099  15.602  22.019   4.366
39695W        W 8100   1.765  25.810  11.191
39696W        W 8101  38.078  26.601   2.265
39697W        W 8102  33.396  12.761  12.229
39698W        W 8103  34.549  30.202   4.462
39699W        W 8104  29.062   6.187   1.868
39700W        W 8105  24.271  19.545   0.957
39701W        W 8106  43.331  37.651   1.254
39702W        W 8107   5.720  41.372   3.134
39703W        W 8108  32.644   5.199   3.657
39704W        W 8109  17.629  42.296   4.365
39705W        W 8110  37.326  42.884   2.195
39706W        W 8111   2.023  41.626   9.876
39707W        W 8112  21.442   8.331   3.333
39708W        W 8113  27.260   3.401   3.890
39709W        W 8114  25.479  16.134   2.920
39710W        W 8115  37.713   0.150   2.617
39711W        W 8116  12.391  34.926   2.592
39712W        W 8117   4.799  16.517   4.642
39713W        W 8118  31.407  17.150   4.112
39714W        W 8119  31.821  13.303  13.038
39715W        W 8120  30.243  20.657   0.861
39716W        W 8121  35.623  26.588   3.175
39717W        W 8122  38.286   1.028   1.557
39718W        W 8123  21.953  24.222   3.606
39719W        W 8124  32.875  36.230  10.850
39720W        W 8125  24.225  31.685   3.166
39721W        W 8126  16.558  36.376  10.023
39722W        W 8127  43.991   0.151   1.645
39723W        W 8128  10.825  19.266  12.564
39724W        W 8129   6.863  13.144   3.767
39725W        W 8130  39.800  17.863  14.437
39726W        W 8131  16.088  10.784  13.074
39727W        W 8132  24.031   2.907   3.665
39728W        W 8133   3.694   5.254  12.019
39729W        W 8134  23.496   1.077  14.924
39730W        W 8135  44.489  40.539  11.182
39731W        W 8136  14.296   3.416  13.034
39732W        W 8137   6.641  36.904  14.416
39733W        W 8138   6.945  20.725  10.714
39734W        W 8139   2.922  33.384   2.796
39735W        W 8140  14.066  22.929  12.891
39736W        W 8141  30.425  19.260  11.574
39737W        W 8142  35.006  24.327   2.923
39738W        W 8143  15.563  37.116   1.891
39739W        W 8144   1.916   2.666  12.050
39740W        W 8145   5.393  21.526  11.271
39741W        W 8146   1.002  41.363  11.229
39742W        W 8147   7.171  19.236   0.815
39743W        W 8148  21.796  15.081   1.062
39744W        W 8149  37.331  26.760   4.695
39745W        W 8150  25.461  15.888  11.724
39746W        W 8151  30.583  36.215   1.283
39747W        W 8152   3.950  18.855   2.274
39748W        W 8153  12.201   3.428  13.196
39749W        W 8154  16.152  22.254   1.231
39750W        W 8155  22.960  20.049  14.856
39751W        W 8156  19.532  41.248  13.319
39752W        W 8157  32.894   5.274   2.331
39753W        W 8158  18.142  11.321   2.409
39754W        W 8159  43.243   0.789   0.279
39755W        W 8160  32.147  26.628   3.635
39756W        W 8161   2.328  37.351   4.493
39757W        W 8162   4.344  25.435   4.107
39758W        W 8163  21.200  10.306  14.866
39759W        W 8164  36.912   1.760  11.812
39760W        W 8165  39.063  41.313  13.874
39761W        W 8166  26.753   6.004   1.287
39762W        W 8167   0.420  36.617  11.961
39763W        W 8168   6.634   6.661   2.566
39764W        W 8169  13.181  26.025  14.084
39765W        W 8170   0.374   6.652   2.526
39766W        W 8171   2.676  25.108  12.402
39767W        W 8172  18.254   1.313   1.381
39768W        W 8173  18.615  40.302   3.225
39769W        W 8174  11.211  41.805  11.985
39770W        W 8175  44.885  33.548  14.477
39771W        W 8176  35.608  43.909  13.022
39772W        W 8177  29.041  39.565  14.552
39773W        W 8178  20.813  15.372   2.158
39774W        W 8179  30.724  36.929  14.074
39775W        W 8180  10.809  23.086  13.551
39776W        W 8181  30.579  39.302  10.578
39777W        W 8182  15.610  11.719  10.746
39778W        W 8183  21.945  21.595  10.519
39779W        W 8184  35.205  36.535  10.526
39780W        W 8185  26.573  39.100   2.107
39781W        W 8186   0.184  29.129   4.538
39782W        W 8187  14.840   2.698   1.945
39783W        W 8188  24.342  35.356  14.334
39784W        W 8189   4.304  29.132   0.482
39785W        W 8190   2.670  41.407   4.548
39786W        W 8191  27.941   6.762   1.641
39787W        W 8192  23.033  32.749  11.012
39788W        W 8193  27.608  44.526  14.365
39789W        W 8194   0.016  31.587  14.570
39790W        W 8195   3.201  41.806  14.020
39791W        W 8196  34.519  12.151   3.636
39792W        W 8197  31.936  29.562  12.890
39793W        W 8198   4.740  11.359  12.527
39794W        W 8199   5.122  22.058   3.664
39795W        W 8200  36.116  31.438   2.228
39796W        W 8201  11.660  32.713  12.887
39797W        W 8202  36.076  39.343   2.231
39798W        W 8203  11.789  41.680   1.695
39799W        W 8204   2.697  28.514   2.840
39800W        W 8205   6.006  23.597   2.768
39801W        W 8206  26.261  30.909  13.408
39802W        W 8207  30.847  41.238  14.949
39803W        W 8208  25.332  23.610  12.050
39804W        W 8209   9.168  12.336   0.013
39805W        W 8210  37.967   0.999  13.463
39806W        W 8211  39.225  18.171   2.618
39807W        W 8212  10.579  12.292  12.938
39808W        W 8213  26.240   3.944  12.361
39809W        W 8214  44.033  13.822   0.647
39810W        W 8215  20.402  14.421  14.575
39811W        W 8216  17.312  28.124  13.852
39812W        W 8217  30.204  23.698  11.045
39813W        W 8218  28.617  13.674  12.380
39814W        W 8219  24.085  16.184  13.527
39815W        W 8220  42.758  28.013   2.763
39816W        W 8221  33.395   7.821   4.113
39817W        W 8222   5.240  39.484   4.595
39818W        W 8223  35.099   9.256  14.035
39819W        W 8224  23.502  33.563   1.750
39820W        W 8225  39.299  19.192   4.129
39821W        W 8226  13.530  29.548   0.197
39822W        W 8227  43.940   5.787  12.145
39823W        W 8228  41.229  25.677   3.699
39824W        W 8229   5.413  20.008  14.867
39825W        W 8230  27.654  14.581   9.767
39826W        W 8231  18.813  36.245  14.962
39827W        W 8232  22.823  28.806  12.020
39828W        W 8233   5.357  30.180   2.436
39829W        W 8234  28.052  36.625   1.393
39830W        W 8235  39.792  29.630   0.465
39831W        W 8236  10.211  14.334   2.684
39832W        W 8237  40.782  15.262  14.518
39833W        W 8238  34.072   5.261  11.407
39834W        W 8239  23.071   3.445   1.983
39835W        W 8240  27.886  38.466   4.138
39836W        W 8241   4.695  25.068  14.217
39837W        W 8242  23.244  32.519   4.107
39838W        W 8243  20.759  14.720  10.667
39839W        W 8244  17.132  35.979   0.244
39840W        W 8245  34.585  37.078  10.964
39841W        W 8246  32.320  16.594   3.268
39842W        W 8247  35.436  20.745  12.010
39843W        W 8248  26.987  43.324   0.888
39844W        W 8249   6.960  35.006  10.780
39845W        W 8250   9.678  18.077  14.550
39846W        W 8251  15.046  26.230  14.503
39847W        W 8252  37.305   6.284   1.427
39848W        W 8253   2.918   2.806   0.298
39849W        W 8254  29.266  24.046   1.015
39850W        W 8255  26.975   2.890  11.253
39851W        W 8256  23.692  10.487   0.046
39852W        W 8257  12.135  35.940   2.899
39853W        W 8258  14.377   0.386   9.729
39854W        W 8259  32.493  30.446   3.519
39855W        W 8260   5.585  27.603  12.033
39856W        W 8261  36.478   3.739   4.203
39857W        W 8262  27.110  23.531   4.829
39858W        W 8263  16.085  16.304  13.538
39859W        W 8264  43.956  26.942   0.218
39860W        W 8265   5.513  28.592  10.633
39861W        W 8266  42.058   5.747   2.934
39862W        W 8267  10.350   6.478  10.054
39863W        W 8268  15.505  29.534  10.966
39864W        W 8269  37.599  14.770   2.573
39865W        W 8270  35.991  44.536   2.310
39866W        W 8271  39.717  31.588  14.382
39867W        W 8272  34.919  36.410   4.241
39868W        W 8273  41.393  28.043   2.372
39869W        W 8274  34.921  38.640  12.053
39870W        W 8275  27.160  17.628   0.869
39871W        W 8276  21.676  28.949  13.872
39872W        W 8277  22.049  39.445   0.448
39873W        W 8278   4.300  23.992  13.266
39874W        W 8279  39.844  19.693  10.834
39875W        W 8280  10.222  11.208   1.879
39876W        W 8281   0.825  27.795   2.210
39877W        W 8282   5.194  19.670  11.435
39878W        W 8283  32.958   7.331  11.616
39879W        W 8284  26.840  20.634   0.357
39880W        W 8285  36.037  23.251   4.161
39881W        W 8286   4.440   0.409   1.770
39882W        W 8287  35.334  32.318  12.185
39883W        W 8288   3.845  20.764  13.760
39884W        W 8289  24.965   3.222  14.051
39885W        W 8290  31.360  34.380   2.310
39886W        W 8291  25.382  41.524   2.304
39887W        W 8292  34.305  24.174   0.247
39888W        W 8293  43.490  40.388   4.590
39889W        W 8294  40.367  13.996   2.841
39890W        W 8295  42.450  23.505   1.094
39891W        W 8296  10.763  28.960   0.376
39892W        W 8297  30.255  19.833   3.019
39893W        W 8298  31.151  10.226  10.164
39894W        W 8299  42.563   4.616   4.303
39895W        W 8300  27.284  30.881   2.844
39896W        W 8301   4.738   7.443   1.768
39897W        W 8302  38.872  19.823  14.292
39898W        W 8303  21.722  20.145  14.387
39899W        W 8304  27.948  18.791   4.576
39900W        W 8305  42.764  19.634  12.194
39901W        W 8306  28.592  21.976   2.408
39902W        W 8307  10.382  11.944   3.612
39903W        W 8308  10.893   7.664  13.324
39904W        W 8309  30.734   4.501  11.179
39905W        W 8310  36.351  11.692   2.732
39906W        W 8311  32.976  10.729  14.044
39907W        W 8312  41.377  30.208   4.635
39908W        W 8313  16.309  29.839   3.083
39909W        W 8314   4.771  15.450  10.439
39910W        W 8315   5.553  23.755  12.157
39911W        W 8316  43.808  35.909  12.104
39912W        W 8317   1.767  32.819  14.839
39913W        W 8318  44.762  20.553  11.006
39914W        W 8319  22.702  28.191   1.804
39915W        W 8320  17.172   5.233  14.254
39916W        W 8321  40.038   4.376  12.548
39917W        W 8322  17.715   3.881  13.353
39918W        W 8323   4.256  11.995   0.791
39919W        W 8324  31.932  10.699   0.322
39920W        W 8325  19.128  40.844  13.355
39921W        W 8326  20.773  31.826   2.642
39922W        W 8327  40.946  24.563   4.562
39923W        W 8328  37.117  29.635  12.999
39924W        W 8329  20.332   0.381   0.856
39925W        W 8330  44.522  34.614   4.457
39926W        W 8331   5.590  14.710   3.823
39927W        W 8332  37.515   0.932   3.221
39928W        W 8333  19.630  25.683  12.629
39929W        W 8334  42.027   7.195  10.187
39930W        W 8335  24.584   2.434  12.149
39931W        W 8336  33.470  24.021  10.174
39932W        W 8337  41.415  38.273   3.264
39933W        W 8338   3.452  27.275  14.896
39934W        W 8339   1.667  22.782   1.765
39935W        W 8340  39.074  34.664  13.524
39936W        W 8341   1.821   5.168   5.445
39937W        W 8342  19.715  20.124   3.969
39938W        W 8343   0.273  37.521   4.213
39939W        W 8344  10.860  28.723   4.295
39940W        W 8345  31.641  35.453  11.240
39941W        W 8346   5.306  36.013   2.117
39942W        W 8347   7.447   7.154  11.627
39943W        W 8348  35.570  24.039  14.885
39944W        W 8349   9.891  26.679   3.116
39945W        W 8350   7.297  24.492   4.687
39946W        W 8351  41.062  14.775   2.886
39947W        W 8352  14.726  18.797  12.881
39948W        W 8353  22.560  44.563  10.883
39949W        W 8354  10.529  10.122   2.954
39950W        W 8355  38.664  33.565   1.348
39951W        W 8356   4.873  21.324   4.856
39952W        W 8357  17.154  30.016  13.158
39953W        W 8358  21.648   2.322   0.244
39954W        W 8359   0.798  12.796  14.361
39955W        W 8360  15.164  29.552  14.096
39956W        W 8361  19.633  19.859   2.738
39957W        W 8362  35.905  30.046  12.100
39958W        W 8363  19.687   5.297   4.076
39959W        W 8364   2.464  34.941   2.837
39960W        W 8365   9.965  42.805   0.912
39961W        W 8366  43.249  28.006   0.859
39962W        W 8367  27.169   1.794   3.343
39963W        W 8368  18.219  25.477   2.637
39964W        W 8369  22.647  28.969   4.605
39965W        W 8370  32.385  10.826   0.532
39966W        W 8371  43.179   7.689   0.764
39967W        W 8372  39.989   9.733   2.888
39968W        W 8373   7.292  39.388  14.468
39969W        W 8374  26.678   5.387  14.903
39970W        W 8375   7.907  37.035   2.327
39971W        W 8376   6.903  40.509  14.210
39972W        W 8377  44.395  24.575  13.612
39973W        W 8378  32.423  43.313   4.212
39974W        W 8379  27.213  29.080  12.555
39975W        W 8380  43.763  41.240   0.682
39976W        W 8381  32.599   5.356   1.910
39977W        W 8382  38.850  24.719   0.812
39978W        W 8383   4.710  40.990  14.455
39979W        W 8384   3.377   3.538   3.698
39980W        W 8385  14.922   9.833  12.183
39981W        W 8386  24.721  30.155   2.898
39982W        W 8387   4.203   0.048  14.434
39983W        W 8388  32.720   6.789   4.545
39984W        W 8389  24.100   5.666  14.759
39985W        W 8390   1.462   2.870  11.932
39986W        W 8391  41.503  42.508   1.822
39987W        W 8392  12.074   3.944  11.803
39988W        W 8393  38.394   9.171  12.478
39989W        W 8394  26.722  36.884   2.758
39990W        W 8395  39.840   8.401   3.157
39991W        W 8396  12.283  18.580  13.876
39992W        W 8397  31.893  25.700   3.767
39993W        W 8398  12.772  26.628  14.166
39994W        W 8399  18.658  18.799  14.907
39995W        W 8400  40.992  39.000  14.283
39996W        W 8401  34.209   0.122  14.203
39997W        W 8402  38.897  24.793  12.916
39998W        W 8403   9.596  28.499  12.920
39999W        W 8404  20.824   5.396  14.336
40000W        W 8405  37.592  11.219  14.893
40001W        W 8406  24.518  39.888  10.687
40002W        W 8407   3.284  40.479   1.223
40003W        W 8408  28.093  10.847   0.954
40004W        W 8409   4.761   6.447   2.420
40005W        W 8410  21.206  36.886  13.546
40006W        W 8411  33.167  40.699  13.331
40007W        W 8412   9.581  38.814   3.290
40008W        W 8413   8.008  29.484   2.394
40009W        W 8414   1.701  13.160   1.375
40010W        W 8415  18.774   5.393   3.154
40011W        W 8416  32.912   6.402  14.515
40012W        W 8417  26.875  25.715   1.548
40013W        W 8418   8.942   1.206  11.985
40014W        W 8419  39.497  24.237   0.331
40015W        W 8420  40.537  12.727  14.139
40016W        W 8421  37.045  20.205  10.566
40017W        W 8422  43.298  16.350   2.760
40018W        W 8423   2.775   9.590  14.647
40019W        W 8424  29.445  18.790   3.515
40020W        W 8425  16.742  10.769   3.137
40021W        W 8426   8.371   2.521  11.572
40022W        W 8427  16.905  18.099  10.618
40023W        W 8428  23.187  35.430   0.270
40024W        W 8429   0.212  21.110   0.549
40025W        W 8430   3.858  35.875  12.587
40026W        W 8431  25.585  31.364   3.721
40027W        W 8432  27.044  15.834   0.740
40028W        W 8433  24.078  22.483  12.817
40029W        W 8434  36.664  16.297   4.692
40030W        W 8435  36.493  15.762  11.152
40031W        W 8436  31.019  12.727  10.352
40032W        W 8437  10.354  22.127   2.350
40033W        W 8438  17.703  12.098  12.344
40034W        W 8439   4.396   3.809   2.689
40035W        W 8440   1.526  15.426  13.441
40036W        W 8441  25.224  22.082   2.195
40037W        W 8442  35.122  21.092   2.260
40038W        W 8443  34.586  13.818  14.040
40039W        W 8444   1.013  35.929   0.213
40040W        W 8445   7.025  30.999   2.011
40041W        W 8446  17.292  27.214  14.815
40042W        W 8447   5.324  23.276  12.421
40043W        W 8448   4.328  39.805  11.526
40044W        W 8449  16.533   9.064  14.777
40045W        W 8450  16.754  26.992  13.933
40046W        W 8451  34.930   0.977   0.418
40047W        W 8452  26.717  39.945  11.163
40048W        W 8453  39.866  23.905  11.047
40049W        W 8454  15.700  24.042   1.227
40050W        W 8455  25.591  16.739   2.341
40051W        W 8456  37.819  44.071   0.328
40052W        W 8457  15.196  32.865   2.240
40053W        W 8458  31.105  19.140   2.240
40054W        W 8459  16.445  10.808   3.558
40055W        W 8460  10.816  12.461   2.205
40056W        W 8461   9.831   7.972  10.543
40057W        W 8462  10.657  13.664   3.153
40058W        W 8463   3.189  13.685   2.833
40059W        W 8464  10.451  21.163  13.365
40060W        W 8465  13.005  30.330   1.850
40061W        W 8466  23.091  28.214  11.192
40062W        W 8467   4.459  18.079   0.048
40063W        W 8468  16.228  20.836   0.447
40064W        W 8469  26.303  11.632  13.319
40065W        W 8470  34.966  38.862   1.130
40066W        W 8471  33.135  10.405   4.112
40067W        W 8472  11.176  36.089   3.617
40068W        W 8473  35.706  18.291  12.469
40069W        W 8474  22.111  17.643  11.625
40070W        W 8475   4.521  24.501  13.981
40071W        W 8476  32.651  31.465   4.300
40072W        W 8477  25.941  35.606  14.866
40073W        W 8478   9.156  37.431   3.755
40074W        W 8479  24.653  30.181   1.072
40075W        W 8480  26.035  24.551  13.931
40076W        W 8481  23.102   3.666   0.253
40077W        W 8482   3.770  29.581  13.066
40078W        W 8483  36.930  17.296   1.461
40079W        W 8484   9.221  11.908   2.847
40080W        W 8485   0.780  39.077  12.449
40081W        W 8486   9.124  13.864  11.644
40082W        W 8487  19.737   6.863  12.482
40083W        W 8488  30.591  33.344  12.304
40084W        W 8489  40.462  27.564   0.220
40085W        W 8490  28.136  42.019  14.989
40086W        W 8491  32.844  19.506   3.819
40087W        W 8492  29.081  28.611   1.642
40088W        W 8493  12.373   0.645   1.384
40089W        W 8494  24.711  31.946   2.317
40090W        W 8495   9.674  14.620   2.819
40091W        W 8496  20.971  17.708   4.002
40092W        W 8497   0.931  42.240  13.967
40093W        W 8498   5.400  23.725   1.374
40094W        W 8499  43.125  28.111  10.636
40095W        W 8500  18.125  26.984   0.868
40096W        W 8501   8.203  10.701   4.068
40097W        W 8502  15.480  15.137   4.628
40098W        W 8503   6.486  25.553  12.030
40099W        W 8504   1.033  23.306  13.771
40100W        W 8505  34.868  27.917  13.833
40101W        W 8506  34.188   2.426   3.199
40102W        W 8507  31.449  18.819   0.148
40103W        W 8508  16.697  43.371   4.631
40104W        W 8509  29.579   4.933  14.762
40105W        W 8510  21.288  13.300   2.257
40106W        W 8511  13.330  12.134   0.847
40107W        W 8512  23.720  38.979   4.230
40108W        W 8513  36.456  25.317  13.567
40109W        W 8514  44.025  24.941  12.144
40110W        W 8515  31.737  39.250   0.800
40111W        W 8516  21.998   9.659   3.624
40112W        W 8517  41.564  35.452   1.603
40113W        W 8518  31.128   9.244  10.616
40114W        W 8519  31.247  25.234  10.317
40115W        W 8520  21.766  44.752  11.537
40116W        W 8521  10.242  39.889  10.760
40117W        W 8522   1.800  30.684  11.251
40118W        W 8523  30.734  18.256   0.033
40119W        W 8524   4.844  11.679  10.691
40120W        W 8525  38.952  33.418   3.628
40121W        W 8526  27.635  23.545  12.021
40122W        W 8527  13.441  15.084  11.985
40123W        W 8528   6.820  27.197  10.608
40124W        W 8529   0.978  18.466  12.015
40125W        W 8530  25.661  41.960   0.267
40126W        W 8531   5.706  11.024   1.145
40127W        W 8532  15.260  19.739   2.202
40128W        W 8533  33.107   4.095   4.090
40129W        W 8534  24.719  38.418  11.649
40130W        W 8535  26.171  27.568  11.545
40131W        W 8536  27.951  42.414  11.213
40132W        W 8537  39.831  16.636   1.941
40133W        W 8538  43.937   4.441   2.801
40134W        W 8539   4.764  33.110   4.094
40135W        W 8540  29.960   4.377   2.582
40136W        W 8541  26.086  17.196  13.197
40137W        W 8542  30.602  31.307  12.071
40138W        W 8543   9.388  11.974  10.734
40139W        W 8544   6.194  19.070   4.080
40140W        W 8545  26.887  29.108   1.050
40141W        W 8546   0.331   9.908  12.346
40142W        W 8547  40.901  33.961  10.720
40143W        W 8548  40.851  27.426  14.420
40144W        W 8549  42.784   9.453   1.614
40145W        W 8550  15.962  35.681  11.758
40146W        W 8551  31.079   5.246   2.466
40147W        W 8552   5.382   7.434  10.215
40148W        W 8553  39.556  37.851   2.441
40149W        W 8554  14.358  26.119   2.398
40150W        W 8555  44.165  42.955  14.935
40151W        W 8556  42.843  22.990  14.923
40152W        W 8557  12.087   6.247  10.663
40153W        W 8558  15.775   4.800   1.206
40154W        W 8559  24.499  22.606   0.464
40155W        W 8560  22.906  40.388  11.952
40156W        W 8561  36.544  41.521   4.491
40157W        W 8562  11.409  19.220   4.771
40158W        W 8563  30.435  24.305   2.759
40159W        W 8564  27.424  25.455  11.647
40160W        W 8565   2.117   7.230   2.740
40161W        W 8566   3.796  14.627   3.063
40162W        W 8567   8.510  25.605  12.482
40163W        W 8568   1.522   3.018  14.706
40164W        W 8569   2.897  24.701   2.762
40165W        W 8570  19.303  22.993  11.561
40166W        W 8571  11.926  23.937   5.027
40167W        W 8572  36.429  41.306  10.561
40168W        W 8573  13.996  17.220   3.989
40169W        W 8574  29.830  28.617   2.791
40170W        W 8575  33.569  44.371  14.280
40171W        W 8576   4.439  30.140   0.310
40172W        W 8577  27.160  18.625  12.011
40173W        W 8578  17.690  42.307  11.501
40174W        W 8579  44.369   4.134   2.933
40175W        W 8580   2.194  24.726  14.852
40176W        W 8581  34.015  18.337   1.681
40177W        W 8582  23.979  32.784  12.060
40178W        W 8583  44.781  40.081   2.896
40179W        W 8584  41.887  13.529   3.675
40180W        W 8585  27.578  25.636  10.787
40181W        W 8586  34.597  16.595  12.397
40182W        W 8587  24.773   8.717  11.138
40183W        W 8588  17.281  32.988  11.272
40184W        W 8589  11.598   4.907   0.892
40185W        W 8590   4.971  19.049  13.996
40186W        W 8591  39.917  21.195   4.790
40187W        W 8592  16.085   1.698   0.333
40188W        W 8593  33.506  39.894   5.110
40189W        W 8594  18.272  30.104   1.858
40190W        W 8595  41.437  10.803  10.612
40191W        W 8596  22.261   7.533  14.044
40192W        W 8597  26.154  32.888  13.871
40193W        W 8598  35.820  11.656  13.511
40194W        W 8599  39.359  21.310   2.233
40195W        W 8600   2.791  32.051   1.346
40196W        W 8601  23.306   2.371   3.843
40197W        W 8602   1.488  11.397  10.628
40198W        W 8603  38.806  23.055   4.588
40199W        W 8604   1.385  21.538   2.438
40200W        W 8605   8.192   2.263   2.790
40201W        W 8606  33.634  17.979   1.740
40202W        W 8607   2.474  28.947   2.667
40203W        W 8608  34.836  20.273   4.385
40204W        W 8609  15.743  33.373   4.188
40205W        W 8610  29.608  36.387  12.940
40206W        W 8611  31.354  21.537   2.299
40207W        W 8612  25.994  22.728   3.203
40208W        W 8613   7.848   3.682   1.850
40209W        W 8614  21.010  44.455   2.327
40210W        W 8615   1.676  23.977   5.103
40211W        W 8616  41.853  23.772   3.699
40212W        W 8617  12.588   7.152   4.585
40213W        W 8618   5.763  22.869   1.373
40214W        W 8619   2.268  17.191   2.928
40215W        W 8620  39.402  13.372  14.821
40216W        W 8621   8.765  34.854  13.529
40217W        W 8622  10.852  28.489   1.331
40218W        W 8623  43.937  15.446  14.392
40219W        W 8624   6.412   6.623  14.977
40220W        W 8625  34.873   4.487  14.799
40221W        W 8626  20.186  43.848  11.826
40222W        W 8627  42.873   5.013  11.151
40223W        W 8628  37.040  27.536  13.739
40224W        W 8629  41.809  16.934  11.153
40225W        W 8630   5.236  29.154   0.370
40226W        W 8631  39.734  25.439  12.474
40227W        W 8632  19.717  14.228  14.009
40228W        W 8633  22.094  24.789   4.793
40229W        W 8634  29.563  18.275  13.276
40230W        W 8635  41.941  16.179   4.871
40231W        W 8636  25.775  10.847   0.759
40232W        W 8637  18.568  32.662  12.886
40233W        W 8638  13.844  32.767   1.920
40234W        W 8639  33.809  44.857  14.905
40235W        W 8640  37.021  41.297   4.412
40236W        W 8641  16.437  29.444  13.378
40237W        W 8642  20.632  44.459   4.462
40238W        W 8643  36.032  34.431  12.401
40239W        W 8644   1.489  10.433  11.549
40240W        W 8645   3.105  25.022  13.811
40241W        W 8646  34.151  19.663   2.228
40242W        W 8647  13.117  42.867   1.290
40243W        W 8648  23.148  24.245  10.712
40244W        W 8649  25.488   7.631  11.583
40245W        W 8650  32.903  26.709   4.538
40246W        W 8651  42.266  37.881  13.835
40247W        W 8652   1.494  33.786  12.089
40248W        W 8653  44.979  38.633  13.434
40249W        W 8654  28.421  35.611  11.584
40250W        W 8655  21.468  21.779   4.705
40251W        W 8656  39.570  10.303   4.346
40252W        W 8657  19.329   5.486  11.732
40253W        W 8658  21.422  28.965  13.397
40254W        W 8659  20.645  26.524   1.087
40255W        W 8660  26.445  12.572  10.809
40256W        W 8661  26.588  28.374   0.690
40257W        W 8662   0.761  11.620  11.963
40258W        W 8663   4.967  19.660  14.402
40259W        W 8664  23.283  23.364   3.217
40260W        W 8665   9.426   3.769  12.962
40261W        W 8666  17.176  39.434   3.340
40262W        W 8667  38.020  17.576   1.563
40263W        W 8668   8.721  41.419   3.233
40264W        W 8669   8.620  38.739  12.038
40265W        W 8670  31.626  31.952  13.984
40266W        W 8671  41.984  16.138  11.169
40267W        W 8672  17.658  39.534   1.589
40268W        W 8673   2.265  35.669   1.855
40269W        W 8674  11.596  43.275  14.165
40270W        W 8675  36.448  28.410   0.869
40271W        W 8676   2.630  25.843  13.949
40272W        W 8677  15.157   9.904  12.697
40273W        W 8678  41.881  41.069   0.331
40274W        W 8679   5.505  43.231   2.332
40275W        W 8680  10.559  26.928  13.484
40276W        W 8681  33.858  32.218  14.449
40277W        W 8682  29.479  39.356   4.528
40278W        W 8683  24.118  44.375   3.233
40279W        W 8684  41.951  14.890   2.266
40280W        W 8685   9.229   4.429   3.682
40281W        W 8686  38.967  15.250  13.044
40282W        W 8687  11.915  10.809  14.925
40283W        W 8688  17.088  35.361  14.441
40284W        W 8689  25.958   8.716   0.855
40285W        W 8690  44.235   6.975   4.129
40286W        W 8691  15.196   5.255  14.756
40287W        W 8692  28.646  39.531  12.495
40288W        W 8693  43.827  34.582  13.347
40289W        W 8694  34.637  14.271  12.905
40290W        W 8695  29.627  32.618  14.548
40291W        W 8696  35.064  18.548   0.636
40292W        W 8697  34.933  16.836  14.787
40293W        W 8698  34.536  25.974  13.833
40294W        W 8699  30.192  14.031   5.129
40295W        W 8700   2.059   4.226  14.460
40296W        W 8701  39.902  30.992   4.688
40297W        W 8702  22.189  12.047  13.296
40298W        W 8703  41.850  18.120   4.029
40299W        W 8704  12.084  39.465  11.000
40300W        W 8705  18.794  11.923  12.404
40301W        W 8706  10.277  44.847   9.949
40302W        W 8707  38.393   1.410   3.492
40303W        W 8708  37.200  21.115   0.996
40304W        W 8709  21.014  23.183   4.364
40305W        W 8710  34.790  29.974  12.875
40306W        W 8711  14.053   4.364  10.731
40307W        W 8712  36.079  29.919   3.632
40308W        W 8713  11.592  29.226   3.218
40309W        W 8714  32.425  12.934  12.504
40310W        W 8715  41.669  19.605   0.652
40311W        W 8716  12.167  33.080   2.228
40312W        W 8717   3.905  34.279   4.744
40313W        W 8718   9.290  16.378  13.921
40314W        W 8719   6.249  12.112   0.401
40315W        W 8720   1.699  34.062  10.649
40316W        W 8721  12.393  10.566  12.047
40317W        W 8722  30.727  22.021  12.299
40318W        W 8723   5.542  36.476  13.444
40319W        W 8724  27.657   4.895  13.577
40320W        W 8725  31.480  43.413  14.375
40321W        W 8726  38.100  44.265   1.154
40322W        W 8727   2.358  44.838   2.700
40323W        W 8728  14.350  20.559   1.318
40324W        W 8729   1.466  31.139   3.890
40325W        W 8730   1.931  33.849  12.374
40326W        W 8731   0.526  31.795  12.846
40327W        W 8732  32.536  30.585  14.605
40328W        W 8733  19.048   7.905   2.432
40329W        W 8734  12.184  44.106  10.769
40330W        W 8735  34.528  40.062   3.921
40331W        W 8736  19.685   0.826  12.798
40332W        W 8737  28.401  26.282  10.918
40333W        W 8738   2.462  31.669   0.970
40334W        W 8739  26.553   2.241   1.688
40335W        W 8740  11.491  12.824   4.589
40336W        W 8741  25.607  35.873  11.570
40337W        W 8742   3.808  30.482   0.924
40338W        W 8743   3.260  20.542  11.896
40339W        W 8744  18.405  14.337  14.353
40340W        W 8745  23.892  36.372  14.392
40341W        W 8746  24.040  13.709  13.051
40342W        W 8747  17.618  16.432   3.542
40343W        W 8748  15.599   8.214  14.487
40344W        W 8749   8.277  20.657   1.842
40345W        W 8750  20.842  29.052  11.030
40346W        W 8751  17.076  19.048  12.429
40347W        W 8752  28.119   2.755  14.967
40348W        W 8753  35.828  42.827   0.486
40349W        W 8754  28.238  23.812  14.783
40350W        W 8755  33.860  14.424   3.240
40351W        W 8756  19.426   1.856   4.632
40352W        W 8757  24.613  14.421   4.130
40353W        W 8758   4.899  27.665  14.824
40354W        W 8759  39.362  24.504  13.832
40355W        W 8760  25.799   6.077   1.409
40356W        W 8761  38.117  19.734   4.905
40357W        W 8762  35.908  16.040  14.509
40358W        W 8763  36.051   4.012  13.596
40359W        W 8764  17.091  34.272   3.648
40360W        W 8765  13.784  14.713   3.005
40361W        W 8766  40.965  34.552  13.011
40362W        W 8767  10.669  13.421  13.756
40363W        W 8768  32.423  29.857   0.486
40364W        W 8769   1.950   6.624  11.031
40365W        W 8770  24.670   8.748   2.368
40366W        W 8771  42.432  36.884   0.380
40367W        W 8772  30.505   3.530  14.242
40368W        W 8773  35.855  15.470  12.294
40369W        W 8774   0.500  41.674   4.044
40370W        W 8775  18.234  38.738   4.307
40371W        W 8776  20.702  13.190  11.994
40372W        W 8777  37.458  22.502  10.976
40373W        W 8778  31.794  20.608   3.388
40374W        W 8779  42.448   8.279   4.602
40375W        W 8780  36.939  33.424   3.214
40376W        W 8781  40.893  32.486  13.535
40377W        W 8782  37.263  12.799  10.831
40378W        W 8783  13.918   7.282   0.708
40379W        W 8784  28.070  18.249   2.588
40380W        W 8785  44.420  34.537   1.210
40381W        W 8786  29.188   5.870  14.903
40382W        W 8787  42.531  32.887  11.870
40383W        W 8788  41.310  15.178  12.456
40384W        W 8789   1.434  28.935   3.260
40385W        W 8790  31.293  28.427   0.465
40386W        W 8791  28.921  32.734   3.366
40387W        W 8792   6.703  33.974  10.759
40388W        W 8793  42.909  27.566   4.945
40389W        W 8794  43.890  15.979  10.675
40390W        W 8795  25.137  37.392  10.984
40391W        W 8796   8.946   3.199   2.453
40392W        W 8797  20.646  36.217   3.343
40393W        W 8798  23.801  42.290  12.891
40394W        W 8799  40.717  43.364  14.984
40395W        W 8800   9.278  33.406  11.154
40396W        W 8801  22.573  19.467   3.810
40397W        W 8802  31.402  29.081  11.100
40398W        W 8803  40.563  43.219   3.770
40399W        W 8804  36.017  41.715   2.947
40400W        W 8805  17.144  28.580   4.797
40401W        W 8806  38.878  15.065   4.859
40402W        W 8807   5.877  41.411   1.223
40403W        W 8808   8.791  26.070   1.255
40404W        W 8809  35.607   0.913   0.882
40405W        W 8810  31.855  28.590   1.062
40406W        W 8811  20.101   9.432   3.022
40407W        W 8812  33.505  40.403   5.020
40408W        W 8813   1.764  44.952  13.043
40409W        W 8814   3.732  27.095   0.851
40410W        W 8815   6.130   3.287   4.112
40411W        W 8816  40.062  37.907  10.434
40412W        W 8817  17.608  27.625   2.794
40413W        W 8818   1.394  44.347   3.979
40414W        W 8819  30.564  14.089   0.869
40415W        W 8820  13.214  14.816   0.448
40416W        W 8821  20.413   0.795  13.309
40417W        W 8822   1.592  30.022  14.901
40418W        W 8823  23.480   2.440  14.832
40419W        W 8824  44.928  43.858   3.331
40420W        W 8825   2.410   0.239  14.213
40421W        W 8826  21.707  34.357   2.924
40422W        W 8827   1.784   0.262  10.605
40423W        W 8828  38.854  31.106   4.705
40424W        W 8829   6.111   2.250   2.155
40425W        W 8830  17.303  27.452   3.176
40426W        W 8831  11.091   4.963   1.302
40427W        W 8832   7.809   5.322  11.047
40428W        W 8833  36.629  12.452   4.399
40429W        W 8834  20.673  28.478  13.521
40430W        W 8835  43.889  13.603   3.284
40431W        W 8836  24.010  13.319   3.681
40432W        W 8837  42.506   1.311   0.490
40433W        W 8838   2.843  34.578   1.361
40434W        W 8839  28.094  13.159  11.560
40435W        W 8840   7.580   0.928   4.666
40436W        W 8841   0.192  33.205   4.115
40437W        W 8842  40.312  24.702  11.076
40438W        W 8843   9.685   8.913  14.820
40439W        W 8844  29.388  19.129  10.708
40440W        W 8845  15.228  10.283  10.942
40441W        W 8846   3.795  32.937  12.156
40442W        W 8847  38.907  38.151   0.413
40443W        W 8848  10.588  30.234   1.737
40444W        W 8849  11.710   5.728  12.139
40445W        W 8850  43.422  14.375   3.042
40446W        W 8851  12.123  34.116  12.472
40447W        W 8852  29.402  38.345   3.325
40448W        W 8853  22.831  26.901  11.558
40449W        W 8854   9.811   2.803   2.900
40450W        W 8855   5.228  39.499   1.607
40451W        W 8856  22.783  42.529  13.070
40452W        W 8857  35.900  39.974   4.031
40453W        W 8858   1.945  16.577   3.679
40454W        W 8859  21.559  14.088  11.458
40455W        W 8860  30.939  44.335  12.165
40456W        W 8861  29.499  30.144  10.770
40457W        W 8862  27.495  15.323   3.127
40458W        W 8863  35.549  33.823   2.865
40459W        W 8864   3.503   8.387  12.462
40460W        W 8865  41.668  28.417  14.156
40461W        W 8866  11.878  41.559   4.732
40462W        W 8867  22.531  17.935   0.462
40463W        W 8868  43.020  13.351  13.513
40464W        W 8869  42.465  29.900   4.525
40465W        W 8870  13.830  14.757  12.027
40466W        W 8871  25.010  33.506  14.664
40467W        W 8872  27.238  13.288  14.854
40468W        W 8873   5.793   8.053   2.397
40469W        W 8874  33.402   2.728  11.421
40470W        W 8875  27.935  19.620   1.446
40471W        W 8876   3.850  23.640  12.485
40472W        W 8877  14.347  35.972   2.307
40473W        W 8878  18.116  34.439  13.923
40474W        W 8879  34.089  33.119  12.127
40475W        W 8880   6.654   8.192  13.357
40476W        W 8881  34.379  13.606  11.894
40477W        W 8882  32.850   2.524  11.894
40478W        W 8883   0.547  10.804   4.762
40479W        W 8884  15.531   8.634  12.350
40480W        W 8885   8.808   5.034  13.951
40481W        W 8886  40.737  37.452  12.435
40482W        W 8887  36.076  38.315   1.279
40483W        W 8888  38.139   3.905   4.173
40484W        W 8889  19.774  18.357  11.597
40485W        W 8890  13.253  18.147   5.351
40486W        W 8891  28.965  42.530  14.877
40487W        W 8892  29.148  19.156  12.861
40488W        W 8893  35.418  40.826  11.616
40489W        W 8894  36.869  33.366  13.445
40490W        W 8895  37.386  18.495   0.734
40491W        W 8896  29.864  24.657   1.371
40492W        W 8897   6.379  37.177   0.922
40493W        W 8898  29.616  28.058   4.981
40494W        W 8899   4.649  23.015   3.597
40495W        W 8900   8.309   4.718   0.716
40496W        W 8901  26.668  11.293   1.279
40497W        W 8902  12.448   3.984   4.251
40498W        W 8903  19.043  26.588  13.775
40499W        W 8904   0.742   6.014   2.669
40500W        W 8905  42.698  34.065   3.148
40501W        W 8906  34.917  40.584   0.935
40502W        W 8907  15.032  28.779  12.635
40503W        W 8908  40.303   7.597   1.791
40504W        W 8909  17.103  13.975  10.225
40505W        W 8910  15.595  40.759   4.525
40506W        W 8911  25.347  10.606  11.011
40507W        W 8912  22.259  31.932  11.643
40508W        W 8913  23.248   4.807   2.890
40509W        W 8914  34.152  13.527  12.382
40510W        W 8915  26.972  29.888  14.862
40511W        W 8916  21.386  35.156   4.188
40512W        W 8917  27.393  17.568   2.371
40513W        W 8918  18.196   7.366   1.028
40514W        W 8919  10.849   8.459   0.813
40515W        W 8920   8.015  32.046  14.884
40516W        W 8921  31.401  19.854   3.743
40517W        W 8922  17.595   1.338   4.697
40518W        W 8923  18.300   0.802  13.322
40519W        W 8924  28.335  28.215  14.266
40520W        W 8925  36.025   7.668  14.065
40521W        W 8926  31.213   7.762   0.861
40522W        W 8927  38.256  40.269  11.125
40523W        W 8928  24.836  11.704   0.766
40524W        W 8929  19.822   6.043   3.140
40525W        W 8930  21.734  27.177   2.787
40526W        W 8931  11.658  16.546  11.872
40527W        W 8932  21.200   1.695   0.031
40528W        W 8933   6.854  36.340   2.971
40529W        W 8934  43.276  14.425  11.184
40530W        W 8935   5.723  31.202   0.909
40531W        W 8936  12.384  15.694   3.907
40532W        W 8937  27.017   2.014  12.439
40533W        W 8938  29.359  19.886   3.225
40534W        W 8939  41.776   8.712  13.927
40535W        W 8940  15.072  22.080   2.785
40536W        W 8941  41.511  41.946   4.501
40537W        W 8942  13.180   0.677  13.236
40538W        W 8943  27.010  39.790   3.190
40539W        W 8944  36.793  15.209   1.301
40540W        W 8945   8.112  37.753  14.264
40541W        W 8946   8.324  28.097  12.682
40542W        W 8947  34.058   3.195   2.152
40543W        W 8948  40.014   6.441  12.053
40544W        W 8949   0.980   7.811  13.198
40545W        W 8950  12.405  10.860   0.114
40546W        W 8951  14.206   4.966   1.647
40547W        W 8952  32.602   8.586  13.478
40548W        W 8953  27.054  24.943   1.899
40549W        W 8954  42.337   1.012   2.746
40550W        W 8955  37.399  14.257   4.664
40551W        W 8956   6.782   8.160  10.697
40552W        W 8957  18.529   4.783   0.705
40553W        W 8958  19.601  20.331   1.828
40554W        W 8959  23.458  14.054  10.713
40555W        W 8960  18.702  34.439   1.415
40556W        W 8961  33.599  14.225  12.072
40557W        W 8962   9.653  15.508   1.240
40558W        W 8963  19.049  16.262  14.239
40559W        W 8964   2.895  33.875   0.883
40560W        W 8965  26.718  19.370  11.164
40561W        W 8966  20.775  10.674   4.655
40562W        W 8967  36.893  44.052  13.440
40563W        W 8968   8.611  40.958   4.603
40564W        W 8969  12.166  17.650   1.340
40565W        W 8970  20.503  20.289  12.359
40566W        W 8971   7.684  30.211  10.274
40567W        W 8972  38.931  30.845   1.793
40568W        W 8973   3.494   6.983   0.492
40569W        W 8974  39.399  20.623   1.011
40570W        W 8975  13.244  15.364   4.358
40571W        W 8976  30.555  40.579   0.246
40572W        W 8977  38.482  44.469   1.934
40573W        W 8978  13.586   4.911  14.677
40574W        W 8979  34.449  30.599  10.719
40575W        W 8980  38.377   3.471   0.582
40576W        W 8981   2.745  44.889   2.379
40577W        W 8982  11.249  22.822   2.822
40578W        W 8983  16.564   9.929   1.299
40579W        W 8984  35.766   4.232   4.492
40580W        W 8985  11.834  30.053  11.681
40581W        W 8986  27.173  27.367  14.864
40582W        W 8987  35.349   5.304  14.313
40583W        W 8988  23.746   3.856   2.777
40584W        W 8989   6.519  29.018  13.484
40585W        W 8990  33.555   2.960   2.120
40586W        W 8991  21.596  33.147  14.704
40587W        W 8992  36.607  25.572   4.621
40588W        W 8993  26.034  22.750  12.107
40589W        W 8994  38.099  27.543   0.882
40590W        W 8995  18.473  42.879   2.289
40591W        W 8996  37.479  39.811  13.167
40592W        W 8997  28.508  32.095   1.199
40593W        W 8998   4.511  40.743   3.694
40594W        W 8999  29.206  30.898  14.422
40595W        W 9000  21.688   1.450  11.979
40596W        W 9001  10.002  41.137  11.975
40597W        W 9002  30.009  13.028  11.214
40598W        W 9003  15.791  17.815   3.310
40599W        W 9004   3.547  13.833   4.153
40600W        W 9005  26.674   8.768  10.758
40601W        W 9006  29.517   5.207   1.838
40602W        W 9007   0.646  34.841  10.267
40603W        W 9008  39.213  19.207  14.933
40604W        W 9009  36.040  31.901   3.363
40605W        W 9010  28.482   1.767  12.601
40606W        W 9011  41.196  14.867   3.645
40607W        W 9012   0.251  23.414  11.636
40608W        W 9013   7.298  24.044  12.836
40609W        W 9014   9.991  27.098   4.678
40610W        W 9015  43.346  37.673   2.214
40611W        W 9016  13.703  28.421   1.291
40612W        W 9017  12.397  14.445  14.403
40613W        W 9018   5.614  26.482  11.960
40614W        W 9019  24.133  41.335   0.928
40615W        W 9020  15.406  23.286  14.859
40616W        W 9021  12.119  16.102  10.639
40617W        W 9022  41.923  35.082   4.317
40618W        W 9023   6.803  17.253  13.361
40619W        W 9024  18.497  20.321  13.133
40620W        W 9025   2.096  19.320   2.104
40621W        W 9026  15.269  14.741   4.342
40622W        W 9027  19.072  31.598   2.688
40623W        W 9028  24.726  26.170  12.715
40624W        W 9029  21.219  16.658   2.326
40625W        W 9030  43.281  39.054   3.323
40626W        W 9031  38.802   5.953   2.917
40627W        W 9032  44.099  43.879   3.743
40628W        W 9033   5.990   8.548   1.229
40629W        W 9034  39.873  21.554  10.677
40630W        W 9035  13.047  10.189   0.537
40631W        W 9036  22.878  23.580  14.238
40632W        W 9037  44.780   1.888   4.345
40633W        W 9038  15.554  31.536   4.020
40634W        W 9039   6.800   6.842  10.889
40635W        W 9040   2.148  40.992   3.977
40636W        W 9041  27.659   4.832  14.101
40637W        W 9042  16.645  21.111   4.109
40638W        W 9043  11.650  37.530   0.594
40639W        W 9044  32.864  10.352  10.641
40640W        W 9045   7.213  34.289  14.914
40641W        W 9046   0.915  15.147   0.718
40642W        W 9047  43.489  13.219   4.545
40643W        W 9048  37.810  44.474  14.923
40644W        W 9049  22.360  41.718   2.730
40645W        W 9050  26.212  37.142   3.703
40646W        W 9051  12.868  33.639  14.792
40647W        W 9052   3.060  20.848  13.552
40648W        W 9053  15.095  23.729   3.207
40649W        W 9054  22.581  40.413   4.613
40650W        W 9055   9.322   5.533   2.751
40651W        W 9056  41.262  28.733   3.748
40652W        W 9057  38.365  40.385   4.150
40653W        W 9058  43.293   0.942   1.502
40654W        W 9059  38.672  13.957  11.142
40655W        W 9060  12.393   2.914   2.669
40656W        W 9061  21.647  19.073   0.720
40657W        W 9062  19.133   9.276   3.408
40658W        W 9063  12.732  37.401   4.849
40659W        W 9064  23.019  36.237  13.960
40660W        W 9065   3.257  20.727  13.079
40661W        W 9066  20.769  28.502  12.994
40662W        W 9067   5.719  41.493  10.956
40663W        W 9068   0.974  21.059  13.012
40664W        W 9069  41.238  44.757   2.893
40665W        W 9070   9.791  39.343  10.445
40666W        W 9071   6.140  24.686  13.117
40667W        W 9072  25.814  27.769   0.477
40668W        W 9073  21.503  23.035  10.357
40669W        W 9074  13.537  22.327   2.679
40670W        W 9075  40.347  25.632  10.435
40671W        W 9076  32.461  44.782   1.843
40672W        W 9077  20.734  16.283   2.639
40673W        W 9078   5.847  27.972  11.757
40674W        W 9079  29.428  10.652  13.051
40675W        W 9080  28.042  41.418   2.384
40676W        W 9081  25.532  42.680  13.469
40677W        W 9082   9.124  19.659  12.924
40678W        W 9083   2.758  16.696  10.768
40679W        W 9084  20.189   4.423   1.434
40680W        W 9085  20.581  18.591   0.004
40681W        W 9086  19.757  41.014  14.281
40682W        W 9087  40.487  13.257   2.193
40683W        W 9088  11.011  11.324   0.170
40684W        W 9089  21.034  36.568   2.374
40685W        W 9090  27.041  11.284   4.495
40686W        W 9091  40.918  27.942   2.198
40687W        W 9092  22.066  35.976  10.767
40688W        W 9093   4.948   2.491   2.732
40689W        W 9094  40.479  14.651   1.405
40690W        W 9095  25.945  43.581   2.776
40691W        W 9096  36.810  40.833   3.701
40692W        W 9097  13.558   5.219   4.620
40693W        W 9098  18.176   0.952  14.195
40694W        W 9099   8.165  27.198  13.163
40695W        W 9100  38.143   1.275   0.784
40696W        W 9101  14.275  39.863   3.299
40697W        W 9102  31.109  13.121   2.765
40698W        W 9103  13.379   5.780  12.418
40699W        W 9104  23.705  37.576  13.014
40700W        W 9105  30.011  41.330  10.579
40701W        W 9106  35.925  41.671  12.991
40702W        W 9107  39.401  34.404   0.268
40703W        W 9108  15.131  31.014  13.292
40704W        W 9109  15.599   4.655  14.756
40705W        W 9110  10.065   0.963   3.744
40706W        W 9111  35.901  19.633   1.070
40707W        W 9112  20.508  29.204  12.344
40708W        W 9113  24.988  31.496  10.703
40709W        W 9114   7.862  16.594   3.546
40710W        W 9115  44.274  20.864   2.801
40711W        W 9116  39.385  31.949   5.058
40712W        W 9117   0.519   4.632   0.300
40713W        W 9118  20.310  33.156  14.045
40714W        W 9119   0.004  41.987  12.559
40715W        W 9120   3.804  17.074  14.459
40716W        W 9121  43.481  36.281  14.332
40717W        W 9122  31.969  37.108  10.766
40718W        W 9123   9.152  27.480   4.540
40719W        W 9124  28.570  12.829   1.290
40720W        W 9125  21.241   9.758  10.212
40721W        W 9126  15.685  41.768   0.677
40722W        W 9127  37.408   8.765   1.919
40723W        W 9128   7.343  37.179   4.634
40724W        W 9129  31.991   1.892  11.857
40725W        W 9130   5.449  39.352   0.232
40726W        W 9131  16.055  26.348   0.828
40727W        W 9132  33.202  10.561   1.047
40728W        W 9133  20.470  42.200  12.433
40729W        W 9134  18.509  13.580   3.100
40730W        W 9135  36.571  21.588  12.998
40731W        W 9136  28.600   0.276  14.999
40732W        W 9137  21.708   6.403  12.987
40733W        W 9138  20.137  13.201   1.135
40734W        W 9139  31.455  15.582  11.911
40735W        W 9140  36.566   0.232  13.539
40736W        W 9141  15.732   0.305   1.763
40737W        W 9142  20.690  35.462   0.509
40738W        W 9143  41.501  19.574  10.712
40739W        W 9144  29.144  19.841   0.924
40740W        W 9145   4.821  22.294   4.172
40741W        W 9146  42.992  13.070   4.748
40742W        W 9147  13.145  21.223  13.867
40743W        W 9148  42.089  18.948  10.864
40744W        W 9149   6.047   9.807   1.298
40745W        W 9150  24.643  29.120   2.537
40746W        W 9151  36.637  35.810  13.603
40747W        W 9152   6.171  23.420  13.335
40748W        W 9153  44.890  34.073   2.119
40749W        W 9154  41.795  25.712  11.090
40750W        W 9155  17.888  21.729   0.437
40751W        W 9156  22.841  28.148   3.237
40752W        W 9157  22.203  25.581   0.875
40753W        W 9158  31.170  22.053  11.463
40754W        W 9159  31.384  24.428  13.296
40755W        W 9160  31.716   2.225   2.373
40756W        W 9161   0.353   4.878   4.609
40757W        W 9162  16.767  35.539   2.850
40758W        W 9163   3.866  15.870   3.619
40759W        W 9164  23.635  28.537   4.676
40760W        W 9165   6.160  10.567  12.171
40761W        W 9166  21.295  10.127  12.443
40762W        W 9167  30.153  17.205  12.151
40763W        W 9168  16.299  10.807   1.193
40764W        W 9169   0.476  30.878   3.227
40765W        W 9170  27.129  16.810  11.399
40766W        W 9171  31.104  24.002   0.575
40767W        W 9172  37.900  24.469   4.013
40768W        W 9173   0.226  30.506  14.825
40769W        W 9174   9.869  37.980  10.707
40770W        W 9175   7.697  36.394  10.752
40771W        W 9176  40.002  13.939   4.818
40772W        W 9177  36.909  18.684  12.879
40773W        W 9178  41.090   1.709   1.688
40774W        W 9179  26.460  16.411   2.777
40775W        W 9180  43.722   6.389   0.875
40776W        W 9181  36.367  31.277   4.863
40777W        W 9182  43.976  22.743   3.813
40778W        W 9183  12.135  23.270  11.067
40779W        W 9184  33.979  26.158   2.225
40780W        W 9185  40.272  14.499  14.937
40781W        W 9186  35.970  30.519  12.855
40782W        W 9187  21.108  16.791  12.853
40783W        W 9188   0.005  44.787  12.540
40784W        W 9189  43.758   1.127   3.647
40785W        W 9190  15.620  34.359   4.924
40786W        W 9191  15.114  32.937  13.010
40787W        W 9192  35.606  29.413  13.798
40788W        W 9193  23.093  37.440   5.020
40789W        W 9194  14.785  41.675  14.439
40790W        W 9195  37.344  38.449  13.920
40791W        W 9196  20.389  39.106  12.959
40792W        W 9197  39.488  26.553   1.365
40793W        W 9198  10.404   8.139   3.933
40794W        W 9199  18.607  37.383   1.489
40795W        W 9200   5.480  40.608   3.614
40796W        W 9201   6.802  41.591  10.688
40797W        W 9202   8.877  24.132   2.202
40798W        W 9203  32.606  20.185  13.315
40799W        W 9204  14.017  13.694   0.328
40800W        W 9205  29.811  41.863   0.721
40801W        W 9206  40.716  37.999  13.430
40802W        W 9207  26.086   8.891  13.961
40803W        W 9208  40.551  42.391   0.493
40804W        W 9209   3.741  37.095  10.370
40805W        W 9210  34.353  29.523  14.395
40806W        W 9211  17.480  30.586   1.885
40807W        W 9212  13.254  24.630  13.698
40808W        W 9213  11.488   2.581   0.155
40809W        W 9214  14.658  39.813  13.000
40810W        W 9215   4.245  20.849   0.431
40811W        W 9216  21.222   2.950   1.656
40812W        W 9217  44.921  11.211  10.686
40813W        W 9218  32.398  15.561  12.084
40814W        W 9219  35.820   0.321  13.050
40815W        W 9220   4.267  17.545   0.226
40816W        W 9221  41.564  37.750   3.195
40817W        W 9222  41.496   8.726  13.016
40818W        W 9223  23.748  40.147   3.569
40819W        W 9224  20.347  34.515   3.641
40820W        W 9225  38.792  17.119  10.827
40821W        W 9226  21.484  14.567  11.678
40822W        W 9227  34.568  12.675   0.958
40823W        W 9228  42.563  38.412  10.696
40824W        W 9229  29.742   0.028  14.139
40825W        W 9230   6.780  35.169   3.312
40826W        W 9231  39.493  12.498  14.977
40827W        W 9232   3.416  28.961   0.923
40828W        W 9233   9.886   7.177   2.200
40829W        W 9234  11.337  23.298   2.690
40830W        W 9235  40.853   2.356  14.426
40831W        W 9236  41.433  40.608  11.061
40832W        W 9237  43.921  36.082  14.531
40833W        W 9238   2.323   5.982  12.015
40834W        W 9239  38.444   4.300  14.455
40835W        W 9240  30.555  42.641  11.526
40836W        W 9241  39.517  40.576  10.680
40837W        W 9242  36.881  13.175   3.643
40838W        W 9243  23.514   5.290  11.634
40839W        W 9244  37.326   6.409  12.068
40840W        W 9245  18.745  39.777  12.816
40841W        W 9246  25.561  20.613   4.613
40842W        W 9247  14.298   6.362   3.125
40843W        W 9248  24.460  30.742   1.553
40844W        W 9249  17.474  11.875   2.463
40845W        W 9250  17.040  33.478  11.377
40846W        W 9251  14.216   8.575   1.277
40847W        W 9252  24.997  25.241   3.190
40848W        W 9253  28.901  34.863  11.067
40849W        W 9254  40.483   8.197  13.720
40850W        W 9255  42.560  23.929   1.979
40851W        W 9256  37.318  18.548   3.201
40852W        W 9257   0.478  40.122  13.253
40853W        W 9258  37.609  28.345   4.056
40854W        W 9259  13.701   8.831   3.094
40855W        W 9260  35.809  17.113   0.272
40856W        W 9261  31.087  42.442   4.072
40857W        W 9262  10.589  24.078   1.771
40858W        W 9263  29.135  15.127   0.095
40859W        W 9264   0.933   8.731  12.343
40860W        W 9265  42.933  42.559   0.805
40861W        W 9266   1.173  13.101  13.515
40862W        W 9267  37.623   4.417   1.828
40863W        W 9268   2.422  31.429  13.565
40864W        W 9269  13.117  43.935  10.610
40865W        W 9270   6.413  12.342  14.369
40866W        W 9271  13.128  11.792   1.770
40867W        W 9272   6.419  16.634  11.021
40868W        W 9273  20.689  18.236  12.735
40869W        W 9274  22.587  38.833   0.435
40870W        W 9275   8.335  22.250   1.653
40871W        W 9276  42.514  17.937  11.135
40872W        W 9277  24.463  14.862   1.398
40873W        W 9278  30.471  27.466  14.990
40874W        W 9279  38.369  32.724   3.805
40875W        W 9280  12.662  44.831  14.011
40876W        W 9281  23.737  25.814  11.130
40877W        W 9282   1.396  23.185   1.941
40878W        W 9283  19.735  40.540  12.548
40879W        W 9284   3.208  30.458  12.931
40880W        W 9285  28.120   3.228   4.657
40881W        W 9286  38.113  13.785   2.815
40882W        W 9287   3.225   6.948   0.941
40883W        W 9288  26.973   7.294   3.187
40884W        W 9289  12.698  42.088  11.593
40885W        W 9290  13.132  14.782  11.637
40886W        W 9291  12.559  11.644   2.446
40887W        W 9292   7.226   6.415   1.715
40888W        W 9293  37.955  35.927   3.540
40889W        W 9294  34.871  33.941   1.956
40890W        W 9295  10.142  30.593   0.730
40891W        W 9296  16.678  12.341  10.563
40892W        W 9297  20.765   7.050  13.872
40893W        W 9298   8.294  29.721   0.231
40894W        W 9299  19.299  18.815  13.328
40895W        W 9300   3.593  20.317   1.186
40896W        W 9301  13.167  15.494  13.802
40897W        W 9302  28.210  22.781   0.663
40898W        W 9303  28.774  12.338  12.924
40899W        W 9304  23.447  43.339  10.659
40900W        W 9305  13.868  18.107   3.094
40901W        W 9306  16.299   9.695  12.127
40902W        W 9307  30.103   0.968   3.587
40903W        W 9308   5.975  25.368  11.303
40904W        W 9309  40.944  21.197   3.206
40905W        W 9310  42.830  44.002   2.715
40906W        W 9311   4.671  20.802  11.923
40907W        W 9312  29.497  16.677   0.278
40908W        W 9313  44.200  11.690   3.309
40909W        W 9314  37.032  18.804  14.610
40910W        W 9315  16.260  28.308   0.471
40911W        W 9316  28.425  42.962  13.115
40912W        W 9317   1.962   9.824  13.193
40913W        W 9318  35.159  30.620   5.002
40914W        W 9319  17.484  21.182  11.409
40915W        W 9320  11.353  13.801  12.629
40916W        W 9321   3.182  14.820   3.371
40917W        W 9322  44.663  35.494  12.408
40918W        W 9323  39.936  42.861   1.489
40919W        W 9324  12.635  39.063   3.141
40920W        W 9325  22.061  22.998   2.316
40921W        W 9326  38.661  18.721  13.136
40922W        W 9327  38.926  21.271   1.900
40923W        W 9328  20.653  26.999   0.893
40924W        W 9329   5.799  24.377   3.417
40925W        W 9330  18.743  25.117   4.539
40926W        W 9331   0.254  37.096  14.780
40927W        W 9332   4.919  20.843  12.384
40928W        W 9333   6.650  20.314   3.451
40929W        W 9334  22.675  16.561  11.046
40930W        W 9335  27.783  27.942  12.491
40931W        W 9336   9.325  34.662  11.863
40932W        W 9337  29.577   8.417   1.821
40933W        W 9338  43.893  34.392   1.206
40934W        W 9339   1.234  20.541  11.196
40935W        W 9340   7.368  19.094  11.223
40936W        W 9341  13.333  41.555   1.198
40937W        W 9342  31.662  41.437  12.757
40938W        W 9343   5.745   1.454  10.686
40939W        W 9344  40.018  36.546  14.829
40940W        W 9345  22.096   9.183  12.877
40941W        W 9346   3.760  44.494  14.205
40942W        W 9347  13.660   6.851   3.851
40943W        W 9348   2.982  43.694   3.694
40944W        W 9349   2.029  18.493  13.691
40945W        W 9350  23.633  31.104   2.150
40946W        W 9351  18.282   5.998  12.823
40947W        W 9352   8.323   5.337  11.027
40948W        W 9353  20.829  42.848   3.149
40949W        W 9354   1.986  29.073   0.434
40950W        W 9355  14.793  39.908  12.068
40951W        W 9356  23.654  17.515   4.972
40952W        W 9357   3.075   3.572   9.895
40953W        W 9358   4.786   5.017  14.075
40954W        W 9359  38.801  10.322  14.354
40955W        W 9360   8.817  42.757   1.403
40956W        W 9361  35.890   6.294  13.882
40957W        W 9362  11.831  32.600   4.835
40958W        W 9363  17.084  28.265   2.290
40959W        W 9364   4.048  24.983   3.244
40960W        W 9365  12.289   1.037   2.321
40961W        W 9366  23.546   8.040   1.714
40962W        W 9367  33.367  40.497   2.805
40963W        W 9368  35.834  17.761   2.223
40964W        W 9369  35.992  15.622   9.901
40965W        W 9370  10.054  37.333  12.197
40966W        W 9371  15.338  13.661  14.846
40967W        W 9372   1.543  26.394   1.337
40968W        W 9373  26.240  11.845   1.886
40969W        W 9374  25.224   5.341   3.302
40970W        W 9375  32.395  44.277  11.950
40971W        W 9376  36.875  35.542  14.933
40972W        W 9377  34.059  13.323   4.134
40973W        W 9378  38.149   0.452  12.480
40974W        W 9379  15.622  34.516  11.125
40975W        W 9380  33.344  21.067   2.755
40976W        W 9381  32.861  43.473  11.941
40977W        W 9382  29.204  21.497   1.786
40978W        W 9383  42.046  12.938   2.340
40979W        W 9384  18.269  35.138   2.383
40980W        W 9385  20.952  33.606   2.654
40981W        W 9386  35.114  28.917   4.079
40982W        W 9387  23.490   2.862   3.448
40983W        W 9388  25.608   2.749   4.393
40984W        W 9389   5.283  12.391   2.715
40985W        W 9390  27.503  31.100   1.684
40986W        W 9391  23.193  26.010   4.237
40987W        W 9392  10.791  17.282   3.640
40988W        W 9393  12.108   9.715  12.341
40989W        W 9394  40.826  17.932   4.132
40990W        W 9395  23.250   0.988   3.750
40991W        W 9396  41.172  30.506   0.370
40992W        W 9397  11.778  36.535  11.673
40993W        W 9398  39.421   5.811   5.469
40994W        W 9399  20.569  41.729   2.414
40995W        W 9400  30.628  21.420  13.965
40996W        W 9401   4.447   7.777   2.829
40997W        W 9402  26.018  20.081  13.304
40998W        W 9403   3.297  13.872   2.337
40999W        W 9404  15.590  14.054  13.109
41000W        W 9405  18.086  36.419   1.739
41001W        W 9406  17.435   4.517   4.299
41002W        W 9407   5.147   7.115   1.803
41003W        W 9408  19.617  14.848   0.280
41004W        W 9409  43.692  31.960   3.131
41005W        W 9410  16.772  29.512   2.839
41006W        W 9411   4.967  20.980   2.650
41007W        W 9412  16.347  17.060  11.113
41008W        W 9413  26.186   7.856   1.367
41009W        W 9414  38.906  42.546   3.186
41010W        W 9415  17.220  14.665  10.694
41011W        W 9416  15.979  35.490  10.936
41012W        W 9417  33.675  40.141   0.456
41013W        W 9418   1.888   7.957   3.284
41014W        W 9419  18.571  42.975   3.736
41015W        W 9420   8.040   4.979  13.554
41016W        W 9421  11.284   9.684   2.596
41017W        W 9422  10.193   6.830  11.612
41018W        W 9423  39.545   4.921  11.950
41019W        W 9424  12.053  33.959   0.752
41020W        W 9425   0.830  44.228   1.016
41021W        W 9426  42.880  36.921   2.310
41022W        W 9427   1.511  30.939  14.786
41023W        W 9428  35.173  19.206   4.222
41024W        W 9429  23.075   9.772  13.742
41025W        W 9430  39.537   2.271   1.137
41026W        W 9431  29.232  29.190   1.786
41027W        W 9432   3.105  36.494   0.940
41028W        W 9433  15.579  29.655  13.804
41029W        W 9434  17.866  10.593  14.991
41030W        W 9435  28.189  31.477   2.671
41031W        W 9436   3.049   7.183   3.778
41032W        W 9437   7.958   0.025  12.938
41033W        W 9438   2.316   5.510  13.260
41034W        W 9439  16.505  26.991  14.373
41035W        W 9440  31.475  41.440  12.247
41036W        W 9441  26.136  28.986  13.565
41037W        W 9442  30.038  30.159   1.892
41038W        W 9443  20.351   9.321   4.320
41039W        W 9444  11.783  13.823  13.318
41040W        W 9445  37.553  43.992   3.963
41041W        W 9446   3.408  32.027   2.744
41042W        W 9447  12.691  12.742   0.846
41043W        W 9448  10.578   5.793  12.037
41044W        W 9449  13.843  36.088  11.166
41045W        W 9450  21.951  17.358  12.072
41046W        W 9451  10.623  23.743  12.605
41047W        W 9452  14.402  26.898  11.130
41048W        W 9453  23.537  40.179  13.830
41049W        W 9454  41.696  44.818   2.600
41050W        W 9455  40.758   4.788   4.605
41051W        W 9456  42.860   7.856   2.538
41052W        W 9457  43.059  42.028   0.856
41053W        W 9458   1.962  39.088  14.265
41054W        W 9459  13.549   9.174   4.151
41055W        W 9460  40.346  33.016  10.410
41056W        W 9461  41.541  11.364   4.050
41057W        W 9462  44.511   7.194   0.669
41058W        W 9463  26.694  20.150   2.846
41059W        W 9464  19.744  39.334   3.207
41060W        W 9465  18.700  12.930   0.869
41061W        W 9466  23.101  29.609   2.782
41062W        W 9467  21.326  37.972  11.664
41063W        W 9468  39.503  13.803   4.655
41064W        W 9469  29.346  15.714   1.872
41065W        W 9470   8.932  44.930  11.130
41066W        W 9471  43.151  44.867  13.379
41067W        W 9472  36.072  35.658   4.582
41068W        W 9473  16.091   6.929  14.167
41069W        W 9474  25.866  17.711   2.622
41070W        W 9475  40.221   4.914  14.419
41071W        W 9476   3.226  22.312   1.446
41072W        W 9477  30.521  14.941   4.593
41073W        W 9478  20.539   0.926  11.454
41074W        W 9479  26.059   5.633  12.129
41075W        W 9480  14.704  13.580   3.773
41076W        W 9481  19.577  43.832  13.408
41077W        W 9482  13.040  20.259  11.006
41078W        W 9483   2.464  36.957   0.484
41079W        W 9484  23.013  29.037  10.488
41080W        W 9485  30.155  22.091  13.560
41081W        W 9486  37.960   2.347  14.773
41082W        W 9487   8.250   3.904   3.828
41083W        W 9488  42.530   8.709   1.883
41084W        W 9489  14.841  36.039   0.375
41085W        W 9490  26.801  18.798  10.744
41086W        W 9491  24.983  24.816  11.609
41087W        W 9492  10.045  12.774  14.410
41088W        W 9493  29.088  19.246   0.111
41089W        W 9494  26.967   3.778   3.642
41090W        W 9495   5.961  17.370  14.803
41091W        W 9496  34.734  14.775   2.872
41092W        W 9497  42.114  38.340   1.424
41093W        W 9498  34.093  42.165  14.860
41094W        W 9499  41.880  28.935   2.212
41095W        W 9500  20.118  20.510  14.024
41096W        W 9501  37.120  11.338   3.073
41097W        W 9502  11.733  32.049   2.236
41098W        W 9503  17.761  38.338   0.401
41099W        W 9504  30.907   0.348   1.419
41100W        W 9505   4.011   3.908   4.217
41101W        W 9506  44.712   8.806   1.233
41102W        W 9507   7.015   5.414  10.704
41103W        W 9508  32.376  36.128   2.318
41104W        W 9509   2.475  44.348   3.624
41105W        W 9510  32.316  36.359   0.743
41106W        W 9511   7.209   4.876   2.196
41107W        W 9512  32.989   3.910  11.171
41108W        W 9513  25.251   7.230   4.424
41109W        W 9514  39.034  12.781   0.724
41110W        W 9515   4.341  14.561  13.494
41111W        W 9516  14.319  37.493  12.376
41112W        W 9517  15.756   2.265  11.874
41113W        W 9518   7.897  22.492  13.052
41114W        W 9519  44.409  16.165   1.724
41115W        W 9520  14.020  32.340  12.942
41116W        W 9521  14.005   0.521  14.930
41117W        W 9522   6.776  41.359  11.586
41118W        W 9523  41.766  42.981  12.864
41119W        W 9524   4.461  26.002   1.635
41120W        W 9525  22.041  29.155   1.482
41121W        W 9526   8.751  22.591   4.585
41122W        W 9527   0.692  14.424  14.429
41123W        W 9528  12.522  40.643  13.997
41124W        W 9529  34.335  40.294  12.937
41125W        W 9530   6.370  41.156  14.773
41126W        W 9531  16.277  38.499   0.257
41127W        W 9532   0.435  34.112   2.422
41128W        W 9533  18.086  18.688  10.672
41129W        W 9534  30.112  43.772  10.523
41130W        W 9535  25.467   7.145  10.775
41131W        W 9536  36.041  38.235  11.129
41132W        W 9537  36.644  44.684   3.324
41133W        W 9538  31.024  10.749   2.935
41134W        W 9539  29.939  22.456   2.379
41135W        W 9540   9.561  34.340   1.949
41136W        W 9541  37.555  21.555  11.850
41137W        W 9542  16.307   5.179   0.742
41138W        W 9543   5.936  28.982  11.478
41139W        W 9544   8.909  39.328   3.646
41140W        W 9545   1.337  27.487  12.498
41141W        W 9546   5.742  37.137  12.511
41142W        W 9547  43.458  31.963  11.169
41143W        W 9548  40.004  30.556  14.753
41144W        W 9549   2.485   4.873   3.637
41145W        W 9550  38.123  27.560   3.585
41146W        W 9551  20.238  11.378   1.444
41147W        W 9552   5.592  19.123  12.502
41148W        W 9553   3.265  39.519  13.386
41149W        W 9554   5.345  29.996   1.008
41150W        W 9555  21.729  18.475   0.683
41151W        W 9556  42.270  43.708   4.776
41152W        W 9557  22.056  13.358   3.874
41153W        W 9558  15.627  29.838  12.624
41154W        W 9559  23.547  23.059   3.719
41155W        W 9560  28.353  34.535  12.437
41156W        W 9561  37.499  12.183  12.473
41157W        W 9562  29.472   3.852  13.615
41158W        W 9563  12.060  22.643   1.875
41159W        W 9564  24.739  32.480   4.221
41160W        W 9565   4.306  23.461   4.413
41161W        W 9566  16.315  23.103   4.284
41162W        W 9567   2.153   3.512  13.728
41163W        W 9568  11.358  33.948  13.309
41164W        W 9569  26.687   1.756  12.083
41165W        W 9570   5.584   3.281   3.669
41166W        W 9571  12.629  43.292   1.898
41167W        W 9572   4.656  17.209   0.001
41168W        W 9573   2.591  10.092   3.328
41169W        W 9574  18.169  18.761   2.311
41170W        W 9575   2.414   1.104  11.296
41171W        W 9576   8.389   7.827   0.457
41172W        W 9577  28.158   3.288  13.907
41173W        W 9578  41.857  13.936  13.313
41174W        W 9579  36.205  26.507  11.904
41175W        W 9580  22.613  36.089  14.737
41176W        W 9581  22.932  21.096  13.640
41177W        W 9582  34.913   1.773   2.386
41178W        W 9583  13.712  20.768   3.193
41179W        W 9584  26.120  37.508  10.619
41180W        W 9585  13.172  26.719   9.939
41181W        W 9586  26.454  33.398   2.911
41182W        W 9587  44.591  19.371   3.621
41183W        W 9588   2.205  10.410   0.971
41184W        W 9589  21.750  25.290  13.856
41185W        W 9590   0.391  19.689   1.519
41186W        W 9591   3.241   8.857  13.150
41187W        W 9592  18.911   9.405  14.899
41188W        W 9593  22.094   9.822   1.528
41189W        W 9594   2.438  12.615  11.580
41190W        W 9595  20.211  39.875  10.878
41191W        W 9596  13.721  27.969  13.491
41192W        W 9597   6.846  29.564  13.987
41193W        W 9598   2.758  35.896   3.640
41194W        W 9599  40.524   6.304  11.905
41195W        W 9600  23.838   1.450  11.414
41196W        W 9601  22.470  16.653  13.383
41197W        W 9602  39.144  24.909  14.533
41198W        W 9603   7.895  43.943  10.399
41199W        W 9604  23.068  37.489   2.598
41200W        W 9605  20.084  30.489   1.473
41201W        W 9606  22.130  18.682  10.680
41202W        W 9607  19.773   8.371  10.924
41203W        W 9608  11.106  35.831   2.836
41204W        W 9609   6.233   3.782  11.603
41205W        W 9610  10.720   7.576  12.100
41206W        W 9611   0.314  28.945   0.495
41207W        W 9612  20.157  36.017  13.572
41208W        W 9613   8.448  37.770  12.172
41209W        W 9614  17.330   0.302   1.996
41210W        W 9615  37.417   9.748   4.250
41211W        W 9616   1.717  41.811   0.797
41212W        W 9617  12.762   0.817  11.194
41213W        W 9618  28.032  22.024   3.676
41214W        W 9619   5.713  19.731   0.195
41215W        W 9620  22.130  20.730  10.844
41216W        W 9621   0.333  25.977  12.070
41217W        W 9622  27.923  36.774   0.359
41218W        W 9623  13.149  43.463   2.753
41219W        W 9624  42.532  18.724  10.718
41220W        W 9625  17.664  24.160  11.718
41221W        W 9626  36.649   1.576   1.375
41222W        W 9627  34.227  36.677   0.742
41223W        W 9628   3.337  24.324  11.501
41224W        W 9629   6.223  12.376  11.639
41225W        W 9630  22.186  35.183  13.846
41226W        W 9631   7.443   7.162   1.214
41227W        W 9632  42.287  22.164  13.008
41228W        W 9633  39.507   2.025   0.691
41229W        W 9634   5.645  17.668  12.559
41230W        W 9635  22.216  42.769  12.421
41231W        W 9636  14.178  36.561  13.806
41232W        W 9637  23.514  10.595  10.751
41233W        W 9638  23.043  40.886   1.276
41234W        W 9639   3.609  18.465   2.267
41235W        W 9640  32.014  14.337  12.032
41236W        W 9641  29.684  31.440  13.860
41237W        W 9642  13.953  10.249  12.495
41238W        W 9643  31.532  33.810   4.600
41239W        W 9644  15.323  10.776  12.411
41240W        W 9645  10.752  22.483  12.143
41241W        W 9646   4.169  40.832   4.102
41242W        W 9647  28.682  14.284  13.494
41243W        W 9648  12.050   9.395  13.082
41244W        W 9649   7.789  15.274  11.936
41245W        W 9650   5.760  38.711   4.778
41246W        W 9651  26.596  44.877   2.578
41247W        W 9652  18.796   7.694  12.125
41248W        W 9653  29.133  22.293  11.221
41249W        W 9654  37.609   5.478  11.087
41250W        W 9655   7.457  12.813  12.051
41251W        W 9656  20.029  34.049   4.741
41252W        W 9657   6.622  18.237   0.840
41253W        W 9658   5.767  42.246   1.724
41254W        W 9659  25.100  43.566   0.242
41255W        W 9660  27.590  19.473  12.040
41256W        W 9661  26.618  42.475  14.328
41257W        W 9662  31.907  10.331   2.861
41258W        W 9663   7.442  29.567  11.800
41259W        W 9664  19.581  34.964   3.707
41260W        W 9665  10.058  36.554   0.898
41261W        W 9666  21.763  16.115   1.773
41262W        W 9667  28.003  25.082   3.169
41263W        W 9668  32.470  13.951   4.717
41264W        W 9669  44.394  12.445  13.506
41265W        W 9670  23.570  26.402   4.205
41266W        W 9671  35.802  16.281  12.059
41267W        W 9672  19.781  16.214  12.195
41268W        W 9673  40.749  40.594  13.277
41269W        W 9674  33.153  31.375  12.049
41270W        W 9675  36.027   4.554  13.547
41271W        W 9676  28.585  17.070   4.100
41272W        W 9677  15.175  38.420  12.937
41273W        W 9678  26.897  36.671  14.883
41274W        W 9679  30.547  39.319  13.552
41275W        W 9680  26.409  11.782  11.001
41276W        W 9681  21.688  31.942   4.730
41277W        W 9682  20.717  28.668   1.423
41278W        W 9683  32.657  19.792  11.483
41279W        W 9684  11.439   4.578   3.887
41280W        W 9685  36.919  39.273   1.872
41281W        W 9686  44.855  14.893  13.161
41282W        W 9687  41.460  13.874  14.487
41283W        W 9688  31.883   6.639  11.696
41284W        W 9689  14.383  17.888   1.170
41285W        W 9690  10.346  17.048  12.565
41286W        W 9691   1.681  11.284  12.560
41287W        W 9692  42.000   0.657  11.858
41288W        W 9693  40.223  15.673   1.683
41289W        W 9694  14.647  42.988  11.444
41290W        W 9695  15.630  15.612  10.305
41291W        W 9696  29.039  38.355   0.461
41292W        W 9697   1.400  24.998  12.132
41293W        W 9698  27.961  40.998   1.552
41294W        W 9699  31.015  43.947  10.922
41295W        W 9700   5.507  29.758  12.206
41296W        W 9701   7.344  43.999  13.432
41297W        W 9702  23.191   1.481   0.638
41298W        W 9703   2.712  24.106   1.354
41299W        W 9704  34.021  17.997  12.956
41300W        W 9705   5.123  11.715  14.308
41301W        W 9706  31.382  21.663  13.360
41302W        W 9707  14.126   7.530  10.281
41303W        W 9708   7.924  36.518  11.236
41304W        W 9709  15.720  16.784  14.108
41305W        W 9710  30.360  17.631   1.929
41306W        W 9711  25.767  18.756   3.327
41307W        W 9712   6.865  42.329  11.458
41308W        W 9713   5.274  23.694   3.237
41309W        W 9714  40.074  31.840  11.633
41310W        W 9715  35.882  22.502   3.687
41311W        W 9716  42.114  29.981  11.609
41312W        W 9717   5.445   5.345   3.328
41313W        W 9718  14.418  16.843   0.673
41314W        W 9719  13.369  13.166  10.649
41315W        W 9720   1.860  30.503  10.757
41316W        W 9721  42.631  41.480   3.708
41317W        W 9722   0.513   3.312  14.559
41318W        W 9723  36.327  27.592  12.138
41319W        W 9724  39.624  13.525  11.708
41320W        W 9725  43.970   1.419  10.435
41321W        W 9726  14.850  31.300   4.083
41322W        W 9727  21.139  39.949  12.408
41323W        W 9728  39.064  37.053   4.376
41324W        W 9729   3.742  24.055   1.174
41325W        W 9730  40.305  18.224   2.913
41326W        W 9731  33.137  20.206  12.017
41327W        W 9732   4.012  15.982  12.337
41328W        W 9733  17.825  15.626   3.267
41329W        W 9734  32.135  13.973  11.632
41330W        W 9735  31.344  41.045  10.517
41331W        W 9736  42.725  26.435   0.967
41332W        W 9737  42.519  16.155   1.209
41333W        W 9738  19.143  34.893  10.614
41334W        W 9739  13.301  10.376   3.721
41335W        W 9740  33.108  19.585   2.260
41336W        W 9741  34.991   2.538   3.465
41337W        W 9742  19.726  44.743   0.711
41338W        W 9743   8.303  24.698   2.195
41339W        W 9744   0.367  25.669   1.452
41340W        W 9745  25.274  34.889  10.635
41341W        W 9746  18.486  12.333   3.766
41342W        W 9747  17.611  11.919   0.341
41343W        W 9748  10.279  14.932   1.270
41344W        W 9749   9.934  32.034   1.910
41345W        W 9750  15.848  31.951   3.818
41346W        W 9751  10.310  41.550  12.979
41347W        W 9752  13.087  23.044  12.946
41348W        W 9753  26.395  39.995   5.462
41349W        W 9754  31.349  14.296   3.768
41350W        W 9755  14.531  15.351   4.137
41351W        W 9756   5.562  21.068  14.868
41352W        W 9757  10.764  22.247   0.204
41353W        W 9758  44.030   3.935   2.152
41354W        W 9759  38.614   4.245  13.960
41355W        W 9760  11.296  29.961  11.372
41356W        W 9761  44.401  25.237   2.144
41357W        W 9762  34.137  33.417  14.845
41358W        W 9763   9.175   3.652   2.270
41359W        W 9764  19.405   6.422   3.802
41360W        W 9765  13.101   4.654   4.104
41361W        W 9766   7.268  35.232  14.793
41362W        W 9767   9.206   6.487   1.872
41363W        W 9768  23.717  31.006   1.178
41364W        W 9769  30.084  24.158  12.906
41365W        W 9770  24.341  25.997  11.296
41366W        W 9771  34.690  41.496  11.067
41367W        W 9772  22.019  11.748   0.623
41368W        W 9773   1.633  32.373  10.780
41369W        W 9774  20.820  32.088  12.987
41370W        W 9775  22.193  35.119  11.486
41371W        W 9776  36.121  22.612   1.703
41372W        W 9777  37.600  32.834  14.556
41373W        W 9778  38.909  30.844  10.701
41374W        W 9779   5.933  17.311   3.729
41375W        W 9780   3.114  15.224   2.618
41376W        W 9781   8.598  20.761  12.144
41377W        W 9782  34.062  43.182  11.964
41378W        W 9783   7.215  43.182  14.484
41379W        W 9784  33.373  13.817   3.806
41380W        W 9785  35.139  13.114  11.078
41381W        W 9786  19.659  41.711  14.976
41382W        W 9787   7.187  25.559   4.640
41383W        W 9788   3.451  25.010   1.935
41384W        W 9789  24.599  16.287  13.456
41385W        W 9790   7.135  26.175   0.458
41386W        W 9791  34.646  17.900  10.535
41387W        W 9792  21.262  27.035  11.330
41388W        W 9793  13.712   4.288   4.637
41389W        W 9794  14.305  16.361   2.377
41390W        W 9795  40.964  10.681  11.532
41391W        W 9796  22.820  43.732   4.696
41392W        W 9797  15.802  39.842   2.809
41393W        W 9798  37.903  10.868  12.404
41394W        W 9799  10.661  40.742  13.782
41395W        W 9800  14.291  20.777  11.940
41396W        W 9801  20.681   2.230  14.742
41397W        W 9802   3.529  43.076   2.384
41398W        W 9803  25.425   7.330   4.910
41399W        W 9804   0.536  17.240  13.469
41400W        W 9805  28.366  10.101   0.982
41401W        W 9806  20.998  19.073  12.349
41402W        W 9807  19.673  42.616  11.491
41403W        W 9808  43.323  17.215   3.240
41404W        W 9809   7.215   1.478   4.261
41405W        W 9810  34.998  26.415   4.139
41406W        W 9811   7.485  15.342  12.580
41407W        W 9812   0.927   2.230  12.936
41408W        W 9813  31.864  35.990   1.628
41409W        W 9814  42.756  18.131   0.430
41410W        W 9815  39.254  18.315  12.488
41411W        W 9816  34.160   0.794  11.538
41412W        W 9817  39.279  33.991  13.098
41413W        W 9818  42.064   2.442   2.597
41414W        W 9819  19.187  34.410   4.251
41415W        W 9820  41.894  17.052   2.486
41416W        W 9821  32.784  17.415   2.718
41417W        W 9822  17.301  32.908   1.816
41418W        W 9823  37.880  14.301  13.859
41419W        W 9824  22.441  33.108   4.186
41420W        W 9825   9.797  11.432   4.005
41421W        W 9826  26.181  13.942   0.496
41422W        W 9827  31.060  16.404   2.875
41423W        W 9828  32.711   3.462  12.272
41424W        W 9829  42.484   8.612  14.614
41425W        W 9830  31.875   7.903  12.500
41426W        W 9831  27.650  43.404   0.918
41427W        W 9832  41.845  35.127  13.481
41428W        W 9833  37.247  26.065   2.713
41429W        W 9834  24.698  29.513  11.561
41430W        W 9835  37.552  13.566   0.296
41431W        W 9836   9.257  16.290  11.679
41432W        W 9837  37.967  15.169   2.703
41433W        W 9838  33.421  32.100   0.695
41434W        W 9839  44.462  31.369  13.302
41435W        W 9840  23.777  34.599   0.330
41436W        W 9841  11.460  11.117   2.729
41437W        W 9842  43.874   8.911  12.077
41438W        W 9843  37.156  11.318  11.933
41439W        W 9844  30.838  20.222  13.839
41440W        W 9845  12.009  29.514   1.258
41441W        W 9846  40.986  10.378   4.179
41442W        W 9847  42.293  23.448  12.514
41443W        W 9848   5.315  35.790  14.000
41444W        W 9849  37.856  29.725  10.681
41445W        W 9850  13.050   7.395   2.749
41446W        W 9851   3.983  36.741   0.487
41447W        W 9852  20.176   9.330   2.535
41448W        W 9853  21.020  12.103   2.798
41449W        W 9854  13.303   1.247   1.742
41450W        W 9855  26.304  32.338  12.132
41451W        W 9856  42.310  21.204  13.114
41452W        W 9857  33.042  32.105   1.399
41453W        W 9858  31.421  35.258   0.302
41454W        W 9859   3.329  21.296   0.282
41455W        W 9860   8.397   2.752  11.127
41456W        W 9861  32.938   7.345   1.232
41457W        W 9862  35.927  22.775  11.494
41458W        W 9863  40.828  13.746   4.567
41459W        W 9864  26.619   4.462  14.885
41460W        W 9865  25.588  19.708   0.699
41461W        W 9866  14.039  23.152  14.534
41462W        W 9867  30.957  39.389   3.962
41463W        W 9868  36.889  44.375  13.036
41464W        W 9869   9.328   7.416   4.602
41465W        W 9870  26.934   9.665  14.661
41466W        W 9871  19.069   9.388   5.012
41467W        W 9872  22.712  22.112   3.259
41468W        W 9873   8.583  19.310  10.383
41469W        W 9874  23.418  21.104  10.043
41470W        W 9875  33.049  11.771   3.899
41471W        W 9876   4.852  14.835  10.532
41472W        W 9877  39.393   7.456   3.239
41473W        W 9878  41.586   1.298  13.761
41474W        W 9879  10.830   1.554  13.487
41475W        W 9880  25.082  34.765   4.830
41476W        W 9881  18.222   6.215  12.344
41477W        W 9882  21.796  42.518   0.878
41478W        W 9883   2.361   8.173   3.187
41479W        W 9884  42.292  42.858   0.763
41480W        W 9885  15.325  31.540  14.422
41481W        W 9886  12.203  25.957  13.778
41482W        W 9887  25.089  22.091  14.357
41483W        W 9888  38.111   3.260   2.710
41484W        W 9889   3.192   8.796   2.480
41485W        W 9890   9.635   0.030  11.634
41486W        W 9891   8.818  32.457  11.923
41487W        W 9892  20.331  29.897   4.126
41488W        W 9893  38.716  38.902   1.198
41489W        W 9894  40.367  33.828   3.592
41490W        W 9895  24.929  33.637   2.615
41491W        W 9896  10.879   8.936  14.960
41492W        W 9897  23.773  43.245   2.819
41493W        W 9898  41.587  19.097   3.635
41494W        W 9899  14.402  30.048  10.439
41495W        W 9900   4.485   1.933  12.903
41496W        W 9901  36.423  42.882  12.739
41497W        W 9902  40.326  12.933   5.307
41498W        W 9903  44.669  27.543   4.581
41499W        W 9904  44.942   4.882  12.698
41500W        W 9905  27.155   4.526  11.166
41501W        W 9906  22.927   0.935   1.309
41502W        W 9907   2.921  40.115  10.665
41503W        W 9908  20.608  38.933  13.781
41504W        W 9909  26.521  13.681  12.098
41505W        W 9910  19.993  39.405   4.145
41506W        W 9911  25.369  36.810  14.359
41507W        W 9912  21.476  13.193  11.528
41508W        W 9913  40.325  34.119   0.862
41509W        W 9914  28.157  15.062  11.626
41510W        W 9915   9.259  18.636  13.092
41511W        W 9916  12.787  21.490  11.189
41512W        W 9917   1.261  22.975   0.956
41513W        W 9918   6.184  24.232  13.826
41514W        W 9919  11.263  34.915  10.641
41515W        W 9920  44.065  12.227  12.072
41516W        W 9921  36.329  42.922  11.459
41517W        W 9922  25.862  40.760  13.963
41518W        W 9923  42.352  39.772  12.591
41519W        W 9924  17.093  11.180  14.379
41520W        W 9925   7.162  38.336  11.758
41521W        W 9926  29.887  10.399   3.626
41522W        W 9927  11.907  35.352   4.597
41523W        W 9928  16.209  15.554  11.399
41524W        W 9929  43.014   5.402  11.510
41525W        W 9930  26.476  18.516   4.251
41526W        W 9931  27.518   9.398   1.757
41527W        W 9932  16.675  23.196   3.611
41528W        W 9933  40.721  35.906  13.071
41529W        W 9934  10.777   2.648  11.611
41530W        W 9935  24.658  26.211  10.307
41531W        W 9936   1.935  11.784  12.547
41532W        W 9937  22.557  17.002   2.101
41533W        W 9938  41.265  23.151   0.569
41534W        W 9939  42.681   9.132  12.967
41535W        W 9940  22.229  44.353   1.536
41536W        W 9941  15.870   1.789   1.869
41537W        W 9942  13.382  16.749   2.787
41538W        W 9943  15.815  27.594  12.191
41539W        W 9944  35.284  23.067  14.924
41540W        W 9945   1.664  22.706   0.763
41541W        W 9946   9.376   8.182  11.059
41542W        W 9947  42.425  36.677   4.148
41543W        W 9948  29.117   4.664   1.356
41544W        W 9949  20.185  22.208  14.485
41545W        W 9950  34.104  14.688   0.680
41546W        W 9951  42.779   8.178  14.397
41547W        W 9952  35.594   8.604  14.242
41548W        W 9953  24.933  17.219   4.647
41549W        W 9954  37.819   0.155  10.622
41550W        W 9955   4.914  41.830  13.568
41551W        W 9956  18.700  30.805  12.966
41552W        W 9957   6.543  42.844  13.483
41553W        W 9958  22.954  15.182  10.542
41554W        W 9959  42.059  30.463  12.448
41555W        W 9960   5.378  33.969  12.089
41556W        W 9961  17.489  27.101  11.094
41557W        W 9962  11.630  31.117  11.097
41558W        W 9963  32.588  23.002   4.707
41559W        W 9964   6.938  24.693  11.031
41560W        W 9965  12.755  41.297   3.739
41561W        W 9966  10.204  44.937   3.393
41562W        W 9967  29.072   7.834  11.158
41563W        W 9968  11.784   0.319   0.040
41564W        W 9969  33.388  31.780   3.329
41565W        W 9970  19.250  15.112  13.070
41566W        W 9971   7.154  15.824   1.071
41567W        W 9972  25.300  34.014   1.740
41568W        W 9973   8.340  23.629   4.029
41569W        W 9974   8.672  37.074  13.019
41570W        W 9975  34.367  27.255   0.664
41571W        W 9976  40.955  37.548  14.328
41572W        W 9977  31.423  20.642  12.285
41573W        W 9978  25.790  33.975   3.814
41574W        W 9979  25.740   3.703   2.350
41575W        W 9980  21.487  18.164  13.288
41576W        W 9981  12.861  42.667  14.902
41577W        W 9982   2.016  42.851   0.211
41578W        W 9983  18.616   0.012   2.261
41579W        W 9984  41.091  34.485  11.024
41580W        W 9985   5.322  41.788  11.148
41581W        W 9986  17.988  12.152  13.421
41582W        W 9987   1.372  25.840   2.096
41583W        W 9988  18.275  36.051   1.154
41584W        W 9989  17.089   1.056  13.080
41585W        W 9990  38.474  30.838  14.515
41586W        W 9991   7.681   0.274  10.700
41587W        W 9992  17.133  18.023   3.302
41588W        W 9993  39.102   2.659  12.872
41589W        W 9994  12.530  30.902   3.282
41590W        W 9995   1.996  14.313  14.371
41591W        W 9996   0.020   1.893   0.688
41592W        W 9997   4.135  34.543   0.786
41593W        W 9998  36.398   8.356  13.484
41594W        W 9999  43.010  12.859  13.342
41595W        W10000   4.727  28.733   5.035
41596W        W10001   8.128  28.160   4.016
41597W        W10002   8.392  43.908   2.804
41598W        W10003   3.778  16.126  14.866
41599W        W10004  21.000  11.294  11.274
41600W        W10005  21.838   0.357  14.881
41601W        W10006  23.248  14.696   3.664
41602W        W10007  37.867  36.948  11.057
41603W        W10008  13.054   0.924  11.612
41604W        W10009  38.856  43.659  12.672
41605W        W10010   3.126  19.010  13.428
41606W        W10011  40.435  33.428  11.413
41607W        W10012  14.223  21.932   3.171
41608W        W10013  16.063  22.497  13.509
41609W        W10014  20.112   0.212   0.303
41610W        W10015  38.351  37.908   4.575
41611W        W10016  19.680   3.217   3.381
41612W        W10017  23.648  22.669   2.587
41613W        W10018  11.834   4.242  12.367
41614W        W10019  39.870  28.939  10.550
41615W        W10020  31.640  37.488  10.652
41616W        W10021   4.379  43.795   4.729
41617W        W10022  31.871   2.276   4.247
41618W        W10023  38.766  36.720  13.780
41619W        W10024  42.226  24.724  12.013
41620W        W10025  21.017  34.138   0.334
41621W        W10026  12.549   3.023  13.501
41622W        W10027  41.991   5.888  11.436
41623W        W10028  24.527  41.620  12.641
41624W        W10029  17.258   3.514  13.801
41625W        W10030  15.272  33.398  14.753
41626W        W10031   0.953  10.407   0.040
41627W        W10032  36.615  13.419  11.174
41628W        W10033   7.216  31.301   1.625
41629W        W10034  21.584   9.416  14.580
41630W        W10035  40.937  34.776  12.317
41631W        W10036  40.842   6.425   1.399
41632W        W10037   9.082  20.001  13.399
41633W        W10038  29.017   6.372  14.954
41634W        W10039  39.750  10.079   3.710
41635W        W10040  28.929   4.471   4.177
41636W        W10041  10.316  43.079  10.239
41637W        W10042  34.413  20.227  11.657
41638W        W10043   7.676  42.396  13.045
41639W        W10044  43.417   0.324   2.852
41640W        W10045  20.116  36.548   4.623
41641W        W10046  29.885   2.304   4.383
41642W        W10047  17.574  18.127  14.363
41643W        W10048  42.590  36.038   2.382
41644W        W10049  42.850  36.070  13.642
41645W        W10050  14.147  39.928  14.483
41646W        W10051  25.637  24.029   2.410
41647W        W10052  37.680   1.427  10.669
41648W        W10053  42.390  25.315   3.194
41649W        W10054  35.451  19.908  12.120
41650W        W10055  15.079  19.190  14.620
41651W        W10056   4.762  32.254   0.825
41652W        W10057  10.946  21.104  13.407
41653W        W10058  18.107   7.400   4.048
41654W        W10059  27.349   5.411  10.693
41655W        W10060  33.393  11.748   1.752
41656W        W10061  43.794  18.204   4.422
41657W        W10062  10.870  33.884  13.953
41658W        W10063  18.393   3.738   4.991
41659W        W10064   0.199  28.737  14.702
41660W        W10065  28.621  14.338   2.286
41661W        W10066  40.942   4.941  13.824
41662W        W10067  27.997  39.383   3.346
41663W        W10068  36.843  42.869  11.503
41664W        W10069  12.954   1.679  13.730
41665W        W10070   9.635  31.529   1.711
41666W        W10071   1.778  44.235   0.519
41667W        W10072  32.125  40.326  11.432
41668W        W10073   8.075   1.438   3.712
41669W        W10074  35.105  31.111   3.243
41670W        W10075  14.275   4.868   5.023
41671W        W10076  20.142  42.673  11.237
41672W        W10077   2.290  10.904   0.957
41673W        W10078  43.771   0.839  14.026
41674W        W10079  25.552  10.113  11.063
41675W        W10080  24.792  10.720  14.279
41676W        W10081  38.187   5.638   4.204
41677W        W10082  42.659   2.745   0.356
41678W        W10083  37.490  32.269   0.420
41679W        W10084  12.384   1.541   2.474
41680W        W10085  20.693  10.579  10.563
41681W        W10086  30.967  21.508   3.196
41682W        W10087  23.914   3.203  13.787
41683W        W10088  16.825  39.294   0.674
41684W        W10089  11.676  36.921   4.355
41685W        W10090  18.298  12.195  14.875
41686W        W10091  22.477   3.557   3.753
41687W        W10092  32.614  43.163  11.601
41688W        W10093  26.468  39.905   4.602
41689W        W10094  26.079  10.607   1.825
41690W        W10095  10.983  12.924  12.260
41691W        W10096  14.266  28.662   2.454
41692W        W10097   2.694  30.352   0.926
41693W        W10098  13.674  40.134  12.389
41694W        W10099  35.422  30.575  10.724
41695W        W10100  31.562  34.381   2.818
41696W        W10101   8.779  19.069   2.350
41697W        W10102  26.428   5.267  14.387
41698W        W10103  44.394   6.313   4.615
41699W        W10104  20.271  10.761   0.172
41700W        W10105  42.643  43.260   2.038
41701W        W10106  42.561  18.446  11.152
41702W        W10107  18.831  23.620  12.084
41703W        W10108  17.124  27.596  13.202
41704W        W10109  21.266  12.670  10.240
41705W        W10110  29.076  12.792   3.250
41706W        W10111  43.956  13.730  14.746
41707W        W10112  31.826  42.829   3.640
41708W        W10113   4.206   8.821   0.813
41709W        W10114  30.094  35.758  11.107
41710W        W10115  36.529   0.746  13.576
41711W        W10116  34.884  26.423  13.498
41712W        W10117  34.944  19.814  12.157
41713W        W10118  14.141  19.041  11.567
41714W        W10119  35.481  40.844  13.433
41715W        W10120  20.482  19.246   3.361
41716W        W10121  37.629  34.129  13.395
41717W        W10122   6.782  34.968  13.503
41718W        W10123  30.496  25.679  13.422
41719W        W10124  21.602  19.184   3.554
41720W        W10125  21.491   8.449  12.041
41721W        W10126  29.744  16.232   2.592
41722W        W10127  22.671  17.147   2.597
41723W        W10128   4.267  27.149   2.242
41724W        W10129  25.580  17.615  10.569
41725W        W10130   4.984   9.239   0.895
41726W        W10131   7.735   2.349  14.371
41727W        W10132   0.447   1.977  10.965
41728W        W10133  12.252  32.714   3.195
41729W        W10134   1.379  31.562   0.968
41730W        W10135   2.328  26.285   3.294
41731W        W10136  17.179  36.602   2.101
41732W        W10137   5.518   2.302  14.883
41733W        W10138  38.849   2.443  12.460
41734W        W10139  43.267  35.117  13.431
41735W        W10140  22.926  43.124   2.733
41736W        W10141   1.728  38.784  10.466
41737W        W10142  17.611  40.242   0.397
41738W        W10143  28.504  23.981  14.347
41739W        W10144  28.147  23.295   0.651
41740W        W10145  10.129  38.019  14.945
41741W        W10146  24.683   8.090  11.948
41742W        W10147  15.555  22.007   2.964
41743W        W10148  23.678  43.076  14.451
41744W        W10149  19.210  29.119  13.349
41745W        W10150  24.072  17.230  11.245
41746W        W10151  34.616  26.735   1.654
41747W        W10152  27.328  33.406   0.204
41748W        W10153   4.737  30.622  14.534
41749W        W10154  36.173  39.584   4.373
41750W        W10155  18.525  18.190   3.331
41751W        W10156  10.624  15.276  10.805
41752W        W10157  36.190  40.901  14.025
41753W        W10158   9.035  37.434   4.467
41754W        W10159  39.573  30.460   2.346
41755W        W10160  26.774   2.507   1.271
41756W        W10161   9.407  44.463   2.425
41757W        W10162  24.128  40.998  10.473
41758W        W10163  22.532  15.570  11.043
41759W        W10164  16.079   2.245   4.079
41760W        W10165  44.187  44.968  14.486
41761W        W10166  43.370  25.608  10.430
41762W        W10167  44.686  20.487   1.693
41763W        W10168   5.230  36.936   1.586
41764W        W10169   6.112  12.650  12.966
41765W        W10170   0.737  16.234   4.079
41766W        W10171  13.180  29.843  14.898
41767W        W10172  19.706  33.552   4.056
41768W        W10173  25.957  13.265  11.176
41769W        W10174  26.226  43.486  14.811
41770W        W10175   0.546  33.347  13.936
41771W        W10176  19.545   5.951   4.667
41772W        W10177  10.602  42.942   1.260
41773W        W10178  31.411  13.625  12.907
41774W        W10179  40.170  11.746   5.033
41775W        W10180  31.013  11.568   0.029
41776W        W10181  42.022  44.283  10.625
41777W        W10182  14.256  28.625  14.793
41778W        W10183   6.730  15.125   0.926
41779W        W10184  15.101  19.231  11.652
41780W        W10185  36.594   2.979  12.342
41781W        W10186   9.458  31.632   5.520
41782W        W10187  24.958  12.091   3.823
41783W        W10188  22.287   6.004   0.895
41784W        W10189   2.216  10.180  14.382
41785W        W10190  11.625   9.884  10.731
41786W        W10191  30.450  21.090  10.889
41787W        W10192  27.611  22.933  13.543
41788W        W10193  14.960  40.300  11.057
41789W        W10194  30.416   7.353   1.907
41790W        W10195  13.586  43.399  13.041
41791W        W10196  14.729  16.247  12.993
41792W        W10197   8.230  20.042  12.581
41793W        W10198  20.559   6.829   4.801
41794W        W10199   0.391  11.163   2.777
41795W        W10200  20.273   5.184  11.683
41796W        W10201  31.543  28.485   4.573
41797W        W10202  22.513  36.160  13.859
41798W        W10203  22.346  39.868   1.183
41799W        W10204  18.301  27.086   1.356
41800W        W10205  35.430  16.643   4.072
41801W        W10206  43.207  30.404   1.483
41802W        W10207  24.556  27.295   4.315
41803W        W10208  28.391   9.099  12.080
41804W        W10209  15.055  29.597  13.048
41805W        W10210  42.752  18.616   4.063
41806W        W10211  14.155  29.026   4.228
41807W        W10212  34.617   2.659  13.024
41808W        W10213  43.538   0.221   1.389
41809W        W10214   6.340  31.347   4.630
41810W        W10215  40.832  23.715  13.032
41811W        W10216  11.891  23.134  11.558
41812W        W10217  41.922  19.339  12.662
41813W        W10218  37.026  40.828   4.179
41814W        W10219  37.309  33.826   3.221
41815W        W10220  14.814  26.812  11.592
41816W        W10221  37.083  11.373   0.785
41817W        W10222  17.764  43.405   4.633
41818W        W10223   6.975  10.755  14.436
41819W        W10224  17.024  38.516   1.978
41820W        W10225  34.937  18.679   3.502
41821W        W10226   3.796  40.862   1.161
41822W        W10227   5.367   1.430   4.914
41823W        W10228  19.276   9.614  11.486
41824W        W10229  39.838  34.123  11.605
41825W        W10230  13.707   2.669  14.529
41826W        W10231  27.205   8.700   0.321
41827W        W10232  29.925  36.990  11.423
41828W        W10233   0.266  44.575   1.310
41829W        W10234  38.834  19.257   4.410
41830W        W10235  10.907  21.179   3.212
41831W        W10236   1.453  30.516   4.147
41832W        W10237  16.413  13.554   3.705
41833W        W10238  15.615  11.605   4.600
41834W        W10239  22.164   1.513   4.254
41835W        W10240   9.322  38.477   0.999
41836W        W10241  43.752  28.207   0.313
41837W        W10242   5.392  36.803   0.231
41838W        W10243  16.836  33.917  14.925
41839W        W10244  24.901   9.234  13.105
41840W        W10245  34.602  10.421   1.226
41841W        W10246  20.794  17.558   0.684
41842W        W10247   9.709   2.894   3.394
41843W        W10248  16.200  14.376   4.808
41844W        W10249  34.824  31.153  14.826
41845W        W10250  32.044  12.959   0.803
41846W        W10251   7.280  41.811   4.530
41847W        W10252  22.893   6.759  12.974
41848W        W10253  26.664  33.336   4.552
41849W        W10254  20.411  14.678   4.270
41850W        W10255  13.350  42.087   1.115
41851W        W10256  35.632  26.109  11.164
41852W        W10257  32.825  14.436  14.083
41853W        W10258  11.099  39.584   2.883
41854W        W10259  10.600  12.958  13.539
41855W        W10260  42.282  26.116  13.534
41856W        W10261  39.573  18.325  12.906
41857W        W10262   2.061  19.226  13.117
41858W        W10263  25.961  17.801   1.250
41859W        W10264  25.998  22.787  10.770
41860W        W10265   9.626  35.995  14.523
41861W        W10266  28.031   9.454   1.568
41862W        W10267  34.460  44.592   2.299
41863W        W10268   6.939  27.489  11.558
41864W        W10269  22.940   7.939   2.310
41865W        W10270  43.733  28.542  11.988
41866W        W10271  17.117  39.020   3.662
41867W        W10272   5.293  31.779  11.027
41868W        W10273  25.523  15.162  14.975
41869W        W10274  28.993  15.024  11.737
41870W        W10275  42.830  14.589   3.955
41871W        W10276  14.350  30.907  11.942
41872W        W10277   2.806  25.938  12.930
41873W        W10278  24.538   2.314   2.853
41874W        W10279  13.474  21.780   3.919
41875W        W10280   0.020  41.979   3.247
41876W        W10281   9.763  15.603  10.895
41877W        W10282   7.913   7.815  11.445
41878W        W10283  14.221  27.888  14.303
41879W        W10284  31.845  24.203   4.679
41880W        W10285  19.188  24.770   2.811
41881W        W10286   7.823  23.626  13.482
41882W        W10287  27.896  27.988  11.641
41883W        W10288   7.858  17.712  13.371
41884W        W10289  31.208   2.203   2.298
41885W        W10290   5.837   0.583   4.666
41886W        W10291  28.173  17.311   3.723
41887W        W10292   4.189  30.876  13.479
41888W        W10293  11.830   5.286  11.918
41889W        W10294   1.771  30.200  14.338
41890W        W10295  14.710  29.841   2.374
41891W        W10296  34.079  39.260  13.993
41892W        W10297  18.068  24.319   4.114
41893W        W10298  22.747  18.267  11.070
41894W        W10299  13.716   8.181   4.377
41895W        W10300   3.548  36.288  11.921
41896W        W10301  11.129  37.613   2.714
41897W        W10302  14.637  16.613   0.265
41898W        W10303  43.730   1.759   0.995
41899W        W10304  42.545  43.193  11.115
41900W        W10305   4.289   5.268  11.285
41901W        W10306   9.650  40.931   4.645
41902W        W10307  38.185  38.582  11.516
41903W        W10308  29.702  30.644  12.101
41904W        W10309  14.171   8.209  12.096
41905W        W10310  16.699  22.115  13.950
41906W        W10311  14.107  27.659  13.848
41907W        W10312  16.520  23.936  12.670
41908W        W10313  27.069   2.883   3.688
41909W        W10314   5.518  37.704   0.481
41910W        W10315   6.935   2.506  13.566
41911W        W10316   4.944   2.770  13.287
41912W        W10317  20.081  23.113  13.354
41913W        W10318  13.702  31.478  14.833
41914W        W10319  23.114   7.982  11.504
41915W        W10320  25.231  18.211  12.638
41916W        W10321   3.298  36.614  12.351
41917W        W10322  16.814  21.126   0.856
41918W        W10323  25.232  28.501   4.084
41919W        W10324  13.173  24.711  12.391
41920W        W10325  27.983  29.233   0.581
41921W        W10326   4.745  32.922  11.054
41922W        W10327  26.797  38.892  11.191
41923W        W10328  12.753  32.985  10.284
41924W        W10329   2.396  17.653   0.696
41925W        W10330   3.724   3.930   1.076
41926W        W10331  15.830  38.079  11.805
41927W        W10332  44.883  29.670  12.791
41928W        W10333  32.202  34.879   0.238
41929W        W10334  32.018  17.642   3.870
41930W        W10335   6.211   5.738  12.606
41931W        W10336  36.444  39.439   1.671
41932W        W10337  38.754   2.377   4.778
41933W        W10338  40.772   3.443  10.209
41934W        W10339  31.278  33.891   4.145
41935W        W10340  12.813  26.059   3.694
41936W        W10341  17.204  24.620  13.028
41937W        W10342  26.433  36.420  13.460
41938W        W10343  42.980  22.815  11.596
41939W        W10344  27.964  27.431   3.245
41940W        W10345  22.519  21.659  11.662
41941W        W10346  25.572  42.763  12.499
41942W        W10347  12.643  30.984   3.803
41943W        W10348  24.581  15.915   4.095
41944W        W10349  23.623  13.104   3.338
41945W        W10350  44.372   8.080  12.840
41946W        W10351  19.147  29.637  10.969
41947W        W10352  31.473  35.164   4.051
41948W        W10353   2.110  43.964  14.690
41949W        W10354  10.543  13.691   4.605
41950W        W10355  44.514  35.584   2.199
41951W        W10356  16.998  23.806   1.172
41952W        W10357  14.576  31.445  11.152
41953W        W10358  15.640  39.885  13.039
41954W        W10359  24.206  40.535   4.735
41955W        W10360  32.128  26.921   2.812
41956W        W10361  20.745  21.556  13.282
41957W        W10362  13.723   4.171   2.191
41958W        W10363  26.528  26.785   2.879
41959W        W10364  20.712  21.444  14.975
41960W        W10365  17.042  31.921  10.476
41961W        W10366   5.216   7.772   3.827
41962W        W10367   0.479  30.720  12.059
41963W        W10368  35.763  40.794  11.231
41964W        W10369  36.401  18.607  14.301
41965W        W10370  11.391  32.684  10.888
41966W        W10371  39.822  29.781  12.113
41967W        W10372  17.264   9.562   5.033
41968W        W10373  28.151  13.841  12.167
41969W        W10374  10.141  24.779   4.226
41970W        W10375  33.372   8.725   0.146
41971W        W10376  16.303  27.228  14.787
41972W        W10377   5.305   4.741   2.445
41973W        W10378   5.736  17.968  14.018
41974W        W10379  27.134  13.208  12.587
41975W        W10380   0.364  33.530  11.320
41976W        W10381   0.275  26.574  11.480
41977W        W10382   1.145  12.336  12.085
41978W        W10383  43.373   4.326  12.025
41979W        W10384  44.771  18.311   0.875
41980W        W10385  23.420  37.576   3.593
41981W        W10386  21.705  42.832   4.438
41982W        W10387  25.630   9.304  12.018
41983W        W10388  37.418  33.312  14.458
41984W        W10389  36.531  27.151  14.430
41985W        W10390  40.103  30.475   4.850
41986W        W10391  25.238  38.734   2.095
41987W        W10392  24.015  26.730  12.542
41988W        W10393  19.310  44.278  14.778
41989W        W10394   9.205  32.752  10.138
41990W        W10395  21.538  42.405   3.366
41991W        W10396  26.414  13.608  13.371
41992W        W10397  18.608  36.069  11.602
41993W        W10398  27.682   9.782  13.781
41994W        W10399  15.479  38.351  13.853
41995W        W10400   5.016  31.942   0.478
41996W        W10401  27.214  13.307   2.460
41997W        W10402  31.650  11.514   3.695
41998W        W10403  43.932   6.094   4.247
41999W        W10404  18.583   2.225  12.830
42000W        W10405  14.817  44.759  12.956
42001W        W10406  15.750  36.336  10.994
42002W        W10407  15.819  44.796  11.872
42003W        W10408  41.330  44.550   3.348
42004W        W10409  34.111  22.489   3.879
42005W        W10410  27.458  28.378   0.953
42006W        W10411  33.792  33.455  11.193
42007W        W10412  16.233  25.690  12.985
42008W        W10413  15.348  13.358  14.400
42009W        W10414   6.792  17.791   5.190
42010W        W10415  43.904  20.587   0.992
42011W        W10416  34.781  18.275  13.465
42012W        W10417  16.229  24.981   0.330
42013W        W10418  38.337  34.035   1.799
42014W        W10419  23.029  19.752  12.911
42015W        W10420  21.244  19.297  14.781
42016W        W10421   5.788  28.966   4.244
42017W        W10422   7.726  43.899  11.926
42018W        W10423  19.059  37.670   4.511
42019W        W10424  13.333  29.230   1.443
42020W        W10425  42.144  19.678   4.840
42021W        W10426   5.222  29.659  13.213
42022W        W10427   9.077   0.423  13.601
42023W        W10428   4.213  43.041  14.121
42024W        W10429  13.556   0.568   3.785
42025W        W10430  26.670   5.340  11.435
42026W        W10431  14.538  14.210   4.887
42027W        W10432  19.191  18.876   0.747
42028W        W10433   1.199  11.341  12.831
42029W        W10434  27.658  28.430   0.458
42030W        W10435  18.771  20.296   2.157
42031W        W10436  33.070  42.321   4.507
42032W        W10437  14.146  23.853  12.087
42033W        W10438  30.071  30.915   2.377
42034W        W10439  29.183  23.552   1.185
42035W        W10440  25.659  35.864  10.670
42036W        W10441  39.288  12.806  10.678
42037W        W10442  41.288   2.271  14.697
42038W        W10443  16.059  31.037  13.485
42039W        W10444  19.702  16.076  14.020
42040W        W10445  29.660  41.022   1.692
42041W        W10446  19.560  14.392   3.337
42042W        W10447  33.755  23.388  11.731
42043W        W10448   2.341   5.675   0.343
42044W        W10449  20.481   7.310  13.360
42045W        W10450  18.722  34.983   2.646
42046W        W10451  29.467  40.898   2.154
42047W        W10452  39.008  30.934   3.844
42048W        W10453  24.130  27.228  13.418
42049W        W10454  12.646   7.822   1.005
42050W        W10455  30.188   1.860   4.738
42051W        W10456  21.767  43.190  14.389
42052W        W10457   4.295  16.182   2.027
42053W        W10458   7.336  22.700   1.679
42054W        W10459  39.834   2.787  13.445
42055W        W10460  31.837   4.934   1.724
42056W        W10461  43.612  29.559   0.430
42057W        W10462  33.361   4.531  13.263
42058W        W10463   1.287  21.325   3.268
42059W        W10464  44.736  20.288   3.145
42060W        W10465  25.794  26.851  13.140
42061W        W10466  37.951  44.663   2.615
42062W        W10467  36.347  13.641  13.064
42063W        W10468  14.865   0.775  14.469
42064W        W10469  23.711  10.737  13.597
42065W        W10470  35.852  22.636  13.409
42066W        W10471  44.728  20.635  12.016
42067W        W10472  16.154  39.565   0.398
42068W        W10473  38.390   7.809  13.579
42069W        W10474  17.731   1.849   1.297
42070W        W10475  35.498  40.404  14.443
42071W        W10476  31.571  38.852   0.427
42072W        W10477  31.572  11.083  10.512
42073W        W10478  44.695  14.049   1.186
42074W        W10479   2.201  14.504   3.093
42075W        W10480  24.301  25.788   0.892
42076W        W10481  31.975  19.229  10.661
42077W        W10482  39.104  43.885  14.425
42078W        W10483  39.272  26.366  13.894
42079W        W10484  41.460  19.297  11.132
42080W        W10485  29.399  19.094   2.639
42081W        W10486  39.493   2.821  13.828
42082W        W10487   5.243   5.739   2.634
42083W        W10488  35.695  16.460  14.299
42084W        W10489  30.879  28.200   4.642
42085W        W10490  12.115  25.208  13.066
42086W        W10491   8.821  28.559   0.894
42087W        W10492  10.970  13.311   1.632
42088W        W10493  30.996  14.083   1.785
42089W        W10494  10.387  24.557   1.499
42090W        W10495  37.443   4.628  11.511
42091W        W10496  18.695  13.462   1.780
42092W        W10497  32.512  28.003  12.645
42093W        W10498  11.078   9.848   3.629
42094W        W10499  40.060   8.392   1.391
42095W        W10500   8.245  27.022  10.746
42096W        W10501  43.367  28.212  13.777
42097W        W10502  44.531  38.193  11.095
42098W        W10503  33.319   3.973  11.572
42099W        W10504  16.102   1.007   3.792
42100W        W10505  38.860  32.361  10.726
42101W        W10506  21.923   4.711   0.035
42102W        W10507  28.663  17.064   5.002
42103W        W10508  20.985  31.229   2.493
42104W        W10509   6.996   9.615  13.471
42105W        W10510   2.386  24.255   0.963
42106W        W10511   8.206   2.924   0.367
42107W        W10512  12.298   3.150   1.347
42108W        W10513  13.835  34.069  11.623
42109W        W10514  18.137   9.980  13.048
42110W        W10515   3.940  39.427   3.549
42111W        W10516   8.419  35.107   2.340
42112W        W10517  38.465  44.176   3.231
42113W        W10518   9.188  40.981  12.551
42114W        W10519  33.939  10.307   1.667
42115W        W10520  32.342   1.259  13.971
42116W        W10521  19.420  21.657  12.569
42117W        W10522  34.132  18.757  13.477
42118W        W10523  20.030   2.503   1.320
42119W        W10524  16.391  11.149  12.039
42120W        W10525  15.009   7.530  13.344
42121W        W10526  36.037  38.332   3.980
42122W        W10527  29.452  28.480   3.735
42123W        W10528  29.892  42.566  12.002
42124W        W10529  27.126   9.188   4.567
42125W        W10530   0.059  10.714   4.837
42126W        W10531  39.309  17.800  12.551
42127W        W10532  21.692  41.994  12.561
42128W        W10533   3.192  25.482  13.598
42129W        W10534  42.960  19.733   3.812
42130W        W10535  16.562  20.347  12.880
42131W        W10536  15.778   0.838  10.659
42132W        W10537  21.955  41.976  14.470
42133W        W10538   0.916  15.654   2.941
42134W        W10539  26.907  14.559   3.275
42135W        W10540   4.948   9.721  13.478
42136W        W10541   8.666  19.774  13.125
42137W        W10542  24.261  35.608  11.919
42138W        W10543  37.834  19.780  14.993
42139W        W10544  11.904  18.575   0.583
42140W        W10545  27.581  38.577   0.760
42141W        W10546  20.037  25.055  14.436
42142W        W10547   0.950  13.552  11.935
42143W        W10548  17.381  14.574   1.650
42144W        W10549  25.159  20.096  11.595
42145W        W10550  32.262   8.927   3.200
42146W        W10551   8.478  35.946  13.766
42147W        W10552  13.153  34.919   1.420
42148W        W10553  23.284  42.012   2.838
42149W        W10554  17.748  35.388  12.108
42150W        W10555   6.438   1.267  11.593
42151W        W10556  18.548  21.054  10.247
42152W        W10557  30.182  38.766  11.094
42153W        W10558  31.114  32.089   4.791
42154W        W10559  44.515  30.685   3.419
42155W        W10560  43.533  27.397  12.174
42156W        W10561  22.132  32.207  12.063
42157W        W10562  38.108   1.435  13.112
42158W        W10563  15.142  43.014  13.562
42159W        W10564  22.838   9.128   1.376
42160W        W10565   2.288  10.906   0.421
42161W        W10566   0.320   8.936   3.117
42162W        W10567  44.789   0.976   1.419
42163W        W10568  43.191  42.370   1.230
42164W        W10569  18.109  44.943  12.810
42165W        W10570  20.502  11.055  14.775
42166W        W10571  20.108   9.839  14.939
42167W        W10572   2.656   4.660   5.375
42168W        W10573   6.259  30.141  14.166
42169W        W10574  14.204  14.527   5.134
42170W        W10575   8.574   1.831   4.941
42171W        W10576  15.187   9.644   2.917
42172W        W10577  16.236  29.191   1.012
42173W        W10578  21.055  10.415  11.506
42174W        W10579   8.437  10.664   1.249
42175W        W10580  25.054  19.691  13.401
42176W        W10581  38.817  26.113  13.955
42177W        W10582   5.926  44.019   1.265
42178W        W10583  42.940  29.616   2.142
42179W        W10584  31.417   3.748   2.900
42180W        W10585  31.586  28.651   4.083
42181W        W10586  33.194  27.554  12.971
42182W        W10587  12.217   0.506  14.709
42183W        W10588  38.980  22.684  11.566
42184W        W10589  17.534  27.723   4.089
42185W        W10590   5.636   8.816  12.911
42186W        W10591  29.690  20.245   0.314
42187W        W10592  11.821   5.649  10.673
42188W        W10593  23.001  15.097  13.999
42189W        W10594   4.421  20.609   4.155
42190W        W10595   6.613  24.873  13.096
42191W        W10596  36.015  27.721   2.344
42192W        W10597  27.455  36.618  11.601
42193W        W10598   9.313  37.382   1.423
42194W        W10599  17.275  43.071  14.338
42195W        W10600  25.249  23.784   2.170
42196W        W10601  43.580   7.806  12.618
42197W        W10602   9.160  25.138   1.830
42198W        W10603  27.425   8.934   4.216
42199W        W10604   8.294  44.981  13.360
42200W        W10605  18.760  23.186  13.509
42201W        W10606   7.884  17.758  10.128
42202W        W10607  39.742  36.780  11.138
42203W        W10608  31.364   5.260  12.434
42204W        W10609  25.469  34.815   2.835
42205W        W10610  30.936  15.194   0.861
42206W        W10611  11.180  26.974  14.808
42207W        W10612  44.078  21.177  11.482
42208W        W10613   4.233  24.941  12.923
42209W        W10614  11.387  27.255  14.413
42210W        W10615  18.764  40.807  11.137
42211W        W10616  11.439  10.323   3.171
42212W        W10617  19.838  40.434   0.964
42213W        W10618  17.807  39.819   2.268
42214W        W10619  28.840  26.593  13.505
42215W        W10620  27.161  19.132  11.148
42216W        W10621  41.738  43.483  12.978
42217W        W10622  13.351   4.079  11.545
42218W        W10623  30.694  28.485   4.191
42219W        W10624  39.317  32.521   0.307
42220W        W10625  32.494  22.552  13.475
42221W        W10626  19.545   6.854  11.440
42222W        W10627  40.809  38.323   4.040
42223W        W10628  24.528   0.721  13.580
42224W        W10629   7.343  38.019   2.682
42225W        W10630  37.428  16.793   4.912
42226W        W10631  29.572  39.541   2.834
42227W        W10632  10.120  43.451   3.335
42228W        W10633  38.334  14.801  12.991
42229W        W10634  26.853  27.163   4.455
42230W        W10635   4.435  14.396  14.978
42231W        W10636  25.847  12.975   2.439
42232W        W10637  32.045  12.773  10.836
42233W        W10638  12.561   2.750   2.207
42234W        W10639  32.948   7.765   3.848
42235W        W10640   2.954  20.059  14.847
42236W        W10641  27.181   9.702   4.617
42237W        W10642  17.602   6.583   4.942
42238W        W10643  33.667   9.199  14.223
42239W        W10644   8.913  41.343   4.202
42240W        W10645  41.979  39.655   4.608
42241W        W10646  44.363  38.924  13.458
42242W        W10647  29.739  23.513  14.708
42243W        W10648   1.912  13.208  14.883
42244W        W10649   8.213  14.719   0.831
42245W        W10650  27.894  15.022   4.012
42246W        W10651  27.069  31.512  10.806
42247W        W10652  42.561  28.136  12.628
42248W        W10653  17.336  33.053  14.976
42249W        W10654  19.270   7.692   2.841
42250W        W10655  23.911   8.291  12.930
42251W        W10656  15.732   3.294  14.813
42252W        W10657  16.894  11.024   4.341
42253W        W10658  16.674  11.576  11.070
42254W        W10659  37.749   2.194   3.359
42255W        W10660   9.113  29.679  10.314
42256W        W10661  32.558  31.518  13.905
42257W        W10662  25.085  30.536  10.966
42258W        W10663  14.061   8.074   1.297
42259W        W10664  35.078  37.453  13.897
42260W        W10665  26.805   4.865  13.186
42261W        W10666   7.591   3.358   4.976
42262W        W10667  20.218  39.774   0.318
42263W        W10668  16.579  24.343  13.457
42264W        W10669  15.223  31.865  10.041
42265W        W10670  42.615   1.318   1.421
42266W        W10671  35.935  30.409   2.279
42267W        W10672  12.580  44.288  11.100
42268W        W10673  22.300  20.015   2.137
42269W        W10674  10.644  38.132  12.045
42270W        W10675  36.038   0.850  11.959
42271W        W10676   8.148  43.368  10.751
42272W        W10677  39.404  24.509  10.654
42273W        W10678  19.998  26.420   0.247
42274W        W10679  30.732  11.256  10.674
42275W        W10680  32.908  41.060  12.506
42276W        W10681  22.991  33.683   0.834
42277W        W10682  17.245   3.824   4.633
42278W        W10683  42.467  37.970  12.404
42279W        W10684   4.210  40.637  14.037
42280W        W10685  28.510   5.481  12.003
42281W        W10686  28.785   6.949  11.031
42282W        W10687  14.571  15.671   2.172
42283W        W10688  41.601  31.125  11.098
42284W        W10689  21.248  26.055  13.340
42285W        W10690  17.494  18.342  11.622
42286W        W10691  35.375  30.003   0.948
42287W        W10692  41.358  22.452  12.913
42288W        W10693  44.594   3.430   1.014
42289W        W10694   3.213  11.175  11.365
42290W        W10695  36.135  21.196   2.274
42291W        W10696  26.325  10.249  14.283
42292W        W10697  39.407  19.967  13.074
42293W        W10698  40.096   3.374  11.621
42294W        W10699   4.914   2.819  12.004
42295W        W10700  26.692  29.900  10.634
42296W        W10701  40.920  26.943   3.669
42297W        W10702  26.345  26.169   2.256
42298W        W10703  21.485  42.413   4.715
42299W        W10704  26.453  19.224  13.323
42300W        W10705   8.865  17.560   2.673
42301W        W10706  11.272  28.102   4.846
42302W        W10707  13.319  17.735   3.824
42303W        W10708  29.211  17.289  12.539
42304W        W10709  39.831  15.046  13.347
42305W        W10710  30.805  40.396   2.254
42306W        W10711  12.065  25.639   2.589
42307W        W10712  14.014  25.870   1.244
42308W        W10713  37.376  20.641  12.849
42309W        W10714   7.288  35.888  13.939
42310W        W10715   7.034  13.828   2.307
42311W        W10716  35.297  16.654  10.747
42312W        W10717  26.473  40.484   4.229
42313W        W10718  19.308  20.928  13.104
42314W        W10719  15.665  21.280   3.662
42315W        W10720  32.692  37.160   1.894
42316W        W10721  18.130  16.127   4.664
42317W        W10722  37.708  43.036  14.764
42318W        W10723  34.041   2.051  14.420
42319W        W10724  27.178  26.583   1.204
42320W        W10725  18.673   2.540   2.784
42321W        W10726  40.504  13.770   3.302
42322W        W10727  32.176  34.338   0.988
42323W        W10728  19.365  44.300   0.293
42324W        W10729  13.344  36.621  12.514
42325W        W10730  31.116  29.621   4.382
42326W        W10731  38.555  12.274  14.948
42327W        W10732  13.723  16.330  13.105
42328W        W10733  25.059   1.682  12.648
42329W        W10734  15.219   3.724  10.731
42330W        W10735  38.262  18.251   2.286
42331W        W10736  10.244   2.313   5.061
42332W        W10737  16.219  31.008  14.446
42333W        W10738   1.532  30.160   0.866
42334W        W10739  10.638  19.075  11.712
42335W        W10740  40.902  24.030   3.367
42336W        W10741  33.561  20.978  13.507
42337W        W10742  21.266  29.312  11.542
42338W        W10743  10.850   3.183   0.301
42339W        W10744  43.661  16.400  13.927
42340W        W10745  21.221  11.704   4.143
42341W        W10746  36.893   6.145  10.304
42342W        W10747  26.026  38.935  11.897
42343W        W10748   5.510  30.501   4.219
42344W        W10749  23.086  30.930  12.506
42345W        W10750  26.101  42.039   0.536
42346W        W10751  41.970  35.517  14.958
42347W        W10752  10.410  28.985  13.888
42348W        W10753  23.097  26.067  11.954
42349W        W10754  31.583  11.818   2.285
42350W        W10755   2.043   0.394  11.044
42351W        W10756  10.668  22.197   2.778
42352W        W10757  39.570  33.836   4.415
42353W        W10758  36.865  42.511   2.448
42354W        W10759   3.861  10.779  10.439
42355W        W10760  24.383  32.739  14.007
42356W        W10761  38.891  35.088   3.777
42357W        W10762  12.810  24.204   1.295
42358W        W10763  11.180  19.030  14.520
42359W        W10764  10.177  17.813   0.303
42360W        W10765  40.360  10.012   4.945
42361W        W10766  42.321  10.870  11.558
42362W        W10767  18.899  41.972  13.325
42363W        W10768  15.177  17.572  10.496
42364W        W10769  23.281  43.399   3.633
42365W        W10770  23.138  17.335  11.078
42366W        W10771   6.670  26.173  12.078
42367W        W10772  30.358  24.677  11.598
42368W        W10773  13.976  43.660  12.100
42369W        W10774  33.573   6.891   0.148
42370W        W10775   1.806   7.808   3.802
42371W        W10776   5.468  38.893  14.898
42372W        W10777  21.655  41.812   1.971
42373W        W10778  26.716   5.462   4.254
42374W        W10779  40.990   9.234  13.826
42375W        W10780  26.874  31.028   3.741
42376W        W10781   7.775  16.323   1.346
42377W        W10782  29.639  10.112  14.893
42378W        W10783  11.385   5.321  12.179
42379W        W10784  44.517  33.901  13.439
42380W        W10785  42.508  22.101   3.055
42381W        W10786  13.712  18.868   1.722
42382W        W10787  43.386  43.969  10.410
42383W        W10788  31.704  42.005  14.534
42384W        W10789  40.380   9.081  10.882
42385W        W10790  34.912  34.049   4.671
42386W        W10791  21.566  26.243  13.758
42387W        W10792  38.364  19.614   0.945
42388W        W10793  43.208  21.543  13.868
42389W        W10794   4.402  13.235  13.541
42390W        W10795  17.337   4.401  10.558
42391W        W10796  40.978   8.332  12.871
42392W        W10797  29.550  12.331   3.963
42393W        W10798  39.280  31.509  11.953
42394W        W10799  29.984  38.300  11.086
42395W        W10800  41.048  37.069   1.890
42396W        W10801  29.489  35.915   4.922
42397W        W10802  31.108  12.118   4.380
42398W        W10803  23.026  22.827  13.001
42399W        W10804  35.526  26.478   2.514
42400W        W10805  11.701  39.127   3.189
42401W        W10806  12.083  39.951   4.915
42402W        W10807  26.631  37.639   2.382
42403W        W10808   5.103  34.533   2.729
42404W        W10809   0.029  35.363   4.539
42405W        W10810   5.280  36.515   4.183
42406W        W10811  39.742  28.214  11.121
42407W        W10812  38.593   9.844   2.878
42408W        W10813  19.657  24.949   3.087
42409W        W10814  41.063   3.502   4.531
42410W        W10815   3.638   9.646  13.883
42411W        W10816  24.935   2.797  14.379
42412W        W10817   1.742  23.551   0.475
42413W        W10818  32.217  14.856   1.899
42414W        W10819  12.541  31.932  11.535
42415W        W10820  18.666  27.009  11.218
42416W        W10821  44.881  15.976   1.678
42417W        W10822  29.625  30.882   2.669
42418W        W10823  26.663  13.790  13.753
42419W        W10824  17.794  41.809   4.262
42420W        W10825   7.854  25.592  12.197
42421W        W10826  11.078  17.135   0.928
42422W        W10827   5.403  15.387   1.802
42423W        W10828  40.040  21.112   0.523
42424W        W10829  28.727  43.048   0.303
42425W        W10830  11.080  24.122   1.710
42426W        W10831  40.958  19.771  14.826
42427W        W10832  14.161  28.564  10.580
42428W        W10833   2.599   7.120  11.172
42429W        W10834  17.625  12.891  11.504
42430W        W10835  17.167  10.104   2.863
42431W        W10836  32.050  36.497   1.616
42432W        W10837   9.212  16.298   1.318
42433W        W10838  38.812   4.173  10.036
42434W        W10839  35.625  12.284   3.590
42435W        W10840  24.744  23.232  12.639
42436W        W10841  37.001  24.462   1.529
42437W        W10842  32.116  19.412   1.412
42438W        W10843  43.925  27.041   1.598
42439W        W10844  10.429   8.703   3.200
42440W        W10845  27.539  30.506  10.564
42441W        W10846  34.065   4.441   1.824
42442W        W10847  12.143  24.542  11.665
42443W        W10848  31.117  34.268  11.158
42444W        W10849  40.492  10.432   4.057
42445W        W10850   2.685   1.155  13.077
42446W        W10851  26.516  18.235   0.803
42447W        W10852   9.662   9.085   1.106
42448W        W10853  21.035  41.853   2.239
42449W        W10854  12.091   8.459  10.691
42450W        W10855  18.705  41.111   3.745
42451W        W10856  33.801  18.123   4.962
42452W        W10857  33.998  37.974  11.622
42453W        W10858  14.809  24.384   2.425
42454W        W10859  26.377  31.967  14.353
42455W        W10860  25.158  20.901   4.673
42456W        W10861   2.874   0.930   1.214
42457W        W10862  37.357  11.871   1.684
42458W        W10863  14.858   7.201  12.967
42459W        W10864  39.547   0.474  14.484
42460W        W10865  24.223  19.770   4.081
42461W        W10866  35.816   8.649  12.942
42462W        W10867  18.589  15.664  13.282
42463W        W10868  15.591   0.426   3.321
42464W        W10869   7.694  18.326  12.702
42465W        W10870  20.389  39.162  10.155
42466W        W10871  11.365   9.714   4.449
42467W        W10872  42.276   2.511  13.739
42468W        W10873  43.425  18.780  11.153
42469W        W10874  28.221   6.864  10.998
42470W        W10875  30.186  24.097   4.584
42471W        W10876  28.450   2.018   3.762
42472W        W10877  19.410  24.999  10.295
42473W        W10878   6.661  15.367   3.154
42474W        W10879  23.225  34.300   4.109
42475W        W10880  10.187   1.917   0.228
42476W        W10881  11.482   7.792   3.678
42477W        W10882  10.108   4.269   4.236
42478W        W10883  25.034  36.124   0.767
42479W        W10884   5.998  31.081   3.650
42480W        W10885  42.906   3.209   0.181
42481W        W10886  33.786   4.204  13.382
42482W        W10887  33.877   3.766   3.703
42483W        W10888   3.706  41.080  14.549
42484W        W10889  17.204   7.385  13.294
42485W        W10890  15.183  29.632  12.485
42486W        W10891  31.276   4.713  14.333
42487W        W10892  40.038  13.192  11.654
42488W        W10893  35.831  40.109   1.577
42489W        W10894  31.625  13.359   0.825
42490W        W10895  33.877  37.055   3.797
42491W        W10896  34.017  16.059  12.932
42492W        W10897  16.328  40.487   1.768
42493W        W10898  12.617  43.032   0.876
42494W        W10899   9.227  27.943  10.312
42495W        W10900  25.836  25.046  13.781
42496W        W10901  36.653   2.967  14.945
42497W        W10902  44.955   6.146   3.186
42498W        W10903  38.839  21.100   0.448
42499W        W10904   7.233   1.707  11.704
42500W        W10905   2.198  36.603  14.751
42501W        W10906  39.071  31.466   2.651
42502W        W10907  25.889  26.695  14.775
42503W        W10908  31.823  35.579  13.391
42504W        W10909  38.104  38.746   4.802
42505W        W10910   7.857  28.457   4.334
42506W        W10911   7.977  22.082   1.979
42507W        W10912  30.582  31.245   3.111
42508W        W10913  23.759  41.202  13.863
42509W        W10914  18.711   5.942  13.538
42510W        W10915   8.473  40.494   4.813
42511W        W10916  23.091  40.127  11.512
42512W        W10917  25.162  23.709   3.275
42513W        W10918  11.594   8.550  10.868
42514W        W10919  11.873  23.866   1.457
42515W        W10920  32.042  34.265  14.516
42516W        W10921  41.193  16.761   1.380
42517W        W10922  21.769  24.134  14.542
42518W        W10923  36.830  37.510  13.979
42519W        W10924  34.476  25.126  14.949
42520W        W10925  36.862   5.215  10.532
42521W        W10926  25.545   4.665   1.126
42522W        W10927   0.863   7.099  12.592
42523W        W10928   5.499  24.712  14.075
42524W        W10929  40.197  23.271   2.760
42525W        W10930  38.516  11.994  14.509
42526W        W10931   4.667  22.658   0.238
42527W        W10932  35.316  44.991   0.462
42528W        W10933  14.213  33.678   0.351
42529W        W10934  25.574  10.636   1.943
42530W        W10935  42.246  19.199  13.503
42531W        W10936  33.012   7.822   4.947
42532W        W10937  28.069  37.908   4.176
42533W        W10938  10.210  42.336   0.756
42534W        W10939  41.111  33.906   2.309
42535W        W10940  10.407  33.942  14.198
42536W        W10941  34.708  44.007   4.204
42537W        W10942  14.373  43.510  13.885
42538W        W10943   7.796  20.177  12.345
42539W        W10944  10.304  22.475   0.283
42540W        W10945  30.982   2.587  12.443
42541W        W10946   6.811   8.445   3.235
42542W        W10947  32.019  35.110   3.264
42543W        W10948  16.204  14.635  10.425
42544W        W10949  16.232   6.012  11.932
42545W        W10950  17.350  42.478  10.690
42546W        W10951  35.803  15.765  14.925
42547W        W10952  41.827   2.689  13.049
42548W        W10953  31.323  40.890   3.665
42549W        W10954   5.367  37.311  13.849
42550W        W10955   6.370  25.987  10.745
42551W        W10956  15.615  20.442   2.292
42552W        W10957  34.095   9.859  10.603
42553W        W10958   3.961  10.309  13.979
42554W        W10959  31.873  41.336  14.966
42555W        W10960  13.194  13.651  10.447
42556W        W10961  41.579   9.923  14.412
42557W        W10962   9.736  40.873  11.609
42558W        W10963   3.809  11.528  13.297
42559W        W10964  32.518  31.412  14.424
42560W        W10965  11.940  22.309  11.659
42561W        W10966  15.104  33.709   3.265
42562W        W10967  29.035   5.255  12.648
42563W        W10968   1.423  13.726  11.415
42564W        W10969   9.839  14.468   2.362
42565W        W10970  23.758  28.045  12.410
42566W        W10971  43.044  44.950  13.882
42567W        W10972  17.189  10.945   0.743
42568W        W10973  25.666   1.449  12.407
42569W        W10974  13.248   7.778   0.318
42570W        W10975  42.925  21.285   2.909
42571W        W10976  34.814  12.055  11.222
42572W        W10977  25.135  34.494   3.909
42573W        W10978   3.301  36.858   4.961
42574W        W10979  30.309  19.374  13.358
42575W        W10980  43.990   1.361   1.212
42576W        W10981  33.819   6.409  14.452
42577W        W10982  33.466  43.481  14.415
42578W        W10983  37.867  29.552   4.107
42579W        W10984  34.810  24.114  12.866
42580W        W10985  29.096  31.066  13.491
42581W        W10986   0.069  24.725   2.805
42582W        W10987  29.552  39.471  14.479
42583W        W10988   1.246  18.034  11.831
42584W        W10989  44.748  11.171  12.619
42585W        W10990   4.395  27.438   1.321
42586W        W10991  32.351  39.533   3.399
42587W        W10992  21.276  42.182  12.846
42588W        W10993  19.984  42.490  14.429
42589W        W10994  40.502  18.142   4.855
42590W        W10995  20.248  31.041  14.267
42591W        W10996  43.796  14.423  14.557
42592W        W10997  40.014  23.666  10.607
42593W        W10998  20.711   9.753  14.240
42594W        W10999  23.946  39.065  11.373
42595W        W11000   5.852  17.456  13.883
42596W        W11001  33.415  10.100  12.099
42597W        W11002   8.186  13.068  11.617
42598W        W11003  24.685   3.241  11.515
42599W        W11004  19.202  13.919  14.154
42600W        W11005   6.509   0.008   2.781
42601W        W11006  28.559   2.300  13.871
42602W        W11007   6.436   1.914   3.788
42603W        W11008  21.149  30.359   4.255
42604W        W11009  40.870  37.240  12.893
42605W        W11010   4.919   5.731   0.722
42606W        W11011   9.838  35.446   1.340
42607W        W11012  23.531  30.214   0.456
42608W        W11013  11.724  30.806   2.372
42609W        W11014  10.630  44.571   0.741
42610W        W11015  42.801  14.759   4.996
42611W        W11016  27.283  41.437  13.481
42612W        W11017   4.171  36.827   3.337
42613W        W11018   5.816  15.658   2.668
42614W        W11019  10.133  43.046   1.409
42615W        W11020  12.826  42.418   4.660
42616W        W11021  24.605  26.942   4.750
42617W        W11022  13.810  36.953  10.645
42618W        W11023  35.487  34.057   3.352
42619W        W11024  29.439   3.947  11.257
42620W        W11025   6.783  40.423  14.686
42621W        W11026  29.874  35.072   1.793
42622W        W11027   0.521   6.775   0.850
42623W        W11028  30.958  24.472   4.634
42624W        W11029  24.535  36.650  10.661
42625W        W11030  40.995  21.765  11.127
42626W        W11031  34.097  38.220  12.160
42627W        W11032  43.671   5.785   1.334
42628W        W11033   3.143  25.619  12.610
42629W        W11034  25.690  10.371  12.071
42630W        W11035  30.600  25.977  14.901
42631W        W11036  19.765  10.356   3.227
42632W        W11037  26.542  38.379  10.326
42633W        W11038  42.334  41.306  13.639
42634W        W11039   5.380  11.068  13.451
42635W        W11040  20.120  21.345  12.852
42636W        W11041   1.338  15.510   3.219
42637W        W11042  28.777   0.350  13.850
42638W        W11043  36.962  20.269  11.080
42639W        W11044  20.184  12.274  14.478
42640W        W11045  33.623  38.992  13.790
42641W        W11046   4.185   2.162   1.323
42642W        W11047  11.031  43.906  13.817
42643W        W11048  33.029  20.310  10.773
42644W        W11049   6.354  44.225   5.156
42645W        W11050  28.566   1.939   2.439
42646W        W11051  30.071  34.336   4.828
42647W        W11052  27.541  26.989  11.584
42648W        W11053  37.998   4.458  14.779
42649W        W11054  32.745   2.857   3.215
42650W        W11055   5.649  39.643  13.349
42651W        W11056  12.304  19.231  11.904
42652W        W11057  28.034   4.873   4.777
42653W        W11058  12.666  39.736   0.547
42654W        W11059  16.335  20.808   4.707
42655W        W11060  25.812  43.222  14.868
42656W        W11061  44.786  14.606  12.208
42657W        W11062  39.571  44.227   0.512
42658W        W11063  12.600  14.363   2.590
42659W        W11064  33.803  36.026   1.189
42660W        W11065  15.847  18.539  13.160
42661W        W11066  18.730   6.150  11.088
42662W        W11067   3.502  32.492   4.110
42663W        W11068  28.891   3.867   1.029
42664W        W11069  15.285  36.086  11.306
42665W        W11070  19.426  30.643   2.306
42666W        W11071  36.161  33.467   4.842
42667W        W11072  42.345   6.135  13.989
42668W        W11073  25.040  39.896  10.967
42669W        W11074  38.605  17.821   0.406
42670W        W11075  25.850   4.232   0.264
42671W        W11076  30.689  18.226   3.429
42672W        W11077  34.621  35.439   4.919
42673W        W11078  28.657  31.603  11.536
42674W        W11079  42.363  29.447  13.635
42675W        W11080  40.066  39.406  12.506
42676W        W11081  10.694  32.396   0.836
42677W        W11082   3.507  26.469  12.504
42678W        W11083  35.371   2.350   0.196
42679W        W11084  35.144  14.280  12.871
42680W        W11085  11.347  43.379   4.108
42681W        W11086  30.523  37.510   4.655
42682W        W11087   9.200  21.943  12.857
42683W        W11088   1.972  37.447  11.639
42684W        W11089  33.594  11.385   3.355
42685W        W11090  19.229  14.185   1.304
42686W        W11091  44.954  30.862   3.178
42687W        W11092  44.253  23.356   1.265
42688W        W11093   0.426  13.597   1.200
42689W        W11094  16.629  36.321  13.046
42690W        W11095  12.010   5.471   3.125
42691W        W11096   5.734  30.437   0.293
42692W        W11097  44.233  19.594  11.138
42693W        W11098   4.239  23.748  10.897
42694W        W11099  39.356  43.117  12.858
42695W        W11100  25.629  11.294   0.999
42696W        W11101   9.231  41.905  12.078
42697W        W11102  28.174   3.252  14.839
42698W        W11103  14.500   3.907  13.002
42699W        W11104  44.280  30.574   4.391
42700W        W11105  21.674   2.265   2.351
42701W        W11106   3.856  41.232   3.350
42702W        W11107  33.627  28.577   4.000
42703W        W11108  25.196   2.299  14.214
42704W        W11109  40.033  27.088  12.243
42705W        W11110  29.347  40.767  11.106
42706W        W11111  26.392  35.907   2.688
42707W        W11112  36.465  15.376  14.490
42708W        W11113  20.610  34.048   4.642
42709W        W11114  39.539  19.975  12.026
42710W        W11115  41.863   5.011  10.611
42711W        W11116  31.526   5.336   1.736
42712W        W11117  20.805  19.151  11.523
42713W        W11118  29.268  17.151   0.315
42714W        W11119  12.444  36.104  14.368
42715W        W11120  22.146  29.040  11.624
42716W        W11121  19.531   6.121   2.681
42717W        W11122  19.769  10.410   1.611
42718W        W11123  10.832  13.943  13.883
42719W        W11124   5.293  16.432   2.861
42720W        W11125  19.685  40.320   1.888
42721W        W11126  29.970  39.703   3.129
42722W        W11127  41.976  39.500  14.965
42723W        W11128   4.287  18.686   2.743
42724W        W11129  44.534  10.613  12.094
42725W        W11130  10.234  32.134  13.373
42726W        W11131  39.954   6.703   2.067
42727W        W11132  27.181  33.248   3.256
42728W        W11133  23.714  16.137  14.513
42729W        W11134  23.150   4.603   2.418
42730W        W11135  29.108  24.070   3.572
42731W        W11136  14.673   3.753  10.691
42732W        W11137  38.098  40.376   3.697
42733W        W11138  15.993  42.721   3.584
42734W        W11139   2.487  38.385  13.006
42735W        W11140  35.098  43.818  13.018
42736W        W11141  17.496  22.454  11.451
42737W        W11142  39.261  35.042   3.289
42738W        W11143  44.949  27.000   3.361
42739W        W11144   7.889  19.584   0.422
42740W        W11145  41.293  25.292   3.312
42741W        W11146   0.644  33.559   2.243
42742W        W11147  17.562  26.224   1.700
42743W        W11148  32.904  18.816   3.321
42744W        W11149  11.186  15.411   0.304
42745W        W11150  39.942  19.985   1.247
42746W        W11151   7.948  21.597   3.142
42747W        W11152   3.785   6.776   0.894
42748W        W11153  35.754  16.762   0.731
42749W        W11154  34.238  34.433   0.821
42750W        W11155  38.923  38.761   3.336
42751W        W11156  38.583   7.869   0.098
42752W        W11157   4.450  15.285   4.213
42753W        W11158  32.824   3.575  14.100
42754W        W11159  31.434  18.751   1.437
42755W        W11160   4.662  15.341  14.947
42756W        W11161  35.902   4.754   3.328
42757W        W11162  38.035  36.455   4.416
42758W        W11163   6.717  23.261  12.603
42759W        W11164  13.414  30.836   2.712
42760W        W11165  13.893  26.243  11.993
42761W        W11166  13.414  24.255   3.899
42762W        W11167  39.643  36.491   1.231
42763W        W11168  12.864  43.299   4.961
42764W        W11169  24.221  41.530   4.600
42765W        W11170  23.047  22.217  11.636
42766W        W11171   9.866  38.400   3.137
42767W        W11172  37.799  12.936   4.117
42768W        W11173  10.837  16.025  13.290
42769W        W11174   7.240  23.021   1.287
42770W        W11175  19.764  32.861  12.533
42771W        W11176   3.946  27.739   2.845
42772W        W11177  32.241  43.761  10.826
42773W        W11178   9.209  41.899  12.608
42774W        W11179   6.360  33.608  14.368
42775W        W11180  42.410  29.525  10.501
42776W        W11181  41.332  28.993   1.956
42777W        W11182  44.492  10.879   2.874
42778W        W11183  29.705   6.378   2.736
42779W        W11184  37.549  35.762  11.558
42780W        W11185  40.452  44.458  14.258
42781W        W11186  15.630  16.728  11.579
42782W        W11187  34.136  34.057  14.072
42783W        W11188  37.084  29.030   2.029
42784W        W11189  40.748   8.586  14.271
42785W        W11190  18.646  14.596  11.613
42786W        W11191  14.544  16.244  11.236
42787W        W11192  29.239  31.123   0.303
42788W        W11193  41.057  40.850  12.349
42789W        W11194  25.046  34.109  14.345
42790W        W11195  11.914  26.710  11.570
42791W        W11196  22.160  25.107  14.391
42792W        W11197  25.099   5.764  11.231
42793W        W11198   5.714  32.568  10.519
42794W        W11199   4.949  16.746   1.853
42795W        W11200  33.561  31.236   3.563
42796W        W11201  27.460  10.061   0.823
42797W        W11202  31.127  23.795  13.379
42798W        W11203  43.835  43.499  10.766
42799W        W11204  29.183  43.338   3.877
42800W        W11205  14.536  13.719  13.586
42801W        W11206   9.147  40.025   4.726
42802W        W11207   4.739  26.338   3.086
42803W        W11208  11.408  39.019  12.553
42804W        W11209   6.447   1.987  11.238
42805W        W11210  37.489  21.719   0.216
42806W        W11211  36.680  34.402   1.815
42807W        W11212  15.102   4.754  14.837
42808W        W11213  32.482  40.108   1.660
42809W        W11214  21.053  31.964   4.554
42810W        W11215  10.887  12.118  14.197
42811W        W11216  12.928   3.770  11.422
42812W        W11217  38.193  25.069  12.538
42813W        W11218   8.790  39.940  13.322
42814W        W11219  43.897  28.719   3.123
42815W        W11220  26.658  19.804  12.076
42816W        W11221  18.264   7.418  14.610
42817W        W11222   5.253  42.897  10.617
42818W        W11223   9.333  23.261  12.577
42819W        W11224  10.998  10.672   4.140
42820W        W11225   1.972  17.853   2.384
42821W        W11226  38.838  21.103   9.959
42822W        W11227  24.573   4.513   0.446
42823W        W11228   9.569  13.074  11.596
42824W        W11229  11.789  32.635   2.926
42825W        W11230  16.312  19.119  14.887
42826W        W11231   6.014  30.415   4.149
42827W        W11232  15.117  43.270   5.117
42828W        W11233  39.545   3.956  13.859
42829W        W11234   0.708  21.532  12.947
42830W        W11235   3.750   4.407  12.569
42831W        W11236  27.899  18.975   2.201
42832W        W11237   2.981  23.044   2.695
42833W        W11238  41.579   9.784   2.159
42834W        W11239  19.219  21.999  13.912
42835W        W11240  30.452  34.976   0.896
42836W        W11241  28.049  28.454  13.395
42837W        W11242  18.019  39.851  14.554
42838W        W11243  37.306  30.393   4.095
42839W        W11244   1.542   6.747   0.834
42840W        W11245  20.577  44.805   2.193
42841W        W11246  36.546   4.726  10.703
42842W        W11247  27.097   3.164  13.095
42843W        W11248  44.952  39.301   1.206
42844W        W11249  29.002  22.723   4.718
42845W        W11250   8.178  21.977   1.247
42846W        W11251  37.012  10.722   2.738
42847W        W11252  37.980  30.489  13.447
42848W        W11253  15.814  17.612   1.087
42849W        W11254  24.602  19.134   2.515
42850W        W11255  42.478  13.989   0.448
42851W        W11256  27.915  15.410   2.075
42852W        W11257  41.110  35.621   1.806
42853W        W11258   7.754  10.560   0.424
42854W        W11259  35.836   4.580   3.805
42855W        W11260  37.949  13.371  13.023
42856W        W11261  23.024  13.171  11.370
42857W        W11262  22.679  17.679   2.784
42858W        W11263   4.621   8.818  11.972
42859W        W11264  33.500  21.558  10.061
42860W        W11265  33.432  30.073   1.831
42861W        W11266  24.503   3.852   3.756
42862W        W11267  37.826  43.836   1.275
42863W        W11268  38.638  14.162   4.285
42864W        W11269   5.252   8.169   1.648
42865W        W11270  33.629  29.880   3.320
42866W        W11271  20.162   9.618   4.685
42867W        W11272  17.094  33.267   2.763
42868W        W11273  23.806  16.847  11.010
42869W        W11274  41.461  36.860  10.488
42870W        W11275  37.535  13.073  13.067
42871W        W11276   8.627  27.522  13.090
42872W        W11277   7.310  32.538   2.885
42873W        W11278  21.137   6.876   3.138
42874W        W11279  40.301   0.879   4.169
42875W        W11280   8.001  42.657   3.772
42876W        W11281  30.100  41.683  10.190
42877W        W11282   2.894  42.941  14.498
42878W        W11283  41.383  27.237  14.330
42879W        W11284  14.199  41.340  12.920
42880W        W11285  31.961  19.770  13.701
42881W        W11286  27.934  39.480  14.944
42882W        W11287  22.217  19.790  12.022
42883W        W11288   9.379  25.608   1.825
42884W        W11289  36.419   6.315  11.780
42885W        W11290   9.779  23.973   0.938
42886W        W11291  27.991  29.208   1.790
42887W        W11292  33.483  34.959  11.749
42888W        W11293  41.467  21.960   3.619
42889W        W11294  31.126  30.090   3.650
42890W        W11295  27.681  17.106   3.805
42891W        W11296  20.481   0.108  11.981
42892W        W11297  42.451  38.832  12.959
42893W        W11298  32.694  23.147   2.355
42894W        W11299  34.536  14.753  13.989
42895W        W11300  11.841  14.904   4.144
42896W        W11301  25.020  19.100  11.474
42897W        W11302  26.562  15.864   5.059
42898W        W11303  39.324  39.769   4.782
42899W        W11304  19.045  27.911   3.221
42900W        W11305  21.521   9.928   3.633
42901W        W11306  11.989  43.362  14.499
42902W        W11307  28.533  40.449   4.956
42903W        W11308  27.693  16.133   0.378
42904W        W11309  26.921  13.180   2.860
42905W        W11310  27.631  39.806  14.534
42906W        W11311  38.393  36.805  12.959
42907W        W11312   0.841  41.537   1.222
42908W        W11313   9.354  25.942  10.959
42909W        W11314   4.446  18.198  13.114
42910W        W11315  26.008  25.565   3.709
42911W        W11316   6.084  42.718  12.534
42912W        W11317  22.491  21.733  14.032
42913W        W11318  39.335   7.650   1.834
42914W        W11319  22.721  27.152  13.523
42915W        W11320   4.950   3.941  10.102
42916W        W11321  33.897  27.169  13.999
42917W        W11322  17.137  26.628   2.504
42918W        W11323  10.774  42.471  14.515
42919W        W11324  21.232  34.471   3.635
42920W        W11325  43.544  30.464  13.201
42921W        W11326  27.187  15.297  13.336
42922W        W11327  34.955  17.672   2.273
42923W        W11328  34.181  28.935  12.536
42924W        W11329  16.503  33.206   1.378
42925W        W11330   7.424   5.893  14.431
42926W        W11331  14.745  28.845   2.465
42927W        W11332   1.157  26.007  12.441
42928W        W11333  34.601  42.208  10.784
42929W        W11334  19.747   8.831  13.537
42930W        W11335   0.424  40.902   2.987
42931W        W11336  39.853  19.640  10.319
42932W        W11337  25.545  42.533   2.141
42933W        W11338  34.907  35.929  13.959
42934W        W11339   6.143  23.443   2.161
42935W        W11340   8.204   8.443   4.138
42936W        W11341   6.798  39.510  14.547
42937W        W11342   9.056  38.265  13.298
42938W        W11343   6.196  32.949   3.695
42939W        W11344  22.931  14.628  14.543
42940W        W11345  31.023  15.794  12.194
42941W        W11346  33.113  43.016  11.990
42942W        W11347  25.537  24.945  14.699
42943W        W11348  43.999  38.579  12.849
42944W        W11349  42.101   7.330  14.491
42945W        W11350   7.224  27.479   3.755
42946W        W11351  34.952  26.090   2.187
42947W        W11352  26.526  23.734   0.830
42948W        W11353   7.233  18.256   3.335
42949W        W11354  24.045  43.544   4.552
42950W        W11355  25.442   3.428   0.708
42951W        W11356  20.358   9.320   0.371
42952W        W11357  23.539  17.043  12.834
42953W        W11358   3.541  12.790   3.847
42954W        W11359  27.247   8.229   2.713
42955W        W11360  28.037  38.010  14.866
42956W        W11361  39.381  16.307  11.430
42957W        W11362  36.105  43.801   4.208
42958W        W11363   7.028  17.550   1.253
42959W        W11364  40.904  23.716   4.772
42960W        W11365   7.738  27.398  12.863
42961W        W11366   1.740  14.578   1.810
42962W        W11367   4.472  16.964   1.799
42963W        W11368  21.033  12.383  10.624
42964W        W11369   7.161  27.472  14.298
42965W        W11370   8.689  15.826  14.825
42966W        W11371  37.396  31.369   0.793
42967W        W11372  10.893  14.666   4.686
42968W        W11373  31.543  44.095   1.090
42969W        W11374  37.934  26.132  11.145
42970W        W11375  22.152  10.543   4.131
42971W        W11376  29.944  24.969  13.393
42972W        W11377  36.659  39.835  14.394
42973W        W11378   4.547  29.216   2.054
42974W        W11379  23.792  22.374  13.224
42975W        W11380  24.326  11.255  11.510
42976W        W11381  28.983   4.785  10.900
42977W        W11382  25.760  42.296   3.580
42978W        W11383  28.859  31.499   1.887
42979W        W11384  37.151  33.118  11.143
42980W        W11385  22.956  18.068  12.030
42981W        W11386  40.128  24.088   4.167
42982W        W11387  29.089  34.614  13.080
42983W        W11388  13.489  38.038   2.864
42984W        W11389  13.197  18.786   1.868
42985W        W11390  35.930  44.516  13.436
42986W        W11391  35.343   0.337  13.268
42987W        W11392  33.959  29.432  14.818
42988W        W11393   7.860  40.813   4.114
42989W        W11394  13.178  32.867   4.075
42990W        W11395   5.822  22.539  13.808
42991W        W11396   0.811  35.395   4.118
42992W        W11397  39.006  25.569   0.332
42993W        W11398   7.163  38.410  14.636
42994W        W11399  22.981  41.006  12.908
42995W        W11400  32.161  40.410   1.307
42996W        W11401  10.931  11.169  12.445
42997W        W11402  24.672   8.473   3.289
42998W        W11403  41.688  36.170   2.160
42999W        W11404  21.669   4.202  13.994
43000W        W11405  31.416  43.996   0.007
43001W        W11406  39.548  26.618  10.358
43002W        W11407  44.553  10.585  10.021
43003W        W11408  32.417  34.889  13.173
43004W        W11409  23.310  25.330  14.912
43005W        W11410  28.247   4.325   0.803
43006W        W11411   0.331   4.111  11.927
43007W        W11412   7.853  40.770  14.395
43008W        W11413   2.195  38.479  12.573
43009W        W11414   9.775  11.251   3.094
43010W        W11415  29.481  30.158  12.126
43011W        W11416  14.281  22.573  10.400
43012W        W11417   6.683   8.247  12.487
43013W        W11418  28.257  33.050   0.746
43014W        W11419  12.555  10.486  11.255
43015W        W11420   9.318  29.361   3.586
43016W        W11421  32.852  34.634  13.082
43017W        W11422  14.606  38.708   4.623
43018W        W11423  37.965  34.938   2.764
43019W        W11424  18.405   6.809  13.904
43020W        W11425  11.864  20.698  12.446
43021W        W11426   2.261  12.956   4.133
43022W        W11427  28.372   3.847   0.977
43023W        W11428   4.093  20.386  11.500
43024W        W11429  24.438  18.352  13.027
43025W        W11430  42.662  28.624   0.544
43026W        W11431  17.099  31.591   0.445
43027W        W11432   6.207   1.286  13.955
43028W        W11433  44.115  14.520  14.986
43029W        W11434  26.358   1.196  14.966
43030W        W11435  34.557   4.152  14.098
43031W        W11436  37.623   2.982   3.404
43032W        W11437  25.746  16.486  13.048
43033W        W11438   0.919  30.490   2.279
43034W        W11439  43.976  35.824   1.191
43035W        W11440  24.415  35.596  14.819
43036W        W11441  31.129   8.810  12.050
43037W        W11442  28.192  13.621  13.947
43038W        W11443  32.314  13.281  14.988
43039W        W11444  43.341   8.131   0.595
43040W        W11445  36.878   0.254  11.084
43041W        W11446  40.716  10.614   0.313
43042W        W11447  25.671  12.293  11.617
43043W        W11448  26.940  12.843  12.939
43044W        W11449  28.631   8.475   1.769
43045W        W11450   8.407  14.499  13.640
43046W        W11451  18.117  34.375  14.789
43047W        W11452  17.710  13.285  10.677
43048W        W11453  42.543   0.430   1.401
43049W        W11454  20.164  35.247   2.461
43050W        W11455   6.111   2.782   2.284
43051W        W11456   1.713  26.052   4.532
43052W        W11457  22.928  35.372   2.227
43053W        W11458  39.818  28.608  12.764
43054W        W11459  12.184  27.164  14.693
43055W        W11460  10.262  25.137  11.658
43056W        W11461  31.484  38.012  12.618
43057W        W11462  16.600  13.045  14.066
43058W        W11463  20.591   5.721   1.125
43059W        W11464  42.684   4.936   5.074
43060W        W11465  30.681   2.689   2.795
43061W        W11466  43.154   8.139   1.066
43062W        W11467  29.513  10.178  11.875
43063W        W11468  38.453   2.432   1.221
43064W        W11469  23.776  13.335   1.210
43065W        W11470  31.494  30.384   0.528
43066W        W11471  24.196  11.479  14.241
43067W        W11472   6.192  23.234  14.309
43068W        W11473  22.425  12.723   2.235
43069W        W11474  11.204  36.894   4.146
43070W        W11475  16.959  14.521  11.546
43071W        W11476   0.303  30.182   3.733
43072W        W11477   0.523  28.845  11.633
43073W        W11478  41.751  15.256   1.428
43074W        W11479  39.295  22.001   0.154
43075W        W11480  22.105   0.350   4.074
43076W        W11481   9.116  32.358  14.990
43077W        W11482  30.529   5.060   3.808
43078W        W11483   2.670   2.437  11.610
43079W        W11484  41.308  28.646  13.896
43080W        W11485  23.044   3.329   2.874
43081W        W11486  35.488  25.742   1.405
43082W        W11487   1.719  39.523  11.257
43083W        W11488  26.632  44.720  11.027
43084W        W11489  38.710  13.778   4.867
43085W        W11490  44.872   8.098  13.556
43086W        W11491   4.865  23.979   3.089
43087W        W11492  16.614   6.313  13.867
43088W        W11493  38.877  41.782  14.849
43089W        W11494  25.534  28.508   4.544
43090W        W11495   1.147  11.827  12.961
43091W        W11496  40.764  44.316  11.216
43092W        W11497   8.353   3.714  14.036
43093W        W11498  30.393  38.842   0.914
43094W        W11499  10.356  42.905   2.429
43095W        W11500   7.406   3.629   2.759
43096W        W11501  41.273  32.042  10.645
43097W        W11502  39.351  16.606  10.653
43098W        W11503  19.642   0.466   0.310
43099W        W11504   9.746  20.486  14.836
43100W        W11505   7.555   0.528   4.072
43101W        W11506  39.904   9.930   4.174
43102W        W11507   5.416  10.315   3.804
43103W        W11508  40.680  26.399   4.856
43104W        W11509  18.514  27.510  14.539
43105W        W11510  26.766  13.330  14.023
43106W        W11511   5.637   4.802  12.306
43107W        W11512  34.971  34.087  14.389
43108W        W11513  29.698  39.411   0.960
43109W        W11514   9.841  40.010   0.357
43110W        W11515   7.219  39.524   2.165
43111W        W11516  38.798   0.190   3.529
43112W        W11517  30.967  34.325   4.243
43113W        W11518  27.667  32.782  14.953
43114W        W11519  16.335  41.355   3.719
43115W        W11520  31.143  29.722   4.922
43116W        W11521   4.751  21.255   1.306
43117W        W11522  27.040  29.554   4.926
43118W        W11523   0.252   7.720   2.731
43119W        W11524  25.580  40.851  10.476
43120W        W11525  15.314  39.832   3.283
43121W        W11526  24.548  23.996   4.608
43122W        W11527  27.475  43.097  10.384
43123W        W11528  18.129   2.986   4.441
43124W        W11529  14.594  30.141   0.455
43125W        W11530  23.594  26.882   0.688
43126W        W11531   2.710  17.846   2.929
43127W        W11532  18.580  26.225   2.275
43128W        W11533  32.571  37.265  11.609
43129W        W11534  29.428  28.091  11.392
43130W        W11535  38.581  21.019   0.891
43131W        W11536  42.322  17.297   2.164
43132W        W11537  24.688   2.323  14.341
43133W        W11538  23.924  26.217   2.832
43134W        W11539   1.336   8.755  13.837
43135W        W11540  34.381  21.914   1.384
43136W        W11541   9.392  37.091  10.468
43137W        W11542   5.397   3.428  14.811
43138W        W11543  44.344  42.381  14.319
43139W        W11544  17.189  14.059   3.795
43140W        W11545  22.729   0.421  12.638
43141W        W11546  21.208  19.506   4.672
43142W        W11547  14.881  41.427  11.166
43143W        W11548   6.502  27.614   1.027
43144W        W11549  18.731  38.449   3.349
43145W        W11550   3.543  25.201  11.992
43146W        W11551   2.715   4.438  11.092
43147W        W11552  25.952  42.457  13.747
43148W        W11553  40.495   0.460   4.955
43149W        W11554   4.551  15.893  12.369
43150W        W11555  30.483  18.291   4.603
43151W        W11556  32.830  22.129  10.591
43152W        W11557  12.736  16.032  14.507
43153W        W11558   3.970  30.156   1.290
43154W        W11559  24.192  44.779   5.020
43155W        W11560  29.906  14.327   2.613
43156W        W11561  20.909  24.264   2.622
43157W        W11562  21.794  39.927   3.646
43158W        W11563  28.199   0.482   4.463
43159W        W11564  33.835  39.966  11.311
43160W        W11565   7.321   0.465   0.195
43161W        W11566   7.772   2.335  11.193
43162W        W11567   8.942  32.535   4.842
43163W        W11568  25.987  38.843   0.837
43164W        W11569   2.340  29.717   4.575
43165W        W11570  41.379  14.132   3.170
43166W        W11571  38.024  37.681   0.005
43167W        W11572   7.891   4.182   1.847
43168W        W11573  37.466  12.038  12.967
43169W        W11574  30.711  24.023  13.592
43170W        W11575  10.514   4.523   4.752
43171W        W11576   5.149  25.950   2.246
43172W        W11577  39.081   3.776   0.579
43173W        W11578  28.051  30.335  13.440
43174W        W11579   2.015  27.728   4.083
43175W        W11580  29.386  14.244   3.663
43176W        W11581  11.402  23.440  14.051
43177W        W11582  12.786  38.001  13.468
43178W        W11583  29.675   3.158  14.817
43179W        W11584  38.523  23.212   4.145
43180W        W11585  32.380  23.737   0.356
43181W        W11586  12.165  15.276  12.001
43182W        W11587   5.856  25.055  12.425
43183W        W11588  17.206  19.364   1.377
43184W        W11589   8.388   5.703   1.657
43185W        W11590  18.349  36.420   4.225
43186W        W11591   3.255  22.536   4.730
43187W        W11592  17.711  16.153   1.306
43188W        W11593  33.393  37.854  13.025
43189W        W11594  24.236   2.756   2.792
43190W        W11595  20.083  30.154   4.591
43191W        W11596  28.743  21.086  11.216
43192W        W11597   1.590  13.140   3.423
43193W        W11598  35.094   7.176   3.782
43194W        W11599  22.513  39.506   4.082
43195W        W11600  28.932  37.375   4.154
43196W        W11601   1.987  32.603   3.318
43197W        W11602  32.079  10.407  13.310
43198W        W11603  40.812   2.626  11.237
43199W        W11604  37.919  39.049  10.620
43200W        W11605  18.828   9.669  11.246
43201W        W11606  30.627  10.411   3.196
43202W        W11607  42.416  28.956   0.904
43203W        W11608  18.790  39.328  12.125
43204W        W11609  28.965  25.166  12.508
43205W        W11610  17.564  15.150   3.282
43206W        W11611  43.572  21.529   4.507
43207W        W11612  23.898  36.924   3.211
43208W        W11613  22.987  13.772   5.058
43209W        W11614   5.288  11.051   0.843
43210W        W11615   8.290  18.274   0.202
43211W        W11616  23.041  41.935   0.350
43212W        W11617  20.124  18.212   5.140
43213W        W11618  36.415   9.372  11.709
43214W        W11619   3.013   8.345  14.767
43215W        W11620  22.435  12.055   0.388
43216W        W11621  17.692  33.455  12.503
43217W        W11622  25.399   9.903  11.502
43218W        W11623  44.709   5.728  12.087
43219W        W11624  34.170  29.788   3.956
43220W        W11625  28.098  38.604  11.246
43221W        W11626  40.578  25.663   2.729
43222W        W11627  10.436  19.318   0.323
43223W        W11628  25.111  42.172   1.347
43224W        W11629  11.547  31.077   3.245
43225W        W11630  40.628  31.562  14.083
43226W        W11631   2.472  40.700  14.775
43227W        W11632   3.321  28.950   2.268
43228W        W11633  14.343  38.031   1.808
43229W        W11634  16.867   0.712  12.427
43230W        W11635  18.185  13.930   2.869
43231W        W11636   8.414  21.502  10.762
43232W        W11637  30.035  13.691   3.527
43233W        W11638  36.015   1.675  11.208
43234W        W11639  24.796  39.811  12.825
43235W        W11640  19.239  41.054  13.987
43236W        W11641  13.008   2.801  12.858
43237W        W11642  27.689  10.643  13.140
43238W        W11643  34.027  21.784  13.323
43239W        W11644  39.544  32.604  12.786
43240W        W11645  30.393  26.460   2.708
43241W        W11646  13.750  26.103   3.681
43242W        W11647  14.775   0.208   1.772
43243W        W11648  40.040   2.444   2.431
43244W        W11649  17.566  22.025   2.710
43245W        W11650  35.463   2.302   1.793
43246W        W11651  33.619  43.758   1.933
43247W        W11652  17.178  29.098  14.334
43248W        W11653   6.370  43.295   4.754
43249W        W11654  27.587  20.813  14.320
43250W        W11655  14.593  32.471   2.141
43251W        W11656  10.423  21.486  13.872
43252W        W11657  21.028   6.786   4.537
43253W        W11658  19.768   6.813  13.511
43254W        W11659  17.695  32.948  12.556
43255W        W11660  31.886  21.470   0.981
43256W        W11661  11.914  35.346  14.029
43257W        W11662  15.248  27.184  10.555
43258W        W11663  44.214  28.011  14.432
43259W        W11664  14.223  30.670   0.196
43260W        W11665  29.269  22.291   5.010
43261W        W11666   4.794  26.050  14.232
43262W        W11667  44.989  32.258  11.487
43263W        W11668  41.501   6.369  12.145
43264W        W11669  29.068  16.042   4.490
43265W        W11670   4.245  16.847  13.290
43266W        W11671  31.577   3.230   0.442
43267W        W11672  10.170  24.166  13.993
43268W        W11673  36.127   4.185   0.435
43269W        W11674  11.786   7.679  13.385
43270W        W11675   0.321  18.791  11.000
43271W        W11676  26.028  43.065   2.729
43272W        W11677   3.290  34.139  12.520
43273W        W11678  42.209   4.048  14.312
43274W        W11679  36.849  31.972   4.553
43275W        W11680  34.910   7.550  11.757
43276W        W11681  12.400  31.275  10.972
43277W        W11682   7.778  39.532  11.449
43278W        W11683   6.806  44.249   0.094
43279W        W11684  40.484   9.969   0.257
43280W        W11685   6.347  18.376   3.360
43281W        W11686   9.452   5.228   2.335
43282W        W11687  28.480  18.652  14.603
43283W        W11688  28.440  22.295   2.763
43284W        W11689  11.710  37.674   1.791
43285W        W11690  42.400   8.571   5.025
43286W        W11691  25.012  11.819   3.179
43287W        W11692   2.972   8.636   2.908
43288W        W11693  44.530  36.460  11.719
43289W        W11694  26.109  16.819   2.800
43290W        W11695   9.124  30.087  11.448
43291W        W11696  21.013  17.014  11.990
43292W        W11697   1.152  34.812  14.963
43293W        W11698  19.241  43.367   1.420
43294W        W11699  18.164   6.743   2.652
43295W        W11700  38.948  16.153   1.635
43296W        W11701  41.337  18.747   1.701
43297W        W11702  19.752  16.109  14.903
43298W        W11703  11.841   4.822   4.124
43299W        W11704  41.489   1.353  11.816
43300W        W11705  42.659  36.964  12.666
43301W        W11706  27.001  43.369   1.916
43302W        W11707  14.144  24.060   4.055
43303W        W11708  12.180   3.953  10.907
43304W        W11709  26.449  41.034   4.645
43305W        W11710   8.324  40.431   0.878
43306W        W11711   6.173  13.868   4.782
43307W        W11712  11.402  31.586   4.167
43308W        W11713   4.527   8.687  12.503
43309W        W11714   3.556   3.331  11.960
43310W        W11715   7.279  10.661   0.262
43311W        W11716  33.130  16.030  12.627
43312W        W11717  21.576  14.447  13.312
43313W        W11718  39.839  26.541   4.463
43314W        W11719   9.230  29.064  14.584
43315W        W11720  25.971  20.184  14.259
43316W        W11721  38.049  19.728   2.823
43317W        W11722  41.611  43.489   0.403
43318W        W11723  15.517  20.284   3.730
43319W        W11724  19.249  41.824   1.280
43320W        W11725   0.866  27.992  11.468
43321W        W11726  27.561  21.770   3.583
43322W        W11727  28.682  19.557  12.524
43323W        W11728  23.497  25.906   2.855
43324W        W11729  22.938  32.446   4.540
43325W        W11730  41.843  29.140  12.585
43326W        W11731  23.895  28.422  11.514
43327W        W11732  38.966  20.278  10.892
43328W        W11733   8.274  32.522  13.983
43329W        W11734   5.803  33.619  13.045
43330W        W11735  44.229  18.311  14.629
43331W        W11736  34.401   7.433  12.755
43332W        W11737   5.292  32.045  14.253
43333W        W11738  11.591  13.095   5.001
43334W        W11739   0.315  20.474   0.914
43335W        W11740  39.183  40.634   1.214
43336W        W11741   1.894  14.711   4.291
43337W        W11742  26.232  29.569   1.370
43338W        W11743  40.448  21.432   2.809
43339W        W11744  33.923  21.967   1.588
43340W        W11745   6.616  34.269  11.196
43341W        W11746  23.253   4.228   3.765
43342W        W11747  20.766  23.727   2.281
43343W        W11748  22.534  30.093   9.856
43344W        W11749  14.311  32.286  10.422
43345W        W11750  43.847  40.815  13.906
43346W        W11751  30.967  10.557  11.151
43347W        W11752  34.881  43.199  14.988
43348W        W11753  16.533  43.830   4.853
43349W        W11754  29.521  14.966   0.788
43350W        W11755  32.096  11.255   1.917
43351W        W11756  10.270   9.830  13.057
43352W        W11757   6.658  37.421  12.463
43353W        W11758  28.820   3.230  13.077
43354W        W11759  10.893  29.665  12.613
43355W        W11760  23.149  43.903   3.670
43356W        W11761   7.191  28.118   3.361
43357W        W11762   5.651   3.871  14.974
43358W        W11763  42.492   6.562  11.468
43359W        W11764  42.540  16.637  13.466
43360W        W11765  31.341  31.850  11.098
43361W        W11766   3.794  10.779   1.840
43362W        W11767  18.254  25.090   0.441
43363W        W11768  36.948  13.247  13.448
43364W        W11769  35.037   0.036  10.488
43365W        W11770  26.385  29.047  12.815
43366W        W11771  26.922  19.845   0.831
43367W        W11772  28.989  15.570   3.724
43368W        W11773   7.821  42.733  14.958
43369W        W11774   1.777  22.063  13.355
43370W        W11775  27.594  12.113   2.244
43371W        W11776  42.879  22.041   0.132
43372W        W11777  21.324  15.242   2.263
43373W        W11778   4.824  16.531  12.498
43374W        W11779   2.491  28.988   1.705
43375W        W11780  26.570   5.280   0.500
43376W        W11781  35.988  35.511   0.422
43377W        W11782  14.551   7.242  12.021
43378W        W11783   0.957  22.093   1.365
43379W        W11784  22.536  17.886  11.730
43380W        W11785  37.006  13.389   2.582
43381W        W11786  14.038  37.333  10.285
43382W        W11787  29.703  24.718   1.892
43383W        W11788   8.378  22.288   3.443
43384W        W11789  17.642  15.716   2.393
43385W        W11790  40.765  22.319  14.370
43386W        W11791  35.599  15.056  12.471
43387W        W11792  27.362   1.178   0.315
43388W        W11793  28.952  44.143  11.197
43389W        W11794  28.900  35.570   1.464
43390W        W11795  28.940  32.147   0.912
43391W        W11796  24.236   0.772   1.385
43392W        W11797  37.456  15.588  13.807
43393W        W11798  21.951   0.750  11.589
43394W        W11799   4.453  16.049   3.314
43395W        W11800  17.717  21.452   4.586
43396W        W11801  23.080  43.280   4.612
43397W        W11802   7.410   2.253   1.778
43398W        W11803   1.968   3.956  11.585
43399W        W11804   8.099  12.323   4.898
43400W        W11805   0.057   6.797   1.857
43401W        W11806  24.993   0.552   2.105
43402W        W11807   4.362  41.528   1.749
43403W        W11808  33.461   0.934   3.126
43404W        W11809   6.259  29.947  11.504
43405W        W11810  17.853  14.298  11.535
43406W        W11811  31.961  40.369   4.648
43407W        W11812  28.159  42.871  13.569
43408W        W11813  43.965  21.641  11.699
43409W        W11814  25.997  33.398  12.470
43410W        W11815  32.479  25.774   0.478
43411W        W11816   1.484  32.936   4.578
43412W        W11817  42.941  41.147  12.619
43413W        W11818   2.964  42.045  12.201
43414W        W11819   0.033  25.182  12.090
43415W        W11820  29.134  39.557  10.897
43416W        W11821  29.543  16.245  11.148
43417W        W11822   5.398  40.066   3.705
43418W        W11823  18.489  39.441  10.696
43419W        W11824   7.719  29.620  12.607
43420W        W11825   3.286   3.882  14.093
43421W        W11826  15.748  24.383  12.960
43422W        W11827  38.394   7.757  10.936
43423W        W11828  12.835   9.795   3.679
43424W        W11829  31.310  12.635   2.608
43425W        W11830  16.111  25.958  13.676
43426W        W11831  29.682  40.113  13.873
43427W        W11832  41.964  39.737   2.704
43428W        W11833   0.320  12.089  13.569
43429W        W11834   0.275  40.955  12.116
43430W        W11835  11.882  34.529  14.633
43431W        W11836   7.585  17.372   5.066
43432W        W11837  17.829  11.080  14.822
43433W        W11838   5.073  37.502   5.076
43434W        W11839   9.780  19.615  14.448
43435W        W11840  39.274  40.242  13.820
43436W        W11841  24.157   2.698   0.320
43437W        W11842   7.166   2.169  11.986
43438W        W11843  26.116  27.580   2.147
43439W        W11844  19.736  24.147  13.423
43440W        W11845  36.494  40.243  10.800
43441W        W11846  26.147  36.021   0.071
43442W        W11847  35.396  13.125   4.425
43443W        W11848  33.822  21.187   2.824
43444W        W11849   5.839  36.677  11.570
43445W        W11850  41.708   1.803   4.118
43446W        W11851  44.075  10.390  10.125
43447W        W11852  43.469  26.857   1.453
43448W        W11853   8.237  41.337   3.130
43449W        W11854  17.587  26.672  12.090
43450W        W11855   5.725  15.630  11.852
43451W        W11856  27.496   3.755   0.319
43452W        W11857  16.165  26.927  12.552
43453W        W11858  17.072  25.689   4.334
43454W        W11859  40.758  28.986  11.832
43455W        W11860  16.958   6.992  11.367
43456W        W11861  15.275   6.422  12.132
43457W        W11862  26.846   5.301  10.576
43458W        W11863  42.880   7.404   2.815
43459W        W11864   4.893  11.111   1.680
43460W        W11865  29.994  27.440   2.074
43461W        W11866  15.262   1.250   5.147
43462W        W11867  13.573  21.335  12.592
43463W        W11868  23.355  34.180   1.987
43464W        W11869  27.559  29.068  11.722
43465W        W11870  11.757  35.537   0.908
43466W        W11871  38.882   6.476   1.405
43467W        W11872  12.262  30.066  13.864
43468W        W11873  13.359  14.935  13.982
43469W        W11874  27.979  20.768  12.014
43470W        W11875   3.816  23.645  11.524
43471W        W11876   9.140  23.232  13.879
43472W        W11877  40.731   2.564   5.349
43473W        W11878  32.936  28.394   1.261
43474W        W11879  42.060  38.605  11.333
43475W        W11880  26.687  36.461   1.432
43476W        W11881  40.943   8.784  11.166
43477W        W11882  27.149  25.269   4.396
43478W        W11883   1.301  12.305  13.923
43479W        W11884  43.970  10.314  10.617
43480W        W11885  39.786   3.977  14.341
43481W        W11886   3.801  16.732  14.028
43482W        W11887  29.210  10.723   0.930
43483W        W11888   9.199  23.544  14.483
43484W        W11889  29.522  32.194   1.361
43485W        W11890  10.667  20.694   2.215
43486W        W11891  33.854  17.451  12.446
43487W        W11892  30.690  15.692   0.835
43488W        W11893  39.472   2.861   0.287
43489W        W11894  41.437   0.416  14.868
43490W        W11895  33.494   6.842  10.157
43491W        W11896  43.729   3.843  14.426
43492W        W11897   5.906  35.515   2.840
43493W        W11898   3.309   9.930   3.920
43494W        W11899  34.155   1.421   2.853
43495W        W11900  19.279  40.810  14.443
43496W        W11901   8.664   2.148  12.402
43497W        W11902   8.385  36.860  13.951
43498W        W11903  13.657  42.879   1.440
43499W        W11904   7.742  15.376  10.693
43500W        W11905  44.131  19.076   3.692
43501W        W11906  38.630  31.150  13.648
43502W        W11907  27.659   9.133   1.265
43503W        W11908  16.718  11.885  14.780
43504W        W11909  39.274  30.602  14.339
43505W        W11910  44.918  20.515   0.165
43506W        W11911  17.553  16.874   3.784
43507W        W11912  38.292  41.304   1.953
43508W        W11913  43.307  26.951  12.317
43509W        W11914  16.661  33.932   4.097
43510W        W11915  36.129  21.593  11.159
43511W        W11916  21.909  10.135  10.705
43512W        W11917  42.687  36.345  12.276
43513W        W11918  24.616   6.015   2.112
43514W        W11919  17.376  42.768   5.090
43515W        W11920   0.429  44.541  14.351
43516W        W11921   4.680  24.008   4.618
43517W        W11922  26.099  29.428  13.827
43518W        W11923   9.584   7.856   3.922
43519W        W11924  17.028  26.356  12.121
43520W        W11925  12.912   6.531   0.550
43521W        W11926  35.883  34.667  11.939
43522W        W11927  20.335   9.453  13.513
43523W        W11928  37.825  10.346   0.254
43524W        W11929  24.124   5.762   4.781
43525W        W11930   5.988   4.702   3.112
43526W        W11931  16.150  28.410  11.630
43527W        W11932   9.138   0.033  11.587
43528W        W11933   7.920  22.054  14.280
43529W        W11934   9.740  39.402  12.910
43530W        W11935  14.182   3.814   3.559
43531W        W11936  40.333   4.201  11.947
43532W        W11937  24.575  35.116  14.774
43533W        W11938   5.621   3.633   2.390
43534W        W11939  35.321  41.486   2.775
43535W        W11940  18.851  10.186  11.968
43536W        W11941   2.312  20.120  12.188
43537W        W11942  25.196  41.380  11.964
43538W        W11943  17.670   3.362  14.598
43539W        W11944  22.618  11.177   4.706
43540W        W11945  33.483  23.038   1.950
43541W        W11946  36.016  33.861   2.603
43542W        W11947   3.599  24.301  10.915
43543W        W11948   3.200  44.854  14.758
43544W        W11949  19.709   1.753   3.118
43545W        W11950  42.554  40.519  13.056
43546W        W11951  21.207  29.844   4.197
43547W        W11952  17.429   9.836  14.389
43548W        W11953   6.638  11.246   2.862
43549W        W11954  20.092  21.105   2.141
43550W        W11955   7.732  44.525   4.076
43551W        W11956   0.675   5.224  12.523
43552W        W11957  11.316  10.794  14.540
43553W        W11958  11.339   5.324  13.167
43554W        W11959   6.925  13.697  12.895
43555W        W11960  34.457  30.708   4.210
43556W        W11961  14.840   9.142  10.548
43557W        W11962  41.140  25.385   1.173
43558W        W11963  12.354  17.577  14.967
43559W        W11964   8.199   1.340  12.612
43560W        W11965  13.728  40.647  12.507
43561W        W11966   1.640  20.335  14.489
43562W        W11967  22.610  42.186  13.925
43563W        W11968  28.246  41.947   9.850
43564W        W11969  20.867  38.405  11.097
43565W        W11970  31.950  26.133  12.967
43566W        W11971  40.793  29.054   0.137
43567W        W11972  17.856  37.448   3.640
43568W        W11973   6.358  32.930   4.728
43569W        W11974  20.610  23.040   3.936
43570W        W11975  36.343  36.929   3.655
43571W        W11976  37.190  37.805  10.731
43572W        W11977  14.365   8.748   0.786
43573W        W11978  22.130  10.293   1.339
43574W        W11979  28.517  31.248  13.483
43575W        W11980  39.398  28.072  11.573
43576W        W11981  17.227  13.333  10.425
43577W        W11982  34.938  20.562   1.406
43578W        W11983  39.873  25.198   4.455
43579W        W11984   2.712  18.156  14.051
43580W        W11985   8.172   1.352   4.213
43581W        W11986  32.505   3.100   1.768
43582W        W11987  35.054  43.085  10.004
43583W        W11988   8.363  11.240  11.511
43584W        W11989  39.436  39.317  10.704
43585W        W11990  39.269   2.225   5.001
43586W        W11991  41.145  23.471   0.101
43587W        W11992   7.676   5.940   0.937
43588W        W11993  32.139  16.662   1.134
43589W        W11994   0.549  29.177   3.033
43590W        W11995  41.573   4.104  14.835
43591W        W11996  37.237  34.030  12.063
43592W        W11997  17.187  16.995   1.251
43593W        W11998   6.454  29.884  10.677
43594W        W11999  26.690  33.158   0.007
43595W        W12000  27.039   1.289  12.919
43596W        W12001  12.328  43.853   1.978
43597W        W12002  43.418  22.447  10.855
43598W        W12003  28.852  37.675   1.817
43599W        W12004  23.556  18.777  14.796
43600W        W12005  25.060  21.185  14.580
43601W        W12006  29.769  12.638  13.014
43602W        W12007  11.275   7.932   0.307
43603W        W12008  25.522  32.555  13.389
43604W        W12009   2.176   5.821  14.877
43605W        W12010  21.025  24.134   1.623
43606W        W12011  40.977   1.564   2.810
43607W        W12012  44.549  38.841   2.259
43608W        W12013  38.618  25.967   1.184
43609W        W12014  22.335  24.829   0.442
43610W        W12015  10.725   1.518  14.290
43611W        W12016  44.343  17.810  14.872
43612W        W12017   2.968  23.672   2.619
43613W        W12018  21.843  23.272  14.362
43614W        W12019  23.253  31.189   3.858
43615W        W12020  20.398  41.435   0.999
43616W        W12021  41.241  18.628  11.536
43617W        W12022  15.005   4.999   3.289
43618W        W12023   0.100  34.862   4.735
43619W        W12024  34.609   6.961   0.846
43620W        W12025  42.309   7.710  12.972
43621W        W12026  31.520  31.052  11.467
43622W        W12027   2.965   9.463  10.130
43623W        W12028  44.477  27.911   1.353
43624W        W12029  24.703  40.725   4.768
43625W        W12030   5.249  17.527   0.834
43626W        W12031  13.928   2.481  12.332
43627W        W12032   6.269  42.035   0.368
43628W        W12033  36.278  44.268   1.946
43629W        W12034  42.779  33.848  14.479
43630W        W12035  35.892  15.187   1.621
43631W        W12036  33.435  32.706   2.934
43632W        W12037  32.641  18.773  13.760
43633W        W12038  39.232  41.015  10.793
43634W        W12039  22.687  22.238   0.446
43635W        W12040  12.792  22.568   0.005
43636W        W12041  39.303  17.020  14.027
43637W        W12042  19.485  43.023   0.423
43638W        W12043  15.561  33.448   0.560
43639W        W12044  24.564   0.303   0.809
43640W        W12045   9.294   6.637  10.727
43641W        W12046  43.994   5.305   0.311
43642W        W12047  14.659  19.475  11.558
43643W        W12048  31.926  23.613  10.420
43644W        W12049   7.720  10.836   0.912
43645W        W12050  43.800  21.060  14.996
43646W        W12051  15.734  44.004   0.429
43647W        W12052   2.889  33.002   1.461
43648W        W12053   5.101  20.837  14.772
43649W        W12054  16.380  28.483   1.721
43650W        W12055  15.524   9.341  13.493
43651W        W12056   9.234  20.692  14.865
43652W        W12057  24.775   7.703  14.497
43653W        W12058  22.535  43.252   4.742
43654W        W12059  33.535  12.796   3.771
43655W        W12060  30.305  38.528   3.342
43656W        W12061  35.399  35.983   0.371
43657W        W12062  41.344  26.580  12.956
43658W        W12063  15.289  31.068   0.218
43659W        W12064  14.758  27.817  13.390
43660W        W12065  17.589  27.428  11.516
43661W        W12066  30.432  44.228  12.200
43662W        W12067  25.983  37.572   2.762
43663W        W12068  35.903  30.878  10.564
43664W        W12069  37.822  44.394  11.804
43665W        W12070  36.861  44.819  14.999
43666W        W12071  26.435  42.745  12.029
43667W        W12072   0.787  42.351  13.479
43668W        W12073  37.617   3.072  11.607
43669W        W12074  25.184   2.020  11.092
43670W        W12075  39.917  36.633   2.430
43671W        W12076  10.119   1.710  14.750
43672W        W12077  18.758   0.498  13.059
43673W        W12078  44.484   0.789  14.693
43674W        W12079  38.763  10.368   2.701
43675W        W12080   7.198  31.738  14.625
43676W        W12081  11.215  32.562  13.807
43677W        W12082  42.569  25.730  13.789
43678W        W12083  26.492   7.157   4.599
43679W        W12084  17.115  20.965   4.287
43680W        W12085  20.869  18.587  13.537
43681W        W12086   9.436  19.276   0.411
43682W        W12087  40.306  15.446  10.742
43683W        W12088  18.621  33.369  13.481
43684W        W12089  38.065   2.872  11.472
43685W        W12090   2.800  29.297  13.023
43686W        W12091  42.090  21.245  11.104
43687W        W12092   9.985  20.257  11.118
43688W        W12093  29.792  41.408  12.538
43689W        W12094  37.884  13.320   0.586
43690W        W12095  44.823  43.524   0.966
43691W        W12096  44.986  13.247   2.118
43692W        W12097  39.088   3.929   4.496
43693W        W12098  41.462  40.639  13.975
43694W        W12099  35.666   9.220   2.154
43695W        W12100  15.178  15.783   2.847
43696W        W12101  43.545   8.257  11.680
43697W        W12102   7.021  25.162  11.246
43698W        W12103  14.893  29.263  12.708
43699W        W12104  36.942   7.325   0.920
43700W        W12105  28.028  31.947   1.351
43701W        W12106  29.176  26.681   4.567
43702W        W12107   7.212   4.715  13.822
43703W        W12108  36.357  34.366  14.464
43704W        W12109  10.680  27.141   2.532
43705W        W12110  12.639  11.746  14.099
43706W        W12111  13.744  43.797   1.284
43707W        W12112  31.107   9.203   1.903
43708W        W12113  38.969  10.270  10.703
43709W        W12114  14.322  29.802   4.953
43710W        W12115  16.988   5.930   2.850
43711W        W12116  39.100  42.760   1.694
43712W        W12117  43.026  32.173   4.467
43713W        W12118  23.867  24.555  14.500
43714W        W12119  22.753  21.422  12.631
43715W        W12120  12.817   5.199  11.997
43716W        W12121   0.196  10.585  11.150
43717W        W12122  36.803   4.255   2.099
43718W        W12123  39.112  28.424  14.804
43719W        W12124   6.318  40.818   4.152
43720W        W12125   9.510   6.257   1.130
43721W        W12126   5.057  37.955   0.425
43722W        W12127  16.121  27.471   1.768
43723W        W12128   1.507  43.460   2.826
43724W        W12129  38.384  21.746   3.114
43725W        W12130  38.415  32.941  13.549
43726W        W12131  27.361  44.818  11.571
43727W        W12132  26.541   6.191  12.406
43728W        W12133  30.496   2.036   3.596
43729W        W12134  19.566  14.249   0.910
43730W        W12135   8.624  43.768  13.597
43731W        W12136   9.627  28.450  12.045
43732W        W12137  40.792  35.929   3.701
43733W        W12138   1.044  23.245  13.269
43734W        W12139   9.332  11.867   0.197
43735W        W12140  24.034  42.882   1.284
43736W        W12141  12.852  14.060   4.582
43737W        W12142  40.461  15.408   4.183
43738W        W12143   8.068  10.558   3.268
43739W        W12144  43.937  33.663   2.349
43740W        W12145  23.087   4.278  10.728
43741W        W12146  32.913   7.276   2.394
43742W        W12147  10.910   4.460   3.828
43743W        W12148  41.715   2.339  14.387
43744W        W12149  41.547   6.444   1.823
43745W        W12150   6.208  43.857   1.958
43746W        W12151   6.565  42.528   3.830
43747W        W12152  39.060  23.676  11.676
43748W        W12153  20.189   9.564  14.380
43749W        W12154  23.360  33.002   2.368
43750W        W12155   2.888  34.045   3.935
43751W        W12156  18.897  19.805   1.725
43752W        W12157  22.005  24.458   0.281
43753W        W12158  44.483  17.430  12.359
43754W        W12159  19.117  26.685  12.895
43755W        W12160   5.338  38.898  13.376
43756W        W12161   2.255   0.338  12.148
43757W        W12162   1.245  15.271  13.887
43758W        W12163  12.738  13.688  13.086
43759W        W12164  34.987  26.590   2.353
43760W        W12165  28.134  13.076   1.241
43761W        W12166   2.936   8.605  11.958
43762W        W12167   0.453  21.163  14.084
43763W        W12168  18.452  15.909   1.875
43764W        W12169  21.638   7.722  13.154
43765W        W12170  40.799   7.900   0.609
43766W        W12171  35.203   9.336   0.903
43767W        W12172  30.811  44.462   0.226
43768W        W12173   1.340  12.339  10.460
43769W        W12174   9.667  22.813   4.170
43770W        W12175  30.036  44.338   0.943
43771W        W12176  29.591  38.877  10.597
43772W        W12177  13.687  39.332  13.879
43773W        W12178  18.828   8.463  13.314
43774W        W12179  38.923   6.926  13.370
43775W        W12180   9.725   1.001  13.033
43776W        W12181  41.096  37.021   3.693
43777W        W12182  44.379   6.413  10.067
43778W        W12183  22.634  18.636   1.133
43779W        W12184   3.400  21.639   1.468
43780W        W12185  13.102  33.774   0.254
43781W        W12186  19.712  20.624  13.292
43782W        W12187  26.110  33.106   0.220
43783W        W12188  33.008   3.285   2.784
43784W        W12189  20.140  12.245  13.311
43785W        W12190  27.726  14.157   1.271
43786W        W12191  21.008  17.049  13.581
43787W        W12192   3.491   7.740  14.559
43788W        W12193   9.284  12.804  13.734
43789W        W12194  38.282  10.796   0.961
43790W        W12195  41.898  25.685   0.891
43791W        W12196  22.461   2.483   0.053
43792W        W12197  28.427  13.317   4.123
43793W        W12198  10.273  10.794  11.170
43794W        W12199  16.570  17.782  14.248
43795W        W12200  20.510  38.011   3.192
43796W        W12201  22.070  39.873   1.835
43797W        W12202  22.380  19.363  12.309
43798W        W12203  34.391  22.786   4.928
43799W        W12204   7.104  30.396   1.855
43800W        W12205  41.400   1.779  13.844
43801W        W12206  36.904  23.198  12.943
43802W        W12207   2.737  15.996   2.886
43803W        W12208  41.334  31.506   0.277
43804W        W12209  10.670  22.695  11.679
43805W        W12210  25.174   1.127   0.477
43806W        W12211  39.797  36.816  11.994
43807W        W12212  17.287  42.833  12.433
43808W        W12213  44.341  17.913  12.411
43809W        W12214  13.605  42.679  11.564
43810W        W12215  20.192   8.461   0.254
43811W        W12216  11.987  39.675  12.828
43812W        W12217  37.295  34.114   1.356
43813W        W12218   3.434  12.345  14.898
43814W        W12219   8.569  32.970  13.997
43815W        W12220   7.992  12.309   1.856
43816W        W12221   8.409  31.615  12.845
43817W        W12222  16.032  25.482  11.754
43818W        W12223  40.437  35.890   0.348
43819W        W12224  41.639  41.880  13.678
43820W        W12225  12.243   5.582   0.265
43821W        W12226  36.884  41.378   0.075
43822W        W12227  25.196  15.881   0.424
43823W        W12228  33.359  31.422  13.375
43824W        W12229  22.783  17.295   3.117
43825W        W12230  36.204   9.334   0.771
43826W        W12231  33.878  15.548  14.209
43827W        W12232   7.169  30.517   2.706
43828W        W12233  21.833  17.389  10.841
43829W        W12234  26.656  41.487  14.302
43830W        W12235  14.318  26.186   1.892
43831W        W12236   5.358   7.463   5.031
43832W        W12237  24.995   3.926  14.360
43833W        W12238  36.042  24.493   1.483
43834W        W12239  39.440  23.592   1.451
43835W        W12240   4.194   9.218   1.313
43836W        W12241  34.197  32.131  10.790
43837W        W12242  37.505   9.223   4.285
43838W        W12243  24.002   7.479   5.066
43839W        W12244  10.616  25.182   2.419
43840W        W12245   3.701  42.005  12.666
43841W        W12246   8.835  11.153   1.883
43842W        W12247  27.110  19.077  13.885
43843W        W12248  12.516   9.165   4.469
43844W        W12249   6.931  28.116   4.232
43845W        W12250  34.809  23.980   0.204
43846W        W12251  11.927  17.170   2.126
43847W        W12252  15.873  14.951   3.699
43848W        W12253  27.728  23.579   2.658
43849W        W12254   3.474  23.480   1.760
43850W        W12255   7.218  42.802   4.334
43851W        W12256   1.218   4.269  11.895
43852W        W12257  28.148  30.711   1.940
43853W        W12258  31.874   3.260   1.844
43854W        W12259  34.905  44.067   3.154
43855W        W12260  31.962  36.360   2.617
43856W        W12261   0.607  32.608  13.660
43857W        W12262  42.285  35.802  10.701
43858W        W12263  44.960  31.205  13.258
43859W        W12264  43.825  36.529   1.743
43860W        W12265   1.961  11.134   4.232
43861W        W12266  10.245  28.889  14.980
43862W        W12267  30.484  36.323  13.358
43863W        W12268  25.184   3.326  11.226
43864W        W12269  44.400  11.821   3.762
43865W        W12270  44.541  25.638  14.827
43866W        W12271   9.218   1.069  13.005
43867W        W12272  22.767   9.723   3.301
43868W        W12273  19.612  11.765   2.935
43869W        W12274   3.132   5.857   3.293
43870W        W12275  11.283  15.106  11.958
43871W        W12276  44.747  32.974  12.846
43872W        W12277  28.257  14.148   4.997
43873W        W12278   2.221  13.150   1.355
43874W        W12279   1.493   2.830   0.204
43875W        W12280  42.384  32.464   2.289
43876W        W12281  40.853  27.739   0.845
43877W        W12282   5.346  21.338   0.263
43878W        W12283   5.431   5.778   1.577
43879W        W12284  15.684  36.909   0.110
43880W        W12285   6.167  24.585  12.117
43881W        W12286  44.578  33.853  12.454
43882W        W12287  37.725  43.806  14.046
43883W        W12288  10.931  31.507   2.302
43884W        W12289  22.625  39.367   0.343
43885W        W12290  27.423  26.180  12.882
43886W        W12291  28.089  39.821  13.750
43887W        W12292  12.857  10.729   1.683
43888W        W12293  38.513  11.174   3.736
43889W        W12294   8.645  38.917   3.816
43890W        W12295   1.239  14.162  11.196
43891W        W12296   8.595  36.525   3.326
43892W        W12297  20.519  24.760   3.192
43893W        W12298  41.776  25.977  11.675
43894W        W12299  37.074  17.899  14.341
43895W        W12300  17.635   8.391   0.925
43896W        W12301   7.836  21.760   2.351
43897W        W12302  36.826  34.715  13.959
43898W        W12303   6.378  15.065  10.690
43899W        W12304   1.233  17.212   2.683
43900W        W12305  21.074  22.834   0.286
43901W        W12306   2.765  18.054  12.715
43902W        W12307  35.914  17.911   3.705
43903W        W12308  42.501  40.433   4.667
43904W        W12309   8.292  19.589  14.460
43905W        W12310  21.834  32.120  12.947
43906W        W12311  30.204  39.911   2.732
43907W        W12312  37.552  15.525   1.352
43908W        W12313  22.144  15.500  12.262
43909W        W12314  25.687  43.508   1.847
43910W        W12315  44.713  12.137   1.688
43911W        W12316  34.123  34.700   4.459
43912W        W12317  18.992  16.618  13.837
43913W        W12318  41.493  31.210   1.267
43914W        W12319  44.230  24.243  11.594
43915W        W12320  40.968  18.141   4.585
43916W        W12321  20.006  31.125   0.701
43917W        W12322  26.015  21.966   2.496
43918W        W12323  43.990  39.375   2.174
43919W        W12324  21.691  33.466   3.889
43920W        W12325   2.598  28.016  14.048
43921W        W12326  31.355  44.844   3.644
43922W        W12327   2.258  15.950  14.132
43923W        W12328   8.153   0.857  11.453
43924W        W12329  21.191  39.631   4.806
43925W        W12330  17.365  41.204   3.425
43926W        W12331   6.402   6.358   4.594
43927W        W12332   9.188  31.167  14.327
43928W        W12333  35.176  32.578   0.724
43929W        W12334  25.245   8.853  10.968
43930W        W12335  25.542   9.182   4.496
43931W        W12336  41.021  36.028   2.704
43932W        W12337   4.358  10.560   1.099
43933W        W12338   4.344  43.696  11.153
43934W        W12339  29.493  29.857  11.234
43935W        W12340   5.802   4.745   4.050
43936W        W12341  18.192   5.152  12.469
43937W        W12342  28.200  23.547   3.841
43938W        W12343  29.705   4.328  12.141
43939W        W12344  16.298   7.074   4.134
43940W        W12345  43.960  17.910   1.818
43941W        W12346  26.138  18.580  13.570
43942W        W12347   1.271  28.114  14.281
43943W        W12348  24.264  44.294   1.328
43944W        W12349  40.935  34.300   2.544
43945W        W12350  38.395   9.461  10.847
43946W        W12351   6.332   2.061   2.828
43947W        W12352  19.235  10.004   4.562
43948W        W12353  36.532  28.937   0.841
43949W        W12354   3.299   5.228  11.154
43950W        W12355  36.491  19.698  14.839
43951W        W12356  17.183  20.659  13.939
43952W        W12357   1.538   2.284   1.841
43953W        W12358  13.722  44.882   2.645
43954W        W12359  28.021  44.541   3.319
43955W        W12360  38.074   9.830  10.645
43956W        W12361  32.765   9.610  14.853
43957W        W12362  12.198  39.618  12.377
43958W        W12363  44.562   1.418   0.326
43959W        W12364  12.184  12.922   0.812
43960W        W12365  38.928  38.888  11.488
43961W        W12366   0.151  38.780   0.326
43962W        W12367  21.573  37.157  10.862
43963W        W12368  18.071  20.064   3.549
43964W        W12369  12.742  37.627   3.878
43965W        W12370  42.091  14.774  13.981
43966W        W12371  12.712  19.413  13.204
43967W        W12372  38.967  20.138   0.531
43968W        W12373  30.069  37.260   4.546
43969W        W12374  10.409  20.012  11.370
43970W        W12375  21.087  44.677   4.719
43971W        W12376  17.202  25.031  10.758
43972W        W12377  11.107  31.925  10.602
43973W        W12378  33.225   3.266   5.051
43974W        W12379  27.470  38.861  12.322
43975W        W12380  44.467  37.016   3.228
43976W        W12381  11.667   3.801  12.616
43977W        W12382  17.747  30.127   1.921
43978W        W12383  39.978   1.426  13.640
43979W        W12384  36.950  26.567   1.657
43980W        W12385  14.494  29.276  11.098
43981W        W12386  38.564  14.835   1.198
43982W        W12387  34.035  24.553   1.294
43983W        W12388  39.500  27.754  10.255
43984W        W12389   9.376  28.676  10.749
43985W        W12390  14.742  43.904   2.323
43986W        W12391  32.288   5.867  11.912
43987W        W12392  14.460   0.465   3.576
43988W        W12393  15.305  11.223  10.771
43989W        W12394  42.555  38.593  11.177
43990W        W12395   8.708   4.507   1.358
43991W        W12396  35.849  24.080  13.112
43992W        W12397  34.677  20.229   1.760
43993W        W12398  10.640  43.770  14.999
43994W        W12399  39.337  11.775  14.417
43995W        W12400   5.262   5.526  14.789
43996W        W12401  38.851  26.664  13.946
43997W        W12402  29.614  25.522   3.172
43998W        W12403   5.051   5.247   1.263
43999W        W12404  14.511  44.761  14.752
44000W        W12405  38.972  17.582   1.370
44001W        W12406  28.387  16.826   3.681
44002W        W12407  30.446  38.374  10.756
44003W        W12408  10.872  11.774  14.841
44004W        W12409  27.747  11.200  12.372
44005W        W12410  13.267  39.079   2.715
44006W        W12411  27.633  13.315  12.382
44007W        W12412   3.002  39.849   4.111
44008W        W12413  22.483  25.152  13.373
44009W        W12414  42.852  25.509   0.513
44010W        W12415  42.410  24.864  11.068
44011W        W12416  13.162  11.821  11.972
44012W        W12417  29.143  29.748  12.126
44013W        W12418  40.767   1.492  14.910
44014W        W12419  34.911   9.665  11.582
44015W        W12420  27.968   7.691   3.678
44016W        W12421  31.066  40.494   0.430
44017W        W12422  41.819   4.421   0.746
44018W        W12423  14.288  14.776   4.287
44019W        W12424  11.710  41.544  11.114
44020W        W12425  40.049  18.621   4.184
44021W        W12426  30.504  37.823  14.412
44022W        W12427  10.059   6.689  12.498
44023W        W12428   8.164  24.191  13.800
44024W        W12429  19.562  10.342   5.016
44025W        W12430   7.760  24.676  10.723
44026W        W12431  36.319   7.789   3.467
44027W        W12432   3.732  16.381  12.544
44028W        W12433  36.441  33.496  10.718
44029W        W12434  31.463  39.585   2.414
44030W        W12435   8.620  38.807   4.872
44031W        W12436  38.578  44.290  13.983
44032W        W12437   7.333   7.488  11.241
44033W        W12438  15.102   6.281   1.762
44034W        W12439  25.689  16.718  11.145
44035W        W12440  25.033  22.661   3.641
44036W        W12441   0.571  17.739  13.301
44037W        W12442  12.164  15.159  13.429
44038W        W12443   7.026  44.022   0.486
44039W        W12444  16.557   2.791   3.316
44040W        W12445  22.022  28.425  10.928
44041W        W12446  43.447  19.723   4.028
44042W        W12447  15.252   1.361  12.971
44043W        W12448  20.746  14.173  14.264
44044W        W12449  15.889  14.790   2.404
44045W        W12450  18.039  23.732   4.617
44046W        W12451  17.132  15.121  10.459
44047W        W12452  44.076   4.757   4.033
44048W        W12453   1.714   9.251   2.629
44049W        W12454   8.381  16.223   0.935
44050W        W12455  28.729  10.020  11.977
44051W        W12456  41.787  18.107  11.306
44052W        W12457  41.913  42.577  14.373
44053W        W12458  24.195  28.244  13.315
44054W        W12459  10.327  26.480   3.358
44055W        W12460  14.744   3.387   0.731
44056W        W12461  43.022  37.195   2.834
44057W        W12462  22.218  24.623   2.756
44058W        W12463   1.435  19.319  10.358
44059W        W12464  33.723  31.980  10.579
44060W        W12465  13.783  32.648  13.344
44061W        W12466  29.448  19.754   2.447
44062W        W12467  36.203   2.685   3.229
44063W        W12468  16.772  44.350  13.999
44064W        W12469  41.463  38.461   3.742
44065W        W12470  40.276  38.201   1.779
44066W        W12471  19.661  18.291   1.969
44067W        W12472   5.252  14.614   1.268
44068W        W12473  36.988   5.612  12.514
44069W        W12474   2.914  40.295  14.976
44070W        W12475  18.583   9.832   2.793
44071W        W12476   6.257  11.049  12.032
44072W        W12477  42.918  27.705   3.170
44073W        W12478  38.043   8.330  12.794
44074W        W12479  17.141  23.446   3.655
44075W        W12480   4.294  27.724   1.733
44076W        W12481   1.299   5.708   3.755
44077W        W12482   4.038  19.628   2.601
44078W        W12483  34.866  28.432  13.970
44079W        W12484  10.977   5.639  13.777
44080W        W12485  32.391  44.569  14.353
44081W        W12486   2.815  19.660   2.971
44082W        W12487   2.104  38.779   5.139
44083W        W12488  42.035  23.503  10.051
44084W        W12489   9.812  26.724   3.621
44085W        W12490  40.966  26.937  14.512
44086W        W12491  41.826  15.261  10.657
44087W        W12492  43.255  15.489   0.292
44088W        W12493  29.102  31.888   1.353
44089W        W12494  38.887   3.486  11.644
44090W        W12495  32.891  43.758   3.851
44091W        W12496  17.122  13.827  14.487
44092W        W12497  37.478  18.163  12.510
44093W        W12498  40.892  36.794  13.138
44094W        W12499  28.039   1.482   4.241
44095W        W12500  25.725  24.898   4.841
44096W        W12501   2.953  31.544  10.686
44097W        W12502  30.048  36.029  12.866
44098W        W12503  41.552  12.086   3.619
44099W        W12504  25.036  33.109   1.945
44100W        W12505  22.059  15.752  14.977
44101W        W12506  39.795  22.067  10.663
44102W        W12507  34.092  44.601  13.945
44103W        W12508  34.382  19.585   1.778
44104W        W12509   6.428  21.057   4.637
44105W        W12510  17.228  22.807  14.120
44106W        W12511  18.873  11.896  11.543
44107W        W12512  11.785  39.746   0.364
44108W        W12513  20.977   6.187  14.868
44109W        W12514  20.560  44.785   2.699
44110W        W12515   9.303  43.357   0.367
44111W        W12516  42.963   6.828  11.192
44112W        W12517   9.177  25.029  12.604
44113W        W12518  34.513  23.001  12.471
44114W        W12519  36.046   1.355   2.940
44115W        W12520  13.874   7.313   4.025
44116W        W12521  41.323  19.678   0.272
44117W        W12522  35.887  34.879   1.154
44118W        W12523  32.342   9.406  10.991
44119W        W12524   7.837  23.687  14.015
44120W        W12525   5.263  14.394   5.027
44121W        W12526  43.508  30.752   0.033
44122W        W12527  14.670  31.426   4.551
44123W        W12528  41.595  29.645   3.856
44124W        W12529  11.177  21.804   4.163
44125W        W12530  22.672  24.123   0.037
44126W        W12531  40.754   9.303   3.362
44127W        W12532  40.322  33.950  11.455
44128W        W12533   0.672  36.181  11.971
44129W        W12534   2.754  28.156   0.743
44130W        W12535  34.085   9.707   2.895
44131W        W12536  16.044  22.962  11.234
44132W        W12537  36.307  40.399   1.638
44133W        W12538  17.968   3.423  13.113
44134W        W12539  21.164  11.810  12.029
44135W        W12540  10.846   4.615  11.269
44136W        W12541  41.976  23.879  14.377
44137W        W12542   4.884  41.057  12.408
44138W        W12543   3.454  25.377   3.761
44139W        W12544  38.953  42.521   4.122
44140W        W12545   5.540  44.106   0.302
44141W        W12546  31.151   3.444   4.331
44142W        W12547  31.628   9.348  13.260
44143W        W12548  20.523  22.477   4.989
44144W        W12549  32.322   2.755   0.781
44145W        W12550  21.139  11.435  14.029
44146W        W12551  28.217  20.596  12.887
44147W        W12552  32.322  25.040   4.768
44148W        W12553  16.070   6.693   4.649
44149W        W12554  43.122  13.315  10.422
44150W        W12555  13.697   3.691   1.887
44151W        W12556  18.332   4.410   2.808
44152W        W12557  19.589  33.080   0.724
44153W        W12558  34.194  42.223  12.970
44154W        W12559  23.626   5.920  13.975
44155W        W12560  15.119   0.177   0.358
44156W        W12561  19.256  23.476  12.906
44157W        W12562  26.856  33.557  14.019
44158W        W12563  24.466   7.435  13.558
44159W        W12564  35.074  17.871  12.070
44160W        W12565  12.168  26.241   4.110
44161W        W12566   3.742  41.799  14.086
44162W        W12567  31.577  34.543  14.573
44163W        W12568  32.967   2.441  14.341
44164W        W12569  40.330  16.196   3.780
44165W        W12570  35.424  27.218   2.848
44166W        W12571   3.019   3.944  11.636
44167W        W12572   8.932  38.339   3.369
44168W        W12573  15.644  38.659  10.713
44169W        W12574  43.412  36.488   2.138
44170W        W12575   9.141   1.896  12.355
44171W        W12576  32.160  23.280   1.233
44172W        W12577  31.998   6.746   1.645
44173W        W12578  29.876   1.012  13.386
44174W        W12579   4.804   3.467  10.642
44175W        W12580  41.940  15.177   4.693
44176W        W12581  22.408  10.673  10.164
44177W        W12582  14.049  28.240  10.990
44178W        W12583  17.157  19.351   3.258
44179W        W12584  21.936  42.478  14.307
44180W        W12585  31.113   2.404  11.746
44181W        W12586  33.564  15.138  14.116
44182W        W12587  23.152  34.859   3.258
44183W        W12588   3.058  32.107   3.713
44184W        W12589  35.119   1.793  11.093
44185W        W12590  15.651  42.488  14.946
44186W        W12591   1.393  14.918   0.732
44187W        W12592  25.179  23.342   2.418
44188W        W12593  43.506  44.206   2.265
44189W        W12594  17.129   8.851  12.755
44190W        W12595   6.547  17.511  14.037
44191W        W12596  28.487  42.902  12.228
44192W        W12597  43.428   0.880  13.619
44193W        W12598  23.747   7.489   2.858
44194W        W12599   6.423  32.970  10.966
44195W        W12600   3.431  44.346   3.984
44196W        W12601   0.627  34.274   0.863
44197W        W12602  43.268  11.165   3.574
44198W        W12603  10.115  30.189   4.202
44199W        W12604  16.660  14.753   0.453
44200W        W12605  27.650  14.546  11.125
44201W        W12606   9.325  10.828  14.881
44202W        W12607   2.812  37.357  12.924
44203W        W12608  29.610  34.019  12.381
44204W        W12609  30.596  41.836  13.573
44205W        W12610  19.913  24.193  10.278
44206W        W12611  21.357   5.415   1.432
44207W        W12612  30.227  39.294  11.608
44208W        W12613  17.689  44.843  11.721
44209W        W12614  32.980  18.884  12.351
44210W        W12615  29.322   9.274   3.473
44211W        W12616  13.174  30.437   4.776
44212W        W12617  42.805  29.198  13.808
44213W        W12618  20.483   1.256   3.716
44214W        W12619  18.655   9.146   0.310
44215W        W12620   6.926  26.681  10.702
44216W        W12621   5.254  16.629   4.395
44217W        W12622  20.198   5.469   1.906
44218W        W12623   0.535   6.675   2.031
44219W        W12624  21.816  44.470  14.799
44220W        W12625  34.473  15.136   2.167
44221W        W12626  16.714  43.980   3.269
44222W        W12627  21.959   7.789  12.769
44223W        W12628   1.744  10.416  14.410
44224W        W12629  34.459  33.691  13.382
44225W        W12630  11.574  14.327   1.381
44226W        W12631  38.223  12.699  13.524
44227W        W12632  43.764   9.144  11.623
44228W        W12633  24.215  18.107  10.707
44229W        W12634   5.324  32.049  13.283
44230W        W12635  30.038   2.957  14.493
44231W        W12636  27.454  36.312  12.453
44232W        W12637  40.868  33.452   2.430
44233W        W12638   1.319  12.882   1.615
44234W        W12639   5.376  33.413   2.803
44235W        W12640   9.200  13.673   3.744
44236W        W12641  37.861  38.128   0.788
44237W        W12642  33.407  12.135  11.599
44238W        W12643  10.901  11.558  14.251
44239W        W12644   2.586  40.951  11.690
44240W        W12645  44.625  38.540   4.606
44241W        W12646  31.857  15.514  13.437
44242W        W12647  24.580  30.095   1.585
44243W        W12648  17.783  44.534  13.425
44244W        W12649  21.590   0.002  10.761
44245W        W12650  19.640  15.819  10.284
44246W        W12651  17.970  19.691   3.200
44247W        W12652  39.649  26.325  13.501
44248W        W12653  20.077   5.021   1.188
44249W        W12654  12.137   8.469  12.416
44250W        W12655  23.228  40.100   0.140
44251W        W12656  38.989  15.590   3.195
44252W        W12657  37.798  15.254  11.321
44253W        W12658  43.466  32.486   3.169
44254W        W12659  20.420   0.023   3.121
44255W        W12660   3.821  43.052   4.606
44256W        W12661  38.842  42.245  14.531
44257W        W12662   3.213  21.529   3.735
44258W        W12663  16.660  31.246  14.325
44259W        W12664  19.487  32.659  11.929
44260W        W12665   1.546  23.657   3.118
44261W        W12666  19.309   0.522  14.014
44262W        W12667  30.511  11.572   4.631
44263W        W12668  44.645  15.311   2.814
44264W        W12669  43.948  26.617   1.289
44265W        W12670  31.807  10.827  12.176
44266W        W12671  38.308   5.939  12.566
44267W        W12672  13.262  42.403  13.979
44268W        W12673  24.564   8.880   1.883
44269W        W12674  31.384  37.069   2.217
44270W        W12675  27.613  17.275   1.477
44271W        W12676   4.402   1.458  10.391
44272W        W12677   2.421   9.962  14.817
44273W        W12678  13.620  16.104   4.458
44274W        W12679   6.260  35.594   3.430
44275W        W12680   0.943  35.901   0.793
44276W        W12681  10.598  18.685  10.689
44277W        W12682  22.386  36.547  10.040
44278W        W12683   0.550  18.105  10.286
44279W        W12684  10.901  24.105  14.859
44280W        W12685  18.700   4.229  10.694
44281W        W12686  38.983   1.940   9.956
44282W        W12687   5.464  39.145  12.925
44283W        W12688  36.866   5.861   3.787
44284W        W12689  42.722   2.222  14.374
44285W        W12690  10.235  13.340  13.472
44286W        W12691  27.598   1.272   4.069
44287W        W12692  28.009  26.444   1.928
44288W        W12693   2.291  10.133   4.632
44289W        W12694   1.058  22.981  12.484
44290W        W12695  20.251  26.047   2.638
44291W        W12696  23.506  31.081   3.147
44292W        W12697   5.352   9.156   4.630
44293W        W12698   9.164   9.359  13.355
44294W        W12699  24.029  26.135   3.770
44295W        W12700   8.981   1.073   0.360
44296W        W12701  40.268  31.122   3.256
44297W        W12702  32.757  25.002   1.671
44298W        W12703   9.901  18.523  14.939
44299W        W12704  23.504  15.425  12.392
44300W        W12705  15.281  41.848   2.466
44301W        W12706   0.790  26.511  13.929
44302W        W12707   2.688   8.624   0.067
44303W        W12708  33.774  22.030  13.752
44304W        W12709  36.188  11.437   4.605
44305W        W12710  25.204   1.674  13.148
44306W        W12711  43.640  17.206  13.302
44307W        W12712  26.467  10.402   5.460
44308W        W12713  41.971  31.337   4.514
44309W        W12714  33.510   2.653   2.534
44310W        W12715  13.491   7.408   3.665
44311W        W12716   6.015  31.480  12.336
44312W        W12717  16.548  30.430  12.111
44313W        W12718  44.330   6.735   0.491
44314W        W12719   9.001  37.382   1.023
44315W        W12720   5.391   9.906  12.178
44316W        W12721  35.891  36.063  12.986
44317W        W12722  43.552  44.456   0.922
44318W        W12723  21.555  23.711  14.327
44319W        W12724  39.068   2.860  11.060
44320W        W12725  43.561  30.287   3.763
44321W        W12726  37.507  22.465  13.864
44322W        W12727   0.832  11.692   2.103
44323W        W12728   0.316   6.266   5.154
44324W        W12729  19.239  44.782  14.368
44325W        W12730  27.542  33.766   4.071
44326W        W12731   3.419  17.113  10.029
44327W        W12732  35.840  17.192  11.161
44328W        W12733   7.418  23.655   2.804
44329W        W12734  44.237  13.782   1.162
44330W        W12735  29.118  24.238   0.549
44331W        W12736  18.533   7.225  12.074
44332W        W12737  25.255  42.415   3.657
44333W        W12738  16.220  35.380   4.562
44334W        W12739  37.046  12.061   4.594
44335W        W12740  15.249   8.793   3.966
44336W        W12741  41.259   5.304  14.025
44337W        W12742   1.487  22.077   1.165
44338W        W12743   5.941  40.918  12.921
44339W        W12744  42.989  38.471  11.978
44340W        W12745  31.459  31.079  10.662
44341W        W12746  24.944  20.616  11.670
44342W        W12747   0.239   0.341   0.856
44343W        W12748  10.721  37.477   5.065
44344W        W12749  25.939   7.878  11.701
44345W        W12750   2.538  27.631   4.121
44346W        W12751  22.343  35.074   0.617
44347W        W12752   2.195  19.808   2.242
44348W        W12753  19.115   2.692   4.205
44349W        W12754  39.002   3.342   3.620
44350W        W12755  19.515  24.440   2.355
44351W        W12756   7.577  29.925  13.003
44352W        W12757  24.664  33.907  12.505
44353W        W12758  16.278  27.905  11.645
44354W        W12759  35.569  21.076  11.620
44355W        W12760  32.380  37.837   0.713
44356W        W12761  15.116  32.346  11.344
44357W        W12762  43.440  22.960  10.728
44358W        W12763  32.928   9.591   0.982
44359W        W12764  39.496  27.937  13.849
44360W        W12765   6.479  19.679  11.660
44361W        W12766  26.680  31.501   0.869
44362W        W12767  15.813  23.105  12.527
44363W        W12768  22.439  12.507  13.948
44364W        W12769  17.265  44.911  12.575
44365W        W12770  18.874  35.506   0.340
44366W        W12771  12.182  38.570   1.464
44367W        W12772  11.927  30.651   4.098
44368W        W12773  10.107  38.834   3.324
44369W        W12774   3.370  12.883  12.566
44370W        W12775  22.573  34.616   4.342
44371W        W12776  25.003   6.655  11.808
44372W        W12777  30.347  34.083  11.596
44373W        W12778  20.298  41.572   4.947
44374W        W12779   8.756  43.602  11.978
44375W        W12780   2.486   5.059   4.120
44376W        W12781  30.931  19.990  12.642
44377W        W12782  19.854  11.944   5.055
44378W        W12783  35.308   7.635  14.365
44379W        W12784   5.236   7.487   4.239
44380W        W12785   0.492  35.495  13.122
44381W        W12786   2.270   8.260  14.250
44382W        W12787  40.134  34.048   2.167
44383W        W12788   2.911  41.930   1.806
44384W        W12789  38.798  32.125  14.856
44385W        W12790  23.302  17.208  14.874
44386W        W12791  35.522  44.954   3.821
44387W        W12792   6.115  26.562   1.858
44388W        W12793   3.437   8.350   0.895
44389W        W12794  21.583  33.121   4.296
44390W        W12795  22.766  34.414   1.250
44391W        W12796   0.121  15.724  10.338
44392W        W12797  25.258  41.048   0.593
44393W        W12798  18.639  43.207   1.837
44394W        W12799   5.812  23.626  11.724
44395W        W12800  15.269  34.915  10.953
44396W        W12801   3.771  35.370  11.390
44397W        W12802  19.978   9.221   0.696
44398W        W12803  24.497  43.780  12.365
44399W        W12804  26.035  18.590   1.296
44400W        W12805  44.339  18.778  10.619
44401W        W12806  28.003  41.449   4.110
44402W        W12807  12.659   8.906  12.890
44403W        W12808   9.698  12.710   3.339
44404W        W12809   9.330  17.862   4.470
44405W        W12810  44.522  37.487   1.671
44406W        W12811  14.820  25.747  13.793
44407W        W12812  18.153  17.726   3.646
44408W        W12813  37.999  31.169   2.968
44409W        W12814  15.017  39.044   4.574
44410W        W12815  21.431   5.343   2.854
44411W        W12816   9.384   0.448  12.520
44412W        W12817   9.617  38.139   1.278
44413W        W12818   9.453  29.918  14.627
44414W        W12819   0.318   1.241  13.308
44415W        W12820  43.642  10.121   0.691
44416W        W12821  37.583  24.022   2.697
44417W        W12822   9.790  31.105   3.623
44418W        W12823  27.073   8.807  11.997
44419W        W12824  11.097  33.198   9.713
44420W        W12825  21.604  22.045   2.397
44421W        W12826  26.118  29.715   1.854
44422W        W12827  41.398   9.581   0.884
44423W        W12828  24.235   2.081   2.172
44424W        W12829   5.041  41.274   4.090
44425W        W12830   0.732   7.887   2.848
44426W        W12831   5.194  30.919   1.837
44427W        W12832  31.159  34.827   3.124
44428W        W12833  14.678  40.097  12.545
44429W        W12834   8.843  24.585   2.935
44430W        W12835   4.676  33.394   2.106
44431W        W12836  39.637   7.904   3.202
44432W        W12837  18.659  16.779  12.418
44433W        W12838  42.832  34.686  11.248
44434W        W12839  29.581   5.843   4.368
44435W        W12840  19.326  13.180   2.781
44436W        W12841  39.444  31.620   3.584
44437W        W12842  42.220  36.134  12.515
44438W        W12843   7.158  42.358   4.617
44439W        W12844  29.182  22.539   1.522
44440W        W12845  20.318  26.373  12.540
44441W        W12846   7.600  39.347   4.163
44442W        W12847  39.846  27.079   3.674
44443W        W12848  21.982  39.631  14.963
44444W        W12849   2.239  17.371   1.710
44445W        W12850   8.269  20.327  12.120
44446W        W12851   1.794  39.013  12.085
44447W        W12852  40.852  42.239   3.655
44448W        W12853  44.558   1.678   2.610
44449W        W12854  17.045  21.405  13.358
44450W        W12855  11.467  15.353   4.660
44451W        W12856  12.272  31.815  13.486
44452W        W12857  15.795  32.953  10.248
44453W        W12858   1.466  20.317   0.347
44454W        W12859  15.847   0.388  14.895
44455W        W12860  26.541   3.211   4.222
44456W        W12861  18.210  10.617  10.745
44457W        W12862  44.518  15.683   3.282
44458W        W12863  25.957  42.366  12.465
44459W        W12864  34.359  44.376  10.215
44460W        W12865  16.566  41.058   2.314
44461W        W12866   4.698  23.974  10.183
44462W        W12867   4.390  21.803  10.688
44463W        W12868  35.489  23.848   4.622
44464W        W12869   8.824  25.060   2.706
44465W        W12870  32.280  43.538  11.541
44466W        W12871   4.353  35.465   0.722
44467W        W12872  16.281   2.963  14.685
44468W        W12873   0.348  10.321  14.291
44469W        W12874  42.224  21.898   2.689
44470W        W12875  40.053  16.358   2.591
44471W        W12876   4.640  21.945  11.144
44472W        W12877  33.005  12.427   2.808
44473W        W12878  10.990   9.159  12.191
44474W        W12879  21.676  37.875  12.888
44475W        W12880  35.579  21.392   3.207
44476W        W12881  24.970  37.879   1.078
44477W        W12882   0.966  31.077  13.898
44478W        W12883  15.802  25.237   0.841
44479W        W12884   9.250  21.979  10.554
44480W        W12885  27.943  37.957   1.758
44481W        W12886   2.929  30.412   3.351
44482W        W12887  41.230  22.749   4.309
44483W        W12888  32.991  42.334  11.648
44484W        W12889  34.948   3.699  14.083
44485W        W12890  37.820  39.491  14.925
44486W        W12891  32.666  32.959  10.649
44487W        W12892   8.287  28.438   3.314
44488W        W12893  18.256  43.927  13.928
44489W        W12894  22.113  23.983  10.594
44490W        W12895   8.676   8.654   3.613
44491W        W12896  18.064  20.141  12.906
44492W        W12897   0.406  20.365  12.488
44493W        W12898  33.585  26.475   2.091
44494W        W12899  30.017  21.032   3.173
44495W        W12900  34.907   2.288   2.628
44496W        W12901  36.577  21.075  12.519
44497W        W12902  18.105  43.453  12.512
44498W        W12903  31.914   7.951  11.083
44499W        W12904  14.595  33.339   3.584
44500W        W12905  13.543  38.493  11.317
44501W        W12906  20.454  13.179  12.488
44502W        W12907  30.461  37.620   3.275
44503W        W12908  19.601  15.589  13.856
44504W        W12909  16.859  10.179   4.014
44505W        W12910  19.873  16.698  11.042
44506W        W12911   3.290  10.793   4.676
44507W        W12912  32.395   9.503   4.175
44508W        W12913  17.573   6.884   4.494
44509W        W12914  19.104  38.396   1.230
44510W        W12915  37.043   6.804  14.747
44511W        W12916  37.793  40.744   0.302
44512W        W12917  21.039  41.670   0.207
44513W        W12918   8.889  17.036  11.601
44514W        W12919  28.619  15.218  10.061
44515W        W12920  42.199  37.551  13.370
44516W        W12921  24.601  43.710   0.086
44517W        W12922  29.380  18.703  12.981
44518W        W12923  34.158  16.858  13.297
44519W        W12924  30.170  20.308   1.897
44520W        W12925  11.658  22.019  13.797
44521W        W12926  11.233  27.066   0.778
44522W        W12927  26.510  18.671  14.996
44523W        W12928   3.259  19.090   1.725
44524W        W12929  40.160  13.237   0.700
44525W        W12930  11.813  21.228   0.321
44526W        W12931  31.625  34.503  13.557
44527W        W12932  18.828  19.404  12.894
44528W        W12933  18.476  34.672  13.648
44529W        W12934   8.057  10.504  11.899
44530W        W12935  36.619  26.417  12.792
44531W        W12936  33.556  23.911  13.970
44532W        W12937   6.682  39.096  11.321
44533W        W12938   3.192   1.236   0.899
44534W        W12939  14.027  13.734  12.817
44535W        W12940  21.497   3.749  10.383
44536W        W12941  19.452  13.776  14.957
44537W        W12942   9.910  41.973   0.395
44538W        W12943  16.280  15.123   0.692
44539W        W12944  36.814  33.419  12.560
44540W        W12945   6.661  40.338  12.812
44541W        W12946  32.444  33.540   1.488
44542W        W12947  25.035   9.233  11.266
44543W        W12948  39.267  37.589   3.705
44544W        W12949  10.166  18.092  14.862
44545W        W12950  33.351  10.868   4.212
44546W        W12951  26.761  19.087  14.794
44547W        W12952   2.325  42.148   2.326
44548W        W12953  40.550   3.462   0.202
44549W        W12954  11.273  24.956  11.722
44550W        W12955  29.517  33.081  12.258
44551W        W12956  30.525  12.629  14.339
44552W        W12957  42.417   3.404  11.455
44553W        W12958   9.465  14.817  11.677
44554W        W12959  44.319  23.625  10.625
44555W        W12960  15.132  31.484   2.875
44556W        W12961  37.921   3.080   3.811
44557W        W12962  43.775  35.018  12.144
44558W        W12963   4.051  26.566  10.303
44559W        W12964   2.150   1.192   2.268
44560W        W12965  33.245  11.626  11.635
44561W        W12966  42.776  16.970   4.955
44562W        W12967   1.912  13.840   0.303
44563W        W12968  41.460  39.069  11.218
44564W        W12969  31.944  32.696  12.544
44565W        W12970  11.383  37.341  11.171
44566W        W12971  14.831  31.877  12.650
44567W        W12972   8.694  27.145   4.126
44568W        W12973   7.389  13.660  14.349
44569W        W12974  20.023   2.455  11.982
44570W        W12975  15.298  39.399   0.388
44571W        W12976  29.495  31.447  11.166
44572W        W12977   5.816  43.151   3.182
44573W        W12978  34.428  18.112  14.354
44574W        W12979  35.458  23.557   0.079
44575W        W12980   0.332  17.568  12.422
44576W        W12981  35.539   5.804  14.318
44577W        W12982  26.452  43.688   4.434
44578W        W12983  23.327  15.912   2.251
44579W        W12984  10.290  16.630   0.813
44580W        W12985   0.030  42.724  13.789
44581W        W12986  16.125   5.449  14.788
44582W        W12987  29.526   8.707   2.263
44583W        W12988  15.083  29.110   2.149
44584W        W12989  16.114   1.192   4.653
44585W        W12990   5.451  31.989   4.632
44586W        W12991   1.905  20.758  14.323
44587W        W12992  11.831  22.170   0.675
44588W        W12993  26.079   5.377   1.423
44589W        W12994   3.207  18.684   3.580
44590W        W12995  21.270  44.817   3.604
44591W        W12996  13.929  35.018   1.845
44592W        W12997   0.351  31.130   3.678
44593W        W12998   4.754   6.261  14.335
44594W        W12999  41.873  26.986  14.413
44595W        W13000  24.142  30.173  11.119
44596W        W13001   6.928   7.784   1.822
44597W        W13002  42.957  35.617   4.461
44598W        W13003  15.858  36.613  11.782
44599W        W13004  15.019   2.264   1.116
44600W        W13005  38.199   3.905  11.676
44601W        W13006   9.283  18.551  13.623
44602W        W13007  22.748  32.602  13.772
44603W        W13008  16.083   8.871  11.884
44604W        W13009  18.572  27.262   0.913
44605W        W13010  14.491   4.884   3.216
44606W        W13011  43.835  13.889  11.666
44607W        W13012  11.611  35.123   4.252
44608W        W13013   0.212  15.440  13.947
44609W        W13014  19.411  38.286   2.598
44610W        W13015  10.428  24.539   2.045
44611W        W13016  20.076  36.770  13.024
44612W        W13017   8.849  36.120  12.979
44613W        W13018  19.946  30.992   1.734
44614W        W13019  26.408  38.246  14.857
44615W        W13020   4.522  43.105   0.335
44616W        W13021  19.350   1.708  11.914
44617W        W13022   6.339  24.270  13.349
44618W        W13023  44.644  17.020  13.374
44619W        W13024   0.454  13.721  10.489
44620W        W13025  10.168  22.551  14.349
44621W        W13026  14.435   8.800  13.957
44622W        W13027  36.246  25.906   3.428
44623W        W13028   2.747  31.873   0.020
44624W        W13029  30.205  22.684  12.002
44625W        W13030  32.369  12.444  14.695
44626W        W13031  19.537  33.014   3.791
44627W        W13032   4.131  12.578   2.423
44628W        W13033  16.344  23.260   5.638
44629W        W13034  12.670  11.322  13.769
44630W        W13035  28.658  38.107   1.203
44631W        W13036  31.339  44.011   3.780
44632W        W13037  27.632  24.575   2.947
44633W        W13038  18.042   7.446   2.351
44634W        W13039  10.843  42.772  13.787
44635W        W13040  24.199  16.350  14.423
44636W        W13041  14.245  42.368   4.609
44637W        W13042   9.824   5.231   4.437
44638W        W13043  24.131   9.631   4.051
44639W        W13044   5.009   5.795   5.424
44640W        W13045  36.883  44.700  12.647
44641W        W13046  32.172  35.126   1.391
44642W        W13047  33.225  23.555   4.397
44643W        W13048   7.239   3.425  14.370
44644W        W13049  28.391  14.901   0.376
44645W        W13050  42.130  26.129   4.129
44646W        W13051  26.760   6.644  12.293
44647W        W13052  40.940  19.967   1.790
44648W        W13053  41.963  24.390   1.276
44649W        W13054  14.932  31.501  10.293
44650W        W13055  29.972   3.705   3.882
44651W        W13056  22.257   9.179   1.982
44652W        W13057  18.342  29.742  13.105
44653W        W13058  23.651  12.572   3.393
44654W        W13059  24.787  16.750   2.892
44655W        W13060  11.819   8.446   4.235
44656W        W13061  36.481   2.188  13.399
44657W        W13062  23.940  37.141  12.863
44658W        W13063  23.770  43.553  13.166
44659W        W13064   9.892  34.985  10.997
44660W        W13065  28.201  30.211   1.852
44661W        W13066  15.340  11.582  14.770
44662W        W13067   3.126  24.025   2.964
44663W        W13068  43.249  22.796  11.173
44664W        W13069  38.002  43.685  13.070
44665W        W13070  37.503  29.733  13.347
44666W        W13071  12.770  25.755  14.353
44667W        W13072   9.169  32.413   0.943
44668W        W13073  16.057   7.055   5.023
44669W        W13074  38.498  21.693  12.874
44670W        W13075  11.759  17.752   3.089
44671W        W13076  16.648  30.015   4.408
44672W        W13077  36.166   1.104  12.436
44673W        W13078  10.706   2.210   1.876
44674W        W13079  39.384  18.341  14.977
44675W        W13080  27.086  30.277   2.221
44676W        W13081   7.517   2.174   0.869
44677W        W13082  40.185  17.626   2.097
44678W        W13083   1.873   2.391  10.799
44679W        W13084  25.612  17.733   3.679
44680W        W13085  12.635  15.112  12.154
44681W        W13086  39.877  38.994   2.292
44682W        W13087  39.739  44.490  12.455
44683W        W13088  22.985  32.181  12.054
44684W        W13089  12.173  31.332   0.653
44685W        W13090  12.842   6.265  13.410
44686W        W13091   4.108  19.531   1.738
44687W        W13092  12.834  30.861   1.851
44688W        W13093  43.754   0.734  12.695
44689W        W13094   8.057  33.510  10.720
44690W        W13095  27.478   8.531  14.904
44691W        W13096  33.367  32.906  12.633
44692W        W13097  35.202  11.726   1.774
44693W        W13098  25.205  38.059   1.493
44694W        W13099  37.447  13.166  11.167
44695W        W13100  11.633  25.373  12.087
44696W        W13101  41.410  38.774   1.962
44697W        W13102   3.227   0.918  13.515
44698W        W13103  21.081  13.764  13.063
44699W        W13104   8.533  26.644   0.762
44700W        W13105  36.389   9.085  14.039
44701W        W13106  28.234  38.462   4.525
44702W        W13107  37.224  24.645  12.099
44703W        W13108  36.907  11.023   4.022
44704W        W13109   5.159   0.934   0.701
44705W        W13110  13.598  39.138  14.332
44706W        W13111  36.786  24.827  13.345
44707W        W13112  24.748   0.432  11.748
44708W        W13113  22.701   7.746   0.485
44709W        W13114  13.365  33.123  11.068
44710W        W13115  12.525  42.349   0.853
44711W        W13116  43.101   2.525   4.990
44712W        W13117   6.672  38.973   1.769
44713W        W13118  31.583  18.273   2.917
44714W        W13119  35.122  39.541   4.068
44715W        W13120  23.462   4.458  13.601
44716W        W13121   6.926   1.837   4.009
44717W        W13122  12.390  33.989  12.046
44718W        W13123  11.829  23.338  14.340
44719W        W13124   7.208  25.096  12.520
44720W        W13125  10.973  21.264  10.101
44721W        W13126  17.210  22.176  14.858
44722W        W13127   4.715   6.088   2.805
44723W        W13128   9.102   3.662   4.953
44724W        W13129  26.080  41.994   4.619
44725W        W13130  15.611  17.125  13.357
44726W        W13131  34.432  33.967   0.426
44727W        W13132  18.015  32.842  12.979
44728W        W13133  31.474  12.746   4.069
44729W        W13134   3.674  34.900  11.230
44730W        W13135   3.954  24.375   4.758
44731W        W13136  33.109  16.021  13.146
44732W        W13137  26.992  19.187   4.273
44733W        W13138  39.108   7.878   3.230
44734W        W13139  17.005  11.991   3.924
44735W        W13140   2.770  34.834  14.524
44736W        W13141  27.341  26.357  13.489
44737W        W13142  14.719  43.870  14.360
44738W        W13143  12.369  19.303  14.493
44739W        W13144  41.825   1.072  13.346
44740W        W13145  24.718  25.233  13.026
44741W        W13146  31.528   0.727   2.192
44742W        W13147   5.332  26.460  12.909
44743W        W13148  10.311  29.783  14.475
44744W        W13149  29.656  20.786   3.521
44745W        W13150  30.398  14.073   0.372
44746W        W13151  10.705  43.472  13.319
44747W        W13152  13.655   8.167   0.774
44748W        W13153  14.874   2.876  13.318
44749W        W13154  17.095  30.524  13.972
44750W        W13155  11.842  10.664   4.544
44751W        W13156  28.752   2.296   1.738
44752W        W13157  43.746  36.006  14.994
44753W        W13158  23.766  35.017   0.745
44754W        W13159  37.672   5.306   3.203
44755W        W13160   5.453  31.881   1.285
44756W        W13161   7.196  26.878   2.050
44757W        W13162   4.672  28.123  14.936
44758W        W13163  13.628  26.626  14.600
44759W        W13164  40.041  26.676  12.587
44760W        W13165  30.549  24.299   4.913
44761W        W13166  39.367  26.646  14.353
44762W        W13167  19.537  44.866  13.384
44763W        W13168  43.857  14.431   1.698
44764W        W13169  35.873   7.065   2.345
44765W        W13170   0.801   4.460  10.771
44766W        W13171  21.861   2.746  13.754
44767W        W13172  12.693  28.664   1.813
44768W        W13173  25.201  42.535   1.720
44769W        W13174  34.075  18.389   3.906
44770W        W13175  14.849  26.950  12.871
44771W        W13176  36.149  38.530   1.767
44772W        W13177  33.483  37.123   4.970
44773W        W13178   4.755  28.526  14.435
44774W        W13179  15.637  36.457   1.220
44775W        W13180  11.128   1.737   3.601
44776W        W13181  42.984  14.596   2.873
44777W        W13182  32.050  41.346   3.689
44778W        W13183   6.174   8.136  11.453
44779W        W13184   3.359  27.258   4.548
44780W        W13185  22.858  30.351   0.055
44781W        W13186  30.512  21.033  14.935
44782W        W13187  24.739  16.807   2.364
44783W        W13188  28.927  32.344   0.283
44784W        W13189  28.920  24.614   1.297
44785W        W13190  38.951  10.815   0.209
44786W        W13191  36.936  28.928   4.288
44787W        W13192  28.569  39.422   2.670
44788W        W13193  44.933  36.862   1.258
44789W        W13194   4.824  19.628   4.976
44790W        W13195   2.803  15.552   3.924
44791W        W13196  22.666  22.750   0.626
44792W        W13197  32.826  14.375  11.036
44793W        W13198  20.090  25.820  13.997
44794W        W13199   7.664  24.933   2.497
44795W        W13200  29.566  13.865  11.859
44796W        W13201  37.737  33.826   2.313
44797W        W13202  44.788   2.777  14.301
44798W        W13203  20.160  40.534  10.248
44799W        W13204  13.382  41.330   4.473
44800W        W13205  12.753  42.475  13.395
44801W        W13206  33.529  25.960  11.139
44802W        W13207  34.500  20.721   4.367
44803W        W13208   8.484  34.876  12.906
44804W        W13209  34.890  15.395  10.074
44805W        W13210  29.626   6.220  11.032
44806W        W13211  31.351   6.864  14.464
44807W        W13212  40.287   1.836   4.082
44808W        W13213   5.240   9.327   1.365
44809W        W13214  22.455   0.486   3.620
44810W        W13215  42.301  40.901   4.747
44811W        W13216  41.242  11.642  13.930
44812W        W13217   9.247   1.322   0.751
44813W        W13218  10.959  28.730  10.286
44814W        W13219  14.425  35.617   1.295
44815W        W13220  12.541  14.279  14.919
44816W        W13221  24.554  30.086   0.312
44817W        W13222  23.557  11.113  11.527
44818W        W13223  12.832  26.965  11.954
44819W        W13224  37.397   5.772   3.172
44820W        W13225  16.128  30.987   1.161
44821W        W13226   2.002  26.483   0.437
44822W        W13227  43.971  18.719   0.539
44823W        W13228  41.362  37.375   2.741
44824W        W13229  18.556  18.528   2.603
44825W        W13230  26.692  22.031   3.273
44826W        W13231  37.016  14.897   4.186
44827W        W13232  42.268   1.947  10.620
44828W        W13233  39.057  18.201   4.441
44829W        W13234  21.982  43.005   0.959
44830W        W13235  27.206  36.707   4.697
44831W        W13236   7.860  40.534  12.577
44832W        W13237  36.885  33.854   1.119
44833W        W13238  29.964  25.531   0.185
44834W        W13239  42.227   2.947  13.469
44835W        W13240  36.613  30.214  13.557
44836W        W13241  28.195  32.140   3.726
44837W        W13242   2.851  42.920   4.287
44838W        W13243  24.169  37.044   4.556
44839W        W13244  15.221  42.892   4.759
44840W        W13245  21.158  18.963   4.717
44841W        W13246  41.798   9.256   5.066
44842W        W13247  26.544   1.830  12.574
44843W        W13248  44.874  28.628  11.076
44844W        W13249  44.473  19.408   1.871
44845W        W13250  28.219  14.006   2.237
44846W        W13251  44.016  26.858  10.327
44847W        W13252  17.221   4.346   4.751
44848W        W13253  31.942  40.486  10.434
44849W        W13254  41.894  26.210   2.311
44850W        W13255  28.203   1.398  14.816
44851W        W13256  10.381  35.313  10.972
44852W        W13257   6.075   1.465  14.778
44853W        W13258  14.338   6.320   1.264
44854W        W13259  29.548   4.385  13.882
44855W        W13260  21.702  40.363  14.190
44856W        W13261  43.167  30.543  14.134
44857W        W13262  17.157   5.163   1.735
44858W        W13263  40.730  31.622  14.600
44859W        W13264  27.668   8.743  13.357
44860W        W13265  11.476  16.988   1.351
44861W        W13266   0.688  44.147  10.850
44862W        W13267  25.511  33.830   0.656
44863W        W13268  40.529  26.155  14.680
44864W        W13269  22.407   3.205  14.950
44865W        W13270  18.493  41.525   3.116
44866W        W13271  37.575   4.277   3.149
44867W        W13272   8.103  37.351   1.303
44868W        W13273  16.638   2.381  12.916
44869W        W13274  44.274  11.062  12.833
44870W        W13275   1.905   4.208  10.280
44871W        W13276  16.162   1.641  10.713
44872W        W13277  40.243  18.331   0.750
44873W        W13278  16.183  18.622   2.191
44874W        W13279  13.348   0.057  12.125
44875W        W13280  38.473  35.144  11.039
44876W        W13281   6.633  15.156  13.070
44877W        W13282  13.219  17.216   4.605
44878W        W13283   8.094  34.892   4.600
44879W        W13284  10.135  13.842   2.072
44880W        W13285  33.654   4.211  14.598
44881W        W13286  10.243  27.033   3.989
44882W        W13287  10.772  34.134  12.587
44883W        W13288  22.554  45.000  12.990
44884W        W13289   1.657  40.880   3.840
44885W        W13290  23.002  28.506   0.509
44886W        W13291  21.348  17.130   4.703
44887W        W13292  35.923  14.690   1.411
44888W        W13293  22.533  27.460  13.906
44889W        W13294  18.679  25.743   0.056
44890W        W13295  24.569  36.527   4.011
44891W        W13296  23.695  15.618  14.413
44892W        W13297   2.043  29.994  13.409
44893W        W13298  13.354   5.857   4.712
44894W        W13299   3.006   4.761  12.384
44895W        W13300  34.977   2.559  10.687
44896W        W13301   4.320  34.047  11.434
44897W        W13302  14.704  35.548  11.969
44898W        W13303  23.240  19.728   0.902
44899W        W13304  36.057  16.745  11.244
44900W        W13305  12.794  43.815   0.208
44901W        W13306  26.461   5.941   4.144
44902W        W13307   9.220  35.902   0.481
44903W        W13308  13.762  33.021   3.223
44904W        W13309  30.834  22.624  13.913
44905W        W13310  38.773  42.036   4.065
44906W        W13311   5.667  41.750  12.479
44907W        W13312   7.353   2.986   0.257
44908W        W13313  35.330   6.918   2.259
44909W        W13314  39.304  25.189  11.734
44910W        W13315  42.746  24.445   4.977
44911W        W13316  30.055   4.320  12.545
44912W        W13317  28.435  17.287   2.353
44913W        W13318  39.304  31.572   4.089
44914W        W13319  29.396  16.721  12.558
44915W        W13320   9.796  32.010   0.890
44916W        W13321  35.174  41.736  13.856
44917W        W13322  20.073  16.292  10.405
44918W        W13323   6.303   2.981  12.032
44919W        W13324  15.347  16.993  13.851
44920W        W13325   0.247  43.321  12.616
44921W        W13326  34.428  31.103   1.598
44922W        W13327  26.122  40.932   4.257
44923W        W13328  12.013   0.902  11.112
44924W        W13329  34.648  21.331   2.268
44925W        W13330  24.032  18.292   0.307
44926W        W13331  18.625   7.042   3.445
44927W        W13332  12.398  21.511  10.379
44928W        W13333   2.772   6.127   1.239
44929W        W13334  15.935   3.397   2.340
44930W        W13335  28.450  12.101   2.710
44931W        W13336  28.110  44.380  11.338
44932W        W13337  31.619  23.510  12.226
44933W        W13338  27.472  11.685   1.209
44934W        W13339   1.149  30.049  13.512
44935W        W13340  19.071  21.208   1.737
44936W        W13341  36.141  39.657   3.190
44937W        W13342  14.196   5.333  10.580
44938W        W13343  19.260  17.018  13.563
44939W        W13344  26.061  33.930  12.152
44940W        W13345  12.257  37.357   2.182
44941W        W13346  26.885  36.059   1.707
44942W        W13347  27.008  29.648  11.288
44943W        W13348   3.511  41.366  13.857
44944W        W13349  35.882  19.761   3.152
44945W        W13350  12.223   9.078   1.358
44946W        W13351  42.578  10.779  10.707
44947W        W13352  30.345  40.078  11.214
44948W        W13353  39.453  11.243   1.855
44949W        W13354  32.707   3.139   4.958
44950W        W13355  28.195  29.961   3.158
44951W        W13356  12.585  43.633   5.258
44952W        W13357  29.398  16.245   4.131
44953W        W13358  39.188   8.475   1.377
44954W        W13359  28.012  39.388   5.350
44955W        W13360  13.574  36.574   2.784
44956W        W13361  43.838  30.163  14.472
44957W        W13362  42.142  11.913   4.215
44958W        W13363  15.832   0.763  14.107
44959W        W13364  32.953  20.010  12.915
44960W        W13365  35.011   2.464   1.269
44961W        W13366  31.595  12.156   1.849
44962W        W13367  29.905  16.826   4.028
44963W        W13368  22.199   5.794  12.635
44964W        W13369   2.247  21.232   0.914
44965W        W13370   4.889  24.547   4.612
44966W        W13371  30.879  41.357  11.119
44967W        W13372  38.105  31.018  12.970
44968W        W13373  12.445  10.872   1.995
44969W        W13374  36.535  22.815  10.366
44970W        W13375   7.511  37.893   2.205
44971W        W13376  25.607  32.204   3.929
44972W        W13377  36.147   9.870  12.483
44973W        W13378  13.734  26.043   4.555
44974W        W13379  30.230  37.304   1.304
44975W        W13380  22.449   3.501  12.424
44976W        W13381  34.103  14.393  12.061
44977W        W13382   1.880  29.975   2.108
44978W        W13383  33.147  17.764  14.282
44979W        W13384  23.125  20.264   2.510
44980W        W13385  34.950  37.053   1.471
44981W        W13386  13.724  22.921   2.244
44982W        W13387  20.070  25.438  10.522
44983W        W13388   3.620  18.049   4.065
44984W        W13389  17.836  44.485   3.181
44985W        W13390  26.841  29.585   3.652
44986W        W13391  11.308   0.025  10.664
44987W        W13392  43.614  43.504   1.811
44988W        W13393  38.109  34.007  11.754
44989W        W13394   3.823  29.239   2.895
44990W        W13395  35.906  30.508  10.912
44991W        W13396  41.392   8.314   2.229
44992W        W13397   3.414  14.166   2.782
44993W        W13398  36.341  28.415  12.939
44994W        W13399  33.008  33.205   0.409
44995W        W13400  25.147  35.610   1.820
44996W        W13401   9.129  27.422  11.158
44997W        W13402   0.220  11.610   0.503
44998W        W13403  15.841  43.450   2.364
44999W        W13404  11.145   6.918   3.704
45000W        W13405  31.841  26.033  11.072
45001W        W13406  17.393  31.174   0.317
45002W        W13407  11.641  33.056   2.664
45003W        W13408  44.449  10.135  14.647
45004W        W13409  42.369  12.209  11.967
45005W        W13410  23.617  22.176  11.114
45006W        W13411  42.866  14.041   1.724
45007W        W13412   4.173  16.548   1.660
45008W        W13413  27.056  35.716   3.159
45009W        W13414  41.490  43.843  14.609
45010W        W13415  25.788  21.911  12.059
45011W        W13416  44.913  17.802   1.501
45012W        W13417  43.982   6.285  14.247
45013W        W13418  39.059  25.627   3.739
45014W        W13419  31.123  21.660   4.155
45015W        W13420  38.288  22.343   0.408
45016W        W13421   6.697  35.365   0.749
45017W        W13422   0.032   7.475  14.294
45018W        W13423   2.862  18.556  14.354
45019W        W13424  40.764  21.668   4.344
45020W        W13425   3.391  36.304   3.254
45021W        W13426  28.559  44.271  14.754
45022W        W13427   6.200  34.653   2.892
45023W        W13428  37.593   6.197   4.118
45024W        W13429  18.089   9.597   1.895
45025W        W13430   2.830   4.334  10.195
45026W        W13431  17.548   2.333  13.452
45027W        W13432  26.018  18.211   0.944
45028W        W13433   6.134  12.246   0.914
45029W        W13434  35.937  35.819  12.509
45030W        W13435   4.045  37.522  14.361
45031W        W13436  20.127  11.768   2.284
45032W        W13437  39.051   5.273   1.743
45033W        W13438  20.510   9.911  12.796
45034W        W13439  27.488  14.487   2.146
45035W        W13440   3.934  15.418   0.997
45036W        W13441  42.313   0.495   2.732
45037W        W13442   2.248  43.715  14.224
45038W        W13443  17.250  36.911   2.798
45039W        W13444  21.705  23.242  13.831
45040W        W13445  44.843  35.597   0.245
45041W        W13446  27.515  29.647  13.985
45042W        W13447   0.247   6.719  10.296
45043W        W13448  29.380   0.352   3.959
45044W        W13449   2.230   8.846  14.988
45045W        W13450  24.194  25.501  14.334
45046W        W13451  44.199  14.023  12.048
45047W        W13452  26.513   1.031   0.471
45048W        W13453  21.175  10.092  14.375
45049W        W13454  34.717   1.324   0.849
45050W        W13455  35.354   9.912  10.714
45051W        W13456  30.249  43.881   1.700
45052W        W13457  21.694  29.444  13.708
45053W        W13458  16.865  21.539   4.412
45054W        W13459  25.785   2.411   1.240
45055W        W13460   7.866  36.989   0.293
45056W        W13461  13.069  17.302   3.570
45057W        W13462  43.357  35.857  12.946
45058W        W13463  28.473  15.799   1.413
45059W        W13464  24.052  11.805   0.978
45060W        W13465  11.283  10.246   1.346
45061W        W13466   9.539   0.822  14.370
45062W        W13467  13.152  25.282   4.213
45063W        W13468   1.672  15.105  11.868
45064W        W13469  12.283  10.577  10.437
45065W        W13470  22.350  24.093   0.914
45066W        W13471  43.335  36.865   0.788
45067W        W13472  23.130  33.385   3.596
45068W        W13473  40.978  34.067  14.719
45069W        W13474  40.254  26.018   2.548
45070W        W13475  30.981   6.917   0.412
45071W        W13476  15.052  17.385   0.280
45072W        W13477  17.173  28.011   2.764
45073W        W13478  30.051  21.077   3.692
45074W        W13479  21.216  10.306   1.148
45075W        W13480  18.504   6.815  11.521
45076W        W13481  10.176  42.599  10.344
45077W        W13482  41.471  21.581  14.325
45078W        W13483  36.382  37.164   2.293
45079W        W13484  28.750  39.433   9.698
45080W        W13485   8.120  18.755   4.486
45081W        W13486  34.087  37.355   4.564
45082W        W13487  24.721  26.684   2.447
45083W        W13488   3.753  23.764   3.705
45084W        W13489   3.906  21.703   3.342
45085W        W13490  36.841   0.430  12.018
45086W        W13491   0.853  43.079   4.733
45087W        W13492  10.158  43.376   0.384
45088W        W13493  33.103  31.649   1.643
45089W        W13494  19.180   1.318   4.998
45090W        W13495  25.569   4.642  10.330
45091W        W13496  43.109  28.417   2.686
45092W        W13497  43.508  24.667  11.457
45093W        W13498  34.640  10.782  11.100
45094W        W13499  26.463   9.223   1.929
45095W        W13500  28.695  33.328   2.369
45096W        W13501  44.293  19.988  12.920
45097W        W13502  15.370   9.491   0.303
45098W        W13503  23.262   6.338   0.332
45099W        W13504   6.912  12.502   0.739
45100W        W13505   4.976  28.634  11.386
45101W        W13506  42.757  29.266  12.917
45102W        W13507  34.350  20.444   3.214
45103W        W13508  33.248  14.107  14.906
45104W        W13509  16.223  37.134   2.367
45105W        W13510  21.628   1.971  14.868
45106W        W13511  36.893  18.756   4.700
45107W        W13512  23.542   4.224   2.433
45108W        W13513  43.315  21.133  14.847
45109W        W13514  10.419  28.163   1.239
45110W        W13515  35.371  22.866   2.209
45111W        W13516  33.990   2.716  12.413
45112W        W13517   5.775  10.422  12.962
45113W        W13518   2.327  20.841   2.366
45114W        W13519  42.301   0.292   1.841
45115W        W13520  14.657  25.527  14.743
45116W        W13521   7.321  23.110  10.710
45117W        W13522  21.263  16.641  14.506
45118W        W13523  19.249   0.703  13.113
45119W        W13524  11.331   9.479  13.903
45120W        W13525   9.253  29.197  10.735
45121W        W13526  36.679  44.327   2.902
45122W        W13527   9.354   7.724   3.314
45123W        W13528  10.680  10.111  13.783
45124W        W13529   0.567  28.468  12.776
45125W        W13530  32.058   9.035   5.137
45126W        W13531  21.042  17.055  10.649
45127W        W13532  26.121  31.355  11.042
45128W        W13533  34.569  36.204   2.312
45129W        W13534  40.972  21.161   1.477
45130W        W13535  25.224  43.630   4.090
45131W        W13536  28.526  37.070   3.308
45132W        W13537  19.766  18.819  10.744
45133W        W13538  33.051  27.793  13.790
45134W        W13539  31.383  23.572   0.615
45135W        W13540  21.563  21.793  13.933
45136W        W13541  20.405  23.995  10.903
45137W        W13542  33.993  15.855   2.171
45138W        W13543  11.579   4.319   4.797
45139W        W13544  13.137  24.347  12.777
45140W        W13545   3.176  20.807  11.376
45141W        W13546   0.748  26.260  13.399
45142W        W13547   3.466  23.271  11.537
45143W        W13548  33.912  20.010  11.708
45144W        W13549  40.874  17.778  11.517
45145W        W13550   4.449   5.417  13.937
45146W        W13551  13.364   7.917  14.538
45147W        W13552  10.064  33.622  13.842
45148W        W13553   8.922  29.178   1.739
45149W        W13554  38.011   6.383  12.428
45150W        W13555  15.769  27.205  14.842
45151W        W13556  30.587   6.788  13.885
45152W        W13557  44.738   2.306   0.883
45153W        W13558  44.072  32.345  13.371
45154W        W13559   1.060  27.624   0.262
45155W        W13560   4.746   9.685   0.766
45156W        W13561  43.032  36.527  14.381
45157W        W13562   2.102  41.460   0.776
45158W        W13563   4.636  42.768  12.126
45159W        W13564  10.970  30.574   4.834
45160W        W13565  33.585   7.708  14.321
45161W        W13566  18.847   3.696   3.431
45162W        W13567  37.629  25.321   9.891
45163W        W13568  30.784  37.803  12.039
45164W        W13569   2.148  41.910   0.500
45165W        W13570  32.989   8.105   1.326
45166W        W13571  11.992  15.125  12.920
45167W        W13572   0.139  18.680  13.336
45168W        W13573  26.145  12.072   1.349
45169W        W13574   9.006   5.722   0.450
45170W        W13575  39.112  34.458   3.012
45171W        W13576  42.903  34.547  11.738
45172W        W13577  27.875  18.336   4.780
45173W        W13578   5.924   5.311  12.594
45174W        W13579  23.029  15.099  11.498
45175W        W13580  20.715   1.377  14.870
45176W        W13581  26.416   0.074  11.300
45177W        W13582   3.053  12.673   4.021
45178W        W13583   9.370  12.811   2.648
45179W        W13584  16.151  15.091  14.168
45180W        W13585  15.262   0.315   4.630
45181W        W13586  15.746  13.878   0.834
45182W        W13587  28.506  20.562   2.336
45183W        W13588  10.398   3.408   0.411
45184W        W13589  29.645  14.740  14.947
45185W        W13590   3.624  13.439   1.458
45186W        W13591  20.969  13.170  14.778
45187W        W13592  42.614   9.300   0.857
45188W        W13593  10.942  16.427   1.386
45189W        W13594  30.569   0.510  14.507
45190W        W13595   2.169  35.024  11.945
45191W        W13596  18.708  21.789   3.957
45192W        W13597  30.511  43.921   3.576
45193W        W13598  43.451  35.612  11.863
45194W        W13599  19.803   7.310  10.196
45195W        W13600   9.662  36.131  12.566
45196W        W13601  10.874  38.915  11.168
45197W        W13602  23.328  42.317   1.486
45198W        W13603   7.987   1.411   1.749
45199W        W13604   4.001  42.475   0.375
45200W        W13605  42.562  11.643   4.295
45201W        W13606   2.932  10.832   1.613
45202W        W13607  12.664  40.781   0.916
45203W        W13608  11.729  19.138   4.335
45204W        W13609  36.774  15.304  11.127
45205W        W13610  16.130  19.617   3.269
45206W        W13611  20.561  25.164   1.456
45207W        W13612  14.550  42.380   4.188
45208W        W13613  36.434  42.336   2.650
45209W        W13614  44.268  38.012  10.698
45210W        W13615  32.527  37.043  12.060
45211W        W13616  39.546  22.468  14.294
45212W        W13617   7.665  11.572  11.974
45213W        W13618  35.771   1.389   4.446
45214W        W13619  14.773  21.667   1.715
45215W        W13620  37.545  10.368  14.742
45216W        W13621   2.073  27.524  13.389
45217W        W13622  28.005   0.027   4.758
45218W        W13623  40.582  16.431  13.959
45219W        W13624  13.222  28.331  13.714
45220W        W13625  36.831  43.203  11.103
45221W        W13626  11.799  20.100   1.211
45222W        W13627   2.249  42.853  14.224
45223W        W13628  39.782  42.462   2.270
45224W        W13629   3.189  34.214   1.174
45225W        W13630  28.716  18.240   0.503
45226W        W13631   3.038  29.037   1.800
45227W        W13632   6.367   6.259   1.410
45228W        W13633  10.366   6.773  12.092
45229W        W13634  16.078  25.139  10.361
45230W        W13635   0.339  35.617   2.845
45231W        W13636  39.984  23.759  13.584
45232W        W13637  10.277   8.211  10.692
45233W        W13638  23.072  20.555  12.306
45234W        W13639  11.738  27.144  13.977
45235W        W13640  38.870  27.051   3.879
45236W        W13641  14.916   5.114  12.406
45237W        W13642   3.466  34.431   3.378
45238W        W13643  26.522  14.086   4.242
45239W        W13644  13.710  14.457   5.004
45240W        W13645  42.997  44.485   0.096
45241W        W13646  42.040  24.408   2.259
45242W        W13647  26.435  41.733   2.526
45243W        W13648  11.746  42.266   4.034
45244W        W13649  31.533  34.029  11.856
45245W        W13650  18.376  16.292   4.217
45246W        W13651  12.287  43.844   1.475
45247W        W13652   4.299  34.322  13.801
45248W        W13653  15.579  41.838  12.486
45249W        W13654   5.837  13.086  12.792
45250W        W13655  26.790  15.235  12.079
45251W        W13656  36.922  21.544  12.576
45252W        W13657  28.918  21.244   3.066
45253W        W13658  27.672  27.097  14.149
45254W        W13659  37.946  33.374   2.146
45255W        W13660  27.360  31.020  14.395
45256W        W13661  39.186  12.694  14.167
45257W        W13662   7.070  37.128   1.161
45258W        W13663   2.114  43.479   1.296
45259W        W13664  26.689  15.806   1.378
45260W        W13665  30.887  42.428  11.167
45261W        W13666   4.616   2.814   1.423
45262W        W13667  28.486  33.215   4.808
45263W        W13668   4.294  20.555   1.710
45264W        W13669   0.607   8.761   4.442
45265W        W13670  15.759  36.509  12.291
45266W        W13671   8.518   0.577  10.526
45267W        W13672  14.867  42.068  11.598
45268W        W13673  17.350  33.729  11.030
45269W        W13674  40.994  36.991   2.809
45270W        W13675  40.965  39.468   4.595
45271W        W13676   8.744  19.878   1.683
45272W        W13677  35.010   3.485   0.068
45273W        W13678  24.134  12.173   0.495
45274W        W13679  13.515  31.217  14.411
45275W        W13680  44.346   1.857  12.595
45276W        W13681  26.625  30.129  11.079
45277W        W13682   8.652  36.445   2.175
45278W        W13683  28.230  30.571   5.240
45279W        W13684  42.055  35.350   0.797
45280W        W13685  22.699  43.934  13.948
45281W        W13686  25.911   9.941  11.384
45282W        W13687   0.876  21.108   1.264
45283W        W13688  38.104  20.690  14.570
45284W        W13689   2.821  12.623   3.303
45285W        W13690   8.242  39.257   0.708
45286W        W13691  29.152  30.549  12.824
45287W        W13692  29.388  24.544  11.617
45288W        W13693   2.448   5.786   1.759
45289W        W13694   4.020  12.244   3.106
45290W        W13695  22.641  10.304  12.590
45291W        W13696  34.905  12.091   2.708
45292W        W13697  38.256  44.215  13.530
45293W        W13698  44.218  37.748  11.874
45294W        W13699  21.095   5.243  14.747
45295W        W13700  36.367  35.703   0.002
45296W        W13701   2.045  43.117  11.093
45297W        W13702  21.817  18.834   2.791
45298W        W13703  37.629   3.538  12.478
45299W        W13704  37.939  34.301  12.599
45300W        W13705  40.353  35.891   4.677
45301W        W13706  39.917  28.516  11.493
45302W        W13707   6.614  40.658   2.404
45303W        W13708  28.099  36.276  14.370
45304W        W13709  19.101  19.071  11.367
45305W        W13710  39.123   4.650   0.538
45306W        W13711  20.290   0.726  11.947
45307W        W13712  16.786  43.647  13.426
45308W        W13713   0.911  30.894   0.971
45309W        W13714  28.415  42.013  13.981
45310W        W13715  20.680  13.736   4.200
45311W        W13716   4.336   0.246  12.139
45312W        W13717  33.112   3.503  11.477
45313W        W13718  36.195   2.916   0.855
45314W        W13719   4.719  12.251   4.129
45315W        W13720  23.949  38.956  10.869
45316W        W13721   3.911   3.659  12.826
45317W        W13722  44.064  36.028   0.394
45318W        W13723  43.404  23.542   3.616
45319W        W13724  17.199  23.958   3.689
45320W        W13725  28.979  42.981   9.922
45321W        W13726  39.836   3.868  13.428
45322W        W13727   3.673  29.692  14.397
45323W        W13728  21.999  34.599  12.078
45324W        W13729   3.702   3.589  13.914
45325W        W13730   9.640  16.804  13.369
45326W        W13731  25.310   2.263  10.546
45327W        W13732  41.442   3.505   4.961
45328W        W13733  44.478   3.900  11.395
45329W        W13734   3.326  20.204  12.311
45330W        W13735  23.638  32.690  12.462
45331W        W13736  44.285  27.021   2.476
45332W        W13737  44.205  21.371   2.704
45333W        W13738  30.963  12.240  13.312
45334W        W13739   3.962   1.775  13.775
45335W        W13740  23.292  13.207   1.313
45336W        W13741  38.864  20.579   0.259
45337W        W13742  29.173  36.168  13.949
45338W        W13743  21.861   2.833  11.396
45339W        W13744  24.397  36.814   1.749
45340W        W13745  38.533  16.196  11.290
45341W        W13746  40.566  40.796  14.083
45342W        W13747  18.970  31.075  11.329
45343W        W13748   1.790  13.261   0.420
45344W        W13749  29.918  28.181  11.526
45345W        W13750   1.567   4.797  13.625
45346W        W13751   0.422  23.008   1.710
45347W        W13752  15.202   5.510  13.732
45348W        W13753  20.621  42.995   0.624
45349W        W13754  12.351  13.770  14.976
45350W        W13755   2.898  30.990   1.675
45351W        W13756  13.633  27.897   2.125
45352W        W13757  38.807  18.724  10.013
45353W        W13758  32.482  19.315   4.166
45354W        W13759   2.803  15.330  11.187
45355W        W13760  33.509   5.414   3.301
45356W        W13761  32.070  34.886  11.559
45357W        W13762  31.916   6.022   4.903
45358W        W13763  24.222  11.771   5.146
45359W        W13764  28.504   1.386  10.565
45360W        W13765  19.373  34.572  13.764
45361W        W13766  44.692   7.213  13.032
45362W        W13767  44.726   7.984   5.116
45363W        W13768  12.777  13.165   3.415
45364W        W13769  11.265  38.053  10.817
45365W        W13770  25.935  32.093   4.803
45366W        W13771  24.886  16.590   1.764
45367W        W13772  40.544  28.093  14.011
45368W        W13773   6.947  25.717  13.139
45369W        W13774  19.625  25.186   3.569
45370W        W13775   4.494  22.398   9.997
45371W        W13776  13.190  17.480   2.338
45372W        W13777   4.849  11.411  13.401
45373W        W13778   0.389   5.070   4.132
45374W        W13779  35.083  21.678  14.729
45375W        W13780  17.353   7.441   5.122
45376W        W13781   2.341  20.527   3.877
45377W        W13782  35.394   5.228   1.158
45378W        W13783  29.136  44.401   0.340
45379W        W13784  10.744   4.207  10.670
45380W        W13785  27.529  17.424   2.868
45381W        W13786   2.134  24.815  12.554
45382W        W13787  25.173  36.723  12.664
45383W        W13788  11.616  29.330   2.223
45384W        W13789  21.500  23.819   0.959
45385W        W13790  39.329  16.899   4.627
45386W        W13791  17.388   9.734   3.156
45387W        W13792  28.965  26.992   2.673
45388W        W13793  32.742  34.559   4.454
45389W        W13794  26.513  28.945   3.884
45390W        W13795  28.117  21.025   3.699
45391W        W13796  32.523  28.574   1.572
45392W        W13797  27.884  36.114   3.625
45393W        W13798  22.853  34.040   1.847
45394W        W13799  36.152  39.593   0.415
45395W        W13800   6.829  11.101  13.512
45396W        W13801  19.258  31.165   0.756
45397W        W13802  36.089  36.226  14.375
45398W        W13803  15.063  35.346  10.802
45399W        W13804  11.174   6.685  13.144
45400W        W13805  37.559   5.271   5.079
45401W        W13806  35.649  41.183  10.496
45402W        W13807  12.612  39.892   4.704
45403W        W13808  15.133  24.024   3.734
45404W        W13809  27.489  24.533   1.590
45405W        W13810   0.298  30.537   1.563
45406W        W13811  14.736  10.111   0.340
45407W        W13812  19.309   9.685  14.066
45408W        W13813  12.701  19.477   4.496
45409W        W13814  11.374  30.963   1.190
45410W        W13815  17.338  39.944   4.046
45411W        W13816   7.914   9.366  13.885
45412W        W13817  15.017  11.310  12.485
45413W        W13818  13.777   6.835   0.475
45414W        W13819   9.682  19.104   0.921
45415W        W13820  33.041  32.143   0.288
45416W        W13821  10.683  23.712  11.724
45417W        W13822  15.153  34.370   4.718
45418W        W13823  32.882  13.526  14.295
45419W        W13824   2.611  30.218  11.717
45420W        W13825  19.828   8.488  10.415
45421W        W13826  43.440  25.479  12.001
45422W        W13827  35.432   0.482   4.116
45423W        W13828  41.252   8.415  13.382
45424W        W13829  19.488  29.708   2.942
45425W        W13830  16.824  18.242   3.647
45426W        W13831   1.277  11.604  14.302
45427W        W13832   0.565  14.770   0.732
45428W        W13833  44.808  36.945  11.169
45429W        W13834  31.038  15.356  13.640
45430W        W13835  28.542  33.221  10.963
45431W        W13836   3.942  16.883   3.713
45432W        W13837  12.651  25.155   2.374
45433W        W13838   0.935  20.198  12.614
45434W        W13839  41.435   1.953   1.401
45435W        W13840  21.680  41.046  11.122
45436W        W13841  31.979  41.031  12.902
45437W        W13842   8.901  14.005   2.182
45438W        W13843  20.082   6.836   3.488
45439W        W13844  30.127  37.726   3.803
45440W        W13845  17.287  29.476   1.766
45441W        W13846  14.555   7.370  14.788
45442W        W13847  19.069  10.161   0.849
45443W        W13848  24.598  42.236  11.638
45444W        W13849  44.919  33.591  11.064
45445W        W13850  35.058   8.861  14.797
45446W        W13851  17.462   6.359   9.892
45447W        W13852  41.601  34.469  11.138
45448W        W13853  28.203   4.902   2.227
45449W        W13854  40.851  41.340   4.588
45450W        W13855  20.616   4.195   2.721
45451W        W13856  15.798  40.082  14.450
45452W        W13857   4.001  22.777  13.822
45453W        W13858   7.667  11.587   1.958
45454W        W13859  39.784  13.775   3.824
45455W        W13860  15.834  13.320   0.276
45456W        W13861   0.386  42.316  11.852
45457W        W13862   0.818  27.181   0.409
45458W        W13863  15.251  23.498   1.027
45459W        W13864  21.706  16.829   0.384
45460W        W13865  18.215   5.227  13.418
45461W        W13866   5.292   5.862   3.163
45462W        W13867   9.128  20.000   3.754
45463W        W13868  24.790  20.958  13.365
45464W        W13869  19.874  21.860  11.458
45465W        W13870  22.733  36.840   4.253
45466W        W13871  18.487  35.422   4.075
45467W        W13872  19.458  20.479  12.860
45468W        W13873  35.843  38.614  12.022
45469W        W13874  11.541  43.299  13.403
45470W        W13875  38.952  36.354  11.198
45471W        W13876  13.392  39.606  13.546
45472W        W13877  17.996  43.444   1.009
45473W        W13878  29.987  32.119  13.499
45474W        W13879   4.721  26.078   4.638
45475W        W13880  14.593  40.139  10.745
45476W        W13881  23.256  39.056  14.860
45477W        W13882  23.527  28.462  11.145
45478W        W13883  11.792  41.946  12.432
45479W        W13884  27.720  17.612   3.739
45480W        W13885  31.839  20.748  12.586
45481W        W13886  22.258   5.841  13.693
45482W        W13887  21.230  42.592  14.014
45483W        W13888  32.635  23.336   1.863
45484W        W13889  40.584   8.601  10.592
45485W        W13890  38.568  41.721   3.697
45486W        W13891  16.516  18.628  10.624
45487W        W13892  43.096  30.509  12.566
45488W        W13893  18.136  11.031  14.280
45489W        W13894  23.486   1.976   2.827
45490W        W13895  14.670  39.507  13.997
45491W        W13896  10.127   6.694   4.150
45492W        W13897  17.343  17.349   3.771
45493W        W13898  16.063   0.861  13.633
45494W        W13899  19.242   4.013   3.362
45495W        W13900  23.770  10.137  10.507
45496W        W13901  34.243   5.220   4.428
45497W        W13902  35.650  16.040   1.777
45498W        W13903   0.552  15.234   4.524
45499W        W13904  37.400  35.933  12.035
45500W        W13905  21.977  21.317   1.719
45501W        W13906  44.445  14.752  10.985
45502W        W13907   0.760  16.638  14.591
45503W        W13908  32.586  44.287   3.631
45504W        W13909  24.078  42.756  10.459
45505W        W13910  18.240   5.923  13.754
45506W        W13911  29.441   0.355  14.475
45507W        W13912  13.377  10.360   0.910
45508W        W13913   3.320  10.581   0.294
45509W        W13914  44.055  29.205   3.159
45510W        W13915   1.830  11.745   4.447
45511W        W13916  38.407  11.524  14.267
45512W        W13917   2.284  28.840  13.966
45513W        W13918  14.356  14.158  10.742
45514W        W13919  44.088   7.734  12.584
45515W        W13920  22.091  19.145  11.957
45516W        W13921  10.797  30.027   3.624
45517W        W13922  23.388  38.348   2.474
45518W        W13923  44.788  23.436  10.722
45519W        W13924  16.827  22.782  13.381
45520W        W13925  34.838  31.202   3.664
45521W        W13926  34.429  38.793  11.914
45522W        W13927  20.508  19.795  12.528
45523W        W13928  36.065  17.017   4.871
45524W        W13929  18.342  28.115  13.802
45525W        W13930   6.402  39.663  12.178
45526W        W13931  22.104  38.557  12.495
45527W        W13932  12.966   2.310  12.218
45528W        W13933   5.421  29.122  10.636
45529W        W13934   3.287  28.160   3.073
45530W        W13935  41.022  11.962   2.398
45531W        W13936  21.677  12.631   1.502
45532W        W13937  21.107  14.526  12.096
45533W        W13938  19.524   5.063   1.240
45534W        W13939  33.658  34.509  14.529
45535W        W13940  14.673  12.758   2.703
45536W        W13941  36.976  26.526  14.761
45537W        W13942  12.864   4.283  13.533
45538W        W13943  18.310  29.568   1.969
45539W        W13944  30.228  30.918   0.413
45540W        W13945  42.399  42.269  11.101
45541W        W13946   1.361   0.398  14.822
45542W        W13947  40.898  17.699  14.309
45543W        W13948  25.616  19.653  10.696
45544W        W13949  42.766  32.087  13.791
45545W        W13950  24.674  24.244  14.061
45546W        W13951  21.009  29.901   4.661
45547W        W13952  39.073  42.359  10.722
45548W        W13953  26.431  41.887  10.728
45549W        W13954   2.787   8.376   1.800
45550W        W13955  29.124  35.854   2.392
45551W        W13956  43.045  23.123   1.897
45552W        W13957  30.234  33.121   2.927
45553W        W13958  17.939  22.005   1.692
45554W        W13959  43.471  37.387   1.708
45555W        W13960  15.285  12.227   1.660
45556W        W13961  11.391  14.848   4.616
45557W        W13962  32.989   8.615  12.304
45558W        W13963  33.169   2.794   2.890
45559W        W13964  31.593  28.220   1.354
45560W        W13965  23.486   4.945  12.034
45561W        W13966  42.924  17.535  13.575
45562W        W13967  28.422   4.867  14.319
45563W        W13968  18.710  36.823   4.915
45564W        W13969  41.818  26.124   3.104
45565W        W13970  32.186  25.250  11.793
45566W        W13971  17.214   1.030  11.730
45567W        W13972   9.294  33.199  12.061
45568W        W13973  43.225  14.142   0.904
45569W        W13974  29.430   3.908  13.088
45570W        W13975  21.548  23.624  12.173
45571W        W13976   3.979  19.975  14.046
45572W        W13977  29.422  24.057   4.174
45573W        W13978  27.853  19.142  10.753
45574W        W13979   1.825  17.144  10.492
45575W        W13980  20.030  38.476  14.881
45576W        W13981  33.629  33.365  12.181
45577W        W13982   4.820  14.888   1.629
45578W        W13983  37.358  25.507  13.595
45579W        W13984  43.894  20.188   5.086
45580W        W13985   5.198  25.585  11.728
45581W        W13986   8.164  22.740   3.241
45582W        W13987   7.858   3.475   0.969
45583W        W13988  40.331  31.401   0.854
45584W        W13989   5.130  18.757   4.608
45585W        W13990  38.935  10.887  12.868
45586W        W13991  34.923  44.341   1.364
45587W        W13992  42.941  36.102   3.562
45588W        W13993  44.858  10.532   3.127
45589W        W13994  32.535  22.212   3.835
45590W        W13995  10.037  37.798   1.350
45591W        W13996   0.453  24.578   1.003
45592W        W13997  22.738   8.682   0.509
45593W        W13998  43.998  12.567  11.212
45594W        W13999   3.358  35.537  14.373
45595W        W14000  42.995  27.727  12.977
45596W        W14001  25.734  33.875   2.859
45597W        W14002   8.578   4.742   1.976
45598W        W14003  30.610  18.625   4.214
45599W        W14004  14.197   1.206   1.164
45600W        W14005  24.615  14.136   4.577
45601W        W14006  14.774  16.567   2.912
45602W        W14007  25.688  19.150  14.948
45603W        W14008  37.554  21.710   4.097
45604W        W14009  33.773  38.025  14.497
45605W        W14010  21.584  39.027  13.362
45606W        W14011  17.901  16.844   2.159
45607W        W14012  37.130  28.455   4.213
45608W        W14013  30.203   4.986   1.752
45609W        W14014   1.828   4.365   3.267
45610W        W14015  41.017  23.258   4.012
45611W        W14016  12.531  14.107   1.313
45612W        W14017  21.654  28.040  12.812
45613W        W14018  25.860  28.467   2.400
45614W        W14019  22.708   4.967  13.540
45615W        W14020  34.701   1.746   0.046
45616W        W14021   3.147  15.641   2.930
45617W        W14022  13.130  13.385  11.435
45618W        W14023  15.207  29.987  13.343
45619W        W14024   1.386   8.724   1.002
45620W        W14025  36.558  27.046  12.631
45621W        W14026  18.178  30.293   1.357
45622W        W14027   8.223   4.893   2.368
45623W        W14028  32.071   2.904   4.166
45624W        W14029  32.439   1.007  13.375
45625W        W14030  36.851  12.763  10.466
45626W        W14031  22.650  41.348   0.235
45627W        W14032  15.027   7.393   2.362
45628W        W14033  34.216  26.220  14.170
45629W        W14034  25.700  23.793   4.128
45630W        W14035  33.422   6.688  13.800
45631W        W14036  32.853  21.786   2.339
45632W        W14037   2.295  10.600   4.416
45633W        W14038  31.831  17.049   2.682
45634W        W14039  44.968  29.973   3.390
45635W        W14040  42.966  34.780   3.280
45636W        W14041  23.829  17.118  10.526
45637W        W14042  18.554   0.882  10.002
45638W        W14043  18.161   9.179  12.290
45639W        W14044  39.447  16.162  10.928
45640W        W14045  30.585  16.719   0.984
45641W        W14046   9.730  44.808   1.713
45642W        W14047   6.444  17.355   0.829
45643W        W14048  28.083  27.914   4.984
45644W        W14049   3.850  19.760   4.992
45645W        W14050  38.301  31.597   2.855
45646W        W14051  36.787  23.856   1.780
45647W        W14052  37.366  32.112  11.309
45648W        W14053  34.529  20.712   2.823
45649W        W14054  31.147  35.493   1.643
45650W        W14055  23.449  44.375  11.135
45651W        W14056   0.308  17.309  13.970
45652W        W14057  38.512  15.203  12.321
45653W        W14058  17.227  40.596   0.391
45654W        W14059  38.911  24.224   4.030
45655W        W14060   4.386  21.780  14.324
45656W        W14061  26.956  42.254   0.388
45657W        W14062  12.254  29.864  13.385
45658W        W14063  43.239  11.623  11.962
45659W        W14064  28.572  35.612  13.728
45660W        W14065   3.209  22.439  11.194
45661W        W14066  36.832  42.305   3.788
45662W        W14067   5.733  12.258  12.320
45663W        W14068  39.492   6.708   1.128
45664W        W14069  21.172  40.562  14.059
45665W        W14070  22.173   0.919   3.699
45666W        W14071  18.484  24.600   3.241
45667W        W14072  16.349  17.216  10.621
45668W        W14073  16.133  15.115  11.666
45669W        W14074  23.564  29.477  13.287
45670W        W14075  44.031   2.806  10.718
45671W        W14076  19.029  14.128  12.864
45672W        W14077  40.967  36.091   1.537
45673W        W14078  35.811  16.668  10.801
45674W        W14079   1.198  31.316   0.244
45675W        W14080  44.271   2.024  14.288
45676W        W14081  35.781  21.100   4.489
45677W        W14082   1.052  19.642  12.462
45678W        W14083  11.554  16.743  10.144
45679W        W14084  26.372  17.819   2.540
45680W        W14085  41.942  26.986  12.575
45681W        W14086   2.351  41.071  13.005
45682W        W14087  19.910  20.002   3.181
45683W        W14088  16.182  15.489   9.884
45684W        W14089  19.993  18.617   1.309
45685W        W14090  26.628   3.367  12.982
45686W        W14091  32.673  38.232  11.345
45687W        W14092  27.827   9.156   0.755
45688W        W14093  29.687  27.429   4.881
45689W        W14094  35.453  11.536   2.269
45690W        W14095  18.643   9.331  13.474
45691W        W14096   1.692  34.377   0.815
45692W        W14097  21.996  42.017   0.347
45693W        W14098  14.268  17.715  10.917
45694W        W14099  28.687  30.955  10.520
45695W        W14100  10.081  30.525  11.600
45696W        W14101  22.205   1.288  10.547
45697W        W14102  21.723  40.071   2.178
45698W        W14103  12.210  13.699   1.280
45699W        W14104   7.140   7.466   1.485
45700W        W14105  19.313  31.731  14.411
45701W        W14106  21.986  41.546  13.722
45702W        W14107  35.596  16.761  13.529
45703W        W14108  14.197  17.207  14.894
45704W        W14109  30.863  21.711  12.750
45705W        W14110   9.328  36.032   3.217
45706W        W14111  30.859  43.395   2.580
45707W        W14112   9.778  31.933  14.409
45708W        W14113  33.274  42.484  11.244
45709W        W14114  13.571  22.666   1.819
45710W        W14115   3.983  21.605  12.807
45711W        W14116  11.952  15.273  11.041
45712W        W14117  16.949  18.008   5.210
45713W        W14118   9.726   9.031  12.957
45714W        W14119  42.229  35.629  12.068
45715W        W14120  19.683   7.302   3.280
45716W        W14121   1.173   6.064  12.894
45717W        W14122  12.824  10.258   2.381
45718W        W14123  32.920  44.366  11.103
45719W        W14124  40.619  36.360   4.835
45720W        W14125  18.631  14.356  11.148
45721W        W14126  14.143   6.552   3.622
45722W        W14127  40.414  29.020   4.063
45723W        W14128  15.931   5.761   4.481
45724W        W14129  39.160  11.608   0.039
45725W        W14130  10.822  23.745   2.173
45726W        W14131  38.494  42.384   3.768
45727W        W14132  41.836  26.795   0.952
45728W        W14133  11.822  30.343  13.831
45729W        W14134   2.791  20.863   4.096
45730W        W14135   0.021  12.612  12.875
45731W        W14136   5.403  17.469  10.849
45732W        W14137   4.234   7.213  14.390
45733W        W14138  28.616  12.187   2.177
45734W        W14139   1.840  43.677   4.139
45735W        W14140  26.200  36.790   2.121
45736W        W14141  21.527   0.019  11.980
45737W        W14142   1.209  42.911  11.195
45738W        W14143  40.301   9.806   1.269
45739W        W14144  25.570  23.043   2.259
45740W        W14145  40.380  28.736   0.230
45741W        W14146  10.452  16.528  12.585
45742W        W14147  11.536  23.040   2.209
45743W        W14148   2.557   7.864  10.695
45744W        W14149  18.249  12.847  13.222
45745W        W14150  22.223   7.280  12.057
45746W        W14151  30.967  43.489   1.990
45747W        W14152   2.616  36.962   2.261
45748W        W14153  32.552  18.889  14.276
45749W        W14154  27.015  44.312   1.720
45750W        W14155  12.731   7.888   0.492
45751W        W14156  15.811   3.200  12.930
45752W        W14157  23.993  19.572   3.681
45753W        W14158  40.454  13.438   2.912
45754W        W14159  22.523  37.977  11.086
45755W        W14160  44.380  31.476  11.825
45756W        W14161  11.082  20.847  13.880
45757W        W14162  10.417  14.325   3.411
45758W        W14163  19.300   5.161  14.539
45759W        W14164   4.318   2.823  14.545
45760W        W14165  13.634  37.611  11.193
45761W        W14166   2.243  24.593  12.077
45762W        W14167  31.950  16.663  10.068
45763W        W14168  40.007  26.404   5.292
45764W        W14169  37.149  20.024   2.901
45765W        W14170  25.170  17.995   1.491
45766W        W14171  17.107   3.410   3.707
45767W        W14172  43.121  26.483   4.306
45768W        W14173  39.482  36.944  11.536
45769W        W14174  35.080  27.850   4.257
45770W        W14175   2.541  15.951   4.158
45771W        W14176  33.911   8.940   4.113
45772W        W14177   7.246  41.333  10.686
45773W        W14178  20.054   3.366  13.168
45774W        W14179  23.634  23.564   1.014
45775W        W14180  38.479  35.646   3.664
45776W        W14181  28.239  11.303  11.970
45777W        W14182  11.761   0.359  14.522
45778W        W14183  30.384   7.280  13.020
45779W        W14184  24.515  12.551  10.306
45780W        W14185  41.501  20.628   3.698
45781W        W14186   5.900   9.822  12.085
45782W        W14187   7.334  38.115   4.573
45783W        W14188  38.903  31.571   0.248
45784W        W14189  34.467   9.845  11.369
45785W        W14190  25.887  14.533  12.515
45786W        W14191  42.889  42.750  14.431
45787W        W14192  19.576  26.705  11.518
45788W        W14193  11.897  39.005  10.833
45789W        W14194  27.129  10.848   4.198
45790W        W14195  20.048   3.679  10.571
45791W        W14196  25.905  14.767  13.439
45792W        W14197  10.294  23.082   1.191
45793W        W14198  32.251  40.031   3.399
45794W        W14199  39.624  15.622  14.434
45795W        W14200  15.622  25.605   1.763
45796W        W14201  10.768  18.032  13.920
45797W        W14202  34.149  16.220   1.836
45798W        W14203  29.600   4.732  13.487
45799W        W14204  18.118   8.762   0.062
45800W        W14205  30.335   7.535  14.970
45801W        W14206  19.511  29.383  11.193
45802W        W14207   5.253  22.186   2.255
45803W        W14208  42.535  36.815   1.744
45804W        W14209  24.805  32.757  14.855
45805W        W14210  24.004  22.794   4.938
45806W        W14211  23.609  35.793   2.721
45807W        W14212  31.263  34.341   3.272
45808W        W14213  36.088  13.896  11.202
45809W        W14214  30.147  29.537   4.684
45810W        W14215  21.468  10.811  12.014
45811W        W14216   0.431  14.200  10.739
45812W        W14217  38.558   1.951   0.284
45813W        W14218  38.383  25.767   2.026
45814W        W14219  28.087  36.130  10.780
45815W        W14220  36.940  25.830  10.709
45816W        W14221  26.452  21.118  12.706
45817W        W14222   8.259  43.770   4.614
45818W        W14223  24.216  10.365  11.732
45819W        W14224   6.853   9.348   0.587
45820W        W14225  40.868   3.641  11.987
45821W        W14226  42.897  21.650  11.961
45822W        W14227  25.549  36.111  10.221
45823W        W14228  43.517  37.229  10.743
45824W        W14229   5.321  29.052  14.882
45825W        W14230   1.424  13.727  10.886
45826W        W14231  16.085   5.618  12.225
45827W        W14232  15.730   1.355   2.193
45828W        W14233  33.053  24.166  11.149
45829W        W14234  23.632  43.714   3.817
45830W        W14235   2.896  39.564  12.022
45831W        W14236  11.429  18.375   0.440
45832W        W14237  37.960  33.945  10.775
45833W        W14238   0.714   8.915   2.367
45834W        W14239  44.379   3.404  13.113
45835W        W14240  11.655  22.362   4.921
45836W        W14241  39.524  17.172   1.725
45837W        W14242  15.304  25.641   2.260
45838W        W14243  37.714   0.398   4.613
45839W        W14244  27.149  27.708   3.644
45840W        W14245   5.687   4.592   1.691
45841W        W14246  24.004  13.014  13.834
45842W        W14247   5.238  24.464   1.889
45843W        W14248  22.584   8.383   4.230
45844W        W14249  21.060  36.478   0.468
45845W        W14250  41.929  39.454  10.550
45846W        W14251  33.735   1.642  11.489
45847W        W14252  28.144   5.651  14.243
45848W        W14253   8.474   3.272  13.726
45849W        W14254  43.317  15.996   2.374
45850W        W14255  19.165  13.169  13.037
45851W        W14256  36.368  22.051  12.840
45852W        W14257  27.188  11.214   3.617
45853W        W14258  12.807  38.546   2.753
45854W        W14259   3.465   2.061  11.528
45855W        W14260  35.428  24.423   2.617
45856W        W14261   0.824  43.941  12.714
45857W        W14262   4.244  34.904  10.345
45858W        W14263  13.160   1.874  11.571
45859W        W14264  25.838  24.560   1.908
45860W        W14265  25.653  24.209   2.891
45861W        W14266  25.660   5.381  11.888
45862W        W14267  24.036  43.869  10.889
45863W        W14268  29.084  20.177  13.496
45864W        W14269  25.883  17.950   9.877
45865W        W14270  35.409  12.668  11.015
45866W        W14271  32.172  37.206   1.827
45867W        W14272  20.534  23.324  13.519
45868W        W14273  35.959  37.973  10.698
45869W        W14274  32.562   0.760  10.138
45870W        W14275  35.102  30.003   0.400
45871W        W14276   8.798  31.494   3.867
45872W        W14277  36.011  22.044   2.743
45873W        W14278   0.501  21.251  11.239
45874W        W14279  16.156  40.772  11.283
45875W        W14280   8.199  10.708   2.733
45876W        W14281  40.566  12.679   4.547
45877W        W14282  10.924  24.577  12.502
45878W        W14283  23.304  37.480   5.518
45879W        W14284  20.676  21.508  14.368
45880W        W14285  27.541  44.589  11.997
45881W        W14286  21.715  40.872   4.301
45882W        W14287   1.390  36.381  14.262
45883W        W14288  32.498  30.848  13.315
45884W        W14289  29.737  37.884   1.890
45885W        W14290  21.581  16.673   4.116
45886W        W14291   3.149  34.273   4.356
45887W        W14292  37.001   7.159  12.457
45888W        W14293  24.655  17.878  14.377
45889W        W14294  41.071  15.112  11.162
45890W        W14295  13.133   3.182   2.778
45891W        W14296  18.808   0.169  14.856
45892W        W14297  34.137  20.242  12.103
45893W        W14298   3.235   8.751  14.517
45894W        W14299  23.813  26.115   4.594
45895W        W14300  26.176  27.471   0.254
45896W        W14301  17.780  13.778  14.067
45897W        W14302  27.714  37.413   0.853
45898W        W14303  21.119  11.474  10.259
45899W        W14304  18.725  21.678  11.168
45900W        W14305   8.003  12.211   3.200
45901W        W14306  26.794  34.472   2.376
45902W        W14307  16.795  38.708   2.401
45903W        W14308  38.545  20.083  11.140
45904W        W14309  15.273  18.307   0.375
45905W        W14310  13.935  18.838  14.947
45906W        W14311   5.270  44.018   4.189
45907W        W14312   3.397  25.238  11.505
45908W        W14313   2.038  36.792   3.351
45909W        W14314   1.759  17.559  13.912
45910W        W14315  36.103   7.201  12.904
45911W        W14316  25.559  27.811  14.368
45912W        W14317  38.799  26.037  11.528
45913W        W14318  28.766  25.998   3.468
45914W        W14319  10.573  20.718  10.740
45915W        W14320  21.274  40.653   1.845
45916W        W14321  12.902  31.939  12.879
45917W        W14322  41.893  44.345  13.603
45918W        W14323  26.802  30.594  14.887
45919W        W14324   4.649   2.896   0.907
45920W        W14325  24.834  23.009   2.209
45921W        W14326  32.940  36.646  14.288
45922W        W14327  33.925  13.157   0.487
45923W        W14328  27.015  17.058  14.254
45924W        W14329  20.232  23.806   2.157
45925W        W14330  23.705  36.817   0.352
45926W        W14331  13.339  28.420  12.398
45927W        W14332  15.968   4.208   4.176
45928W        W14333  23.928  22.022  12.513
45929W        W14334  10.170  41.858   4.739
45930W        W14335  37.537   8.344  14.955
45931W        W14336  21.472  20.600  14.393
45932W        W14337  36.345  44.258   3.290
45933W        W14338  40.454  20.043   4.834
45934W        W14339  29.558   7.379   2.786
45935W        W14340  38.412  39.501   0.236
45936W        W14341  14.261  21.704  14.905
45937W        W14342   7.325  22.247  10.845
45938W        W14343   8.587  13.093   4.482
45939W        W14344  16.209  29.089  14.760
45940W        W14345  42.914  14.998  14.526
45941W        W14346   2.375  18.575  11.592
45942W        W14347  14.203   8.255   0.841
45943W        W14348   2.761  23.898   2.185
45944W        W14349  23.927  27.642  13.013
45945W        W14350  31.915   0.519   4.254
45946W        W14351   8.421  41.489  12.210
45947W        W14352  10.704  40.061   3.190
45948W        W14353  43.848  25.802  12.504
45949W        W14354  40.134  29.192  13.517
45950W        W14355  20.125   2.722  11.554
45951W        W14356  34.608  36.592   3.264
45952W        W14357  14.573  14.246  14.871
45953W        W14358  29.415  12.877  10.268
45954W        W14359   3.692  25.700  11.945
45955W        W14360   1.026  28.523  12.995
45956W        W14361  39.569  33.531   0.240
45957W        W14362  19.325   8.820  11.976
45958W        W14363  22.713  28.418   2.270
45959W        W14364  37.047  42.003  11.832
45960W        W14365  42.603  29.598  12.403
45961W        W14366  40.917  36.799  12.598
45962W        W14367  12.197  38.554   4.585
45963W        W14368  12.334   3.766  13.968
45964W        W14369  30.592  34.766  13.344
45965W        W14370   5.912  21.623  13.356
45966W        W14371   7.798  28.149  13.834
45967W        W14372  41.646   0.472   4.265
45968W        W14373  30.570  34.051   3.109
45969W        W14374  36.191   6.377   0.327
45970W        W14375   2.275  42.444  13.411
45971W        W14376  24.148   2.308  14.436
45972W        W14377  35.413  24.028   2.975
45973W        W14378  12.040   9.709   3.336
45974W        W14379  13.038   4.136   4.087
45975W        W14380   7.912  14.616  10.287
45976W        W14381  27.595  26.062   4.719
45977W        W14382   2.917  40.474  12.044
45978W        W14383  20.544  20.263   2.781
45979W        W14384  34.445  19.188  13.922
45980W        W14385  37.036  31.530  13.510
45981W        W14386  30.062   5.698   1.290
45982W        W14387  13.629  32.890   0.086
45983W        W14388   4.779  27.541   1.748
45984W        W14389   2.006  18.823   2.266
45985W        W14390  21.313   3.364   9.782
45986W        W14391   0.972  20.586  13.357
45987W        W14392  29.825  37.844  13.538
45988W        W14393  35.812  32.031  13.397
45989W        W14394  29.716  19.480   5.122
45990W        W14395  39.971  34.228  13.275
45991W        W14396  28.151  14.330  13.507
45992W        W14397  24.192  44.134   2.721
45993W        W14398  24.499  27.898  10.672
45994W        W14399  10.886  22.100  13.425
45995W        W14400  26.248  13.720  11.260
45996W        W14401   2.503  38.871   0.093
45997W        W14402   1.773  31.939   2.276
45998W        W14403  12.410  21.142  11.254
45999W        W14404  41.229  20.508   0.978
46000W        W14405  36.757  25.501   0.839
46001W        W14406  25.071   9.721   3.780
46002W        W14407  35.050  18.515  13.837
46003W        W14408  37.835  16.336  11.962
46004W        W14409  14.171  30.498  14.700
46005W        W14410  11.503  28.454  11.177
46006W        W14411   5.383   8.862   2.234
46007W        W14412   9.332  28.625  14.241
46008W        W14413  41.453  23.040   0.099
46009W        W14414  25.183   9.860  11.987
46010W        W14415  37.351  24.659   3.848
46011W        W14416   8.032  27.656   1.344
46012W        W14417   9.712  44.093  14.314
46013W        W14418  28.674   9.065  13.327
46014W        W14419  18.805  32.240   4.150
46015W        W14420  22.294  26.589  10.555
46016W        W14421  10.710  38.871   2.486
46017W        W14422  12.481  36.378   0.354
46018W        W14423  24.979  23.655  12.448
46019W        W14424  37.367  34.016  13.830
46020W        W14425  35.337  25.393  14.469
46021W        W14426  29.926  15.573   0.200
46022W        W14427  26.900  26.107  12.811
46023W        W14428   3.246   5.648  12.082
46024W        W14429  38.839  40.791  14.451
46025W        W14430   0.445  12.628   0.580
46026W        W14431  33.017  15.561  11.498
46027W        W14432   4.143   5.808   4.339
46028W        W14433  13.066  20.833   0.746
46029W        W14434   3.918  40.372   1.846
46030W        W14435  30.409  22.967   0.987
46031W        W14436  25.953  34.531   1.262
46032W        W14437   4.975  20.058   4.634
46033W        W14438   4.419  21.706   2.634
46034W        W14439  40.502   7.685   1.273
46035W        W14440   8.217  14.669   0.314
46036W        W14441  42.828  30.467  11.261
46037W        W14442  23.699  15.010  12.679
46038W        W14443  43.266   6.394  11.121
46039W        W14444  37.222  37.016   0.677
46040W        W14445  32.655  16.638   0.993
46041W        W14446  26.221   4.892  12.021
46042W        W14447  30.826  23.450  10.281
46043W        W14448   6.323  26.063  13.620
46044W        W14449  32.538  42.823  14.018
46045W        W14450  35.348  36.004   4.645
46046W        W14451   8.646   2.363   3.722
46047W        W14452   3.393  44.821  11.964
46048W        W14453   0.653   1.790  13.849
46049W        W14454  21.772  17.617   0.812
46050W        W14455   8.939  10.428  12.065
46051W        W14456  38.312  23.514   1.585
46052W        W14457  44.395  14.265  14.163
46053W        W14458  31.517  40.369  12.564
46054W        W14459  14.323   2.253   2.828
46055W        W14460  17.515  19.800   1.760
46056W        W14461  42.898  41.280   2.234
46057W        W14462  43.892  29.514   1.787
46058W        W14463  17.513   8.757   1.279
46059W        W14464  12.890  26.049  12.043
46060W        W14465  35.680  20.802   3.718
46061W        W14466  16.577   5.153  11.861
46062W        W14467   2.934  21.247  11.270
46063W        W14468  22.465   9.185  14.133
46064W        W14469  33.596   8.502  11.203
46065W        W14470  27.748  40.901  14.683
46066W        W14471  26.614   8.148   2.198
46067W        W14472  35.307  32.651   3.145
46068W        W14473  30.090   1.160   4.810
46069W        W14474  17.435  22.562   0.164
46070W        W14475  12.950  22.130   1.291
46071W        W14476  32.644  38.099  11.917
46072W        W14477  33.919  25.949   3.405
46073W        W14478  17.268  13.876  13.993
46074W        W14479   1.515  10.255   2.286
46075W        W14480  33.596  37.497  12.022
46076W        W14481  26.154  13.551  11.749
46077W        W14482  40.863  16.287  10.685
46078W        W14483  38.805  31.637  12.052
46079W        W14484   0.429  11.340  10.662
46080W        W14485  36.588  23.084  13.892
46081W        W14486  14.283  26.012   3.719
46082W        W14487  14.626   9.984   1.832
46083W        W14488  38.849  25.616  11.040
46084W        W14489  22.303  18.052   3.005
46085W        W14490  18.817  39.781   3.129
46086W        W14491  15.619  43.603  10.906
46087W        W14492  17.386  33.863  11.545
46088W        W14493  22.352  44.528  14.661
46089W        W14494  17.133   7.995  14.562
46090W        W14495  21.657   3.339   4.500
46091W        W14496  17.315  24.774  11.186
46092W        W14497  44.451  11.904  11.844
46093W        W14498   0.944   8.331  14.481
46094W        W14499   2.575  39.296  14.802
46095W        W14500  25.423   5.104   1.378
46096W        W14501   4.621  16.641  11.176
46097W        W14502  31.134  15.525  10.713
46098W        W14503  31.142  24.871  13.441
46099W        W14504  17.827  12.884  14.377
46100W        W14505  33.832   8.681  14.940
46101W        W14506  41.748  28.356  12.884
46102W        W14507  43.689  15.848  10.186
46103W        W14508  23.740  26.061  12.413
46104W        W14509  29.052  23.608   1.686
46105W        W14510  15.266  10.343   1.214
46106W        W14511  42.080   3.337  14.805
46107W        W14512  26.953  35.886   4.292
46108W        W14513  42.848  30.045  13.336
46109W        W14514  29.044  41.516  14.753
46110W        W14515   1.991   6.395  12.031
46111W        W14516   4.919  12.075  14.722
46112W        W14517  33.055  31.072   0.228
46113W        W14518  22.923  21.247  10.088
46114W        W14519  21.998  37.294  11.126
46115W        W14520  14.493  13.152  12.549
46116W        W14521  16.325  13.770  12.356
46117W        W14522  26.656  33.560  13.508
46118W        W14523  28.920  32.637   1.871
46119W        W14524  40.833  39.895   2.446
46120W        W14525  19.563  38.679  11.043
46121W        W14526   4.276  33.679  14.371
46122W        W14527   7.640  10.391  10.579
46123W        W14528  26.580  12.925   3.134
46124W        W14529  29.542   8.139  11.985
46125W        W14530  11.724  40.401  11.888
46126W        W14531  37.876  38.009   2.746
46127W        W14532   5.845   0.567  11.671
46128W        W14533  31.705  16.099   2.182
46129W        W14534  29.965  25.742  12.922
46130W        W14535  36.102  22.118   1.437
46131W        W14536   0.974  30.379   0.945
46132W        W14537  10.170  17.605  13.408
46133W        W14538  31.661  20.567  13.979
46134W        W14539  13.393  18.894   5.006
46135W        W14540  26.938   0.769   2.731
46136W        W14541  10.953  21.245  12.350
46137W        W14542  30.913  14.123   2.741
46138W        W14543  39.300   4.283  10.201
46139W        W14544  23.000  22.804   1.327
46140W        W14545  19.201  40.986   3.851
46141W        W14546  23.124  25.523   3.077
46142W        W14547   0.218   2.795   4.448
46143W        W14548  41.391  20.657  13.816
46144W        W14549  28.264  26.706   3.667
46145W        W14550  43.915  22.630   2.429
46146W        W14551  20.182  40.314  13.502
46147W        W14552  38.728  24.095   0.804
46148W        W14553  32.909  30.147   3.417
46149W        W14554  40.248  16.669   2.218
46150W        W14555  19.038  32.485  13.990
46151W        W14556  33.448  43.451  13.885
46152W        W14557  39.132  43.020   3.294
46153W        W14558   4.182  15.477  11.559
46154W        W14559  39.125  10.632   3.652
46155W        W14560   2.173  38.078  10.873
46156W        W14561  14.607  27.607  14.036
46157W        W14562   7.741  41.006   1.024
46158W        W14563   8.145  25.103   2.453
46159W        W14564   9.578   1.866   1.373
46160W        W14565  33.340  38.838   4.228
46161W        W14566   4.307  36.631  11.198
46162W        W14567  15.591  35.993   0.943
46163W        W14568  12.212  20.896   1.281
46164W        W14569   2.553  31.608  12.871
46165W        W14570   3.041  18.214  14.968
46166W        W14571  19.308   4.045   4.618
46167W        W14572  27.192  35.909  13.694
46168W        W14573  17.115  40.450   2.140
46169W        W14574  35.351  27.182   1.024
46170W        W14575  31.125  16.743  10.166
46171W        W14576  14.732  36.609   3.490
46172W        W14577  29.515  18.405   1.531
46173W        W14578  24.135  17.597  13.859
46174W        W14579  23.980  12.233   0.012
46175W        W14580   0.299  16.093  11.574
46176W        W14581  15.640  37.234  13.602
46177W        W14582  15.540  31.701   0.312
46178W        W14583  27.515   9.929   1.750
46179W        W14584  16.468  26.588  13.145
46180W        W14585  12.044   9.275   2.808
46181W        W14586  13.841  16.890   3.556
46182W        W14587  40.538   6.258   3.154
46183W        W14588   1.166  42.854  11.696
46184W        W14589   2.193  36.989  11.542
46185W        W14590  18.820   7.429  11.654
46186W        W14591  14.688  18.672   2.695
46187W        W14592  41.301  20.744  14.750
46188W        W14593  40.797  42.742   1.217
46189W        W14594  38.059  32.490   2.705
46190W        W14595  35.363  16.119  14.503
46191W        W14596  26.554  36.108  12.077
46192W        W14597   7.331  20.105  14.438
46193W        W14598  37.756   6.155  12.041
46194W        W14599  14.634  29.691  13.524
46195W        W14600  16.664  16.822   1.436
46196W        W14601  29.234  37.170   2.631
46197W        W14602  44.875  38.967  14.287
46198W        W14603  37.364  15.365  12.151
46199W        W14604  42.557  13.079  13.514
46200W        W14605  38.697   3.956  11.712
46201W        W14606   4.121   9.813  13.902
46202W        W14607  14.455  24.981   3.700
46203W        W14608  21.987   2.285   1.848
46204W        W14609  42.300  17.086   3.196
46205W        W14610  14.373  18.081  10.573
46206W        W14611  32.622  10.464   4.136
46207W        W14612  13.742   7.282  10.526
46208W        W14613   6.933  30.131   3.561
46209W        W14614   7.053  17.519   4.379
46210W        W14615  40.519  32.966   0.061
46211W        W14616   8.167  29.650  14.730
46212W        W14617   1.537  29.143  12.459
46213W        W14618  43.779   1.302   0.739
46214W        W14619   6.923  21.141   0.721
46215W        W14620  15.252   0.308   4.116
46216W        W14621   6.555  42.059   3.239
46217W        W14622  26.995  42.162  11.506
46218W        W14623  23.616  17.598  14.550
46219W        W14624  32.375  27.944  14.043
46220W        W14625  10.833  41.702  13.050
46221W        W14626  15.596  20.198   1.712
46222W        W14627  29.592  19.709  11.591
46223W        W14628  25.409  18.780   3.721
46224W        W14629  12.186  39.930   4.391
46225W        W14630   6.490  10.357   3.615
46226W        W14631   6.073  36.946   1.263
46227W        W14632  16.194  37.192   4.113
46228W        W14633  20.205   8.767   0.666
46229W        W14634  21.314  15.615   4.180
46230W        W14635   3.374  38.498  13.089
46231W        W14636  23.074   7.436   2.276
46232W        W14637   1.464  35.212  14.829
46233W        W14638  40.291  36.842   0.180
46234W        W14639  32.978   1.560   0.781
46235W        W14640  38.619  32.333  12.152
46236W        W14641  37.166  18.354   2.271
46237W        W14642  40.820  34.036  11.225
46238W        W14643  19.754  39.925   4.394
46239W        W14644  18.623  25.478  10.627
46240W        W14645  19.247  23.988  12.863
46241W        W14646   4.246  11.243   4.454
46242W        W14647  34.313  18.249   2.486
46243W        W14648  40.999  33.046   0.290
46244W        W14649  12.665  34.420  12.072
46245W        W14650  26.114  32.151   1.330
46246W        W14651  11.874  36.296   4.977
46247W        W14652  37.674  42.247   4.562
46248W        W14653   8.957   5.143   4.956
46249W        W14654   7.870  33.527  14.110
46250W        W14655  39.835  44.597  11.087
46251W        W14656  42.076  23.995  10.804
46252W        W14657  22.266  38.991  13.458
46253W        W14658   4.842   4.309   4.565
46254W        W14659   2.675  28.745   3.571
46255W        W14660  19.278  24.221  13.846
46256W        W14661   5.495   4.204   0.741
46257W        W14662  26.421   1.645   2.900
46258W        W14663  14.052   8.207  11.066
46259W        W14664  35.688   4.242   1.318
46260W        W14665  34.997  12.837   0.267
46261W        W14666  38.338  28.123  11.429
46262W        W14667  43.437  40.831  11.966
46263W        W14668  23.050  39.461   4.779
46264W        W14669  30.080  26.480  12.386
46265W        W14670  11.067   6.770   0.895
46266W        W14671  40.269  20.936  14.820
46267W        W14672   9.100  37.525   1.866
46268W        W14673  15.856  35.550   1.247
46269W        W14674  24.612  19.650  14.840
46270W        W14675  23.597  40.991   1.790
46271W        W14676  40.800  33.522   3.313
46272W        W14677  20.072  32.145   3.652
46273W        W14678  38.537  36.624  11.095
46274W        W14679  17.768  31.945  10.971
46275W        W14680  28.637  22.701  12.377
46276W        W14681   4.465   9.269   0.886
46277W        W14682  42.379  37.053   4.572
46278W        W14683  27.520  25.221   2.167
46279W        W14684   4.944  28.141  10.620
46280W        W14685  33.388  26.445   3.257
46281W        W14686  32.572  10.606  13.279
46282W        W14687  25.434  44.768  14.800
46283W        W14688  11.699   3.169  11.354
46284W        W14689  14.950  44.453  14.989
46285W        W14690  16.057   6.438  12.237
46286W        W14691   2.658  37.382   0.244
46287W        W14692  26.163  20.638  14.424
46288W        W14693  37.194  15.182  13.533
46289W        W14694   1.449  37.121   1.805
46290W        W14695  17.317  23.269  13.409
46291W        W14696  39.455  28.695   2.022
46292W        W14697   5.282  14.164   1.623
46293W        W14698  10.359  38.245  13.266
46294W        W14699  16.335  34.022  14.771
46295W        W14700   1.197  14.107   4.369
46296W        W14701  11.115  33.910   2.840
46297W        W14702  11.765  27.080   0.927
46298W        W14703  26.521  13.575   0.722
46299W        W14704  42.132  26.084  13.028
46300W        W14705  39.160  39.097  14.916
46301W        W14706  25.141  30.882  12.108
46302W        W14707   2.897  23.053  14.126
46303W        W14708   9.680  34.445   4.818
46304W        W14709  13.509   2.546   4.981
46305W        W14710  12.174  39.617  11.471
46306W        W14711  15.578  19.522   3.999
46307W        W14712  17.321  37.608  14.021
46308W        W14713  10.104   4.989   4.974
46309W        W14714  10.173  34.351  10.977
46310W        W14715   2.027  16.745   2.760
46311W        W14716  15.507  17.140   1.764
46312W        W14717  28.765   5.255  14.270
46313W        W14718  32.171  33.693  11.192
46314W        W14719  31.185  43.968   1.882
46315W        W14720   9.230  23.766  12.536
46316W        W14721  33.231  30.988  11.126
46317W        W14722  21.095  21.694  12.631
46318W        W14723  44.454   8.743  14.816
46319W        W14724  27.670   3.167   1.716
46320W        W14725  27.897  13.603   4.445
46321W        W14726   2.810  34.861   4.886
46322W        W14727  19.975  42.031   1.684
46323W        W14728  36.974  36.797  12.593
46324W        W14729  26.551  28.255  11.963
46325W        W14730  16.098  29.646  13.896
46326W        W14731  29.943  23.670  13.878
46327W        W14732  42.081  31.891   4.239
46328W        W14733  41.262   9.691   4.613
46329W        W14734   2.793  21.476  12.900
46330W        W14735  39.474  36.353   2.448
46331W        W14736  29.852   1.025  11.168
46332W        W14737   5.852  40.277   3.745
46333W        W14738  20.268  18.667   1.761
46334W        W14739  21.995  44.589  13.687
46335W        W14740  37.244  15.536  11.677
46336W        W14741  25.062   4.694   4.570
46337W        W14742   8.822  44.989   4.810
46338W        W14743  20.547  21.714   3.804
46339W        W14744  40.181  11.792  12.459
46340W        W14745   9.559  13.285   1.750
46341W        W14746   5.115  16.710  12.008
46342W        W14747  35.010  35.440  13.787
46343W        W14748  35.812  10.706   0.758
46344W        W14749   4.807  34.267  13.600
46345W        W14750  42.553  18.734   4.547
46346W        W14751  26.923  16.416   9.955
46347W        W14752  20.264  10.157  11.929
46348W        W14753  30.069  12.574  14.104
46349W        W14754  42.045   9.872  12.051
46350W        W14755  43.806   2.544  13.808
46351W        W14756  34.617  17.264  11.974
46352W        W14757  31.719   7.647   0.895
46353W        W14758  41.231  44.470  10.839
46354W        W14759  11.590   3.953  13.877
46355W        W14760  31.828  27.648   0.260
46356W        W14761  13.178  31.640  10.426
46357W        W14762  19.241  34.666   0.181
46358W        W14763  12.292  16.580   2.491
46359W        W14764   8.396  18.274   4.833
46360W        W14765  40.677  29.628   2.961
46361W        W14766  44.811  10.261  10.652
46362W        W14767  33.309  36.944  12.953
46363W        W14768   6.247  22.708  12.111
46364W        W14769  43.304  39.935  10.509
46365W        W14770  38.352  21.838   0.503
46366W        W14771  19.104  36.010  10.845
46367W        W14772  42.237  36.539  11.038
46368W        W14773  18.609  16.366  11.613
46369W        W14774   2.852   5.545   2.367
46370W        W14775   8.231  15.115  10.706
46371W        W14776  17.279  17.261  13.536
46372W        W14777  26.621  44.972   2.084
46373W        W14778  41.414  20.988  12.541
46374W        W14779  12.356   4.911   1.887
46375W        W14780   6.578  21.270  14.731
46376W        W14781  26.122  12.531  13.924
46377W        W14782  27.698  14.578  14.046
46378W        W14783  34.260  24.181   2.101
46379W        W14784   1.288  42.488  13.393
46380W        W14785  37.728  28.592  11.799
46381W        W14786  19.683  25.462   0.355
46382W        W14787   0.812  20.754   2.741
46383W        W14788  27.554  20.467  12.052
46384W        W14789  26.426   0.587  11.191
46385W        W14790  24.006  26.167  10.870
46386W        W14791   0.955  32.467  13.306
46387W        W14792   7.730  14.691   0.019
46388W        W14793  32.615  26.645   2.297
46389W        W14794   3.921  41.671   0.129
46390W        W14795  25.715   6.344  13.274
46391W        W14796  33.671  29.674   3.810
46392W        W14797  38.400  14.389  11.194
46393W        W14798  30.043  13.835   2.585
46394W        W14799  42.251  22.049   1.831
46395W        W14800  28.522  11.722   0.115
46396W        W14801  11.338  44.260   4.102
46397W        W14802  33.463  30.685   3.635
46398W        W14803  42.922  25.681  10.701
46399W        W14804  22.935  42.056  12.910
46400W        W14805  19.701  20.494  14.353
46401W        W14806  26.790  44.408   2.714
46402W        W14807  29.565  28.990   3.772
46403W        W14808  24.462   9.227   0.278
46404W        W14809  42.430  12.056  13.343
46405W        W14810  34.867  24.311  14.392
46406W        W14811  10.894  37.884   3.930
46407W        W14812  17.526  37.563   1.414
46408W        W14813  39.972  44.527   4.535
46409W        W14814  16.553  40.883   3.790
46410W        W14815  23.126  44.866   1.400
46411W        W14816  30.462   5.615   3.928
46412W        W14817   4.675  43.607  12.693
46413W        W14818  14.450   0.899  14.176
46414W        W14819  11.340  19.517  12.455
46415W        W14820   0.046  18.667  10.531
46416W        W14821   8.231  39.291   0.175
46417W        W14822  25.089  27.638  13.370
46418W        W14823  44.809  44.976   1.901
46419W        W14824   6.866  11.402   0.003
46420W        W14825  36.625  36.079   2.325
46421W        W14826  17.360   1.318   3.275
46422W        W14827  20.594   4.998   2.327
46423W        W14828   9.103   1.263  10.705
46424W        W14829   5.245   6.110   0.588
46425W        W14830   9.255  18.349   0.387
46426W        W14831  20.795  19.465  12.071
46427W        W14832   7.228  31.841  12.005
46428W        W14833  12.023  19.465  14.018
46429W        W14834  27.488  14.125   4.997
46430W        W14835  33.458  41.426  12.975
46431W        W14836  38.836  23.508   0.947
46432W        W14837  38.849   0.414  13.492
46433W        W14838  24.673  10.280   3.472
46434W        W14839   4.987  22.213   1.802
46435W        W14840  25.826  11.632   4.623
46436W        W14841   2.567  19.229  13.277
46437W        W14842  19.748  20.112   1.375
46438W        W14843  32.248  18.940   2.746
46439W        W14844  37.898  33.146   4.507
46440W        W14845  43.180  22.131   0.694
46441W        W14846   4.239  10.648  11.408
46442W        W14847   0.873  39.929   3.534
46443W        W14848  36.405  44.462  11.915
46444W        W14849  42.550  12.902   4.048
46445W        W14850  40.563   7.159  11.590
46446W        W14851  16.796  10.839  14.849
46447W        W14852   9.913   4.440  12.404
46448W        W14853  41.322   6.872  14.309
46449W        W14854   8.093  43.777  13.851
46450W        W14855  24.908  20.614   0.516
46451W        W14856   7.905   5.929  11.637
46452W        W14857  32.336   8.439   3.296
46453W        W14858  35.411  30.555   4.005
46454W        W14859  44.873  28.538   3.645
46455W        W14860  27.054  17.087  11.830
46456W        W14861   4.689   3.977  10.597
46457W        W14862   3.700  23.902   4.729
46458W        W14863  15.763  21.548   1.484
46459W        W14864  18.066   1.821  10.523
46460W        W14865  39.767  40.129  13.897
46461W        W14866  23.563  11.569   0.894
46462W        W14867  38.472  15.290  12.881
46463W        W14868  32.303  16.230  11.163
46464W        W14869  36.347  25.238  10.226
46465W        W14870  40.048   5.353  12.508
46466W        W14871   1.836  22.199   0.745
46467W        W14872   1.709   9.300  11.195
46468W        W14873  30.002  19.615   3.706
46469W        W14874  11.476   3.452  14.804
46470W        W14875  21.675  42.549  13.007
46471W        W14876   2.629  10.567   3.139
46472W        W14877  23.084  29.433   0.410
46473W        W14878  25.783   2.397   3.580
46474W        W14879  19.099  40.543  12.930
46475W        W14880  41.551  13.145  11.709
46476W        W14881  18.580  36.901  13.557
46477W        W14882  14.592  28.953   1.983
46478W        W14883  13.115  20.051  14.426
46479W        W14884   4.963  10.585   2.737
46480W        W14885  31.603  18.461   2.438
46481W        W14886   3.763   3.823   2.472
46482W        W14887  29.429   8.938   2.715
46483W        W14888  39.867  31.130   0.490
46484W        W14889  42.017  24.272   4.214
46485W        W14890   5.446  38.376  13.413
46486W        W14891  34.890  37.904  11.731
46487W        W14892  18.357  39.815  13.678
46488W        W14893  28.520  14.763   4.650
46489W        W14894  10.667  10.203   2.442
46490W        W14895  12.489  30.947   1.430
46491W        W14896  44.956  34.522  10.889
46492W        W14897  43.345  18.613   2.753
46493W        W14898  13.882  17.301  11.939
46494W        W14899  17.090   5.392  14.749
46495W        W14900  15.164   7.915   4.057
46496W        W14901  18.786  43.560   0.390
46497W        W14902  10.999  35.953   4.065
46498W        W14903   0.036  27.524  12.183
46499W        W14904   8.649  35.014   1.846
46500W        W14905  43.761  24.579  14.962
46501W        W14906   4.467  25.085   0.370
46502W        W14907  41.318  15.291   2.862
46503W        W14908   4.120   4.231  10.052
46504W        W14909   9.579  19.111   1.432
46505W        W14910  43.932  41.608  12.996
46506W        W14911  33.183   8.482  13.503
46507W        W14912  15.497  12.932   1.050
46508W        W14913  25.171  40.359   3.615
46509W        W14914  21.219  23.699   0.132
46510W        W14915  15.011   0.899   0.831
46511W        W14916  44.290   0.291   0.792
46512W        W14917  38.701  38.301   3.212
46513W        W14918  19.624  39.749   2.624
46514W        W14919  12.114   9.249   0.859
46515W        W14920  42.695  27.671   2.220
46516W        W14921  24.677  19.655  13.020
46517W        W14922   0.679  41.037   4.793
46518W        W14923  29.718  11.307   3.839
46519W        W14924  23.459  41.629   2.153
46520W        W14925  16.611  32.353   3.831
46521W        W14926  23.175  30.111  13.816
46522W        W14927  16.083  22.772   1.371
46523W        W14928  22.338  42.419   0.164
46524W        W14929   3.826  21.097   4.841
46525W        W14930  12.545  43.779   4.761
46526W        W14931  41.510  43.937  12.562
46527W        W14932  25.833  16.198  11.982
46528W        W14933  12.957   5.150  14.351
46529W        W14934  38.863   1.387   2.241
46530W        W14935  42.123  14.290   4.605
46531W        W14936  29.634  17.886  13.896
46532W        W14937  44.792   0.557   1.751
46533W        W14938  30.934   3.309  11.489
46534W        W14939   3.492  31.482   2.173
46535W        W14940   2.767   2.894  12.493
46536W        W14941  19.860  42.179   0.075
46537W        W14942   4.888  43.133  14.745
46538W        W14943   9.622  44.064  11.444
46539W        W14944  40.691   3.687  14.730
46540W        W14945  33.984  21.020  11.605
46541W        W14946  18.160   8.355   3.181
46542W        W14947  31.846  39.977   4.334
46543W        W14948  35.424  41.010   3.098
46544W        W14949  11.042  14.399   2.787
46545W        W14950  34.016  11.890  13.937
46546W        W14951  25.166  33.536   0.201
46547W        W14952  33.657  19.717  13.573
46548W        W14953   5.661   5.105   1.738
46549W        W14954  41.469  21.040   4.565
46550W        W14955  18.600  24.015   1.950
46551W        W14956  33.674  13.751  13.893
46552W        W14957  27.148  42.725   4.079
46553W        W14958  21.785   5.145  12.419
46554W        W14959  16.251   5.320   3.763
46555W        W14960  26.477   7.659  14.905
46556W        W14961  22.733  14.364   3.187
46557W        W14962  21.076  41.269   4.625
46558W        W14963  14.338  13.773  14.918
46559W        W14964  22.785  41.019  14.865
46560W        W14965  33.431  29.127  14.830
46561W        W14966   9.856  42.376  10.722
46562W        W14967  36.375  37.531  12.155
46563W        W14968   9.548   3.835   0.320
46564W        W14969   9.944   5.340   2.487
46565W        W14970  24.598  44.309   0.261
46566W        W14971  40.746  33.063   4.088
46567W        W14972  10.197  26.845   1.221
46568W        W14973  18.355  28.563   2.269
46569W        W14974   1.960   0.856  11.228
46570W        W14975  32.226  17.536   1.246
46571W        W14976  30.621  37.787   0.275
46572W        W14977  42.343  44.796  11.888
46573W        W14978  33.965  21.270  13.387
46574W        W14979  20.072  24.828  13.925
46575W        W14980  44.343  19.051   4.549
46576W        W14981  32.300  24.834  14.140
46577W        W14982  44.394   5.914   3.362
46578W        W14983   3.447  22.313  14.586
46579W        W14984  36.517  24.701   4.204
46580W        W14985   0.294  15.467   4.122
46581W        W14986  39.920   8.589  11.607
46582W        W14987  13.815  37.517  10.714
46583W        W14988  27.614  24.674  11.044
46584W        W14989  34.939  13.365   2.089
46585W        W14990  32.828  39.371   3.537
46586W        W14991  13.279  39.454   4.620
46587W        W14992   2.395  31.604  14.133
46588W        W14993  26.412  28.951  11.460
46589W        W14994  21.250  13.177  11.999
46590W        W14995  12.918  15.639  13.006
46591W        W14996  26.783  25.148  14.471
46592W        W14997  39.776  23.668  14.929
46593W        W14998  37.875  29.577  14.374
46594W        W14999   4.300  28.971   4.184
46595W        W15000   5.274  10.829  12.132
46596W        W15001  42.355   7.766   3.696
46597W        W15002  44.422  30.889  13.530
46598W        W15003  28.644  30.610  12.905
46599W        W15004  32.054  13.711  10.835
46600W        W15005  12.400  13.082  14.299
46601W        W15006  27.466  40.530   0.353
46602W        W15007  16.873   7.098  13.594
46603W        W15008   8.327  14.454  12.003
46604W        W15009  28.528  15.688   0.901
46605W        W15010   1.273  18.380  13.907
46606W        W15011  32.911   7.806   2.360
46607W        W15012  38.485  37.605  11.447
46608W        W15013  20.555   4.049  13.567
46609W        W15014  14.340   7.681   1.853
46610W        W15015   5.177   6.768   1.201
46611W        W15016  21.027  15.318   4.535
46612W        W15017   3.745  38.056   3.735
46613W        W15018   5.945   9.208   0.547
46614W        W15019   8.902   7.229   4.376
46615W        W15020  22.249   9.346   0.164
46616W        W15021  25.959  42.004  14.011
46617W        W15022  22.704   2.797   2.167
46618W        W15023   6.205  41.363  13.736
46619W        W15024  42.823  10.835  13.489
46620W        W15025  12.234  33.416  11.534
46621W        W15026  30.636  22.524   0.720
46622W        W15027  41.226  18.671  13.834
46623W        W15028  42.819  15.817  12.027
46624W        W15029   6.133  17.866   4.182
46625W        W15030  42.888   2.290  13.052
46626W        W15031  33.445   7.871   2.001
46627W        W15032   4.006  27.066  12.530
46628W        W15033   4.300   7.206  12.370
46629W        W15034  13.347  41.605   1.748
46630W        W15035  28.731  39.083   4.094
46631W        W15036  14.502  43.535   4.114
46632W        W15037  24.104  41.661  11.067
46633W        W15038  19.824  32.507  14.486
46634W        W15039  41.466  35.996   1.708
46635W        W15040  23.002  36.885   3.144
46636W        W15041   4.810   9.495  10.852
46637W        W15042   3.166  35.492   2.749
46638W        W15043  22.047  11.151  13.234
46639W        W15044  20.857  43.988  11.260
46640W        W15045  43.879  33.040   2.617
46641W        W15046  27.527   1.842   3.698
46642W        W15047  38.604   7.233   1.866
46643W        W15048  43.412  23.485  10.684
46644W        W15049   4.786   4.814   4.738
46645W        W15050  25.042  14.404   3.835
46646W        W15051  31.497   8.851  12.414
46647W        W15052  13.442  28.142   1.666
46648W        W15053   6.820  33.555   2.335
46649W        W15054   4.979  17.101  12.312
46650W        W15055  25.738  15.236   2.953
46651W        W15056  17.560  25.695  12.393
46652W        W15057  37.081  26.219  10.359
46653W        W15058  42.978  23.729  10.428
46654W        W15059  17.533  17.977  13.557
46655W        W15060  21.069  35.304   4.574
46656W        W15061  44.024  21.015  12.470
46657W        W15062  35.533  42.991   3.638
46658W        W15063  35.028  21.634   2.073
46659W        W15064  31.536   7.342  13.276
46660W        W15065  34.659   7.923  12.081
46661W        W15066  27.013  24.095   2.634
46662W        W15067   8.641  26.997   3.259
46663W        W15068   5.490  27.958   0.377
46664W        W15069   4.888  39.807  13.081
46665W        W15070  26.089   9.915  12.215
46666W        W15071  30.825  27.423   0.382
46667W        W15072  40.219  18.454   1.262
46668W        W15073  21.940  16.248   2.448
46669W        W15074  39.639   4.620   0.363
46670W        W15075  40.873   5.475   3.318
46671W        W15076   7.968   8.405  13.841
46672W        W15077  30.454  16.681   1.864
46673W        W15078  37.654   7.237  14.568
46674W        W15079  32.411  32.568   1.856
46675W        W15080   9.817  24.189   3.093
46676W        W15081  30.398  15.296  14.982
46677W        W15082  28.958  30.572  13.309
46678W        W15083  25.490   5.365   3.748
46679W        W15084   6.848  27.970   0.245
46680W        W15085  30.096  28.882  10.538
46681W        W15086   6.892  43.215  14.938
46682W        W15087  39.450  33.088  13.537
46683W        W15088  27.384   6.803  10.774
46684W        W15089  24.655   7.181  14.502
46685W        W15090  20.213   8.853  10.986
46686W        W15091  22.662  14.547   1.417
46687W        W15092  29.910  29.030  14.917
46688W        W15093  39.903  16.737   4.406
46689W        W15094   1.898  10.184   1.874
46690W        W15095  43.456   3.132  12.672
46691W        W15096  23.371  25.959  11.525
46692W        W15097   3.394  35.819   2.161
46693W        W15098   0.822   0.961  11.883
46694W        W15099   7.277  13.543  13.842
46695W        W15100  25.795   4.951  10.691
46696W        W15101  13.676  18.602   4.675
46697W        W15102  24.524  32.579   0.971
46698W        W15103  29.435   3.486   2.315
46699W        W15104  37.649   1.477  12.029
46700W        W15105  30.931  12.534  12.457
46701W        W15106  27.204  11.759   1.959
46702W        W15107  42.673   3.971  13.480
46703W        W15108   3.301  13.824   1.353
46704W        W15109  34.857  26.254   1.698
46705W        W15110  26.893  12.331   2.711
46706W        W15111  29.482  36.308   2.527
46707W        W15112  20.194  31.801   4.106
46708W        W15113  26.177   0.867  13.024
46709W        W15114  30.865   5.226  11.162
46710W        W15115  42.383  35.722  14.560
46711W        W15116  32.584   5.915  12.474
46712W        W15117   1.851   8.680  12.619
46713W        W15118  22.440  28.057   3.598
46714W        W15119  41.052  11.205   1.378
46715W        W15120  14.217  27.922   0.298
46716W        W15121  34.756  25.077   2.302
46717W        W15122  16.598  44.030  11.573
46718W        W15123   7.941  24.194   4.993
46719W        W15124  44.718  31.943   3.135
46720W        W15125  18.237   7.095   0.578
46721W        W15126  42.719  16.128  11.589
46722W        W15127   0.005  37.615   1.804
46723W        W15128  37.529  29.402  12.818
46724W        W15129  20.970  40.809   3.236
46725W        W15130  44.520   4.207  14.450
46726W        W15131  15.705  33.657  13.118
46727W        W15132  37.350  38.300   3.278
46728W        W15133  20.624  39.873  10.561
46729W        W15134  27.050  21.076  11.885
46730W        W15135  33.967  10.081   3.240
46731W        W15136   3.148  41.926   5.007
46732W        W15137   4.399   5.177  14.896
46733W        W15138  20.113  34.454  14.232
46734W        W15139  17.544  26.597  11.258
46735W        W15140  15.150  16.872   2.671
46736W        W15141  24.974  42.253  14.324
46737W        W15142  41.231  22.619  14.860
46738W        W15143   6.974  35.348   0.290
46739W        W15144   9.938  16.317   2.715
46740W        W15145  30.602  14.505   4.311
46741W        W15146  24.318  33.064  12.348
46742W        W15147  43.118   2.992  14.424
46743W        W15148  11.688  29.747   2.756
46744W        W15149   5.718   0.832  14.809
46745W        W15150   7.720  36.512   0.473
46746W        W15151   3.296   0.589   2.351
46747W        W15152  11.641  27.973  12.288
46748W        W15153   0.889   8.268  12.598
46749W        W15154  35.374  43.773   3.232
46750W        W15155   0.841  23.815   2.476
46751W        W15156  28.972  44.396   3.125
46752W        W15157  40.066  41.594   3.813
46753W        W15158  27.890  21.520  11.475
46754W        W15159  20.065  33.459  12.171
46755W        W15160   9.974   0.852  12.617
46756W        W15161   4.794   3.328  12.404
46757W        W15162  18.103  24.686   1.394
46758W        W15163   9.030  13.197   0.212
46759W        W15164   1.206  16.571   1.419
46760W        W15165  12.599  38.728   0.185
46761W        W15166  18.086   5.959   3.600
46762W        W15167  36.312  10.776  12.622
46763W        W15168  16.794  22.639  13.872
46764W        W15169  42.900  34.859   1.472
46765W        W15170  15.149   2.854   2.325
46766W        W15171   5.707  32.437  11.136
46767W        W15172  29.390  20.749  14.511
46768W        W15173  42.941   7.895   3.040
46769W        W15174  36.135  15.486   4.922
46770W        W15175   4.398  41.763  11.082
46771W        W15176  38.938  42.758   4.595
46772W        W15177   6.767  23.263   1.300
46773W        W15178  31.029  38.584  13.495
46774W        W15179  22.493  37.551   2.547
46775W        W15180  31.694  41.545   4.655
46776W        W15181   5.186  23.090   2.735
46777W        W15182   9.740   3.517   0.989
46778W        W15183  37.839  22.050   0.450
46779W        W15184   8.183  30.894  14.555
46780W        W15185   1.891   1.450   1.260
46781W        W15186  35.432  17.329  11.435
46782W        W15187  44.455   1.579   4.615
46783W        W15188  13.275  30.484  14.340
46784W        W15189  15.804  35.665   4.660
46785W        W15190  16.116  10.144   2.782
46786W        W15191  18.361   6.960   1.319
46787W        W15192  30.361   5.457   4.838
46788W        W15193  12.417  43.323  11.201
46789W        W15194  11.212  22.503  12.429
46790W        W15195  40.294   4.523   3.631
46791W        W15196   1.258   9.708  12.039
46792W        W15197  39.012  33.133   2.239
46793W        W15198   4.003  33.608   4.008
46794W        W15199  27.926  15.532  12.561
46795W        W15200  37.508  21.094   1.986
46796W        W15201   7.859  10.363   2.182
46797W        W15202  35.638  16.030  10.430
46798W        W15203   1.908  37.548   0.980
46799W        W15204  22.698   8.430  14.737
46800W        W15205  15.533  16.253   3.335
46801W        W15206   3.797  17.063  13.076
46802W        W15207  31.576  17.123  13.556
46803W        W15208  31.103  37.448  10.633
46804W        W15209  20.242   4.676  12.211
46805W        W15210  11.698  31.078   4.685
46806W        W15211   7.856  42.174   3.875
46807W        W15212  35.034  36.293  12.473
46808W        W15213  28.233  21.659   1.456
46809W        W15214  44.620  24.667  13.176
46810W        W15215  22.998  21.828  13.935
46811W        W15216  30.609  13.041  13.352
46812W        W15217  23.617  12.206   5.013
46813W        W15218  18.638  15.296  12.436
46814W        W15219   4.776  40.837   4.659
46815W        W15220   6.651  21.581   4.137
46816W        W15221  44.023  38.895   2.386
46817W        W15222  28.310  32.916   2.687
46818W        W15223  15.400  37.479   0.380
46819W        W15224  27.836  34.132  14.998
46820W        W15225   1.566  21.585   2.904
46821W        W15226  29.455   6.671   0.781
46822W        W15227  13.552  23.169   2.666
46823W        W15228  42.291  29.998   1.021
46824W        W15229  42.267   0.461   3.612
46825W        W15230  29.418  42.881  12.951
46826W        W15231  11.799  20.457  13.017
46827W        W15232   2.227  24.885   3.234
46828W        W15233  34.021  18.493  13.923
46829W        W15234   5.808  20.984  10.716
46830W        W15235  20.185   2.969   4.835
46831W        W15236  30.990   9.338  13.157
46832W        W15237  20.632  35.054   1.291
46833W        W15238  24.324  24.751   3.751
46834W        W15239  43.781  20.176  13.019
46835W        W15240   4.034  41.361   4.174
46836W        W15241  42.074  23.390  14.376
46837W        W15242  15.820   8.208   1.786
46838W        W15243  33.791  39.531  14.911
46839W        W15244   5.807  37.570   2.671
46840W        W15245  31.875  32.053  14.448
46841W        W15246  37.595  12.860   0.812
46842W        W15247   5.268  23.474   4.924
46843W        W15248   7.731  37.862  14.657
46844W        W15249  39.600  37.759  14.975
46845W        W15250  13.618  21.072  10.707
46846W        W15251  27.120  14.353  13.294
46847W        W15252  18.625  40.973   0.131
46848W        W15253  16.692  14.525  12.019
46849W        W15254  18.781  27.974  12.891
46850W        W15255   7.900  13.042  12.884
46851W        W15256   4.744  39.074   1.852
46852W        W15257  28.442  19.587   3.274
46853W        W15258  17.118  33.496  14.774
46854W        W15259  25.167  40.607   0.317
46855W        W15260  41.385   9.220  12.952
46856W        W15261  10.199  38.314  11.902
46857W        W15262  22.763   5.214  13.083
46858W        W15263  20.480  30.911  12.398
46859W        W15264  22.011  41.250  11.527
46860W        W15265   2.626  24.347  14.414
46861W        W15266  39.421  33.229  10.568
46862W        W15267  20.677  18.306   2.878
46863W        W15268  42.253  13.013   3.594
46864W        W15269   7.339  20.545  13.457
46865W        W15270   9.166  21.496  12.106
46866W        W15271  31.954  35.622   3.248
46867W        W15272  10.315  16.838  14.732
46868W        W15273  16.105  43.012  12.309
46869W        W15274  11.273  11.848  14.474
46870W        W15275  15.014  38.554  14.001
46871W        W15276  36.675   7.925   4.406
46872W        W15277   0.717  38.854   4.321
46873W        W15278  21.839  17.598  10.364
46874W        W15279  22.578   1.855   3.846
46875W        W15280   1.890   1.860   3.416
46876W        W15281  18.867  24.564  12.058
46877W        W15282   0.835  24.061  10.998
46878W        W15283   6.675  34.020   0.220
46879W        W15284   6.276  27.755   3.266
46880W        W15285  23.543  41.903   4.728
46881W        W15286  26.079   2.416   4.409
46882W        W15287  37.398  44.702  12.539
46883W        W15288  21.127   0.329  14.340
46884W        W15289   4.013  25.336  12.125
46885W        W15290  16.724   2.770   1.923
46886W        W15291  22.983  23.550  13.723
46887W        W15292  41.849  44.810  13.314
46888W        W15293   7.167  43.781   4.075
46889W        W15294   8.234  39.032  10.744
46890W        W15295  20.060  42.457   3.161
46891W        W15296  26.882  39.523  12.304
46892W        W15297  21.534  31.051  13.970
46893W        W15298  12.221  18.954   0.421
46894W        W15299  14.601  41.983   1.766
46895W        W15300  25.134   9.241   4.905
46896W        W15301   8.790  15.013   4.571
46897W        W15302  17.147  37.935   1.296
46898W        W15303   0.897  38.398   0.021
46899W        W15304   6.109  36.912  14.345
46900W        W15305  18.517  15.619   1.446
46901W        W15306  40.274  21.474  10.986
46902W        W15307   6.869   0.528   3.691
46903W        W15308  39.405  43.882   3.040
46904W        W15309  40.027  44.543   3.811
46905W        W15310  22.634   5.784  12.368
46906W        W15311  22.416  40.906  10.726
46907W        W15312  13.284   7.618  11.678
46908W        W15313  37.305  30.381   2.402
46909W        W15314  19.110  13.234  14.375
46910W        W15315  42.442  14.801  14.554
46911W        W15316  14.718  39.835  11.149
46912W        W15317   6.499  36.496   3.342
46913W        W15318  36.574  22.266   4.645
46914W        W15319  32.136  21.159   0.224
46915W        W15320  18.656  13.223  11.913
46916W        W15321   1.134  18.655  13.496
46917W        W15322  18.710  37.058   1.922
46918W        W15323  25.302   1.309  10.650
46919W        W15324  29.604   4.896   3.325
46920W        W15325  34.809  16.824   3.026
46921W        W15326  19.098  29.627   0.838
46922W        W15327   2.391  27.707   2.146
46923W        W15328   2.366  18.553   1.663
46924W        W15329   5.493  24.560  14.888
46925W        W15330  15.278  27.813   1.899
46926W        W15331  27.054  43.503  13.081
46927W        W15332  11.957  40.280   0.733
46928W        W15333  19.225   5.904  12.883
46929W        W15334  17.247  39.534  12.839
46930W        W15335   6.926  14.220  14.888
46931W        W15336  20.999   0.911   1.050
46932W        W15337  20.492  12.085   2.750
46933W        W15338  35.604  28.506   2.305
46934W        W15339  43.970  12.856  12.610
46935W        W15340  38.102  36.526  13.310
46936W        W15341  27.128  10.541  11.108
46937W        W15342  10.924  15.783   5.118
46938W        W15343  15.642  25.559  10.571
46939W        W15344  34.863  15.911   0.194
46940W        W15345  17.135  34.768   3.787
46941W        W15346  27.079   4.927  10.858
46942W        W15347  35.013  42.770  10.636
46943W        W15348   8.486  36.530  12.099
46944W        W15349  40.055   8.612   4.699
46945W        W15350  42.393  41.032  14.081
46946W        W15351  27.020  35.599   3.660
46947W        W15352  17.157  33.918  12.850
46948W        W15353  15.218  32.382   1.328
46949W        W15354  22.488  22.026  13.417
46950W        W15355  25.636  27.696   2.011
46951W        W15356  38.284  32.050  14.920
46952W        W15357  41.322  19.553  12.327
46953W        W15358  12.714  30.345  11.419
46954W        W15359  32.177   4.553   1.615
46955W        W15360  24.099  19.839  13.568
46956W        W15361   4.819  29.586   4.810
46957W        W15362   7.219  19.258  12.990
46958W        W15363   0.364   8.370  12.754
46959W        W15364   2.401  14.163  11.536
46960W        W15365  41.744  39.600   0.416
46961W        W15366  16.246  32.718   1.762
46962W        W15367  13.264   3.710   3.810
46963W        W15368  39.910   1.161  11.948
46964W        W15369  18.817  10.720   0.448
46965W        W15370   1.644  35.914  14.304
46966W        W15371  34.036  13.110  11.517
46967W        W15372  39.531  16.411   3.260
46968W        W15373  25.500  25.798   3.709
46969W        W15374  42.000  20.681   2.167
46970W        W15375  19.747  17.212   0.100
46971W        W15376   4.899  21.398   3.163
46972W        W15377  42.868  39.770   0.949
46973W        W15378  18.833  37.005  12.056
46974W        W15379  32.609  26.363  13.371
46975W        W15380  23.066  28.727  11.141
46976W        W15381  43.933  35.411  10.989
46977W        W15382   1.024   7.552   1.360
46978W        W15383  20.221  38.960  14.732
46979W        W15384   1.014  14.645   0.535
46980W        W15385  15.125  34.401  13.566
46981W        W15386  10.736  16.076   4.438
46982W        W15387  27.592  29.146   3.318
46983W        W15388  10.214   8.729  10.761
46984W        W15389   9.204  21.576  13.528
46985W        W15390   1.840  41.737   2.625
46986W        W15391   0.575  15.015   1.201
46987W        W15392  33.748  43.579   2.953
46988W        W15393  34.719   5.342   2.675
46989W        W15394  36.952  11.702  13.663
46990W        W15395   1.878  40.839  13.027
46991W        W15396  36.731  21.403   4.132
46992W        W15397  32.539  24.897  12.873
46993W        W15398  14.390  35.031   4.813
46994W        W15399  35.971  32.113  12.916
46995W        W15400  36.401  41.930  13.051
46996W        W15401   1.381   0.210  12.079
46997W        W15402   7.794   1.835  10.432
46998W        W15403  26.541   4.298  12.606
46999W        W15404  22.691  33.840   4.717
47000W        W15405  35.354  14.053  12.460
47001W        W15406  10.599  29.585   3.816
47002W        W15407  32.987   6.400   0.043
47003W        W15408  39.870  40.240   4.203
47004W        W15409  13.276  22.591   4.836
47005W        W15410  18.303   5.867  11.972
47006W        W15411  24.703  35.825   1.912
47007W        W15412  21.623  17.378   9.779
47008W        W15413   4.351  13.775   1.339
47009W        W15414   4.418  35.498  13.065
47010W        W15415  17.748   7.806   0.265
47011W        W15416  18.516  19.194   1.533
47012W        W15417  11.315  26.713  14.401
47013W        W15418   1.419  30.274   0.351
47014W        W15419  10.397  30.499   5.002
47015W        W15420  15.426  28.764   2.824
47016W        W15421   2.043  41.086   0.414
47017W        W15422  15.025  14.657  13.460
47018W        W15423  23.500  40.784   2.263
47019W        W15424  23.743  41.845  13.233
47020W        W15425  30.876  32.019  12.643
47021W        W15426  30.068  37.957  12.654
47022W        W15427  26.440  36.021   4.191
47023W        W15428   4.307  34.947   2.226
47024W        W15429   3.796  40.382  11.949
47025W        W15430  20.666  16.599  13.556
47026W        W15431  15.774  42.510  14.443
47027W        W15432  12.600   5.912  11.121
47028W        W15433  42.258  30.222   3.550
47029W        W15434  29.081   0.341   3.500
47030W        W15435  34.546   0.934  14.535
47031W        W15436  10.874  34.998  14.585
47032W        W15437  43.487   2.386   0.386
47033W        W15438  44.736   5.446   0.783
47034W        W15439  41.305  43.984  11.007
47035W        W15440  30.191  15.595  13.890
47036W        W15441   2.346  24.587  13.984
47037W        W15442  19.260  20.684  13.561
47038W        W15443  43.244  43.102   1.000
47039W        W15444  39.098  16.775   0.868
47040W        W15445  35.946  40.020  14.868
47041W        W15446  31.537  14.856  14.356
47042W        W15447  25.213  40.457  12.616
47043W        W15448  32.971  32.350   0.802
47044W        W15449  25.036  35.008  14.997
47045W        W15450  13.180  42.095  10.876
47046W        W15451  38.513  38.679  11.904
47047W        W15452   2.662  32.003  13.559
47048W        W15453  24.008   6.155  12.559
47049W        W15454   6.819  41.015   0.916
47050W        W15455  29.501  24.161   0.219
47051W        W15456  43.720  44.701  14.575
47052W        W15457  31.604   3.826   1.155
47053W        W15458  43.255  33.921  12.157
47054W        W15459  33.540  34.316  11.120
47055W        W15460  36.560  34.456  12.484
47056W        W15461  10.872  22.709  14.931
47057W        W15462  11.262  23.095  10.647
47058W        W15463   9.207   0.024   3.321
47059W        W15464  19.151   8.377  14.025
47060W        W15465   1.225  17.777   0.162
47061W        W15466   0.608  36.993  12.259
47062W        W15467   9.486  25.729  11.537
47063W        W15468  16.528  22.935  12.045
47064W        W15469  33.961  26.981  14.470
47065W        W15470  15.113  23.528   4.651
47066W        W15471   8.284   5.795   2.181
47067W        W15472  25.656  29.826  12.998
47068W        W15473  35.872  39.778   1.185
47069W        W15474  22.438   8.943  10.607
47070W        W15475  32.601  29.101  13.386
47071W        W15476  33.537  27.502  13.855
47072W        W15477  20.761  41.014   3.765
47073W        W15478  26.454  32.838  10.881
47074W        W15479  31.823  20.628  13.485
47075W        W15480  11.513  33.509  13.777
47076W        W15481  37.451  22.710   4.989
47077W        W15482  10.026  22.568  10.458
47078W        W15483  15.845  23.073  10.752
47079W        W15484  23.068  16.626   1.581
47080W        W15485  22.560  10.675   4.882
47081W        W15486  34.855  38.224   3.626
47082W        W15487  11.854  23.920   0.182
47083W        W15488  22.439  30.869  11.987
47084W        W15489  31.833  23.514   2.127
47085W        W15490  27.195  38.905   2.246
47086W        W15491  24.238  19.567   3.222
47087W        W15492   2.795  35.138   1.377
47088W        W15493  30.855  40.777   3.554
47089W        W15494  10.795  11.153   4.044
47090W        W15495  15.644  10.872   3.206
47091W        W15496  44.295   5.435  13.370
47092W        W15497  13.661   0.832  13.266
47093W        W15498  10.602  43.875   2.549
47094W        W15499  25.918  44.101   2.804
47095W        W15500  24.153  20.546  10.596
47096W        W15501  32.542  28.842   0.231
47097W        W15502  19.713  34.246  13.512
47098W        W15503  12.306  21.148  14.458
47099W        W15504   8.891   1.359   1.934
47100W        W15505  19.284   3.416   4.534
47101W        W15506  40.337  32.697  11.872
47102W        W15507  35.560  35.542   4.546
47103W        W15508  22.184  22.687   1.921
47104W        W15509  43.395  36.099  13.471
47105W        W15510   7.131  29.826   4.767
47106W        W15511   6.784  36.088  12.131
47107W        W15512   7.454  11.302   4.510
47108W        W15513   9.930  37.532   3.153
47109W        W15514  24.882  41.785  11.705
47110W        W15515  41.389  30.224  13.003
47111W        W15516  23.832  31.118  12.239
47112W        W15517  32.494  13.681  14.722
47113W        W15518  22.418  24.502   5.092
47114W        W15519  32.704  10.683   0.920
47115W        W15520  43.394   3.392   0.354
47116W        W15521   8.717  35.390  10.800
47117W        W15522   3.483  11.872  12.437
47118W        W15523  23.710  12.772  10.769
47119W        W15524  32.405  16.002   3.781
47120W        W15525  32.812  39.471   4.046
47121W        W15526  31.422  26.529  14.028
47122W        W15527  13.147  27.626   4.340
47123W        W15528  31.119  21.751  11.936
47124W        W15529  41.554  32.982  12.467
47125W        W15530   9.210  36.551  13.927
47126W        W15531  43.028  33.731   2.294
47127W        W15532  23.176   9.363   2.660
47128W        W15533  25.607  23.944   3.338
47129W        W15534  14.116   1.528  12.328
47130W        W15535   6.622  14.601   4.831
47131W        W15536  44.933  44.452  11.472
47132W        W15537   3.735  30.479  13.069
47133W        W15538  37.415  18.170   2.695
47134W        W15539  28.585  32.160  13.909
47135W        W15540   5.614   5.088  11.298
47136W        W15541  32.094   8.292  14.871
47137W        W15542  14.805  17.416  14.827
47138W        W15543  17.696  14.153   3.580
47139W        W15544   8.366  12.130   1.168
47140W        W15545  36.083  23.581  12.950
47141W        W15546  27.135  26.536   1.775
47142W        W15547  37.032  24.569  13.957
47143W        W15548  38.465   8.178  13.960
47144W        W15549  32.917  26.119  14.589
47145W        W15550  21.974  21.545  14.329
47146W        W15551   1.485  25.864  10.660
47147W        W15552   8.075  39.020  13.837
47148W        W15553  30.107  37.094   2.544
47149W        W15554  12.729  39.452  13.350
47150W        W15555  42.454  25.252   0.287
47151W        W15556  20.622  35.407  11.682
47152W        W15557  16.419  30.580   3.804
47153W        W15558  19.648  21.232   2.399
47154W        W15559  16.741   3.867  12.426
47155W        W15560  12.724  44.338  14.467
47156W        W15561  35.052   7.368   1.986
47157W        W15562  28.685  34.588   2.127
47158W        W15563  22.893   9.830  10.520
47159W        W15564  30.423   4.191   4.168
47160W        W15565  34.493  26.160   0.258
47161W        W15566  32.603  23.853  14.430
47162W        W15567  21.045  43.564  11.996
47163W        W15568   0.648  35.979  14.262
47164W        W15569  13.045  34.021  10.222
47165W        W15570  10.153   8.790  12.029
47166W        W15571  36.250  37.444  10.759
47167W        W15572  29.555  38.004  11.102
47168W        W15573  33.898  31.364   2.813
47169W        W15574  24.163   2.769   4.162
47170W        W15575  22.276  44.861   1.446
47171W        W15576  12.352  14.199   4.415
47172W        W15577  22.820  39.728   3.736
47173W        W15578   8.084  39.557  13.797
47174W        W15579   7.712  26.048   4.294
47175W        W15580  10.626   7.654   0.771
47176W        W15581  15.993  29.602  13.116
47177W        W15582  23.724   6.305   1.293
47178W        W15583  18.257  35.353  14.932
47179W        W15584  39.901  11.369   2.090
47180W        W15585  37.049  34.343   4.256
47181W        W15586   8.109  40.892  10.479
47182W        W15587  15.836  31.144   4.204
47183W        W15588  26.217  27.097   3.656
47184W        W15589  10.298   3.264   4.843
47185W        W15590  11.118  30.654   1.516
47186W        W15591  24.357   9.241   2.771
47187W        W15592   0.036  22.223   2.166
47188W        W15593   7.819  35.916  13.801
47189W        W15594  16.336  24.151  13.896
47190W        W15595   5.340  11.174   4.240
47191W        W15596  39.234  33.920   0.332
47192W        W15597  26.029  37.914   3.172
47193W        W15598   5.332  42.835   4.220
47194W        W15599  40.487  31.195   4.569
47195W        W15600  31.920  23.800  11.461
47196W        W15601  40.766  17.530   1.941
47197W        W15602  19.549  28.787  11.571
47198W        W15603  28.199  27.912  12.155
47199W        W15604  37.616  20.303   4.863
47200W        W15605   0.874  23.478  12.522
47201W        W15606  44.097  25.554   0.931
47202W        W15607  26.111  35.353  12.983
47203W        W15608   3.510  28.430   2.412
47204W        W15609  44.250   4.907  11.066
47205W        W15610  42.517  43.524   0.952
47206W        W15611   8.427  35.980  11.637
47207W        W15612  36.829  35.608  10.804
47208W        W15613  38.837  24.378   1.227
47209W        W15614  36.365   9.729   4.311
47210W        W15615  35.416   8.917   0.731
47211W        W15616  12.147  41.799   2.711
47212W        W15617  36.119  18.753  14.726
47213W        W15618  26.661  39.629   0.844
47214W        W15619  39.825  13.192  12.972
47215W        W15620  16.149  18.544   4.163
47216W        W15621   4.665  34.956   3.857
47217W        W15622  12.066  11.619   2.679
47218W        W15623  13.479  35.902   4.916
47219W        W15624  25.846  20.132   3.930
47220W        W15625  17.789   3.263  10.572
47221W        W15626   8.701   8.312  14.580
47222W        W15627  14.322   9.926   2.826
47223W        W15628  29.893  26.586   0.775
47224W        W15629  27.414  32.968  13.599
47225W        W15630  21.976   6.314   4.207
47226W        W15631  16.503  20.672   1.976
47227W        W15632  33.875  30.559  12.922
47228W        W15633   5.684   1.449   2.333
47229W        W15634   5.899  12.743   4.326
47230W        W15635  18.120  35.483  11.163
47231W        W15636  33.386   8.774  13.982
47232W        W15637   1.043  27.404   1.911
47233W        W15638  39.796  42.335   3.185
47234W        W15639  42.748  14.226   2.224
47235W        W15640  21.696   4.256   0.024
47236W        W15641  42.248  21.227  14.047
47237W        W15642  22.206   7.833   0.337
47238W        W15643  17.693  42.475  13.479
47239W        W15644   6.745  12.913   1.457
47240W        W15645  14.288  34.097  14.012
47241W        W15646  28.611  23.742   1.940
47242W        W15647  35.599   3.804  13.241
47243W        W15648  41.442  26.587   0.665
47244W        W15649  27.533   8.708   0.739
47245W        W15650  30.150  10.600   1.355
47246W        W15651  13.720  22.054  14.909
47247W        W15652   5.262  28.726   4.014
47248W        W15653  17.262  34.200   4.916
47249W        W15654  22.777   3.980   4.687
47250W        W15655  25.052  28.868   2.781
47251W        W15656  42.892  41.514  12.032
47252W        W15657   9.340  15.410   0.056
47253W        W15658  22.501   2.393   1.878
47254W        W15659  12.754  11.193   2.262
47255W        W15660   0.284   9.812  11.830
47256W        W15661  19.139  35.308  10.334
47257W        W15662  32.293  13.718  12.545
47258W        W15663  32.494  33.929   1.819
47259W        W15664   3.712   4.284  12.059
47260W        W15665  20.674   0.497  11.686
47261W        W15666  11.624  35.847  11.857
47262W        W15667   0.968  12.631  10.244
47263W        W15668  30.454  17.322  12.951
47264W        W15669  36.577  14.555  14.104
47265W        W15670  23.284  34.716  13.212
47266W        W15671  38.351  17.642  11.513
47267W        W15672  34.396  44.713   3.631
47268W        W15673  17.614  10.726  12.676
47269W        W15674  17.158  24.920   2.057
47270W        W15675   6.010  26.487   0.976
47271W        W15676  30.787  14.955   4.142
47272W        W15677  32.369   2.490   4.347
47273W        W15678   2.617  24.161  13.865
47274W        W15679  37.868  44.863   3.987
47275W        W15680  13.806   4.797   4.803
47276W        W15681  23.747  40.864  14.483
47277W        W15682  13.832  32.820   0.561
47278W        W15683  29.257  11.803   1.970
47279W        W15684   2.758   3.738  12.066
47280W        W15685   5.359  37.027  14.755
47281W        W15686   4.985   1.674  10.899
47282W        W15687  37.210   1.564   3.999
47283W        W15688  32.592  38.719  11.211
47284W        W15689  10.740  42.369   1.290
47285W        W15690  13.142  11.910   4.164
47286W        W15691  38.353  35.550   0.865
47287W        W15692  23.425  42.182  14.167
47288W        W15693  17.180   8.367   1.774
47289W        W15694  33.826   0.167   1.270
47290W        W15695  24.301  38.987   1.780
47291W        W15696  41.325  16.237  13.465
47292W        W15697  26.089   3.942  11.846
47293W        W15698  22.829  31.847   3.223
47294W        W15699  17.618  40.344  11.626
47295W        W15700  37.796   5.917  12.510
47296W        W15701  24.330  19.068  12.504
47297W        W15702   2.713  23.466   0.500
47298W        W15703  35.667   0.952   4.163
47299W        W15704  16.977   5.096  12.812
47300W        W15705  33.778  40.420   2.484
47301W        W15706   6.710  26.483  11.138
47302W        W15707  42.325  29.174  12.342
47303W        W15708  12.039  33.977   1.287
47304W        W15709  42.992  34.062   1.070
47305W        W15710  29.835   6.754  14.398
47306W        W15711  34.734  18.912   0.779
47307W        W15712  38.305   4.981  13.464
47308W        W15713  24.581   3.547   4.628
47309W        W15714   3.831  41.054   2.177
47310W        W15715   2.756  38.054   4.395
47311W        W15716  19.249   6.108  11.153
47312W        W15717  13.457  44.757   4.990
47313W        W15718  15.323  39.613   2.783
47314W        W15719  29.511  15.781   4.623
47315W        W15720  10.127  12.845   3.092
47316W        W15721  42.504  14.601  10.680
47317W        W15722  44.386  39.090  11.321
47318W        W15723  30.711  44.944   4.789
47319W        W15724  31.200  27.483  13.937
47320W        W15725  36.967  10.965   1.300
47321W        W15726  16.051   3.816  14.725
47322W        W15727   5.481  23.589   2.797
47323W        W15728   6.378  39.169  14.861
47324W        W15729  39.078  23.951   3.013
47325W        W15730  32.714  30.626   0.094
47326W        W15731  27.502  32.644   2.932
47327W        W15732  29.389   4.206  14.364
47328W        W15733   0.759  36.308   1.060
47329W        W15734  31.155  40.556  11.907
47330W        W15735  44.911   4.304  13.657
47331W        W15736   2.805  33.959  13.462
47332W        W15737  28.134  10.449   1.323
47333W        W15738  27.064  23.106   4.531
47334W        W15739  28.616  28.668  11.177
47335W        W15740  39.703  27.353  13.432
47336W        W15741   2.115  11.003  14.916
47337W        W15742   8.034  39.978   2.178
47338W        W15743  13.888  38.132  11.288
47339W        W15744  30.169  41.517   2.598
47340W        W15745  20.867  36.477   2.885
47341W        W15746   3.342  23.812  11.581
47342W        W15747  27.602   1.219   2.092
47343W        W15748   6.102  33.281   1.835
47344W        W15749  34.035  44.525  13.433
47345W        W15750  13.200  33.712   0.838
47346W        W15751  41.023   2.078   4.721
47347W        W15752  31.906  21.462  14.675
47348W        W15753  11.105  39.378  12.102
47349W        W15754  41.200  36.623   0.341
47350W        W15755  17.147  37.389   0.977
47351W        W15756  24.484  43.492   4.818
47352W        W15757   5.678   8.832   3.665
47353W        W15758  22.545  23.398  11.072
47354W        W15759  42.521  21.239   3.253
47355W        W15760  21.975  40.971  11.976
47356W        W15761   1.721  15.966  13.451
47357W        W15762   5.913  43.437  13.112
47358W        W15763   4.863   3.723   1.311
47359W        W15764  26.483  27.292  11.155
47360W        W15765  12.718  17.688   3.592
47361W        W15766  37.332  14.781   2.084
47362W        W15767  39.971  38.670  13.069
47363W        W15768  34.020  19.529  13.114
47364W        W15769  14.898   1.758  11.633
47365W        W15770   6.185   7.129   3.341
47366W        W15771  22.686  31.152  11.609
47367W        W15772  38.331  17.633   3.270
47368W        W15773  37.470  30.653  13.630
47369W        W15774  32.565  11.159  11.406
47370W        W15775  11.576  41.594   1.186
47371W        W15776  13.862  17.733  14.968
47372W        W15777  38.054   9.942  12.564
47373W        W15778  32.475  24.714  11.651
47374W        W15779  17.040  41.352   2.239
47375W        W15780  25.772  34.347  10.786
47376W        W15781  11.742  40.567  10.898
47377W        W15782   6.860   2.849   0.229
47378W        W15783  20.125  27.424   0.283
47379W        W15784  35.039  28.475   2.189
47380W        W15785  26.160  42.569   2.819
47381W        W15786   8.366  34.224  14.270
47382W        W15787  27.636  27.816  11.202
47383W        W15788  10.312  33.505  13.394
47384W        W15789   2.892  37.830  12.066
47385W        W15790   5.062  12.369   3.199
47386W        W15791  29.166  20.296  11.167
47387W        W15792  16.828  13.940   0.897
47388W        W15793  30.447  24.912  13.905
47389W        W15794  19.957  25.213   2.750
47390W        W15795  28.588  41.315  11.737
47391W        W15796  32.924  42.395   0.569
47392W        W15797  37.343  15.068  11.528
47393W        W15798   8.927  14.685  12.147
47394W        W15799   8.788  39.390   2.328
47395W        W15800  21.058   3.479   2.813
47396W        W15801  44.489  28.672   4.346
47397W        W15802   7.050  39.585  11.042
47398W        W15803  17.300  15.716   0.834
47399W        W15804   8.999  11.305   4.560
47400W        W15805   7.174   7.289  13.397
47401W        W15806  29.981  20.235   4.664
47402W        W15807   8.540  39.889   2.315
47403W        W15808   3.161   2.655   2.772
47404W        W15809  15.354  40.340  14.513
47405W        W15810  30.333  29.405  13.252
47406W        W15811  10.637   0.714  11.995
47407W        W15812  35.343   4.072   4.727
47408W        W15813   8.384  11.590   1.236
47409W        W15814  32.865   1.396  13.139
47410W        W15815   8.123  36.644   4.119
47411W        W15816  22.784   4.156  11.122
47412W        W15817   6.176  27.523  10.610
47413W        W15818   1.185  36.786   3.612
47414W        W15819  43.750  30.148  10.961
47415W        W15820  10.626  11.139  13.807
47416W        W15821  30.645  28.688  11.069
47417W        W15822  26.136  42.865   0.015
47418W        W15823   0.269  30.685   4.506
47419W        W15824  32.430  24.514   0.743
47420W        W15825  24.912  18.138  13.162
47421W        W15826  39.878   6.622  11.596
47422W        W15827  44.971  25.108   0.489
47423W        W15828  15.207  19.204   4.156
47424W        W15829  30.391  40.587  12.616
47425W        W15830  26.610  12.259   0.397
47426W        W15831  14.461  12.826  12.000
47427W        W15832  29.781  17.143   0.235
47428W        W15833   3.309   4.842  13.683
47429W        W15834  42.306  24.896   2.319
47430W        W15835  40.952  32.547   4.735
47431W        W15836  24.691  17.705   4.667
47432W        W15837  10.669  11.330   1.637
47433W        W15838   1.640  37.435   1.419
47434W        W15839  38.541  32.160  11.667
47435W        W15840  27.859  16.747  12.653
47436W        W15841   9.232  38.397  14.060
47437W        W15842  36.359  16.250  13.575
47438W        W15843   5.621  42.668  13.314
47439W        W15844  31.029  10.212  12.119
47440W        W15845  37.566  31.895   4.182
47441W        W15846  40.378  22.633  14.497
47442W        W15847  27.546  29.183   0.904
47443W        W15848  30.153  37.933   2.852
47444W        W15849  38.864  19.320   3.879
47445W        W15850   7.373  33.342  12.870
47446W        W15851  32.486   7.100   2.170
47447W        W15852  19.582  13.314  11.872
47448W        W15853  19.122   5.698  13.855
47449W        W15854  31.897  30.814  11.964
47450W        W15855  15.068  11.415  14.328
47451W        W15856  36.521  22.574  13.927
47452W        W15857  14.636   9.917   4.260
47453W        W15858  42.392  35.393   1.229
47454W        W15859   1.469  33.964   2.201
47455W        W15860   1.996  32.133  12.896
47456W        W15861  23.655  14.642  13.594
47457W        W15862  27.029  16.555   1.495
47458W        W15863  38.913  34.331   0.406
47459W        W15864  36.779  20.700   1.155
47460W        W15865  33.010  14.494  14.585
47461W        W15866   9.872   1.010   0.266
47462W        W15867  17.501  12.458  14.412
47463W        W15868  19.047   7.202  12.074
47464W        W15869  28.220  38.516  12.401
47465W        W15870  44.414   1.743   2.104
47466W        W15871  15.995  32.145   4.605
47467W        W15872   5.761  20.557  10.371
47468W        W15873  20.604  11.621   4.071
47469W        W15874  33.611  43.828   2.475
47470W        W15875  43.508  43.970  13.638
47471W        W15876   1.344  21.547  14.469
47472W        W15877   7.201  29.739  11.018
47473W        W15878   7.958   6.821  13.860
47474W        W15879   9.460   7.295  12.690
47475W        W15880  30.884  20.754  12.942
47476W        W15881  31.274   6.418  10.616
47477W        W15882  38.894  37.413  14.210
47478W        W15883  39.551   7.593  10.189
47479W        W15884  31.643  20.490  10.472
47480W        W15885   3.462   8.641   1.348
47481W        W15886  40.387  34.645   4.094
47482W        W15887   5.925  43.387  12.037
47483W        W15888  12.683  43.236   1.360
47484W        W15889  39.980  43.211  12.110
47485W        W15890  28.939  27.834   1.030
47486W        W15891  16.329  10.708  12.583
47487W        W15892  18.519  33.608   4.264
47488W        W15893  42.317  30.367  11.971
47489W        W15894  14.669  26.962   0.941
47490W        W15895  34.534  38.720   3.225
47491W        W15896  32.418  36.846  10.760
47492W        W15897  15.478  38.562  13.351
47493W        W15898  11.801   4.653   0.460
47494W        W15899  40.466  33.162   0.532
47495W        W15900  15.695  39.044   1.607
47496W        W15901  14.816   0.364   3.205
47497W        W15902  24.212  14.702   2.784
47498W        W15903  27.785  12.257  14.608
47499W        W15904  31.061  31.135   2.956
47500W        W15905  38.789  12.835  14.473
47501W        W15906   2.255  28.361  11.126
47502W        W15907  41.338  44.964  11.553
47503W        W15908   6.941   5.895   0.289
47504W        W15909  19.654   1.280  13.602
47505W        W15910  40.441  22.124   4.337
47506W        W15911   7.232  34.501   0.779
47507W        W15912   1.867  22.545  13.117
47508W        W15913   2.569  14.866  11.985
47509W        W15914  13.132  36.477  11.538
47510W        W15915  39.816  13.346   4.576
47511W        W15916  27.587   5.001  12.036
47512W        W15917   8.792   5.887  14.426
47513W        W15918  12.304  41.061  14.242
47514W        W15919  34.358  19.978  13.028
47515W        W15920   7.448  33.609  11.603
47516W        W15921   4.384   4.727  11.071
47517W        W15922  35.637  28.650  12.460
47518W        W15923  33.083  38.342   2.931
47519W        W15924   3.002   7.743  13.067
47520W        W15925  44.943  39.345  14.636
47521W        W15926   2.646  11.088  11.461
47522W        W15927  21.880   7.223   4.532
47523W        W15928  23.901   1.676  12.942
47524W        W15929  18.301   4.640  10.774
47525W        W15930   1.845  16.624  10.420
47526W        W15931  20.260   2.944  11.991
47527W        W15932  17.081   2.970  12.936
47528W        W15933  34.556  35.002  11.532
47529W        W15934  24.384  26.775  14.959
47530W        W15935  24.039  11.643   3.426
47531W        W15936  24.675  13.332  10.748
47532W        W15937  11.404  18.946   3.079
47533W        W15938  30.480   0.709  12.938
47534W        W15939  41.843  15.196  14.227
47535W        W15940  13.463  31.094   1.382
47536W        W15941  12.530  42.492  11.872
47537W        W15942  28.581  37.107   2.367
47538W        W15943  39.807  12.678  12.945
47539W        W15944  40.647  25.650   0.347
47540W        W15945  39.327  18.038   0.429
47541W        W15946  23.604  31.885  13.430
47542W        W15947   3.299  44.482   3.510
47543W        W15948  42.212   4.571   4.937
47544W        W15949  16.532  27.098  11.925
47545W        W15950  37.870  29.517   1.831
47546W        W15951  30.058  39.338   2.761
47547W        W15952  26.289  33.958   3.708
47548W        W15953  24.782   1.266  11.505
47549W        W15954  21.468  28.153  12.353
47550W        W15955  40.745  20.719  14.719
47551W        W15956   9.268  14.436  14.922
47552W        W15957  36.884  33.967   1.627
47553W        W15958  32.989   4.308   1.927
47554W        W15959   5.700  37.235   3.544
47555W        W15960   2.999  22.024  11.560
47556W        W15961  32.017  37.136  14.609
47557W        W15962  16.180  22.229   3.246
47558W        W15963  13.399   3.212   0.258
47559W        W15964  33.187   6.171  11.788
47560W        W15965  38.484  39.397  10.466
47561W        W15966  34.812   2.374  13.937
47562W        W15967  11.790  29.914  10.715
47563W        W15968   7.746  26.859   4.093
47564W        W15969  43.808  42.048   2.366
47565W        W15970  28.332  29.988   4.094
47566W        W15971  15.707  37.567  11.914
47567W        W15972   7.015   2.126  11.477
47568W        W15973  44.571   2.747  13.278
47569W        W15974   3.332  11.633  14.985
47570W        W15975   6.866   1.992  10.566
47571W        W15976  37.799   3.321  13.828
47572W        W15977  39.471  12.635   2.408
47573W        W15978  39.560   1.289   1.255
47574W        W15979  13.041   2.779   0.933
47575W        W15980  25.127  17.394   0.000
47576W        W15981  23.473  27.011  12.626
47577W        W15982   0.242  40.396   2.852
47578W        W15983  36.806  43.469  12.892
47579W        W15984  40.539  19.742   2.856
47580W        W15985  31.443  13.873  11.636
47581W        W15986  34.338  37.337  14.851
47582W        W15987  25.131  23.399   4.184
47583W        W15988  36.583  44.669   1.910
47584W        W15989  16.329  23.071  12.508
47585W        W15990  44.091   5.535  13.824
47586W        W15991  42.004  30.693   3.677
47587W        W15992  24.765  22.656   1.321
47588W        W15993  38.592  43.511  11.168
47589W        W15994  32.461   9.019  14.409
47590W        W15995  26.453  23.747   3.566
47591W        W15996  13.175  38.530   3.617
47592W        W15997  35.343  42.379  12.485
47593W        W15998  23.618  43.454  13.645
47594W        W15999  31.515  30.601   2.417
47595W        W16000  24.137  41.304  12.501
47596W        W16001   0.986   9.185   1.984
47597W        W16002  27.580  43.949   1.414
47598W        W16003  35.470  35.658   3.039
47599W        W16004  41.650  17.840   0.694
47600W        W16005  44.491   8.875  12.469
47601W        W16006  42.701   3.855   2.796
47602W        W16007  42.374   1.247  11.314
47603W        W16008  34.179  10.677   4.731
47604W        W16009  16.611  23.761  14.762
47605W        W16010  33.436  36.765  11.432
47606W        W16011  36.140   0.988   3.279
47607W        W16012   9.084  17.229  10.742
47608W        W16013  31.417  39.593  12.822
47609W        W16014  24.214  27.920   1.936
47610W        W16015  43.930  26.194  10.921
47611W        W16016  17.137   5.642  11.676
47612W        W16017   9.087  42.721  11.617
47613W        W16018   6.183  22.240   0.530
47614W        W16019  20.273  16.929  13.853
47615W        W16020  28.225  19.112  14.687
47616W        W16021  12.198  40.374   4.110
47617W        W16022  12.813  11.245   0.833
47618W        W16023  23.558  10.745   0.486
47619W        W16024  25.979  14.509   1.334
47620W        W16025  39.022  16.025   4.579
47621W        W16026   0.897  39.067   2.427
47622W        W16027  15.327  17.401  12.450
47623W        W16028  26.352  26.219   1.485
47624W        W16029  21.596  16.929  11.753
47625W        W16030  29.846  15.227  14.826
47626W        W16031   6.253  36.468   0.387
47627W        W16032  14.189  31.633   4.601
47628W        W16033  12.079   8.372   4.678
47629W        W16034  23.817  39.037   2.852
47630W        W16035  25.119  17.612   4.380
47631W        W16036  30.413  21.737   2.100
47632W        W16037  13.664   9.450   0.123
47633W        W16038   4.325  41.947  14.277
47634W        W16039  33.117  41.923   1.793
47635W        W16040  44.841  21.112   4.524
47636W        W16041  22.173  20.401  14.934
47637W        W16042  12.239  19.070   4.193
47638W        W16043  15.175  21.995  11.804
47639W        W16044   8.189   7.322  12.073
47640W        W16045  24.095   5.989  11.206
47641W        W16046  27.567  36.977   4.056
47642W        W16047   3.809   2.387   0.498
47643W        W16048   3.153  21.930  14.833
47644W        W16049  19.049  27.513   2.553
47645W        W16050  31.302  28.652   3.161
47646W        W16051  12.563  43.515   2.860
47647W        W16052  14.167  17.858   0.361
47648W        W16053  41.879  20.133   2.232
47649W        W16054  24.541   9.705   2.621
47650W        W16055   3.119  17.191   4.123
47651W        W16056  32.661  30.874   0.535
47652W        W16057  42.650  43.941   4.466
47653W        W16058  25.087  11.979   0.353
47654W        W16059  27.354  42.336  14.546
47655W        W16060  18.368  37.267  12.832
47656W        W16061  27.143  23.490   2.009
47657W        W16062  22.383  40.559   2.357
47658W        W16063  22.227  27.467  14.919
47659W        W16064  30.393   1.488  14.383
47660W        W16065  22.258  25.288   2.370
47661W        W16066  29.463  32.915  11.312
47662W        W16067  11.141  33.648   1.745
47663W        W16068  39.535  42.544  14.895
47664W        W16069  39.920   1.788  10.695
47665W        W16070   9.350  12.721   4.673
47666W        W16071  32.955  37.361   2.756
47667W        W16072  42.599   5.531   0.395
47668W        W16073  13.380  12.647   3.612
47669W        W16074  24.579  30.161  14.653
47670W        W16075  35.402  38.249  11.396
47671W        W16076  30.530  30.485   4.879
47672W        W16077  33.856  10.403  14.951
47673W        W16078  11.813   7.156   2.699
47674W        W16079  17.269  31.902   1.812
47675W        W16080  44.497   1.435   3.262
47676W        W16081  32.046  43.412   3.742
47677W        W16082  21.756   6.676  11.516
47678W        W16083  26.426  39.945   1.768
47679W        W16084  34.898  25.232  14.677
47680W        W16085  27.602  22.300   3.614
47681W        W16086  21.763   3.696  13.966
47682W        W16087  42.210   0.880  10.496
47683W        W16088  25.956  40.813   3.786
47684W        W16089   1.653  37.883  12.336
47685W        W16090  11.341  44.358   4.602
47686W        W16091  13.742  14.552   2.509
47687W        W16092  23.626   4.879  13.933
47688W        W16093  12.415  24.949  14.730
47689W        W16094   3.706  16.308   2.703
47690W        W16095  26.967  16.082  10.729
47691W        W16096  19.111  37.628   2.371
47692W        W16097  40.844  38.165  11.981
47693W        W16098  32.151   2.500   2.460
47694W        W16099   2.058   4.847   3.353
47695W        W16100  11.806  10.362  10.344
47696W        W16101   4.901  18.600   2.063
47697W        W16102  42.716   6.265  11.086
47698W        W16103  10.163  19.210   2.177
47699W        W16104  30.064  18.729  10.591
47700W        W16105   3.971  21.744  13.739
47701W        W16106  25.950  26.469   1.754
47702W        W16107  10.600  28.094  14.833
47703W        W16108  22.240  36.674   2.421
47704W        W16109  24.509   2.898  11.187
47705W        W16110  38.833   8.258   1.676
47706W        W16111  44.289  18.429  12.515
47707W        W16112  19.280  30.917  12.995
47708W        W16113   3.054  31.797   4.641
47709W        W16114  13.771  29.501   2.108
47710W        W16115  43.325  32.952  13.156
47711W        W16116  40.590  24.404  13.541
47712W        W16117  42.313  33.635  14.438
47713W        W16118  22.050  30.586   2.214
47714W        W16119   5.744  15.071   4.526
47715W        W16120  25.184  34.950  12.798
47716W        W16121  15.543   4.512  12.344
47717W        W16122  34.868  13.458  11.963
47718W        W16123   5.199   4.379   1.687
47719W        W16124  30.917  14.072  10.756
47720W        W16125   4.298  20.647  13.498
47721W        W16126  14.139  35.528  14.783
47722W        W16127  43.246   8.640   1.253
47723W        W16128   8.224   1.220   0.782
47724W        W16129  20.769  13.656   1.767
47725W        W16130  14.810  13.655  14.010
47726W        W16131  41.340  12.662   3.509
47727W        W16132  36.874  12.345   2.799
47728W        W16133   9.668   5.810   4.286
47729W        W16134   8.311   6.524   1.320
47730W        W16135  19.197  34.226  13.431
47731W        W16136  36.503   2.961  10.908
47732W        W16137  16.028  44.211   2.760
47733W        W16138  24.118  41.385  11.995
47734W        W16139  38.854   2.400   0.316
47735W        W16140  32.099  27.117  13.867
47736W        W16141  41.767  16.040  12.131
47737W        W16142  26.929  44.761   3.374
47738W        W16143  28.611  32.985  10.515
47739W        W16144  12.050   1.393  14.473
47740W        W16145  27.241  27.081   0.794
47741W        W16146   7.890  21.239  12.471
47742W        W16147   0.268   7.843  12.943
47743W        W16148  13.157   8.993   3.839
47744W        W16149   1.261   5.699   2.625
47745W        W16150  27.045  20.207   4.235
47746W        W16151  33.518   6.487   1.896
47747W        W16152   4.818  37.172   0.481
47748W        W16153   0.326  38.171  12.674
47749W        W16154  15.745  33.413  14.543
47750W        W16155  11.938  21.170   3.110
47751W        W16156  31.400  33.906   0.782
47752W        W16157  14.803  14.241  14.392
47753W        W16158  38.883  14.794  10.711
47754W        W16159  37.413  34.024   1.863
47755W        W16160  34.963   6.004   1.505
47756W        W16161  28.640  21.504   1.109
47757W        W16162  44.473  41.975  12.581
47758W        W16163   9.092  35.566  11.095
47759W        W16164  31.875   9.279  11.171
47760W        W16165  33.638  18.241  14.855
47761W        W16166  35.851  21.712  10.751
47762W        W16167  25.624   9.116  11.192
47763W        W16168   6.696  22.184   2.131
47764W        W16169  37.981   7.388  12.503
47765W        W16170   9.656  28.250   4.123
47766W        W16171  10.626   1.733   3.704
47767W        W16172  13.483  37.713  12.030
47768W        W16173  32.837   6.944  11.270
47769W        W16174  39.027  39.959  12.063
47770W        W16175  31.969  38.081  13.385
47771W        W16176  40.782  40.160   0.406
47772W        W16177  27.160  27.107   3.113
47773W        W16178  16.983   7.670   4.390
47774W        W16179  28.629  43.305   3.187
47775W        W16180  13.505  40.457  13.859
47776W        W16181  34.579  20.172   0.827
47777W        W16182  42.477  40.417   3.230
47778W        W16183  16.682   7.083   0.485
47779W        W16184  28.039  37.043   1.745
47780W        W16185  25.787  25.125  13.248
47781W        W16186  13.413  14.069  12.121
47782W        W16187   2.942  34.171   0.440
47783W        W16188  41.958  17.408  12.725
47784W        W16189  21.979  44.808   4.132
47785W        W16190  14.329   6.677   0.914
47786W        W16191  21.925  13.796  11.236
47787W        W16192  29.526   3.923   3.245
47788W        W16193   6.321   9.531  12.183
47789W        W16194  36.032   4.320   2.905
47790W        W16195   4.811  30.694  11.571
47791W        W16196  20.448  18.203  14.196
47792W        W16197  41.057   4.266   1.385
47793W        W16198  30.518  11.534   0.925
47794W        W16199  29.600   6.790   1.249
47795W        W16200  19.560  24.824  12.744
47796W        W16201  32.042  11.057  11.258
47797W        W16202  36.852  13.902   2.471
47798W        W16203  27.142  14.876  12.405
47799W        W16204  43.104  42.290   4.091
47800W        W16205  18.244  41.855   1.382
47801W        W16206  44.887  16.884   2.786
47802W        W16207  23.710  35.997  13.094
47803W        W16208  20.854   3.662  10.858
47804W        W16209  21.577   9.927  11.928
47805W        W16210   7.219   1.983  14.496
47806W        W16211  27.209  15.377  12.349
47807W        W16212  12.665  19.238   0.412
47808W        W16213  27.462  33.666  12.996
47809W        W16214  37.550   7.462   4.685
47810W        W16215  38.119  42.238   3.237
47811W        W16216   2.813   6.215  14.375
47812W        W16217  28.098  15.817  14.809
47813W        W16218   1.473   2.732   0.700
47814W        W16219  18.687   5.342   4.066
47815W        W16220  27.227   0.910  14.839
47816W        W16221  35.463  24.126   1.466
47817W        W16222   3.337  12.162   1.285
47818W        W16223   6.601  22.497  14.235
47819W        W16224  13.650  34.498  10.729
47820W        W16225  10.026  26.254   1.693
47821W        W16226   8.100   7.818   3.696
47822W        W16227  40.865  21.101  10.493
47823W        W16228  21.713   4.030  14.530
47824W        W16229  42.867  41.957  14.915
47825W        W16230  17.547  30.849   0.740
47826W        W16231  23.018  42.478  13.973
47827W        W16232  32.872  32.133   1.893
47828W        W16233   2.918  16.966  14.450
47829W        W16234  23.012  33.398  11.668
47830W        W16235  10.094  33.839  10.916
47831W        W16236  28.794   9.708  12.403
47832W        W16237  15.275  43.567   1.508
47833W        W16238  35.406  33.047  11.717
47834W        W16239   9.234  11.867  12.875
47835W        W16240   8.746  37.142   1.778
47836W        W16241  24.867  28.252  10.741
47837W        W16242  19.094  18.472   2.671
47838W        W16243  10.220   8.656   3.681
47839W        W16244  19.619  36.785   0.816
47840W        W16245  22.827  39.434  11.982
47841W        W16246  36.127   6.897  11.656
47842W        W16247   0.139  37.481   0.688
47843W        W16248  15.663  17.146   1.271
47844W        W16249  29.953  20.593  13.947
47845W        W16250  19.165  14.208  14.886
47846W        W16251  13.848  14.807  13.923
47847W        W16252  24.481  33.444  12.647
47848W        W16253  38.916  28.084  13.459
47849W        W16254  41.500  28.787   3.246
47850W        W16255  28.331   1.789   2.880
47851W        W16256  34.113  15.239   1.462
47852W        W16257  42.731   6.967  11.644
47853W        W16258  22.946  38.001  12.398
47854W        W16259  27.121  21.158  10.861
47855W        W16260  11.746  29.029  13.558
47856W        W16261   0.993  30.220   4.175
47857W        W16262  43.239  40.737  12.786
47858W        W16263   3.044  22.963  11.643
47859W        W16264  18.731  37.911   2.672
47860W        W16265   6.481  26.666  11.555
47861W        W16266  16.034  10.267  14.586
47862W        W16267  10.292  21.022  12.391
47863W        W16268  30.133  12.556  12.141
47864W        W16269  28.520  19.495  13.303
47865W        W16270  25.049   6.666  12.340
47866W        W16271  42.580   1.702   1.913
47867W        W16272  17.718  40.328   3.911
47868W        W16273  44.378   9.765   2.351
47869W        W16274   6.334  18.029  10.657
47870W        W16275  11.397  18.268  10.408
47871W        W16276  27.031  17.086  13.249
47872W        W16277   7.066  28.435   0.278
47873W        W16278  22.498   5.848  11.059
47874W        W16279   0.573  29.429   4.353
47875W        W16280  21.204  33.633  13.062
47876W        W16281  29.090   7.896  13.987
47877W        W16282  30.473  34.679  12.033
47878W        W16283  41.724  33.949   0.443
47879W        W16284   8.329  34.477   2.324
47880W        W16285  12.188  19.743  11.884
47881W        W16286   7.524  14.782  11.138
47882W        W16287  12.381  19.103  13.829
47883W        W16288  37.410  38.934  13.550
47884W        W16289   5.701  13.205   3.987
47885W        W16290  40.482  14.369   2.455
47886W        W16291   6.524  26.610  12.862
47887W        W16292  19.644  19.744  11.474
47888W        W16293  19.154  12.747  10.617
47889W        W16294  30.985  37.741   3.185
47890W        W16295  35.515   0.176   1.601
47891W        W16296  38.357  35.333  11.497
47892W        W16297  21.703  40.804   1.123
47893W        W16298   1.175   0.817  14.502
47894W        W16299  43.338   6.452  12.520
47895W        W16300   5.576   6.346  14.814
47896W        W16301  33.370  15.612  13.995
47897W        W16302   1.252  35.863  13.421
47898W        W16303   4.781  33.661  12.581
47899W        W16304  25.568   3.412  13.373
47900W        W16305  18.351  29.001   0.812
47901W        W16306   9.970  21.274   0.316
47902W        W16307  22.011  24.376  11.766
47903W        W16308  28.680  12.904  14.451
47904W        W16309  30.512  34.841  12.831
47905W        W16310  21.122  23.104   2.421
47906W        W16311  34.888  29.916  12.044
47907W        W16312   9.828  24.287  11.873
47908W        W16313  43.412  22.919   0.390
47909W        W16314  10.421   1.902   4.157
47910W        W16315  28.654  29.882   0.481
47911W        W16316  34.603   0.587   2.459
47912W        W16317   0.446  26.776   3.292
47913W        W16318  10.416  22.612   2.982
47914W        W16319  26.899  27.838  14.863
47915W        W16320  30.211  42.950   1.876
47916W        W16321   1.284  34.063   1.230
47917W        W16322  25.414  32.863   4.585
47918W        W16323   9.674  38.491   1.665
47919W        W16324  41.038  32.482  10.747
47920W        W16325  29.345   2.280   4.099
47921W        W16326   2.012  42.505   2.185
47922W        W16327  13.164  44.807  13.861
47923W        W16328  14.609  35.425  11.463
47924W        W16329  19.516   6.815   3.488
47925W        W16330  33.509  43.325   3.761
47926W        W16331  22.817  11.503  13.912
47927W        W16332  24.191  31.148   1.340
47928W        W16333  37.498  19.309  12.399
47929W        W16334  15.142  36.822  14.378
47930W        W16335  15.360  38.950  14.526
47931W        W16336  16.527  31.183  12.780
47932W        W16337  39.434  29.224  14.603
47933W        W16338   1.837  28.704  12.486
47934W        W16339   6.704  20.717   0.956
47935W        W16340   6.456  41.995   0.851
47936W        W16341  43.465  44.249  14.459
47937W        W16342  41.319   3.697  14.631
47938W        W16343  38.145  30.428  12.387
47939W        W16344  12.052  38.606  11.139
47940W        W16345  29.403  14.717  12.425
47941W        W16346  26.701  26.113  13.482
47942W        W16347  17.111   1.350  13.495
47943W        W16348  20.151  42.051  12.053
47944W        W16349  37.070  19.149   2.746
47945W        W16350  14.680  43.482  14.720
47946W        W16351  39.987  32.582   4.629
47947W        W16352   6.257  10.067  11.673
47948W        W16353  41.818  19.633  10.312
47949W        W16354   6.179  24.254  14.328
47950W        W16355  33.145  15.510   4.017
47951W        W16356  43.447  28.651   3.363
47952W        W16357  39.549  17.836  14.985
47953W        W16358   4.906  21.459  13.511
47954W        W16359   0.478  40.871  12.571
47955W        W16360  20.331  18.656  11.985
47956W        W16361   0.693  21.172   4.567
47957W        W16362  17.146  43.714  12.386
47958W        W16363  16.240  37.801   0.839
47959W        W16364  44.327  26.973   1.274
47960W        W16365  38.958   2.480  14.804
47961W        W16366  13.940  44.012   2.848
47962W        W16367  36.497  29.482   1.606
47963W        W16368  38.414  35.664  11.098
47964W        W16369   9.269  33.157   4.598
47965W        W16370  16.824  34.850  13.432
47966W        W16371  43.936  11.837  11.722
47967W        W16372  27.042   9.724   2.819
47968W        W16373   8.614  44.935  14.959
47969W        W16374  17.617  16.055  12.988
47970W        W16375  27.417  13.950  14.838
47971W        W16376  33.034   8.497  10.568
47972W        W16377   1.404  14.244  12.550
47973W        W16378  28.916   3.451  14.341
47974W        W16379  37.564  12.741   2.777
47975W        W16380   9.816   8.322   3.210
47976W        W16381  24.080  15.247   3.347
47977W        W16382  32.816   2.413   2.945
47978W        W16383   5.363  34.140  12.981
47979W        W16384  21.318  17.567   5.015
47980W        W16385  29.826  16.638   3.542
47981W        W16386   3.391  40.175   4.148
47982W        W16387  13.520  34.240  10.301
47983W        W16388  35.085   2.865  13.767
47984W        W16389  44.839  39.966   0.378
47985W        W16390  26.927  14.130   2.821
47986W        W16391  31.644  26.585   1.266
47987W        W16392  40.609   5.200  12.878
47988W        W16393  43.474  38.988   2.313
47989W        W16394  27.191   3.234  13.938
47990W        W16395  30.206  17.029  13.310
47991W        W16396  10.350  36.094   3.282
47992W        W16397  16.604  42.731  13.440
47993W        W16398   3.914  21.225  11.128
47994W        W16399  25.063   1.239  12.362
47995W        W16400  40.312   1.441   0.446
47996W        W16401   3.724  16.512   2.187
47997W        W16402   8.363   3.752   0.935
47998W        W16403  35.796   0.493   4.499
47999W        W16404  43.442  44.711   2.237
48000W        W16405  20.728  13.757  13.937
48001W        W16406   7.089  27.557  13.333
48002W        W16407   4.316  24.185  11.457
48003W        W16408  38.903  12.104  12.105
48004W        W16409  32.106  12.436   0.814
48005W        W16410  38.397  37.185   3.929
48006W        W16411  37.379  26.215   0.913
48007W        W16412   1.243   4.248   2.250
48008W        W16413  24.580  23.716   1.448
48009W        W16414  42.872  28.118   3.685
48010W        W16415  29.381  15.901   3.770
48011W        W16416  32.078  12.352  13.855
48012W        W16417  30.930   4.868  12.308
48013W        W16418  41.909  43.529   2.608
48014W        W16419  18.536  24.076  12.104
48015W        W16420  14.063  25.747  11.966
48016W        W16421   7.280  44.566   3.283
48017W        W16422  10.212  43.270  10.717
48018W        W16423  12.627  35.748  11.593
48019W        W16424  26.636   8.411   4.531
48020W        W16425   9.925  18.207  11.219
48021W        W16426  28.520  22.204  12.635
48022W        W16427  30.558  21.571  11.065
48023W        W16428  42.667  37.996   3.874
48024W        W16429  34.163  15.801  10.729
48025W        W16430  14.181  15.674  12.396
48026W        W16431   6.405  17.067  14.958
48027W        W16432   4.255  35.273  12.578
48028W        W16433  39.592  43.064   3.039
48029W        W16434   9.300  26.332  12.463
48030W        W16435  20.609   8.597  11.670
48031W        W16436  44.522  21.738  10.002
48032W        W16437  34.127  39.464   3.993
48033W        W16438  32.675  32.928  13.876
48034W        W16439  27.617  30.276  11.020
48035W        W16440  41.764   2.241   4.529
48036W        W16441  14.529  43.382   3.205
48037W        W16442  16.707  21.618  14.142
48038W        W16443   9.659  43.330  14.216
48039W        W16444   8.292   8.755   4.545
48040W        W16445  30.992  34.102  10.686
48041W        W16446  38.916  44.915   4.098
48042W        W16447  28.109  25.757  12.515
48043W        W16448   8.841   5.696  10.577
48044W        W16449  39.350  24.975  14.994
48045W        W16450  32.915  44.286   4.697
48046W        W16451  16.885  19.212   1.945
48047W        W16452   5.169  38.381  13.839
48048W        W16453  25.700  19.268   2.436
48049W        W16454  41.395  16.219   4.894
48050W        W16455  14.535  39.025   3.680
48051W        W16456  27.697  13.135   2.322
48052W        W16457  40.937  38.051   1.249
48053W        W16458  35.122   5.366  14.797
48054W        W16459   5.349  42.053   0.436
48055W        W16460  16.473  35.314   4.120
48056W        W16461   2.300  35.362   3.121
48057W        W16462   3.335  12.796  11.140
48058W        W16463  31.496  15.678   1.352
48059W        W16464  13.640  23.635  14.830
48060W        W16465  29.405   4.755  12.052
48061W        W16466  38.895  25.143   3.649
48062W        W16467  42.775   2.169  11.553
48063W        W16468   5.960  36.242   0.030
48064W        W16469  41.593   7.861   2.334
48065W        W16470  40.416  12.816  12.894
48066W        W16471  30.707  40.101   0.450
48067W        W16472   0.807   1.443  13.448
48068W        W16473  21.556  17.549   3.041
48069W        W16474  31.736  38.958   1.874
48070W        W16475   9.802  44.521  11.594
48071W        W16476  36.463   2.205   1.887
48072W        W16477  12.186  44.711  11.596
48073W        W16478  39.851  20.649   1.379
48074W        W16479  19.961  43.739   1.821
48075W        W16480  17.885  12.141   4.877
48076W        W16481   6.771  44.017  14.115
48077W        W16482  39.809  36.256   3.637
48078W        W16483  15.680  15.715   0.210
48079W        W16484  31.370   8.838   3.377
48080W        W16485   8.764  28.047  12.414
48081W        W16486  12.962  18.128  10.756
48082W        W16487  10.865  26.174  12.863
48083W        W16488   7.538  17.728   1.343
48084W        W16489   9.329  22.154   1.377
48085W        W16490  28.152   6.772  12.051
48086W        W16491  14.188  35.320  11.754
48087W        W16492  26.794  21.315   1.580
48088W        W16493  44.513  41.291  10.894
48089W        W16494   2.763  11.622   0.892
48090W        W16495   8.165   9.251  13.451
48091W        W16496   0.996   3.266  13.041
48092W        W16497   5.798  15.610   1.211
48093W        W16498  30.129  31.051  14.486
48094W        W16499  19.493   3.461  14.538
48095W        W16500   8.745  30.438  10.669
48096W        W16501  39.522  22.466   3.755
48097W        W16502  31.795  27.119   2.383
48098W        W16503  33.633  27.232  12.472
48099W        W16504  25.550  15.885  12.257
48100W        W16505  18.118  41.416  12.642
48101W        W16506   3.326  35.264  11.148
48102W        W16507  24.778   8.229  14.477
48103W        W16508  36.065  16.573   4.119
48104W        W16509  28.631   3.799  11.622
48105W        W16510  38.367  44.386   4.491
48106W        W16511   8.649  12.426   3.769
48107W        W16512  32.945  16.336   1.424
48108W        W16513  21.435  35.459  11.080
48109W        W16514  36.478  23.556  14.815
48110W        W16515  12.751  24.001  12.864
48111W        W16516  26.697  40.514  13.456
48112W        W16517  19.434  26.480  11.090
48113W        W16518  16.535  34.835  12.019
48114W        W16519  42.406  17.741   2.478
48115W        W16520  22.666   4.450  12.367
48116W        W16521  36.309  24.279  13.349
48117W        W16522  41.429  44.920  13.598
48118W        W16523  16.954  11.426   1.445
48119W        W16524   1.246   0.946  14.011
48120W        W16525  40.590  28.184   3.320
48121W        W16526   9.133   2.382  10.720
48122W        W16527   8.104  25.520   4.943
48123W        W16528  24.648  13.613  14.914
48124W        W16529  17.129  16.282   4.435
48125W        W16530  17.034  27.021   3.822
48126W        W16531  43.925  23.074  12.812
48127W        W16532   3.327  16.064  12.063
48128W        W16533   6.237  37.906  11.825
48129W        W16534  12.120  37.073  14.265
48130W        W16535   6.748   5.570   4.616
48131W        W16536   7.356  40.289  13.494
48132W        W16537  29.924   4.880  14.404
48133W        W16538  10.172  11.241   2.383
48134W        W16539  41.802  39.280   4.294
48135W        W16540  27.418  38.061  14.994
48136W        W16541  38.419   8.416  14.449
48137W        W16542  17.816  21.865   5.298
48138W        W16543  33.500   6.377  12.504
48139W        W16544  13.452  22.052   1.244
48140W        W16545  27.409  34.921   1.727
48141W        W16546  39.825   7.571   2.009
48142W        W16547  33.921  25.993  12.672
48143W        W16548  10.566  24.544  10.669
48144W        W16549  24.055  34.752   1.443
48145W        W16550  31.354  18.834   3.745
48146W        W16551  38.711  23.440  12.003
48147W        W16552  34.045  12.593  11.017
48148W        W16553   1.954  25.177   0.953
48149W        W16554   0.821  39.060  14.236
48150W        W16555  33.784  38.045   5.082
48151W        W16556   2.966   6.745  11.186
48152W        W16557  43.126  26.204  13.016
48153W        W16558   8.420  12.896   2.578
48154W        W16559  43.843  37.447  12.099
48155W        W16560  17.919  26.189   4.076
48156W        W16561  11.631  42.527   0.616
48157W        W16562  12.019  21.693   4.404
48158W        W16563  13.528   8.352   2.394
48159W        W16564   9.145  31.109  13.789
48160W        W16565   9.460  36.089   1.711
48161W        W16566  21.448  21.857  10.356
48162W        W16567  18.680   9.668   0.349
48163W        W16568   7.486  30.375  12.068
48164W        W16569  23.597   3.248   2.143
48165W        W16570  35.968  24.302   0.706
48166W        W16571  44.946   9.039   5.106
48167W        W16572  37.405  24.514  11.633
48168W        W16573   2.279  39.832   4.623
48169W        W16574  26.420   2.395  10.481
48170W        W16575   3.813   4.293  13.569
48171W        W16576  19.624   6.586  10.538
48172W        W16577   5.192  15.413  14.923
48173W        W16578  28.421  21.064  12.026
48174W        W16579  25.980   8.386  13.957
48175W        W16580  27.519   6.183  13.829
48176W        W16581   0.717  31.009   2.800
48177W        W16582  30.547  37.862  13.075
48178W        W16583  17.132   9.053   0.331
48179W        W16584  32.443   0.438  14.688
48180W        W16585  22.378   5.182   2.644
48181W        W16586  43.675  38.214  11.380
48182W        W16587  43.820  23.445   0.928
48183W        W16588  25.542   5.972  13.984
48184W        W16589  43.244   5.450   0.869
48185W        W16590  11.141  26.515   1.923
48186W        W16591  15.660   6.829  14.450
48187W        W16592  44.410  25.178   3.131
48188W        W16593  30.856  44.018   3.955
48189W        W16594  28.283   6.226  13.056
48190W        W16595  15.638  38.372   2.298
48191W        W16596  14.738  18.705   0.673
48192W        W16597   2.632  22.190   4.183
48193W        W16598  26.562  38.836  11.915
48194W        W16599  22.227  22.576   0.379
48195W        W16600  35.596  42.562  14.042
48196W        W16601  27.434  14.158  12.891
48197W        W16602  12.236  34.529  10.668
48198W        W16603  31.757  30.379   0.976
48199W        W16604  20.703  42.007   2.828
48200W        W16605  40.243  40.828   3.754
48201W        W16606   6.523  34.944  12.336
48202W        W16607   8.668  41.032  12.568
48203W        W16608  17.288  13.308  11.977
48204W        W16609  17.970  25.579   4.468
48205W        W16610  19.836  24.518   4.100
48206W        W16611  25.139  12.691   3.413
48207W        W16612  28.195  37.029  12.460
48208W        W16613   0.347  25.004  14.500
48209W        W16614  31.994  14.086  13.430
48210W        W16615  16.446  12.038  11.212
48211W        W16616  11.699  27.723   5.131
48212W        W16617  23.041  23.501   1.004
48213W        W16618  26.525  33.842   1.767
48214W        W16619  22.759  23.059  12.576
48215W        W16620  16.137   0.039   3.630
48216W        W16621  36.071  33.080   2.965
48217W        W16622  18.326  39.902   3.015
48218W        W16623  11.863  42.759  10.617
48219W        W16624  21.254  13.628   4.238
48220W        W16625  36.575  13.828   0.527
48221W        W16626  39.805  20.071   2.625
48222W        W16627  13.271  17.556  13.944
48223W        W16628  26.128  28.536  12.909
48224W        W16629  25.306  44.579  11.661
48225W        W16630  16.422  22.521  13.121
48226W        W16631  22.493  30.714  12.818
48227W        W16632  22.797   1.288   2.439
48228W        W16633  39.548  18.677  13.298
48229W        W16634   8.041  12.596  10.937
48230W        W16635  40.891  27.748  13.096
48231W        W16636  25.539  29.492   0.035
48232W        W16637  13.123  29.426   3.247
48233W        W16638   9.811  32.449  14.513
48234W        W16639  22.524  32.620   2.950
48235W        W16640  26.617  38.553  13.359
48236W        W16641  10.334  15.086   4.490
48237W        W16642  20.252  10.052  14.446
48238W        W16643  15.919  33.014   0.431
48239W        W16644  11.944  22.812  11.157
48240W        W16645  32.907  42.606   1.042
48241W        W16646  43.820  27.688  10.436
48242W        W16647  33.607   4.528  12.402
48243W        W16648  14.623  14.378   1.020
48244W        W16649  38.498  20.539  14.269
48245W        W16650   9.328  32.506   3.128
48246W        W16651   6.647   1.779   4.818
48247W        W16652  38.355  38.330   4.181
48248W        W16653   8.395   8.267  11.968
48249W        W16654  20.307  40.464  14.371
48250W        W16655  24.158  20.147   4.759
48251W        W16656  21.022   0.763  14.045
48252W        W16657   2.054  38.350   2.128
48253W        W16658  38.438  32.097  12.603
48254W        W16659   3.897  36.462   1.211
48255W        W16660  25.662   7.987  13.941
48256W        W16661  29.071  15.671  12.833
48257W        W16662  12.901  29.813   0.693
48258W        W16663   1.029  39.788  10.777
48259W        W16664  37.815   6.722  12.808
48260W        W16665  36.254  43.310   0.692
48261W        W16666  34.771  30.757   0.802
48262W        W16667  31.546  12.116  10.689
48263W        W16668  16.798  35.606  10.471
48264W        W16669  10.230   2.187   3.180
48265W        W16670   8.721  31.656  11.615
48266W        W16671  29.564  11.945   2.845
48267W        W16672  32.107  37.850  13.815
48268W        W16673  37.001  33.019  13.839
48269W        W16674  10.694  11.876   4.343
48270W        W16675  11.124  33.081  12.114
48271W        W16676  21.723  12.896  14.412
48272W        W16677  22.510   9.089  11.642
48273W        W16678  20.024  24.573   3.178
48274W        W16679   2.459  43.867   0.054
48275W        W16680  22.444  38.321   4.179
48276W        W16681   8.188  22.209   2.972
48277W        W16682  10.215  35.725   2.109
48278W        W16683  10.289  39.899   1.899
48279W        W16684   1.148  22.566  14.437
48280W        W16685  18.371   5.272   0.794
48281W        W16686  27.664  38.808   5.417
48282W        W16687  14.932  24.079  11.208
48283W        W16688  42.100  25.726   3.326
48284W        W16689  15.261  36.345  10.840
48285W        W16690  10.566  37.233  12.140
48286W        W16691  11.306  28.679   2.210
48287W        W16692   4.843   1.242  10.648
48288W        W16693  19.804  12.394  11.898
48289W        W16694  34.495  30.079  14.250
48290W        W16695  31.599  32.141   3.300
48291W        W16696  16.118   2.827   0.256
48292W        W16697  33.653  40.350  11.586
48293W        W16698  15.170  19.605  13.030
48294W        W16699  15.546  19.600  12.114
48295W        W16700  17.701   1.702   2.832
48296W        W16701  22.602   2.592   3.393
48297W        W16702  43.510   2.719   4.671
48298W        W16703  28.615  21.225  14.070
48299W        W16704   3.998  25.769   1.779
48300W        W16705  21.980  25.412   3.796
48301W        W16706   4.658  42.045  12.576
48302W        W16707  36.010  14.176  14.766
48303W        W16708  14.568   9.336  13.521
48304W        W16709  38.324  31.782   4.230
48305W        W16710  40.907  18.130  11.138
48306W        W16711   9.698  32.931   3.693
48307W        W16712  19.588  13.486  12.358
48308W        W16713  32.158   8.782   4.658
48309W        W16714  10.632   1.474   2.129
48310W        W16715  22.793  11.172   1.264
48311W        W16716  42.692   7.771   4.559
48312W        W16717  21.171  19.512  10.049
48313W        W16718  42.626  32.072  11.603
48314W        W16719  40.305  13.696   2.420
48315W        W16720  14.197   7.266   2.612
48316W        W16721  42.797  21.877   4.234
48317W        W16722  18.956  16.752  13.088
48318W        W16723   2.453  26.496  11.358
48319W        W16724   4.297  34.850  13.838
48320W        W16725  17.040  38.087   2.245
48321W        W16726  40.711  43.648  12.887
48322W        W16727  38.413  42.991   1.335
48323W        W16728  40.245  42.191  13.883
48324W        W16729  27.559  39.512   2.707
48325W        W16730  16.233  34.002  10.973
48326W        W16731  18.613   7.957  12.550
48327W        W16732  29.748   5.746  11.621
48328W        W16733  26.639  26.468  14.776
48329W        W16734  42.015  23.081   4.150
48330W        W16735  23.798  24.768   3.674
48331W        W16736  13.865  40.260  12.887
48332W        W16737   7.632  42.679  13.518
48333W        W16738  38.271   3.111   3.202
48334W        W16739  38.342  39.937   3.587
48335W        W16740  21.121  38.666  13.067
48336W        W16741  32.357  25.517   0.048
48337W        W16742   7.415   9.127  14.798
48338W        W16743  27.989   0.082   1.460
48339W        W16744  30.669  44.558  12.552
48340W        W16745  43.704  24.060  12.439
48341W        W16746  23.111  38.920   4.566
48342W        W16747  27.158  34.093  13.037
48343W        W16748  29.682  27.980   3.241
48344W        W16749  26.551  31.943   3.030
48345W        W16750  42.204  24.399  11.104
48346W        W16751  10.614  12.041  12.102
48347W        W16752  39.367  19.288   0.454
48348W        W16753  20.309  44.499   3.763
48349W        W16754   8.587  31.150  11.930
48350W        W16755  12.743  24.623  13.886
48351W        W16756  37.160   2.813   3.235
48352W        W16757  27.378  40.553  14.834
48353W        W16758   0.256  36.744   0.834
48354W        W16759  39.845  25.676  14.813
48355W        W16760  39.290  35.479  10.956
48356W        W16761  28.198  36.123  12.050
48357W        W16762  25.966   9.365  13.060
48358W        W16763  31.879  32.298   1.815
48359W        W16764  33.512  29.124   2.146
48360W        W16765  33.685   9.894  14.840
48361W        W16766  28.466   8.740  13.695
48362W        W16767  17.341  35.573  10.669
48363W        W16768  43.997  43.780   1.142
48364W        W16769  39.547  41.452   0.482
48365W        W16770  10.174   8.586  11.535
48366W        W16771  24.718   3.065   4.801
48367W        W16772  12.190   7.220   0.357
48368W        W16773  17.260  41.651  12.552
48369W        W16774  20.294  17.461   3.217
48370W        W16775  28.191  11.381  14.373
48371W        W16776  33.443  15.445   4.838
48372W        W16777  44.259  14.881   4.112
48373W        W16778  13.794  42.027   0.854
48374W        W16779  41.979   8.776  12.826
48375W        W16780   5.732  32.217  13.529
48376W        W16781  41.571  37.141  13.862
48377W        W16782   7.305  16.525  14.779
48378W        W16783  36.556  23.451  14.282
48379W        W16784  20.708  40.507  12.279
48380W        W16785  42.296  17.988  14.311
48381W        W16786  44.270   4.362   1.942
48382W        W16787  10.792  16.698   0.965
48383W        W16788  39.337  16.008   1.270
48384W        W16789   6.343  22.472  12.939
48385W        W16790  19.092  27.451   4.756
48386W        W16791  37.464  16.654   0.467
48387W        W16792  30.043  42.191   3.530
48388W        W16793  10.315  39.095   4.570
48389W        W16794  30.651  17.522   1.432
48390W        W16795  17.251  34.431  14.569
48391W        W16796  15.410   7.535   4.369
48392W        W16797  37.902  16.852   0.078
48393W        W16798  21.911   9.167   0.534
48394W        W16799  23.524  33.496   3.275
48395W        W16800  35.884  13.840   2.244
48396W        W16801  25.505   0.395  13.023
48397W        W16802   6.780   3.404  12.484
48398W        W16803  37.851  10.692  13.317
48399W        W16804  31.937   4.772   4.977
48400W        W16805  31.900   5.168  14.864
48401W        W16806  22.017  19.728   0.256
48402W        W16807   7.843  12.113  13.814
48403W        W16808  36.555  37.626   0.322
48404W        W16809  25.161  35.340  10.858
48405W        W16810  41.584  22.705  13.899
48406W        W16811  36.859   1.501  14.826
48407W        W16812  31.484  34.644   1.781
48408W        W16813   5.941   8.145  11.954
48409W        W16814  20.658  22.476   4.513
48410W        W16815  44.761   4.418   0.851
48411W        W16816  22.606   5.230   3.462
48412W        W16817  28.619  25.387  10.778
48413W        W16818  11.917   9.769   1.893
48414W        W16819  30.753  14.249   1.351
48415W        W16820   7.422  44.390   0.711
48416W        W16821  12.936  36.225   2.500
48417W        W16822  14.952  27.405   0.927
48418W        W16823  27.969  24.018  13.087
48419W        W16824  18.816   4.733  10.849
48420W        W16825  29.185  32.587   3.791
48421W        W16826  37.358  21.533  11.380
48422W        W16827  42.099   2.104  11.100
48423W        W16828  29.535  31.700  12.977
48424W        W16829   3.731   2.869   0.728
48425W        W16830   4.448   7.166   4.074
48426W        W16831   3.017  24.296   1.872
48427W        W16832  25.535  43.513  13.088
48428W        W16833  10.696  34.447  12.150
48429W        W16834   6.162  38.961   1.692
48430W        W16835   3.481  33.875  13.856
48431W        W16836   3.440  35.935  13.999
48432W        W16837   5.367  35.435  11.912
48433W        W16838  32.481  18.563   2.419
48434W        W16839   7.224   9.993  14.694
48435W        W16840  26.706  12.341   3.746
48436W        W16841  19.673  36.994   1.777
48437W        W16842  14.452   7.712   4.551
48438W        W16843   3.702   1.374  14.002
48439W        W16844  26.533  41.698  14.783
48440W        W16845  36.830  11.550  14.475
48441W        W16846   2.529  25.624   0.227
48442W        W16847  31.696  39.584  13.251
48443W        W16848  28.353  33.572  13.933
48444W        W16849  21.039  35.624   0.183
48445W        W16850   0.018  35.098  12.487
48446W        W16851  31.279  15.610  14.924
48447W        W16852  41.321  20.151   0.006
48448W        W16853  35.188  39.395   1.866
48449W        W16854  42.225  42.754  11.041
48450W        W16855   5.691  31.999   3.357
48451W        W16856  33.332   0.756   0.449
48452W        W16857  11.635   6.890  13.303
48453W        W16858  43.405   8.918   4.155
48454W        W16859  14.763  41.945   5.066
48455W        W16860  30.940   6.358  12.550
48456W        W16861   3.074  31.469  12.939
48457W        W16862  24.939  34.294   1.404
48458W        W16863  10.725  38.195  12.602
48459W        W16864   6.423  40.754  13.014
48460W        W16865   7.066  18.032   4.337
48461W        W16866  30.023  29.550  14.924
48462W        W16867  30.948  15.649   5.055
48463W        W16868  30.346  37.911  11.689
48464W        W16869   8.162  21.597   1.945
48465W        W16870  15.758  22.546  13.969
48466W        W16871  35.852  35.303  10.594
48467W        W16872   5.216  37.244  10.169
48468W        W16873  23.704  26.689   1.605
48469W        W16874  24.165  23.664   4.596
48470W        W16875  25.316  10.088   5.117
48471W        W16876  29.210  36.929   3.107
48472W        W16877  29.982  43.946  14.887
48473W        W16878   9.748  24.122   4.656
48474W        W16879  26.632   4.045   3.183
48475W        W16880  22.937  32.366   3.165
48476W        W16881   5.169  29.492   1.687
48477W        W16882  26.038  16.102  10.720
48478W        W16883   0.333   1.129  11.917
48479W        W16884   7.869  24.656  13.137
48480W        W16885  44.872  23.472   1.407
48481W        W16886  36.341  11.360   2.284
48482W        W16887  37.887  17.456  10.669
48483W        W16888  30.455  24.656  10.707
48484W        W16889   8.828   1.414  11.539
48485W        W16890   8.594  28.461   0.411
48486W        W16891   0.148   9.378  11.566
48487W        W16892  24.456  12.065   4.779
48488W        W16893  19.256   9.822   1.268
48489W        W16894   1.800  43.090  14.038
48490W        W16895  29.658  43.321  13.098
48491W        W16896  28.931   4.001   1.891
48492W        W16897   2.399  41.995  14.414
48493W        W16898  10.829  25.715  14.012
48494W        W16899  40.455  41.058  11.314
48495W        W16900   6.754  44.544   1.467
48496W        W16901  14.303  44.607   2.205
48497W        W16902  14.346  14.765  11.081
48498W        W16903   1.565  17.856  13.406
48499W        W16904  17.312   9.223   4.616
48500W        W16905  17.621  21.777  12.182
48501W        W16906  30.059   7.270   2.883
48502W        W16907   5.424  30.398  13.928
48503W        W16908  32.168   8.221  10.720
48504W        W16909   9.260  42.499   4.884
48505W        W16910  32.836  11.358  11.830
48506W        W16911  41.718  32.079   2.772
48507W        W16912  22.849   7.147   4.321
48508W        W16913  34.074  10.104   2.122
48509W        W16914   2.997  23.493  10.706
48510W        W16915  17.652  40.580   1.440
48511W        W16916  10.809   3.889  13.630
48512W        W16917   4.720  29.641   3.773
48513W        W16918  17.668  35.786   4.239
48514W        W16919  30.639   4.502   2.104
48515W        W16920  43.559  35.597   3.361
48516W        W16921  31.027  44.845  12.956
48517W        W16922  27.282  28.875   1.291
48518W        W16923  29.394  33.059  12.754
48519W        W16924  38.319  44.321  14.480
48520W        W16925   2.456  32.924   3.911
48521W        W16926  34.371  19.094   2.009
48522W        W16927  44.419  34.348   3.496
48523W        W16928  44.504   6.756  11.372
48524W        W16929  42.350  11.800  10.705
48525W        W16930  30.064  20.725  10.960
48526W        W16931  41.502  18.699   0.699
48527W        W16932  42.263  20.019   2.769
48528W        W16933  28.054   2.420   0.934
48529W        W16934   9.251  32.716  11.948
48530W        W16935  28.502   8.859  10.230
48531W        W16936  17.748  36.032   1.842
48532W        W16937  21.980  19.483  10.735
48533W        W16938  42.417  38.314  11.595
48534W        W16939  44.709  28.026  14.515
48535W        W16940  31.508  44.999  14.861
48536W        W16941  37.871  33.401   2.679
48537W        W16942  38.922  44.950  11.515
48538W        W16943  28.826  43.443  13.443
48539W        W16944  20.891  40.971   0.430
48540W        W16945  20.452   5.908  11.473
48541W        W16946  24.032   2.471   0.775
48542W        W16947  35.920   4.773   1.656
48543W        W16948  35.551  28.061  13.566
48544W        W16949  17.640  14.843  10.404
48545W        W16950  23.254   9.303   3.830
48546W        W16951  39.751  15.339  11.643
48547W        W16952  20.696  30.008   3.414
48548W        W16953  14.210  43.255  11.305
48549W        W16954  28.906   2.608   4.538
48550W        W16955  22.501  21.375   0.371
48551W        W16956  19.586  27.070  12.358
48552W        W16957  29.069  29.843  10.779
48553W        W16958  27.523   8.918  12.442
48554W        W16959  11.614  33.161   0.354
48555W        W16960  31.589   3.165   2.270
48556W        W16961  11.611  28.446   2.672
48557W        W16962   7.908  31.673   3.336
48558W        W16963  13.753  27.167   3.751
48559W        W16964  12.147   9.781  11.338
48560W        W16965   9.433  38.102   2.540
48561W        W16966  14.380  18.980   5.067
48562W        W16967  28.953  31.056   0.748
48563W        W16968  33.171  37.287   4.588
48564W        W16969  14.127   9.863   1.753
48565W        W16970  20.089   1.410   3.372
48566W        W16971  15.190  42.601  13.907
48567W        W16972   5.307  42.054   3.639
48568W        W16973   9.347  34.243  11.498
48569W        W16974  12.147  24.522   3.937
48570W        W16975  32.976  25.978   4.877
48571W        W16976  32.764   8.109  13.472
48572W        W16977  35.014   5.718  14.421
48573W        W16978  32.788  12.778   3.143
48574W        W16979  17.554  21.253  10.077
48575W        W16980   2.581   2.009   0.865
48576W        W16981   8.667  24.032   4.041
48577W        W16982   4.177  36.011  14.382
48578W        W16983  24.156  30.390   1.761
48579W        W16984  25.258  15.863  11.191
48580W        W16985  32.341  16.056  12.170
48581W        W16986  38.043  30.537  14.470
48582W        W16987  19.123  20.822  12.128
48583W        W16988  21.293  15.478  12.120
48584W        W16989   5.841   8.813   3.162
48585W        W16990   1.049  19.360   3.041
48586W        W16991  10.255  20.217   1.930
48587W        W16992  35.545  11.716   1.384
48588W        W16993  29.127  16.981   1.838
48589W        W16994   4.605  38.809   2.777
48590W        W16995  10.786   9.225   3.404
48591W        W16996  33.338  43.313   0.389
48592W        W16997   3.347  34.213  14.755
48593W        W16998  15.605   6.169   2.650
48594W        W16999  35.501  26.672  12.664
48595W        W17000  27.028  22.217  12.455
48596W        W17001   1.950  34.867  11.506
48597W        W17002  37.628  19.521   3.599
48598W        W17003  31.143  12.757   4.591
48599W        W17004  18.285  28.679   3.203
48600W        W17005  37.527  32.932   4.169
48601W        W17006  26.476   1.278  11.992
48602W        W17007  13.766  21.020  14.976
48603W        W17008  31.998   3.159  10.647
48604W        W17009  27.125   5.077  14.759
48605W        W17010  27.844  22.510   3.217
48606W        W17011  30.942  19.278   9.738
48607W        W17012  42.905   8.202   4.399
48608W        W17013  20.689  25.162   0.961
48609W        W17014  30.914  40.449   4.415
48610W        W17015  36.882   0.821   2.766
48611W        W17016   9.270  23.915   0.793
48612W        W17017   1.512  21.618   0.887
48613W        W17018   7.515  38.031   1.441
48614W        W17019  13.265  43.792   2.338
48615W        W17020  19.343   7.245   3.691
48616W        W17021  18.707  29.571   4.347
48617W        W17022  14.786  19.221   1.369
48618W        W17023   4.510   5.653   2.122
48619W        W17024  29.582  12.911   3.178
48620W        W17025  16.630  33.522   2.682
48621W        W17026  36.128  34.328  14.946
48622W        W17027  39.628  30.955   2.438
48623W        W17028  18.067  32.854   0.223
48624W        W17029  18.528  38.431  14.389
48625W        W17030  43.584  34.790   0.963
48626W        W17031  43.739  41.198   3.214
48627W        W17032  17.254  32.002  12.524
48628W        W17033  42.520  22.967   4.172
48629W        W17034  12.829   0.768  12.039
48630W        W17035   2.022  39.765  10.922
48631W        W17036  36.414  24.517  12.597
48632W        W17037  35.539   4.766   1.305
48633W        W17038  24.435  19.862   3.637
48634W        W17039  18.704  19.996  10.610
48635W        W17040   6.688   3.840   1.304
48636W        W17041  23.020   6.712   3.836
48637W        W17042   9.167  13.534   0.934
48638W        W17043  21.034  35.311  11.381
48639W        W17044   6.281  17.170  12.652
48640W        W17045   8.852   3.784   1.877
48641W        W17046   0.053  42.960   2.200
48642W        W17047   0.883  21.263  14.374
48643W        W17048  33.510   3.782  14.286
48644W        W17049  29.464  14.922  12.881
48645W        W17050  18.636   3.387  14.795
48646W        W17051  40.756   5.388   5.077
48647W        W17052  12.511   4.297  10.700
48648W        W17053  41.288  20.846   0.585
48649W        W17054  38.111  25.026  10.523
48650W        W17055   3.812  16.637  10.728
48651W        W17056  25.959  22.248  14.685
48652W        W17057  15.200  11.912   4.419
48653W        W17058  33.059  14.500   1.010
48654W        W17059  31.285  24.950   1.879
48655W        W17060  33.017  25.219   3.165
48656W        W17061  32.432  22.730  14.468
48657W        W17062   0.562  10.299  11.369
48658W        W17063  29.003  28.947  10.980
48659W        W17064  20.605  13.561   0.874
48660W        W17065  44.611   7.553   2.293
48661W        W17066  16.239  29.923  13.467
48662W        W17067  17.758  36.886   3.306
48663W        W17068  37.829  35.047   1.402
48664W        W17069   1.612  33.654   1.409
48665W        W17070  27.813   0.796   1.844
48666W        W17071  22.989  31.664  12.028
48667W        W17072  29.683   9.208   3.087
48668W        W17073  40.459  32.672   4.834
48669W        W17074  14.476  19.605  12.478
48670W        W17075   1.180  21.184   2.783
48671W        W17076  33.199  15.060   1.841
48672W        W17077  10.155  18.123   4.145
48673W        W17078  15.709   8.044  13.607
48674W        W17079   0.287  36.417  13.422
48675W        W17080  36.243  25.621   0.873
48676W        W17081  31.300  26.219  13.240
48677W        W17082   7.757   5.836   4.763
48678W        W17083  20.739  22.077  11.932
48679W        W17084  14.080  17.677   4.933
48680W        W17085  39.312  15.737  10.645
48681W        W17086  21.054  32.027  14.385
48682W        W17087  24.676  26.936  10.492
48683W        W17088  17.422  18.733  13.992
48684W        W17089   9.292   4.406  11.061
48685W        W17090  28.640  19.060   1.791
48686W        W17091  38.504  38.420   4.657
48687W        W17092  18.272   2.448  14.056
48688W        W17093  42.396  19.027   0.814
48689W        W17094  14.875  16.540  12.016
48690W        W17095   1.855  29.487   2.941
48691W        W17096  12.765  15.490   3.621
48692W        W17097  41.874  39.273   1.720
48693W        W17098  21.875  35.185   4.319
48694W        W17099  26.980   7.396  13.411
48695W        W17100  32.571  36.237  11.582
48696W        W17101  16.097  39.473  14.268
48697W        W17102   3.927  20.813   2.259
48698W        W17103  41.045  28.668  13.472
48699W        W17104  24.018  40.361  12.793
48700W        W17105  35.110   7.482  14.895
48701W        W17106   7.835   6.843  10.708
48702W        W17107  25.591  30.035   2.581
48703W        W17108  26.749  22.555   1.289
48704W        W17109   4.975   4.440   3.649
48705W        W17110  42.711  38.504   3.245
48706W        W17111  17.617  15.814  10.808
48707W        W17112  39.648  23.161   2.717
48708W        W17113  15.820  43.856   4.110
48709W        W17114  35.190  44.245  10.145
48710W        W17115   2.792  38.781  12.069
48711W        W17116  34.083  18.568   2.133
48712W        W17117  31.611  26.298  12.283
48713W        W17118  24.244  17.413   2.828
48714W        W17119  25.774  33.604   5.096
48715W        W17120  19.986  14.209   3.128
48716W        W17121  44.000  13.396  14.362
48717W        W17122  38.571  31.631   3.811
48718W        W17123  43.584  10.443  14.459
48719W        W17124  41.735  27.921  14.221
48720W        W17125  32.396   2.034   1.775
48721W        W17126  28.288  38.815   4.136
48722W        W17127   0.737   1.012  14.263
48723W        W17128   1.272  11.581  11.909
48724W        W17129   9.706   0.826   3.112
48725W        W17130  36.844  26.321  10.818
48726W        W17131  16.723   7.440  13.975
48727W        W17132  30.906  40.816   0.910
48728W        W17133  19.573  11.387  14.417
48729W        W17134  16.603  17.188   4.268
48730W        W17135  23.043  43.382  11.590
48731W        W17136  30.460  23.610   1.986
48732W        W17137  31.373  20.204  11.176
48733W        W17138  31.442   4.531  12.596
48734W        W17139   0.782  40.578  14.360
48735W        W17140   3.231  26.748  13.434
48736W        W17141  32.233   8.702   0.648
48737W        W17142  42.292  19.706  12.953
48738W        W17143  40.946  26.398   1.439
48739W        W17144  16.114   0.673   1.796
48740W        W17145  13.381  43.531  14.083
48741W        W17146  24.234  10.898   4.672
48742W        W17147  12.882  12.733   4.625
48743W        W17148  30.525  19.727  10.850
48744W        W17149  28.437   9.884   2.161
48745W        W17150  36.534  35.649  12.607
48746W        W17151  26.643  42.397  10.694
48747W        W17152  37.548  37.377   0.446
48748W        W17153  22.654  15.552   1.392
48749W        W17154  31.562  23.565  12.746
48750W        W17155   8.677   0.035   3.321
48751W        W17156   2.157   6.411  13.037
48752W        W17157   7.006  29.646   9.947
48753W        W17158  43.356   3.775  14.986
48754W        W17159  10.943  20.333  10.683
48755W        W17160  30.798  35.842   5.096
48756W        W17161  18.124   1.976   2.102
48757W        W17162   0.449   0.143  12.003
48758W        W17163  35.510   1.005  12.820
48759W        W17164   5.274  43.329  10.942
48760W        W17165  37.059  39.749   3.291
48761W        W17166   2.952  22.561   2.391
48762W        W17167  14.758  20.801   3.268
48763W        W17168  13.760  39.525  10.513
48764W        W17169   0.867   6.621  14.884
48765W        W17170  33.582  24.015   0.885
48766W        W17171  40.034  14.916  11.451
48767W        W17172  26.198  24.406  11.674
48768W        W17173  31.678  44.921   3.225
48769W        W17174   1.264  43.278  11.931
48770W        W17175  16.400   8.984  12.857
48771W        W17176  16.855  13.296   3.688
48772W        W17177   5.841  11.356   4.059
48773W        W17178  15.621   6.606  11.671
48774W        W17179  24.046   8.779  13.502
48775W        W17180  43.895   7.305  11.844
48776W        W17181  12.349  44.911  12.046
48777W        W17182  21.766   9.074   1.849
48778W        W17183  17.816  33.532   3.712
48779W        W17184  44.768  30.859   4.433
48780W        W17185  36.290  34.017  10.655
48781W        W17186  24.642   9.606   4.240
48782W        W17187  24.587  28.090   4.605
48783W        W17188  24.235   5.486  13.429
48784W        W17189   7.271  10.492   4.461
48785W        W17190  21.051   0.822   0.037
48786W        W17191   7.161  24.996   2.368
48787W        W17192   6.905  25.547  12.623
48788W        W17193  44.499   6.398   3.608
48789W        W17194  19.587  30.780  10.794
48790W        W17195   6.877  39.027  14.776
48791W        W17196   8.626  25.784   3.610
48792W        W17197   4.825  25.105   3.912
48793W        W17198   9.662   5.647  13.134
48794W        W17199   5.444  40.986  11.655
48795W        W17200  11.047  30.607  14.947
48796W        W17201  11.821  36.446   1.213
48797W        W17202  29.090  13.156  13.482
48798W        W17203  23.135   2.618   2.374
48799W        W17204  23.687  18.920  12.524
48800W        W17205  35.852  19.730   2.615
48801W        W17206  39.889  28.947  11.794
48802W        W17207  10.553  27.544  13.022
48803W        W17208  39.818   3.418   3.193
48804W        W17209  23.740  30.707  14.973
48805W        W17210  12.810  19.626   2.316
48806W        W17211  42.989   3.522  14.729
48807W        W17212  18.242   9.837   2.389
48808W        W17213  22.741   4.606  11.387
48809W        W17214  12.885   8.271  12.141
48810W        W17215   4.448  42.459   1.585
48811W        W17216  36.485  21.185  14.575
48812W        W17217  15.732  44.004   3.186
48813W        W17218  15.883  44.789  14.324
48814W        W17219  42.573  28.481  13.340
48815W        W17220  13.901   6.419   0.793
48816W        W17221  32.161  18.647   4.655
48817W        W17222   2.010  35.542   4.033
48818W        W17223  11.281   6.419   2.773
48819W        W17224  19.522  10.237   3.681
48820W        W17225  16.149  24.098   4.453
48821W        W17226  20.571   1.427   3.208
48822W        W17227  21.571  29.079  10.366
48823W        W17228   6.315  11.070   3.325
48824W        W17229  15.569  25.536   3.762
48825W        W17230  17.290  40.344  10.679
48826W        W17231  10.996  42.260  11.997
48827W        W17232  18.535  40.467   0.878
48828W        W17233  41.082  30.853   0.752
48829W        W17234  21.178  17.174  12.489
48830W        W17235  21.914  38.945   3.682
48831W        W17236   0.264  25.451   4.618
48832W        W17237  40.567  36.417  13.080
48833W        W17238  19.324  12.425  14.839
48834W        W17239  22.249  32.101  10.689
48835W        W17240  40.150  31.443  14.928
48836W        W17241  31.150  37.279   3.330
48837W        W17242  40.550   8.897   1.317
48838W        W17243  23.194  22.484   1.706
48839W        W17244  24.233   8.317  12.085
48840W        W17245  35.099  30.161   2.140
48841W        W17246  38.750  25.139  11.642
48842W        W17247  24.272  34.369   1.715
48843W        W17248  36.415  35.626   2.202
48844W        W17249  13.393  33.544  14.041
48845W        W17250   1.424   2.048  12.988
48846W        W17251  20.532  28.163   0.473
48847W        W17252  21.979  35.495  13.404
48848W        W17253  27.247  26.660   0.177
48849W        W17254  36.371  42.314   3.180
48850W        W17255  34.573  11.036  14.987
48851W        W17256  21.074   4.209   3.282
48852W        W17257  16.683  40.563   1.388
48853W        W17258   2.780   5.916  11.497
48854W        W17259   0.346   9.747  14.907
48855W        W17260  34.107   3.812   4.187
48856W        W17261  13.953   8.651   1.730
48857W        W17262  43.375  11.658   3.681
48858W        W17263  28.868  33.643  13.934
48859W        W17264  39.456   1.732  10.382
48860W        W17265  22.288  38.655  13.853
48861W        W17266  37.076  10.187   0.841
48862W        W17267  38.348   6.812   1.996
48863W        W17268   0.415   9.205  11.173
48864W        W17269  38.980  15.091   3.358
48865W        W17270  32.977  22.736  13.459
48866W        W17271  17.588  18.526  12.129
48867W        W17272  37.809  28.007   0.891
48868W        W17273  15.843  34.842  14.611
48869W        W17274  43.422  15.133   4.719
48870W        W17275  20.045  18.123   1.126
48871W        W17276  12.225   2.141   1.122
48872W        W17277  33.572   1.298  13.681
48873W        W17278  40.424  11.280   4.821
48874W        W17279   4.610  33.362  13.557
48875W        W17280  14.870  37.440  13.091
48876W        W17281  29.465  39.254   2.405
48877W        W17282  41.037   3.704   1.387
48878W        W17283  17.035  21.758   0.122
48879W        W17284  41.766   1.802   2.671
48880W        W17285   9.567   3.066  14.546
48881W        W17286  44.139  33.158  14.828
48882W        W17287  41.679   6.859   1.507
48883W        W17288  11.731  28.071   3.618
48884W        W17289  20.215   6.903  14.961
48885W        W17290  14.430  24.967   0.994
48886W        W17291  27.724   8.903  10.646
48887W        W17292  42.428  15.262  13.384
48888W        W17293   1.250  15.075   0.249
48889W        W17294  16.257  36.375   3.742
48890W        W17295   3.185   5.879  14.557
48891W        W17296   1.292  30.096  14.464
48892W        W17297  20.528  12.245  10.613
48893W        W17298  44.370   8.381   2.114
48894W        W17299  43.482  20.785  14.043
48895W        W17300  22.606   7.945   0.004
48896W        W17301  31.516  16.648  13.358
48897W        W17302  20.044  17.587  11.062
48898W        W17303   5.821  10.786  13.374
48899W        W17304   9.775  31.659  13.957
48900W        W17305   3.774  11.328   1.335
48901W        W17306   5.730   7.898  12.805
48902W        W17307  12.364  36.450  13.483
48903W        W17308  18.530   2.518   1.488
48904W        W17309  35.452  25.998   0.059
48905W        W17310  37.158   7.395   2.786
48906W        W17311   5.147  39.884   1.991
48907W        W17312   2.523   7.280  12.536
48908W        W17313  32.896   9.588   4.264
48909W        W17314  39.948   9.119   3.959
48910W        W17315  20.869  11.789  13.383
48911W        W17316  23.050   1.232  11.992
48912W        W17317   5.550  39.002  11.994
48913W        W17318  40.479  42.918   4.196
48914W        W17319   3.708  42.560  14.325
48915W        W17320  42.588  37.658   0.720
48916W        W17321  36.267  19.751   0.722
48917W        W17322  36.059  39.806  13.959
48918W        W17323  42.848  27.489  11.223
48919W        W17324  12.963  31.105   1.246
48920W        W17325  27.677  24.217   4.982
48921W        W17326  18.842  12.196   2.511
48922W        W17327   3.413  11.250   4.287
48923W        W17328   5.743  26.124   4.545
48924W        W17329  13.233  26.873  12.277
48925W        W17330  25.303  32.328   1.723
48926W        W17331   7.759  21.994   0.327
48927W        W17332  12.557   0.975   1.733
48928W        W17333  33.892   8.097  10.517
48929W        W17334  44.908   9.832   2.504
48930W        W17335  33.334  13.658   0.757
48931W        W17336  33.971  29.651   2.964
48932W        W17337  30.533  39.859  10.762
48933W        W17338  14.413  24.104  11.206
48934W        W17339  24.242  10.366   1.828
48935W        W17340  16.845  43.418  14.614
48936W        W17341  23.466   1.378  12.301
48937W        W17342  23.768   1.249  14.470
48938W        W17343   6.818  11.494   3.309
48939W        W17344  28.171  32.872  12.076
48940W        W17345  34.324   1.029   2.542
48941W        W17346  15.739   9.204   2.801
48942W        W17347  29.162  23.520  12.894
48943W        W17348  24.301  25.685  14.939
48944W        W17349  24.065  24.961   0.474
48945W        W17350  21.141  32.506   2.150
48946W        W17351  14.231  34.703  10.146
48947W        W17352  40.577  14.892  11.565
48948W        W17353  40.941  10.491  12.055
48949W        W17354   7.277  37.040   1.615
48950W        W17355   8.214  12.130   3.690
48951W        W17356  43.411  14.666  12.333
48952W        W17357  15.041   5.023  13.879
48953W        W17358  17.706  44.960   4.883
48954W        W17359  18.952  27.525   2.044
48955W        W17360  37.318  22.819   3.991
48956W        W17361  17.526  15.767  11.692
48957W        W17362  39.542  43.375   3.890
48958W        W17363  34.592  41.224  14.793
48959W        W17364  32.700  38.525  12.918
48960W        W17365  37.020  41.609  13.355
48961W        W17366  38.574  43.441   3.944
48962W        W17367  14.799  31.375   1.162
48963W        W17368  13.381  35.813  14.429
48964W        W17369  25.412   3.822   1.948
48965W        W17370  22.595  17.423  11.518
48966W        W17371  42.110  32.671   1.912
48967W        W17372  44.882  15.102   2.349
48968W        W17373   4.779  26.524  13.121
48969W        W17374  29.069  30.113   0.680
48970W        W17375  20.609  14.216   4.413
48971W        W17376   6.890  11.555  11.456
48972W        W17377  21.379  38.859   1.612
48973W        W17378  28.910  10.690   1.343
48974W        W17379  24.033  10.611   2.285
48975W        W17380  35.332  18.595  14.284
48976W        W17381  15.879   1.021   3.321
48977W        W17382  10.200  17.797  12.932
48978W        W17383  13.630  36.602  11.177
48979W        W17384  36.028  14.322   3.217
48980W        W17385  23.620  17.644   2.705
48981W        W17386  18.032   2.481   1.355
48982W        W17387   8.204   1.038  13.572
48983W        W17388  10.376  35.586  14.738
48984W        W17389  26.510  14.210   4.898
48985W        W17390  26.591  15.815  14.474
48986W        W17391  37.048  38.846  13.057
48987W        W17392  31.189   3.071   1.967
48988W        W17393   2.904   7.848   1.905
48989W        W17394  18.674  29.224   2.778
48990W        W17395  39.811  17.695  11.648
48991W        W17396  39.789   3.277   0.389
48992W        W17397  34.879   4.623  10.645
48993W        W17398  31.114  34.066  12.132
48994W        W17399   4.626  37.419  13.330
48995W        W17400  19.835   7.599  12.000
48996W        W17401  42.226  29.122   4.144
48997W        W17402  33.094  33.452   3.446
48998W        W17403  23.446  11.993   2.149
48999W        W17404   5.918  35.888  11.950
49000W        W17405   8.564  20.982   3.708
49001W        W17406  26.186   0.325  12.964
49002W        W17407  30.926   6.853   3.396
49003W        W17408  36.558  12.845  13.227
49004W        W17409  24.473   0.853  11.556
49005W        W17410  38.710  18.321   2.679
49006W        W17411  24.670  14.646  14.945
49007W        W17412  44.901  36.522   3.376
49008W        W17413  43.910  43.828  11.146
49009W        W17414   4.559  13.279  11.544
49010W        W17415  11.628  35.910   1.279
49011W        W17416  13.122  12.890  11.567
49012W        W17417  17.103   5.268   3.894
49013W        W17418  25.981  30.474   2.277
49014W        W17419   4.073  17.143   1.438
49015W        W17420  20.490  12.238   0.976
49016W        W17421   4.538   5.718   4.014
49017W        W17422  19.021  44.823   1.446
49018W        W17423  20.137   9.790   0.459
49019W        W17424  44.270  13.886  11.098
49020W        W17425   4.876  27.515  14.306
49021W        W17426  34.747  39.391   0.029
49022W        W17427  11.748  35.383  11.622
49023W        W17428  24.469  33.377  11.656
49024W        W17429  27.841  28.758   0.884
49025W        W17430  11.777  34.023  14.538
49026W        W17431  22.757  37.444  10.255
49027W        W17432  32.392   9.088  11.438
49028W        W17433   5.337  38.776  14.395
49029W        W17434  15.274  33.149   1.813
49030W        W17435   7.750  17.522   3.676
49031W        W17436  32.321  22.665   2.621
49032W        W17437  17.180  34.594  10.006
49033W        W17438  17.935  14.414   2.708
49034W        W17439  14.955  17.701   3.119
49035W        W17440   0.832  40.960   2.654
49036W        W17441  37.406  39.676  11.322
49037W        W17442  39.035  25.708   2.751
49038W        W17443  42.981  36.926   0.326
49039W        W17444  44.766   9.270  11.884
49040W        W17445   7.267  41.055   1.215
49041W        W17446   9.993  43.559   4.246
49042W        W17447  29.031  32.133   1.799
49043W        W17448  41.988  26.222  13.998
49044W        W17449  19.352  37.744  11.256
49045W        W17450   8.326   5.992  13.374
49046W        W17451  18.772  38.954   3.273
49047W        W17452  28.901  37.214  13.884
49048W        W17453  42.307  43.721   3.542
49049W        W17454  34.947  36.990  10.596
49050W        W17455  27.118  35.419   0.916
49051W        W17456   3.189  25.099  11.035
49052W        W17457  28.192  35.597  10.669
49053W        W17458  15.317   6.164   3.855
49054W        W17459  22.046  12.305   2.822
49055W        W17460  30.201   0.289   4.390
49056W        W17461  38.705  35.439   1.678
49057W        W17462  39.085  28.278   1.286
49058W        W17463  32.477  44.264   2.646
49059W        W17464  44.858  35.329   1.337
49060W        W17465  21.001  11.753   3.665
49061W        W17466   1.478  37.928   0.702
49062W        W17467   7.677  39.337  13.380
49063W        W17468   9.486  23.701  10.647
49064W        W17469  10.470  37.870  12.917
49065W        W17470  21.767  39.474   3.380
49066W        W17471  30.164  11.376  11.532
49067W        W17472  41.150   8.124  10.984
49068W        W17473   3.553  29.018   0.423
49069W        W17474  14.310  40.999   2.789
49070W        W17475  44.467   6.163  12.584
49071W        W17476  21.961  14.107   2.862
49072W        W17477  38.141  36.621  11.426
49073W        W17478  20.783  38.921  10.385
49074W        W17479  44.497  17.872  10.639
49075W        W17480  21.810  27.120  13.268
49076W        W17481  32.029  44.946  11.495
49077W        W17482  34.834   8.070  10.712
49078W        W17483  28.080  34.064  13.332
49079W        W17484  31.753  30.881  11.049
49080W        W17485  10.798   0.410  14.449
49081W        W17486  10.056   0.733   4.570
49082W        W17487  16.707  33.264   0.536
49083W        W17488  32.174  15.758  11.256
49084W        W17489   2.521   7.706  12.915
49085W        W17490   3.341  44.554  12.425
49086W        W17491   5.164  39.360   2.096
49087W        W17492   3.504  26.582   2.318
49088W        W17493  42.492  42.906   1.682
49089W        W17494  34.153  23.009  13.998
49090W        W17495   7.973  18.608   0.711
49091W        W17496  19.592  24.003   2.628
49092W        W17497  43.802   6.343   4.672
49093W        W17498   0.712  25.474  10.745
49094W        W17499  36.532   9.756   3.776
49095W        W17500   1.558   0.185  11.075
49096W        W17501  23.703   6.684  12.548
49097W        W17502   6.914  39.531  12.095
49098W        W17503  12.618  14.923  13.450
49099W        W17504  41.839   6.882  13.421
49100W        W17505  13.816  23.787  12.943
49101W        W17506  23.734   6.334   3.149
49102W        W17507  15.889  28.137   4.597
49103W        W17508  12.691  19.103  10.631
49104W        W17509  10.820   1.810  12.546
49105W        W17510   6.538  30.666  14.843
49106W        W17511  35.269   1.432  11.651
49107W        W17512  15.566  40.928   2.828
49108W        W17513  11.379  38.415  12.359
49109W        W17514   9.508  10.669   0.393
49110W        W17515   8.681  17.488   3.667
49111W        W17516  14.205  26.379  13.129
49112W        W17517   8.837  31.580  12.088
49113W        W17518   4.940  31.393   3.319
49114W        W17519  12.400  32.584   1.175
49115W        W17520  19.074  18.367   0.708
49116W        W17521  21.571  32.957  14.223
49117W        W17522  40.487  23.263   1.742
49118W        W17523   2.282  22.291  12.903
49119W        W17524   4.178  10.765   4.228
49120W        W17525   4.425  40.263  11.319
49121W        W17526  44.916  38.366   0.531
49122W        W17527  25.161  26.329   2.503
49123W        W17528  23.976   2.307   2.856
49124W        W17529  15.605  23.096  10.310
49125W        W17530   0.940  41.304  14.840
49126W        W17531  14.296   6.949  13.686
49127W        W17532   5.408  43.813  12.522
49128W        W17533   0.702  33.453   4.600
49129W        W17534  33.567   9.409   4.821
49130W        W17535  24.192  39.791   3.657
49131W        W17536  26.391  15.148   2.257
49132W        W17537  37.121  34.836  13.538
49133W        W17538  32.536  17.532   2.105
49134W        W17539  33.890  27.652   4.540
49135W        W17540  32.978  35.652  10.959
49136W        W17541   5.781  21.205  14.419
49137W        W17542  22.618  12.334  14.416
49138W        W17543  32.299   7.284   4.531
49139W        W17544  14.721  10.949  14.463
49140W        W17545  37.299   0.542   1.416
49141W        W17546  21.609  14.813  14.378
49142W        W17547  41.806   7.566  12.325
49143W        W17548  30.609  13.181   3.674
49144W        W17549  30.908  30.339  10.395
49145W        W17550  13.096  13.766   4.146
49146W        W17551  27.146  13.787   4.000
49147W        W17552  43.724  17.283  14.177
49148W        W17553  42.011  35.819   3.358
49149W        W17554  43.380  32.824   0.873
49150W        W17555  19.322   8.651  10.920
49151W        W17556  16.301  24.651  12.118
49152W        W17557  41.741  24.578  11.925
49153W        W17558  36.473  29.538  11.571
49154W        W17559  31.639  26.149   5.099
49155W        W17560  29.055  27.586  12.079
49156W        W17561   2.483  23.530  12.419
49157W        W17562  28.090  44.577   2.363
49158W        W17563  42.960  22.648   0.338
49159W        W17564   6.395  25.321   0.837
49160W        W17565  43.783  20.194  11.620
49161W        W17566  17.631  42.086   2.679
49162W        W17567  44.434  20.274  12.505
49163W        W17568  24.493  14.874  10.756
49164W        W17569  24.053  30.327   4.706
49165W        W17570   3.907  23.077  13.391
49166W        W17571  29.151  37.304   0.897
49167W        W17572  36.511  12.976   1.769
49168W        W17573  34.292   3.767  12.495
49169W        W17574   5.764   6.479   0.312
49170W        W17575  28.937  31.584   0.962
49171W        W17576  39.030  27.348   0.457
49172W        W17577  11.763  38.951  14.869
49173W        W17578   2.074  10.440   4.983
49174W        W17579  32.711  33.671   2.645
49175W        W17580  34.597  27.889  11.099
49176W        W17581  24.573  15.922   3.207
49177W        W17582  28.234  41.555   2.872
49178W        W17583  30.758  29.442   0.730
49179W        W17584  21.309  35.677   3.268
49180W        W17585  37.892  33.315   1.578
49181W        W17586  43.069  18.914   4.615
49182W        W17587   8.434  11.240  12.967
49183W        W17588  41.769   3.418  10.098
49184W        W17589  20.700  37.942   0.832
49185W        W17590  39.591  25.537   3.668
49186W        W17591  39.007  41.434  10.555
49187W        W17592  13.475  32.896   9.815
49188W        W17593  12.623  37.019  12.971
49189W        W17594  40.281  30.213  14.472
49190W        W17595  19.812  42.629   1.407
49191W        W17596  23.177  22.324   3.261
49192W        W17597  39.556  23.688  14.428
49193W        W17598   4.435  31.355  10.532
49194W        W17599  15.806  24.514  12.078
49195W        W17600  29.310  27.354  14.084
49196W        W17601  13.366  37.485   0.111
49197W        W17602  30.464  20.069  14.775
49198W        W17603  25.264  19.647  11.096
49199W        W17604  42.850  37.853  14.377
49200W        W17605  31.686  36.062  13.710
49201W        W17606  24.565  34.698  11.205
49202W        W17607   1.619  24.972  13.331
49203W        W17608   9.234  29.149   4.070
49204W        W17609  17.211  38.974   2.228
49205W        W17610  44.863  17.741  12.538
49206W        W17611   1.186   2.588   3.195
49207W        W17612  32.352  15.952   4.454
49208W        W17613   4.143   5.435  12.172
49209W        W17614  25.277   3.366   3.733
49210W        W17615  19.129  11.243  13.048
49211W        W17616  30.686   0.748   1.728
49212W        W17617  27.483  42.981   2.923
49213W        W17618  34.814  33.339   4.120
49214W        W17619  15.823  30.665  12.825
49215W        W17620   6.788  39.469   0.935
49216W        W17621   4.424   0.354  11.628
49217W        W17622  26.545  35.990  10.724
49218W        W17623  38.835   2.118  13.474
49219W        W17624  38.812  35.172   0.022
49220W        W17625  14.040   3.255   2.506
49221W        W17626  22.652  33.548   0.432
49222W        W17627  21.102  31.259  11.122
49223W        W17628  19.607  26.525   4.669
49224W        W17629   3.795  38.419  11.997
49225W        W17630  15.218   3.288  11.665
49226W        W17631   1.912  42.919   4.433
49227W        W17632  32.504  38.505   4.757
49228W        W17633  14.218  31.369   2.441
49229W        W17634  25.603   8.277  12.179
49230W        W17635  43.934   8.834  14.880
49231W        W17636  21.270   9.035   1.881
49232W        W17637  44.362  25.783  12.362
49233W        W17638  28.646  40.304   0.793
49234W        W17639   3.926  31.888   3.693
49235W        W17640   3.602  29.818   4.630
49236W        W17641  19.541  20.374   2.603
49237W        W17642  16.770  13.386  13.232
49238W        W17643  37.116   2.962   4.212
49239W        W17644  31.643  19.161   0.525
49240W        W17645  22.018  27.986   3.931
49241W        W17646  38.034  44.717   0.862
49242W        W17647  30.821  38.518   3.525
49243W        W17648  37.519   9.587  14.534
49244W        W17649  44.030   1.679   2.470
49245W        W17650  11.784   7.585  10.491
49246W        W17651  18.067  36.338  12.774
49247W        W17652  14.339  29.920  11.921
49248W        W17653  41.980  17.129   4.425
49249W        W17654  13.114  40.830   4.483
49250W        W17655  37.172  13.048  12.375
49251W        W17656   2.569  19.581  12.507
49252W        W17657  44.368  29.274   0.939
49253W        W17658  20.531  17.995   1.927
49254W        W17659  15.102   1.234  14.382
49255W        W17660  24.662  13.408   2.445
49256W        W17661  31.025  13.592   4.562
49257W        W17662  21.094  12.900   2.586
49258W        W17663  21.905  22.148   0.434
49259W        W17664  32.722   8.129  11.436
49260W        W17665   0.227  14.633  14.361
49261W        W17666  41.784  39.025   2.202
49262W        W17667  44.566  37.342  13.539
49263W        W17668   7.791  20.871   2.660
49264W        W17669  13.820  16.595   3.128
49265W        W17670   4.974   6.202  13.506
49266W        W17671  21.658  22.120  13.011
49267W        W17672  30.036  10.428  14.958
49268W        W17673   9.717  14.817   1.982
49269W        W17674  35.232  36.432  11.014
49270W        W17675   5.082  12.723   5.033
49271W        W17676  24.991   0.245  14.393
49272W        W17677  43.431  18.011   1.850
49273W        W17678   5.376  15.592  13.020
49274W        W17679  21.687   3.426  13.541
49275W        W17680   1.273  15.134  11.567
49276W        W17681  30.591  37.089  13.583
49277W        W17682  33.870   7.746   3.908
49278W        W17683  29.620   6.826   4.579
49279W        W17684  17.337  13.305   4.280
49280W        W17685  28.040   3.150  12.055
49281W        W17686   8.949  19.286  10.013
49282W        W17687  40.762  27.740  10.999
49283W        W17688  27.935  27.196   4.496
49284W        W17689  35.818   3.819   2.599
49285W        W17690  20.059  17.722   1.861
49286W        W17691  19.055  14.351   0.770
49287W        W17692  32.809  44.649  11.912
49288W        W17693   5.438  18.337  11.907
49289W        W17694   9.223  13.617   1.456
49290W        W17695  33.473  12.740   2.913
49291W        W17696   4.096  25.233  10.125
49292W        W17697  25.547  29.374  13.737
49293W        W17698  26.042  23.586   4.862
49294W        W17699  29.075  42.748   2.353
49295W        W17700  38.340  29.708   2.279
49296W        W17701  26.148  27.508   0.790
49297W        W17702  41.001   5.510  14.453
49298W        W17703  13.134  38.860  14.310
49299W        W17704  14.166  40.585   3.038
49300W        W17705   6.394  25.945   3.678
49301W        W17706  24.863  36.697  14.446
49302W        W17707  37.369  23.149   4.724
49303W        W17708   0.639  25.982  12.536
49304W        W17709  20.561   1.687   2.726
49305W        W17710   4.955   9.118   2.352
49306W        W17711  40.896   3.894   3.172
49307W        W17712   2.622  37.601   4.153
49308W        W17713  35.879  36.261  13.887
49309W        W17714   9.610  21.643  11.363
49310W        W17715  43.361   0.924  11.440
49311W        W17716  29.854  44.047   9.802
49312W        W17717   2.008  43.497   2.783
49313W        W17718   4.232  23.711  12.826
49314W        W17719   2.287  22.622  11.411
49315W        W17720   4.999  24.218  12.759
49316W        W17721  26.129  37.229   1.871
49317W        W17722  21.259  17.600   0.896
49318W        W17723  23.307   2.214  12.708
49319W        W17724  27.828  12.620  10.847
49320W        W17725  22.542  34.850  11.204
49321W        W17726  32.927  20.498   2.371
49322W        W17727  42.996  20.761  13.352
49323W        W17728  35.394  41.035  12.541
49324W        W17729   0.291  42.377  14.848
49325W        W17730  29.177  27.822   4.236
49326W        W17731   3.842  34.587   1.442
49327W        W17732  42.305  43.360   4.390
49328W        W17733  20.196   1.004   2.319
49329W        W17734  14.581  32.893   3.884
49330W        W17735  25.597  42.022   4.354
49331W        W17736  23.890  19.187   3.135
49332W        W17737   2.078  24.440  14.421
49333W        W17738  21.737  34.709   4.222
49334W        W17739  31.674  25.713   2.321
49335W        W17740  14.632  25.800   0.195
49336W        W17741  10.629  14.140   1.156
49337W        W17742  22.412  13.652  11.127
49338W        W17743  31.121  33.453   1.822
49339W        W17744   9.915  35.240   1.917
49340W        W17745  21.819  27.627  13.071
49341W        W17746  24.791  33.080   0.880
49342W        W17747   8.339   6.504  13.306
49343W        W17748  33.091  25.563   3.543
49344W        W17749   7.744  35.560  11.021
49345W        W17750  21.080  44.540   4.222
49346W        W17751  29.893  14.163   0.276
49347W        W17752  18.325  37.579  10.647
49348W        W17753  30.482  11.622   1.611
49349W        W17754  34.413  17.249  13.515
49350W        W17755  13.046  36.129   3.647
49351W        W17756   4.205  25.161  11.088
49352W        W17757  17.636   9.782   1.661
49353W        W17758  26.129  24.164   1.264
49354W        W17759  39.041   3.983   2.265
49355W        W17760  41.740  34.677  10.328
49356W        W17761  11.164   5.927   2.805
49357W        W17762  36.506  13.229  14.874
49358W        W17763   1.819  41.782  11.429
49359W        W17764  21.971  22.134   4.781
49360W        W17765  30.723  41.761  10.718
49361W        W17766  28.697   4.832  13.453
49362W        W17767  30.544  44.981   2.733
49363W        W17768  35.692  15.118   2.872
49364W        W17769  18.977   2.373   1.267
49365W        W17770   5.663   3.731  10.403
49366W        W17771  35.687  10.800   3.946
49367W        W17772  13.034  34.968  14.100
49368W        W17773   5.310  42.840   0.863
49369W        W17774  21.664  17.647  14.553
49370W        W17775  14.534   7.626  10.608
49371W        W17776  41.945  31.700  11.217
49372W        W17777  14.579  15.314  13.972
49373W        W17778  44.365   7.413  11.143
49374W        W17779  37.041  22.742  13.860
49375W        W17780  14.210  11.829  14.277
49376W        W17781  23.824  44.858  14.004
49377W        W17782  40.515  41.857   0.103
49378W        W17783  26.315  19.174   3.708
49379W        W17784  25.138  21.708  14.847
49380W        W17785  31.879  20.587   2.261
49381W        W17786  25.868  11.885  13.376
49382W        W17787  13.427  43.043  10.996
49383W        W17788   4.800  41.250   3.088
49384W        W17789  40.512  26.062  14.179
49385W        W17790  16.282  18.645  13.425
49386W        W17791  32.962   7.795   4.394
49387W        W17792  14.254  28.402  14.319
49388W        W17793  27.779   4.117  14.440
49389W        W17794   7.195   8.705   4.131
49390W        W17795  10.147   6.898  14.387
49391W        W17796  29.597   2.458  10.315
49392W        W17797   5.305  13.298  12.057
49393W        W17798  17.829   2.716  11.672
49394W        W17799  37.622  22.198   0.999
49395W        W17800  36.015  19.753  13.425
49396W        W17801   5.195  16.428   0.704
49397W        W17802  43.394  28.528  10.465
49398W        W17803  33.679   1.525   1.812
49399W        W17804  30.038  17.856   0.518
49400W        W17805  31.584  15.391   3.734
49401W        W17806  10.066  10.194   0.858
49402W        W17807  35.098   4.238   3.279
49403W        W17808   3.445  29.810   0.590
49404W        W17809  18.674  44.408   3.633
49405W        W17810  15.705  20.755  11.192
49406W        W17811  37.873  25.466  10.405
49407W        W17812  22.140  42.061   3.046
49408W        W17813  22.934   0.799  12.325
49409W        W17814  25.032   6.106   2.848
49410W        W17815  44.958  30.929   2.258
49411W        W17816  11.207  26.210   0.263
49412W        W17817  40.997  24.160  12.436
49413W        W17818  41.943  12.297   0.127
49414W        W17819   1.041  13.221   0.705
49415W        W17820  41.759  38.403   4.178
49416W        W17821  13.336  14.720   2.203
49417W        W17822   2.669  16.991   0.401
49418W        W17823  37.097  43.973  12.035
49419W        W17824  36.099   4.345  14.006
49420W        W17825  24.469  31.422   0.448
49421W        W17826  37.089  38.499   0.826
49422W        W17827   8.141   0.831   0.355
49423W        W17828   2.915  38.680  10.551
49424W        W17829  35.018  33.825   2.908
49425W        W17830   5.821   4.309  11.032
49426W        W17831  12.988   8.719  12.538
49427W        W17832   2.653  18.797  11.979
49428W        W17833  21.582  13.169   3.979
49429W        W17834  28.246   6.375  10.692
49430W        W17835   3.854   0.688   2.270
49431W        W17836  16.740  14.754   3.505
49432W        W17837  31.932  28.711   2.768
49433W        W17838  35.677  24.438   0.302
49434W        W17839   4.433  32.532  11.560
49435W        W17840  39.892  17.838  12.136
49436W        W17841  15.366  44.374   3.186
49437W        W17842  15.129  41.850   3.453
49438W        W17843   2.823   9.731   4.073
49439W        W17844  42.370  37.658  14.700
49440W        W17845   1.154   8.776   3.332
49441W        W17846  11.304  15.797   2.960
49442W        W17847  42.794  18.096   4.122
49443W        W17848   9.395  22.665  14.009
49444W        W17849  32.013  23.421  15.000
49445W        W17850  43.721   1.701  14.989
49446W        W17851  18.077  33.779   2.794
49447W        W17852   9.130  14.634  12.624
49448W        W17853  31.495  37.253   1.527
49449W        W17854  24.263   7.783  13.913
49450W        W17855  27.185  17.012   3.681
49451W        W17856  11.846  38.322   2.830
49452W        W17857  10.407  11.538  14.082
49453W        W17858  31.345  28.171  11.318
49454W        W17859  38.513  29.952   2.899
49455W        W17860   9.526   0.372   9.640
49456W        W17861  21.728  12.373  14.514
49457W        W17862  28.789  42.067  12.722
49458W        W17863  24.604  28.885  12.082
49459W        W17864  13.286   6.919   1.882
49460W        W17865  43.829  11.168  13.606
49461W        W17866  18.288  29.974   0.056
49462W        W17867   0.194   9.513   5.118
49463W        W17868  22.965   0.859  14.358
49464W        W17869  11.142   1.208  14.279
49465W        W17870  32.875  25.513   4.003
49466W        W17871  39.317  33.909  13.987
49467W        W17872  19.720   7.500   2.035
49468W        W17873  18.578   1.832   4.046
49469W        W17874   8.086  28.859   3.523
49470W        W17875  36.118   7.419  12.457
49471W        W17876  24.212  14.092   4.201
49472W        W17877   0.256  28.591   4.609
49473W        W17878  13.392   3.187   0.895
49474W        W17879  40.768  20.710   4.297
49475W        W17880  40.992  30.869   3.263
49476W        W17881  21.134  26.670   5.142
49477W        W17882  43.980   1.696  14.551
49478W        W17883  23.392  23.575  14.093
49479W        W17884  30.598  32.149  14.911
49480W        W17885   2.387  23.394   0.957
49481W        W17886  22.337  17.334   5.053
49482W        W17887  12.309  14.277  11.643
49483W        W17888  18.236  22.255  14.731
49484W        W17889   5.875  12.323  13.279
49485W        W17890  28.383   7.845   0.319
49486W        W17891  23.804  15.929  11.165
49487W        W17892  17.145  37.119   4.107
49488W        W17893  34.626  37.458   0.311
49489W        W17894  28.646  30.555   1.835
49490W        W17895  18.898   7.393   2.615
49491W        W17896  35.891  24.583   4.452
49492W        W17897  36.305   7.394   4.964
49493W        W17898  40.932  37.371   2.447
49494W        W17899  35.033  13.125   1.616
49495W        W17900   8.094   8.200  11.112
49496W        W17901  27.343  37.955  10.971
49497W        W17902  20.258  21.700   0.009
49498W        W17903  29.037  43.790  12.905
49499W        W17904  38.298  10.781   1.467
49500W        W17905  13.302  20.985   4.599
49501W        W17906  22.570   9.158  13.626
49502W        W17907  28.106  22.637  13.891
49503W        W17908  33.343  32.000  12.848
49504W        W17909  20.306  37.676  13.991
49505W        W17910  15.270  31.410   0.943
49506W        W17911   0.895  38.812  12.896
49507W        W17912  41.875  10.187   3.789
49508W        W17913  13.632  29.579  11.245
49509W        W17914  24.190  27.080   2.884
49510W        W17915  27.711  32.222  14.933
49511W        W17916  27.236   7.672  10.479
49512W        W17917   1.338  37.170   4.470
49513W        W17918  41.662  30.485  14.509
49514W        W17919   8.732  34.613  11.165
49515W        W17920  19.580  26.458  11.968
49516W        W17921   8.987  36.544  11.129
49517W        W17922  14.215  17.562   1.922
49518W        W17923  26.443  34.891  13.639
49519W        W17924   7.634  37.582   3.930
49520W        W17925  11.802   7.736   2.757
49521W        W17926  21.897  23.001   4.107
49522W        W17927   8.478   6.303   4.331
49523W        W17928  44.411  43.830   0.847
49524W        W17929  19.604  18.497   4.598
49525W        W17930  20.069  17.169   4.190
49526W        W17931   7.634  23.778   1.335
49527W        W17932  30.076   8.290   3.090
49528W        W17933  10.245  15.488  11.528
49529W        W17934  24.846   2.271  10.753
49530W        W17935  41.977   4.087   4.851
49531W        W17936   7.371  44.417  11.987
49532W        W17937  21.183  18.296  12.579
49533W        W17938  26.683  14.019   0.544
49534W        W17939  41.625  15.781   3.703
49535W        W17940   3.816   8.995  10.805
49536W        W17941  36.469  24.899  12.933
49537W        W17942  36.625   0.740   0.016
49538W        W17943   7.884   6.767  14.952
49539W        W17944  42.286  31.186   1.817
49540W        W17945  28.955  37.370   3.203
49541W        W17946  32.416  44.908  14.748
49542W        W17947  23.540  10.146   3.136
49543W        W17948   6.719  35.817   0.186
49544W        W17949  44.337  26.654  11.514
49545W        W17950  27.476  11.922   3.323
49546W        W17951  33.481  38.304  11.627
49547W        W17952  28.860  27.174  14.270
49548W        W17953  29.930  34.656   0.902
49549W        W17954   1.203  39.361   1.246
49550W        W17955  25.234  43.075   0.335
49551W        W17956   6.614  19.333   3.192
49552W        W17957  15.326  14.277  14.381
49553W        W17958  30.460  28.418   3.108
49554W        W17959  37.836  30.615  12.008
49555W        W17960  11.853  19.730   3.231
49556W        W17961   6.723  28.130  10.105
49557W        W17962  24.829  10.649  12.486
49558W        W17963   0.018  41.563  12.988
49559W        W17964  22.146  41.004   0.376
49560W        W17965  26.729  24.468  12.907
49561W        W17966  14.255   4.202  11.650
49562W        W17967  34.916   3.514   3.721
49563W        W17968  44.080   7.929   0.466
49564W        W17969  42.407  18.687  12.912
49565W        W17970  17.706  20.185  12.083
49566W        W17971  10.426  40.305   0.924
49567W        W17972   3.833   3.445  10.557
49568W        W17973  39.646  40.380  12.419
49569W        W17974  21.560  27.489  14.059
49570W        W17975  40.915  25.718  12.139
49571W        W17976  11.104  43.503   3.177
49572W        W17977   1.738  35.546   0.139
49573W        W17978  27.343  11.378  11.574
49574W        W17979  37.896   1.061  14.695
49575W        W17980  31.112  28.713   3.846
49576W        W17981   1.228  44.039   2.217
49577W        W17982  13.775  19.575   4.621
49578W        W17983   8.438  34.080  13.495
49579W        W17984  13.826  38.429   0.372
49580W        W17985   3.263   8.936  12.150
49581W        W17986  35.986  26.054  12.957
49582W        W17987  15.784   6.847   4.242
49583W        W17988  27.963  21.621   2.245
49584W        W17989  15.289  32.074   0.035
49585W        W17990  30.331  14.530   3.265
49586W        W17991  35.716  11.787   1.901
49587W        W17992  32.664  19.150  12.688
49588W        W17993   8.844  13.616  11.208
49589W        W17994  41.735  35.985  12.716
49590W        W17995  26.697  38.617  12.354
49591W        W17996   9.021  25.716  11.256
49592W        W17997  37.353   6.460   4.484
49593W        W17998   8.105  31.571   2.853
49594W        W17999  25.558  12.863  13.349
49595W        W18000  11.562  11.884   4.911
49596W        W18001   7.451   8.308  13.811
49597W        W18002   5.120  15.271   2.307
49598W        W18003  12.903   6.784  11.652
49599W        W18004   4.354   4.248  14.980
49600W        W18005  38.374   5.807   0.847
49601W        W18006   2.992  26.641   2.289
49602W        W18007  17.524  42.982   3.728
49603W        W18008  12.118  33.106  13.453
49604W        W18009   0.499  31.029  12.490
49605W        W18010  25.522  31.795  12.963
49606W        W18011  29.885  43.957   3.302
49607W        W18012  31.216  33.003   2.911
49608W        W18013  25.576   3.890  13.042
49609W        W18014   4.260  30.476  14.954
49610W        W18015   6.661  36.363  14.472
49611W        W18016  31.575  41.465  13.305
49612W        W18017  21.714   5.745   2.406
49613W        W18018  31.517   2.338   3.244
49614W        W18019  13.796  22.799   4.904
49615W        W18020  17.052  27.636  10.696
49616W        W18021  43.208  10.325   2.738
49617W        W18022  22.519   5.494   3.891
49618W        W18023  22.903  36.083   3.776
49619W        W18024  38.384  40.772   3.794
49620W        W18025  24.025  43.736  13.795
49621W        W18026   0.721  17.219   2.846
49622W        W18027  31.621   1.441   2.872
49623W        W18028  26.491  42.041  11.621
49624W        W18029  29.909  21.520   0.762
49625W        W18030  16.555  42.873   4.756
49626W        W18031  12.977  20.490  13.534
49627W        W18032   9.342   9.691  11.947
49628W        W18033  40.799  39.415   4.115
49629W        W18034  31.036   9.266   4.163
49630W        W18035  43.465  36.073   2.446
49631W        W18036   8.644  24.192  13.576
49632W        W18037  38.956  21.685  10.661
49633W        W18038  38.077  27.041   0.525
49634W        W18039  12.703   4.698  11.888
49635W        W18040  11.986  29.015   4.594
49636W        W18041  21.831   1.778   1.680
49637W        W18042   8.695  14.713   5.040
49638W        W18043  13.276  18.781   0.879
49639W        W18044  25.966  18.242   5.066
49640W        W18045  38.912  21.019   5.015
49641W        W18046  16.304   8.359   2.752
49642W        W18047  10.386  26.998   0.290
49643W        W18048  37.110  31.680  11.143
49644W        W18049   8.646  39.130  11.099
49645W        W18050  30.466  23.089   3.458
49646W        W18051   3.431  33.010   1.444
49647W        W18052   4.435  17.113  11.101
49648W        W18053  42.211  37.633  11.023
49649W        W18054  24.635  17.600   3.736
49650W        W18055   9.841  39.272   3.305
49651W        W18056  26.950  25.083   3.929
49652W        W18057  38.615  31.113   2.108
49653W        W18058  11.838  42.593  13.884
49654W        W18059  10.191   8.236  13.783
49655W        W18060  30.396  17.347   9.750
49656W        W18061  31.160  29.562  12.204
49657W        W18062  19.269  26.492   5.024
49658W        W18063  10.068   3.023   3.780
49659W        W18064  19.571  36.843   2.258
49660W        W18065  37.470   1.739  14.352
49661W        W18066  17.771   0.354  11.170
49662W        W18067  38.819  12.699   4.212
49663W        W18068  28.622  39.103   1.363
49664W        W18069  28.989   6.397   2.348
49665W        W18070  37.054  36.503  11.231
49666W        W18071   1.765  19.528   4.460
49667W        W18072  23.271  29.951   0.842
49668W        W18073  26.972   2.373  11.938
49669W        W18074   5.333   1.746   1.650
49670W        W18075  21.994  21.730  11.013
49671W        W18076  31.670  31.482   2.175
49672W        W18077  14.681  21.769  12.033
49673W        W18078  42.305  13.567  13.908
49674W        W18079  29.926  33.068   2.493
49675W        W18080  31.891  25.629  11.603
49676W        W18081  26.578   3.483   1.422
49677W        W18082  15.810  23.275   5.666
49678W        W18083   0.464   8.287  14.256
49679W        W18084  13.401  27.515  10.789
49680W        W18085  19.447   8.993   9.786
49681W        W18086  28.402   6.728  12.524
49682W        W18087  41.935  31.986   1.447
49683W        W18088   7.621  26.872   0.824
49684W        W18089  27.629   0.329   1.188
49685W        W18090  20.825  22.728   1.168
49686W        W18091   7.482  38.507  14.221
49687W        W18092  44.742  10.669  10.943
49688W        W18093  29.570  40.678   3.999
49689W        W18094  38.290  25.677   0.868
49690W        W18095  36.591  32.030   4.985
49691W        W18096   3.292  10.224  11.141
49692W        W18097  35.643  38.529  11.042
49693W        W18098  19.852  28.706  13.835
49694W        W18099  20.666  26.188   3.438
49695W        W18100   5.273   2.314   0.882
49696W        W18101  20.636  20.090  10.627
49697W        W18102  14.113  13.317  11.179
49698W        W18103  14.143  25.088  11.446
49699W        W18104  16.143  21.402   3.451
49700W        W18105   5.677  18.577  10.723
49701W        W18106  38.472  27.599   4.511
49702W        W18107  25.263   9.400  13.905
49703W        W18108  34.410  28.547  11.393
49704W        W18109   9.616  30.622   0.693
49705W        W18110  41.497   9.111   1.089
49706W        W18111  26.067  44.181  12.011
49707W        W18112   6.007   8.937   1.581
49708W        W18113  34.908  11.774  14.479
49709W        W18114   7.486  10.155   3.717
49710W        W18115  21.793  22.489   4.156
49711W        W18116  41.789  12.607   1.365
49712W        W18117   9.169  44.092   1.224
49713W        W18118  21.553  22.093   5.098
49714W        W18119  33.498  26.310   1.475
49715W        W18120  12.586  19.768   2.761
49716W        W18121  20.710  32.147   2.236
49717W        W18122  20.766  20.350  11.051
49718W        W18123   0.945  15.586   4.437
49719W        W18124  36.633  18.386   1.570
49720W        W18125  10.369  27.624  14.900
49721W        W18126   2.358  31.384   0.123
49722W        W18127  12.956   5.861   0.077
49723W        W18128   2.677  32.648  13.855
49724W        W18129  25.738  10.885  12.222
49725W        W18130  19.239   0.528   1.861
49726W        W18131  18.154  40.506   4.719
49727W        W18132  14.352  41.854   2.791
49728W        W18133   8.396  38.384   3.319
49729W        W18134   6.204   3.899   1.149
49730W        W18135  24.198  44.653   2.770
49731W        W18136  12.117   4.908  14.452
49732W        W18137   7.240  15.881   3.695
49733W        W18138  14.091  15.787   0.757
49734W        W18139  39.943  39.324  13.497
49735W        W18140   0.467  42.273   1.617
49736W        W18141  44.417  38.767   2.733
49737W        W18142  20.667  20.617  13.241
49738W        W18143   3.831   6.294  14.418
49739W        W18144  21.714  37.119   0.325
49740W        W18145  42.326  18.570   3.690
49741W        W18146   1.359  30.744   2.211
49742W        W18147   2.309  19.562   0.922
49743W        W18148  17.156  24.073   2.176
49744W        W18149  35.968  11.839   4.328
49745W        W18150  41.880  21.836  14.556
49746W        W18151  14.357  13.182  10.744
49747W        W18152  37.895  43.838  13.561
49748W        W18153  40.859   6.410   4.072
49749W        W18154  35.891  44.445  11.937
49750W        W18155  26.034  31.863   3.798
49751W        W18156  38.611  24.088   2.835
49752W        W18157  42.145   0.274  11.059
49753W        W18158  10.347  39.390   0.693
49754W        W18159  29.684   7.028  12.283
49755W        W18160  20.641  43.325   4.147
49756W        W18161   5.946   1.551   2.760
49757W        W18162  43.932  12.118  13.920
49758W        W18163  33.984   3.949   0.812
49759W        W18164   9.857   0.427  13.959
49760W        W18165   9.746  21.759   0.492
49761W        W18166   4.761  15.233   2.737
49762W        W18167  31.871  14.659  11.149
49763W        W18168  27.964  44.730   1.047
49764W        W18169  32.387  29.889  13.627
49765W        W18170  20.122  10.436  13.380
49766W        W18171  26.004  16.390  12.428
49767W        W18172   9.452  44.668   3.898
49768W        W18173   5.746  22.500   0.310
49769W        W18174  42.110   6.390  14.423
49770W        W18175  33.163   5.271  10.483
49771W        W18176  36.768  12.848   4.082
49772W        W18177  14.675  23.024   2.486
49773W        W18178   5.951  25.322   2.848
49774W        W18179  30.492  14.376  11.104
49775W        W18180  28.133  15.058   4.494
49776W        W18181  25.718  34.327  12.474
49777W        W18182  33.363  27.723   1.886
49778W        W18183   3.396  14.864   4.271
49779W        W18184  39.978  34.999   2.634
49780W        W18185   5.785  13.832   3.770
49781W        W18186   4.399   2.403   1.747
49782W        W18187  18.246   5.509   0.299
49783W        W18188  23.931  23.172   0.311
49784W        W18189  10.044  22.655   5.012
49785W        W18190  22.140   8.676   0.818
49786W        W18191  41.352  13.423   3.716
49787W        W18192  32.648  38.285   0.802
49788W        W18193  29.669  28.975   1.419
49789W        W18194  15.410   5.256  11.120
49790W        W18195  14.775  18.635   2.185
49791W        W18196  23.771  23.408   3.405
49792W        W18197  34.619  15.132   0.213
49793W        W18198   8.882  37.394   4.947
49794W        W18199  44.113   2.417   3.751
49795W        W18200  12.348   8.153   2.164
49796W        W18201   2.842  16.235   2.027
49797W        W18202   5.905  31.952  12.096
49798W        W18203  36.280  14.373  11.239
49799W        W18204  32.635   9.898  10.970
49800W        W18205  38.790  24.486  12.012
49801W        W18206   5.162  33.256   1.813
49802W        W18207  14.242   8.001  14.550
49803W        W18208  34.887  39.054  14.333
49804W        W18209  41.110   0.328  11.182
49805W        W18210  42.028  16.485  11.999
49806W        W18211  39.982   9.434  12.015
49807W        W18212  18.029  19.292   4.071
49808W        W18213  44.542  20.697  13.848
49809W        W18214   1.167  25.106   4.502
49810W        W18215  28.156   4.326  13.546
49811W        W18216   1.456  41.550   2.970
49812W        W18217  16.215  30.386   2.418
49813W        W18218  38.772  29.627   0.284
49814W        W18219  21.012  22.589   3.174
49815W        W18220  43.336   2.038   0.780
49816W        W18221   8.232  35.193   4.217
49817W        W18222  12.153  13.688   4.518
49818W        W18223  11.765   2.269  14.307
49819W        W18224   7.417  43.259   1.809
49820W        W18225  34.019  25.547   3.083
49821W        W18226  12.097  22.771  13.782
49822W        W18227   8.312  36.809   3.663
49823W        W18228   9.846  17.078  11.882
49824W        W18229  28.467  15.157  11.074
49825W        W18230  27.963  30.372  13.957
49826W        W18231  14.138  14.417   4.632
49827W        W18232  12.311  10.865  14.584
49828W        W18233  22.146  41.884   5.064
49829W        W18234  11.620   8.485  14.271
49830W        W18235  39.305  15.636  14.993
49831W        W18236  23.415  14.637  14.436
49832W        W18237   7.152  42.463   2.219
49833W        W18238  23.211  36.205  13.079
49834W        W18239   1.206  31.174  13.029
49835W        W18240  34.309  34.279  10.989
49836W        W18241  18.960   3.701  12.820
49837W        W18242  39.301  38.804  10.714
49838W        W18243  15.816   8.318   3.635
49839W        W18244  28.732   8.855   1.312
49840W        W18245  14.588   6.248   3.566
49841W        W18246  21.049  21.888   0.470
49842W        W18247  31.944   2.557  14.442
49843W        W18248  24.978  22.926  12.244
49844W        W18249  10.657   6.434   0.952
49845W        W18250  33.117   5.415   3.672
49846W        W18251   7.412  32.674   0.662
49847W        W18252  26.265   9.154  10.685
49848W        W18253   4.969  43.338   3.491
49849W        W18254  34.923   9.688   3.255
49850W        W18255   5.727   3.796   0.982
49851W        W18256  15.528  21.668  11.609
49852W        W18257  13.579  17.739  12.126
49853W        W18258  12.788  42.352  14.299
49854W        W18259   9.042  44.273  12.871
49855W        W18260  25.827  32.430   1.724
49856W        W18261  32.669   8.148  10.635
49857W        W18262  26.016  25.295   3.246
49858W        W18263   0.990  39.747  14.803
49859W        W18264  13.572  44.304   4.114
49860W        W18265  19.193  38.005   0.889
49861W        W18266  39.758  19.043   3.535
49862W        W18267   7.973  28.140   2.627
49863W        W18268  19.173   7.895  12.570
49864W        W18269  17.683   8.732  14.763
49865W        W18270   9.418  25.395  11.144
49866W        W18271   5.446  20.789  10.039
49867W        W18272  21.735  33.532   2.368
49868W        W18273  24.444  40.516   2.893
49869W        W18274  27.595  38.971  14.488
49870W        W18275  18.290  32.902  13.449
49871W        W18276  34.560  12.976  14.994
49872W        W18277   2.471   4.033   9.933
49873W        W18278  31.941  11.760   4.629
49874W        W18279  25.308  14.374   4.769
49875W        W18280  32.611  20.516   2.776
49876W        W18281  26.752  43.113  11.480
49877W        W18282  34.922  36.540   0.047
49878W        W18283  30.390  22.425  14.764
49879W        W18284  26.973  27.444  11.160
49880W        W18285   6.177  35.326  14.834
49881W        W18286  23.566  34.403  11.075
49882W        W18287  13.098  31.763   9.930
49883W        W18288  13.651  13.084   3.733
49884W        W18289  16.579  21.746  12.513
49885W        W18290  25.916  24.633  11.299
49886W        W18291  17.554  39.929  12.321
49887W        W18292   1.670  35.067   3.636
49888W        W18293  22.660  29.663  11.260
49889W        W18294  32.969  27.822  11.936
49890W        W18295  41.902  44.344  13.077
49891W        W18296  42.689  29.542   4.847
49892W        W18297  43.373  11.246  13.875
49893W        W18298  35.166  30.934  11.585
49894W        W18299  22.123   5.691  11.710
49895W        W18300  37.491  34.632   1.826
49896W        W18301  20.827  38.901  11.944
49897W        W18302  28.989  11.185  14.866
49898W        W18303  30.509  36.305  12.848
49899W        W18304  42.968  37.287  11.612
49900W        W18305  35.864   4.529  14.878
49901W        W18306   0.361  41.535  10.759
49902W        W18307  18.655  33.822  11.065
49903W        W18308  38.394   9.900   1.540
49904W        W18309  10.159  21.739   1.298
49905W        W18310  28.673  28.421  12.935
49906W        W18311  21.219   9.732   3.209
49907W        W18312  38.051  19.219   3.568
49908W        W18313   2.940  10.086  14.840
49909W        W18314   4.244  43.804   0.814
49910W        W18315  28.117  20.490   4.577
49911W        W18316   9.009  41.758   3.898
49912W        W18317  39.860  17.579   1.693
49913W        W18318  28.628  31.968  10.621
49914W        W18319   4.008  19.359   0.004
49915W        W18320  20.702  38.533  12.273
49916W        W18321  10.149  21.471  11.473
49917W        W18322  16.723  32.991   1.832
49918W        W18323  35.915  16.788  13.951
49919W        W18324  24.475  36.955   0.878
49920W        W18325   6.680  29.598   4.886
49921W        W18326  38.880  17.609   3.227
49922W        W18327  15.375   8.390  11.636
49923W        W18328  13.862  30.595   2.482
49924W        W18329  32.060  34.468  10.259
49925W        W18330   4.989  43.293  11.858
49926W        W18331  22.588  31.874  13.487
49927W        W18332   1.003  38.425   4.244
49928W        W18333  30.982  30.053   1.469
49929W        W18334  35.952  31.975   2.168
49930W        W18335  26.203  10.335   3.168
49931W        W18336  15.491  18.193   4.242
49932W        W18337  23.582  28.948  11.179
49933W        W18338  32.665  15.236  14.709
49934W        W18339  42.296  29.026   1.915
49935W        W18340  12.618  38.920   3.636
49936W        W18341  13.466  21.220  12.059
49937W        W18342  14.265  36.362  14.286
49938W        W18343  26.122  36.934   0.276
49939W        W18344   4.224  18.833  12.912
49940W        W18345  28.688  31.510   2.895
49941W        W18346  31.604   4.919  10.718
49942W        W18347  26.982  11.049  11.765
49943W        W18348  36.729  36.482  10.559
49944W        W18349  10.395  40.385  11.628
49945W        W18350  31.544   6.095  14.877
49946W        W18351  15.082  21.464  10.927
49947W        W18352  33.009  21.340  10.703
49948W        W18353  10.693   0.925  14.280
49949W        W18354  15.605  32.274  10.608
49950W        W18355  30.239  28.597  13.156
49951W        W18356   3.915  26.711   2.931
49952W        W18357  23.087  38.529   1.661
49953W        W18358  20.205  35.420   0.325
49954W        W18359  34.448  35.713  12.942
49955W        W18360  31.211  38.011  13.974
49956W        W18361  16.072  34.335   5.174
49957W        W18362  34.149  25.933  14.975
49958W        W18363  24.148  13.054   3.185
49959W        W18364  42.362   5.224  14.070
49960W        W18365   8.735  38.822  10.685
49961W        W18366  22.160   4.266  14.779
49962W        W18367  10.254  40.880  11.566
49963W        W18368  20.720  35.662   1.965
49964W        W18369   6.818  22.211   1.274
49965W        W18370  26.327  42.836   4.417
49966W        W18371  27.253  42.091  11.942
49967W        W18372  18.058  43.820   1.989
49968W        W18373  21.025  35.077  13.517
49969W        W18374  26.558   4.577   3.176
49970W        W18375  35.016   8.717   5.051
49971W        W18376  40.919  27.660  14.928
49972W        W18377  42.013  31.439   1.351
49973W        W18378  24.642  39.433   1.715
49974W        W18379   0.812  18.155   2.809
49975W        W18380  35.482  24.573  11.702
49976W        W18381   5.858  13.329  13.929
49977W        W18382  16.999  34.030  14.395
49978W        W18383   4.583  43.431   5.160
49979W        W18384  17.690  43.126  11.168
49980W        W18385  43.901  23.178  10.801
49981W        W18386  29.122  41.706   4.655
49982W        W18387  38.524  38.021  11.125
49983W        W18388  19.605   8.040  11.944
49984W        W18389   6.159  36.424  14.593
49985W        W18390  44.079  30.567   3.684
49986W        W18391  36.073  27.007  13.156
49987W        W18392   9.544  29.387   2.220
49988W        W18393  16.820  27.973  13.980
49989W        W18394  29.923  28.659  12.723
49990W        W18395  37.044  20.676   2.732
49991W        W18396  22.999  22.947   1.837
49992W        W18397   4.865   4.534  13.952
49993W        W18398  36.040  18.480   3.699
49994W        W18399   8.860  26.116   2.808
49995W        W18400   0.472   1.546   3.215
49996W        W18401  19.698   9.352  14.203
49997W        W18402  36.582   7.391  12.824
49998W        W18403  18.099  30.539  13.843
49999W        W18404  12.626  37.513  13.382
50000W        W18405  10.187   3.974   2.815
50001W        W18406  24.710  21.573   3.191
50002W        W18407   9.645  36.696   0.526
50003W        W18408   0.367  13.324   0.759
50004W        W18409  32.029  41.868  12.745
50005W        W18410  30.585  26.955  14.940
50006W        W18411  43.153  24.087   1.323
50007W        W18412   6.211   5.244   1.294
50008W        W18413  36.572   5.118   4.951
50009W        W18414  32.512   9.339   1.712
50010W        W18415  25.991  17.783   4.321
50011W        W18416  18.777  39.413   2.297
50012W        W18417  42.837  24.060  14.946
50013W        W18418   5.309   6.746   2.555
50014W        W18419   4.035   0.499  12.982
50015W        W18420  39.064  37.859   2.299
50016W        W18421  25.327  20.746   0.216
50017W        W18422   3.946  12.869   0.551
50018W        W18423  40.252  37.363  12.547
50019W        W18424   0.237  28.769  14.028
50020W        W18425  13.640  40.954  12.077
50021W        W18426  39.575  41.992   2.199
50022W        W18427  16.315  12.728  10.528
50023W        W18428  10.814  22.349   2.272
50024W        W18429  26.154   0.275   0.706
50025W        W18430   2.454  23.892  14.269
50026W        W18431  12.759  18.553  14.984
50027W        W18432  41.035  16.659   0.141
50028W        W18433  14.062   7.130  12.072
50029W        W18434  10.352  10.305  12.007
50030W        W18435   7.599  33.511   1.884
50031W        W18436  42.425   4.529  11.449
50032W        W18437  35.664   6.381   1.125
50033W        W18438  26.503  41.252   2.372
50034W        W18439  30.579  36.906   2.754
50035W        W18440  21.940  44.800   2.380
50036W        W18441  11.247   0.664   3.208
50037W        W18442   9.538  33.315  11.604
50038W        W18443  27.621  33.432  13.438
50039W        W18444  21.989  17.187  13.113
50040W        W18445  21.322   6.868  13.642
50041W        W18446  18.829  32.388  12.506
50042W        W18447   2.919  14.931   4.081
50043W        W18448  38.454  17.922  13.395
50044W        W18449  39.317  19.713   4.230
50045W        W18450  11.520   9.432  13.414
50046W        W18451  26.712  30.572  11.696
50047W        W18452  16.645  34.370  11.254
50048W        W18453  24.006  34.960   3.953
50049W        W18454  26.024  28.073   0.829
50050W        W18455  11.083  21.562   0.722
50051W        W18456  14.616  17.751   1.625
50052W        W18457   4.625  10.651  10.795
50053W        W18458   4.789  41.831   1.639
50054W        W18459  31.024  35.101   0.018
50055W        W18460  41.713  21.990   2.694
50056W        W18461  39.964  25.658   0.753
50057W        W18462   6.061  41.103   3.415
50058W        W18463  11.834   9.161  11.488
50059W        W18464   7.118   0.824   1.888
50060W        W18465   8.377  31.993  10.723
50061W        W18466  15.238  35.158   3.776
50062W        W18467  14.607   4.917  14.852
50063W        W18468  19.560  16.525   2.872
50064W        W18469   6.887  11.709   2.823
50065W        W18470  42.361  44.283  13.370
50066W        W18471   7.318  12.701   4.545
50067W        W18472  35.067  40.495  10.748
50068W        W18473  12.409   4.252  11.581
50069W        W18474  10.395   1.440  10.098
50070W        W18475  17.776  12.124  14.889
50071W        W18476  21.416   0.954   1.355
50072W        W18477  38.824   4.511  13.489
50073W        W18478  29.573   6.319  14.343
50074W        W18479   9.311  16.716  10.882
50075W        W18480  12.951  26.498   1.344
50076W        W18481  37.083  21.445   3.190
50077W        W18482  44.310  10.258  12.408
50078W        W18483  34.907   3.193   1.765
50079W        W18484  14.124  30.322  14.199
50080W        W18485  39.728  35.508   0.467
50081W        W18486  31.209  26.556  14.488
50082W        W18487  34.490  36.877   1.184
50083W        W18488   8.141   8.395   0.193
50084W        W18489   4.481  24.561  14.867
50085W        W18490  14.553   1.721   1.892
50086W        W18491  16.139  35.813  13.802
50087W        W18492  40.485  19.714  10.579
50088W        W18493  27.915  39.497  14.108
50089W        W18494  11.279  32.273   3.725
50090W        W18495  14.502  24.195  14.497
50091W        W18496  44.706  32.851   0.868
50092W        W18497  29.043  24.175   0.003
50093W        W18498  17.671  38.386   1.843
50094W        W18499  10.106  17.290  12.952
50095W        W18500  28.506  24.980  12.557
50096W        W18501  33.254   1.209   1.703
50097W        W18502   1.904  42.028  14.317
50098W        W18503   1.355  28.637  14.926
50099W        W18504  33.930  26.621  11.518
50100W        W18505  10.730   1.633   4.483
50101W        W18506  11.593  29.789   0.282
50102W        W18507  40.773  21.298  10.967
50103W        W18508  33.631  34.432  11.620
50104W        W18509  15.076   3.162   1.446
50105W        W18510  37.865   4.330  11.648
50106W        W18511  21.296   8.906  13.786
50107W        W18512  33.954  15.705  14.709
50108W        W18513   6.318  41.488   3.746
50109W        W18514   5.675  14.145  14.463
50110W        W18515  23.092  24.973   3.786
50111W        W18516  22.799  42.405   0.446
50112W        W18517   6.966  21.027   4.642
50113W        W18518  21.717  31.903  13.845
50114W        W18519  37.434  35.925  12.986
50115W        W18520  33.810  41.990   3.596
50116W        W18521  44.270  22.090   0.855
50117W        W18522  16.801  31.048   0.299
50118W        W18523  11.863  16.407   4.293
50119W        W18524  15.626   5.741  11.179
50120W        W18525  21.331  35.846  14.813
50121W        W18526  17.080  13.176   2.246
50122W        W18527  10.719  33.248   2.226
50123W        W18528  19.500  15.534   3.756
50124W        W18529  13.780  25.054  12.463
50125W        W18530  44.914  12.317   2.334
50126W        W18531  25.567   1.714   0.473
50127W        W18532  34.986  43.004  13.400
50128W        W18533   1.450  31.113   3.360
50129W        W18534  25.526  11.427   1.491
50130W        W18535  22.049  34.114   0.453
50131W        W18536  25.063  27.157   2.160
50132W        W18537   1.030  40.880   1.661
50133W        W18538   9.577  10.367   0.875
50134W        W18539   0.654  23.682   4.637
50135W        W18540  34.283  19.289  12.014
50136W        W18541  21.241  41.816   3.645
50137W        W18542   6.690  29.698   3.530
50138W        W18543  37.011   3.288   0.680
50139W        W18544  21.735   2.478   3.313
50140W        W18545  26.923  31.171   0.360
50141W        W18546  30.646   5.424  12.125
50142W        W18547  22.691  44.250   0.505
50143W        W18548  15.970  30.886  10.726
50144W        W18549   0.957  12.921   4.607
50145W        W18550  12.608  27.670  13.971
50146W        W18551  28.635   6.588  12.965
50147W        W18552  33.636  20.588   3.835
50148W        W18553  39.352  43.849   0.184
50149W        W18554  19.430  13.874   2.315
50150W        W18555  11.381  26.457  13.973
50151W        W18556   0.216  25.935   2.338
50152W        W18557  33.967  13.724  12.803
50153W        W18558  44.236   2.909  12.913
50154W        W18559  37.121  10.495  11.224
50155W        W18560   8.659  24.151  12.118
50156W        W18561   1.567  44.387  12.529
50157W        W18562  24.010  39.921  12.454
50158W        W18563  36.132  11.432  12.200
50159W        W18564   0.198  21.657  11.373
50160W        W18565  37.322  11.231   0.339
50161W        W18566   1.519  31.574   3.590
50162W        W18567   0.766  37.475   3.209
50163W        W18568  11.698  13.809   2.759
50164W        W18569  43.311  35.008   0.213
50165W        W18570  36.077  32.985   2.449
50166W        W18571  43.527  42.583  11.551
50167W        W18572  19.038  33.889  10.707
50168W        W18573  20.786  24.287  10.582
50169W        W18574  24.764  38.064  10.564
50170W        W18575  14.461   2.228  12.421
50171W        W18576  32.615  26.620   4.112
50172W        W18577  44.821   6.099  13.902
50173W        W18578  11.237   2.345   1.773
50174W        W18579  28.948  31.515  12.866
50175W        W18580  30.950   1.728   4.933
50176W        W18581  37.272   6.459  13.469
50177W        W18582  43.283  27.442  13.541
50178W        W18583  11.837  29.951   0.950
50179W        W18584  12.633   6.716  12.078
50180W        W18585  12.418  29.156   4.892
50181W        W18586  20.467  20.665  11.295
50182W        W18587  40.843  37.535   0.662
50183W        W18588  37.404  18.717   4.823
50184W        W18589  18.141  19.057  14.785
50185W        W18590  26.302  22.811  12.531
50186W        W18591  14.719  20.613  14.107
50187W        W18592  35.013  37.955  13.028
50188W        W18593   6.814  12.706   4.372
50189W        W18594  21.111  39.072   0.033
50190W        W18595  27.169  23.344   1.517
50191W        W18596  30.829  37.043   4.540
50192W        W18597   8.870  40.234  12.909
50193W        W18598  40.065  21.725   2.346
50194W        W18599  17.279  36.057  13.033
50195W        W18600  27.034  24.657  11.594
50196W        W18601  12.324  21.164  13.406
50197W        W18602  29.660  30.475  14.854
50198W        W18603   3.710  42.083   1.384
50199W        W18604  36.383  41.800  10.409
50200W        W18605  43.254  16.260  12.408
50201W        W18606  12.334  39.981  14.285
50202W        W18607  20.946  21.101   3.159
50203W        W18608  42.029   7.105  12.220
50204W        W18609  28.446  36.942  12.927
50205W        W18610  44.417  40.364   3.457
50206W        W18611  13.282   7.244   1.109
50207W        W18612  35.798  13.265   0.515
50208W        W18613   9.090  10.913  14.029
50209W        W18614  40.910  16.032   1.562
50210W        W18615  38.527  43.822   3.609
50211W        W18616  13.294  25.475  14.823
50212W        W18617  12.385  11.117  12.579
50213W        W18618  11.852  36.149   1.668
50214W        W18619   7.826  41.737  14.741
50215W        W18620  31.354  36.981   3.682
50216W        W18621  29.401  22.633  14.352
50217W        W18622  12.866  44.918  14.499
50218W        W18623  39.848   2.981   0.916
50219W        W18624  40.498  40.968   0.460
50220W        W18625  35.133   1.935   1.938
50221W        W18626  16.156  14.604   4.359
50222W        W18627  41.830  36.475   0.859
50223W        W18628  34.680  42.196   2.665
50224W        W18629   8.096   1.941  14.434
50225W        W18630   5.446  12.112  13.449
50226W        W18631  42.215  13.747  11.475
50227W        W18632  43.518  41.247  10.705
50228W        W18633   6.835  10.764  11.039
50229W        W18634  24.802  31.003  10.706
50230W        W18635   2.385  40.615  11.361
50231W        W18636  42.490   6.296   4.268
50232W        W18637   9.828  41.250   4.274
50233W        W18638  33.936  23.253   1.825
50234W        W18639   3.830  10.716  13.047
50235W        W18640   0.789  22.011   3.971
50236W        W18641  36.936   4.257  14.112
50237W        W18642  40.477  33.050  14.558
50238W        W18643   4.930   5.265   3.202
50239W        W18644  23.308  36.091   0.854
50240W        W18645  41.449  31.954   0.054
50241W        W18646  27.402  35.841   2.800
50242W        W18647   5.694  33.868   3.682
50243W        W18648   8.415  33.092  14.971
50244W        W18649  44.521  22.425   4.579
50245W        W18650  22.280   4.725   2.452
50246W        W18651   8.157  44.933  10.572
50247W        W18652  14.319  13.792  11.167
50248W        W18653   6.329   5.170  13.455
50249W        W18654  29.485  37.389  14.958
50250W        W18655  30.095  18.880   3.333
50251W        W18656  24.993   5.336   2.284
50252W        W18657  26.418  27.110   5.002
50253W        W18658  10.870  28.447  13.394
50254W        W18659  23.458  36.588   0.856
50255W        W18660  26.087  30.607  11.554
50256W        W18661  35.243   9.242  11.625
50257W        W18662  38.197  28.104  12.872
50258W        W18663  35.386   1.334  14.801
50259W        W18664   1.756  26.028   0.293
50260W        W18665   4.705   5.464   0.325
50261W        W18666  33.432  14.566   1.354
50262W        W18667  19.109   9.210  11.188
50263W        W18668  30.789  44.968   2.267
50264W        W18669  13.001  21.699   1.707
50265W        W18670  22.965  11.784  10.481
50266W        W18671  36.358  17.709  10.876
50267W        W18672   6.142   2.745  12.473
50268W        W18673   6.111  42.939   3.555
50269W        W18674   0.701  37.210   2.225
50270W        W18675  31.928  22.777   1.946
50271W        W18676  29.259  19.382   4.442
50272W        W18677  44.734  15.540  10.631
50273W        W18678   4.066  25.994  11.153
50274W        W18679  28.589  44.314  11.516
50275W        W18680  14.102  19.116  12.306
50276W        W18681  39.042  16.424  12.394
50277W        W18682   4.708  16.049  11.428
50278W        W18683   4.181  16.321   2.502
50279W        W18684  44.028   6.713  13.992
50280W        W18685   7.326  20.652   1.970
50281W        W18686  20.265  33.945   1.329
50282W        W18687  21.560  32.074  14.304
50283W        W18688  29.542  11.238   1.155
50284W        W18689  23.318  20.763  13.815
50285W        W18690  23.505  17.732   0.033
50286W        W18691  40.090  14.765  14.504
50287W        W18692  17.837  28.872   2.346
50288W        W18693  27.142  34.965  12.867
50289W        W18694  21.239  36.107   2.276
50290W        W18695  22.711  39.542  13.885
50291W        W18696  13.754  30.060   3.253
50292W        W18697  17.837  13.017   0.929
50293W        W18698  36.551  11.261  14.858
50294W        W18699   3.728  36.003  11.164
50295W        W18700   9.341  40.291   9.988
50296W        W18701  21.763  25.743  12.911
50297W        W18702  18.583   9.746   1.999
50298W        W18703  25.594  25.383   0.061
50299W        W18704  43.738  42.416  12.420
50300W        W18705  34.843  16.323   3.266
50301W        W18706  36.347  17.019  12.435
50302W        W18707  30.086  35.078  14.447
50303W        W18708  12.426  17.011   0.263
50304W        W18709  13.694   3.443  12.543
50305W        W18710   9.515  13.296   0.348
50306W        W18711  11.896  42.457  11.069
50307W        W18712  29.082  15.107   2.772
50308W        W18713  26.863  27.594   2.685
50309W        W18714   1.756   5.559   4.026
50310W        W18715  35.863  33.024   4.799
50311W        W18716  42.392  40.954   0.471
50312W        W18717   1.706  41.087  13.933
50313W        W18718   7.557  35.965   1.667
50314W        W18719  38.969  30.979  14.550
50315W        W18720  17.345  44.317   3.174
50316W        W18721  18.154  40.075  14.080
50317W        W18722   4.058   6.014  10.343
50318W        W18723  17.652  16.161   4.425
50319W        W18724   1.716   8.000   4.276
50320W        W18725  33.886  36.329  14.860
50321W        W18726  39.123  30.786  12.424
50322W        W18727   2.795  37.571   4.648
50323W        W18728  17.576   3.104  12.961
50324W        W18729  23.689  13.692   1.573
50325W        W18730  26.575   6.473   4.967
50326W        W18731  38.862  21.924  12.098
50327W        W18732  35.582   6.360  13.059
50328W        W18733  27.025  11.020  11.253
50329W        W18734  11.382  39.509  13.589
50330W        W18735  33.047  34.951  11.369
50331W        W18736  32.669  18.851  13.237
50332W        W18737   0.960  31.359   4.931
50333W        W18738  24.951  43.315   5.113
50334W        W18739  36.043  36.314   4.156
50335W        W18740  39.237  34.602   1.882
50336W        W18741  33.656  43.413  13.421
50337W        W18742  32.077  26.029   2.808
50338W        W18743  44.564  31.695   1.801
50339W        W18744  29.671  36.046   1.282
50340W        W18745  43.421  36.867   1.728
50341W        W18746  43.400  21.043   2.122
50342W        W18747  14.146  34.617  10.657
50343W        W18748  42.153   2.913   0.494
50344W        W18749  35.927  28.928  12.150
50345W        W18750   3.289  25.166  14.774
50346W        W18751  42.284  12.830   0.223
50347W        W18752  34.584   9.854   4.590
50348W        W18753   7.303  16.761  12.160
50349W        W18754  36.029  17.549   4.743
50350W        W18755   6.284  28.720  11.743
50351W        W18756  20.121   1.308   1.373
50352W        W18757  15.158  27.022   0.603
50353W        W18758  14.279  33.621   1.952
50354W        W18759  33.275   8.168  12.110
50355W        W18760   5.277  17.350   0.365
50356W        W18761  37.953  17.134  14.389
50357W        W18762   4.290  17.179   0.969
50358W        W18763   3.070  36.495  11.904
50359W        W18764   3.261   6.410   2.641
50360W        W18765  41.334  26.104   2.350
50361W        W18766   9.275  14.441  13.078
50362W        W18767  14.653  24.918   3.200
50363W        W18768  32.795   9.468  11.210
50364W        W18769   9.287   8.427  14.509
50365W        W18770  20.154  14.702   1.295
50366W        W18771  23.132  15.270   1.220
50367W        W18772  21.853  39.898   1.328
50368W        W18773   2.280   9.419  13.062
50369W        W18774  12.763  17.360   1.552
50370W        W18775  13.210   6.017   1.294
50371W        W18776  22.988   1.249  13.034
50372W        W18777  37.349   8.673   3.325
50373W        W18778  13.871   9.282   3.286
50374W        W18779  23.452  32.488   3.131
50375W        W18780  25.197  40.100   0.175
50376W        W18781  40.538  32.166  12.082
50377W        W18782  30.445   8.921  13.866
50378W        W18783   1.925  31.904   3.752
50379W        W18784  32.895  40.785   3.695
50380W        W18785  24.394  42.544   4.695
50381W        W18786  31.121  42.848  13.726
50382W        W18787  31.525  29.922   4.620
50383W        W18788  39.400   1.774   2.348
50384W        W18789   4.687   4.121   4.092
50385W        W18790  24.597  19.253  11.745
50386W        W18791  11.459  22.783  11.023
50387W        W18792  26.151  28.564   3.863
50388W        W18793   8.760  31.002  14.594
50389W        W18794  33.855  44.702  11.171
50390W        W18795  13.335  44.234  12.147
50391W        W18796   9.400  26.997   3.687
50392W        W18797  39.981   7.566  11.415
50393W        W18798  44.297  36.502   0.349
50394W        W18799   0.785  21.499   0.261
50395W        W18800  20.995  18.349  11.881
50396W        W18801  12.250  34.888   2.093
50397W        W18802  42.804  19.183   1.745
50398W        W18803   0.738  44.875   2.340
50399W        W18804  24.228  41.175  11.358
50400W        W18805  10.567  33.931  13.180
50401W        W18806  42.672  26.151  11.371
50402W        W18807  12.993  44.972  11.279
50403W        W18808   5.822  13.343   2.608
50404W        W18809   9.179  17.156  12.549
50405W        W18810  10.187  14.689  14.866
50406W        W18811  35.395  38.239   2.383
50407W        W18812  34.486   4.767  13.361
50408W        W18813   6.994  14.156   2.764
50409W        W18814  40.883  12.919  11.522
50410W        W18815  10.736  28.435   0.514
50411W        W18816  17.010  39.026   0.266
50412W        W18817  44.854  10.380   0.196
50413W        W18818  19.987  30.436   3.708
50414W        W18819  19.491   5.679   1.223
50415W        W18820  15.379  34.984   9.954
50416W        W18821  14.045  34.365  14.479
50417W        W18822  41.994  38.820   4.436
50418W        W18823  40.388  23.458   4.537
50419W        W18824  24.050  37.888  12.677
50420W        W18825  20.603  31.703  14.890
50421W        W18826  27.136  33.386   2.280
50422W        W18827  21.547  34.956  12.973
50423W        W18828  40.940   1.199   0.328
50424W        W18829  18.195  44.761   4.760
50425W        W18830  14.677  12.814   2.154
50426W        W18831  20.109  44.444  12.554
50427W        W18832  35.902  31.909   1.325
50428W        W18833   8.334  26.279   2.730
50429W        W18834  30.649  33.176  13.828
50430W        W18835  24.476  29.569   0.373
50431W        W18836  40.001  41.307  11.160
50432W        W18837  43.084   1.919  11.144
50433W        W18838  41.846  14.324   3.285
50434W        W18839  26.022  33.762  13.973
50435W        W18840  11.577  29.645  11.884
50436W        W18841  37.348  43.310  11.144
50437W        W18842  15.737  38.736   3.689
50438W        W18843   2.043  41.075   1.390
50439W        W18844   2.182   2.201   5.214
50440W        W18845   8.519  44.189   4.814
50441W        W18846  39.761  21.216   3.382
50442W        W18847  14.894   8.157  13.862
50443W        W18848   7.384   0.253   2.717
50444W        W18849   1.719  25.602  14.023
50445W        W18850   8.594   5.374  11.466
50446W        W18851  19.629  36.637  12.126
50447W        W18852  31.338  21.033   0.510
50448W        W18853  19.655  34.241  11.025
50449W        W18854  41.661   4.504   4.919
50450W        W18855  15.589  13.198  13.951
50451W        W18856  29.144  17.905   4.146
50452W        W18857  10.818  26.137  10.402
50453W        W18858   2.925  42.763   4.776
50454W        W18859  27.199  36.445  12.023
50455W        W18860  18.323  41.761  12.319
50456W        W18861  27.274  40.876  11.309
50457W        W18862  20.236  32.370  14.207
50458W        W18863   4.553  13.397   3.366
50459W        W18864  26.677  18.282   0.316
50460W        W18865  36.934  39.971  14.842
50461W        W18866  42.295  20.716  12.962
50462W        W18867  15.311  17.132   2.241
50463W        W18868  17.809  18.225  10.670
50464W        W18869   7.103  23.239  11.943
50465W        W18870  27.266   9.126   0.850
50466W        W18871  26.125   3.500   0.634
50467W        W18872  23.952  23.740  13.437
50468W        W18873   9.550  24.448  10.588
50469W        W18874  34.504  33.935   3.932
50470W        W18875  44.651  42.372   3.172
50471W        W18876  13.603   8.287   1.856
50472W        W18877  28.444   9.801   1.607
50473W        W18878  37.475  41.750  13.545
50474W        W18879   3.113  10.779   3.165
50475W        W18880  40.431  43.820   0.682
50476W        W18881  35.356  18.514   4.214
50477W        W18882  40.891   0.322  10.683
50478W        W18883   6.908  19.113  12.120
50479W        W18884  22.070   0.359  14.358
50480W        W18885  31.675  39.280  11.979
50481W        W18886  25.357  12.161  14.538
50482W        W18887  34.644  19.447   2.272
50483W        W18888  38.994  12.290  13.870
50484W        W18889  41.395  43.767   2.929
50485W        W18890  43.193   4.655  12.417
50486W        W18891  18.663   5.731   0.082
50487W        W18892  27.358  27.345   2.647
50488W        W18893  42.327  43.385  10.664
50489W        W18894  36.048  40.988  10.784
50490W        W18895   1.892  20.601   1.830
50491W        W18896   5.203   1.267  14.092
50492W        W18897  22.985   7.219  13.189
50493W        W18898   9.124  13.678  13.762
50494W        W18899  29.230  32.090   2.257
50495W        W18900  10.709  44.403   2.820
50496W        W18901   0.823  24.500  10.727
50497W        W18902  22.318  33.243  14.003
50498W        W18903  42.470  37.184   4.064
50499W        W18904  19.587  42.500  14.750
50500W        W18905  36.084   6.357  12.959
50501W        W18906   1.210  34.122   2.591
50502W        W18907  33.627  14.673   3.658
50503W        W18908   2.435   4.548   4.050
50504W        W18909  29.585  32.927   0.223
50505W        W18910  16.419   1.905   0.859
50506W        W18911  44.219   1.958   4.957
50507W        W18912   2.950  38.805  11.542
50508W        W18913  37.019  12.255   0.998
50509W        W18914  44.141  19.262   0.633
50510W        W18915   9.656  19.273  12.598
50511W        W18916  39.512  19.646  12.661
50512W        W18917  36.972  25.444  11.644
50513W        W18918   1.675  23.094   2.361
50514W        W18919  28.142  40.528  11.619
50515W        W18920  25.639  10.867  14.683
50516W        W18921  36.342  17.319   1.658
50517W        W18922  29.472  40.581  13.826
50518W        W18923  18.611  18.521  12.672
50519W        W18924  28.972  31.603  14.985
50520W        W18925  40.664  31.508   0.083
50521W        W18926  39.522   0.959   3.693
50522W        W18927  20.326  23.047   3.534
50523W        W18928  13.334  18.224  14.505
50524W        W18929  33.387   2.347  10.546
50525W        W18930  17.212  11.453   2.727
50526W        W18931  31.661  39.134  10.570
50527W        W18932  17.293  11.680  10.750
50528W        W18933  43.690  19.155   1.425
50529W        W18934  13.586   0.300  13.225
50530W        W18935  22.305  19.613  12.755
50531W        W18936   4.766  37.297  11.924
50532W        W18937  17.027  33.056   2.276
50533W        W18938  27.165   9.243  11.044
50534W        W18939  28.084  36.916   4.161
50535W        W18940   1.690  38.831  13.924
50536W        W18941  35.348  39.549   1.127
50537W        W18942  35.517   9.359   4.472
50538W        W18943  30.436  14.646   1.460
50539W        W18944  40.402  38.095   4.311
50540W        W18945  13.532  40.530   1.055
50541W        W18946  23.812  27.096  12.245
50542W        W18947   1.076   9.829  14.234
50543W        W18948  25.999  22.269   3.461
50544W        W18949  18.847  17.142   3.740
50545W        W18950  26.653  35.010  11.088
50546W        W18951  32.155  37.924  11.954
50547W        W18952  42.253  10.254   2.158
50548W        W18953  14.891  30.451   0.737
50549W        W18954   6.081  38.831  10.773
50550W        W18955  40.343  27.596  10.713
50551W        W18956  18.714  36.349   2.324
50552W        W18957  39.384  34.415  13.882
50553W        W18958  23.741  14.144  12.984
50554W        W18959  29.539  24.821   3.706
50555W        W18960  36.309   5.698   3.295
50556W        W18961  30.233  36.614   0.301
50557W        W18962  27.379  42.646   1.277
50558W        W18963   1.925   7.903   2.278
50559W        W18964  33.142  26.245  14.072
50560W        W18965  12.240  21.247   2.672
50561W        W18966   8.243  27.624  13.442
50562W        W18967  25.446  10.202   4.633
50563W        W18968  20.685   1.850   0.073
50564W        W18969  28.002  12.266   0.237
50565W        W18970  34.230   1.395   1.826
50566W        W18971  44.457  39.879  10.656
50567W        W18972  21.506   0.913  13.051
50568W        W18973  29.706  30.747  14.432
50569W        W18974  32.342   2.186  12.091
50570W        W18975  15.774   2.294   0.760
50571W        W18976  36.312  19.595   2.348
50572W        W18977  18.091  42.901  11.941
50573W        W18978   1.792   7.861  11.109
50574W        W18979  39.821  24.302  11.749
50575W        W18980  15.690  12.365  10.804
50576W        W18981  11.724   0.483  13.570
50577W        W18982  19.072  30.958  13.892
50578W        W18983  18.779  20.217   2.945
50579W        W18984  12.664  23.745   0.451
50580W        W18985   6.224   4.901   2.694
50581W        W18986  25.034  15.188  14.754
50582W        W18987   1.468   3.497  12.996
50583W        W18988  23.957  39.442   0.578
50584W        W18989   1.337  31.181  13.519
50585W        W18990  21.351  42.841   3.143
50586W        W18991  41.263  39.340   0.511
50587W        W18992   6.526  15.174  14.719
50588W        W18993  41.942  14.580   3.847
50589W        W18994  34.996  36.881   3.475
50590W        W18995  44.043   0.315  12.844
50591W        W18996  25.804  20.679   0.435
50592W        W18997  36.474  28.935  12.990
50593W        W18998   6.508   2.035  13.529
50594W        W18999  33.622  20.648   4.936
50595W        W19000   4.132  23.815  14.508
50596W        W19001  33.535  13.344  11.586
50597W        W19002  25.653   4.874   2.804
50598W        W19003  30.375  33.407  14.218
50599W        W19004   6.222  37.556  12.178
50600W        W19005  36.384   5.699  10.250
50601W        W19006   3.931   3.396   5.314
50602W        W19007   7.456  28.096  10.731
50603W        W19008   4.984  27.886   0.317
50604W        W19009  26.744  37.956  12.161
50605W        W19010  35.883  22.461   0.273
50606W        W19011   9.437   8.234   3.571
50607W        W19012  15.244  27.723  13.685
50608W        W19013  24.636  37.461   0.405
50609W        W19014  37.174   0.388   0.540
50610W        W19015  13.814  11.492   0.042
50611W        W19016   1.081  11.462  13.339
50612W        W19017   1.531   3.987  10.624
50613W        W19018  38.286  41.655   4.131
50614W        W19019   2.882  44.480  13.696
50615W        W19020   4.902  20.576   3.256
50616W        W19021  16.023  24.153   1.681
50617W        W19022  42.767  13.768  11.510
50618W        W19023   7.622  43.494  12.572
50619W        W19024  22.421  33.119   3.077
50620W        W19025  13.129   5.893  11.122
50621W        W19026  33.592  44.446  11.929
50622W        W19027  23.659  30.432  12.129
50623W        W19028  15.007   0.662  13.397
50624W        W19029  43.356  25.218   3.714
50625W        W19030  31.644  33.086   1.204
50626W        W19031   6.179  29.552   2.678
50627W        W19032  14.604   3.209  14.254
50628W        W19033  28.154   7.266  14.190
50629W        W19034  40.003  24.195  10.609
50630W        W19035  22.091  38.954  11.683
50631W        W19036  29.503  38.437  10.858
50632W        W19037   8.931  10.327   1.232
50633W        W19038  37.857  28.988   1.878
50634W        W19039  43.476  35.782   2.869
50635W        W19040  12.259  20.290   2.136
50636W        W19041   6.520  40.769  13.978
50637W        W19042   6.618  15.616  11.517
50638W        W19043   6.186  29.408  13.376
50639W        W19044  40.975  28.042  10.634
50640W        W19045  20.774  26.170  12.414
50641W        W19046   1.265  23.672   1.723
50642W        W19047  16.012  17.493  10.347
50643W        W19048  27.493   8.312   1.257
50644W        W19049  29.622   3.950  10.758
50645W        W19050   4.189   0.266   1.329
50646W        W19051  11.752   9.733  11.637
50647W        W19052  35.031  11.256  12.502
50648W        W19053  17.808  20.779   3.267
50649W        W19054  36.222   1.566   1.083
50650W        W19055  39.865  29.870  13.922
50651W        W19056  29.887   8.737  11.486
50652W        W19057  38.323   6.631  14.158
50653W        W19058  32.294  28.545   2.443
50654W        W19059  18.559  32.517   1.866
50655W        W19060   3.684  36.366   1.684
50656W        W19061  29.976   0.287   3.591
50657W        W19062  39.050   9.907   2.629
50658W        W19063   9.739   9.210  14.389
50659W        W19064  33.978   6.303  11.554
50660W        W19065  35.777  41.306   0.192
50661W        W19066   0.490  24.444   4.844
50662W        W19067  31.495  30.572  14.614
50663W        W19068  35.094  25.698  14.839
50664W        W19069   0.050  27.315   1.256
50665W        W19070  40.423   5.534  10.162
50666W        W19071  21.200  40.984   4.114
50667W        W19072  43.935  24.914   3.323
50668W        W19073  30.569  26.509  12.695
50669W        W19074  34.324  22.702  14.386
50670W        W19075  35.754   2.022   2.124
50671W        W19076  32.543  12.209   0.613
50672W        W19077  30.862  21.627  11.492
50673W        W19078  12.839  18.695   1.473
50674W        W19079  13.561  16.578  12.137
50675W        W19080  35.693  36.246   0.665
50676W        W19081   4.235  30.815   4.172
50677W        W19082  40.869  22.888  13.646
50678W        W19083  44.862  31.604  12.455
50679W        W19084  42.767  36.510  10.979
50680W        W19085   0.674   7.629   4.779
50681W        W19086  16.844   1.316   3.189
50682W        W19087  31.440  25.202   1.428
50683W        W19088  17.793  40.390  10.481
50684W        W19089  25.925  37.116  11.628
50685W        W19090  32.719   9.897   3.868
50686W        W19091  12.198  44.902  10.340
50687W        W19092  23.922  18.345  13.070
50688W        W19093   6.434  29.476   1.476
50689W        W19094  16.105  40.504  10.133
50690W        W19095  36.368   0.407  11.271
50691W        W19096  15.168  28.559   2.416
50692W        W19097  44.407  18.515   3.064
50693W        W19098   7.242  12.604  11.597
50694W        W19099   4.909   0.781   1.346
50695W        W19100  23.723  30.502  11.099
50696W        W19101  44.821   8.001  10.452
50697W        W19102  42.867  24.561   1.518
50698W        W19103   9.614   8.116  13.336
50699W        W19104  32.735  24.585  14.003
50700W        W19105  21.188  13.234   3.638
50701W        W19106  28.870  36.275  13.425
50702W        W19107  34.995  44.058  14.831
50703W        W19108  26.740  25.606   4.584
50704W        W19109   3.834  27.737   1.982
50705W        W19110   2.284  21.313   1.479
50706W        W19111  22.388  17.854   5.067
50707W        W19112  24.446  17.209   0.691
50708W        W19113   1.835  16.245  11.276
50709W        W19114  41.849   9.795  12.507
50710W        W19115  19.466  33.464  14.402
50711W        W19116   5.117   3.826  14.942
50712W        W19117  34.284   3.862   0.367
50713W        W19118  28.142  34.974   3.618
50714W        W19119  40.386  24.004  12.832
50715W        W19120  43.882  44.783  10.025
50716W        W19121  30.236   6.414   2.758
50717W        W19122  17.042  32.057   4.528
50718W        W19123  16.303   4.015   1.180
50719W        W19124  42.079  27.180   2.196
50720W        W19125  39.522  26.087  10.323
50721W        W19126  30.208  15.814   0.909
50722W        W19127   8.846  22.597  12.784
50723W        W19128  39.872   3.524  14.903
50724W        W19129  21.014  30.913  12.384
50725W        W19130  28.583  27.451  14.661
50726W        W19131  40.685  15.590   1.460
50727W        W19132  29.522  22.730   3.726
50728W        W19133   1.408  35.441   1.961
50729W        W19134  43.056  44.408   2.949
50730W        W19135   5.721  38.870   4.119
50731W        W19136  40.133  32.026   1.186
50732W        W19137  38.586  16.300   4.463
50733W        W19138  20.302  22.755  11.409
50734W        W19139  35.050   0.066  14.855
50735W        W19140  11.173  40.637   3.650
50736W        W19141  39.305  37.022  12.861
50737W        W19142   2.075  30.073  14.735
50738W        W19143   0.215  16.881  10.578
50739W        W19144   9.892  10.069   3.735
50740W        W19145  44.292  32.828   2.862
50741W        W19146  22.127  42.276  12.567
50742W        W19147  20.537   0.865   0.726
50743W        W19148  15.508  30.391  14.923
50744W        W19149   6.607  27.673   4.962
50745W        W19150  23.957  34.528   3.617
50746W        W19151  43.873  26.550   1.796
50747W        W19152  19.112  18.076   1.940
50748W        W19153  12.292  38.533  13.641
50749W        W19154   0.953  17.535   2.390
50750W        W19155  28.435  22.679   1.693
50751W        W19156  40.216  12.777   0.467
50752W        W19157   6.399  30.425  11.516
50753W        W19158  37.889  28.256  12.466
50754W        W19159  30.113  17.228   1.742
50755W        W19160   7.906  36.391   1.669
50756W        W19161   9.237  40.883   3.736
50757W        W19162  27.687  16.728   0.926
50758W        W19163  31.122  42.457  14.490
50759W        W19164   5.850  39.159  11.579
50760W        W19165  40.816   3.402   3.243
50761W        W19166  14.731   9.720   4.725
50762W        W19167  23.232   9.920  13.274
50763W        W19168  18.664  25.759   1.490
50764W        W19169  36.636  35.049  13.600
50765W        W19170  19.178  39.060  13.834
50766W        W19171   3.322  18.971  10.868
50767W        W19172   3.166  44.804   3.893
50768W        W19173   8.241  43.288   0.690
50769W        W19174  38.460  41.272  13.069
50770W        W19175  30.484  26.849   4.495
50771W        W19176   3.642  10.092   1.211
50772W        W19177  27.204  29.188   4.596
50773W        W19178  32.971  32.990   3.208
50774W        W19179  16.581   9.781  11.459
50775W        W19180   4.405  20.080   0.905
50776W        W19181  19.591  41.309  11.943
50777W        W19182   4.922  37.075   2.822
50778W        W19183  44.275  11.332   3.663
50779W        W19184  43.583  28.661   3.891
50780W        W19185  10.146  14.208  12.372
50781W        W19186  19.872  25.135   4.765
50782W        W19187  32.356  23.551   0.839
50783W        W19188  16.754   1.782   3.742
50784W        W19189  25.961  31.721  13.664
50785W        W19190  25.232  12.790   0.011
50786W        W19191   4.713  32.544   1.315
50787W        W19192  38.393  15.244   4.586
50788W        W19193  15.284  21.030  11.943
50789W        W19194  32.385  39.623   1.811
50790W        W19195  24.071  15.705   4.143
50791W        W19196   1.516  24.858   0.996
50792W        W19197   6.330  39.396  11.630
50793W        W19198  23.978  44.005  10.378
50794W        W19199  12.436  12.539  12.073
50795W        W19200  42.193   3.663   0.939
50796W        W19201   3.419  35.077  11.641
50797W        W19202  10.033  25.238  12.149
50798W        W19203  14.764  17.725   3.606
50799W        W19204  28.334  41.075  14.494
50800W        W19205  14.240  44.489  14.358
50801W        W19206  27.626  16.143   3.620
50802W        W19207   2.428  29.455  11.539
50803W        W19208  32.118   0.427  10.177
50804W        W19209  25.479  22.340   3.293
50805W        W19210  38.991  23.047   2.180
50806W        W19211   5.253  26.998   0.734
50807W        W19212  24.603  42.231  12.563
50808W        W19213  17.165   7.744   1.487
50809W        W19214  12.833  35.918   4.331
50810W        W19215  12.088  29.120  14.957
50811W        W19216  38.616   9.441   0.790
50812W        W19217   7.443  35.199   2.302
50813W        W19218  16.698   2.699   0.859
50814W        W19219   5.434  40.965  12.203
50815W        W19220  15.798   2.943   3.688
50816W        W19221   0.825  33.603  12.085
50817W        W19222  28.428  10.394  11.848
50818W        W19223  40.669  23.130  14.059
50819W        W19224   2.431  32.976   2.430
50820W        W19225  31.718  37.406   1.973
50821W        W19226  17.461   9.870   3.659
50822W        W19227   5.974  23.127   1.787
50823W        W19228  38.544  36.578   0.872
50824W        W19229  20.556  42.781  12.400
50825W        W19230  21.493  16.476  11.506
50826W        W19231   0.943  37.281   0.894
50827W        W19232  39.298   8.727   2.184
50828W        W19233  23.981  12.314   2.776
50829W        W19234  44.896  26.657   1.884
50830W        W19235  23.169   4.259  12.624
50831W        W19236   2.357  31.215   0.730
50832W        W19237  15.200  32.890   1.378
50833W        W19238  40.773  19.003   0.206
50834W        W19239  24.398   0.964  10.675
50835W        W19240  28.678  20.077  11.199
50836W        W19241  12.945  24.528   2.854
50837W        W19242  16.762  12.608   2.678
50838W        W19243  12.804   4.646   2.297
50839W        W19244  32.603  31.465   3.793
50840W        W19245  39.056   6.157   3.977
50841W        W19246  32.825   7.349   0.269
50842W        W19247  39.763  36.021   0.336
50843W        W19248  40.740   7.645  14.119
50844W        W19249  29.885  38.330   3.078
50845W        W19250  44.350   3.462   3.179
50846W        W19251  28.538  36.566   1.184
50847W        W19252  22.685   8.156  13.324
50848W        W19253  28.971  31.826  12.466
50849W        W19254  31.190  18.570   0.788
50850W        W19255  33.515  18.379   2.354
50851W        W19256  27.136   0.777  13.039
50852W        W19257  34.965  25.019  13.695
50853W        W19258  13.583  32.590  10.233
50854W        W19259  28.537  18.787   1.332
50855W        W19260  40.348  26.783   3.561
50856W        W19261  12.171  26.694  12.836
50857W        W19262  26.951  41.315  12.569
50858W        W19263  18.530  25.267   1.320
50859W        W19264  34.873  41.392   0.180
50860W        W19265  15.150  20.085  12.795
50861W        W19266  39.079  23.184  11.527
50862W        W19267  34.017   6.455   2.834
50863W        W19268   1.526  17.046  14.296
50864W        W19269  21.288   3.253   2.415
50865W        W19270  10.730  26.024  13.594
50866W        W19271  32.128  14.829   2.791
50867W        W19272  39.765   0.123  12.096
50868W        W19273   8.229  37.133  13.540
50869W        W19274  29.008  14.561   3.757
50870W        W19275   3.649  26.300  13.122
50871W        W19276   7.815  43.360   4.198
50872W        W19277  21.225  35.169   3.288
50873W        W19278   0.984  43.627  13.634
50874W        W19279  10.035  36.357   4.981
50875W        W19280  25.906   7.445   1.217
50876W        W19281  22.510  42.522   3.130
50877W        W19282  16.135  32.375   1.317
50878W        W19283  38.700   6.441   5.399
50879W        W19284  15.102   7.224   1.861
50880W        W19285  20.561  21.969   2.201
50881W        W19286   2.729  39.788  14.923
50882W        W19287  42.225  21.437  10.659
50883W        W19288   0.222  35.526   0.585
50884W        W19289   9.230  20.552   0.919
50885W        W19290  41.076  31.124  12.099
50886W        W19291   0.303  23.900   2.599
50887W        W19292  26.344   6.246   1.001
50888W        W19293   4.744  21.813   1.429
50889W        W19294  23.559  34.537   0.789
50890W        W19295   5.355   7.830  13.560
50891W        W19296   6.324   2.802   3.905
50892W        W19297  14.701   7.226   0.253
50893W        W19298  20.515   5.417   3.710
50894W        W19299  13.664  40.034  10.411
50895W        W19300  15.380  27.129   1.394
50896W        W19301  43.008  38.939   4.229
50897W        W19302  14.280   3.435   0.427
50898W        W19303  33.665  10.245  14.003
50899W        W19304   9.127  24.080   1.753
50900W        W19305  33.980  37.129  12.089
50901W        W19306  42.049  12.319   3.252
50902W        W19307  43.665  38.833  11.918
50903W        W19308  10.316  33.602   5.288
50904W        W19309  27.022  42.047  12.812
50905W        W19310  18.682  11.725   0.290
50906W        W19311  25.485  43.799   2.896
50907W        W19312  40.926  13.269   0.600
50908W        W19313  16.791  40.253   0.278
50909W        W19314   4.946  31.898  12.954
50910W        W19315  18.988   6.468   2.160
50911W        W19316  42.955  29.348  12.093
50912W        W19317   5.125  10.751  10.752
50913W        W19318   6.340  33.764   2.378
50914W        W19319  21.777  29.907  11.556
50915W        W19320   8.377  17.610   0.980
50916W        W19321   4.647  30.658  12.580
50917W        W19322  33.209   4.381   3.658
50918W        W19323  24.828  15.810   1.277
50919W        W19324  22.380  14.827  11.493
50920W        W19325  44.887  10.645   0.654
50921W        W19326  30.038  35.524  13.030
50922W        W19327  25.901  17.153  14.718
50923W        W19328   3.703  12.686   4.807
50924W        W19329   1.390   0.824   0.419
50925W        W19330  34.970  18.495  12.563
50926W        W19331  36.011  22.454   4.586
50927W        W19332   9.892   9.340  10.683
50928W        W19333  28.365   8.651   4.642
50929W        W19334  28.059  14.299  10.929
50930W        W19335  33.116  39.007   0.261
50931W        W19336  40.376  17.968   3.352
50932W        W19337  10.405  16.273   1.496
50933W        W19338   2.443  27.114   4.111
50934W        W19339  33.345  28.550  11.027
50935W        W19340  36.677  42.730  12.303
50936W        W19341  36.323  24.023   0.494
50937W        W19342  28.161  23.057   3.683
50938W        W19343  18.775   1.893   0.878
50939W        W19344  37.490  28.588  12.440
50940W        W19345  16.566  11.611  13.727
50941W        W19346  21.309  44.361   2.740
50942W        W19347  26.664   0.985  13.063
50943W        W19348  16.385  29.886  12.907
50944W        W19349  24.040   8.833   2.719
50945W        W19350  44.353  23.690   3.610
50946W        W19351   6.684  23.021  12.133
50947W        W19352  35.116  37.833   2.189
50948W        W19353  37.410  22.766   1.385
50949W        W19354   7.161  36.525   2.231
50950W        W19355  38.437  30.934   3.008
50951W        W19356   4.403  16.234  10.975
50952W        W19357  40.829   5.488   2.375
50953W        W19358  42.261  38.548  14.692
50954W        W19359  42.934  34.916  14.377
50955W        W19360   3.734  36.774   4.147
50956W        W19361   5.046   6.176   9.837
50957W        W19362  30.664  39.554   1.067
50958W        W19363  22.252   2.256   3.704
50959W        W19364  44.738  22.636  11.434
50960W        W19365  31.584  24.352   3.119
50961W        W19366  14.140  29.648  11.199
50962W        W19367   8.447   1.822   2.893
50963W        W19368  37.123  23.619  10.522
50964W        W19369   1.843  23.683  13.967
50965W        W19370   8.368  38.068   1.996
50966W        W19371  14.536  11.128  12.434
50967W        W19372  33.178  14.099   1.337
50968W        W19373  11.113  28.306   2.561
50969W        W19374  33.604   8.288  14.685
50970W        W19375   7.143  10.447   5.013
50971W        W19376  30.652  35.585  12.134
50972W        W19377  33.619  39.923  13.981
50973W        W19378  23.131  29.230   3.146
50974W        W19379  37.090   6.651  10.301
50975W        W19380  20.295  16.973  11.151
50976W        W19381  19.306  40.842   0.337
50977W        W19382  11.381   7.437   2.841
50978W        W19383  28.714  16.298   2.691
50979W        W19384  14.048   0.380  13.014
50980W        W19385  19.968  22.732   0.604
50981W        W19386  41.709   7.626   4.071
50982W        W19387  13.061  44.018   3.464
50983W        W19388  11.643  31.077  14.341
50984W        W19389   2.367   8.312  13.238
50985W        W19390  41.498   8.603   0.389
50986W        W19391  34.804  11.743  11.632
50987W        W19392  21.434  30.645  12.010
50988W        W19393  24.693  10.715  13.301
50989W        W19394   7.825  15.361   1.321
50990W        W19395  16.641  12.400  14.798
50991W        W19396  26.982   6.258   0.349
50992W        W19397  14.202  43.961  14.117
50993W        W19398  34.406  14.492  13.338
50994W        W19399   2.170  33.479   0.602
50995W        W19400  16.548  17.301  11.516
50996W        W19401  26.408  31.051  12.390
50997W        W19402  24.460  21.150   2.984
50998W        W19403  25.406   3.261   3.209
50999W        W19404  40.018  23.766   4.796
51000W        W19405  16.073  27.974  12.554
51001W        W19406  42.989  37.094  12.267
51002W        W19407  33.797  16.925  11.677
51003W        W19408  29.395  42.099   3.279
51004W        W19409  21.110  17.815  13.922
51005W        W19410  41.869  23.993   0.347
51006W        W19411  39.123  44.746  14.288
51007W        W19412  31.618  25.635  13.904
51008W        W19413  32.845  27.460  11.590
51009W        W19414  22.515   0.817   2.120
51010W        W19415   2.933  31.903   0.848
51011W        W19416  22.456  44.886   2.345
51012W        W19417  16.611  32.889  12.609
51013W        W19418   4.379  16.808   2.633
51014W        W19419  30.631  39.051   2.909
51015W        W19420   8.741  14.574  10.006
51016W        W19421   6.309  34.372  10.797
51017W        W19422   0.746  34.866  14.646
51018W        W19423  38.012   5.581  14.397
51019W        W19424  24.193  21.043  10.710
51020W        W19425   3.042  17.853   3.371
51021W        W19426   4.214  24.478   2.947
51022W        W19427   6.731  14.650   3.827
51023W        W19428  44.224   4.949   0.852
51024W        W19429  39.065  17.075  11.567
51025W        W19430  38.659   5.256  11.204
51026W        W19431   7.608  16.790  14.395
51027W        W19432   1.342   4.864   4.584
51028W        W19433  16.761  29.220   2.343
51029W        W19434  38.879  13.244  13.078
51030W        W19435   8.514  16.150   2.796
51031W        W19436  43.047  13.484  11.845
51032W        W19437  38.956   8.607  12.456
51033W        W19438  21.271   3.668  13.130
51034W        W19439  27.680  23.312   0.402
51035W        W19440  42.717   9.944   1.463
51036W        W19441  41.113   6.051   1.172
51037W        W19442   4.183  30.508   2.847
51038W        W19443  35.348  25.931   2.525
51039W        W19444   5.085   6.524  14.654
51040W        W19445  41.483   8.216  12.967
51041W        W19446  11.340  21.233  13.082
51042W        W19447  21.737   5.116   1.827
51043W        W19448   7.792  44.551   0.359
51044W        W19449  13.582  39.429   4.130
51045W        W19450  15.766   0.746   2.525
51046W        W19451  12.110  37.540  13.893
51047W        W19452   9.046  29.627   4.126
51048W        W19453   5.438   9.524  13.544
51049W        W19454   2.112  28.116  14.925
51050W        W19455   4.898  16.996   0.395
51051W        W19456  16.297  44.473  13.768
51052W        W19457  26.186  43.308   3.155
51053W        W19458  44.763   2.998  12.870
51054W        W19459  38.869   9.340  13.033
51055W        W19460  20.050  43.902  12.326
51056W        W19461  44.119  36.884   4.647
51057W        W19462  27.194   8.914   2.195
51058W        W19463  14.228  12.823   0.045
51059W        W19464  30.619  30.471  14.087
51060W        W19465  38.504   8.468  12.058
51061W        W19466  18.615  31.581   0.362
51062W        W19467  25.377  11.327   3.293
51063W        W19468  14.488  44.046  10.524
51064W        W19469  19.746  21.568   4.147
51065W        W19470  41.774  13.357   0.043
51066W        W19471  26.069  23.004   0.069
51067W        W19472  32.152   4.366  14.574
51068W        W19473  15.277  23.260  12.529
51069W        W19474   4.873  29.207   5.182
51070W        W19475  41.930  14.141   1.425
51071W        W19476  27.416  10.192   4.518
51072W        W19477  23.648  14.987   3.227
51073W        W19478  39.013  29.662  13.971
51074W        W19479   6.689  32.653   0.252
51075W        W19480  31.443  28.591  11.624
51076W        W19481  29.397  18.746  14.084
51077W        W19482  34.399  36.506   4.201
51078W        W19483  35.622  15.120  14.287
51079W        W19484  14.279   2.038   3.920
51080W        W19485  13.301  41.621  11.024
51081W        W19486   3.164  40.970  13.825
51082W        W19487  15.715  15.776  14.702
51083W        W19488  22.931  35.182  11.152
51084W        W19489  44.268   9.926  11.654
51085W        W19490  23.649  33.648  14.381
51086W        W19491  10.087  29.465  11.612
51087W        W19492   4.309  22.417  12.606
51088W        W19493  29.393   9.801   2.272
51089W        W19494   6.835  38.064   2.574
51090W        W19495   7.671   4.938   3.740
51091W        W19496   2.865   5.399   3.227
51092W        W19497   2.095  31.083   1.198
51093W        W19498  41.305  43.308  11.502
51094W        W19499  10.620   9.225   4.296
51095W        W19500  12.913  20.343  14.820
51096W        W19501   2.806   2.899  13.932
51097W        W19502  24.186  37.928  10.717
51098W        W19503   4.095  32.053  12.471
51099W        W19504  34.752   6.810   1.360
51100W        W19505  20.147  17.456  13.856
51101W        W19506  36.039  30.761   4.081
51102W        W19507  18.304  10.263   2.778
51103W        W19508  24.109  32.603   1.316
51104W        W19509   2.472  43.475   1.764
51105W        W19510  15.357  37.511  14.040
51106W        W19511   7.346   4.714  14.766
51107W        W19512  21.197  43.398  14.988
51108W        W19513  26.613  22.054   4.221
51109W        W19514  23.637  26.730  14.343
51110W        W19515  21.301   3.792  12.168
51111W        W19516   7.746   8.892   4.596
51112W        W19517  12.820  17.228  12.823
51113W        W19518  27.700   2.065  12.918
51114W        W19519  37.496  17.589  11.186
51115W        W19520  18.005  30.566   4.583
51116W        W19521   1.125  36.297   4.396
51117W        W19522  41.831  18.603  11.148
51118W        W19523  37.913   1.328   1.273
51119W        W19524  37.824  19.181  13.582
51120W        W19525  30.427  13.599   0.800
51121W        W19526  15.684  39.336  13.791
51122W        W19527  19.058  32.363   3.124
51123W        W19528  35.001  16.005  10.667
51124W        W19529  12.316  19.501  12.346
51125W        W19530  30.062   9.446  12.931
51126W        W19531  11.279  28.947  13.345
51127W        W19532  24.373  12.338   1.819
51128W        W19533  15.004   5.878  14.109
51129W        W19534  19.138   6.640   0.258
51130W        W19535  29.257   8.448   2.871
51131W        W19536  17.077  28.429   3.821
51132W        W19537  39.945   8.464  13.613
51133W        W19538  43.381  11.261  12.915
51134W        W19539  13.578  34.640   3.198
51135W        W19540  20.603   4.949  14.458
51136W        W19541  19.464   0.550   2.371
51137W        W19542  40.805  24.959   1.924
51138W        W19543   3.915  27.610   0.955
51139W        W19544   5.135  30.550   5.155
51140W        W19545   2.048  22.034   0.270
51141W        W19546  41.867   5.977  10.920
51142W        W19547  34.482  36.423   0.378
51143W        W19548   3.977  22.551   2.145
51144W        W19549   6.208  23.242  10.861
51145W        W19550  11.553  23.305  12.632
51146W        W19551  33.940  24.452  14.887
51147W        W19552   5.956  21.503  12.472
51148W        W19553  29.944   7.376  10.812
51149W        W19554  24.069  22.631  11.921
51150W        W19555  10.253  15.801   2.373
51151W        W19556   7.891   1.928   1.138
51152W        W19557  39.807  29.556   2.373
51153W        W19558  16.352  39.088  11.078
51154W        W19559  41.273   0.892   1.349
51155W        W19560   4.378  22.988   1.663
51156W        W19561  36.428  14.106   0.083
51157W        W19562  44.150  31.036   2.758
51158W        W19563  36.035  13.090   2.776
51159W        W19564  40.635   2.610  12.661
51160W        W19565  44.518  34.533  10.647
51161W        W19566  39.853   7.665   3.732
51162W        W19567  19.996  10.554   3.651
51163W        W19568   7.920  23.056   3.769
51164W        W19569   1.228   5.344   1.876
51165W        W19570  13.186  42.505   3.293
51166W        W19571  28.040  31.912   2.907
51167W        W19572  38.500  29.545  11.367
51168W        W19573  18.148  40.447   4.178
51169W        W19574   4.704   9.698  13.024
51170W        W19575  20.178  35.855  12.794
51171W        W19576  22.682  14.012  10.314
51172W        W19577   5.278   7.137   0.808
51173W        W19578  27.208   4.864   2.239
51174W        W19579  24.531  20.165   1.295
51175W        W19580  27.420   8.663  13.805
51176W        W19581  40.261   4.037   3.735
51177W        W19582   0.268  42.054  13.033
51178W        W19583   2.293  17.862   0.199
51179W        W19584   9.294  19.602   4.062
51180W        W19585  42.775  43.237  10.392
51181W        W19586   2.253   5.470   3.902
51182W        W19587  15.191  29.727   4.740
51183W        W19588  29.948  38.435   2.577
51184W        W19589   0.857  38.602  10.736
51185W        W19590  42.478  21.032   4.237
51186W        W19591  35.696  19.189  12.487
51187W        W19592  18.253  22.471  11.149
51188W        W19593   4.711  35.918  14.353
51189W        W19594   6.924  40.899  11.744
51190W        W19595  31.982  16.642   1.650
51191W        W19596  44.729  44.689   1.427
51192W        W19597  29.029   9.838  12.908
51193W        W19598  20.094  18.634   3.135
51194W        W19599  38.432   7.365  14.818
51195W        W19600  38.142  20.093   1.757
51196W        W19601   8.120  26.964   0.760
51197W        W19602  41.338   5.175   0.525
51198W        W19603  38.964  19.857  11.950
51199W        W19604  22.210  12.178   3.376
51200W        W19605  41.970   6.418   3.665
51201W        W19606  34.029  36.430   3.830
51202W        W19607  24.751  31.647  12.438
51203W        W19608  25.175  41.941   0.461
51204W        W19609   3.820  26.971   2.498
51205W        W19610   2.389   5.635  10.573
51206W        W19611  11.200   9.801   1.691
51207W        W19612  10.849  32.713  11.516
51208W        W19613   1.866  22.348   1.583
51209W        W19614   6.743   1.367   4.071
51210W        W19615  11.066  17.195  11.025
51211W        W19616  44.078  37.362  13.355
51212W        W19617   8.758  35.030   4.711
51213W        W19618   0.373  29.176  15.000
51214W        W19619  16.275  36.921  11.676
51215W        W19620  24.959  16.332  12.496
51216W        W19621   0.065  41.470   3.143
51217W        W19622   8.280  18.300   1.738
51218W        W19623   8.451  44.915  12.869
51219W        W19624  22.771  22.681  10.550
51220W        W19625   9.363   2.435  13.047
51221W        W19626  11.893  43.994  11.171
51222W        W19627  15.009  43.986  10.599
51223W        W19628  24.107  24.242  12.413
51224W        W19629  10.548  16.277  11.115
51225W        W19630  43.302  15.592  12.028
51226W        W19631  30.687  36.386  11.718
51227W        W19632  11.233  41.457  11.312
51228W        W19633  42.737  34.782   4.120
51229W        W19634  22.061  37.411   4.484
51230W        W19635  19.885   0.962   4.961
51231W        W19636  36.092  22.108  10.979
51232W        W19637   5.678   8.511   1.643
51233W        W19638  28.427  14.115  13.921
51234W        W19639  44.934  32.366   1.444
51235W        W19640  19.696  16.256  11.208
51236W        W19641  37.322   7.243   4.113
51237W        W19642  25.262  19.129  14.641
51238W        W19643   8.198  23.958   0.925
51239W        W19644   7.661  26.422   5.117
51240W        W19645   0.813  18.748   0.918
51241W        W19646   3.228   2.521   3.774
51242W        W19647  41.392  39.476  12.905
51243W        W19648  22.478  35.837   3.883
51244W        W19649  10.064  16.314   3.633
51245W        W19650  16.655  15.286   0.372
51246W        W19651   4.371   6.667   2.168
51247W        W19652  31.146  42.238  12.580
51248W        W19653  35.587  27.096   1.984
51249W        W19654  44.191  31.616  14.901
51250W        W19655  38.426  12.120   0.429
51251W        W19656  23.034  24.635   3.131
51252W        W19657  19.773  17.285   3.283
51253W        W19658  20.042  20.043  12.294
51254W        W19659  30.956  18.554   1.271
51255W        W19660   0.327  33.375  12.359
51256W        W19661  16.401  34.667   4.963
51257W        W19662   3.774  40.570   4.784
51258W        W19663  28.992  18.156  12.004
51259W        W19664  31.133  21.156  11.506
51260W        W19665  18.064  29.028   3.583
51261W        W19666  15.550  31.343   4.606
51262W        W19667  31.150  38.858  12.421
51263W        W19668  35.137  30.624  13.454
51264W        W19669  28.193  41.908   2.304
51265W        W19670   1.425  30.235  11.226
51266W        W19671  33.491  19.847   0.098
51267W        W19672  10.165  30.038  12.848
51268W        W19673   1.339  29.723  12.996
51269W        W19674  37.266   4.587   3.649
51270W        W19675  26.941  21.739  13.165
51271W        W19676  12.140  39.950   1.870
51272W        W19677  37.382  20.583  13.851
51273W        W19678  35.972  21.320   1.734
51274W        W19679   3.239  27.011   0.966
51275W        W19680   4.138   7.213  10.721
51276W        W19681  31.743  19.076   3.442
51277W        W19682   3.173  43.828  14.009
51278W        W19683  32.157  25.677  14.366
51279W        W19684  25.881  36.964  14.770
51280W        W19685  39.368  12.173  10.996
51281W        W19686  23.080  41.299  14.542
51282W        W19687  35.388  26.673   1.192
51283W        W19688  44.864  35.578   1.804
51284W        W19689  33.314  13.073   4.221
51285W        W19690  35.074  41.929  12.485
51286W        W19691   1.976  34.503   4.356
51287W        W19692  29.102   6.211  11.068
51288W        W19693  36.563  44.393  13.878
51289W        W19694  14.750  11.670   0.823
51290W        W19695  11.557  36.949  13.924
51291W        W19696  21.874  34.549  14.752
51292W        W19697  43.352  39.417  12.393
51293W        W19698  13.727   3.262   5.510
51294W        W19699  27.969  10.624  10.791
51295W        W19700  32.392  10.629   2.806
51296W        W19701  14.354  27.114   4.330
51297W        W19702  35.864  41.825   0.258
51298W        W19703   7.988   2.908  12.504
51299W        W19704  15.140  23.888  12.047
51300W        W19705  17.342  44.329   1.779
51301W        W19706   0.647  35.095  14.182
51302W        W19707   1.246  29.942   1.255
51303W        W19708  41.691  11.822  13.451
51304W        W19709  15.107  27.415  14.119
51305W        W19710  21.738  12.747   3.687
51306W        W19711  15.546  35.505   4.206
51307W        W19712   2.417  17.196  12.594
51308W        W19713  43.027   6.244   0.413
51309W        W19714  19.946   7.242  14.637
51310W        W19715   3.436  20.173  10.521
51311W        W19716  42.608  13.360   3.769
51312W        W19717  41.810  10.134  13.818
51313W        W19718  12.954  37.330   4.377
51314W        W19719  25.166   7.114  11.608
51315W        W19720  40.998  19.943  12.198
51316W        W19721  26.546  43.002   1.457
51317W        W19722  44.941  32.116   2.687
51318W        W19723  30.953  31.177   2.453
51319W        W19724  22.740  23.313  13.026
51320W        W19725  41.742  20.798  12.936
51321W        W19726  30.974   2.778  14.367
51322W        W19727  26.573  21.592   1.968
51323W        W19728   0.321  32.342  14.062
51324W        W19729   9.126  28.142   0.833
51325W        W19730  33.917  16.554  12.980
51326W        W19731  35.516  35.240   2.706
51327W        W19732  28.542  14.745   3.705
51328W        W19733  28.976  44.043   4.189
51329W        W19734  37.507  30.631   4.524
51330W        W19735  40.471  34.857   2.172
51331W        W19736  34.948  22.978  12.177
51332W        W19737  23.715  31.294   0.740
51333W        W19738  36.153  28.558  10.502
51334W        W19739  31.483  28.435   2.699
51335W        W19740  12.908  43.399  14.311
51336W        W19741  26.191  37.578  10.093
51337W        W19742  24.744  24.950   4.532
51338W        W19743  34.582  21.084  12.295
51339W        W19744   3.031  27.604  14.334
51340W        W19745   4.003  38.017  10.888
51341W        W19746  44.664  28.845  11.883
51342W        W19747  34.661  15.601  12.542
51343W        W19748  11.099  43.465   2.095
51344W        W19749  23.591   4.701   2.141
51345W        W19750  28.961  16.326   5.391
51346W        W19751  11.963  11.303  12.336
51347W        W19752  31.602  30.007   1.803
51348W        W19753   3.240  36.091  11.551
51349W        W19754  38.594  35.580  13.226
51350W        W19755   8.167   0.250   3.320
51351W        W19756  29.207  11.531   2.851
51352W        W19757  22.713  39.362  12.485
51353W        W19758   0.438   3.268   0.480
51354W        W19759  25.702   0.300   2.787
51355W        W19760  24.522  38.552  14.006
51356W        W19761  26.009  32.589   3.085
51357W        W19762   4.198   2.356  12.964
51358W        W19763  17.830   5.769  12.957
51359W        W19764  28.649  18.242  10.671
51360W        W19765  36.925  30.010   1.744
51361W        W19766  43.471  23.028   3.219
51362W        W19767   0.433  41.789  11.706
51363W        W19768  29.294  12.828   0.332
51364W        W19769   8.277  30.525  12.480
51365W        W19770   6.977  12.935   0.425
51366W        W19771  35.871   1.381  12.837
51367W        W19772  23.985  12.128  13.551
51368W        W19773  24.567   7.945  13.505
51369W        W19774  37.601  31.908   2.328
51370W        W19775  44.990  42.487   0.289
51371W        W19776  40.462  43.448  10.911
51372W        W19777  44.995   2.260   1.364
51373W        W19778  43.900  44.615  11.492
51374W        W19779  16.889  21.017   3.148
51375W        W19780   5.153   3.184   0.208
51376W        W19781  39.985  23.374  11.028
51377W        W19782  39.142  33.367  13.891
51378W        W19783  42.770  19.524  12.813
51379W        W19784  19.316  20.158   0.613
51380W        W19785  28.101  40.506  12.948
51381W        W19786  10.798  26.431   4.768
51382W        W19787  12.649  36.938   4.600
51383W        W19788   2.733  16.136  10.743
51384W        W19789  14.630  40.625  12.586
51385W        W19790  36.358  42.381   5.145
51386W        W19791  17.042  35.043   0.208
51387W        W19792  12.131  36.016   1.192
51388W        W19793   4.792  14.513  12.371
51389W        W19794  13.889  44.028   3.771
51390W        W19795  33.877  14.278  13.424
51391W        W19796  40.964   1.447   0.793
51392W        W19797  22.540  29.942   2.235
51393W        W19798  14.065   7.389  13.354
51394W        W19799  11.711   3.701   0.202
51395W        W19800  36.505  36.383   4.983
51396W        W19801  41.725   9.210  12.543
51397W        W19802  19.303  11.737   0.329
51398W        W19803  25.105   9.393  12.185
51399W        W19804   3.404  23.824  10.659
51400W        W19805  19.973  41.583   3.310
51401W        W19806   5.928  31.678   4.726
51402W        W19807  38.972  18.991  13.922
51403W        W19808  18.622  42.395   4.086
51404W        W19809  37.658  11.772  12.172
51405W        W19810   0.865   8.681  14.863
51406W        W19811  16.261  14.057  11.225
51407W        W19812  21.468   8.984   4.974
51408W        W19813   8.139  19.118  12.554
51409W        W19814  19.343  23.210   3.596
51410W        W19815   0.327  41.509  14.981
51411W        W19816  10.424  13.353   1.379
51412W        W19817  33.065  42.513   3.143
51413W        W19818  10.287  28.491  14.637
51414W        W19819  16.803   8.448  14.444
51415W        W19820   8.308  13.603   3.686
51416W        W19821  16.497  12.040   4.070
51417W        W19822  15.823  13.246  11.806
51418W        W19823   9.824  44.516   2.794
51419W        W19824  28.979  19.017  13.453
51420W        W19825   6.343  25.069  12.225
51421W        W19826   8.929  17.756  14.934
51422W        W19827  21.763  31.531  11.586
51423W        W19828  33.956  37.644  13.500
51424W        W19829  39.173  26.545   3.157
51425W        W19830  18.218  35.707   4.969
51426W        W19831  44.507   4.810   4.286
51427W        W19832  28.998  15.383  14.611
51428W        W19833  41.583   5.825   3.120
51429W        W19834  27.949   4.071   1.178
51430W        W19835  42.788  27.739   0.872
51431W        W19836  11.321  27.656   4.590
51432W        W19837  15.060  16.186   3.158
51433W        W19838   5.081  17.831   3.418
51434W        W19839  41.547  24.065   4.043
51435W        W19840  43.352  19.358   1.032
51436W        W19841   3.165  23.500   0.816
51437W        W19842   2.425  37.817   2.329
51438W        W19843  32.272  21.535  14.282
51439W        W19844  30.472  42.939   4.659
51440W        W19845  32.550   5.086  13.026
51441W        W19846  40.973   5.109  12.454
51442W        W19847  15.593  33.145  12.952
51443W        W19848   9.712  18.287   1.015
51444W        W19849  16.225  42.987  11.790
51445W        W19850  26.885   9.675  11.102
51446W        W19851  30.082  32.561  14.299
51447W        W19852  25.786  22.224  12.987
51448W        W19853  20.278  31.364   3.864
51449W        W19854  30.995  12.122   0.180
51450W        W19855  33.400  27.008   0.402
51451W        W19856   0.524  28.170  11.118
51452W        W19857  25.601   5.860  12.120
51453W        W19858  40.542  13.549   4.180
51454W        W19859  18.681  28.010  11.144
51455W        W19860  37.856  39.908  13.488
51456W        W19861   7.067  40.533   2.185
51457W        W19862   6.449  18.760   0.886
51458W        W19863  24.529  40.016  12.425
51459W        W19864   4.992  41.104  14.885
51460W        W19865  11.171  36.675  12.954
51461W        W19866  31.433   0.021   2.735
51462W        W19867  36.493  17.258   4.703
51463W        W19868  42.415  41.983   3.986
51464W        W19869   6.055  40.382   4.192
51465W        W19870  33.109   9.865  12.790
51466W        W19871   1.460  42.318   2.344
51467W        W19872   3.375  25.631   0.037
51468W        W19873  10.311  39.589  11.164
51469W        W19874   3.834  25.375  14.265
51470W        W19875   6.713  43.352   3.197
51471W        W19876  25.698   5.595   3.109
51472W        W19877   4.474  42.738  10.853
51473W        W19878  13.926  25.904   1.752
51474W        W19879  27.650   9.279   4.533
51475W        W19880  36.590   1.952  14.949
51476W        W19881  34.246  11.352  12.007
51477W        W19882   9.060  36.482   3.123
51478W        W19883  20.232  28.164  11.102
51479W        W19884  26.127  41.310   1.578
51480W        W19885  23.543  16.348  13.970
51481W        W19886  15.987  13.261   4.115
51482W        W19887  43.332  37.625  11.561
51483W        W19888  21.695  35.765  14.364
51484W        W19889  41.433  21.485  12.625
51485W        W19890  13.571   0.907   0.144
51486W        W19891   5.810   2.851   2.951
51487W        W19892  28.015  30.920  11.271
51488W        W19893  29.133  43.782  10.895
51489W        W19894  22.454  44.970   4.183
51490W        W19895  25.503  30.010   0.040
51491W        W19896  12.704  24.850  12.501
51492W        W19897  40.878  33.132  11.122
51493W        W19898  23.983  18.836  13.271
51494W        W19899  18.060  44.714   0.004
51495W        W19900   9.270  44.723   1.975
51496W        W19901  20.688  12.904  11.211
51497W        W19902  15.148  42.946  13.047
51498W        W19903  12.299  30.197  11.867
51499W        W19904  33.949  15.562  12.964
51500W        W19905  27.969  40.086   3.630
51501W        W19906  42.831  25.223   3.767
51502W        W19907  27.151  33.094   1.841
51503W        W19908  14.622  17.680  14.317
51504W        W19909  42.860  37.013  13.819
51505W        W19910  42.286  24.754   3.145
51506W        W19911  28.651  34.479   1.618
51507W        W19912  37.720   8.741  12.845
51508W        W19913   8.897  41.464  12.018
51509W        W19914  15.287  24.014   4.655
51510W        W19915  25.042  27.949  14.322
51511W        W19916  29.046  29.959  14.286
51512W        W19917  40.315  27.741  14.308
51513W        W19918  12.357  22.524   2.370
51514W        W19919  17.628   6.057   4.929
51515W        W19920  23.661  18.660   0.301
51516W        W19921  29.772  21.683  14.383
51517W        W19922  32.959  38.210   4.830
51518W        W19923  16.364   4.507   3.174
51519W        W19924  41.151  40.898  11.841
51520W        W19925  24.575  38.012  11.041
51521W        W19926   1.826  27.274   3.926
51522W        W19927   2.974   1.343   4.719
51523W        W19928   1.924  24.563   4.588
51524W        W19929   6.798   7.912   2.351
51525W        W19930  44.308  22.040  14.638
51526W        W19931  20.296   1.304   0.851
51527W        W19932  16.358  34.681  14.441
51528W        W19933  17.294   8.747   2.136
51529W        W19934  24.567  43.444   3.826
51530W        W19935  14.179  32.844  13.006
51531W        W19936  39.304  13.677   1.386
51532W        W19937  37.295  26.157  12.534
51533W        W19938   3.257  15.199  11.379
51534W        W19939  36.051   0.569   0.868
51535W        W19940  40.499  35.993  11.869
51536W        W19941  22.028   5.837   3.158
51537W        W19942  32.938  20.501   1.159
51538W        W19943   2.382  20.164  13.609
51539W        W19944   7.183  24.228   1.959
51540W        W19945  31.237  35.628  14.776
51541W        W19946  12.763  38.431  10.655
51542W        W19947  28.099  11.903  11.169
51543W        W19948  24.544   7.836  10.609
51544W        W19949  17.218  40.128   2.556
51545W        W19950  26.772   0.860  12.103
51546W        W19951  40.068  30.576  12.509
51547W        W19952  19.827  34.516   3.713
51548W        W19953  31.404  39.867  13.605
51549W        W19954  21.137  22.245  11.217
51550W        W19955  16.460  28.722   1.007
51551W        W19956  32.061  18.023  13.396
51552W        W19957  24.924  26.780   3.307
51553W        W19958  20.716   2.909  11.081
51554W        W19959  43.593  17.181   0.254
51555W        W19960  16.793  16.205   4.021
51556W        W19961   2.269   9.667  14.413
51557W        W19962   9.867  18.711  11.513
51558W        W19963  34.187   6.950  12.640
51559W        W19964   1.033  21.091   3.824
51560W        W19965  10.918  32.528   2.298
51561W        W19966  12.186  21.471   3.447
51562W        W19967  14.317  30.163   1.586
51563W        W19968  18.169  14.645  10.638
51564W        W19969  38.929  10.333  11.585
51565W        W19970   9.895  24.933  12.531
51566W        W19971   4.912  39.120  14.418
51567W        W19972  39.040   9.344   1.720
51568W        W19973  20.508  18.252  13.704
51569W        W19974  21.664   8.911  14.508
51570W        W19975  23.607  16.839  14.000
51571W        W19976  38.619   7.125  13.029
51572W        W19977  17.740  36.436   4.757
51573W        W19978  19.165  16.827  12.623
51574W        W19979  21.861  32.403   4.550
51575W        W19980  32.373   1.870  13.892
51576W        W19981  25.275  25.252   2.302
51577W        W19982  31.422  39.060   2.311
51578W        W19983  30.025   9.280   2.650
51579W        W19984  27.206  37.471  12.877
51580W        W19985  38.528  37.160  13.941
51581W        W19986   8.058   0.398   4.121
51582W        W19987  25.225  38.307  13.341
51583W        W19988  42.052  28.193  10.756
51584W        W19989  41.007  27.658  11.536
51585W        W19990  32.606  40.828   3.245
51586W        W19991  44.688  35.040  14.421
51587W        W19992   5.366   1.297  11.490
51588W        W19993  40.334  14.722  12.780
51589W        W19994  32.123  35.319  13.909
51590W        W19995   0.284   3.017   3.207
51591W        W19996   1.854  20.630   2.381
51592W        W19997  23.253  25.646  11.133
51593W        W19998  33.641   5.418  11.144
51594W        W19999  26.934  14.819   0.406
51595W        W20000  34.499   0.732  10.692
51596W        W20001  35.037  35.461  14.795
51597W        W20002  10.879   1.315  12.670
51598W        W20003  10.810  24.805  11.955
51599W        W20004  23.112   3.507  13.428
51600W        W20005  19.490   2.909   4.498
51601W        W20006  42.774  42.480  13.995
51602W        W20007  36.349   1.816  12.075
51603W        W20008  37.754   7.699   0.437
51604W        W20009  14.640  40.843  12.077
51605W        W20010  38.960  29.600  12.591
51606W        W20011  36.898  34.019   2.143
51607W        W20012  41.072  10.553   2.559
51608W        W20013  10.353  10.812  12.037
51609W        W20014  25.459   5.292  12.864
51610W        W20015   6.569  42.380   4.766
51611W        W20016  24.581  11.695  11.566
51612W        W20017  19.650  19.336  10.776
51613W        W20018  21.733  15.780   2.344
51614W        W20019  34.973   7.239  14.459
51615W        W20020  44.469  26.570  10.432
51616W        W20021  35.582  26.499   0.725
51617W        W20022  39.038  17.033   0.326
51618W        W20023  37.066   1.140  13.049
51619W        W20024  34.828  22.125   1.944
51620W        W20025   6.930   8.998  14.701
51621W        W20026   0.821  39.608  11.553
51622W        W20027  19.768  44.475  12.974
51623W        W20028  43.269  42.764  14.985
51624W        W20029  41.271  40.334   0.253
51625W        W20030  37.848  33.501  11.017
51626W        W20031  33.902  18.857   0.748
51627W        W20032  11.576  20.383  14.401
51628W        W20033   1.130  11.394  11.448
51629W        W20034  19.404  30.056   0.952
51630W        W20035  23.207  18.838  11.412
51631W        W20036  25.464  16.327  12.497
51632W        W20037   0.198  26.981  12.592
51633W        W20038  29.402  12.371  10.419
51634W        W20039   9.747  30.045  13.806
51635W        W20040   4.873  34.023   0.797
51636W        W20041   8.806  12.079  13.504
51637W        W20042   2.804  18.151   2.129
51638W        W20043  35.625  32.161   3.967
51639W        W20044  18.743  33.504   0.834
51640W        W20045  29.334  13.195  13.959
51641W        W20046  29.563  14.598  10.704
51642W        W20047  44.163   7.392  10.649
51643W        W20048  21.010  12.333  12.411
51644W        W20049  30.035   7.488  12.715
51645W        W20050   5.625  13.283   1.150
51646W        W20051  25.978   3.825  13.388
51647W        W20052  19.435  36.856  14.796
51648W        W20053  39.858  24.449   3.480
51649W        W20054   3.373  35.828   3.064
51650W        W20055  38.980  12.667   1.794
51651W        W20056  30.522  41.464  10.373
51652W        W20057  33.188  31.494  11.174
51653W        W20058  22.194  16.082   2.852
51654W        W20059   0.281  18.590   0.911
51655W        W20060   8.806  28.042  13.476
51656W        W20061  35.093  38.314   0.467
51657W        W20062  41.541  43.318   1.316
51658W        W20063  36.184  36.026  13.539
51659W        W20064   9.120  17.293  14.018
51660W        W20065  16.862  33.929  13.521
51661W        W20066   3.044  11.162  10.495
51662W        W20067   8.755  30.547   2.181
51663W        W20068  44.289  26.596   3.741
51664W        W20069   7.634  14.377  12.376
51665W        W20070   2.359  31.578   3.630
51666W        W20071  42.002  39.203   2.677
51667W        W20072  32.841   1.864  11.167
51668W        W20073  27.109  28.397   1.363
51669W        W20074  26.130  21.155  14.042
51670W        W20075  30.990  32.543  13.330
51671W        W20076  17.523  39.426  14.092
51672W        W20077  15.130  15.595   1.481
51673W        W20078  42.388  42.197  14.954
51674W        W20079   9.426  13.184   1.237
51675W        W20080  24.710  32.110  13.291
51676W        W20081  39.824   6.703   1.557
51677W        W20082  41.776  27.737   1.877
51678W        W20083  16.170   3.911  10.670
51679W        W20084  38.308  43.498  13.435
51680W        W20085  24.301  25.187   5.067
51681W        W20086  16.650  35.367   1.625
51682W        W20087  12.919  32.476   1.163
51683W        W20088  20.281  10.697  12.122
51684W        W20089  28.404  14.805   2.329
51685W        W20090  14.126  26.970  14.333
51686W        W20091  29.479  17.630  11.583
51687W        W20092   1.581  37.384  13.453
51688W        W20093  22.679  12.709   0.394
51689W        W20094  21.518  25.905  11.323
51690W        W20095  44.013   7.112  14.308
51691W        W20096   8.141  22.597  10.746
51692W        W20097  32.150  44.067   3.445
51693W        W20098  28.149  15.441   1.211
51694W        W20099  25.396  21.367   4.611
51695W        W20100  26.484  22.259  12.486
51696W        W20101   2.892  29.500  14.008
51697W        W20102  14.785   4.675  14.409
51698W        W20103  17.209   6.403  14.904
51699W        W20104  23.482  30.113   1.281
51700W        W20105  30.589  17.228   3.231
51701W        W20106  15.682   2.952   1.444
51702W        W20107  24.064  23.932   4.135
51703W        W20108  32.659  39.980   0.678
51704W        W20109   9.327  37.054   4.681
51705W        W20110  36.631  24.015   2.452
51706W        W20111  31.559  26.972  13.815
51707W        W20112  34.317  43.459  11.279
51708W        W20113  43.359  39.602   0.888
51709W        W20114   6.391  33.611  13.064
51710W        W20115  43.956  32.826   4.240
51711W        W20116   1.717   6.683  12.418
51712W        W20117  11.164  15.367  11.477
51713W        W20118  24.380   0.791  12.602
51714W        W20119   6.792  29.650   1.788
51715W        W20120  32.702  31.988  12.194
51716W        W20121  40.989  32.701  14.476
51717W        W20122   4.749  31.564   4.133
51718W        W20123  32.505  28.681  14.749
51719W        W20124   0.446  23.254  11.174
51720W        W20125  39.635  17.665   2.162
51721W        W20126  30.793  15.423   4.589
51722W        W20127  15.144   0.243  12.497
51723W        W20128  10.409   2.681  10.681
51724W        W20129  16.058  20.533  10.484
51725W        W20130  21.832  30.276  14.337
51726W        W20131  37.931  13.815   4.125
51727W        W20132  40.024  31.857  12.189
51728W        W20133  13.361  35.760  12.048
51729W        W20134  26.839   0.388  12.473
51730W        W20135  32.916  33.885  14.113
51731W        W20136   4.885  37.512   2.324
51732W        W20137  28.012  19.258  13.325
51733W        W20138  34.426  24.044  14.301
51734W        W20139  22.813  37.764  11.447
51735W        W20140   7.574  32.079   1.274
51736W        W20141  23.103  36.280  11.811
51737W        W20142  31.056   2.776   0.927
51738W        W20143   7.935  18.132   1.368
51739W        W20144   6.655  20.166  13.346
51740W        W20145   4.510  28.685   3.320
51741W        W20146  23.600   9.025  14.737
51742W        W20147  21.366  44.035  11.211
51743W        W20148  13.640   3.453   5.047
51744W        W20149  32.491   7.107  13.072
51745W        W20150  24.621  21.804  14.967
51746W        W20151  38.299   2.744   3.685
51747W        W20152  13.661  24.993   4.062
51748W        W20153  30.577  20.831   3.600
51749W        W20154   7.174  36.390  12.001
51750W        W20155  24.259  39.473  11.246
51751W        W20156  26.065  16.261  14.233
51752W        W20157  44.556  30.981   1.372
51753W        W20158  17.334   0.562  14.943
51754W        W20159  39.393  41.907   1.714
51755W        W20160  28.328  35.122  11.705
51756W        W20161  31.092   7.449   1.279
51757W        W20162  40.522  16.935   4.180
51758W        W20163  30.131  34.838   4.573
51759W        W20164  18.526  35.504  12.487
51760W        W20165  24.721  42.318  11.128
51761W        W20166  20.308   5.436  14.415
51762W        W20167  37.254  26.585   5.175
51763W        W20168  31.046  43.928  11.421
51764W        W20169  33.129  21.492   3.878
51765W        W20170  44.276  24.032   1.700
51766W        W20171  35.926  21.714  14.661
51767W        W20172  18.548  17.975   0.271
51768W        W20173  44.876  29.094  14.923
51769W        W20174  27.707  30.415   1.869
51770W        W20175  36.447  25.997  10.684
51771W        W20176  39.363  23.971  14.891
51772W        W20177  35.948   3.421   2.938
51773W        W20178  43.978  37.914   2.147
51774W        W20179  38.910  16.359   2.587
51775W        W20180  17.702   0.002   2.253
51776W        W20181  36.043  44.948  12.436
51777W        W20182  20.722  39.476  14.387
51778W        W20183  15.600   9.675   4.194
51779W        W20184  20.577  31.419  10.767
51780W        W20185   5.457  15.909   0.007
51781W        W20186   9.938  33.048  13.170
51782W        W20187  28.218   0.183  12.367
51783W        W20188  19.939  38.073  13.578
51784W        W20189  18.796  24.330   5.544
51785W        W20190  29.576   7.040  10.859
51786W        W20191  41.232  21.228   2.282
51787W        W20192  37.560  44.014   3.217
51788W        W20193  23.069  33.353   3.048
51789W        W20194  29.705  12.152   3.494
51790W        W20195  35.861  21.325  13.827
51791W        W20196   6.557  39.323   1.371
51792W        W20197  44.958  11.702   1.504
51793W        W20198   1.676  24.634   2.037
51794W        W20199  14.183  29.535  13.787
51795W        W20200  17.612   2.809  14.649
51796W        W20201  33.445  13.801  12.861
51797W        W20202  13.630  13.857  13.121
51798W        W20203   4.385  43.210  11.058
51799W        W20204  29.956   4.907   2.626
51800W        W20205  40.864   6.275  10.894
51801W        W20206  10.875   6.074  14.027
51802W        W20207  27.979  41.354  14.810
51803W        W20208  28.913   2.929   3.257
51804W        W20209  16.859  40.786   4.205
51805W        W20210  19.850  44.261  14.819
51806W        W20211  34.325  27.046  13.752
51807W        W20212  14.355  39.112   0.941
51808W        W20213  14.894  22.150   1.467
51809W        W20214  22.223  17.818  12.124
51810W        W20215  40.477  23.349   0.042
51811W        W20216  16.786   6.872  12.258
51812W        W20217  18.839  33.984   5.067
51813W        W20218  34.523  43.983   0.939
51814W        W20219  15.373  10.799   0.976
51815W        W20220   3.301  36.903  13.704
51816W        W20221  20.763  14.216  10.533
51817W        W20222   5.997   0.555   1.934
51818W        W20223  29.029  27.943  11.038
51819W        W20224  29.422  24.710   2.886
51820W        W20225  36.908  20.781  12.989
51821W        W20226  44.987  12.726   2.907
51822W        W20227  36.372  22.851  13.461
51823W        W20228  18.260  14.208  12.405
51824W        W20229  19.572  40.599   4.388
51825W        W20230  34.910  29.594  11.635
51826W        W20231  14.683  37.116  14.499
51827W        W20232   4.832  17.802   4.425
51828W        W20233   4.411   2.407  13.853
51829W        W20234  11.197  17.292  14.817
51830W        W20235  43.267   3.979  11.643
51831W        W20236  22.650  26.525  12.955
51832W        W20237   3.902   1.506   4.237
51833W        W20238  11.354  12.315   3.717
51834W        W20239  35.595  14.211   4.160
51835W        W20240  43.245  16.649   1.355
51836W        W20241  18.649  25.861   4.988
51837W        W20242  22.334  27.724   4.256
51838W        W20243  27.142  41.527  10.698
51839W        W20244  11.257  32.967   3.458
51840W        W20245  28.983  22.084  10.770
51841W        W20246  17.904   3.971  13.828
51842W        W20247  16.732   8.635   1.675
51843W        W20248   6.303  16.556  13.921
51844W        W20249  34.583  25.644  14.833
51845W        W20250  21.167  40.291   3.213
51846W        W20251   3.016  16.194  13.787
51847W        W20252  23.915  22.679   3.832
51848W        W20253  33.296   9.759  13.507
51849W        W20254  15.692  37.445   1.443
51850W        W20255  34.591  31.568  12.568
51851W        W20256  34.524   8.413   3.770
51852W        W20257  30.496  35.589   3.161
51853W        W20258  44.174   7.941  14.050
51854W        W20259  19.382  35.538   0.480
51855W        W20260  29.170  35.559  12.053
51856W        W20261   6.849  40.346   1.710
51857W        W20262  27.200  35.872   2.083
51858W        W20263  39.746  13.634  10.541
51859W        W20264  35.406  11.203   4.134
51860W        W20265   5.428  17.177  13.621
51861W        W20266  23.875  19.784   5.046
51862W        W20267  24.602  38.423   3.740
51863W        W20268  40.175  42.972  12.519
51864W        W20269  20.148   3.330  11.545
51865W        W20270  44.434  28.496   2.379
51866W        W20271  30.750  42.969   1.771
51867W        W20272  19.802  37.878  14.048
51868W        W20273  37.862  31.106  12.109
51869W        W20274  37.980  37.896   4.185
51870W        W20275  22.197  12.488   0.240
51871W        W20276  24.180  16.631  14.886
51872W        W20277   1.240   8.596   2.410
51873W        W20278   8.643   5.786  11.066
51874W        W20279  32.853  42.779  10.649
51875W        W20280  34.381  36.773  13.928
51876W        W20281  39.043   2.365  14.285
51877W        W20282  17.006   7.860  11.599
51878W        W20283  13.577   8.848   3.601
51879W        W20284   0.331  10.262   2.929
51880W        W20285   1.717  38.093   1.753
51881W        W20286  14.745  41.164  14.397
51882W        W20287  15.440   0.230  11.200
51883W        W20288  32.532  34.294  10.458
51884W        W20289  22.867   5.107  10.691
51885W        W20290   5.640  40.538  11.996
51886W        W20291  36.055  16.749  12.038
51887W        W20292   0.499  39.464   4.193
51888W        W20293  36.807  23.989   1.268
51889W        W20294  43.938  26.981  11.592
51890W        W20295  18.134   1.152   3.011
51891W        W20296  40.111  37.017  10.421
51892W        W20297  18.592   9.119  12.005
51893W        W20298   9.725  24.604   4.935
51894W        W20299  40.955  31.414   2.413
51895W        W20300   1.008  22.323  13.335
51896W        W20301   4.925  42.539  14.753
51897W        W20302  41.264  33.388   4.476
51898W        W20303  44.234  43.477   2.796
51899W        W20304  42.661   9.293   0.265
51900W        W20305   1.565   1.865   0.718
51901W        W20306  43.267  11.844  14.438
51902W        W20307  15.756  32.483  14.213
51903W        W20308   0.888  24.668  11.235
51904W        W20309  41.467  44.398  12.788
51905W        W20310  23.673  22.344   1.591
51906W        W20311  10.825  12.348   4.610
51907W        W20312  11.613  31.812  14.838
51908W        W20313  16.050   3.377   1.458
51909W        W20314   2.966   9.342  12.391
51910W        W20315  25.790  19.593  13.251
51911W        W20316  32.299  28.680  11.224
51912W        W20317  11.205   1.823   1.526
51913W        W20318   0.952  31.620  13.095
51914W        W20319  16.263  40.009   3.092
51915W        W20320  27.201  19.035  12.895
51916W        W20321  21.730  10.643  12.492
51917W        W20322  32.007   9.025  13.863
51918W        W20323  15.026  44.970  14.842
51919W        W20324  10.829  19.980  13.977
51920W        W20325   0.213  31.178   4.442
51921W        W20326  11.073  13.782   3.431
51922W        W20327  17.554  42.443   1.371
51923W        W20328   5.042  44.964   4.108
51924W        W20329  44.078  40.787   3.206
51925W        W20330   9.404  36.465  14.428
51926W        W20331   2.396  38.377  14.860
51927W        W20332  17.750  20.035   0.406
51928W        W20333  26.309  36.433   3.372
51929W        W20334  21.299  40.794   3.629
51930W        W20335  16.651   2.428   4.696
51931W        W20336  22.023  21.639   0.362
51932W        W20337  36.882  28.828  14.978
51933W        W20338  14.205  30.419  11.871
51934W        W20339  28.141  22.750  14.797
51935W        W20340  39.114   2.343   0.776
51936W        W20341   6.463  22.088   0.922
51937W        W20342   2.008  39.040   0.203
51938W        W20343  16.018  21.188  12.951
51939W        W20344   4.945  27.470   9.826
51940W        W20345  17.265  26.178  14.984
51941W        W20346  39.578  42.392  10.961
51942W        W20347  29.330   9.671  13.322
51943W        W20348  35.452  41.469  12.845
51944W        W20349  12.299  11.621  12.105
51945W        W20350  41.576  28.529   2.254
51946W        W20351  27.040  12.207  12.366
51947W        W20352  44.377   7.486   2.766
51948W        W20353   9.786  31.542  12.894
51949W        W20354  37.604  22.584   3.618
51950W        W20355  18.598  40.991   0.866
51951W        W20356  20.667  17.134   3.668
51952W        W20357  21.485  11.999  14.225
51953W        W20358  38.541  43.446   0.322
51954W        W20359  16.631  34.471  12.347
51955W        W20360  30.966  20.669  11.508
51956W        W20361  27.743  30.556   4.493
51957W        W20362  37.564  24.738  13.855
51958W        W20363  22.061   5.952  12.159
51959W        W20364  43.246   9.501   4.782
51960W        W20365  15.478  39.888  10.450
51961W        W20366  14.602   2.270  11.587
51962W        W20367   0.173   4.525  10.757
51963W        W20368  15.987   5.773  13.537
51964W        W20369  43.857  31.625   1.664
51965W        W20370  32.137  43.895  13.939
51966W        W20371  42.090  14.255  10.521
51967W        W20372  35.905   0.549   3.233
51968W        W20373  17.084  20.792  11.967
51969W        W20374  35.582  37.694  12.287
51970W        W20375  11.667  26.497  11.138
51971W        W20376  10.942  15.215   0.698
51972W        W20377  43.013  18.576  10.843
51973W        W20378  30.882  40.320  12.407
51974W        W20379  39.982  29.463   1.355
51975W        W20380   9.264  35.152  11.633
51976W        W20381  38.526  43.916   4.684
51977W        W20382  15.229  37.066  12.801
51978W        W20383  17.584  23.160  12.088
51979W        W20384  11.099  17.537   0.300
51980W        W20385   8.898   2.893   0.753
51981W        W20386  18.121  44.790  11.422
51982W        W20387  28.144  19.807   1.893
51983W        W20388  32.795  11.607  11.368
51984W        W20389  41.629  15.769   0.214
51985W        W20390   2.269  43.455  12.051
51986W        W20391   1.988  27.550  14.236
51987W        W20392   6.164  34.119  11.475
51988W        W20393   4.242  29.622   1.920
51989W        W20394  42.959  35.194  14.824
51990W        W20395  30.589  38.830  13.293
51991W        W20396  24.781   7.841   5.077
51992W        W20397  44.223  10.736   4.296
51993W        W20398  31.291  30.032  14.407
51994W        W20399  31.998  18.782   2.297
51995W        W20400  13.669  34.178  13.519
51996W        W20401  28.590  42.972   5.348
51997W        W20402  22.772   4.296  12.963
51998W        W20403  11.068  10.393  12.374
51999W        W20404  28.011  36.517   2.827
52000W        W20405   6.456   1.632   1.059
52001W        W20406  25.064   7.921   3.149
52002W        W20407  38.348  36.570  12.468
52003W        W20408   1.398  33.505  13.128
52004W        W20409  11.179   4.264  13.767
52005W        W20410  10.149  38.418   1.928
52006W        W20411  32.370  25.380  13.486
52007W        W20412   3.015  29.128   1.267
52008W        W20413  10.799  39.825   4.614
52009W        W20414  30.138  15.305  13.457
52010W        W20415  39.413   8.436  12.266
52011W        W20416   0.053  18.579   3.688
52012W        W20417  18.000   4.941  11.059
52013W        W20418  15.403  39.993   4.190
52014W        W20419  31.842   1.281  13.085
52015W        W20420  28.418  35.842  14.316
52016W        W20421  10.595   5.334  10.568
52017W        W20422  22.645  43.462   4.280
52018W        W20423  22.226  10.291  14.935
52019W        W20424  30.896  33.797   0.831
52020W        W20425  34.608  30.658  13.604
52021W        W20426   2.823   1.811   2.905
52022W        W20427  41.370  11.080  14.804
52023W        W20428  34.347  15.137   0.631
52024W        W20429  24.039  44.808   4.114
52025W        W20430  33.168  27.988   1.031
52026W        W20431  39.708  15.638   4.186
52027W        W20432  41.510  22.267  13.669
52028W        W20433   2.280  17.325  13.099
52029W        W20434  38.790  11.351  11.489
52030W        W20435   4.433   9.710   1.227
52031W        W20436  27.452  18.415   1.959
52032W        W20437  30.632   7.271   1.403
52033W        W20438  13.132  17.528  10.753
52034W        W20439  34.978  33.257   1.357
52035W        W20440  23.470  39.516   0.769
52036W        W20441  13.978  24.745   2.793
52037W        W20442   6.939   0.881  10.967
52038W        W20443  11.408   2.182  14.692
52039W        W20444  30.895  37.298  12.456
52040W        W20445  18.796  27.534  12.573
52041W        W20446   2.706  42.614   5.222
52042W        W20447  34.594   3.937   2.626
52043W        W20448  23.476  14.158   4.504
52044W        W20449  30.387  17.056  11.713
52045W        W20450   6.680  38.281   3.340
52046W        W20451  12.824  10.993  12.914
52047W        W20452  34.899  33.843  12.784
52048W        W20453  35.432  38.628  13.826
52049W        W20454  30.986  26.125   4.503
52050W        W20455  21.801  18.978  13.543
52051W        W20456  44.007  34.517  10.622
52052W        W20457  15.011  43.466   4.135
52053W        W20458  37.501  42.782  10.702
52054W        W20459  24.587  14.107   3.720
52055W        W20460   5.713  38.037   1.857
52056W        W20461  44.823  43.498   2.220
52057W        W20462  22.621  31.523   1.437
52058W        W20463  32.397  35.436  14.351
52059W        W20464  44.999  35.511  10.562
52060W        W20465  37.873  12.671  14.782
52061W        W20466  16.107  15.792  13.509
52062W        W20467  14.041  29.778  12.407
52063W        W20468  33.440  25.198  11.598
52064W        W20469  29.515  17.107   2.176
52065W        W20470  35.140  26.620   3.675
52066W        W20471  17.570  39.004  10.712
52067W        W20472   1.747  43.360   3.269
52068W        W20473  44.388  33.359  12.444
52069W        W20474  44.403  21.153   1.387
52070W        W20475  37.649  40.170   0.297
52071W        W20476   7.839  15.754  14.780
52072W        W20477  29.491  38.826  13.476
52073W        W20478  32.312  31.926  10.304
52074W        W20479  42.477   7.591  11.187
52075W        W20480  33.656  25.567  12.915
52076W        W20481  43.956   3.958   1.212
52077W        W20482  32.194  22.447   0.841
52078W        W20483  30.330  36.784   3.749
52079W        W20484  33.536  11.457  12.924
52080W        W20485  30.141   1.842   1.794
52081W        W20486   0.877  13.201  11.420
52082W        W20487  33.485   7.478  13.383
52083W        W20488   2.368  15.555  12.965
52084W        W20489  15.047  22.646   0.369
52085W        W20490   7.139  44.370   2.819
52086W        W20491  27.116  33.658  12.013
52087W        W20492  12.715  13.704  10.650
52088W        W20493   7.159   0.335  13.867
52089W        W20494  19.751  39.982   1.211
52090W        W20495  33.490  21.203  11.580
52091W        W20496  13.284  14.310   1.818
52092W        W20497   9.433  35.843  14.993
52093W        W20498  11.962  42.168  10.615
52094W        W20499  14.088  41.819   2.334
52095W        W20500  38.982  19.002   1.248
52096W        W20501  35.053  34.099  11.986
52097W        W20502  31.133  40.982   3.152
52098W        W20503  31.005  27.430  11.595
52099W        W20504  11.605  13.336  14.448
52100W        W20505  30.167  28.916   1.189
52101W        W20506  36.628  16.081   3.806
52102W        W20507   9.976   5.914   0.709
52103W        W20508   3.037  25.867   1.765
52104W        W20509  36.099   1.855   0.184
52105W        W20510  28.394  15.748   2.893
52106W        W20511  42.694  14.772   1.321
52107W        W20512   8.383   9.487  12.993
52108W        W20513  22.106  11.630  10.633
52109W        W20514  32.060   6.398   0.145
52110W        W20515   5.071  20.513  12.038
52111W        W20516  42.221  21.551   1.718
52112W        W20517  42.922  21.262  13.474
52113W        W20518  37.392  44.379  10.655
52114W        W20519  43.030  16.459   3.229
52115W        W20520  42.442   8.726   2.681
52116W        W20521  24.015  31.551  13.538
52117W        W20522  20.455  27.996  13.448
52118W        W20523  20.425  42.568  13.324
52119W        W20524  27.489  22.026   4.035
52120W        W20525  24.610  24.189   2.700
52121W        W20526   6.728  26.168   4.574
52122W        W20527  38.590  40.814   4.300
52123W        W20528  20.428  37.885  12.419
52124W        W20529  26.576  16.827   1.486
52125W        W20530  31.918  24.226   4.170
52126W        W20531  30.417  29.113   4.207
52127W        W20532  30.610  17.104  10.917
52128W        W20533  16.905   5.163   9.686
52129W        W20534  39.074  26.466  11.702
52130W        W20535  21.074  23.621  14.629
52131W        W20536   1.454  41.338  13.536
52132W        W20537   2.998  20.068   1.280
52133W        W20538  25.902   8.289   1.184
52134W        W20539  12.275  13.346   5.002
52135W        W20540  38.304  22.705   4.024
52136W        W20541  39.925  17.348  12.018
52137W        W20542   1.731   9.567   5.035
52138W        W20543  11.850   4.459  14.586
52139W        W20544   5.429  30.643  12.165
52140W        W20545  34.463   1.894  12.567
52141W        W20546  40.921   3.205   0.453
52142W        W20547  12.120  42.043  14.479
52143W        W20548  28.983   7.386  13.919
52144W        W20549  36.638  14.219   4.200
52145W        W20550  36.514  38.744  13.393
52146W        W20551   5.347   2.539  12.081
52147W        W20552  12.198  30.818  13.517
52148W        W20553  10.202   7.759   3.161
52149W        W20554  28.141  15.059  12.589
52150W        W20555  16.242   7.654   1.448
52151W        W20556   2.128  34.410  11.690
52152W        W20557  42.124   1.437  14.250
52153W        W20558  25.121  23.053  14.965
52154W        W20559  15.151  37.380   4.837
52155W        W20560  26.237  14.722   4.864
52156W        W20561  43.072  32.053  14.220
52157W        W20562  10.145  25.457  13.293
52158W        W20563  13.296  35.609   2.795
52159W        W20564  20.064  43.933  10.878
52160W        W20565  15.546  19.757  13.986
52161W        W20566  41.519  22.613   0.389
52162W        W20567   6.830  34.017   2.127
52163W        W20568  37.315  44.892  10.685
52164W        W20569  30.645  37.522   0.997
52165W        W20570  11.284  16.235   3.785
52166W        W20571  17.795   5.694   1.656
52167W        W20572  37.863   5.692   2.900
52168W        W20573  38.521  15.014   2.503
52169W        W20574  15.827   2.754  14.840
52170W        W20575  33.558   3.292   1.443
52171W        W20576  30.862   8.531  14.467
52172W        W20577   6.089  22.479   2.257
52173W        W20578   5.679  40.387  13.750
52174W        W20579   5.894   3.675   2.854
52175W        W20580  29.680  32.932   1.639
52176W        W20581  44.202  27.191  13.271
52177W        W20582  25.992  36.281   4.661
52178W        W20583  10.952   8.688   2.285
52179W        W20584   2.928  14.105   0.221
52180W        W20585   5.504  22.129   1.799
52181W        W20586  26.737  38.528   3.113
52182W        W20587   6.499  12.366  12.551
52183W        W20588  19.629  11.667   3.843
52184W        W20589  40.905  33.383  12.773
52185W        W20590  11.885  15.339  13.864
52186W        W20591  43.546  10.820   3.839
52187W        W20592  19.628  29.877   4.604
52188W        W20593  14.460  18.164  11.095
52189W        W20594  30.009  10.719  10.728
52190W        W20595  38.055  15.121  10.889
52191W        W20596   8.375  21.132   1.976
52192W        W20597  40.861  13.496  13.849
52193W        W20598  18.307  44.990  11.845
52194W        W20599   0.456  24.779  11.493
52195W        W20600   7.608   4.320   4.101
52196W        W20601  29.867  13.233  10.758
52197W        W20602  43.805  13.887   3.707
52198W        W20603  20.151  22.158   4.788
52199W        W20604  23.516  24.458   1.372
52200W        W20605  25.852  18.054  10.645
52201W        W20606   3.415   4.206   2.306
52202W        W20607  32.820  34.396  12.638
52203W        W20608  42.796  31.423  12.627
52204W        W20609  40.022   8.342   2.440
52205W        W20610   7.943  37.481  14.932
52206W        W20611  25.589   0.957   0.210
52207W        W20612  21.129   1.752  11.519
52208W        W20613  44.328  12.935  13.373
52209W        W20614  16.344   4.742  13.470
52210W        W20615  32.807  29.830  12.112
52211W        W20616  39.853  42.248   1.799
52212W        W20617  43.022   3.151  11.586
52213W        W20618  10.363  43.639   0.780
52214W        W20619   2.815   1.335  12.617
52215W        W20620  33.013   1.184  11.966
52216W        W20621  26.276  32.885  12.884
52217W        W20622  27.906   1.111  12.786
52218W        W20623  40.935   0.959  12.771
52219W        W20624   1.672  27.157  11.637
52220W        W20625  26.983  27.143  13.374
52221W        W20626  24.704  39.164  14.812
52222W        W20627  23.857  30.771  12.935
52223W        W20628  11.136  19.833   2.280
52224W        W20629  28.638  27.753  12.445
52225W        W20630   1.233  13.363   1.339
52226W        W20631  43.674  39.882  14.858
52227W        W20632   1.891  17.693   2.871
52228W        W20633   5.628  10.126   0.007
52229W        W20634  33.942  12.140  11.651
52230W        W20635   0.480   3.645  11.887
52231W        W20636  28.877  16.741   3.770
52232W        W20637  44.343   8.234   1.592
52233W        W20638   3.251  14.099   1.858
52234W        W20639  25.752  33.485   1.337
52235W        W20640  41.067  37.923   3.128
52236W        W20641  21.447   8.886  10.608
52237W        W20642   7.408  27.091   2.850
52238W        W20643  31.012   8.132   4.279
52239W        W20644  27.764  42.310   1.397
52240W        W20645   8.702   2.946   3.917
52241W        W20646  10.555  43.364   5.193
52242W        W20647  13.635  42.399  13.616
52243W        W20648  33.391  10.726   2.826
52244W        W20649  27.645  35.921  13.918
52245W        W20650   4.858  28.574   4.560
52246W        W20651  16.783  44.083  12.478
52247W        W20652  28.545  26.251   1.675
52248W        W20653  34.074   9.289  13.423
52249W        W20654  29.043  35.112  12.948
52250W        W20655  10.551  29.634  11.733
52251W        W20656  33.370  28.472   0.962
52252W        W20657  41.958  15.263   1.905
52253W        W20658  14.199  22.682  11.436
52254W        W20659  37.545  13.968  10.341
52255W        W20660   2.853  33.119  12.101
52256W        W20661  31.820  22.933  11.065
52257W        W20662  28.711  31.167   1.200
52258W        W20663  42.867  21.918  14.044
52259W        W20664   5.804  26.571   3.287
52260W        W20665  25.694   6.493   4.661
52261W        W20666  37.812  23.710   1.724
52262W        W20667   3.397   5.695  14.983
52263W        W20668  27.532  25.622   4.382
52264W        W20669  36.997   0.701   4.331
52265W        W20670  31.658  12.734   4.560
52266W        W20671  13.065  31.004  12.436
52267W        W20672  44.066  32.766  12.062
52268W        W20673  19.592  39.013  12.355
52269W        W20674  21.164  14.538  14.443
52270W        W20675  20.064  19.623   2.163
52271W        W20676  17.333  43.060   0.811
52272W        W20677   6.167  35.161  10.227
52273W        W20678  37.459  16.641  14.943
52274W        W20679   9.464  17.781   3.890
52275W        W20680  28.117  41.414  12.831
52276W        W20681  12.835  29.153   3.622
52277W        W20682  43.777  13.231  14.810
52278W        W20683  16.620  43.443  12.979
52279W        W20684  28.693  36.008   2.631
52280W        W20685  36.940  11.819  10.784
52281W        W20686  13.745  32.160  11.936
52282W        W20687  20.796  34.457  14.114
52283W        W20688  22.475  10.809   1.056
52284W        W20689  25.606  34.102  14.645
52285W        W20690  37.009  20.135  14.028
52286W        W20691  36.155  13.138  12.530
52287W        W20692  43.939  25.866   3.053
52288W        W20693  31.052   4.679   3.187
52289W        W20694   7.610  34.901   1.881
52290W        W20695  28.014  30.445   2.368
52291W        W20696  14.745  40.712  13.354
52292W        W20697  39.250   1.547   5.482
52293W        W20698  38.779   4.975  14.349
52294W        W20699  28.170  31.668  11.548
52295W        W20700  22.726  22.262  13.808
52296W        W20701  32.549  15.231   2.137
52297W        W20702   1.321  38.333  13.606
52298W        W20703   4.519  22.065  12.013
52299W        W20704  16.719   1.864   1.512
52300W        W20705  27.081  36.924  10.673
52301W        W20706  34.288  40.768  11.256
52302W        W20707  17.082  20.115   0.842
52303W        W20708  39.394  27.422  13.868
52304W        W20709  33.551  34.587  12.107
52305W        W20710   2.862  20.745   4.620
52306W        W20711   1.592   2.854  10.868
52307W        W20712   7.875   9.715   4.576
52308W        W20713  32.192  27.675   0.794
52309W        W20714  12.405  40.615  12.452
52310W        W20715  15.680   9.122   0.486
52311W        W20716  40.826   5.374   4.199
52312W        W20717  14.821  14.698  14.821
52313W        W20718  19.208  14.370   2.249
52314W        W20719   0.822  39.334  11.996
52315W        W20720  11.989  33.790   3.692
52316W        W20721  44.274   7.850  14.553
52317W        W20722   0.389  34.487  11.160
52318W        W20723  42.882  31.852  11.185
52319W        W20724  23.183   6.233   3.663
52320W        W20725  39.415  20.623   4.015
52321W        W20726  24.076  41.398  14.933
52322W        W20727   8.935  41.343   1.680
52323W        W20728  24.095  42.364  12.471
52324W        W20729   8.757  23.206   2.415
52325W        W20730  26.713  25.311  11.096
52326W        W20731  23.226   6.408   3.161
52327W        W20732   2.422  16.883   4.632
52328W        W20733   8.136   5.415   2.872
52329W        W20734  22.197  19.076   0.005
52330W        W20735  20.681   9.426   9.977
52331W        W20736  28.194  29.704  12.816
52332W        W20737  11.110  44.794  11.100
52333W        W20738   6.806  24.523   0.819
52334W        W20739  17.523  33.501  13.497
52335W        W20740  37.016  31.698   0.913
52336W        W20741  43.981  10.991  11.987
52337W        W20742  13.664  12.938  14.836
52338W        W20743  36.886  31.573   3.314
52339W        W20744   0.985  14.599   4.214
52340W        W20745  28.202  16.776   0.848
52341W        W20746   8.623   0.958  14.879
52342W        W20747   1.863  14.620   4.800
52343W        W20748  12.223  36.283  14.880
52344W        W20749   8.827   7.327   3.885
52345W        W20750  11.676  22.480  14.045
52346W        W20751  32.933   5.442  12.995
52347W        W20752   6.178  38.977   1.184
52348W        W20753  31.112  17.779  14.008
52349W        W20754  33.371  17.929  10.724
52350W        W20755  26.190  41.374   2.781
52351W        W20756  30.544  43.769   2.135
52352W        W20757   4.882  21.035  10.691
52353W        W20758  35.757  26.240  11.650
52354W        W20759   3.606  25.227   5.052
52355W        W20760  42.019  13.772   4.263
52356W        W20761   2.450   1.918  13.965
52357W        W20762  20.530   8.685  12.979
52358W        W20763  41.332   3.624   3.261
52359W        W20764  41.330  23.610   3.774
52360W        W20765  20.624  42.946  13.607
52361W        W20766  14.106  17.264  13.685
52362W        W20767   4.705  29.730  14.437
52363W        W20768  17.845   6.626  11.036
52364W        W20769  37.847  23.277   0.257
52365W        W20770  38.490  16.808   1.336
52366W        W20771   8.769  14.198  11.980
52367W        W20772   7.196  35.722  13.027
52368W        W20773  22.579  43.502   1.222
52369W        W20774  29.881  18.707  13.057
52370W        W20775   2.026  28.272   4.686
52371W        W20776  14.377  22.098   1.045
52372W        W20777  41.364  31.123   2.510
52373W        W20778  37.555  32.607  14.100
52374W        W20779  18.057  13.989   1.850
52375W        W20780  29.417  26.563  14.474
52376W        W20781  12.685  39.817   1.051
52377W        W20782   2.667  37.403   2.496
52378W        W20783   1.381  18.273   2.058
52379W        W20784  23.137  29.216  11.999
52380W        W20785   7.800  18.163  14.978
52381W        W20786   7.669  21.428   2.723
52382W        W20787   6.728  24.145   2.614
52383W        W20788  29.543  27.458   2.340
52384W        W20789  11.363  10.933  11.156
52385W        W20790  29.055  10.040  10.733
52386W        W20791  18.663  29.563   3.338
52387W        W20792   9.404   2.750   0.621
52388W        W20793  31.314  12.172  11.166
52389W        W20794   2.818  32.305   4.678
52390W        W20795   6.854  44.490  11.932
52391W        W20796   9.653  33.827  11.679
52392W        W20797   9.823  13.294  10.682
52393W        W20798  21.172  28.800  11.447
52394W        W20799  41.872   6.461   0.965
52395W        W20800  35.956  34.555  13.008
52396W        W20801  34.339   6.949  12.057
52397W        W20802  34.852   7.676   4.964
52398W        W20803  27.583  36.803  14.443
52399W        W20804  35.905  40.084  10.679
52400W        W20805  23.469   2.938  13.905
52401W        W20806   3.860  39.463   4.064
52402W        W20807  13.997   8.424   2.207
52403W        W20808  29.053   6.964   0.699
52404W        W20809  16.537  19.721  11.809
52405W        W20810  12.721  19.877  14.011
52406W        W20811  32.642   7.368   0.766
52407W        W20812  41.797  39.862  11.295
52408W        W20813  37.944  18.813  11.950
52409W        W20814  42.760  44.430   0.535
52410W        W20815  34.874   7.127  10.399
52411W        W20816  42.955  23.495   3.355
52412W        W20817  15.499  16.132  10.935
52413W        W20818  38.428   7.426   0.874
52414W        W20819  34.443  36.896   2.239
52415W        W20820   0.385   8.312  14.761
52416W        W20821  12.329   6.722  10.728
52417W        W20822   8.440  35.006  10.979
52418W        W20823  23.704  20.355  14.790
52419W        W20824  30.132  38.700  11.995
52420W        W20825  28.523   7.649  12.907
52421W        W20826   4.278  18.981  11.112
52422W        W20827  22.557  28.100  13.313
52423W        W20828  28.938  18.120   0.988
52424W        W20829  31.210  38.480   3.862
52425W        W20830  22.988  13.825  10.790
52426W        W20831   4.315   5.187  12.588
52427W        W20832  28.305  19.738  13.739
52428W        W20833  32.144  22.963  13.616
52429W        W20834  36.156  41.102  13.096
52430W        W20835  26.816  37.063  11.955
52431W        W20836   2.689  30.841   2.214
52432W        W20837  24.620  31.598  11.959
52433W        W20838  16.077  37.486  11.556
52434W        W20839   8.895  32.017  13.761
52435W        W20840  42.294  17.369  11.923
52436W        W20841   0.809  32.573  10.217
52437W        W20842  43.465  27.225   1.871
52438W        W20843   4.317   3.783  13.090
52439W        W20844  10.055   5.851  12.001
52440W        W20845  28.547   0.493   1.004
52441W        W20846  43.237   0.368  13.620
52442W        W20847   2.896   3.296   3.827
52443W        W20848  22.153  40.341  12.494
52444W        W20849  44.352  44.466   1.135
52445W        W20850   8.801  14.246   2.618
52446W        W20851   1.676  33.933   3.202
52447W        W20852  41.939  15.042   4.100
52448W        W20853  44.014  14.635  10.728
52449W        W20854   8.866   1.923   3.418
52450W        W20855  24.755  42.362   3.754
52451W        W20856  15.849  39.471   1.872
52452W        W20857  22.508  41.493  12.407
52453W        W20858  10.859   3.726   0.335
52454W        W20859  44.537  10.672  12.613
52455W        W20860  13.305  13.179  14.276
52456W        W20861  14.349   4.038  11.093
52457W        W20862  31.140  11.436   3.764
52458W        W20863  23.383  41.798   1.444
52459W        W20864  10.839   3.246  10.940
52460W        W20865  29.590  27.462  12.728
52461W        W20866  15.982  40.287  11.095
52462W        W20867  16.172  44.374  11.604
52463W        W20868  25.434  19.231  13.285
52464W        W20869   2.353  20.305   2.777
52465W        W20870   0.693  12.480  14.760
52466W        W20871  17.074  16.575  12.454
52467W        W20872   5.001  24.688  12.574
52468W        W20873  18.871  44.409   1.717
52469W        W20874   2.946  25.729  10.313
52470W        W20875   9.896  19.403   4.977
52471W        W20876  26.494  40.330  14.999
52472W        W20877  43.930  11.783  12.320
52473W        W20878  32.142  17.513   4.367
52474W        W20879   3.385   2.440   1.869
52475W        W20880  15.808   9.825   2.359
52476W        W20881  21.525  19.699  11.432
52477W        W20882  20.622  25.071   4.161
52478W        W20883  22.472  23.205  13.473
52479W        W20884  33.635  18.810  12.096
52480W        W20885  30.434  41.282  11.993
52481W        W20886  39.720  34.328  10.991
52482W        W20887  39.319  28.637  12.634
52483W        W20888   5.028  30.841  13.011
52484W        W20889  33.191  39.083   1.227
52485W        W20890  17.513  25.224  11.159
52486W        W20891  38.827  35.404   2.813
52487W        W20892   9.696   4.965   0.194
52488W        W20893  12.289  19.790  14.350
52489W        W20894  32.461  43.229  12.126
52490W        W20895   4.009  27.766  13.011
52491W        W20896  38.345   8.479   0.906
52492W        W20897  38.511  14.613  13.446
52493W        W20898  13.563   8.716  10.973
52494W        W20899  10.354   2.281   4.550
52495W        W20900  37.047  33.024   2.426
52496W        W20901  37.308  31.180   3.699
52497W        W20902  26.898  12.919  11.507
52498W        W20903  11.152  28.940   3.204
52499W        W20904   0.600  27.137  13.509
52500W        W20905  38.701  19.193  13.479
52501W        W20906   2.866   0.522   2.857
52502W        W20907   9.714   7.689   2.413
52503W        W20908  35.926   1.408   1.468
52504W        W20909  30.922  33.122  14.986
52505W        W20910  29.516   2.893  12.080
52506W        W20911  31.379  42.480  14.956
52507W        W20912  21.051  24.499  12.935
52508W        W20913   1.898  25.613  13.548
52509W        W20914  30.651  43.034  10.020
52510W        W20915   4.740  12.537   4.583
52511W        W20916  11.311  20.391   3.805
52512W        W20917  31.853  21.402  13.371
52513W        W20918  15.603   5.306   0.422
52514W        W20919   5.399  34.996   3.256
52515W        W20920  31.906  39.929  11.143
52516W        W20921  32.509  30.831   1.428
52517W        W20922  44.637  33.831   0.694
52518W        W20923  16.647  41.699  11.478
52519W        W20924  38.864   6.410  13.387
52520W        W20925  36.594  32.502   1.479
52521W        W20926  30.947   7.384  10.661
52522W        W20927   9.412  32.409   1.407
52523W        W20928   4.324  28.512   1.369
52524W        W20929  41.969  44.777  12.283
52525W        W20930  44.314  32.031   1.401
52526W        W20931  42.920  17.847   4.580
52527W        W20932  40.236  10.325   2.368
52528W        W20933   7.398  21.985   3.257
52529W        W20934   8.962  10.898  12.272
52530W        W20935  42.714  20.505   4.785
52531W        W20936  13.741  42.471   2.743
52532W        W20937  36.589  23.360  13.421
52533W        W20938   4.647  40.236  12.113
52534W        W20939  15.499   7.716  14.387
52535W        W20940  41.360   1.338  14.244
52536W        W20941  13.395   5.066   4.145
52537W        W20942   7.550  41.399  12.018
52538W        W20943  23.606   0.222   0.311
52539W        W20944  21.423  24.427  13.819
52540W        W20945  41.149  35.028  10.734
52541W        W20946  44.041  35.703   5.248
52542W        W20947   9.933  35.887  10.737
52543W        W20948   1.843   1.485   4.902
52544W        W20949  30.471  20.542  14.021
52545W        W20950   9.855  28.932  12.931
52546W        W20951  27.993  21.000  14.782
52547W        W20952  31.646  28.822   0.478
52548W        W20953  43.046  35.079  13.897
52549W        W20954   0.536  17.845   1.325
52550W        W20955   7.644  32.124   3.352
52551W        W20956  30.697  32.912   1.371
52552W        W20957  24.995   3.876  13.470
52553W        W20958  26.094  13.952  12.178
52554W        W20959  30.927  20.950  11.059
52555W        W20960  36.866  41.831   0.362
52556W        W20961  44.327  30.821   1.857
52557W        W20962  24.499  25.923  13.596
52558W        W20963  25.917  10.948   0.258
52559W        W20964   0.270  42.243   0.661
52560W        W20965   1.039   5.609  11.693
52561W        W20966  40.962  16.265   3.577
52562W        W20967  40.144  23.432  14.659
52563W        W20968   9.596   4.469  13.741
52564W        W20969  15.012  28.412   4.281
52565W        W20970   3.486   6.347   0.814
52566W        W20971  21.584  17.173   4.237
52567W        W20972  39.378   9.993  10.517
52568W        W20973   4.694  31.233   0.965
52569W        W20974  40.321  10.118   2.830
52570W        W20975  19.550  19.582  12.327
52571W        W20976  36.356  28.723  14.078
52572W        W20977  17.553   3.650  12.903
52573W        W20978  43.457  32.993   2.935
52574W        W20979   0.974  17.859  12.953
52575W        W20980  13.013   9.121   4.318
52576W        W20981  16.249  32.594   4.134
52577W        W20982  16.806   8.952   3.243
52578W        W20983  18.669  37.943   3.195
52579W        W20984  25.476  29.132   1.458
52580W        W20985  36.515  25.708   1.318
52581W        W20986   8.396  16.867  11.952
52582W        W20987  25.854  27.122  14.005
52583W        W20988  27.907   2.310  14.765
52584W        W20989  15.881  35.982  10.088
52585W        W20990  33.909  43.355   0.446
52586W        W20991  10.683  43.412   0.421
52587W        W20992  28.374  44.898  13.137
52588W        W20993   2.866   7.495   2.339
52589W        W20994  18.842  19.167   2.868
52590W        W20995   0.954  11.424  10.626
52591W        W20996  44.556  34.377   0.690
52592W        W20997  35.836  29.000   1.469
52593W        W20998  42.033  31.929  14.245
52594W        W20999   8.693   1.402  13.961
52595W        W21000  19.681  16.032   2.859
52596W        W21001   5.669   7.878  12.307
52597W        W21002   5.212   9.051  13.587
52598W        W21003  44.882   7.349   2.731
52599W        W21004  40.104  24.248  12.169
52600W        W21005  41.032  30.179   3.883
52601W        W21006  15.745  14.834  12.027
52602W        W21007  41.598  28.692  14.918
52603W        W21008  38.509  30.544   1.746
52604W        W21009  11.690  38.583  13.341
52605W        W21010  13.700  31.433  10.650
52606W        W21011  40.509   5.866  13.907
52607W        W21012  43.490  42.475   3.756
52608W        W21013   8.098  36.842   1.267
52609W        W21014   0.482  38.945  11.968
52610W        W21015  19.555  43.919  10.963
52611W        W21016  30.977   8.352   4.898
52612W        W21017  19.019  10.066  11.510
52613W        W21018  42.773  44.528  11.121
52614W        W21019  20.125   1.527  12.923
52615W        W21020  43.796  41.861  11.538
52616W        W21021  34.104  11.063   0.835
52617W        W21022   8.351  37.669  13.548
52618W        W21023  34.984  21.282   1.190
52619W        W21024   2.852  12.377  11.800
52620W        W21025  44.143   0.485   0.341
52621W        W21026  43.530  35.979   0.455
52622W        W21027  32.013   7.476   1.306
52623W        W21028  10.375   7.670  12.529
52624W        W21029   1.250  29.173  12.889
52625W        W21030   5.609  41.945   4.676
52626W        W21031  26.782  33.587   0.295
52627W        W21032  41.846  21.511  14.980
52628W        W21033   1.951  27.643  14.734
52629W        W21034  36.326   6.409   2.449
52630W        W21035  14.536  31.725  10.720
52631W        W21036   0.845  43.022   1.140
52632W        W21037   8.663  22.306   1.256
52633W        W21038  26.035  19.792   0.011
52634W        W21039  19.082  29.882  13.869
52635W        W21040   4.776  37.522  10.224
52636W        W21041  33.964  27.827  13.842
52637W        W21042  28.079  16.943   4.095
52638W        W21043  40.305  17.767   4.155
52639W        W21044  10.212  38.423   0.376
52640W        W21045  10.352  38.742   5.047
52641W        W21046  32.690  27.556   0.670
52642W        W21047  42.800   7.211   1.918
52643W        W21048  22.189  28.733   1.199
52644W        W21049   3.764   5.710   4.687
52645W        W21050   4.389   7.461   0.799
52646W        W21051  27.049   4.454  12.531
52647W        W21052  40.378  36.406   2.209
52648W        W21053  10.185  30.703   4.168
52649W        W21054  33.142  23.173   3.466
52650W        W21055   0.005  44.369  13.411
52651W        W21056  18.064  42.939   1.918
52652W        W21057  36.367   5.925   4.683
52653W        W21058  23.955  24.741   1.354
52654W        W21059   4.242  25.701  10.716
52655W        W21060   3.826  19.591  14.365
52656W        W21061  20.330  26.066  10.455
52657W        W21062  18.976  33.622   0.326
52658W        W21063  41.965  12.161  14.617
52659W        W21064  28.759   7.376  12.538
52660W        W21065  11.687  11.578   4.516
52661W        W21066  21.636  21.994   4.135
52662W        W21067  32.605  15.736   0.920
52663W        W21068  23.923  38.321   3.349
52664W        W21069  15.318   9.391   4.603
52665W        W21070  39.447  43.909  10.768
52666W        W21071  11.725  42.055  14.802
52667W        W21072   2.599  39.554  13.918
52668W        W21073  32.277  40.307   2.138
52669W        W21074  17.713  29.672  10.688
52670W        W21075  11.322  36.530  14.933
52671W        W21076  28.707  39.329   0.923
52672W        W21077  43.773  33.439  13.949
52673W        W21078   8.871   1.920   3.937
52674W        W21079   1.036  21.587   1.112
52675W        W21080  32.159  33.571   0.568
52676W        W21081  30.451   7.204   4.633
52677W        W21082  34.430  41.441   0.492
52678W        W21083  15.462  15.272   3.242
52679W        W21084  27.406  19.496  13.996
52680W        W21085   7.921  34.188  11.522
52681W        W21086  40.780  11.851   4.752
52682W        W21087  40.000  27.658   4.249
52683W        W21088  38.806  43.346   2.690
52684W        W21089  42.000  44.853  13.864
52685W        W21090   1.715  12.866  11.666
52686W        W21091  17.028  13.212   1.158
52687W        W21092   5.149  42.440  10.329
52688W        W21093  18.286  21.859   9.847
52689W        W21094  10.566  11.552  11.249
52690W        W21095   9.946  41.954   2.471
52691W        W21096  17.911  19.453   1.746
52692W        W21097  33.863  33.693  14.514
52693W        W21098  16.967  43.828  10.596
52694W        W21099  21.812  38.530   3.372
52695W        W21100  37.624   5.138   2.343
52696W        W21101  39.469  36.612   0.764
52697W        W21102   8.177   4.840   3.679
52698W        W21103  23.241  10.213  14.967
52699W        W21104  25.114  35.845   0.331
52700W        W21105  21.052  13.372   2.750
52701W        W21106  11.862  16.918   4.248
52702W        W21107  12.345  10.981  14.071
52703W        W21108  30.605  41.755   1.852
52704W        W21109  32.868  11.667   1.815
52705W        W21110  11.743  11.682  14.080
52706W        W21111  18.100  26.929   1.816
52707W        W21112  28.149  24.835  12.173
52708W        W21113  32.380  32.846   4.467
52709W        W21114  12.909  35.399   1.278
52710W        W21115  30.234  11.182   4.406
52711W        W21116  20.011   2.388  12.909
52712W        W21117   1.508  23.139  11.566
52713W        W21118   9.669  19.597   0.750
52714W        W21119  33.582  10.377   0.748
52715W        W21120  22.045  16.308  12.011
52716W        W21121  43.513  26.520  13.170
52717W        W21122  37.513  21.601   2.192
52718W        W21123  41.977   5.240   2.784
52719W        W21124  28.523  38.449   5.431
52720W        W21125  40.455  28.119  10.764
52721W        W21126  27.543  21.151   1.591
52722W        W21127  26.914   6.898  13.515
52723W        W21128  24.688  14.640  13.945
52724W        W21129  11.571  40.735  10.256
52725W        W21130  19.704  23.458  13.513
52726W        W21131  31.678  31.660   0.483
52727W        W21132  12.677   8.792   4.037
52728W        W21133  16.320  26.696  14.833
52729W        W21134  26.838  17.621   0.414
52730W        W21135  14.199  12.171  10.641
52731W        W21136  27.565  26.953   1.212
52732W        W21137  25.708  26.725   1.266
52733W        W21138  24.510   8.698  10.707
52734W        W21139  29.071  23.185   0.824
52735W        W21140   7.737   6.361   1.659
52736W        W21141  36.461  22.945   4.126
52737W        W21142  38.406  41.929  13.801
52738W        W21143   6.129  15.140   0.227
52739W        W21144  10.408  36.503  11.913
52740W        W21145  13.915  16.102   4.019
52741W        W21146  43.890  11.274  14.096
52742W        W21147  32.156  29.401   3.303
52743W        W21148  44.264  29.016   4.030
52744W        W21149   8.920  37.917  11.008
52745W        W21150  14.783  27.644   2.643
52746W        W21151  16.253   6.294  14.504
52747W        W21152  18.987   7.419  12.544
52748W        W21153  15.663  26.933   0.430
52749W        W21154  24.663  34.360  13.310
52750W        W21155  28.247  19.807   4.127
52751W        W21156  29.472  20.493   4.548
52752W        W21157  17.113  15.022   1.810
52753W        W21158  35.408  39.983   3.854
52754W        W21159  21.522  29.703   3.841
52755W        W21160  43.882   4.202  12.064
52756W        W21161  37.839  21.164  13.860
52757W        W21162   1.277  12.034   0.545
52758W        W21163  42.197  19.034  11.618
52759W        W21164  21.157  35.511  10.322
52760W        W21165  21.038  26.947  12.871
52761W        W21166  27.220  17.514  13.998
52762W        W21167  44.330  29.380   2.772
52763W        W21168  31.098  12.878  13.210
52764W        W21169  30.511  40.475   1.788
52765W        W21170  23.945  30.157   2.198
52766W        W21171  32.615  31.126   2.755
52767W        W21172  42.851  25.215  13.865
52768W        W21173  31.697  34.569  12.516
52769W        W21174  43.811  44.895  13.112
52770W        W21175   2.140  39.269   1.315
52771W        W21176  44.648   5.807   5.041
52772W        W21177  41.308  13.918  12.451
52773W        W21178   4.820  28.012  14.449
52774W        W21179   2.045  19.084  14.827
52775W        W21180  25.354  27.002  14.042
52776W        W21181  33.843   7.233  11.398
52777W        W21182  44.283  22.137   1.713
52778W        W21183  26.677  11.879   2.831
52779W        W21184  22.732   7.817  14.030
52780W        W21185  43.306   4.988  11.437
52781W        W21186  19.727   3.791   3.343
52782W        W21187  22.399  32.440   4.502
52783W        W21188   7.165  15.640   0.393
52784W        W21189   4.966   6.128   1.448
52785W        W21190   7.985  17.319  11.916
52786W        W21191  41.326  30.879   1.720
52787W        W21192  17.154  34.668  12.675
52788W        W21193  16.682  28.269   0.843
52789W        W21194   7.713  27.888   4.185
52790W        W21195  21.098  27.580  12.446
52791W        W21196   9.738  38.935  14.388
52792W        W21197  44.339  11.516  12.602
52793W        W21198  28.846  34.571  12.292
52794W        W21199  32.623  37.817   2.955
52795W        W21200  11.372  12.603   4.143
52796W        W21201  22.777  40.043   2.314
52797W        W21202  31.074  26.740   2.152
52798W        W21203  26.757  30.617  11.194
52799W        W21204   2.762  33.998   1.404
52800W        W21205  13.355  20.007  10.680
52801W        W21206  15.663  25.261   2.407
52802W        W21207  14.805  13.256   0.284
52803W        W21208   1.736  18.726  11.370
52804W        W21209  32.131  23.952   1.063
52805W        W21210  16.739  41.480   1.018
52806W        W21211   4.792  19.321   4.097
52807W        W21212  13.182   4.269  14.864
52808W        W21213  35.378   9.353   2.610
52809W        W21214   2.648  18.122   1.650
52810W        W21215  34.120  25.559   4.788
52811W        W21216   8.890   3.335  13.390
52812W        W21217  20.870  26.257  14.273
52813W        W21218  44.567  34.306   4.027
52814W        W21219   9.332  25.073  13.103
52815W        W21220  10.249   3.753   4.589
52816W        W21221  21.394   4.927   4.588
52817W        W21222  34.417   6.890  13.546
52818W        W21223  27.522   6.643   1.917
52819W        W21224  31.745  33.516   3.285
52820W        W21225  30.571  33.830  14.442
52821W        W21226  38.619  34.541   2.947
52822W        W21227  39.091  12.595  11.118
52823W        W21228  17.154  38.121   4.583
52824W        W21229   0.463  23.194   4.592
52825W        W21230   4.843  11.905  11.141
52826W        W21231  13.643  30.381  13.963
52827W        W21232   4.903  43.981  11.527
52828W        W21233  30.188  34.392   3.328
52829W        W21234  39.920  24.177  13.102
52830W        W21235  23.280  35.526  14.455
52831W        W21236  38.567  27.961  12.397
52832W        W21237  16.352  40.022  13.471
52833W        W21238   2.321  28.266   3.132
52834W        W21239   7.915   8.778   0.476
52835W        W21240   5.727   1.051   4.887
52836W        W21241  27.407  38.378  10.193
52837W        W21242  26.063  39.558   4.132
52838W        W21243  40.988  25.603  13.042
52839W        W21244  16.967   0.918   0.247
52840W        W21245  38.514  19.590  11.244
52841W        W21246  29.470  11.963  13.523
52842W        W21247  37.966  24.354  13.829
52843W        W21248  23.712  36.435  13.911
52844W        W21249  44.237  29.800  14.321
52845W        W21250  25.150  24.136  12.352
52846W        W21251  33.921  36.323  12.806
52847W        W21252  35.552  19.790   3.781
52848W        W21253   1.546  29.298   0.589
52849W        W21254  33.880  28.923  14.725
52850W        W21255  41.294  21.004   1.078
52851W        W21256  42.401   7.429   3.258
52852W        W21257  15.350  20.001  11.109
52853W        W21258  41.438  27.439   4.164
52854W        W21259   5.930  27.967   4.145
52855W        W21260  17.775   0.742  11.910
52856W        W21261  14.270  20.041  11.594
52857W        W21262  34.413   7.880   4.696
52858W        W21263  13.207  40.963  12.990
52859W        W21264   1.919   7.888  14.371
52860W        W21265  21.554  38.952   3.264
52861W        W21266  16.599  16.572   4.344
52862W        W21267  35.952  41.046  13.581
52863W        W21268  30.666  42.520   1.329
52864W        W21269  22.659  24.023  14.015
52865W        W21270  32.549  43.183   1.941
52866W        W21271  19.658  42.795  11.005
52867W        W21272  23.541  31.541  14.308
52868W        W21273  44.991  43.939   2.447
52869W        W21274  25.589  24.119   1.372
52870W        W21275  18.654  10.934  10.634
52871W        W21276   0.116  26.774  11.027
52872W        W21277  31.542  20.826   3.792
52873W        W21278  33.570  31.574   1.962
52874W        W21279   1.507  13.351   0.891
52875W        W21280   8.291   1.966  13.281
52876W        W21281  14.266   5.919  14.546
52877W        W21282  31.602  44.973   0.885
52878W        W21283  11.475   5.832   4.867
52879W        W21284  15.603  30.207   1.780
52880W        W21285  14.415   5.710   1.030
52881W        W21286  27.666  11.764  11.429
52882W        W21287  25.209  43.103  11.028
52883W        W21288   5.338   2.740  13.642
52884W        W21289  38.528  21.183  11.561
52885W        W21290  34.313  11.485  10.707
52886W        W21291  41.775   3.913   1.851
52887W        W21292   1.857  22.701  13.977
52888W        W21293   6.873  37.839   0.265
52889W        W21294   8.116  20.883   3.951
52890W        W21295   3.031   6.796  13.886
52891W        W21296  14.762  36.429   3.009
52892W        W21297  10.427   8.655  14.874
52893W        W21298  36.036  19.974   3.616
52894W        W21299  15.769  12.036   1.730
52895W        W21300  24.075  38.788  13.858
52896W        W21301  35.563  26.044  13.995
52897W        W21302  31.440  42.107   1.909
52898W        W21303  36.566  16.702  11.209
52899W        W21304  12.977  37.463  13.754
52900W        W21305   3.611  40.114   4.602
52901W        W21306  31.043  41.730   2.601
52902W        W21307  43.967  12.637   1.454
52903W        W21308  22.765  20.807   4.557
52904W        W21309  11.776  44.510  12.047
52905W        W21310  23.596  26.666   3.707
52906W        W21311   8.040  14.836   4.120
52907W        W21312  40.315  18.846   0.849
52908W        W21313   7.972   8.775  12.587
52909W        W21314  27.890  15.560   2.879
52910W        W21315   6.317  44.479  12.006
52911W        W21316   4.751   4.954  12.678
52912W        W21317  36.707  12.498   1.803
52913W        W21318  30.561  33.827   2.634
52914W        W21319   5.442  18.297   3.304
52915W        W21320  21.130  34.111   1.856
52916W        W21321  22.178   0.723   1.708
52917W        W21322   1.467  26.219  12.813
52918W        W21323   1.728  39.476  13.325
52919W        W21324  42.611   8.208   3.718
52920W        W21325  36.306  16.271  12.097
52921W        W21326  24.654  20.143  11.564
52922W        W21327  42.245  33.120   1.694
52923W        W21328   5.427  11.777   0.501
52924W        W21329   7.292  20.715   0.009
52925W        W21330  25.773  36.879   1.770
52926W        W21331   0.504  10.261  14.799
52927W        W21332  24.977  26.085  13.705
52928W        W21333  12.815  40.897  10.741
52929W        W21334   3.709  10.406  14.428
52930W        W21335  21.603   0.142  14.257
52931W        W21336  14.836   3.286  11.998
52932W        W21337  15.629  30.101   2.816
52933W        W21338  35.342  16.988   3.696
52934W        W21339  37.085  20.160   0.464
52935W        W21340  23.675  38.346  11.655
52936W        W21341  43.376   3.156   3.795
52937W        W21342  13.288  36.306  13.512
52938W        W21343  16.707  17.727  14.746
52939W        W21344   5.445  13.202   1.650
52940W        W21345  30.913   7.691  13.954
52941W        W21346  16.255  29.414   2.765
52942W        W21347  14.724  35.005   2.062
52943W        W21348  22.180  23.740   2.742
52944W        W21349  18.121  20.917  13.987
52945W        W21350  36.076   5.999  13.439
52946W        W21351  39.105  22.242   3.536
52947W        W21352  26.741  37.240  14.761
52948W        W21353  12.158   1.442   3.736
52949W        W21354   1.668  33.241  13.513
52950W        W21355  40.083   8.107  14.019
52951W        W21356  29.541  43.552   3.215
52952W        W21357  21.568  25.869   2.368
52953W        W21358  39.790  25.006   3.457
52954W        W21359  20.774  10.393   3.810
52955W        W21360   1.612  44.810  13.524
52956W        W21361  27.549  36.693  10.721
52957W        W21362  35.916  33.851   1.258
52958W        W21363   3.397  33.371  13.002
52959W        W21364  10.772  11.664  13.764
52960W        W21365   8.716  34.518   3.775
52961W        W21366   5.710  29.401   2.819
52962W        W21367  10.743   9.194   0.452
52963W        W21368  35.161   4.877  14.551
52964W        W21369  44.490  35.605  10.691
52965W        W21370  24.003   6.180  14.777
52966W        W21371  23.039  41.846   1.841
52967W        W21372   6.127  43.755  11.121
52968W        W21373  37.958  35.145  13.870
52969W        W21374  32.673  26.068  11.882
52970W        W21375  37.928  40.351  11.986
52971W        W21376   3.803  37.626   3.433
52972W        W21377  31.467  22.601   2.125
52973W        W21378  38.650   7.930   9.956
52974W        W21379  11.176   4.272   3.242
52975W        W21380  40.608  18.623  13.014
52976W        W21381  32.462  27.071  12.066
52977W        W21382  15.546  11.042   1.771
52978W        W21383   6.216  10.042  14.057
52979W        W21384  43.886  15.785   3.170
52980W        W21385  34.460   4.268  12.480
52981W        W21386  14.207  44.202  12.629
52982W        W21387   4.856  20.044   3.057
52983W        W21388   4.261  30.471  12.277
52984W        W21389  13.049  21.967   3.601
52985W        W21390  19.203   3.391  11.630
52986W        W21391  33.472  12.048   4.101
52987W        W21392  24.889  24.372   0.241
52988W        W21393  27.147  33.109  12.900
52989W        W21394   5.835  32.923  12.874
52990W        W21395   5.296   8.002  14.028
52991W        W21396  39.424  27.577  12.930
52992W        W21397  37.006  42.286  12.579
52993W        W21398  20.516   3.706   4.312
52994W        W21399  38.701  26.672   3.534
52995W        W21400  39.871   6.478  14.293
52996W        W21401  30.958   0.616   5.204
52997W        W21402  18.863  44.379   0.228
52998W        W21403  32.164   3.025  14.532
52999W        W21404  11.332   8.392   2.706
53000W        W21405  42.052  40.173   3.006
53001W        W21406   4.868  18.020   3.947
53002W        W21407   4.307  36.999  12.046
53003W        W21408  44.023  16.467  14.286
53004W        W21409  26.114  34.035   1.451
53005W        W21410  18.025  27.950   1.106
53006W        W21411  28.075  36.656  10.826
53007W        W21412   8.906  42.995  13.118
53008W        W21413   1.325  35.711  14.804
53009W        W21414  33.137  26.604   2.347
53010W        W21415   0.324  11.324  11.978
53011W        W21416  33.450  29.661   1.509
53012W        W21417  22.968   0.789   2.375
53013W        W21418  38.554  29.493   1.311
53014W        W21419   6.902  35.583  12.055
53015W        W21420  33.004  29.703   1.222
53016W        W21421  29.042  38.580   4.828
53017W        W21422  12.395  28.458  14.474
53018W        W21423  26.630  14.639  14.939
53019W        W21424  19.920  23.011   1.195
53020W        W21425  31.881  23.696   3.518
53021W        W21426   2.797  40.820  12.910
53022W        W21427  20.321  42.894   3.215
53023W        W21428  16.217  14.677  11.915
53024W        W21429  16.289   1.417   0.717
53025W        W21430  12.952  43.230  11.129
53026W        W21431  27.010  41.366   0.674
53027W        W21432  30.015   4.036   0.024
53028W        W21433  15.596  19.702   1.794
53029W        W21434  29.174  30.609  14.929
53030W        W21435  15.657  31.636   1.214
53031W        W21436  34.807  44.404  11.055
53032W        W21437  21.230   7.658   3.664
53033W        W21438  31.888   1.844   3.282
53034W        W21439  11.102  20.549   0.963
53035W        W21440  33.731   0.777  10.253
53036W        W21441  27.561  30.147   4.767
53037W        W21442   9.131  19.800  12.037
53038W        W21443  28.213  13.214   2.212
53039W        W21444  26.264  30.186   1.964
53040W        W21445  28.679  11.211  14.448
53041W        W21446  43.884  34.068   1.930
53042W        W21447  32.651  31.507  11.986
53043W        W21448  42.966  36.088  12.704
53044W        W21449   4.694   7.478  12.073
53045W        W21450   0.227  31.192  12.042
53046W        W21451  29.734  43.868   1.654
53047W        W21452  25.513  44.045  13.891
53048W        W21453  32.072   2.688  14.936
53049W        W21454  25.033  37.727   4.128
53050W        W21455  30.473   5.216  14.879
53051W        W21456   0.804  27.025   2.980
53052W        W21457  28.933   7.367  12.033
53053W        W21458   8.277  22.467   4.818
53054W        W21459   4.851  20.514   1.736
53055W        W21460  40.558  30.167   3.097
53056W        W21461   6.147  40.359  13.333
53057W        W21462  12.892  13.549   4.586
53058W        W21463  32.178  36.947  11.216
53059W        W21464  37.070  25.598   3.866
53060W        W21465   5.883  39.745  12.334
53061W        W21466  39.172   5.711   0.006
53062W        W21467  13.819  11.563   1.425
53063W        W21468  42.659  38.920   3.845
53064W        W21469  22.723  27.099   2.602
53065W        W21470  43.961  14.821  11.214
53066W        W21471  39.884   4.117   1.311
53067W        W21472  30.426  29.509  13.741
53068W        W21473  42.326   4.249   2.760
53069W        W21474  24.839   7.809   2.672
53070W        W21475  27.925  18.852  12.465
53071W        W21476  14.600   6.366   1.727
53072W        W21477  24.946   3.774   0.339
53073W        W21478   0.773   5.214   4.506
53074W        W21479   6.837   6.746   1.774
53075W        W21480  18.239  31.909  12.104
53076W        W21481   1.850  11.706   3.089
53077W        W21482  12.798  18.594  10.562
53078W        W21483  18.654  44.457  13.356
53079W        W21484   6.882  10.697   3.720
53080W        W21485  16.819  22.460   4.937
53081W        W21486  32.554   6.357   0.347
53082W        W21487   4.857   8.292   0.368
53083W        W21488   8.582  38.939  13.925
53084W        W21489  12.666  16.179   0.839
53085W        W21490  26.108  12.113  11.868
53086W        W21491  10.393  34.367  13.375
53087W        W21492  21.486  14.044   4.503
53088W        W21493  27.841   1.000   0.467
53089W        W21494   0.690  42.985   3.740
53090W        W21495  32.509  35.038   3.147
53091W        W21496  23.016  16.676   2.771
53092W        W21497   7.776  21.084   3.147
53093W        W21498  43.817  43.224  12.023
53094W        W21499  20.126  14.656   3.419
53095W        W21500  14.181  28.429   0.399
53096W        W21501  31.585   7.700   2.340
53097W        W21502  43.653  15.350   3.918
53098W        W21503  21.783  16.180   4.769
53099W        W21504  24.193  17.615  10.517
53100W        W21505  19.197  13.433   1.952
53101W        W21506  28.684  42.954   1.785
53102W        W21507  21.870  38.954   1.571
53103W        W21508  15.132   6.722  11.550
53104W        W21509  28.423  43.863  14.447
53105W        W21510  12.962  42.164  14.745
53106W        W21511  33.116  28.345  13.685
53107W        W21512  38.436  32.764   2.342
53108W        W21513  13.037  10.211   1.298
53109W        W21514  11.834  12.555   0.745
53110W        W21515  16.680   9.105  11.454
53111W        W21516   5.995  38.976   3.179
53112W        W21517   7.717  19.204   4.548
53113W        W21518  15.327   5.611   0.902
53114W        W21519  24.717   3.321  10.983
53115W        W21520   2.941  23.253  12.603
53116W        W21521  18.339   9.878   1.525
53117W        W21522  22.100  13.350  10.549
53118W        W21523  16.013   5.333  10.313
53119W        W21524  40.610  19.133  12.407
53120W        W21525  24.548  14.360  12.499
53121W        W21526  38.368  12.484  14.490
53122W        W21527  31.530  34.500  12.046
53123W        W21528  23.267   9.143  14.346
53124W        W21529  41.039  24.130   1.895
53125W        W21530  16.310  31.159  10.444
53126W        W21531  24.036  18.555   0.774
53127W        W21532  41.502  21.204   0.258
53128W        W21533   7.258  33.373   0.499
53129W        W21534  22.809  33.040   0.387
53130W        W21535  39.797  39.763   0.459
53131W        W21536  12.928  23.689  13.968
53132W        W21537   1.320  37.273   0.500
53133W        W21538   0.760  22.220  14.325
53134W        W21539   5.321  20.325   1.884
53135W        W21540   1.770  36.313  11.184
53136W        W21541  41.616  32.035   4.060
53137W        W21542   2.691  20.247   4.630
53138W        W21543   9.981  20.236   0.270
53139W        W21544   6.109  18.375   0.875
53140W        W21545  20.574  31.894  13.418
53141W        W21546   6.423  40.131  14.918
53142W        W21547  12.816  31.634   4.523
53143W        W21548   9.927  18.559   4.004
53144W        W21549  21.726  41.815   4.322
53145W        W21550  36.364   7.117   1.822
53146W        W21551  36.025  38.078   4.438
53147W        W21552  20.751   5.896  11.911
53148W        W21553  35.433  34.942  14.427
53149W        W21554  39.203   8.920   4.597
53150W        W21555  13.665  24.658   1.550
53151W        W21556  19.609  35.039  13.760
53152W        W21557   0.364  30.960  13.491
53153W        W21558   7.413  13.899  12.886
53154W        W21559   2.334  18.526   1.137
53155W        W21560  41.265   8.597  10.799
53156W        W21561  11.651   1.231  12.642
53157W        W21562  19.718  11.873  12.686
53158W        W21563  14.776   1.400  12.043
53159W        W21564  27.531   3.095   3.115
53160W        W21565  23.709  18.936  11.303
53161W        W21566  22.473  29.459   3.670
53162W        W21567  26.696  42.699  13.851
53163W        W21568  22.043  12.070  11.051
53164W        W21569  30.766   1.143  12.989
53165W        W21570   2.961   5.399   4.709
53166W        W21571  22.257  44.990   3.699
53167W        W21572   6.164   0.938   4.519
53168W        W21573  44.353  43.745  13.681
53169W        W21574  41.416  27.608  13.971
53170W        W21575  37.955  12.050   1.344
53171W        W21576  23.397   8.197   4.687
53172W        W21577  19.184  36.375   4.919
53173W        W21578  24.160  38.263   2.862
53174W        W21579  24.753  16.222  12.012
53175W        W21580  38.601  44.502   0.384
53176W        W21581  18.823  43.333  12.041
53177W        W21582  12.104   6.896   4.537
53178W        W21583   4.966  23.654  14.909
53179W        W21584  16.497  14.805   2.719
53180W        W21585   5.488  17.585  14.938
53181W        W21586   9.846  34.159  13.534
53182W        W21587   5.411   4.175   3.689
53183W        W21588  20.252  20.097  13.274
53184W        W21589  35.281  35.333  13.268
53185W        W21590  40.451  16.178   2.892
53186W        W21591  28.551  23.246  11.667
53187W        W21592  15.449  31.999   4.197
53188W        W21593  29.327  36.909   1.433
53189W        W21594   8.104  33.945  13.885
53190W        W21595   0.318  28.944   1.812
53191W        W21596  15.619  30.867  13.255
53192W        W21597  14.298  44.787  12.484
53193W        W21598   4.902   1.386  13.302
53194W        W21599  43.021  24.743   4.651
53195W        W21600   4.956   0.026   1.757
53196W        W21601  14.372  41.416   2.523
53197W        W21602  18.386   6.251   4.068
53198W        W21603   3.006  31.670   2.103
53199W        W21604  44.422  19.262   4.089
53200W        W21605  31.464  27.084  14.491
53201W        W21606   5.706  18.748  14.651
53202W        W21607  10.353  40.763  13.321
53203W        W21608  15.075  23.358  12.037
53204W        W21609  31.056  16.363  14.436
53205W        W21610  21.290  19.172   4.271
53206W        W21611  37.966  17.990  12.397
53207W        W21612   1.955   5.705   1.901
53208W        W21613   6.433   7.665  12.566
53209W        W21614  40.718  36.091   1.983
53210W        W21615  44.409   6.928  10.889
53211W        W21616  13.843  30.453   1.977
53212W        W21617  43.337  22.125   1.190
53213W        W21618  36.602  17.611   0.268
53214W        W21619   2.478  33.064   0.396
53215W        W21620  15.023  40.691   0.505
53216W        W21621  37.612  16.773  11.128
53217W        W21622  31.728  27.156   4.189
53218W        W21623   1.187   4.367  13.462
53219W        W21624   4.721  34.305  11.198
53220W        W21625   8.763  27.229   1.317
53221W        W21626   2.277   4.338  11.388
53222W        W21627  37.601  20.194  12.743
53223W        W21628  41.392   9.033  11.088
53224W        W21629  33.467  14.383  11.602
53225W        W21630  18.005   2.884   2.625
53226W        W21631  32.912  36.177   3.844
53227W        W21632   3.853   1.721  11.587
53228W        W21633  19.753  29.876  14.212
53229W        W21634   6.288  39.856  14.034
53230W        W21635  33.655   6.368   0.465
53231W        W21636  29.487  31.032  14.847
53232W        W21637  22.439   0.043   0.278
53233W        W21638  29.466  41.576  11.523
53234W        W21639  40.541  38.311   3.442
53235W        W21640  35.067  44.345   4.021
53236W        W21641   7.741  37.577   1.562
53237W        W21642  43.992  31.033   0.014
53238W        W21643  19.599  34.718   4.167
53239W        W21644  23.945  42.995   0.772
53240W        W21645  32.949  18.039  13.876
53241W        W21646  29.365  18.480   1.026
53242W        W21647  41.491   3.053   3.794
53243W        W21648  43.698  33.872  12.822
53244W        W21649  19.667  44.345  13.469
53245W        W21650  30.421  20.104   5.195
53246W        W21651  16.199  39.201  13.837
53247W        W21652   7.994  31.654   4.172
53248W        W21653  13.518   7.317   4.645
53249W        W21654  39.410  16.069   4.216
53250W        W21655   7.844   1.217  11.656
53251W        W21656  25.589  15.339  14.487
53252W        W21657  11.625   6.745  13.801
53253W        W21658  17.568  28.130  12.012
53254W        W21659  30.646  12.705  10.730
53255W        W21660  24.355  19.851  14.005
53256W        W21661  34.698  11.148  10.733
53257W        W21662  42.925  40.514  12.083
53258W        W21663  25.265  40.327   5.008
53259W        W21664  34.747   7.084   2.887
53260W        W21665  23.815  36.769  11.061
53261W        W21666   2.711  21.250   2.806
53262W        W21667  35.404  23.778   3.667
53263W        W21668  20.432  41.990   1.929
53264W        W21669  44.127   6.624   4.978
53265W        W21670  42.435   5.154  14.986
53266W        W21671  44.814  43.670  14.919
53267W        W21672  33.046  31.605  12.974
53268W        W21673  24.526  25.261   1.330
53269W        W21674  41.431   8.720   4.868
53270W        W21675  33.680  17.748   1.051
53271W        W21676  35.521  23.289   1.963
53272W        W21677  31.462  33.401   4.147
53273W        W21678   0.117  31.501   1.966
53274W        W21679  40.458   5.794  14.971
53275W        W21680  18.771  13.362  10.928
53276W        W21681  27.888   8.404   3.834
53277W        W21682  32.550  20.191  13.847
53278W        W21683  44.465  32.152  13.100
53279W        W21684   0.355  15.386  13.067
53280W        W21685  27.981   7.337   3.325
53281W        W21686  27.114  40.925   0.930
53282W        W21687  15.389  35.821   2.229
53283W        W21688  19.300  30.191   1.840
53284W        W21689  40.396  10.538  10.534
53285W        W21690  28.698  16.088   9.467
53286W        W21691  24.257   6.339   0.195
53287W        W21692   0.762  35.645  11.879
53288W        W21693   0.605  22.723  12.556
53289W        W21694  41.855  22.556   2.138
53290W        W21695  38.013  11.146  13.105
53291W        W21696  16.403  14.283  14.293
53292W        W21697   7.599  11.910   0.274
53293W        W21698  31.947   8.278   4.742
53294W        W21699  26.091  27.082   2.180
53295W        W21700  17.264   6.400   2.213
53296W        W21701   3.851  26.175  12.160
53297W        W21702  16.092  38.998   1.915
53298W        W21703  40.535   3.125   1.598
53299W        W21704  24.007  32.125   0.369
53300W        W21705  22.004  12.677  12.008
53301W        W21706   9.298  44.941   1.446
53302W        W21707  36.215  30.659   0.016
53303W        W21708   6.907  30.468   3.157
53304W        W21709   0.215  28.149   4.319
53305W        W21710  10.759  44.721  13.739
53306W        W21711  19.661  35.470  11.540
53307W        W21712  23.304  32.883   0.489
53308W        W21713  44.298  37.736   1.267
53309W        W21714  14.378  26.551   4.969
53310W        W21715  24.150   1.884  14.885
53311W        W21716  44.786  27.987   1.831
53312W        W21717  35.923  41.507   1.645
53313W        W21718   9.247  25.539  11.974
53314W        W21719  24.798   5.400  12.024
53315W        W21720  19.391  26.087  12.853
53316W        W21721  22.057  10.204  14.374
53317W        W21722  34.039  31.387   3.774
53318W        W21723  43.544  15.895  14.052
53319W        W21724  23.216  35.388  13.955
53320W        W21725  21.330   6.328  14.440
53321W        W21726  40.544  44.922   0.529
53322W        W21727   2.312  29.947  11.355
53323W        W21728  13.750  39.826  11.410
53324W        W21729   2.353  13.858   1.814
53325W        W21730  38.320  44.637  14.917
53326W        W21731  35.782   1.985   2.634
53327W        W21732   0.312  38.468   2.193
53328W        W21733  42.421  17.660  13.424
53329W        W21734  37.446  28.103   3.616
53330W        W21735  18.471   9.564   5.058
53331W        W21736  20.147  36.682  14.447
53332W        W21737  20.209  17.210   1.398
53333W        W21738  11.018  32.729   3.833
53334W        W21739  40.333  32.887   4.382
53335W        W21740  43.262  20.321  14.050
53336W        W21741  24.008  13.071   0.244
53337W        W21742  39.456  17.014   1.183
53338W        W21743   3.341  27.939  10.562
53339W        W21744  11.383  39.156   2.801
53340W        W21745  20.877  37.062   1.108
53341W        W21746  31.546  26.030   0.496
53342W        W21747  36.186  21.516   2.748
53343W        W21748   6.584  33.515  12.532
53344W        W21749  38.720  22.138  10.751
53345W        W21750   0.808  38.995   3.319
53346W        W21751  11.824   8.212   0.824
53347W        W21752   6.978  19.488  12.552
53348W        W21753   5.230  16.578   3.839
53349W        W21754   0.430   5.725   2.157
53350W        W21755  10.438   3.413   1.685
53351W        W21756  26.447  25.632   1.268
53352W        W21757  19.370  10.341   4.164
53353W        W21758   0.722   4.622  14.787
53354W        W21759  41.305  40.922   1.014
53355W        W21760  43.129  15.808  14.384
53356W        W21761   2.271   4.368  11.915
53357W        W21762  40.397  18.657   1.794
53358W        W21763  33.466  14.187   0.910
53359W        W21764   2.401  17.684   2.112
53360W        W21765  12.791   7.163  13.767
53361W        W21766  40.489   8.311  12.395
53362W        W21767  12.768   8.881   3.536
53363W        W21768  27.573  38.561   2.686
53364W        W21769  13.327  36.066   2.136
53365W        W21770   4.493   9.885   5.115
53366W        W21771  18.214  31.051  14.963
53367W        W21772  36.010  28.018  12.038
53368W        W21773   6.461  41.804  13.864
53369W        W21774  26.303  15.180   1.023
53370W        W21775  28.072  29.936   2.298
53371W        W21776  14.266  13.626   2.146
53372W        W21777  10.190  38.435   0.911
53373W        W21778  22.779  12.795   2.794
53374W        W21779  38.245  19.013  13.267
53375W        W21780  25.263   0.031   4.695
53376W        W21781  39.281  35.928  12.071
53377W        W21782  34.979  31.661  11.957
53378W        W21783  38.472  15.045  13.901
53379W        W21784  25.462   0.465   1.855
53380W        W21785   0.075   1.455   0.350
53381W        W21786   1.439  32.068   0.821
53382W        W21787  43.902  23.127   0.370
53383W        W21788  32.562  24.475  12.584
53384W        W21789  15.718  31.873  10.267
53385W        W21790  36.721   6.891  12.821
53386W        W21791  28.405  19.941  14.697
53387W        W21792   7.702  39.023   1.393
53388W        W21793  26.198  22.248  12.057
53389W        W21794  21.819  43.895   0.677
53390W        W21795  16.125  28.845   0.605
53391W        W21796   6.525  18.484  12.999
53392W        W21797  30.718   7.586   4.927
53393W        W21798   2.445  21.992  12.500
53394W        W21799  11.443   5.481  13.646
53395W        W21800  37.890  26.994   1.843
53396W        W21801  27.522  16.759   4.189
53397W        W21802  39.589  41.140  12.997
53398W        W21803   5.254  12.325   4.267
53399W        W21804  15.631  26.730  11.659
53400W        W21805  22.071  15.602  10.394
53401W        W21806   4.680  42.993   3.769
53402W        W21807  42.228  19.345   0.444
53403W        W21808  36.467   7.346   0.708
53404W        W21809   7.102  42.076   3.194
53405W        W21810  24.371  37.854   0.135
53406W        W21811  37.419   5.432  13.164
53407W        W21812   4.626  20.694   0.747
53408W        W21813   9.887  26.759   0.819
53409W        W21814   0.855  25.602  14.292
53410W        W21815  27.632  21.801   0.313
53411W        W21816  19.211  11.501  11.073
53412W        W21817  17.822  41.773  10.996
53413W        W21818   8.449   4.139  14.316
53414W        W21819   8.858  29.162   3.270
53415W        W21820  34.643  36.544   1.920
53416W        W21821  38.530  34.102   2.671
53417W        W21822   9.299  44.039  12.479
53418W        W21823  10.213   8.444  14.253
53419W        W21824  39.513  23.543   4.631
53420W        W21825   8.329  39.182   2.526
53421W        W21826   0.743   1.879   9.939
53422W        W21827  38.452  30.993  10.931
53423W        W21828   5.374  23.156   3.222
53424W        W21829  14.277  13.590   3.138
53425W        W21830  25.465  36.858  11.631
53426W        W21831  39.068  17.223   2.790
53427W        W21832  34.025  40.453   0.952
53428W        W21833  44.011  19.653   0.987
53429W        W21834   1.347   5.390   4.594
53430W        W21835  16.017  28.706  10.643
53431W        W21836  28.476  32.917  13.317
53432W        W21837  26.454  34.435   1.367
53433W        W21838  30.878  41.369   4.511
53434W        W21839   9.587  20.199  13.362
53435W        W21840  29.894  43.856   1.164
53436W        W21841  15.147  38.246   4.201
53437W        W21842  20.023  24.504  14.315
53438W        W21843  36.280  41.755   3.397
53439W        W21844  33.498  26.730  14.250
53440W        W21845   6.635   2.142  11.860
53441W        W21846   0.212  11.178  14.912
53442W        W21847  19.709  29.344   1.944
53443W        W21848  35.017   6.663  12.370
53444W        W21849  14.044   2.487   4.077
53445W        W21850  40.601  39.495   2.752
53446W        W21851  16.420   5.777   4.306
53447W        W21852  17.961  19.668  13.081
53448W        W21853  24.507  36.813  14.067
53449W        W21854  28.552  13.694  11.851
53450W        W21855   4.153  22.192   3.304
53451W        W21856  30.970  25.865  13.393
53452W        W21857  13.576   0.455   1.330
53453W        W21858   3.613   3.182  14.234
53454W        W21859  25.122  18.032   4.665
53455W        W21860  11.618  44.841   2.208
53456W        W21861  31.400  15.429   2.751
53457W        W21862  19.730   3.236   4.826
53458W        W21863   3.745   5.282   3.043
53459W        W21864  22.437   1.561  14.203
53460W        W21865   0.280  36.629  12.470
53461W        W21866  42.520  28.424  14.799
53462W        W21867  36.056  11.701   1.501
53463W        W21868  10.758  34.603   3.381
53464W        W21869  38.922  27.194  13.970
53465W        W21870  42.952  35.696  14.675
53466W        W21871  35.383  10.836   1.825
53467W        W21872  20.615  22.107  12.941
53468W        W21873  18.492  12.210   0.380
53469W        W21874  24.529   9.945   3.860
53470W        W21875  25.107  35.362   1.358
53471W        W21876  20.862   9.188   0.496
53472W        W21877  10.468  35.565  14.233
53473W        W21878  43.670  15.518  13.359
53474W        W21879  23.018  14.523  13.481
53475W        W21880  26.121  25.495  13.901
53476W        W21881  18.739  16.670  14.331
53477W        W21882  15.119  29.137   2.675
53478W        W21883   3.967  33.839  12.006
53479W        W21884  30.337   3.081   0.616
53480W        W21885  35.819  29.572   0.323
53481W        W21886  26.691  27.608   0.389
53482W        W21887  44.801   7.364   3.791
53483W        W21888  25.226  41.812  12.271
53484W        W21889   8.517  26.151   3.216
53485W        W21890   0.438  35.590   1.470
53486W        W21891  11.236  20.281   3.310
53487W        W21892  25.199  21.095  11.607
53488W        W21893  38.583  15.234   2.965
53489W        W21894  16.221  26.991  11.441
53490W        W21895  40.641  23.040   4.347
53491W        W21896  35.003  10.156   0.977
53492W        W21897  14.365  44.992  14.268
53493W        W21898  29.377  15.049  14.650
53494W        W21899  13.162  27.738   1.403
53495W        W21900   9.104  14.826   3.282
53496W        W21901  35.390  32.390   2.687
53497W        W21902  27.571  22.986  12.995
53498W        W21903  26.675  19.241  14.305
53499W        W21904   9.811  11.134  10.823
53500W        W21905  25.478  38.862  13.848
53501W        W21906  33.115   7.912  14.449
53502W        W21907  16.207   4.460   4.545
53503W        W21908  33.357   4.983   4.122
53504W        W21909  36.065  23.272   3.275
53505W        W21910   2.639  42.221  12.635
53506W        W21911  28.661  17.603  14.730
53507W        W21912  26.283   6.020  11.868
53508W        W21913   0.734  29.099  11.993
53509W        W21914   6.147  14.237   2.498
53510W        W21915  31.279  41.340   4.868
53511W        W21916  44.329  25.531   4.663
53512W        W21917   6.617  29.580  11.478
53513W        W21918  19.643  10.515  14.904
53514W        W21919  14.523  28.058  12.144
53515W        W21920   5.410  34.551   1.263
53516W        W21921   9.503   3.410  10.688
53517W        W21922   7.681  26.087  13.814
53518W        W21923  30.045  38.157   4.097
53519W        W21924  11.905   7.927   1.819
53520W        W21925   6.862  11.287  14.002
53521W        W21926  20.523  10.095   1.921
53522W        W21927  42.080   1.704   1.829
53523W        W21928  39.151  38.793   1.426
53524W        W21929   9.706  33.244  13.582
53525W        W21930  27.792  15.782   4.899
53526W        W21931  36.131  39.291  11.097
53527W        W21932  40.862  11.129  14.780
53528W        W21933  39.968  10.914  13.714
53529W        W21934   9.397  31.919  12.500
53530W        W21935  12.044  39.289   0.843
53531W        W21936  32.889   9.908  11.436
53532W        W21937   4.181  14.306  14.539
53533W        W21938   8.916  21.178   4.108
53534W        W21939  38.422  23.095  10.831
53535W        W21940  14.489  41.888   4.067
53536W        W21941   3.400  13.354  11.968
53537W        W21942  16.879  32.575  11.988
53538W        W21943  20.229   7.804  12.257
53539W        W21944  18.192  19.029  13.449
53540W        W21945   8.851  27.497   9.775
53541W        W21946  36.387  25.712  12.001
53542W        W21947  18.408   8.730   0.531
53543W        W21948  15.095   8.730  12.051
53544W        W21949   6.776  30.938  12.852
53545W        W21950  12.719  26.468   2.729
53546W        W21951  38.684  41.828  14.270
53547W        W21952  22.210  23.983  13.723
53548W        W21953  27.975   2.778  10.995
53549W        W21954  35.860  11.125   2.267
53550W        W21955  40.001  21.674   2.859
53551W        W21956  30.135  19.593  12.171
53552W        W21957   2.219  12.336   4.488
53553W        W21958   7.248  10.557   2.188
53554W        W21959   2.554   3.938   2.193
53555W        W21960  15.806  37.044  11.491
53556W        W21961   0.104  36.896   2.536
53557W        W21962   2.547   4.662   0.718
53558W        W21963  41.822  17.481   0.314
53559W        W21964  11.608  19.671   3.682
53560W        W21965  22.146  34.947   2.494
53561W        W21966  39.340  34.271  11.535
53562W        W21967  10.981  19.235  13.077
53563W        W21968   6.907  27.078   2.777
53564W        W21969  38.103   7.648   3.238
53565W        W21970  12.699   3.729  10.495
53566W        W21971  16.227  21.283   1.380
53567W        W21972  27.125  28.371  12.989
53568W        W21973  25.190  21.091   0.603
53569W        W21974   6.814   0.425  10.687
53570W        W21975  35.359  14.880  11.148
53571W        W21976  27.097   0.076  14.022
53572W        W21977  10.687  44.062   4.042
53573W        W21978   8.063   1.671  14.974
53574W        W21979  26.708   8.744  14.478
53575W        W21980  44.341  19.664  11.934
53576W        W21981   7.958  20.067   0.010
53577W        W21982  12.515  40.987   0.460
53578W        W21983  44.200  41.525  12.559
53579W        W21984  10.954  35.510  14.087
53580W        W21985  25.098   3.945  10.626
53581W        W21986  29.304  13.132   2.322
53582W        W21987  38.621  36.593   3.265
53583W        W21988  25.671   5.411   4.233
53584W        W21989  23.219  33.483   1.273
53585W        W21990   0.051  25.336   4.148
53586W        W21991  34.055  35.403  12.820
53587W        W21992   2.887  14.080  12.279
53588W        W21993  42.295  35.398   2.133
53589W        W21994   9.116  23.540   9.850
53590W        W21995   4.998   0.495   0.934
53591W        W21996  44.283  26.097  14.902
53592W        W21997  28.501  14.126   0.997
53593W        W21998  11.214  17.819  14.023
53594W        W21999  27.629  38.586   2.150
53595W        W22000  38.014   8.164  14.211
53596W        W22001  17.565   5.672   2.620
53597W        W22002   8.370   0.910   2.212
53598W        W22003  41.831  30.221   0.907
53599W        W22004   4.828  23.514   4.545
53600W        W22005  24.278   0.126  14.016
53601W        W22006   7.817  20.561  13.266
53602W        W22007  21.076   6.782   1.731
53603W        W22008  44.351  32.351  12.058
53604W        W22009  38.759  19.485   9.963
53605W        W22010  34.190  35.362   3.190
53606W        W22011   1.295  39.427   0.735
53607W        W22012  16.582  35.579  14.394
53608W        W22013  43.544  32.612   1.326
53609W        W22014   8.268  42.087  11.244
53610W        W22015  22.952  31.462   2.739
53611W        W22016  12.743  33.982   2.419
53612W        W22017  17.645  19.250  14.868
53613W        W22018  40.753  31.345   3.320
53614W        W22019  25.266   8.447  14.491
53615W        W22020  38.277  23.626   2.942
53616W        W22021  19.029  38.117   2.282
53617W        W22022  23.689  37.799  14.344
53618W        W22023  18.758  39.368  13.672
53619W        W22024  40.999   6.943   0.213
53620W        W22025  20.302  24.382  10.012
53621W        W22026  22.286   9.648   3.164
53622W        W22027  28.418  13.582  11.344
53623W        W22028  26.597  33.636   4.110
53624W        W22029  18.839  25.298   1.743
53625W        W22030  44.789  38.704  12.499
53626W        W22031  19.222  38.602   3.392
53627W        W22032  41.762  34.670   2.576
53628W        W22033  32.081  12.776   0.006
53629W        W22034  19.562  35.798  12.479
53630W        W22035  10.916  15.264   3.996
53631W        W22036  15.077  14.144  14.826
53632W        W22037   7.064   3.268   3.683
53633W        W22038   0.245  13.655   3.646
53634W        W22039   2.815  40.626  10.680
53635W        W22040   6.448   3.501  14.806
53636W        W22041  34.999   3.809   4.450
53637W        W22042   0.097  42.354   2.888
53638W        W22043  15.836  17.672  14.025
53639W        W22044   9.018  17.354   3.274
53640W        W22045   4.097  44.566  14.587
53641W        W22046  37.213  32.385  13.269
53642W        W22047   7.208   0.873   0.726
53643W        W22048  12.424  40.904   4.663
53644W        W22049  38.989  28.816  11.403
53645W        W22050  14.563  20.465  11.623
53646W        W22051  44.380  37.995   1.727
53647W        W22052  21.220  18.716   1.667
53648W        W22053  22.632  11.392  10.611
53649W        W22054  21.556   4.188  10.690
53650W        W22055   3.754  42.136   0.019
53651W        W22056  26.667  40.946   0.205
53652W        W22057  10.369   1.971   2.715
53653W        W22058  19.325  28.896   4.143
53654W        W22059   3.975   4.734  11.928
53655W        W22060   8.886  20.495  13.466
53656W        W22061   3.137  31.880   0.356
53657W        W22062   8.772   4.862   0.536
53658W        W22063  42.355  39.308  12.277
53659W        W22064   2.266   0.164   2.256
53660W        W22065  23.782  42.369  12.031
53661W        W22066  23.014   5.899   0.489
53662W        W22067  10.671  34.255   2.095
53663W        W22068   9.782  25.592  14.053
53664W        W22069  10.899  14.613  10.645
53665W        W22070   3.872  41.882   4.142
53666W        W22071  27.646  15.073  12.393
53667W        W22072  33.272  41.569  12.520
53668W        W22073  12.206   5.901  11.988
53669W        W22074  10.719  15.358   2.357
53670W        W22075  44.945   2.364   4.567
53671W        W22076  40.993  20.515   3.857
53672W        W22077  39.946  37.124   3.363
53673W        W22078  20.247   3.836  11.950
53674W        W22079  20.153  22.610   4.508
53675W        W22080  15.048  30.922   3.806
53676W        W22081  28.819  31.413   4.191
53677W        W22082   3.287  42.137   3.328
53678W        W22083  18.531   3.729  10.667
53679W        W22084  25.166  25.005   3.620
53680W        W22085  32.122  43.569  13.490
53681W        W22086  35.554   5.981  13.443
53682W        W22087  15.611  31.322  13.520
53683W        W22088  40.601  30.601   2.161
53684W        W22089   9.128  27.966  11.227
53685W        W22090  25.654   8.304   0.737
53686W        W22091   2.786  28.058   3.136
53687W        W22092  33.796  44.037  13.432
53688W        W22093   8.168   7.332  11.125
53689W        W22094  40.229  44.486  13.435
53690W        W22095   4.324  28.692   1.872
53691W        W22096  16.638  36.916   4.121
53692W        W22097  10.420  16.313  14.742
53693W        W22098  35.503  28.253   4.020
53694W        W22099  18.387  40.566  13.798
53695W        W22100   2.709  34.823   3.265
53696W        W22101  32.557  11.595  13.001
53697W        W22102  44.834  26.136   2.042
53698W        W22103   7.755  42.871  11.224
53699W        W22104  24.625   2.728  11.665
53700W        W22105  20.496  40.080  13.168
53701W        W22106  16.102   9.932  13.615
53702W        W22107  19.054  38.984   3.698
53703W        W22108  35.433  21.411  10.746
53704W        W22109  38.123   3.524  12.626
53705W        W22110  19.279   8.862  14.318
53706W        W22111  18.242  37.195   2.165
53707W        W22112   1.544   4.580  13.149
53708W        W22113   8.268  32.589  11.992
53709W        W22114  35.427  43.717  14.946
53710W        W22115  17.580  24.508  12.508
53711W        W22116  14.866   8.097   0.487
53712W        W22117  10.761   1.224  12.169
53713W        W22118  23.201  27.810  10.258
53714W        W22119  28.459   6.793  11.427
53715W        W22120  12.280  17.311   0.974
53716W        W22121  11.236   1.095  12.343
53717W        W22122  14.165  32.971   4.221
53718W        W22123   8.111  26.668   3.644
53719W        W22124   9.832  13.459   2.221
53720W        W22125   6.778  41.284   1.336
53721W        W22126  43.635  25.328   0.900
53722W        W22127   3.279  11.173  14.061
53723W        W22128   0.711  26.991  12.650
53724W        W22129   4.373  36.580  12.990
53725W        W22130  31.019  31.230  13.418
53726W        W22131  33.184  34.927   2.295
53727W        W22132   9.209  31.879  11.169
53728W        W22133  40.537  18.616   0.434
53729W        W22134  40.461  17.119   0.090
53730W        W22135  30.418  16.126  10.961
53731W        W22136  17.498  20.863   5.471
53732W        W22137  15.626  31.114   2.387
53733W        W22138  15.708  16.227   0.927
53734W        W22139  40.951   2.390   4.085
53735W        W22140  26.654  29.902   4.872
53736W        W22141  10.141   0.179   2.332
53737W        W22142  20.571  29.723   1.490
53738W        W22143  44.661   2.708   1.502
53739W        W22144  19.260  37.849  11.741
53740W        W22145  29.485  19.759   0.290
53741W        W22146  13.692   6.888   0.990
53742W        W22147  20.600  14.686   3.715
53743W        W22148   9.221  22.698   2.368
53744W        W22149  19.637  22.064  13.253
53745W        W22150  22.948  17.724   3.415
53746W        W22151  15.177  21.026  14.296
53747W        W22152  39.852   7.438   0.870
53748W        W22153  24.100  40.867   3.042
53749W        W22154   1.917  14.820  14.145
53750W        W22155  21.806   3.581   1.783
53751W        W22156  16.484   7.822  11.707
53752W        W22157   4.193  15.553  13.369
53753W        W22158  17.071  21.743   2.282
53754W        W22159  23.642  23.424   1.539
53755W        W22160  23.713  38.113  10.889
53756W        W22161  25.198  33.190  12.970
53757W        W22162  35.610   7.408  13.907
53758W        W22163   8.376   9.642   1.437
53759W        W22164  25.200  43.188   1.147
53760W        W22165   4.650  35.958  13.489
53761W        W22166  10.215  40.594   0.318
53762W        W22167   2.936  42.832  10.888
53763W        W22168  16.724  24.748   3.800
53764W        W22169  24.853  17.723   0.277
53765W        W22170   7.451  23.491   4.151
53766W        W22171   2.263  40.330  12.357
53767W        W22172   2.722  39.308  11.195
53768W        W22173  39.816  12.270   0.306
53769W        W22174  32.682  37.024  11.173
53770W        W22175  38.585  27.698   2.679
53771W        W22176  13.823  38.971   2.803
53772W        W22177  26.430  24.095   3.931
53773W        W22178  43.438  31.720  10.561
53774W        W22179  40.584  25.660  11.694
53775W        W22180  38.123  34.890  11.675
53776W        W22181  22.745  31.729  13.963
53777W        W22182  36.899  15.256   0.402
53778W        W22183  17.542   1.404  12.034
53779W        W22184   8.787  16.862  14.876
53780W        W22185  12.451   8.487  12.003
53781W        W22186  23.748   2.379  13.022
53782W        W22187  24.815   8.324   0.358
53783W        W22188  15.073   9.083  13.468
53784W        W22189   7.878  14.095  10.292
53785W        W22190   0.198  26.188   2.799
53786W        W22191  15.088  20.215   0.273
53787W        W22192  19.371  29.690  12.431
53788W        W22193  14.924   8.646  13.985
53789W        W22194   6.627  23.006  14.064
53790W        W22195   4.662  15.600   3.093
53791W        W22196  25.317   4.742   5.016
53792W        W22197   8.284  28.896  13.065
53793W        W22198   2.176  26.533   2.855
53794W        W22199   2.753   5.466   0.579
53795W        W22200  17.028  15.135   3.208
53796W        W22201   0.808  42.946  13.035
53797W        W22202  10.978  18.798   3.364
53798W        W22203  35.586  40.889   4.227
53799W        W22204   5.669  15.559   4.321
53800W        W22205  30.102  10.092   1.295
53801W        W22206  22.026  28.392  12.389
53802W        W22207  12.183  13.227  11.203
53803W        W22208   1.380  41.483  11.555
53804W        W22209  25.942  41.802   9.913
53805W        W22210   3.785   1.740  12.435
53806W        W22211  10.677  42.483   2.687
53807W        W22212  29.960  11.862  11.539
53808W        W22213  25.304  33.493   1.692
53809W        W22214  44.444  22.179  12.569
53810W        W22215  20.082  42.339  11.614
53811W        W22216  12.788  38.913   1.767
53812W        W22217  44.314   4.286  12.995
53813W        W22218  35.467  27.893   3.637
53814W        W22219   3.959  34.034  13.028
53815W        W22220  35.169  36.928  12.013
53816W        W22221  32.165  42.249  14.513
53817W        W22222   8.769   0.051   2.220
53818W        W22223  39.931  34.667   4.364
53819W        W22224  18.805  40.787   2.008
53820W        W22225  33.782  41.456   2.894
53821W        W22226  20.275  36.581  14.979
53822W        W22227  31.046  30.710  13.878
53823W        W22228  21.666   2.969  13.337
53824W        W22229  43.761  39.252   3.271
53825W        W22230  42.674  22.100   0.611
53826W        W22231  40.767  18.975   2.666
53827W        W22232  34.553  13.496   4.145
53828W        W22233   6.713  16.081   5.017
53829W        W22234  33.039  39.402   3.048
53830W        W22235  25.465  41.827   1.892
53831W        W22236   8.970  22.679  10.366
53832W        W22237  11.354   6.638   4.080
53833W        W22238  24.537  29.304   4.133
53834W        W22239  38.499  24.575  11.027
53835W        W22240  37.979  42.604   1.879
53836W        W22241  13.628  10.404  10.711
53837W        W22242   6.736  38.598  12.005
53838W        W22243  25.431  32.734  14.491
53839W        W22244  18.871  17.080   2.891
53840W        W22245  19.002  36.737  11.200
53841W        W22246  14.243  37.407   4.562
53842W        W22247   4.755   8.592   4.918
53843W        W22248  41.181  21.670   3.291
53844W        W22249  29.413  30.628  13.524
53845W        W22250  44.521  35.848  11.134
53846W        W22251  11.462  16.487   1.476
53847W        W22252   4.276   9.027   3.727
53848W        W22253   1.019  23.739  13.420
53849W        W22254  25.227  12.079   4.297
53850W        W22255  41.928  36.132  13.415
53851W        W22256   6.402  19.745   1.964
53852W        W22257  15.983  21.431  11.100
53853W        W22258  23.353   3.443  14.724
53854W        W22259   8.100  41.800   3.351
53855W        W22260  43.313   7.071   0.103
53856W        W22261  19.150  12.536  11.092
53857W        W22262  36.055  40.071  11.727
53858W        W22263   4.856  33.536   1.265
53859W        W22264  14.866  37.957  11.650
53860W        W22265  30.431   5.051   2.797
53861W        W22266  19.628  13.823   1.365
53862W        W22267  21.187  29.435   4.502
53863W        W22268  27.116  36.993  11.544
53864W        W22269  13.794   1.470  13.983
53865W        W22270  12.306  23.637   4.205
53866W        W22271  30.704  16.647   5.481
53867W        W22272  40.396   0.032  10.638
53868W        W22273  41.914  16.690  14.649
53869W        W22274  17.767  40.908  13.792
53870W        W22275  37.799  22.236  12.997
53871W        W22276  20.718  38.095   0.332
53872W        W22277  27.073  23.202  10.398
53873W        W22278  18.676   4.897   4.455
53874W        W22279  23.248  38.973   4.067
53875W        W22280  26.403   4.797   2.583
53876W        W22281  11.695  13.841  14.359
53877W        W22282   9.941  24.114  12.979
53878W        W22283  33.625  14.622  13.797
53879W        W22284   3.535  41.489   4.102
53880W        W22285  42.060  41.076   4.297
53881W        W22286  20.289  12.843  14.470
53882W        W22287  33.002  29.221  14.571
53883W        W22288  38.038  21.702  12.042
53884W        W22289  27.358  17.798   0.337
53885W        W22290  25.142  26.461   3.662
53886W        W22291  44.521   6.698  13.278
53887W        W22292  21.135  12.224  14.581
53888W        W22293  31.051   8.373  10.325
53889W        W22294  38.035  36.472  10.879
53890W        W22295   9.391  32.976   2.247
53891W        W22296   4.762  31.022  13.914
53892W        W22297  12.161  27.928   3.391
53893W        W22298  43.662  27.241  10.864
53894W        W22299   1.802   4.032   3.676
53895W        W22300  12.662   7.399   4.082
53896W        W22301  44.444  40.316   2.004
53897W        W22302  33.958  20.660   1.171
53898W        W22303  25.447   6.825  14.525
53899W        W22304  16.836  44.192  13.499
53900W        W22305  17.520  12.086  11.008
53901W        W22306  25.528  16.289  13.485
53902W        W22307   7.250  34.744  13.035
53903W        W22308   8.190   4.599  12.019
53904W        W22309  42.749  26.325   3.373
53905W        W22310   3.802  39.455  13.520
53906W        W22311  34.236   4.254   1.374
53907W        W22312  38.021  13.883  12.913
53908W        W22313  28.136   9.881  11.528
53909W        W22314  28.081  19.102   0.704
53910W        W22315  10.036  43.136  11.183
53911W        W22316  30.184  33.841  11.171
53912W        W22317  40.702  14.799   3.781
53913W        W22318  19.311  19.113  13.764
53914W        W22319  24.777  25.994   0.797
53915W        W22320  18.817  35.264   1.229
53916W        W22321  16.723   3.282  14.995
53917W        W22322  32.404  24.630  14.828
53918W        W22323  19.663   0.403  13.086
53919W        W22324   6.867  26.434   4.148
53920W        W22325   1.738   0.037  14.845
53921W        W22326  22.124  11.080   0.404
53922W        W22327   8.427  18.332  13.818
53923W        W22328  29.611  39.336  10.860
53924W        W22329  15.200  17.650   2.236
53925W        W22330  41.295   0.910  10.662
53926W        W22331  42.778  25.978  11.849
53927W        W22332  24.516  22.596   2.361
53928W        W22333  41.394  31.261  12.655
53929W        W22334  29.523  33.150  10.870
53930W        W22335  20.625   7.413   2.088
53931W        W22336  42.707   8.916  10.762
53932W        W22337  22.732  44.914   4.619
53933W        W22338   7.843  43.170   3.675
53934W        W22339  26.012  37.470  11.117
53935W        W22340  21.337  34.885   0.735
53936W        W22341  27.442  30.502  13.080
53937W        W22342  36.553  44.745   0.796
53938W        W22343  27.310  24.691  13.962
53939W        W22344  16.119  37.631  12.463
53940W        W22345  41.040  20.825  14.295
53941W        W22346  29.096   6.813  12.824
53942W        W22347  32.423  13.216   0.493
53943W        W22348   5.508  30.166   3.813
53944W        W22349  16.268  16.034  13.951
53945W        W22350  33.492  41.541   4.816
53946W        W22351  36.893   8.739   1.788
53947W        W22352  18.892  28.576   4.048
53948W        W22353  26.968  28.723   3.784
53949W        W22354  37.114  20.010  12.665
53950W        W22355  41.223  12.886   2.507
53951W        W22356   3.504  26.743   3.356
53952W        W22357  17.208  25.332   0.580
53953W        W22358  38.358  28.124   3.463
53954W        W22359  28.216   8.276   2.416
53955W        W22360   4.459  11.789  12.543
53956W        W22361  16.144  42.925   4.461
53957W        W22362  28.674  44.400  12.475
53958W        W22363  42.335  41.988  11.678
53959W        W22364  29.051  22.225  14.536
53960W        W22365  37.034  41.649  10.065
53961W        W22366  41.839   1.495   2.259
53962W        W22367  26.827  31.726  14.287
53963W        W22368   2.849  33.313  14.887
53964W        W22369  34.538  30.975   2.565
53965W        W22370  40.937  39.945  10.768
53966W        W22371   1.989  40.793  14.997
53967W        W22372  22.541  20.980  12.865
53968W        W22373  28.874  11.327  13.979
53969W        W22374  32.928   6.933  14.333
53970W        W22375  25.791  26.353   0.416
53971W        W22376  30.101  17.022  13.829
53972W        W22377  16.288   8.452   1.869
53973W        W22378  10.609  11.749   2.926
53974W        W22379   3.955   6.025   1.424
53975W        W22380  16.232  15.109  10.678
53976W        W22381  18.071  42.339   1.201
53977W        W22382  37.339   3.297   3.094
53978W        W22383  19.161  33.077  14.569
53979W        W22384  34.337  16.031  11.669
53980W        W22385   1.127  28.229   5.031
53981W        W22386  16.080  23.549   0.867
53982W        W22387  19.741  34.427   2.819
53983W        W22388  32.425  19.054   2.215
53984W        W22389  12.036   4.674   1.238
53985W        W22390  19.676  14.299  13.486
53986W        W22391  35.669  21.625   2.755
53987W        W22392  44.492  15.722   1.954
53988W        W22393  26.063   7.162   0.337
53989W        W22394   2.311  27.342  13.829
53990W        W22395   0.444  18.599   0.008
53991W        W22396  18.832  11.368   3.748
53992W        W22397  43.351  21.497  11.087
53993W        W22398  40.102  13.405  11.201
53994W        W22399  35.495   1.926   0.845
53995W        W22400  38.832   9.191   1.227
53996W        W22401   8.973   0.279  10.534
53997W        W22402  38.948   6.769   4.600
53998W        W22403  24.446  26.365   0.929
53999W        W22404  25.636   7.604   4.502
54000W        W22405   8.345  28.498  13.404
54001W        W22406   2.775  20.282   0.853
54002W        W22407  34.897  28.221   1.739
54003W        W22408  28.294  30.564  12.532
54004W        W22409   7.707  15.767   2.734
54005W        W22410   2.981   5.192   4.229
54006W        W22411  10.599  44.817   4.581
54007W        W22412   5.771   6.704   0.796
54008W        W22413  26.639  13.846  11.647
54009W        W22414   7.844  34.713   2.353
54010W        W22415  41.049   4.931   0.057
54011W        W22416  15.712  33.667   1.541
54012W        W22417   5.791  25.174   3.581
54013W        W22418  18.319  41.964   3.343
54014W        W22419  18.998   3.266   1.720
54015W        W22420  12.555   2.969  11.966
54016W        W22421   7.822   8.056   4.178
54017W        W22422  26.411   6.032   2.717
54018W        W22423   9.947  20.753   0.341
54019W        W22424  44.789   6.791  12.011
54020W        W22425  36.098  41.521  13.433
54021W        W22426  21.030   2.145  12.847
54022W        W22427   1.515  38.866  11.697
54023W        W22428  14.147   3.104   3.487
54024W        W22429  25.533  16.026   3.829
54025W        W22430  19.688   9.694   4.493
54026W        W22431  16.187  36.351   0.313
54027W        W22432  28.124  11.538  12.454
54028W        W22433   4.827   3.961  13.133
54029W        W22434  11.164  14.898   0.318
54030W        W22435  12.774  19.172  14.205
54031W        W22436  42.117  39.302   1.263
54032W        W22437  35.440   9.804   1.745
54033W        W22438   0.789   1.238   0.867
54034W        W22439  39.829  20.589  14.783
54035W        W22440  35.563  13.159  11.662
54036W        W22441  14.105  43.476  13.039
54037W        W22442  13.203  37.268  12.071
54038W        W22443  30.747  29.078   2.384
54039W        W22444  11.135  29.521   3.132
54040W        W22445  29.606  42.459  14.296
54041W        W22446  33.563  17.254  14.987
54042W        W22447  21.585  15.707  10.733
54043W        W22448  33.075  43.030  11.050
54044W        W22449  10.650  24.098   0.814
54045W        W22450   6.172   3.116   4.908
54046W        W22451  32.808   9.081  14.834
54047W        W22452   7.153  18.982   2.346
54048W        W22453   6.678   2.397  10.291
54049W        W22454  26.636   2.713  12.168
54050W        W22455  11.515  29.628   1.234
54051W        W22456  17.511  15.154  14.989
54052W        W22457  39.431  44.979   1.815
54053W        W22458  15.110  39.915   4.621
54054W        W22459  23.578  30.634   1.512
54055W        W22460   0.435  35.204  14.876
54056W        W22461   3.911   1.000  12.095
54057W        W22462  34.538  21.703   0.413
54058W        W22463  20.246  14.150  10.588
54059W        W22464  44.887  33.822  14.934
54060W        W22465   1.412  37.020   3.999
54061W        W22466  35.991  18.630  11.635
54062W        W22467  11.173  33.033  11.205
54063W        W22468   2.402   4.534  12.980
54064W        W22469  40.607  43.066   5.145
54065W        W22470   2.359  31.139   4.971
54066W        W22471   6.790   1.003   1.506
54067W        W22472   6.928  33.446   3.751
54068W        W22473  44.811  30.188   2.565
54069W        W22474  27.466  41.334  12.069
54070W        W22475  16.223   0.618  10.760
54071W        W22476  22.690  39.881  14.488
54072W        W22477  27.031   2.519  12.449
54073W        W22478   7.418  36.515   0.920
54074W        W22479  32.842  24.195   0.335
54075W        W22480  40.562  19.633  14.415
54076W        W22481  16.244   1.972  14.905
54077W        W22482   9.985   4.268  11.380
54078W        W22483  11.706  44.254  10.753
54079W        W22484   8.655   3.712   4.749
54080W        W22485  29.558  18.182   0.207
54081W        W22486   2.579   3.420  11.662
54082W        W22487  17.297   6.949   2.666
54083W        W22488  30.995   3.811   1.801
54084W        W22489  34.279  35.352  14.276
54085W        W22490  14.524  42.960   0.370
54086W        W22491  32.446  44.790   2.874
54087W        W22492  10.739  20.775  12.395
54088W        W22493   3.850  20.665  13.256
54089W        W22494  13.756   1.522   2.838
54090W        W22495   1.779  15.121   0.967
54091W        W22496  19.740  20.164  11.126
54092W        W22497  27.456  23.724  11.501
54093W        W22498  35.682  22.036   4.587
54094W        W22499  18.517  28.833  12.768
54095W        W22500   9.906  17.988  12.544
54096W        W22501  32.899  13.160   0.697
54097W        W22502   4.896  39.809   2.820
54098W        W22503  11.115  15.591   1.399
54099W        W22504  19.140   9.376   0.372
54100W        W22505   5.443  13.280  11.483
54101W        W22506  31.679  15.764  14.316
54102W        W22507  23.379  14.554   3.180
54103W        W22508  36.329  39.943   1.377
54104W        W22509  27.236  40.487  13.497
54105W        W22510  23.025  37.556  14.233
54106W        W22511  37.879   3.335  14.874
54107W        W22512  41.408  11.618   2.293
54108W        W22513  36.657  40.895  13.050
54109W        W22514   2.963  22.129   4.566
54110W        W22515  21.914  27.519   0.940
54111W        W22516  32.885  10.379   3.671
54112W        W22517   3.302  18.638   4.474
54113W        W22518   3.724  26.932  14.482
54114W        W22519   5.764  32.238   0.503
54115W        W22520  29.502  42.057   2.361
54116W        W22521   6.415  35.396   1.217
54117W        W22522  43.153  21.654  14.870
54118W        W22523  23.648   2.266  12.281
54119W        W22524  42.296  16.138  10.731
54120W        W22525  10.831  10.453   1.168
54121W        W22526   4.292  13.996   3.605
54122W        W22527  34.120  35.492   4.770
54123W        W22528  38.161  13.979  12.012
54124W        W22529  26.472  11.518  13.798
54125W        W22530  44.486  44.299   0.650
54126W        W22531  18.052  21.997  11.159
54127W        W22532  26.738  25.137  13.555
54128W        W22533  19.656  18.748  12.942
54129W        W22534  16.562  35.079  10.573
54130W        W22535   3.491  36.353   2.177
54131W        W22536  36.354   3.727   0.281
54132W        W22537  39.499  34.386   4.223
54133W        W22538  33.435   7.895   4.654
54134W        W22539   8.824   0.750   4.095
54135W        W22540  10.334   8.661  13.520
54136W        W22541  25.601  39.075   1.206
54137W        W22542  23.557  14.863  12.218
54138W        W22543  38.727  37.000   5.018
54139W        W22544  42.370  15.276  14.408
54140W        W22545  24.066  43.461   0.019
54141W        W22546   6.368  24.156  10.366
54142W        W22547   6.303  34.906   1.335
54143W        W22548  22.571  16.280  12.411
54144W        W22549  33.137   4.419  14.024
54145W        W22550  38.050  20.979  11.563
54146W        W22551  14.892  20.717  12.025
54147W        W22552  21.239   2.896   4.634
54148W        W22553  13.240   9.857  12.063
54149W        W22554  41.193  19.134  11.579
54150W        W22555  27.261  36.705   3.357
54151W        W22556  33.473  30.256   5.020
54152W        W22557   8.333  43.055   3.779
54153W        W22558  18.418  21.828   0.456
54154W        W22559  28.517  31.105   2.043
54155W        W22560  32.248  27.947   4.172
54156W        W22561  43.975  29.940  11.744
54157W        W22562  14.192   1.792   3.054
54158W        W22563  26.276  33.065  14.727
54159W        W22564  41.502  35.909  13.206
54160W        W22565  22.360   9.860  10.605
54161W        W22566  41.602   8.127   0.223
54162W        W22567  37.225   6.387   0.514
54163W        W22568   9.880   2.424  12.979
54164W        W22569   7.204   3.675  14.825
54165W        W22570  14.927  29.079   3.688
54166W        W22571  13.501  32.003  14.156
54167W        W22572  20.786  39.114   0.420
54168W        W22573   6.678  11.799  14.025
54169W        W22574  12.363  37.438  12.091
54170W        W22575  19.549  11.163  13.567
54171W        W22576  29.925   9.813   2.404
54172W        W22577  17.842  11.183  13.875
54173W        W22578   2.293  11.399  14.001
54174W        W22579  20.148  11.356   1.942
54175W        W22580   2.121  30.084  11.799
54176W        W22581  44.224  42.444  12.604
54177W        W22582   3.280  22.539   3.421
54178W        W22583  26.519  23.381  14.374
54179W        W22584  16.754  41.199  11.505
54180W        W22585  23.251  34.131   0.814
54181W        W22586  31.842  38.417   1.135
54182W        W22587  12.901  30.217  14.623
54183W        W22588   9.585  38.612  10.985
54184W        W22589  32.073   1.175   5.060
54185W        W22590  31.848   2.753   3.105
54186W        W22591  36.584  39.019  13.872
54187W        W22592  43.487  26.051  10.700
54188W        W22593  23.959  39.450   2.364
54189W        W22594  14.004  14.209  11.121
54190W        W22595  11.177   5.801  12.098
54191W        W22596  16.286  23.072   9.762
54192W        W22597  28.723  38.242  10.053
54193W        W22598   1.327  32.538  11.157
54194W        W22599  18.279  42.767   3.347
54195W        W22600  18.759   7.651  12.951
54196W        W22601  14.337  30.682   3.372
54197W        W22602  14.558   8.123   1.355
54198W        W22603  14.574  11.932   1.250
54199W        W22604  12.189  34.688   3.702
54200W        W22605  11.687  15.336  11.468
54201W        W22606  36.510  11.921   3.655
54202W        W22607  40.515  32.016   3.580
54203W        W22608  31.505  42.793  12.709
54204W        W22609   4.317  10.067  10.643
54205W        W22610   5.932  32.836  10.903
54206W        W22611   0.452  35.107   4.416
54207W        W22612  25.172   0.274   0.641
54208W        W22613  18.656  38.917  11.848
54209W        W22614  15.156  18.414   2.658
54210W        W22615  16.854  36.060  12.182
54211W        W22616  33.985  33.168   3.274
54212W        W22617  38.647   1.657  11.896
54213W        W22618  38.386   8.321   1.398
54214W        W22619   7.269  39.797   0.266
54215W        W22620  40.746  38.049   1.720
54216W        W22621  34.462  44.894  13.360
54217W        W22622  20.560  27.410  12.140
54218W        W22623  38.382  34.188  10.928
54219W        W22624   9.199  29.570  11.291
54220W        W22625   3.841  38.596  12.468
54221W        W22626  20.183  14.915   1.756
54222W        W22627  28.883  21.882  13.557
54223W        W22628  19.795  22.145   2.630
54224W        W22629  40.755  44.027   2.816
54225W        W22630  11.916  30.067   4.546
54226W        W22631  33.564  12.305   3.660
54227W        W22632  19.088   8.854   0.286
54228W        W22633  41.754  21.107   2.398
54229W        W22634   4.712  25.536  14.453
54230W        W22635   8.794  15.349   0.009
54231W        W22636   9.881  42.414  12.601
54232W        W22637  11.615  32.216  12.820
54233W        W22638  20.863  17.117   1.784
54234W        W22639  42.260  16.189   3.378
54235W        W22640  41.771  16.159  10.715
54236W        W22641  42.256  17.792   1.978
54237W        W22642  37.853  11.346  14.447
54238W        W22643  16.291  25.673   1.893
54239W        W22644  23.510  41.679   3.803
54240W        W22645  43.271  23.291  11.149
54241W        W22646  32.040  40.785   4.952
54242W        W22647  22.235  19.801  10.428
54243W        W22648  21.491  20.668   4.028
54244W        W22649  18.260  21.868  13.878
54245W        W22650  15.393  24.512   4.531
54246W        W22651  38.349  34.018   1.296
54247W        W22652  31.056   0.758   4.713
54248W        W22653  32.462   2.435  13.579
54249W        W22654  25.416  24.092  11.919
54250W        W22655  44.558   3.233   4.216
54251W        W22656   7.943   1.455  14.505
54252W        W22657   7.754  17.995   3.303
54253W        W22658  19.761  42.057  10.629
54254W        W22659  35.471   3.276   0.262
54255W        W22660  19.705   8.893   0.980
54256W        W22661  43.676   9.903  13.853
54257W        W22662  44.997  36.951   3.064
54258W        W22663  24.667  43.369   2.876
54259W        W22664  19.607  44.242   3.184
54260W        W22665  32.923  32.479  13.922
54261W        W22666  27.953   2.760   3.766
54262W        W22667  39.379  32.338   2.252
54263W        W22668  37.072  40.394   3.695
54264W        W22669  32.033  38.102   4.180
54265W        W22670  21.161  32.160   2.520
54266W        W22671  34.550  34.071   2.906
54267W        W22672  27.911   6.976   0.214
54268W        W22673   6.125   3.264  13.003
54269W        W22674  35.107  19.274   2.636
54270W        W22675  27.947  16.445   4.096
54271W        W22676  42.158  32.380   4.108
54272W        W22677  41.392  33.560   0.279
54273W        W22678   6.679  16.732  13.448
54274W        W22679   3.543  35.031  13.453
54275W        W22680  35.435  25.249   4.904
54276W        W22681  28.105  24.857  11.188
54277W        W22682  29.275  14.654   2.865
54278W        W22683  42.958  39.720   2.789
54279W        W22684  13.835  41.318  14.267
54280W        W22685  43.418  16.084   3.201
54281W        W22686  32.652  13.521  10.993
54282W        W22687  24.637  41.303   1.813
54283W        W22688  36.504  40.776  10.677
54284W        W22689   2.738   5.930  13.923
54285W        W22690  27.004   6.138  13.164
54286W        W22691  39.805  41.972  14.059
54287W        W22692  15.589  19.267   0.892
54288W        W22693  34.682   4.901   0.872
54289W        W22694  12.828  28.563  13.949
54290W        W22695   8.841  31.661   4.879
54291W        W22696   8.839  33.409  12.179
54292W        W22697  15.947   1.186  14.742
54293W        W22698  30.801  18.856   4.986
54294W        W22699  12.330  39.307   2.834
54295W        W22700  29.117  24.246   3.068
54296W        W22701  36.358  32.887   0.521
54297W        W22702   3.024  19.076   0.005
54298W        W22703   7.918  41.373   2.730
54299W        W22704  10.825  35.524  11.114
54300W        W22705   2.050  44.983   1.798
54301W        W22706  26.600  15.384   1.844
54302W        W22707  36.171   1.034  14.948
54303W        W22708  28.695  43.429   3.694
54304W        W22709  41.034  36.277   3.354
54305W        W22710  14.064  44.395   4.130
54306W        W22711   2.350  30.626   2.582
54307W        W22712  10.311  26.998  13.037
54308W        W22713  15.879  16.173  14.986
54309W        W22714   5.758  13.279  13.286
54310W        W22715  20.288  19.083   4.833
54311W        W22716  33.652   8.255   3.380
54312W        W22717  37.560  11.850  13.464
54313W        W22718  25.630  32.380  11.634
54314W        W22719  33.535  34.563  14.015
54315W        W22720  44.486   2.247   4.121
54316W        W22721  40.783   7.604  11.510
54317W        W22722  19.635  21.748   0.762
54318W        W22723   1.582   5.092   3.289
54319W        W22724  43.099  34.058   3.689
54320W        W22725  11.293  17.675  13.516
54321W        W22726  21.708   5.257   3.285
54322W        W22727   6.707  34.841  14.503
54323W        W22728   1.750  24.273  14.821
54324W        W22729  20.364   8.209  12.562
54325W        W22730  30.525  31.096  10.722
54326W        W22731  33.365   6.154  14.032
54327W        W22732   8.871  43.715   2.874
54328W        W22733  22.281  35.384   3.634
54329W        W22734  34.557  37.553   1.754
54330W        W22735  13.654  44.430  10.250
54331W        W22736  19.214  36.391  14.014
54332W        W22737  41.641   6.687  13.962
54333W        W22738  24.289   5.381  12.090
54334W        W22739  29.177  22.295   0.301
54335W        W22740  43.285   8.394   0.169
54336W        W22741  28.449  44.087  11.063
54337W        W22742  37.627   7.301   1.742
54338W        W22743  25.486  31.619  13.451
54339W        W22744   6.492  10.605   3.143
54340W        W22745   6.733  14.740  14.974
54341W        W22746  35.831  22.556   2.738
54342W        W22747  38.019  37.741  10.370
54343W        W22748   5.346   5.201  10.127
54344W        W22749   3.772   6.314  13.023
54345W        W22750   2.819  36.887  14.621
54346W        W22751   2.125  42.560  10.993
54347W        W22752   8.256  44.691   3.431
54348W        W22753  18.736  20.102   4.279
54349W        W22754  14.773  11.134   2.419
54350W        W22755   2.168  37.328   1.390
54351W        W22756  26.538  40.907  14.316
54352W        W22757  10.242  22.615  12.903
54353W        W22758  42.223  34.679   4.206
54354W        W22759  43.871  15.189   0.905
54355W        W22760   6.528  36.877  12.428
54356W        W22761  34.651  15.685  10.933
54357W        W22762   2.402  14.080   0.323
54358W        W22763  14.778  28.672  11.578
54359W        W22764  16.301  22.574   2.864
54360W        W22765   7.774  43.887   4.325
54361W        W22766   6.751  34.349   3.608
54362W        W22767  24.451  13.647   2.829
54363W        W22768   3.386  15.630  14.907
54364W        W22769  42.285  13.194  13.077
54365W        W22770  13.724   1.022   4.044
54366W        W22771  37.545  40.763   1.189
54367W        W22772  38.472  32.642  11.503
54368W        W22773  14.332  31.193   3.285
54369W        W22774  25.026   3.816  11.138
54370W        W22775  12.894   0.496   0.799
54371W        W22776  39.333  39.626   3.726
54372W        W22777  27.886  13.890  13.526
54373W        W22778  40.873  41.547  13.055
54374W        W22779  21.959   6.632  10.604
54375W        W22780  14.006  37.876  13.056
54376W        W22781  14.639  24.001   1.413
54377W        W22782  23.638  20.197   3.223
54378W        W22783   2.126  22.330   2.414
54379W        W22784  20.590  44.335  13.507
54380W        W22785   0.105  38.004   2.374
54381W        W22786  42.317   8.093   1.466
54382W        W22787  29.997  27.913  13.731
54383W        W22788   5.673  44.337  13.400
54384W        W22789  36.097  42.720  14.118
54385W        W22790   4.995   9.088   4.098
54386W        W22791  15.097  19.178  12.458
54387W        W22792  26.975   8.701   0.778
54388W        W22793  24.064  10.213  14.831
54389W        W22794  16.753  44.042   2.370
54390W        W22795  13.488  15.588  12.115
54391W        W22796  28.659   0.523  10.660
54392W        W22797   1.297  35.540   4.857
54393W        W22798  29.920  15.561   1.264
54394W        W22799  43.413  28.109  12.896
54395W        W22800  23.546  36.405   3.657
54396W        W22801  44.527  29.384   0.440
54397W        W22802   7.254  34.933   4.019
54398W        W22803  24.643  12.823   3.246
54399W        W22804  36.328  43.263  13.432
54400W        W22805   1.030  14.321   2.469
54401W        W22806  32.856  38.346   1.416
54402W        W22807  41.276  23.089  10.615
54403W        W22808   7.135  28.306   4.936
54404W        W22809   6.568  38.126  12.162
54405W        W22810  16.672  10.579  13.510
54406W        W22811   0.060  22.704   3.961
54407W        W22812  29.912  35.529  10.671
54408W        W22813  24.729  36.522  12.062
54409W        W22814  41.828  10.940   4.196
54410W        W22815  12.877  29.505   1.582
54411W        W22816  28.575  30.354   0.663
54412W        W22817  36.380   1.227  12.895
54413W        W22818  40.323   2.487  11.160
54414W        W22819  28.409  38.727  14.528
54415W        W22820   1.925   9.292  14.471
54416W        W22821  38.283  26.667   1.771
54417W        W22822  30.593  25.543   3.202
54418W        W22823   9.674   3.487  11.557
54419W        W22824  16.591   2.971  12.320
54420W        W22825  34.649  36.212  11.251
54421W        W22826  27.598  19.737  10.657
54422W        W22827  40.450   9.904   4.070
54423W        W22828  18.841  35.657  10.580
54424W        W22829   8.755  44.947   0.809
54425W        W22830  22.336   5.656   1.326
54426W        W22831  16.765  39.721  11.451
54427W        W22832  29.981  33.979  12.010
54428W        W22833  28.097  19.031   3.638
54429W        W22834  30.089  39.768   1.842
54430W        W22835  40.348  37.628  13.531
54431W        W22836  39.751   9.768   1.249
54432W        W22837   7.384  29.989   3.759
54433W        W22838  15.375  26.439  14.004
54434W        W22839  14.612  36.118  12.023
54435W        W22840   1.722  18.070  13.844
54436W        W22841   1.365  31.232   2.327
54437W        W22842   0.787  36.756   2.438
54438W        W22843  19.167   8.258   0.978
54439W        W22844  43.156  41.157  13.074
54440W        W22845  24.246  20.853   3.743
54441W        W22846   8.276  23.229  11.288
54442W        W22847   1.655  19.876  14.797
54443W        W22848   2.192   0.805  13.520
54444W        W22849   6.239  22.513   3.238
54445W        W22850  16.718  16.815  14.396
54446W        W22851   8.172  19.305  13.962
54447W        W22852  40.980  30.193  13.364
54448W        W22853  29.095  20.098  12.973
54449W        W22854  24.471   6.676   2.836
54450W        W22855  40.840  33.635  14.031
54451W        W22856  30.482  23.754   0.500
54452W        W22857  24.909  17.358   2.069
54453W        W22858  15.256  10.353   1.723
54454W        W22859  26.214  37.339  14.878
54455W        W22860  11.547  15.852   3.981
54456W        W22861  20.480  29.621   3.699
54457W        W22862  43.901  26.078   0.248
54458W        W22863  41.442  29.142  12.953
54459W        W22864   5.233  40.837   3.215
54460W        W22865  38.916  32.386   0.785
54461W        W22866  27.697   3.275  10.886
54462W        W22867  24.424   2.744   3.354
54463W        W22868  14.322  13.319  14.378
54464W        W22869   9.128  44.036  11.306
54465W        W22870  32.559  24.301  11.363
54466W        W22871  34.599  38.415   0.345
54467W        W22872   0.471  38.640  11.070
54468W        W22873  29.925   7.777   2.844
54469W        W22874  34.590   7.582   2.837
54470W        W22875  18.154  35.441   3.398
54471W        W22876  20.738  15.674   0.941
54472W        W22877   0.937  11.153  14.391
54473W        W22878  44.039   9.699  12.512
54474W        W22879  17.177   2.225  10.707
54475W        W22880  17.647  11.629  11.207
54476W        W22881  23.283   3.365   3.369
54477W        W22882   9.027   9.449   3.384
54478W        W22883  13.124  37.990   2.163
54479W        W22884  36.285  41.351   0.820
54480W        W22885  26.233  40.343   4.686
54481W        W22886  41.038  29.816  11.437
54482W        W22887  31.390  15.344  14.483
54483W        W22888  30.359  23.204  11.093
54484W        W22889  21.060   2.873  12.530
54485W        W22890  41.693  42.369  13.915
54486W        W22891  20.996  32.021   3.516
54487W        W22892  15.130  11.353   1.732
54488W        W22893  13.336  10.909   1.784
54489W        W22894   4.686  16.277  14.940
54490W        W22895   5.689   6.301  12.908
54491W        W22896  44.461  26.428   4.531
54492W        W22897   7.667  16.622   0.685
54493W        W22898   1.838  19.964   1.107
54494W        W22899  30.593  26.207   0.898
54495W        W22900   9.428  32.527   5.007
54496W        W22901   2.637  25.641   3.756
54497W        W22902  14.706   4.706  12.629
54498W        W22903  20.698  22.934  13.997
54499W        W22904  21.986  36.464  13.798
54500W        W22905   2.531   1.543   1.698
54501W        W22906  38.911   4.792   1.896
54502W        W22907  38.344  21.247  13.614
54503W        W22908  35.791  33.897   2.143
54504W        W22909   7.123  42.913   3.721
54505W        W22910  17.716  20.814   0.871
54506W        W22911  37.326  27.780   3.203
54507W        W22912   6.777  44.761   3.167
54508W        W22913  27.723   3.385   4.113
54509W        W22914  28.877  30.185   2.713
54510W        W22915  28.132  30.021   0.271
54511W        W22916  16.513  32.416  11.080
54512W        W22917  11.754  35.694  14.380
54513W        W22918   7.454  21.223   0.924
54514W        W22919   5.859  29.219   2.315
54515W        W22920  25.054  25.703   2.436
54516W        W22921  42.829  27.214   0.851
54517W        W22922  23.730  20.815   3.767
54518W        W22923  38.445  41.562  12.184
54519W        W22924  25.030   0.765  14.378
54520W        W22925  26.471   3.961   4.235
54521W        W22926  27.644  13.237  11.864
54522W        W22927  14.201  14.122   0.808
54523W        W22928  12.350  18.334   0.725
54524W        W22929  10.492   5.735  13.901
54525W        W22930   9.923  30.865   0.350
54526W        W22931   5.235  24.636  11.564
54527W        W22932  15.258  12.863  14.302
54528W        W22933   4.268   4.836   3.619
54529W        W22934  41.832  16.711   4.096
54530W        W22935   6.194   1.287   4.905
54531W        W22936   3.465  43.026   3.263
54532W        W22937  25.330  19.483   2.720
54533W        W22938  25.934  37.070  12.937
54534W        W22939  10.152  27.152  14.816
54535W        W22940  34.526  38.967   0.345
54536W        W22941   9.891  14.247   3.396
54537W        W22942  17.950  32.742   5.065
54538W        W22943  20.186  22.179  10.192
54539W        W22944  14.007   6.743   1.379
54540W        W22945  15.719  22.708  10.004
54541W        W22946  39.722  15.602   0.927
54542W        W22947  24.505  14.919   4.055
54543W        W22948  27.204   0.531   3.718
54544W        W22949  36.513  43.931   4.559
54545W        W22950   7.878  32.538   1.266
54546W        W22951  42.740  18.661   1.873
54547W        W22952  14.654  40.167  13.375
54548W        W22953  20.871  31.135   3.298
54549W        W22954   5.397  43.069   0.346
54550W        W22955  26.488   0.804   3.663
54551W        W22956  10.112  40.625  11.139
54552W        W22957  18.538  38.056  12.612
54553W        W22958  23.108  30.447   0.682
54554W        W22959  14.764  19.936   2.217
54555W        W22960  38.976  29.476  14.466
54556W        W22961  15.534  27.784   3.818
54557W        W22962   6.207  19.810  13.563
54558W        W22963  37.145  16.758  14.248
54559W        W22964  17.024   9.266   4.187
54560W        W22965  22.209  40.857   4.475
54561W        W22966   5.856  30.154   4.644
54562W        W22967  38.378  38.521  13.981
54563W        W22968  14.753   1.004  13.065
54564W        W22969  36.532  21.811   3.373
54565W        W22970  19.977  33.292   2.759
54566W        W22971  38.774   3.482  13.397
54567W        W22972  34.825  23.513  13.759
54568W        W22973   0.602  23.492   2.780
54569W        W22974  44.437  19.613   2.329
54570W        W22975  13.097  18.125   0.003
54571W        W22976  13.298   6.109   4.154
54572W        W22977  34.097  15.927   4.218
54573W        W22978  26.579  10.552   1.917
54574W        W22979  41.978  43.793  10.822
54575W        W22980  28.132  27.525  14.914
54576W        W22981  17.799  43.408   3.795
54577W        W22982   5.869  37.495  12.983
54578W        W22983   0.892  38.595   0.913
54579W        W22984  40.930  43.554   2.779
54580W        W22985  44.853  34.109   3.628
54581W        W22986  18.238  22.727  14.909
54582W        W22987  33.544  16.761  14.819
54583W        W22988  26.402  42.526  13.445
54584W        W22989  20.100   6.825   1.482
54585W        W22990  15.204  42.771   3.313
54586W        W22991  31.437  11.760   4.598
54587W        W22992  21.429  44.380  11.582
54588W        W22993  21.095  15.887  10.028
54589W        W22994  31.406   3.162   0.960
54590W        W22995  35.954  14.152  11.613
54591W        W22996   9.721   0.873  11.396
54592W        W22997  44.071   4.725  12.784
54593W        W22998  43.559   4.834   2.734
54594W        W22999  37.383  26.569   2.749
54595W        W23000  10.166  32.829  14.538
54596W        W23001  24.534  15.902  10.693
54597W        W23002  28.774  25.953   1.299
54598W        W23003  31.096  37.982   4.068
54599W        W23004  32.572   5.631  14.047
54600W        W23005  17.977  34.159  12.448
54601W        W23006   4.476  41.066   1.271
54602W        W23007  15.229  17.071  11.167
54603W        W23008   1.359  44.714  11.966
54604W        W23009  23.176  16.159   1.788
54605W        W23010  23.472  20.301   3.713
54606W        W23011  43.396  24.534   1.719
54607W        W23012  31.542   7.703   1.382
54608W        W23013  35.160   0.835  14.863
54609W        W23014  37.895  42.822  11.688
54610W        W23015  44.539   3.205  13.553
54611W        W23016   0.089  36.384  14.878
54612W        W23017  25.387  16.911   0.714
54613W        W23018  16.052  37.314   1.892
54614W        W23019  29.112   9.338   4.703
54615W        W23020  23.611  33.997  12.184
54616W        W23021   3.450  24.286  12.948
54617W        W23022   0.305  17.737   3.619
54618W        W23023  15.150  23.511  13.031
54619W        W23024  24.262   7.485  14.390
54620W        W23025   7.586  39.446  13.857
54621W        W23026  37.905  42.581   4.966
54622W        W23027  39.388   5.273  14.292
54623W        W23028  38.685  31.574  11.159
54624W        W23029  27.548  35.050   4.045
54625W        W23030  17.491  35.118  13.846
54626W        W23031  24.472  13.126   0.041
54627W        W23032  44.292  15.616  10.917
54628W        W23033  35.654   8.505  11.142
54629W        W23034   5.765   0.891  12.799
54630W        W23035   4.225   4.444   4.703
54631W        W23036  20.050   1.750   0.752
54632W        W23037  14.175  31.877   5.053
54633W        W23038  28.733  41.143   1.653
54634W        W23039  22.776  21.173  14.512
54635W        W23040  23.665  28.717   1.355
54636W        W23041  43.357  14.220   1.781
54637W        W23042   2.700  25.166   0.473
54638W        W23043  43.185  40.357  13.310
54639W        W23044  31.547  31.916  14.860
54640W        W23045   4.458   8.376   2.440
54641W        W23046  33.864   6.879  12.221
54642W        W23047  20.960  25.117  13.598
54643W        W23048  37.071  29.055  14.457
54644W        W23049  24.872   4.335  12.062
54645W        W23050   3.716  23.667  12.988
54646W        W23051  44.496  12.765   4.103
54647W        W23052  10.677  30.598  14.288
54648W        W23053  18.224  32.770  10.130
54649W        W23054  14.219   0.935  14.692
54650W        W23055  17.739  30.370   0.867
54651W        W23056  15.168  13.710   3.381
54652W        W23057  35.680  19.233  11.032
54653W        W23058  32.919  28.880   1.541
54654W        W23059  36.641   1.412  12.063
54655W        W23060  14.277  15.143   3.679
54656W        W23061   5.770  11.809  13.140
54657W        W23062   6.488  39.874   0.830
54658W        W23063  37.649   7.643   1.349
54659W        W23064   2.691  18.409  12.345
54660W        W23065  32.922  19.498  13.041
54661W        W23066   7.605  24.159  14.375
54662W        W23067  31.651  22.766  13.412
54663W        W23068  13.664  35.032   1.418
54664W        W23069  36.214  33.801  11.939
54665W        W23070   5.296  23.762  11.702
54666W        W23071   2.950  32.708   3.272
54667W        W23072  32.140  20.700   0.474
54668W        W23073  39.266  25.966  13.557
54669W        W23074  20.681  41.270  11.990
54670W        W23075  24.115  26.695  13.413
54671W        W23076  14.097   9.761  11.740
54672W        W23077   6.180   3.340  14.387
54673W        W23078  42.527  16.389  12.001
54674W        W23079  14.751   7.158  11.548
54675W        W23080   6.959  28.537   4.519
54676W        W23081   9.335   5.471   0.067
54677W        W23082   6.706  13.730   4.003
54678W        W23083  26.232  38.804   3.129
54679W        W23084  18.189  28.713  11.165
54680W        W23085  34.918  23.824   2.755
54681W        W23086  42.082  32.897  11.625
54682W        W23087  34.229  35.406   0.865
54683W        W23088  29.949  16.734   1.750
54684W        W23089   7.640  34.609   4.592
54685W        W23090  37.473  19.999  10.791
54686W        W23091  10.141  10.235  13.983
54687W        W23092  20.790  16.061  14.900
54688W        W23093   2.932  37.585   1.215
54689W        W23094   1.344  38.830   2.552
54690W        W23095  15.687  38.135  10.449
54691W        W23096  33.964  30.644   2.971
54692W        W23097  28.307  41.281   4.518
54693W        W23098   8.437  31.032  13.082
54694W        W23099  11.883  31.994   1.671
54695W        W23100   1.856  33.355   2.739
54696W        W23101  29.020  43.534   0.025
54697W        W23102  23.731  35.901   0.486
54698W        W23103  34.907  24.298  11.192
54699W        W23104  40.407  44.136   9.918
54700W        W23105  16.600  32.702   2.308
54701W        W23106  32.000  22.425  13.560
54702W        W23107  44.928  34.359   4.870
54703W        W23108  15.029  37.930  12.997
54704W        W23109  40.340  16.025  12.037
54705W        W23110  20.727  35.323  14.360
54706W        W23111  38.160  14.088   1.377
54707W        W23112  26.654  14.082  11.204
54708W        W23113   0.709  42.367  10.744
54709W        W23114  35.911  42.936   4.622
54710W        W23115   2.789  14.562  14.434
54711W        W23116   8.758  22.016   3.706
54712W        W23117   5.730  23.686   0.954
54713W        W23118  41.576   8.947   4.374
54714W        W23119  13.776  20.807  14.515
54715W        W23120  15.569  30.897  12.437
54716W        W23121   1.735  38.160   2.731
54717W        W23122  14.338  42.870   4.486
54718W        W23123   9.296  33.433   4.171
54719W        W23124  35.565   6.478  12.111
54720W        W23125   1.133  21.273   4.308
54721W        W23126  40.328  24.472  13.116
54722W        W23127   0.321   0.995   1.457
54723W        W23128  11.739  11.665  14.609
54724W        W23129  36.340  17.725  14.812
54725W        W23130  37.823  44.631  12.242
54726W        W23131  18.602  18.697   3.084
54727W        W23132  41.199  44.977   1.346
54728W        W23133  40.358  36.991   3.642
54729W        W23134  10.460  38.423  14.904
54730W        W23135  32.646  39.913  10.615
54731W        W23136  10.134  18.274  13.105
54732W        W23137  34.756   8.702  12.795
54733W        W23138  12.666   6.833   0.991
54734W        W23139  20.751  43.979   1.103
54735W        W23140  32.019   8.340   0.984
54736W        W23141  14.778  22.611   2.201
54737W        W23142  18.350  29.196  11.102
54738W        W23143  34.432  40.018   1.949
54739W        W23144  36.872  38.368  11.360
54740W        W23145  24.092  40.893  12.188
54741W        W23146  40.453  43.014   3.299
54742W        W23147  33.000  19.415   0.501
54743W        W23148  32.259   4.946  12.552
54744W        W23149  17.120  15.488  10.047
54745W        W23150  17.030  24.788   3.371
54746W        W23151  14.098   6.381   1.721
54747W        W23152   8.872  35.561   3.544
54748W        W23153  30.610   9.810  14.596
54749W        W23154   5.435   1.730  13.992
54750W        W23155  23.159  40.804  13.341
54751W        W23156  43.496  20.509   3.417
54752W        W23157  43.688   4.996  14.978
54753W        W23158  16.652  20.724  11.596
54754W        W23159   0.291  37.890   0.034
54755W        W23160   0.855  44.277   1.927
54756W        W23161  21.251  13.342  13.370
54757W        W23162  37.743  15.419  11.793
54758W        W23163   5.135  42.637  13.145
54759W        W23164  25.472  23.667   1.140
54760W        W23165  37.294  18.220  13.943
54761W        W23166  22.114  39.261  14.564
54762W        W23167  14.857  30.961  13.925
54763W        W23168  25.484  37.447   2.661
54764W        W23169  34.036  43.849   0.314
54765W        W23170  37.855  43.073   3.522
54766W        W23171  13.750  44.317   0.380
54767W        W23172  19.076   2.318  10.672
54768W        W23173   7.109  27.532   0.258
54769W        W23174   7.333  28.080   1.970
54770W        W23175   0.854  14.340   1.775
54771W        W23176  42.279   3.387  13.724
54772W        W23177   2.753  36.124   0.819
54773W        W23178  38.834   5.293   9.915
54774W        W23179  10.552  18.702  12.555
54775W        W23180  19.653  27.366   4.832
54776W        W23181  28.770   7.652  11.624
54777W        W23182  31.875  28.642  13.902
54778W        W23183  25.546   5.011  14.023
54779W        W23184  39.066   6.228  14.117
54780W        W23185  34.826   8.776   3.544
54781W        W23186  35.956   5.579   4.779
54782W        W23187   0.438  38.592   1.688
54783W        W23188  30.676  39.245  10.034
54784W        W23189  34.014  22.465  14.787
54785W        W23190   9.370  23.944   3.262
54786W        W23191   7.447  17.273   4.583
54787W        W23192   2.719  32.909   2.856
54788W        W23193  11.129  32.937   0.283
54789W        W23194  40.628  37.990   0.817
54790W        W23195  13.550  41.541   2.732
54791W        W23196   5.160  27.962   4.687
54792W        W23197  24.881  13.627  14.383
54793W        W23198  34.527   1.294  10.746
54794W        W23199  36.375   7.321   0.202
54795W        W23200  44.526  20.058  11.120
54796W        W23201  30.026  39.257  12.797
54797W        W23202   3.397  23.458   3.956
54798W        W23203  15.379  28.123  12.860
54799W        W23204  36.152  12.309  11.558
54800W        W23205  14.989  43.582   1.050
54801W        W23206  17.204  40.893  14.966
54802W        W23207  38.073   6.268  13.873
54803W        W23208  38.330   1.307  14.803
54804W        W23209  30.499  34.793  14.339
54805W        W23210  40.088   7.935   2.930
54806W        W23211   6.894   0.783   0.001
54807W        W23212  14.862  26.499  14.894
54808W        W23213  31.563  34.119   1.677
54809W        W23214  20.569  30.111  13.662
54810W        W23215  11.745  32.656  11.681
54811W        W23216  30.464   0.780  12.089
54812W        W23217  31.989  29.661   0.259
54813W        W23218  26.630  35.343   3.863
54814W        W23219  19.285   3.927  11.562
54815W        W23220  24.789   8.851   1.418
54816W        W23221  10.724   2.552   0.988
54817W        W23222  28.413  21.244   0.585
54818W        W23223  14.347  42.339  11.155
54819W        W23224  15.696  36.124   4.474
54820W        W23225   5.067  14.746   0.738
54821W        W23226   7.690  35.634   2.046
54822W        W23227  28.542   2.769   1.692
54823W        W23228  25.300  26.010  12.929
54824W        W23229  39.669  12.567  12.371
54825W        W23230  23.914   0.436   3.168
54826W        W23231  14.313  39.489  14.992
54827W        W23232  14.227  22.163   0.557
54828W        W23233  25.219  34.096  13.819
54829W        W23234  31.144   3.499  11.052
54830W        W23235   1.048  31.409   2.703
54831W        W23236   8.357  25.512  11.990
54832W        W23237  31.983  44.639   4.308
54833W        W23238  11.390   1.065   2.496
54834W        W23239   1.406   4.436  10.395
54835W        W23240  27.907  16.251  11.835
54836W        W23241   1.809  36.339   3.223
54837W        W23242   8.167  23.654   0.442
54838W        W23243  41.280  24.197  12.859
54839W        W23244  32.208   3.418  11.568
54840W        W23245  16.771  35.815  14.815
54841W        W23246  31.362  31.616  10.646
54842W        W23247  27.175  16.583  11.856
54843W        W23248  12.088  40.834  13.811
54844W        W23249  25.009   0.785  11.507
54845W        W23250  37.890   3.256   2.243
54846W        W23251  17.074  31.909   1.323
54847W        W23252  13.637  33.554   2.304
54848W        W23253  29.020  44.045   2.706
54849W        W23254   1.763  40.349   3.669
54850W        W23255  21.240  33.638   1.657
54851W        W23256   5.944  10.889   0.722
54852W        W23257   8.080  19.248   3.132
54853W        W23258  13.647  44.639  12.041
54854W        W23259  23.168  16.319  14.765
54855W        W23260  35.514  21.543   1.892
54856W        W23261  32.865   7.880  13.963
54857W        W23262   4.693  41.813  11.556
54858W        W23263  25.656  20.197  10.690
54859W        W23264  36.845  39.089   1.407
54860W        W23265   1.394  22.097   2.840
54861W        W23266  10.123  21.938  13.813
54862W        W23267  36.357  20.748  11.366
54863W        W23268   9.456  20.102  11.130
54864W        W23269   6.809  29.937  14.368
54865W        W23270   3.796  35.964   0.868
54866W        W23271  25.491  44.498  11.196
54867W        W23272  34.312  23.576  13.591
54868W        W23273   0.366  33.840  13.951
54869W        W23274  27.867  40.597   2.849
54870W        W23275  42.040   8.709  14.387
54871W        W23276  22.522  17.822  13.879
54872W        W23277   4.205  19.337  13.091
54873W        W23278  14.716  21.761   3.534
54874W        W23279  15.526  38.223   2.809
54875W        W23280  28.363  31.414   0.275
54876W        W23281  41.488  24.144   2.656
54877W        W23282   4.142  21.958   3.769
54878W        W23283  36.919  10.628   1.705
54879W        W23284  18.174  33.161   2.223
54880W        W23285  10.274  23.740  12.072
54881W        W23286  13.124  21.491  14.481
54882W        W23287  22.040  18.481   3.251
54883W        W23288   4.831   1.489   0.463
54884W        W23289  34.799  32.759   1.364
54885W        W23290   8.296  15.398  12.150
54886W        W23291  18.290  36.461   2.669
54887W        W23292  30.582   4.986   2.301
54888W        W23293  20.731   4.550  11.768
54889W        W23294  35.657   5.182   3.075
54890W        W23295  21.040  21.533   0.856
54891W        W23296  23.677   3.716   3.260
54892W        W23297  27.583  28.865   1.803
54893W        W23298  16.071  16.822   2.754
54894W        W23299  28.183  20.801   2.713
54895W        W23300  44.927  34.680   2.821
54896W        W23301  37.239   6.669   3.247
54897W        W23302  21.003  10.870  10.895
54898W        W23303   7.241  41.184   0.201
54899W        W23304  12.115  29.077  13.965
54900W        W23305  18.517  34.033  14.730
54901W        W23306  43.523   1.324   0.297
54902W        W23307  29.755  43.363  13.626
54903W        W23308  38.554   8.645  13.059
54904W        W23309  44.635  19.308   0.465
54905W        W23310  27.974  41.959   4.128
54906W        W23311  13.627  26.751  11.930
54907W        W23312  25.071  24.664   0.944
54908W        W23313  30.283  37.079   1.776
54909W        W23314  42.987  16.319  12.855
54910W        W23315  41.514   4.211   3.194
54911W        W23316  22.469  28.198  14.750
54912W        W23317  17.044  16.364   3.604
54913W        W23318  12.375  41.484   1.700
54914W        W23319  33.041  44.254   3.841
54915W        W23320  40.338  11.676  11.969
54916W        W23321   5.245  15.599   3.767
54917W        W23322  13.800  40.304   2.281
54918W        W23323   0.385  35.460  10.952
54919W        W23324   2.438  31.126  12.651
54920W        W23325   3.888  41.558   3.734
54921W        W23326  11.389  21.856  11.125
54922W        W23327  26.295  22.430  14.326
54923W        W23328   9.376  43.831   0.829
54924W        W23329   5.191  27.522   4.411
54925W        W23330  44.516   6.252  11.562
54926W        W23331  29.029  27.072  13.366
54927W        W23332  15.211  35.485  12.145
54928W        W23333  16.694  26.254   4.757
54929W        W23334   1.920  26.841  12.056
54930W        W23335  20.232  24.029  13.636
54931W        W23336  23.281   2.653  13.034
54932W        W23337  34.398  12.881   1.413
54933W        W23338  30.418   8.696   3.215
54934W        W23339   3.279  41.606   0.780
54935W        W23340  26.466  32.010  10.491
54936W        W23341  19.073   0.957   1.601
54937W        W23342   8.199  28.972   2.141
54938W        W23343  11.069  22.697   1.434
54939W        W23344  34.731   9.210  11.663
54940W        W23345  42.740   2.790   4.156
54941W        W23346   8.575  15.970   3.658
54942W        W23347  16.336   3.873   1.673
54943W        W23348  12.350   1.252  12.905
54944W        W23349  10.672  38.525   0.763
54945W        W23350   4.785  28.053  13.436
54946W        W23351  33.665  22.591  11.663
54947W        W23352  31.873   9.719  11.411
54948W        W23353  27.070  22.237  13.323
54949W        W23354  13.560  21.726  13.587
54950W        W23355  12.031   3.472  11.608
54951W        W23356  35.996   3.136   3.734
54952W        W23357   2.344   1.351  14.968
54953W        W23358  11.770  32.105   4.642
54954W        W23359  31.867  41.788  10.313
54955W        W23360  40.315   8.960   2.301
54956W        W23361  38.459  18.668   3.274
54957W        W23362  13.591  34.366   4.168
54958W        W23363  17.592  17.672   0.716
54959W        W23364  44.783   6.753  10.030
54960W        W23365  39.415  26.975   4.078
54961W        W23366  43.768   0.594  10.272
54962W        W23367  38.428  42.287   1.861
54963W        W23368   7.687  17.258  11.003
54964W        W23369  25.442  22.472   0.872
54965W        W23370  16.923  18.130  11.668
54966W        W23371  28.129  44.941   3.747
54967W        W23372  38.249  28.435  13.792
54968W        W23373  33.996   2.747   2.398
54969W        W23374  29.577  34.985  14.452
54970W        W23375  19.638  33.949   2.685
54971W        W23376   6.405  36.524  13.053
54972W        W23377  28.677  28.668   1.298
54973W        W23378  34.794  23.303  11.151
54974W        W23379  35.916  29.227   4.082
54975W        W23380  25.981   3.702  11.394
54976W        W23381  26.731   0.461  13.034
54977W        W23382  16.731  36.833   2.303
54978W        W23383  10.911  16.454  11.446
54979W        W23384   6.680  44.888  12.531
54980W        W23385   7.893  13.574  11.161
54981W        W23386  40.892  31.862   3.237
54982W        W23387  17.173   5.930   2.382
54983W        W23388  39.357  27.556  10.757
54984W        W23389  42.366  31.985  13.433
54985W        W23390  43.136  21.057  14.366
54986W        W23391  13.313  21.738  14.902
54987W        W23392  36.617  18.771  13.376
54988W        W23393  10.928  15.500  12.616
54989W        W23394  12.114  26.778   3.146
54990W        W23395  17.152   7.167  14.058
54991W        W23396  10.978   8.759  12.500
54992W        W23397  19.714  29.331   4.739
54993W        W23398  26.504  18.104  12.856
54994W        W23399  38.319  35.840   0.391
54995W        W23400  33.680   7.199  13.810
54996W        W23401  17.685  11.122  11.366
54997W        W23402  33.511  17.348  14.478
54998W        W23403  40.474  39.797   0.054
54999W        W23404  24.557  28.244   1.147
55000W        W23405   1.954  14.362  12.548
55001W        W23406  42.163  37.089  12.705
55002W        W23407  16.097  31.871   1.399
55003W        W23408   3.366  12.694   1.779
55004W        W23409  41.395   3.259   1.000
55005W        W23410  14.010   5.804  13.858
55006W        W23411  41.955  18.046   4.518
55007W        W23412  19.080  22.072   1.903
55008W        W23413  35.653  39.100  13.947
55009W        W23414  35.221  36.336   0.839
55010W        W23415  15.060  37.527  11.278
55011W        W23416  12.796  38.515  13.418
55012W        W23417   9.475  40.324  11.928
55013W        W23418  20.568  31.194  14.861
55014W        W23419  23.017   0.341  14.529
55015W        W23420   0.758  12.263   2.791
55016W        W23421  23.575  26.491   2.595
55017W        W23422  44.831  23.729  11.679
55018W        W23423  29.476  22.747   4.540
55019W        W23424  32.238  23.680   1.817
55020W        W23425  34.009  20.211  14.464
55021W        W23426  10.149  19.760  12.011
55022W        W23427  10.973  33.372   1.308
55023W        W23428  39.339  25.543   2.276
55024W        W23429  15.934  22.571  14.921
55025W        W23430  36.818  16.199  11.187
55026W        W23431   4.184  12.302   4.051
55027W        W23432  31.462  44.285   1.578
55028W        W23433   2.915   1.374  11.478
55029W        W23434   7.292  20.618   2.498
55030W        W23435  22.672  15.205   4.118
55031W        W23436   9.501  12.706  10.241
55032W        W23437  34.647   7.377   4.013
55033W        W23438  13.374   9.893  13.805
55034W        W23439  19.338  25.569  12.065
55035W        W23440  35.450  14.715   1.146
55036W        W23441  10.726  35.529  13.190
55037W        W23442  40.314   0.567  11.057
55038W        W23443   8.183   8.265   1.920
55039W        W23444   6.512  11.377   4.143
55040W        W23445  26.260  30.700   4.626
55041W        W23446  44.736  30.564  13.824
55042W        W23447  28.873   5.251  10.697
55043W        W23448  41.800  25.400  13.503
55044W        W23449  36.101   3.355   2.440
55045W        W23450  35.292   5.925  13.021
55046W        W23451  38.102  35.831  14.628
55047W        W23452  20.316  28.012   0.929
55048W        W23453  10.280   9.952   0.428
55049W        W23454  37.376  27.235   1.862
55050W        W23455  11.206  35.468   1.771
55051W        W23456   5.440  40.575   0.562
55052W        W23457   4.893  27.647  13.795
55053W        W23458   9.296   6.359  13.678
55054W        W23459  30.844  42.548  14.041
55055W        W23460  25.044  14.163   1.880
55056W        W23461   5.663  15.853   3.482
55057W        W23462  25.115  28.711  10.736
55058W        W23463  14.539  39.004   0.248
55059W        W23464  21.460  39.361  12.941
55060W        W23465  11.771  32.206  14.530
55061W        W23466  44.283   3.029  10.301
55062W        W23467  43.048   3.158  10.788
55063W        W23468  36.417   2.706   2.210
55064W        W23469   8.686   3.034  13.019
55065W        W23470   2.066  24.268  12.556
55066W        W23471  13.190  27.332  11.990
55067W        W23472  17.772   8.948   4.557
55068W        W23473  34.389  15.274  11.116
55069W        W23474  41.049  18.330  13.030
55070W        W23475  10.439  16.256   2.581
55071W        W23476  17.563  42.528  14.949
55072W        W23477  30.357  36.785  11.664
55073W        W23478  38.794  40.306  10.331
55074W        W23479  18.537  38.071  10.798
55075W        W23480   0.819  15.476  14.972
55076W        W23481   9.902   5.289  13.445
55077W        W23482  21.603  37.583  14.539
55078W        W23483  20.235   5.509  12.575
55079W        W23484  34.230   2.345  12.837
55080W        W23485   0.469  10.850   3.668
55081W        W23486  23.775  28.983  12.939
55082W        W23487  35.920   1.854   3.125
55083W        W23488  38.631  17.523   3.693
55084W        W23489  17.006  41.990   4.664
55085W        W23490   8.129   9.915   4.157
55086W        W23491  24.321   3.367   5.019
55087W        W23492  34.764  20.318  13.060
55088W        W23493  15.516   7.076  11.511
55089W        W23494  11.398   5.780  14.807
55090W        W23495  39.674   3.751  11.565
55091W        W23496   5.684  33.646   0.506
55092W        W23497  41.792   5.799  13.144
55093W        W23498  14.425  25.159   2.012
55094W        W23499  36.354  17.038  11.590
55095W        W23500  36.971   5.496   1.746
55096W        W23501   1.804  41.770  10.927
55097W        W23502  15.509  44.480  12.172
55098W        W23503   3.342  36.818   3.376
55099W        W23504  12.762  14.590   1.267
55100W        W23505   4.708   0.961   1.808
55101W        W23506  42.937  22.610   3.680
55102W        W23507  18.084  11.841  14.136
55103W        W23508  43.764  32.134   1.362
55104W        W23509   8.401  13.437  12.020
55105W        W23510  44.739   3.996   3.741
55106W        W23511  43.817  15.683  12.018
55107W        W23512   1.802  18.553   0.898
55108W        W23513  12.562  41.341  14.793
55109W        W23514  34.556  36.635  14.398
55110W        W23515  41.595  20.273  10.997
55111W        W23516  31.562  36.293   0.366
55112W        W23517  35.859   8.524   4.647
55113W        W23518  34.127  12.216   0.429
55114W        W23519   7.771  26.700  10.156
55115W        W23520  39.604  33.088   3.305
55116W        W23521  35.475  34.423  12.159
55117W        W23522  18.837   9.000   3.856
55118W        W23523  44.475   6.325   3.053
55119W        W23524   1.516  32.515  13.342
55120W        W23525  24.550  32.151  11.124
55121W        W23526  29.176  38.402  11.671
55122W        W23527  27.605  37.592  11.920
55123W        W23528   1.456  42.942  10.689
55124W        W23529   5.386   0.851   2.198
55125W        W23530   3.134  43.426   0.327
55126W        W23531   4.290   6.844  13.538
55127W        W23532  12.096  15.165   2.480
55128W        W23533  20.663  40.409  12.782
55129W        W23534  41.084  34.582   1.345
55130W        W23535  16.099  11.755  10.971
55131W        W23536  26.935  23.793   3.863
55132W        W23537  32.468   8.029   2.664
55133W        W23538  14.814  38.076  12.171
55134W        W23539   3.210   5.261   0.934
55135W        W23540  31.576  23.888   2.358
55136W        W23541  10.195  20.801   1.214
55137W        W23542  17.747   5.476  10.647
55138W        W23543   8.763  43.729   1.908
55139W        W23544   9.700   6.655  14.413
55140W        W23545   3.274  41.402  13.377
55141W        W23546  20.204  28.960  10.345
55142W        W23547   5.864  35.911   4.694
55143W        W23548  42.886   4.183  10.742
55144W        W23549  33.632  21.065   2.331
55145W        W23550  43.162  10.092  12.936
55146W        W23551   7.001   2.695  11.125
55147W        W23552   1.900  14.336  11.456
55148W        W23553   9.499  11.946  14.222
55149W        W23554  43.327  16.542  10.647
55150W        W23555  28.457  22.955   2.141
55151W        W23556  44.877   1.790   3.359
55152W        W23557  17.087  26.888  12.044
55153W        W23558  40.935  14.233  10.782
55154W        W23559  43.019   6.748  13.797
55155W        W23560  12.432   3.686   1.303
55156W        W23561  42.377  39.972   4.372
55157W        W23562  26.870  10.264  14.440
55158W        W23563  24.215  37.861   2.504
55159W        W23564  44.527  18.130   1.701
55160W        W23565   6.567  11.654   4.749
55161W        W23566  21.649  35.118  10.739
55162W        W23567   9.105  38.248  14.542
55163W        W23568  42.360  15.202   3.833
55164W        W23569  14.742  12.573   3.717
55165W        W23570   9.601  34.992  10.407
55166W        W23571  33.067  42.826  14.441
55167W        W23572   7.699  28.059   3.065
55168W        W23573  19.499  19.084  12.121
55169W        W23574  13.247  15.095  13.486
55170W        W23575  15.667   4.021  10.683
55171W        W23576   3.921  10.805  14.147
55172W        W23577  20.182  29.486  12.664
55173W        W23578  12.294  42.980   1.589
55174W        W23579  10.755  27.297  14.816
55175W        W23580  39.623  19.494   3.838
55176W        W23581   3.339  36.889  14.802
55177W        W23582   8.913   7.948  11.166
55178W        W23583  22.334  29.971   3.586
55179W        W23584  16.515  14.331   3.259
55180W        W23585   7.237  11.073   3.612
55181W        W23586  17.733   4.392  12.451
55182W        W23587  15.131   4.245  13.164
55183W        W23588  14.721  42.052   0.388
55184W        W23589  14.997  35.965  10.312
55185W        W23590  27.188  43.786  11.666
55186W        W23591  18.611   2.135  14.360
55187W        W23592  40.495  15.666  12.991
55188W        W23593  37.818  15.584  12.284
55189W        W23594   2.820  11.757  14.835
55190W        W23595  37.856  39.613   4.299
55191W        W23596   3.864  35.426  14.447
55192W        W23597  19.073  29.414   3.091
55193W        W23598  37.882  34.580  10.561
55194W        W23599  37.473  28.844   4.116
55195W        W23600  42.686  30.344  14.131
55196W        W23601  24.035  29.848  13.985
55197W        W23602  16.252  30.842   4.234
55198W        W23603  43.972  35.931   3.842
55199W        W23604  33.073   0.191  13.500
55200W        W23605  26.176  26.708   4.117
55201W        W23606  32.634  35.088  12.227
55202W        W23607  14.834  26.313   2.490
55203W        W23608  21.842   1.867  10.759
55204W        W23609  21.431  42.782  11.965
55205W        W23610  23.961   7.203   3.782
55206W        W23611  41.123  29.439   0.032
55207W        W23612  41.845  31.834   9.888
55208W        W23613  23.228  19.540   4.115
55209W        W23614  14.244  10.069   3.892
55210W        W23615  40.941  33.559  11.392
55211W        W23616   1.683   9.108   0.850
55212W        W23617   0.404   0.027   4.323
55213W        W23618  25.163  23.393   0.402
55214W        W23619  42.909  12.917  13.860
55215W        W23620   7.798   1.981  12.437
55216W        W23621  27.025  15.534  14.452
55217W        W23622  40.805  28.438  14.346
55218W        W23623  34.517  42.674   2.070
55219W        W23624   0.357   5.636   0.289
55220W        W23625  22.204  13.309   4.871
55221W        W23626  18.335  24.557  12.065
55222W        W23627  35.133  39.099  14.788
55223W        W23628  21.691   9.406   2.788
55224W        W23629  13.564   9.637  11.211
55225W        W23630  34.443  15.587   1.903
55226W        W23631  44.571   7.864  12.391
55227W        W23632   1.431  33.502   3.278
55228W        W23633  12.841  28.508   1.309
55229W        W23634   5.367  16.811   0.393
55230W        W23635  37.000   1.019   0.879
55231W        W23636  21.744  29.780  14.396
55232W        W23637  20.108  42.696  13.866
55233W        W23638  31.851  16.567   3.092
55234W        W23639  40.438  34.748  13.184
55235W        W23640  43.162  42.888   4.613
55236W        W23641   0.763  35.999  13.226
55237W        W23642  11.161  28.556  14.943
55238W        W23643  12.806  40.158  13.188
55239W        W23644   3.172   7.897   0.957
55240W        W23645  11.321  44.275  13.333
55241W        W23646  34.924  14.624  12.565
55242W        W23647  24.071   3.929   2.026
55243W        W23648   8.844  34.510   0.051
55244W        W23649  44.416  44.001   1.353
55245W        W23650  12.929  27.268  13.036
55246W        W23651   3.436  34.966  10.713
55247W        W23652  37.140   1.951  14.812
55248W        W23653  12.190  21.532   1.259
55249W        W23654   6.463  18.605  14.534
55250W        W23655   5.580  10.080   0.857
55251W        W23656  44.531   7.376  14.394
55252W        W23657  22.928   8.585  13.041
55253W        W23658  37.227  33.737   0.721
55254W        W23659  43.023  32.836   0.498
55255W        W23660  25.818   5.697  12.597
55256W        W23661  24.589  44.988  10.524
55257W        W23662  15.222  30.934   1.157
55258W        W23663   3.742  43.826  10.814
55259W        W23664  16.394   8.484  13.011
55260W        W23665  37.401  29.351   4.114
55261W        W23666  14.600  17.478  13.505
55262W        W23667  17.502   4.278   1.079
55263W        W23668  35.358  21.081   4.148
55264W        W23669   5.143   4.403  13.230
55265W        W23670  42.662  10.162   0.856
55266W        W23671  18.303  17.179  11.625
55267W        W23672  30.466  37.060   0.108
55268W        W23673  17.651  44.992   1.259
55269W        W23674  37.628  22.729  12.948
55270W        W23675  23.936  22.755   1.326
55271W        W23676  43.845  16.503  10.700
55272W        W23677  25.543   7.832   4.043
55273W        W23678  15.737  12.807  14.575
55274W        W23679  40.365  29.269   0.311
55275W        W23680  21.458  24.530   2.331
55276W        W23681   2.847  36.344  12.347
55277W        W23682  23.107   4.189   0.301
55278W        W23683  34.515  41.180  10.675
55279W        W23684  41.992   6.337  13.201
55280W        W23685   4.392   3.207  10.440
55281W        W23686   7.244  35.374  13.976
55282W        W23687   0.203  27.381  11.524
55283W        W23688   2.984  37.269   5.058
55284W        W23689  29.786   0.508  11.235
55285W        W23690  23.692  14.187   3.026
55286W        W23691   3.236  29.454   0.916
55287W        W23692  35.984   9.436  11.194
55288W        W23693  14.895   3.951  11.107
55289W        W23694  39.735   3.505  13.063
55290W        W23695  17.178  32.553   2.205
55291W        W23696   6.256   2.633   4.738
55292W        W23697  38.041  12.347  10.202
55293W        W23698  26.085  21.300   4.986
55294W        W23699  40.984   1.732   3.311
55295W        W23700  32.097  26.210  12.446
55296W        W23701   2.593  27.495   2.889
55297W        W23702  25.040  42.745  11.874
55298W        W23703  32.871  35.060   4.437
55299W        W23704   6.188   8.825  10.412
55300W        W23705  18.019   8.895   2.225
55301W        W23706  23.294   5.845  10.803
55302W        W23707  25.089  39.078  12.203
55303W        W23708  22.951  39.572  12.894
55304W        W23709   4.380  11.253   3.460
55305W        W23710  24.562  14.144  13.813
55306W        W23711  19.673  34.676   0.473
55307W        W23712  44.494  13.318  13.932
55308W        W23713  11.615  44.810   4.573
55309W        W23714   6.011  18.451  12.904
55310W        W23715   5.829  10.259   5.009
55311W        W23716  10.253  44.833   0.993
55312W        W23717  37.412  38.799   3.232
55313W        W23718  26.380   1.447  13.087
55314W        W23719   8.697  15.566  13.406
55315W        W23720  23.812  33.400  11.114
55316W        W23721  34.567   6.319  13.299
55317W        W23722   6.331  38.325  14.388
55318W        W23723  39.712   4.882  14.202
55319W        W23724  27.891  23.688   9.818
55320W        W23725  42.958  18.402   4.526
55321W        W23726   3.332  35.278   2.314
55322W        W23727  39.785  18.628  11.538
55323W        W23728  35.517   7.227   4.507
55324W        W23729   9.702  10.555   1.846
55325W        W23730  35.827  21.513  11.688
55326W        W23731  33.498  39.175  11.937
55327W        W23732  29.037   1.928   3.854
55328W        W23733  32.656  34.106   1.337
55329W        W23734  12.627  30.089  12.660
55330W        W23735  26.617  23.938  14.320
55331W        W23736  14.357  37.049  14.919
55332W        W23737  39.375   4.852   3.923
55333W        W23738   4.974  34.343  12.086
55334W        W23739  14.264   4.463   1.423
55335W        W23740   2.530  22.713  10.394
55336W        W23741  26.064  43.638  11.140
55337W        W23742  16.624  38.483  12.297
55338W        W23743  18.866  11.034   5.483
55339W        W23744  43.262  37.320   0.528
55340W        W23745  38.372   4.071  12.141
55341W        W23746  14.563  16.226   3.258
55342W        W23747   0.362  15.923  13.005
55343W        W23748   5.262  30.182  10.778
55344W        W23749  44.438  44.396   3.710
55345W        W23750   6.356  12.229  11.175
55346W        W23751  10.249  40.971  12.396
55347W        W23752  35.074  29.362  10.709
55348W        W23753  35.855   8.122  13.319
55349W        W23754  21.543  10.257  13.350
55350W        W23755   4.803  20.465  13.317
55351W        W23756  40.117  37.902   0.835
55352W        W23757   1.822  38.165   0.388
55353W        W23758   1.697  22.180  13.912
55354W        W23759  24.244   8.254  10.720
55355W        W23760  24.602  10.619   0.605
55356W        W23761   8.430  32.327   4.135
55357W        W23762  44.033   5.912  13.400
55358W        W23763  40.341  23.708  11.211
55359W        W23764  22.440  42.098  13.011
55360W        W23765  32.047  14.218   4.458
55361W        W23766   4.727  19.555  12.194
55362W        W23767  40.885  10.262   1.583
55363W        W23768   0.925  27.801  12.370
55364W        W23769  19.590  19.211   3.201
55365W        W23770  18.383  18.555  13.427
55366W        W23771  31.672  19.936  10.820
55367W        W23772   3.665  44.759  11.083
55368W        W23773  16.265  24.123   4.967
55369W        W23774  35.469  25.197   4.373
55370W        W23775  15.858  40.366   1.637
55371W        W23776  36.538  21.932  13.416
55372W        W23777  10.428  15.024   3.138
55373W        W23778  33.923  40.776  11.632
55374W        W23779   8.166   5.904   5.137
55375W        W23780  29.951   6.034   4.074
55376W        W23781  22.674  13.576   2.831
55377W        W23782  44.056   5.587   4.260
55378W        W23783   0.558  14.668  14.858
55379W        W23784   0.794  44.186  14.503
55380W        W23785   8.507  42.134  13.129
55381W        W23786  44.347  11.908  13.625
55382W        W23787  37.900   8.379   1.157
55383W        W23788  37.324   0.523  11.846
55384W        W23789   0.908   0.446  12.024
55385W        W23790   8.129  42.882  13.502
55386W        W23791   9.817  34.375   4.281
55387W        W23792  36.865  17.014  13.852
55388W        W23793   7.345   4.580  11.572
55389W        W23794   0.359  19.494   4.643
55390W        W23795   3.754  37.043  11.412
55391W        W23796  10.836  23.634   1.646
55392W        W23797  10.154  28.350   0.126
55393W        W23798  30.285   5.258  14.377
55394W        W23799  21.956   5.232   0.034
55395W        W23800  32.422   9.602   2.896
55396W        W23801  30.168   0.350   0.873
55397W        W23802   3.264  17.764  11.442
55398W        W23803   5.423  13.653  11.112
55399W        W23804  15.614   7.809   3.120
55400W        W23805   1.889   0.428   1.424
55401W        W23806   8.779  39.414  12.465
55402W        W23807   1.344  39.137  13.022
55403W        W23808  44.735  44.982  12.136
55404W        W23809  14.168   9.601   0.805
55405W        W23810  33.553  44.349   2.554
55406W        W23811  14.430  29.739   4.165
55407W        W23812  41.082   8.700  10.324
55408W        W23813  41.826  11.468   0.468
55409W        W23814  22.519  25.233  10.727
55410W        W23815  43.286  14.257  14.570
55411W        W23816  38.858  10.350   0.383
55412W        W23817   7.623  15.773   4.033
55413W        W23818  12.756  28.131  14.272
55414W        W23819  34.460   1.734   1.062
55415W        W23820   9.833  39.582  12.434
55416W        W23821  42.752  20.609   0.352
55417W        W23822   4.777   3.935   3.616
55418W        W23823  12.378  16.656  14.908
55419W        W23824  12.407   3.633   3.239
55420W        W23825  39.397   0.295   2.202
55421W        W23826  40.387  21.229   0.933
55422W        W23827  23.437  32.471  10.755
55423W        W23828  27.134   9.821   1.139
55424W        W23829  34.529  34.979   3.261
55425W        W23830   5.924   0.336  14.788
55426W        W23831  30.510  32.125  13.051
55427W        W23832  34.753   4.850  11.221
55428W        W23833  27.558  21.516  12.053
55429W        W23834  29.961   3.327   0.881
55430W        W23835  32.560  25.188  11.447
55431W        W23836  22.048  25.315   4.912
55432W        W23837  20.792  38.496   4.227
55433W        W23838   5.385   8.441   0.431
55434W        W23839  34.976  44.973   2.779
55435W        W23840  25.541  31.788   4.600
55436W        W23841   6.140  41.607  11.235
55437W        W23842  33.656  24.239   3.731
55438W        W23843  35.995   4.773  13.065
55439W        W23844  22.841   2.449  12.688
55440W        W23845  11.293  35.804   0.892
55441W        W23846  18.146  43.602  14.309
55442W        W23847  42.766  42.749   4.961
55443W        W23848  39.541  43.317  13.962
55444W        W23849  14.011  20.740   1.802
55445W        W23850  25.280  31.854   0.778
55446W        W23851  32.426  10.677  11.452
55447W        W23852  40.323  39.674  13.349
55448W        W23853  14.812   2.059  11.176
55449W        W23854  37.815  40.370  10.325
55450W        W23855   9.898  40.067   3.659
55451W        W23856   9.334  34.545  12.456
55452W        W23857  25.934  32.269  11.211
55453W        W23858  11.599   4.723  11.299
55454W        W23859   9.766   0.290  10.112
55455W        W23860  19.752  11.297   2.268
55456W        W23861   0.615  20.102  13.447
55457W        W23862   9.259  16.657   3.607
55458W        W23863  41.703  41.294   1.708
55459W        W23864   2.318   3.665  10.280
55460W        W23865  37.331  11.392  14.455
55461W        W23866  19.054  26.551   4.567
55462W        W23867  25.677  36.902  10.815
55463W        W23868   1.978   1.660  12.655
55464W        W23869  13.704  20.772   3.727
55465W        W23870  40.755  12.007   0.386
55466W        W23871  34.915  40.864  11.628
55467W        W23872  18.076  40.352  14.692
55468W        W23873  28.140   1.468   3.249
55469W        W23874  30.142   0.287  12.916
55470W        W23875  38.453  39.284  13.735
55471W        W23876  31.974   6.472   2.484
55472W        W23877   3.145  43.418   1.259
55473W        W23878  40.918  16.107   3.088
55474W        W23879  11.307  38.341  14.312
55475W        W23880   9.820   4.935  13.887
55476W        W23881   7.718  39.836   0.610
55477W        W23882  24.189  26.870   2.347
55478W        W23883  21.544  36.674  14.508
55479W        W23884  14.111  15.234   1.231
55480W        W23885  26.705   8.076  12.946
55481W        W23886  13.344   4.722   1.689
55482W        W23887  20.056   9.766  12.566
55483W        W23888  25.423  33.438   2.699
55484W        W23889  13.133  20.128   1.659
55485W        W23890  42.095  31.157   0.894
55486W        W23891  33.085  20.313   4.642
55487W        W23892  27.564  40.908  12.367
55488W        W23893  19.691   1.845  12.361
55489W        W23894  32.059  44.006  11.651
55490W        W23895  35.901  20.582   1.478
55491W        W23896   7.867   8.311  14.340
55492W        W23897  37.049   8.425  13.817
55493W        W23898  36.815  16.287  12.073
55494W        W23899  35.623  38.496   1.738
55495W        W23900  33.570  26.006   1.879
55496W        W23901  30.412  41.122  10.016
55497W        W23902   5.511   9.117   1.786
55498W        W23903  15.734  21.020   4.102
55499W        W23904  13.340  13.477   0.777
55500W        W23905  27.544  30.404  13.619
55501W        W23906  26.072  35.073   3.349
55502W        W23907  37.065  19.297  12.037
55503W        W23908   4.730  39.586  12.647
55504W        W23909  37.933  11.093   1.817
55505W        W23910   2.122   6.643  13.781
55506W        W23911  18.134  38.999  11.575
55507W        W23912  14.622  17.260   2.372
55508W        W23913  34.168   0.074   3.915
55509W        W23914  37.080  33.037   3.909
55510W        W23915  36.316  17.553   2.126
55511W        W23916  20.183   5.407  13.471
55512W        W23917  15.552  17.216   0.240
55513W        W23918  27.994  28.052   3.974
55514W        W23919  20.820  44.190   0.065
55515W        W23920  28.506  38.519  10.950
55516W        W23921   3.932  27.227   2.917
55517W        W23922  19.449   8.590   1.518
55518W        W23923  19.097  29.643   2.630
55519W        W23924  18.056  27.633   4.079
55520W        W23925  31.640   8.012   2.907
55521W        W23926  29.629  44.605   4.533
55522W        W23927  11.892  33.008  13.940
55523W        W23928  25.994  14.201   0.904
55524W        W23929  18.489  39.395   3.195
55525W        W23930  17.099  24.820   1.391
55526W        W23931  37.788   5.041  13.291
55527W        W23932   7.172  34.422   2.184
55528W        W23933   6.653  14.342   2.414
55529W        W23934  20.643   3.276   5.242
55530W        W23935  20.814  12.549   3.233
55531W        W23936  22.822  23.347   4.079
55532W        W23937  14.150  43.694  12.580
55533W        W23938  44.051  21.451  12.198
55534W        W23939  41.547  44.724  11.158
55535W        W23940  19.274  29.235  11.608
55536W        W23941   2.739  31.061   0.384
55537W        W23942  18.098   1.976   2.621
55538W        W23943  29.087  25.711  13.125
55539W        W23944  35.399  14.964  13.830
55540W        W23945  28.963  41.518  11.419
55541W        W23946   1.950  38.617   2.583
55542W        W23947  14.652  29.558  14.029
55543W        W23948  41.787  17.151   4.910
55544W        W23949  18.236  13.803  14.423
55545W        W23950   0.371  41.050   2.295
55546W        W23951   4.134  13.504   0.772
55547W        W23952  30.730   6.522   2.647
55548W        W23953   4.528  40.008  14.748
55549W        W23954   2.525  22.866   2.348
55550W        W23955  29.381   1.335   0.992
55551W        W23956  36.321  15.190   3.803
55552W        W23957  32.456  27.963   1.860
55553W        W23958  33.150  24.182   4.582
55554W        W23959  37.131  17.185  12.792
55555W        W23960  37.419  22.772  11.846
55556W        W23961  15.264  26.482  12.298
55557W        W23962  35.140  31.705  13.874
55558W        W23963   4.694  44.346   0.430
55559W        W23964  11.225  32.525   1.870
55560W        W23965  35.012   3.337  13.380
55561W        W23966  20.256  32.762   1.877
55562W        W23967  30.444  15.034   2.325
55563W        W23968  35.442  19.595  10.766
55564W        W23969  34.891  42.891  11.532
55565W        W23970   8.917  38.350  12.177
55566W        W23971   9.447  29.754   1.297
55567W        W23972   4.671  44.516   2.888
55568W        W23973  22.014  41.606  13.189
55569W        W23974   7.271  11.833  12.166
55570W        W23975  17.326   8.492  14.445
55571W        W23976   5.232   0.877   1.713
55572W        W23977  13.842  16.815  11.760
55573W        W23978  14.724  29.881   1.372
55574W        W23979   7.820  11.359  10.681
55575W        W23980  17.530  15.624  14.388
55576W        W23981  37.916  36.689   2.700
55577W        W23982   2.157   6.367  12.535
55578W        W23983  25.964  26.617   3.658
55579W        W23984  14.443   9.599  13.074
55580W        W23985  15.315  31.111   4.204
55581W        W23986  21.542  24.929  11.684
55582W        W23987  28.043   4.969  12.323
55583W        W23988  37.798  24.139  12.523
55584W        W23989  33.411  43.968   4.743
55585W        W23990  30.531  40.524   0.749
55586W        W23991  10.274   2.198  10.634
55587W        W23992   0.024   1.417   1.266
55588W        W23993  37.461   4.831   3.251
55589W        W23994  18.009   9.989   3.783
55590W        W23995  29.515  28.511  11.707
55591W        W23996  21.987  12.808  13.102
55592W        W23997   5.383  21.803   4.055
55593W        W23998   0.036  21.585   1.763
55594W        W23999  22.500  30.176  12.664
55595W        W24000  28.960   5.289  12.130
55596W        W24001  35.002   7.991  14.965
55597W        W24002  29.503  35.839   2.732
55598W        W24003   3.720   4.315  10.623
55599W        W24004  40.899  19.804  11.460
55600W        W24005   2.369  25.603   0.698
55601W        W24006  33.127   4.822   2.397
55602W        W24007  26.486  44.903   4.532
55603W        W24008  13.657  33.214  11.952
55604W        W24009  19.758  12.117  14.807
55605W        W24010  23.702   8.744  12.824
55606W        W24011  37.416  33.912   4.139
55607W        W24012  31.576  10.050   4.199
55608W        W24013  12.590  24.630   2.467
55609W        W24014   0.899   4.165   1.253
55610W        W24015  27.534  18.924   3.309
55611W        W24016  32.086  35.478   4.590
55612W        W24017  38.996  25.362  14.352
55613W        W24018   5.325   6.298  11.459
55614W        W24019  40.466  27.960  12.507
55615W        W24020  25.059  18.971  10.503
55616W        W24021  39.160  29.477   0.802
55617W        W24022   5.000  35.910   4.800
55618W        W24023  26.710  24.155   4.692
55619W        W24024   0.346  40.331  14.534
55620W        W24025  43.539   1.663   3.720
55621W        W24026  30.962  13.170  13.726
55622W        W24027  25.458  40.071   4.571
55623W        W24028   2.773  20.152  11.935
55624W        W24029  18.461  14.343   2.733
55625W        W24030   6.129  27.303  11.081
55626W        W24031  31.119  16.464   4.631
55627W        W24032   4.381  26.386   1.277
55628W        W24033  26.175  42.026  13.513
55629W        W24034   9.383   0.179   3.800
55630W        W24035  41.942  11.837  11.490
55631W        W24036  39.553  35.963  11.618
55632W        W24037   0.780  21.679   3.201
55633W        W24038   7.311  29.601  13.769
55634W        W24039  11.516  38.595   0.948
55635W        W24040  25.997  24.180  11.064
55636W        W24041   7.638  23.043  12.050
55637W        W24042  23.482  26.022   1.048
55638W        W24043   8.836  36.514   2.653
55639W        W24044  35.968   9.000   3.800
55640W        W24045  13.732  43.787   0.385
55641W        W24046  29.021  13.827  14.370
55642W        W24047   3.471  41.030   4.863
55643W        W24048   4.023  13.269   1.824
55644W        W24049  14.313  38.935   3.222
55645W        W24050  26.465  17.976   4.220
55646W        W24051  34.866  22.249   4.273
55647W        W24052   9.698  20.504   0.721
55648W        W24053  36.698  37.345   0.749
55649W        W24054  42.826  15.543  11.155
55650W        W24055   7.176   7.797   4.664
55651W        W24056  23.064  42.309   4.145
55652W        W24057   4.705   5.975   0.304
55653W        W24058  26.070   1.763  13.371
55654W        W24059  29.288  21.570  10.760
55655W        W24060  42.318  19.378   4.110
55656W        W24061  40.882   0.476  14.911
55657W        W24062  16.780   3.453  14.074
55658W        W24063   2.760  33.605   2.378
55659W        W24064   1.376  29.737  11.115
55660W        W24065  32.443  31.962   3.832
55661W        W24066  25.351  18.051  10.720
55662W        W24067  23.969  27.217  12.726
55663W        W24068  35.448  37.449   1.911
55664W        W24069  34.055  22.424   0.317
55665W        W24070  23.575  11.832   2.629
55666W        W24071  24.964   6.625   2.648
55667W        W24072   4.906  30.086   9.926
55668W        W24073  24.063  33.154  13.897
55669W        W24074   4.396   6.670  14.474
55670W        W24075  39.868   5.896  13.276
55671W        W24076  42.257  33.150  14.738
55672W        W24077  20.760  23.836   4.969
55673W        W24078  24.193  42.725  12.105
55674W        W24079  31.865  29.997   4.213
55675W        W24080  34.503  26.561   4.113
55676W        W24081  31.373  25.512  13.384
55677W        W24082  10.992  37.503  14.843
55678W        W24083  39.538  24.980  13.658
55679W        W24084  26.198  19.557  11.960
55680W        W24085  39.512   3.200  13.396
55681W        W24086  43.661  29.466  13.196
55682W        W24087  13.850   4.087  14.363
55683W        W24088  11.033   0.949   1.527
55684W        W24089  17.658  20.721   1.425
55685W        W24090  22.750   5.967   1.383
55686W        W24091  32.061  31.543  13.705
55687W        W24092  44.294  30.374  14.404
55688W        W24093  37.567  32.890   0.689
55689W        W24094   4.120   4.466  14.262
55690W        W24095  10.341  33.176  14.880
55691W        W24096   2.753  22.222  14.710
55692W        W24097  32.917   0.745  11.087
55693W        W24098   3.642  16.232  10.402
55694W        W24099  14.988   8.280   2.276
55695W        W24100  27.005  20.875  12.614
55696W        W24101   0.410  43.390   3.911
55697W        W24102   8.927  14.153   3.118
55698W        W24103   9.924  15.097   2.981
55699W        W24104   8.220  32.050   4.538
55700W        W24105  13.798  24.304   1.979
55701W        W24106   0.900  39.369  13.031
55702W        W24107  17.067  27.668  12.472
55703W        W24108  44.270  32.569  13.917
55704W        W24109  35.358  17.184  13.855
55705W        W24110  25.169  31.621   3.233
55706W        W24111   7.303  41.459  12.931
55707W        W24112   2.978  37.157   3.261
55708W        W24113  12.805  19.571   0.861
55709W        W24114  24.761   8.238  10.893
55710W        W24115  21.529  11.152  13.859
55711W        W24116   2.988  34.323  11.227
55712W        W24117   4.223  29.606  11.672
55713W        W24118   8.289   5.605  11.949
55714W        W24119  33.456  17.853  11.643
55715W        W24120  25.928  23.409   2.858
55716W        W24121  10.819  11.759  11.711
55717W        W24122  20.146  13.199   2.201
55718W        W24123  23.066  26.014   4.780
55719W        W24124  36.930  12.610  13.477
55720W        W24125  35.622  12.262  11.576
55721W        W24126  14.671  22.713  14.387
55722W        W24127   2.502  14.504   1.332
55723W        W24128  23.244  22.283  13.795
55724W        W24129  26.623   8.453   0.274
55725W        W24130  43.700  37.200  10.267
55726W        W24131  19.550  39.951   3.600
55727W        W24132  16.257  14.669  12.924
55728W        W24133   2.316   1.950   3.676
55729W        W24134  23.661  36.502  11.891
55730W        W24135  35.211  25.588  12.905
55731W        W24136  29.235   1.749  10.777
55732W        W24137  26.644  20.087   4.576
55733W        W24138  44.439  32.412   0.252
55734W        W24139  17.431  34.678   5.018
55735W        W24140  15.300  32.012  12.861
55736W        W24141  25.591  34.822   4.361
55737W        W24142  18.159  11.330   9.938
55738W        W24143  11.334  40.025  13.551
55739W        W24144  30.500  31.983   2.340
55740W        W24145  21.620   0.422  12.869
55741W        W24146  28.510   6.382  12.133
55742W        W24147   4.988   3.733  12.664
55743W        W24148   9.154   4.755   1.415
55744W        W24149   3.375  17.575  12.910
55745W        W24150   7.468  26.963   4.533
55746W        W24151   2.852  12.748  14.573
55747W        W24152  34.375  16.599   0.421
55748W        W24153  31.675  10.110  11.168
55749W        W24154   5.184  22.781   0.204
55750W        W24155  20.855  39.891   4.480
55751W        W24156  30.571  21.373   5.101
55752W        W24157  37.781   2.760   2.440
55753W        W24158  42.493  10.697  14.733
55754W        W24159  23.848  17.739   3.680
55755W        W24160   1.289  37.358   2.722
55756W        W24161   5.796  35.346   3.327
55757W        W24162  20.093  40.740   0.635
55758W        W24163   4.315   5.708  12.580
55759W        W24164  17.550  14.501  12.444
55760W        W24165  14.037  39.071   0.055
55761W        W24166   4.126  41.053   0.328
55762W        W24167  20.062  13.072  13.949
55763W        W24168  30.540  27.503  12.950
55764W        W24169   3.278   2.227   1.385
55765W        W24170  43.407  23.479   1.764
55766W        W24171  37.408  41.056  12.681
55767W        W24172   3.232  37.942  11.658
55768W        W24173  36.239  10.064   3.464
55769W        W24174  27.484   3.202  13.500
55770W        W24175  11.979  23.622  12.572
55771W        W24176  24.041  26.692  10.976
55772W        W24177  19.590  22.275  12.779
55773W        W24178  32.340  26.370   1.936
55774W        W24179   5.401  11.921   4.518
55775W        W24180  15.412  32.077   1.930
55776W        W24181  34.784  13.442  10.885
55777W        W24182  41.528  15.129   3.317
55778W        W24183  20.322  33.622  13.794
55779W        W24184  35.853  38.846  14.370
55780W        W24185   9.315  27.356  14.967
55781W        W24186  36.187   4.678   0.661
55782W        W24187  15.882   1.917   5.650
55783W        W24188  40.823   9.671   4.333
55784W        W24189  29.161  18.023  14.087
55785W        W24190  17.014  42.862   4.535
55786W        W24191  25.536   1.672   2.845
55787W        W24192   9.477   8.491   2.240
55788W        W24193  10.350  12.426   2.859
55789W        W24194  42.000   4.311  11.254
55790W        W24195   3.197  34.663  13.362
55791W        W24196  28.717  27.262  13.761
55792W        W24197  10.768  27.676   1.827
55793W        W24198   0.297   8.757  14.514
55794W        W24199  33.479   1.084   5.108
55795W        W24200  12.162  27.892  11.294
55796W        W24201   7.503  11.851  14.470
55797W        W24202  43.245  38.019  11.185
55798W        W24203  10.927  14.555  14.361
55799W        W24204   9.023  36.937   1.342
55800W        W24205  34.941  19.726   3.438
55801W        W24206   3.169  31.234   4.634
55802W        W24207  22.359   4.837  10.664
55803W        W24208   0.897  39.466   2.095
55804W        W24209  12.370  14.354   3.053
55805W        W24210   1.036  16.223  14.728
55806W        W24211  22.054  43.320   4.368
55807W        W24212  15.122  11.976  13.767
55808W        W24213   8.378  29.788   2.166
55809W        W24214  20.503  36.146  14.820
55810W        W24215  26.665  39.854  14.108
55811W        W24216  18.772  18.435  10.718
55812W        W24217  18.261  34.737   2.679
55813W        W24218  44.789  13.307  14.827
55814W        W24219  41.658   3.771   5.574
55815W        W24220   5.557  16.291   2.142
55816W        W24221   9.929  31.853   0.410
55817W        W24222  42.508  32.460   3.140
55818W        W24223  19.536  25.481   2.597
55819W        W24224  16.445   9.576   3.787
55820W        W24225  37.131  24.929  11.674
55821W        W24226  13.421  17.065  11.999
55822W        W24227  18.498  31.043   2.434
55823W        W24228  28.196  22.096   3.202
55824W        W24229  10.192  20.756  14.884
55825W        W24230  12.795  39.802  14.112
55826W        W24231  20.124  40.878  10.628
55827W        W24232  11.142  19.104  11.732
55828W        W24233  12.180  35.350  11.888
55829W        W24234  31.042   2.803   3.698
55830W        W24235  12.631   0.028  11.632
55831W        W24236  35.121  41.341   1.889
55832W        W24237  35.040   9.589   4.546
55833W        W24238  26.411   9.851  11.256
55834W        W24239  41.899  29.908  10.538
55835W        W24240  27.540   5.273   3.982
55836W        W24241  29.491   1.340  14.254
55837W        W24242   3.352  30.152  12.138
55838W        W24243  15.559   0.254  11.792
55839W        W24244  26.143  24.301   0.305
55840W        W24245  33.382  19.569  10.509
55841W        W24246   9.964  37.062   2.334
55842W        W24247   2.685  37.825   2.787
55843W        W24248  35.593   0.973   3.204
55844W        W24249  40.429  36.975  12.827
55845W        W24250  14.627  22.035  10.760
55846W        W24251   7.350  41.621  14.261
55847W        W24252   8.076  32.674   4.351
55848W        W24253  16.650  43.116  14.991
55849W        W24254  24.955   7.266  13.583
55850W        W24255  29.894  33.915   2.371
55851W        W24256   0.882   7.754  12.252
55852W        W24257  39.924  31.374  11.455
55853W        W24258   2.741  26.441   4.417
55854W        W24259  36.443  24.486  13.789
55855W        W24260   5.148  19.705  13.899
55856W        W24261   9.826  23.036   1.366
55857W        W24262  38.775   8.724   2.349
55858W        W24263   9.964  30.865  11.989
55859W        W24264  44.292   5.385  12.048
55860W        W24265  18.371  33.813  13.325
55861W        W24266  23.958  14.332   4.596
55862W        W24267  36.410   6.956   2.335
55863W        W24268   8.103   3.923   2.298
55864W        W24269  30.610  16.636  14.409
55865W        W24270  36.440  25.811  13.868
55866W        W24271  29.462   5.434   3.299
55867W        W24272   4.717   8.876   1.681
55868W        W24273  39.383  36.397   3.924
55869W        W24274   6.149   4.706   4.434
55870W        W24275  10.827   3.465   2.254
55871W        W24276  37.239  27.864  13.004
55872W        W24277  10.871  32.084   1.907
55873W        W24278  16.150   3.185  12.507
55874W        W24279   9.781  38.594  12.651
55875W        W24280   6.630  23.125   4.820
55876W        W24281  17.054  32.500   4.055
55877W        W24282   6.900  21.685   1.349
55878W        W24283  26.720  29.042  12.403
55879W        W24284  21.567  21.202   1.430
55880W        W24285  29.509  19.493   0.744
55881W        W24286  17.037  41.671   0.389
55882W        W24287  32.444  41.325   2.269
55883W        W24288  16.661  40.044  12.016
55884W        W24289  33.528   2.317  12.083
55885W        W24290  27.316  36.383   4.249
55886W        W24291  28.168  30.950   0.437
55887W        W24292  31.155  30.980   3.842
55888W        W24293  41.804   3.457  11.062
55889W        W24294  12.023  11.664  13.121
55890W        W24295  28.115  14.792  11.176
55891W        W24296  44.466  20.787  12.611
55892W        W24297  16.815   2.674   9.947
55893W        W24298   7.179  38.518   2.746
55894W        W24299   7.273  26.780   3.280
55895W        W24300  39.054   3.937   1.264
55896W        W24301  25.710   6.359   4.171
55897W        W24302  32.961  24.685   2.451
55898W        W24303  27.160  21.068   2.250
55899W        W24304  10.713  32.576  10.552
55900W        W24305  18.413  40.490  14.311
55901W        W24306  17.073  24.459  10.853
55902W        W24307  23.177  19.848   2.837
55903W        W24308  42.884  37.483   2.413
55904W        W24309  33.725  13.243  12.520
55905W        W24310  24.643  37.134  10.435
55906W        W24311  34.148  44.234   0.654
55907W        W24312  36.647   9.828  10.816
55908W        W24313  22.229   9.240   3.818
55909W        W24314  39.126  15.719  12.937
55910W        W24315   5.506   4.691  14.554
55911W        W24316  10.618  39.317   0.247
55912W        W24317  40.539  27.468   4.075
55913W        W24318  21.952   3.246  12.464
55914W        W24319  38.565  33.419  12.095
55915W        W24320   9.753  39.433  14.273
55916W        W24321  15.373   4.954   4.171
55917W        W24322  35.278  40.554  14.908
55918W        W24323  10.195  26.146   1.225
55919W        W24324  22.017  36.670   1.963
55920W        W24325  20.990  43.689  14.348
55921W        W24326   3.827  44.156   4.876
55922W        W24327  24.164   1.139  12.913
55923W        W24328  12.257   7.751   0.320
55924W        W24329   9.354  36.370  14.956
55925W        W24330  11.603  18.244   1.773
55926W        W24331  25.154  36.537   2.853
55927W        W24332  38.658  39.330   3.141
55928W        W24333  38.979  29.947  12.978
55929W        W24334  10.182  12.832   4.121
55930W        W24335  29.751  11.007  10.376
55931W        W24336   3.502  26.608   0.256
55932W        W24337  43.405  36.441   4.322
55933W        W24338   7.294  30.234  11.050
55934W        W24339  20.870  33.132   2.413
55935W        W24340  34.477  15.694  14.444
55936W        W24341  25.947   9.179   0.285
55937W        W24342  44.700   9.344   4.213
55938W        W24343  44.730  13.823  11.353
55939W        W24344  18.020  29.860   2.274
55940W        W24345  27.008  18.040  14.749
55941W        W24346  32.433  27.643  11.393
55942W        W24347  34.358  22.167   4.194
55943W        W24348   7.215  14.608   2.706
55944W        W24349  15.935   0.121  10.013
55945W        W24350  31.615  21.576  12.020
55946W        W24351  35.547  35.590   0.718
55947W        W24352  22.797  25.920  12.372
55948W        W24353  30.995  34.494   0.112
55949W        W24354   9.215  33.979  10.643
55950W        W24355  29.065  18.416  10.147
55951W        W24356  40.837  23.108  10.906
55952W        W24357   9.328  24.417   3.099
55953W        W24358  24.920  38.972  12.772
55954W        W24359  15.923  31.727   4.308
55955W        W24360  32.553  27.946   4.607
55956W        W24361  10.667   3.819   2.635
55957W        W24362  19.571  40.840   3.388
55958W        W24363  31.442  30.885  12.554
55959W        W24364   2.946  42.027   0.836
55960W        W24365   7.356   7.994   1.511
55961W        W24366  21.995  26.587  14.875
55962W        W24367   6.512   1.021   2.722
55963W        W24368  36.430  16.561   2.385
55964W        W24369  41.737  39.145  13.202
55965W        W24370  40.976  41.748   3.287
55966W        W24371  39.829  40.438   4.680
55967W        W24372  27.045  17.646   1.897
55968W        W24373  23.550  18.652   2.779
55969W        W24374  11.924  11.134  11.532
55970W        W24375  29.908  42.799  10.654
55971W        W24376  10.331  22.404  13.872
55972W        W24377   8.334   7.097  10.706
55973W        W24378  41.111  25.641  11.659
55974W        W24379  13.737  14.329   0.959
55975W        W24380  15.631  23.005   1.195
55976W        W24381  28.221  25.656   5.108
55977W        W24382  28.705  40.772   3.175
55978W        W24383   6.314  40.371  11.612
55979W        W24384  16.587   4.368   0.272
55980W        W24385  33.492  17.379   3.147
55981W        W24386  40.572  10.178   3.283
55982W        W24387   1.281  30.974   2.849
55983W        W24388  33.050  15.305   2.273
55984W        W24389   6.185   6.547  10.236
55985W        W24390  31.163  41.793   4.586
55986W        W24391  38.022   3.358  11.756
55987W        W24392   7.874  37.990   1.840
55988W        W24393  21.517  19.644   0.438
55989W        W24394  29.507   7.552  11.023
55990W        W24395   4.170   0.278   2.223
55991W        W24396   4.378  22.319  14.408
55992W        W24397  30.224  17.829  11.108
55993W        W24398  11.913  36.028  10.962
55994W        W24399  42.202  23.046   0.967
55995W        W24400  31.920  41.994   0.635
55996W        W24401  10.908  21.301   0.267
55997W        W24402  39.888  11.692   2.824
55998W        W24403  43.547  33.648  13.517
55999W        W24404  35.403  41.257  13.727
56000W        W24405  16.603  14.269  14.778
56001W        W24406  34.130   7.675   0.174
56002W        W24407  26.582  20.476   3.251
56003W        W24408  32.103   8.856   1.155
56004W        W24409  14.757  41.539   0.370
56005W        W24410  31.908  29.233   3.712
56006W        W24411   1.253   2.620  13.782
56007W        W24412  29.912  34.069   1.840
56008W        W24413  21.785  32.538  14.438
56009W        W24414   0.491  36.168   3.741
56010W        W24415   5.688  33.947   2.274
56011W        W24416  23.074   9.003   0.881
56012W        W24417   6.763  23.783  12.397
56013W        W24418   2.965  28.369  14.331
56014W        W24419  16.784   2.915  13.973
56015W        W24420   5.289  10.371  12.416
56016W        W24421   4.380  34.147  13.315
56017W        W24422  43.749  37.171   4.920
56018W        W24423   7.622   1.469   3.945
56019W        W24424  21.729  36.236   2.126
56020W        W24425  15.766  31.243   0.327
56021W        W24426  16.724  17.036   0.943
56022W        W24427  26.043  36.538   2.955
56023W        W24428  43.785  43.528  11.594
56024W        W24429   7.597   1.974  12.906
56025W        W24430   4.802  32.790   4.521
56026W        W24431  42.640  19.650   0.414
56027W        W24432   3.734  20.090  14.502
56028W        W24433  14.825   6.503  12.371
56029W        W24434   1.423  15.781   4.487
56030W        W24435  13.900   7.727   3.672
56031W        W24436  22.000  44.252   3.197
56032W        W24437  43.257  28.028   4.113
56033W        W24438  42.146  39.006   3.967
56034W        W24439  42.516   4.458   1.428
56035W        W24440  36.644  40.344  12.461
56036W        W24441   6.355  12.384   3.304
56037W        W24442  25.354   5.783  11.675
56038W        W24443  39.243   5.710   3.746
56039W        W24444  13.309  20.030   4.229
56040W        W24445   3.443  11.135  12.210
56041W        W24446  15.544  38.209   3.757
56042W        W24447  36.676  38.399   1.857
56043W        W24448   8.813  15.151  11.371
56044W        W24449  34.439  43.174  14.710
56045W        W24450  35.942   8.329   3.439
56046W        W24451  35.151  35.195   3.058
56047W        W24452  16.864  14.970   2.328
56048W        W24453  10.570   1.360   4.074
56049W        W24454   3.861  31.077   3.936
56050W        W24455  21.079  23.660  13.090
56051W        W24456  35.847  39.010  10.740
56052W        W24457  28.896  35.928   0.751
56053W        W24458   1.013  39.979  12.562
56054W        W24459  12.159  14.373  13.929
56055W        W24460  37.241  17.515  13.168
56056W        W24461  25.716   1.181   3.688
56057W        W24462   3.975  20.184  10.672
56058W        W24463  32.987  29.680  14.277
56059W        W24464   3.340  31.124   3.003
56060W        W24465  40.968  29.827  14.754
56061W        W24466  21.655   0.336  13.395
56062W        W24467  26.577  39.531  13.685
56063W        W24468   1.997  15.705  12.474
56064W        W24469  11.125  34.583  14.406
56065W        W24470   3.293   2.989  12.494
56066W        W24471  29.535  20.234  11.635
56067W        W24472  27.544   0.759  12.747
56068W        W24473  14.799   7.918  11.009
56069W        W24474  32.380  20.524  12.124
56070W        W24475   9.237  31.722  11.645
56071W        W24476  14.021  35.348   4.253
56072W        W24477   6.306  39.096   3.552
56073W        W24478   3.310   0.276   2.778
56074W        W24479  15.432  12.364   3.180
56075W        W24480  19.359  26.146  10.697
56076W        W24481  11.539  26.477   1.585
56077W        W24482  28.384  14.196   3.586
56078W        W24483  38.975  12.559  14.881
56079W        W24484  34.320   5.793  11.107
56080W        W24485   9.224  43.539  14.822
56081W        W24486  14.775  43.423   0.219
56082W        W24487   6.434  19.068  11.220
56083W        W24488   8.729  15.054  13.500
56084W        W24489  10.697  17.212   5.221
56085W        W24490  28.648  24.222   2.799
56086W        W24491  31.608   2.898  14.650
56087W        W24492  33.396  16.516  10.441
56088W        W24493  27.659  15.078   9.957
56089W        W24494  39.599  15.823  12.764
56090W        W24495   5.843   7.274  11.628
56091W        W24496   0.756  13.193   1.125
56092W        W24497   8.768   4.972   3.245
56093W        W24498  44.843  21.789  13.311
56094W        W24499  22.064  41.737   1.346
56095W        W24500  33.933  28.860  12.979
56096W        W24501   7.493  44.588  14.377
56097W        W24502   1.093   8.211  12.134
56098W        W24503  29.131   6.226  12.500
56099W        W24504   6.597  16.244   0.465
56100W        W24505  40.428  17.141   2.041
56101W        W24506  16.233  30.911   3.210
56102W        W24507  21.626   3.263   2.780
56103W        W24508  19.171  28.558   0.915
56104W        W24509  20.879  13.602  11.081
56105W        W24510  28.453   7.291  10.805
56106W        W24511  41.903  29.441   1.283
56107W        W24512   8.898  10.693  10.861
56108W        W24513  32.448  17.592   3.083
56109W        W24514  38.968  11.459   3.809
56110W        W24515  24.282  15.449   4.658
56111W        W24516  11.713  35.573  11.135
56112W        W24517   8.794  23.670   1.786
56113W        W24518  44.954  34.509  11.868
56114W        W24519  36.721   8.716  11.250
56115W        W24520  23.262  13.334  12.794
56116W        W24521  29.074   8.477   2.384
56117W        W24522  39.856  33.991  13.983
56118W        W24523  23.498  25.643   4.494
56119W        W24524  24.677  20.939   0.872
56120W        W24525  38.983  29.540  12.043
56121W        W24526  17.594  30.548  11.595
56122W        W24527   8.302  30.292   2.223
56123W        W24528   5.557  44.620   0.031
56124W        W24529  18.662  44.903   0.430
56125W        W24530  42.820  37.411  14.730
56126W        W24531  16.986  15.793  13.392
56127W        W24532  22.524  14.314  11.627
56128W        W24533  33.089  23.559  11.861
56129W        W24534  44.426  36.079   2.339
56130W        W24535  41.791  31.303   0.475
56131W        W24536  18.615  25.413   2.307
56132W        W24537  23.243  24.663   1.777
56133W        W24538  26.027  40.538   0.220
56134W        W24539  43.786   3.162   1.356
56135W        W24540  16.491  30.619   2.853
56136W        W24541  41.873  24.649   4.551
56137W        W24542  41.351  28.768   2.681
56138W        W24543  25.212  36.550  13.921
56139W        W24544   9.358   3.529   4.520
56140W        W24545  32.356  26.890   1.907
56141W        W24546  24.584  36.981   4.254
56142W        W24547  21.032  16.381  11.139
56143W        W24548  22.961  22.058   2.812
56144W        W24549   9.103  22.017  12.175
56145W        W24550   9.086  38.967  14.929
56146W        W24551  28.977  39.507  11.392
56147W        W24552  17.062  39.751  11.895
56148W        W24553   4.414  32.353   4.019
56149W        W24554   8.059  33.904   4.557
56150W        W24555  35.600  40.964   0.846
56151W        W24556  17.222  33.038   4.100
56152W        W24557  15.693  41.302   1.953
56153W        W24558  31.497  14.211   1.841
56154W        W24559  40.851  28.603  11.505
56155W        W24560  11.541  40.461   1.443
56156W        W24561  44.128  30.195  14.923
56157W        W24562   2.188  31.658   2.486
56158W        W24563  15.407  14.546   3.741
56159W        W24564  20.528  38.367   3.797
56160W        W24565  43.659  43.911   0.562
56161W        W24566  30.820  19.468  13.440
56162W        W24567  41.758  35.609  11.350
56163W        W24568  14.691   8.911   5.098
56164W        W24569  22.725   7.826   4.365
56165W        W24570  40.555   2.258  13.071
56166W        W24571   8.892  11.379  12.452
56167W        W24572  25.104   4.950  14.344
56168W        W24573  35.525  10.507   3.187
56169W        W24574  21.018   5.333   3.778
56170W        W24575  16.109  18.127   2.356
56171W        W24576   5.392  31.905   3.785
56172W        W24577  34.679   7.481   4.516
56173W        W24578  12.683   2.787   1.321
56174W        W24579   3.351  39.283  12.393
56175W        W24580  16.817  44.870  14.757
56176W        W24581  42.093  33.647  14.948
56177W        W24582   1.377  31.991   4.541
56178W        W24583  21.021   8.717   0.279
56179W        W24584  24.676  40.811   4.245
56180W        W24585   0.539   4.140   0.424
56181W        W24586  34.162  37.142  11.237
56182W        W24587  34.872  11.279  11.184
56183W        W24588  19.112  20.690  10.615
56184W        W24589  38.035  21.285   4.733
56185W        W24590   4.844  19.012   3.684
56186W        W24591  36.503  31.558  14.769
56187W        W24592   7.083   1.086   4.561
56188W        W24593  18.458  36.585  14.819
56189W        W24594  13.652  21.299  14.503
56190W        W24595  11.924  31.547   4.138
56191W        W24596  11.451   5.390  12.674
56192W        W24597   0.657   9.369  11.659
56193W        W24598  30.499   3.750  12.119
56194W        W24599   7.394   6.491   3.056
56195W        W24600  28.969  44.664  13.975
56196W        W24601  10.292  25.302  11.151
56197W        W24602   5.518   8.382   9.743
56198W        W24603  43.278  23.297   4.558
56199W        W24604  38.893  39.301   5.048
56200W        W24605  22.193  37.863  12.027
56201W        W24606  31.385  30.416  10.599
56202W        W24607   9.243  42.487  13.952
56203W        W24608   2.805  32.556  11.967
56204W        W24609   1.298  17.895   1.618
56205W        W24610  39.901   5.794   4.714
56206W        W24611  22.975  35.463   4.903
56207W        W24612  26.065  40.817   0.685
56208W        W24613  17.698  42.279  14.484
56209W        W24614   9.364   1.474   1.773
56210W        W24615  14.332  16.096   3.704
56211W        W24616  19.549   0.704  14.869
56212W        W24617  19.779  43.031   2.326
56213W        W24618  23.482  23.209  11.978
56214W        W24619  40.577   9.412  14.386
56215W        W24620  34.183  21.300  12.535
56216W        W24621  14.951  41.686   3.887
56217W        W24622  37.061  39.427  10.645
56218W        W24623  21.082  17.980   2.181
56219W        W24624  27.404  23.742   3.576
56220W        W24625  18.149   2.161  14.895
56221W        W24626  24.903  23.852  13.300
56222W        W24627  28.254   8.260  14.505
56223W        W24628  10.080   6.194  12.375
56224W        W24629   2.400  20.635   1.884
56225W        W24630  33.467  43.235   3.239
56226W        W24631   1.896   2.185  11.271
56227W        W24632  25.521  22.582  10.239
56228W        W24633  10.600   3.411  14.483
56229W        W24634  11.430   1.404  14.705
56230W        W24635  17.432  36.794  13.405
56231W        W24636  14.069  32.143   3.225
56232W        W24637  35.162  30.367   2.711
56233W        W24638   4.860   6.954   2.362
56234W        W24639  44.008   5.195  12.999
56235W        W24640  24.208  35.956  13.582
56236W        W24641  15.650  30.653   5.024
56237W        W24642  28.495  18.284  11.656
56238W        W24643  19.803  20.338  10.616
56239W        W24644  17.656  32.408  14.502
56240W        W24645  36.140  23.200  14.622
56241W        W24646  29.585   9.487   0.915
56242W        W24647   8.271  42.454  11.651
56243W        W24648  30.850  21.361   0.748
56244W        W24649   6.334   0.554  13.386
56245W        W24650  13.807   9.176   1.777
56246W        W24651   6.207  32.137  14.634
56247W        W24652  12.771   8.290   4.194
56248W        W24653  19.365  28.433   3.899
56249W        W24654   2.508   5.255   2.661
56250W        W24655  35.866  38.325   2.181
56251W        W24656   9.863  28.478  11.590
56252W        W24657  26.649  12.337   4.634
56253W        W24658  26.933  12.151   4.181
56254W        W24659  41.382  25.444  11.244
56255W        W24660  43.826  17.758   3.223
56256W        W24661  31.363  14.614   3.343
56257W        W24662   8.606  24.111  14.092
56258W        W24663  28.907  37.541  13.461
56259W        W24664  14.255  41.002   3.330
56260W        W24665  36.952  20.710   1.669
56261W        W24666   9.680   8.726   3.718
56262W        W24667   5.192  25.631   1.441
56263W        W24668  34.530  19.193   0.388
56264W        W24669  14.635  14.761  11.529
56265W        W24670  43.655  26.509  14.436
56266W        W24671  37.047  32.850  10.670
56267W        W24672  16.057  19.546   0.854
56268W        W24673  17.063  34.476   0.047
56269W        W24674  23.926  22.972   0.816
56270W        W24675  38.866   6.948   5.066
56271W        W24676  38.805  38.650  10.619
56272W        W24677  35.645  23.087  14.507
56273W        W24678   4.662  14.760   3.474
56274W        W24679  24.459   4.240   1.912
56275W        W24680  26.688  36.756  14.411
56276W        W24681  34.611  18.895  11.898
56277W        W24682  13.078  19.207   2.162
56278W        W24683  40.967  38.317   4.522
56279W        W24684  22.171  39.088   4.619
56280W        W24685  15.734  14.687   4.661
56281W        W24686   7.298  16.386  11.810
56282W        W24687  28.091   4.221  14.055
56283W        W24688  28.466  19.322   1.395
56284W        W24689  25.193   9.344  10.773
56285W        W24690   4.733   4.273   3.212
56286W        W24691  10.885   6.402  10.965
56287W        W24692   0.285  17.636  11.059
56288W        W24693  36.888  17.777  14.835
56289W        W24694  30.613  43.139   4.185
56290W        W24695   8.165   0.366  10.833
56291W        W24696  18.512  21.455   3.628
56292W        W24697  24.122  27.391  11.485
56293W        W24698   7.620   6.445  12.845
56294W        W24699   4.987  41.850   0.770
56295W        W24700  14.869  12.512  12.912
56296W        W24701  38.276  20.210   1.271
56297W        W24702   8.890  34.610   2.775
56298W        W24703  13.302  19.608  14.582
56299W        W24704   2.404  38.416   0.795
56300W        W24705  37.773  29.308   1.251
56301W        W24706  26.965  18.567  12.998
56302W        W24707  13.489  17.703  14.403
56303W        W24708  15.561  19.070  14.475
56304W        W24709  44.931  41.023   2.914
56305W        W24710   2.371   0.190   1.404
56306W        W24711  38.575  15.708  14.419
56307W        W24712  13.654  32.791   4.271
56308W        W24713  32.853   8.814  11.460
56309W        W24714  24.960  42.189   3.270
56310W        W24715  15.688  23.625  12.494
56311W        W24716  31.556  14.298   0.896
56312W        W24717  29.360  40.982   3.606
56313W        W24718  32.790  20.007   2.307
56314W        W24719  19.705   6.042  12.964
56315W        W24720  33.842   3.482   1.001
56316W        W24721   8.813  37.024  11.114
56317W        W24722   7.270  42.376   0.832
56318W        W24723   4.708  20.619  13.826
56319W        W24724  39.101  28.402   0.764
56320W        W24725   0.104  33.854  12.497
56321W        W24726  25.728  10.873  10.766
56322W        W24727  36.376  32.854   3.324
56323W        W24728  16.912  25.514   9.469
56324W        W24729  20.681  14.081  11.020
56325W        W24730  39.311  18.674  14.198
56326W        W24731   9.478   9.471  13.762
56327W        W24732   4.110  26.243   1.956
56328W        W24733  23.967  41.202  10.913
56329W        W24734  18.259  28.414  14.933
56330W        W24735  10.219  16.768  12.986
56331W        W24736  33.296  27.746  11.524
56332W        W24737  11.179   2.488  12.130
56333W        W24738  14.701  43.942   1.334
56334W        W24739  14.399  30.160  12.372
56335W        W24740  41.364  16.749   3.816
56336W        W24741   2.736   1.890  12.598
56337W        W24742  27.766   6.632  11.092
56338W        W24743  31.158  11.532  10.331
56339W        W24744  11.863  18.229   3.262
56340W        W24745  41.117  44.456  14.843
56341W        W24746  43.901  27.567  14.369
56342W        W24747  10.581  39.443  13.308
56343W        W24748  15.194  23.754  14.064
56344W        W24749  19.622   6.412   4.926
56345W        W24750  19.646  12.680   3.888
56346W        W24751  39.409  15.323  11.275
56347W        W24752  44.502  11.312   3.178
56348W        W24753  10.056   6.166   4.169
56349W        W24754  25.043  17.279  11.658
56350W        W24755   6.745  20.801  14.106
56351W        W24756  37.536  26.948   3.169
56352W        W24757   8.132  30.001   1.752
56353W        W24758  41.850   6.805  11.460
56354W        W24759  31.171  33.168  12.080
56355W        W24760   7.246  27.081   1.567
56356W        W24761  29.022   1.680   2.349
56357W        W24762  38.971  11.965   2.434
56358W        W24763  34.625  37.080   3.127
56359W        W24764  28.157  18.837  11.056
56360W        W24765   3.468  21.470  14.809
56361W        W24766   7.362  17.557  14.675
56362W        W24767  44.395  44.172  12.730
56363W        W24768  14.736  37.443   4.101
56364W        W24769  18.158  11.323   1.247
56365W        W24770  35.943   2.163  12.540
56366W        W24771   4.912  40.592  14.753
56367W        W24772   3.921  19.850  11.080
56368W        W24773  24.428   6.610   3.808
56369W        W24774  44.900  34.307   1.341
56370W        W24775  12.483   8.842  13.906
56371W        W24776  16.635   5.010  10.465
56372W        W24777  35.027  39.578  14.047
56373W        W24778  27.539  42.088   3.185
56374W        W24779  29.152  25.094  12.977
56375W        W24780   3.884  28.584  13.338
56376W        W24781  34.801   6.156  10.288
56377W        W24782  10.161   8.267   1.290
56378W        W24783  12.704  20.134   2.388
56379W        W24784  27.906  29.569  12.412
56380W        W24785  16.468   3.490   4.675
56381W        W24786  18.668  15.269   2.688
56382W        W24787  42.608  11.060   0.711
56383W        W24788  44.979  44.139   0.071
56384W        W24789  11.357  11.858   1.848
56385W        W24790   6.254  42.233  12.951
56386W        W24791  27.939   5.445  12.821
56387W        W24792  17.265   7.283   4.634
56388W        W24793  43.744   4.123   1.771
56389W        W24794  34.132  29.891   4.449
56390W        W24795  21.187  25.570  11.063
56391W        W24796  28.250   3.989   2.410
56392W        W24797  21.173   9.619   0.488
56393W        W24798  24.179  37.283  11.532
56394W        W24799  36.449  23.564  12.376
56395W        W24800   8.695  11.123  14.299
56396W        W24801  14.289  19.353   2.885
56397W        W24802   3.471  33.116   0.926
56398W        W24803   0.320  44.868  14.741
56399W        W24804  11.329  13.756  10.602
56400W        W24805  34.557   8.097   2.838
56401W        W24806  41.418  29.521   1.122
56402W        W24807  20.644  16.218  11.668
56403W        W24808  35.123  40.356  11.617
56404W        W24809  14.095  43.149   4.108
56405W        W24810   9.207   7.720  12.582
56406W        W24811  16.539  14.799  11.528
56407W        W24812  41.352  24.054   0.232
56408W        W24813  21.009  28.311   4.968
56409W        W24814  18.598  25.111  13.368
56410W        W24815  38.929  24.279  13.088
56411W        W24816   8.723  28.691   3.431
56412W        W24817   3.456  11.720   5.033
56413W        W24818  25.406   7.639  12.502
56414W        W24819  12.370  25.522  14.004
56415W        W24820  12.109  34.422  12.061
56416W        W24821  16.130  31.436  14.114
56417W        W24822   6.040  29.740  10.293
56418W        W24823   7.524  19.041   1.984
56419W        W24824  20.347   6.334   4.707
56420W        W24825  34.058  20.984   4.611
56421W        W24826   7.625  39.747  14.278
56422W        W24827  34.947  31.592   4.553
56423W        W24828  26.639  38.930  14.796
56424W        W24829   6.444  17.613   1.444
56425W        W24830  10.139  23.049   2.187
56426W        W24831  35.441   6.384   4.307
56427W        W24832   9.358  39.855  14.475
56428W        W24833  24.968  18.700  11.150
56429W        W24834  16.341  39.153  13.046
56430W        W24835   3.465  24.669  14.723
56431W        W24836   5.332  32.180  10.345
56432W        W24837  32.202  40.937   0.825
56433W        W24838  35.462  31.471   4.517
56434W        W24839  12.863  30.068  10.727
56435W        W24840  23.052  32.933   4.386
56436W        W24841  39.509   8.840   3.272
56437W        W24842   7.150   8.913  12.094
56438W        W24843  35.201  21.857  11.158
56439W        W24844  43.304   5.191   2.390
56440W        W24845  21.001  18.816   1.203
56441W        W24846   4.945  36.160   3.943
56442W        W24847  10.836   9.798   4.466
56443W        W24848  37.076  15.683  13.414
56444W        W24849  26.971  17.062   1.280
56445W        W24850  19.804  24.673  10.072
56446W        W24851  36.080  29.719   4.102
56447W        W24852  19.162  22.368  11.047
56448W        W24853  16.368  16.924  12.918
56449W        W24854  39.931  21.685   4.587
56450W        W24855  31.182  37.858   1.776
56451W        W24856  43.430  17.146   0.761
56452W        W24857  44.016  12.571   4.123
56453W        W24858  20.302   2.250   3.675
56454W        W24859  16.787  18.977  12.019
56455W        W24860  23.518  29.700  11.560
56456W        W24861  27.624  22.248   2.256
56457W        W24862  22.456   9.168  11.123
56458W        W24863  16.137  23.658  11.500
56459W        W24864  16.099  13.197  13.971
56460W        W24865  34.321  24.570   1.744
56461W        W24866   0.671   1.977  12.522
56462W        W24867  14.134  20.036  12.474
56463W        W24868  28.651  30.763  11.927
56464W        W24869  16.085   4.312  13.507
56465W        W24870  17.041  39.964  12.385
56466W        W24871  32.367  18.599   3.744
56467W        W24872  34.341  28.650  13.962
56468W        W24873  19.955   8.675   1.401
56469W        W24874  43.782  30.737  11.391
56470W        W24875  17.754  10.154   0.744
56471W        W24876   7.403  18.729  12.930
56472W        W24877  20.605  33.704   3.220
56473W        W24878  43.684   2.974   0.210
56474W        W24879   6.733  42.958  13.959
56475W        W24880  13.152  35.963   1.276
56476W        W24881   2.673  25.486  13.140
56477W        W24882  37.129   3.330  10.666
56478W        W24883  37.600  13.885  13.683
56479W        W24884  34.357   0.799   4.624
56480W        W24885  41.857  36.014  12.162
56481W        W24886  29.738  22.191   0.336
56482W        W24887  12.140   2.279   4.382
56483W        W24888  38.008  42.770  12.915
56484W        W24889   6.934  29.839   5.266
56485W        W24890  28.766   0.431   1.653
56486W        W24891  12.345  24.257   2.188
56487W        W24892   7.782  41.122   3.688
56488W        W24893  30.162  25.769  13.810
56489W        W24894  25.735  39.953   4.148
56490W        W24895  44.937   8.367  14.385
56491W        W24896  38.562   9.113   1.672
56492W        W24897   1.650   9.748   1.836
56493W        W24898  12.625  18.100  12.048
56494W        W24899  35.415  43.015   1.844
56495W        W24900  29.884  11.544   1.461
56496W        W24901   1.369  38.921   0.979
56497W        W24902  19.324  25.529  10.320
56498W        W24903  22.567  28.571   3.743
56499W        W24904  35.150  30.856  12.978
56500W        W24905  28.009  18.980  11.562
56501W        W24906  29.932  35.171   0.838
56502W        W24907   8.740   8.391   1.352
56503W        W24908  29.320   4.344   1.815
56504W        W24909  16.062  17.292   0.307
56505W        W24910  41.890   9.817   0.786
56506W        W24911   5.436  17.853  12.095
56507W        W24912  22.212  21.781   1.710
56508W        W24913  37.028  24.511   0.997
56509W        W24914  39.102  30.826  11.578
56510W        W24915   9.323  44.129  13.947
56511W        W24916  37.919  26.174  13.948
56512W        W24917   6.217   7.731  11.744
56513W        W24918  31.716  11.749   0.285
56514W        W24919  41.533  22.219  14.645
56515W        W24920  16.907  32.879  13.989
56516W        W24921   8.725  29.325  13.797
56517W        W24922  15.075  27.635   1.421
56518W        W24923   8.497  24.422   0.917
56519W        W24924  41.578  35.154   3.655
56520W        W24925  14.724  32.451   0.511
56521W        W24926   1.754  40.086   0.359
56522W        W24927   4.964  43.312   2.178
56523W        W24928   7.106  24.892  11.813
56524W        W24929  35.685  17.005   3.316
56525W        W24930   0.324  34.321   1.671
56526W        W24931  10.280  21.150  14.233
56527W        W24932  42.815  18.745   0.701
56528W        W24933  25.182  22.575  11.924
56529W        W24934  38.270  28.908  10.532
56530W        W24935  25.713   4.887  12.103
56531W        W24936  10.751  41.842   1.502
56532W        W24937  20.229  21.638   1.945
56533W        W24938  29.036   6.420  11.996
56534W        W24939  12.568  33.835  10.212
56535W        W24940   9.269  14.274   4.183
56536W        W24941  17.635  40.850  11.558
56537W        W24942   9.976   5.693   0.222
56538W        W24943  42.537  25.757  12.829
56539W        W24944  18.013  23.978  12.063
56540W        W24945  37.596  37.592  10.932
56541W        W24946   0.497  10.257  13.794
56542W        W24947  11.700  11.847   1.411
56543W        W24948  24.184   5.203   4.914
56544W        W24949   3.565  39.448  11.485
56545W        W24950  42.768  18.969   1.171
56546W        W24951  14.557  12.853  10.403
56547W        W24952  24.725  37.886   2.373
56548W        W24953   7.912  14.518   4.534
56549W        W24954  23.240  35.031   4.673
56550W        W24955  15.290  33.203  11.622
56551W        W24956   3.344  17.036   5.285
56552W        W24957  40.331  20.188  10.687
56553W        W24958  34.595  25.043   4.215
56554W        W24959  20.528  42.135  11.677
56555W        W24960  38.993  27.034   3.268
56556W        W24961   3.409  21.185   4.515
56557W        W24962   2.881  13.632  12.073
56558W        W24963  28.958  40.401  12.712
56559W        W24964  42.882  15.804  13.921
56560W        W24965   9.791  42.883  11.986
56561W        W24966   9.914  39.494   2.707
56562W        W24967  18.092  39.003  10.717
56563W        W24968  40.802  42.521  11.663
56564W        W24969  19.243  36.803   4.634
56565W        W24970  21.442  26.605   2.888
56566W        W24971  19.652  44.936   0.241
56567W        W24972   6.987  27.888   5.237
56568W        W24973  14.905  32.523  12.054
56569W        W24974  35.504  42.815  13.298
56570W        W24975  22.270  44.135  11.033
56571W        W24976  18.822   5.882   3.280
56572W        W24977  15.955  44.675   1.011
56573W        W24978  37.401  15.870   0.936
56574W        W24979   6.519  39.323   2.616
56575W        W24980  16.777  40.857   3.324
56576W        W24981  41.264  15.113   0.884
56577W        W24982   0.828  39.143  10.784
56578W        W24983  24.571  16.368   2.124
56579W        W24984   0.793   7.378   2.779
56580W        W24985  23.660  23.477  11.579
56581W        W24986   9.981   8.447  14.708
56582W        W24987  14.326  34.605   2.795
56583W        W24988   4.410  14.881   2.915
56584W        W24989   9.834  21.509   0.950
56585W        W24990   5.627  19.793   3.563
56586W        W24991  25.896  20.316  12.856
56587W        W24992  38.381  40.374  12.856
56588W        W24993   3.262  15.300  13.446
56589W        W24994  37.865  28.191   2.778
56590W        W24995  31.350  28.570   0.963
56591W        W24996  40.528   6.374  13.537
56592W        W24997  28.503   7.311   3.262
56593W        W24998  23.478  32.471   0.748
56594W        W24999   3.316  17.206   4.614
56595W        W25000   0.507  24.468  12.325
56596W        W25001   5.944  16.905  12.951
56597W        W25002  42.411   1.277   4.526
56598W        W25003   1.990  22.282  12.440
56599W        W25004  35.304  20.093   4.259
56600W        W25005  17.325  21.168   0.834
56601W        W25006  21.170  40.152   1.816
56602W        W25007   5.379  28.900  12.022
56603W        W25008  32.614  18.597   2.930
56604W        W25009  20.622  29.192  10.583
56605W        W25010  19.032  34.548  11.408
56606W        W25011  15.031  26.648   3.233
56607W        W25012  24.169   3.994  13.343
56608W        W25013  24.477  33.496   0.863
56609W        W25014  22.029  17.494  12.673
56610W        W25015  10.304  25.794   4.675
56611W        W25016  26.991   8.306  12.110
56612W        W25017  19.902  33.506  11.675
56613W        W25018  13.319  43.266   3.667
56614W        W25019   2.953  41.582  14.603
56615W        W25020  25.128  17.729  10.359
56616W        W25021  37.307  10.041   1.314
56617W        W25022  12.773  38.460  14.371
56618W        W25023  39.358   0.224  14.911
56619W        W25024  33.536  25.693   2.761
56620W        W25025  20.732  26.287  11.434
56621W        W25026  14.089  23.087   0.858
56622W        W25027  41.866   1.206  11.183
56623W        W25028  26.505   4.390  10.593
56624W        W25029  31.648   6.324   1.662
56625W        W25030   1.419   9.313   1.681
56626W        W25031  27.543  38.597  13.315
56627W        W25032  17.023  14.277   3.347
56628W        W25033  17.894   9.963  12.065
56629W        W25034  31.063  25.233  12.084
56630W        W25035   2.555  39.610  11.608
56631W        W25036  24.494  33.197   4.780
56632W        W25037  28.666  18.547  12.086
56633W        W25038  34.497  42.725  10.772
56634W        W25039  26.685   0.901   3.176
56635W        W25040   4.004  17.155  10.817
56636W        W25041  24.817  27.429   4.759
56637W        W25042   9.235  20.865  13.955
56638W        W25043   9.627  20.309  10.703
56639W        W25044  17.053  28.847  11.553
56640W        W25045   3.231  15.714  13.864
56641W        W25046  24.125  29.146  12.034
56642W        W25047  44.795  37.936  10.717
56643W        W25048  14.650  30.627  10.757
56644W        W25049  20.237  28.583   1.620
56645W        W25050  38.261  37.656   2.657
56646W        W25051  42.982   1.000   2.373
56647W        W25052  30.541  34.360   2.676
56648W        W25053  33.112  14.563   2.737
56649W        W25054  38.988   8.799  10.224
56650W        W25055  40.920  34.610   4.021
56651W        W25056  23.246  16.969  12.418
56652W        W25057  36.812  19.612  14.445
56653W        W25058  15.757  24.827   4.732
56654W        W25059  42.019   5.801   2.209
56655W        W25060  27.763   3.301   5.017
56656W        W25061  24.857  29.686   1.202
56657W        W25062  40.154  38.710   1.932
56658W        W25063  39.632  26.110   0.556
56659W        W25064   0.151  24.594   1.444
56660W        W25065  21.040  43.781   0.279
56661W        W25066  14.308   3.036   0.735
56662W        W25067  23.665  28.196   1.222
56663W        W25068  16.864  37.724   1.919
56664W        W25069  21.068  28.197   3.146
56665W        W25070  28.143  34.274  12.848
56666W        W25071  25.103  23.911   4.066
56667W        W25072  27.372  33.013   1.354
56668W        W25073  30.122  36.356   4.062
56669W        W25074  32.519   8.485   4.122
56670W        W25075   2.314  43.003   1.448
56671W        W25076  40.822  24.217   4.915
56672W        W25077  43.389  15.243   1.737
56673W        W25078   0.232  23.548  14.555
56674W        W25079   8.849  41.688   2.811
56675W        W25080  10.217   7.432  11.165
56676W        W25081  24.157  12.844  14.298
56677W        W25082  16.652  25.757   2.242
56678W        W25083  27.708  20.873   2.461
56679W        W25084  11.320  24.916  12.528
56680W        W25085  22.813  16.884   4.160
56681W        W25086  34.862  37.404  14.851
56682W        W25087  40.456  44.861  11.819
56683W        W25088  25.591  41.105   4.635
56684W        W25089  17.011  10.522   4.667
56685W        W25090  33.599   2.817   1.212
56686W        W25091  24.483  28.202   3.242
56687W        W25092  10.593  30.852   3.339
56688W        W25093   8.372  36.487  14.312
56689W        W25094  15.104  21.796  11.323
56690W        W25095  25.161   8.181  13.651
56691W        W25096  23.873   1.449  14.976
56692W        W25097  18.741  21.863  14.104
56693W        W25098  35.476   2.696   1.344
56694W        W25099  16.706  30.218  14.380
56695W        W25100  30.608  21.255  14.463
56696W        W25101  34.616  19.646  13.365
56697W        W25102  36.900  15.340  13.047
56698W        W25103   9.652  11.145   0.230
56699W        W25104  29.082  29.142  14.679
56700W        W25105  23.102  36.518   3.975
56701W        W25106  25.144   7.322   3.927
56702W        W25107  19.733   8.236  11.428
56703W        W25108  26.033   7.048  12.599
56704W        W25109  10.323  17.788  13.908
56705W        W25110  31.514  26.229  14.775
56706W        W25111  25.009  12.850  11.163
56707W        W25112  17.173  28.337  11.700
56708W        W25113  31.629  44.817  13.949
56709W        W25114  33.093  17.309  11.227
56710W        W25115  16.087  24.520  11.637
56711W        W25116  27.544  34.688  11.214
56712W        W25117  13.172   1.882  12.600
56713W        W25118   6.336  11.082  13.818
56714W        W25119  30.133   3.766  12.523
56715W        W25120  33.877  38.858  14.253
56716W        W25121   9.658  38.141  11.155
56717W        W25122   9.467  35.478  14.420
56718W        W25123  12.265   5.505   0.776
56719W        W25124   9.332   4.728   3.183
56720W        W25125  26.783  14.644  13.710
56721W        W25126  38.963   8.131  10.645
56722W        W25127  38.093  12.913   3.687
56723W        W25128  30.364  12.599   2.140
56724W        W25129  22.660   3.888  14.326
56725W        W25130  28.596  37.733   4.365
56726W        W25131  14.764   9.158   1.370
56727W        W25132  40.495  44.710   3.671
56728W        W25133  23.542  43.004   2.231
56729W        W25134  20.510  19.598   2.408
56730W        W25135  17.777  43.269  13.055
56731W        W25136  41.324  13.969   4.514
56732W        W25137  25.752  24.559  11.907
56733W        W25138  29.806   8.625   4.611
56734W        W25139  21.215  33.353  13.477
56735W        W25140  15.703  23.755  14.822
56736W        W25141  14.073  26.169  14.954
56737W        W25142  22.400  31.467  14.842
56738W        W25143   1.037  39.927   3.023
56739W        W25144  23.595   6.479  13.923
56740W        W25145   6.132  44.694  11.535
56741W        W25146  31.833  19.295  13.457
56742W        W25147  29.421  26.084   2.851
56743W        W25148  42.399  20.015  14.542
56744W        W25149  26.774  22.670  10.098
56745W        W25150  43.222  39.357  14.556
56746W        W25151  19.753  20.768  13.794
56747W        W25152  36.029  44.791  14.518
56748W        W25153  22.548  41.634   1.141
56749W        W25154   3.638  15.385   0.295
56750W        W25155   0.859  25.439  11.655
56751W        W25156   5.927  12.760   3.804
56752W        W25157  16.219  15.585  11.909
56753W        W25158  34.998  18.263   0.120
56754W        W25159   7.190   0.065  10.717
56755W        W25160   4.406  12.837  12.853
56756W        W25161  25.631  20.646  14.300
56757W        W25162   9.545  32.348  12.171
56758W        W25163  38.245  22.002  11.652
56759W        W25164  35.760  33.233   0.910
56760W        W25165   9.378  39.777  12.113
56761W        W25166  33.904  35.018  14.445
56762W        W25167   3.815  32.884  11.115
56763W        W25168  40.100   9.899  11.150
56764W        W25169  34.908  35.057   4.670
56765W        W25170   2.974  43.870   0.013
56766W        W25171  37.475  26.675  14.433
56767W        W25172  42.973  18.615  14.514
56768W        W25173  38.497   5.754   2.199
56769W        W25174   9.309  30.330  12.449
56770W        W25175  40.356  25.983   3.070
56771W        W25176  21.779   4.099   1.813
56772W        W25177  11.391  27.675   2.174
56773W        W25178   3.476  22.166  13.989
56774W        W25179  14.350  40.486   2.033
56775W        W25180  16.660  12.493  11.073
56776W        W25181  22.449  11.310  14.451
56777W        W25182  29.024  21.370  13.470
56778W        W25183  28.238  18.274  14.340
56779W        W25184  22.458   8.877   4.125
56780W        W25185  12.100  23.651  13.427
56781W        W25186  30.439  41.333  10.849
56782W        W25187   1.916  19.241   2.576
56783W        W25188  22.213   4.756   0.450
56784W        W25189  24.411   0.657  14.966
56785W        W25190  37.453  25.392  11.040
56786W        W25191  29.337  22.172  12.036
56787W        W25192   4.741  12.132   0.731
56788W        W25193  38.571  28.564  11.597
56789W        W25194  33.153   4.731  12.234
56790W        W25195  24.691  16.706   0.067
56791W        W25196  42.091  23.191  13.896
56792W        W25197  30.910  20.155  11.502
56793W        W25198   4.441  23.542  14.905
56794W        W25199  21.274  32.019  10.749
56795W        W25200  44.906  42.934  11.551
56796W        W25201  34.524  41.883  12.024
56797W        W25202  43.393  42.991  14.317
56798W        W25203  32.891  17.873   2.967
56799W        W25204  41.035  15.215  12.016
56800W        W25205  41.975  17.850  12.981
56801W        W25206  18.971  16.677   4.668
56802W        W25207   7.814   4.941  11.931
56803W        W25208  12.885  11.573  14.535
56804W        W25209  20.207  27.700   3.225
56805W        W25210   2.153   8.035   0.689
56806W        W25211  21.110  42.465   2.235
56807W        W25212  33.962  12.631  10.503
56808W        W25213   2.692   5.926  14.810
56809W        W25214  13.195  39.983  12.561
56810W        W25215  25.104   6.240   0.934
56811W        W25216  33.281  17.246  12.961
56812W        W25217   7.741  27.740   2.213
56813W        W25218   4.661  36.550  14.926
56814W        W25219  22.705   9.816  11.005
56815W        W25220  17.279   9.247  12.057
56816W        W25221  30.195  31.415   2.187
56817W        W25222  22.705  41.435  14.223
56818W        W25223  10.627  42.785  14.930
56819W        W25224  39.016  37.531   1.834
56820W        W25225  29.124  24.473   3.897
56821W        W25226  39.019   0.300   1.773
56822W        W25227  41.500   1.298  10.350
56823W        W25228  17.575  19.942   3.659
56824W        W25229  39.006  19.177   2.826
56825W        W25230  16.965  18.701   2.816
56826W        W25231  16.540  40.525  11.893
56827W        W25232  11.866  34.180  10.886
56828W        W25233  26.954  11.211   0.507
56829W        W25234  18.731  33.605  13.019
56830W        W25235   4.405  41.689  12.881
56831W        W25236  37.600  28.322   3.185
56832W        W25237  18.281  30.209  11.177
56833W        W25238  21.708  31.553   0.554
56834W        W25239  37.334  21.997  13.965
56835W        W25240  28.164  38.535   5.018
56836W        W25241  36.550  15.085  10.713
56837W        W25242   9.056  29.489   2.385
56838W        W25243  24.633  30.352   4.197
56839W        W25244  18.584   1.228   3.248
56840W        W25245  40.062  44.831   3.357
56841W        W25246  35.508   9.124  14.333
56842W        W25247  40.309  17.395  13.523
56843W        W25248   0.086  20.057  14.989
56844W        W25249  10.457  27.613   4.169
56845W        W25250  12.292   8.225   1.645
56846W        W25251  44.302  38.911  12.570
56847W        W25252   9.291  21.363  14.843
56848W        W25253  29.594   2.834   1.861
56849W        W25254  40.045  38.004  14.851
56850W        W25255  30.184  24.994  11.212
56851W        W25256  31.129  41.688   1.812
56852W        W25257  17.500  24.626   3.355
56853W        W25258  27.266   5.816   0.260
56854W        W25259  27.783  34.496  13.405
56855W        W25260   1.374  21.755  14.008
56856W        W25261   1.210  11.856  10.528
56857W        W25262  40.450  25.912   0.736
56858W        W25263  11.648   6.869   3.116
56859W        W25264  16.040  21.109   2.698
56860W        W25265  16.131  14.194   2.166
56861W        W25266   1.107  41.446   3.346
56862W        W25267  12.446  28.429  12.082
56863W        W25268  15.788  14.143  12.171
56864W        W25269  13.166  26.906  13.556
56865W        W25270  11.887  14.597  12.152
56866W        W25271  37.663  14.500   3.066
56867W        W25272  32.587  23.641  11.995
56868W        W25273  15.593   2.765  11.997
56869W        W25274  36.959  15.506  12.509
56870W        W25275  21.107   4.877   0.462
56871W        W25276  21.129  40.268  13.617
56872W        W25277   6.828   0.006  14.597
56873W        W25278   5.839   4.856  11.692
56874W        W25279  44.461  15.494  10.191
56875W        W25280   8.704  20.270   2.836
56876W        W25281   0.511  38.632   3.093
56877W        W25282  15.750  30.566   2.600
56878W        W25283  38.665  38.946  14.054
56879W        W25284  18.181   6.467   3.574
56880W        W25285  37.942  32.956   2.962
56881W        W25286  11.249  27.032  11.286
56882W        W25287  11.293   9.965  11.580
56883W        W25288  33.871  17.337   4.421
56884W        W25289  37.132   5.771   4.250
56885W        W25290  30.205  32.660  12.303
56886W        W25291  20.222  19.185  13.302
56887W        W25292  30.500   1.593  11.725
56888W        W25293  11.446   6.160   2.210
56889W        W25294  35.813  35.153   3.653
56890W        W25295   9.740  26.242  11.794
56891W        W25296  17.150  18.582   1.421
56892W        W25297   0.560  29.297  14.008
56893W        W25298   9.610  38.743   4.538
56894W        W25299  35.598  22.176  11.038
56895W        W25300  34.722   4.753   4.523
56896W        W25301  12.801  26.284   3.230
56897W        W25302  35.126  12.184   0.404
56898W        W25303  22.254  25.143  13.852
56899W        W25304   1.990  30.509  13.122
56900W        W25305  19.509   9.968   1.708
56901W        W25306  22.223  24.184   4.080
56902W        W25307  31.904  37.525  12.501
56903W        W25308  34.532  22.472  14.801
56904W        W25309  10.476  37.587  10.276
56905W        W25310   3.738  42.549   4.757
56906W        W25311  38.811  18.607   0.949
56907W        W25312  17.030   6.035   5.491
56908W        W25313  24.634  30.928   3.347
56909W        W25314  37.440   1.865  11.061
56910W        W25315  17.309  42.256   2.218
56911W        W25316  26.787  22.657  12.575
56912W        W25317  39.822  38.185  12.938
56913W        W25318   5.068  11.747  11.575
56914W        W25319   6.816  36.387  13.452
56915W        W25320  35.443   4.366   4.094
56916W        W25321  28.450  43.561  11.033
56917W        W25322  12.607  21.454   0.824
56918W        W25323   1.242   7.372   1.828
56919W        W25324  21.804  24.258  12.995
56920W        W25325  17.065  25.140  13.038
56921W        W25326  30.447  30.985  14.070
56922W        W25327  20.477  29.801   2.220
56923W        W25328   5.176  11.540   0.906
56924W        W25329   0.355  17.768   0.286
56925W        W25330  42.226   9.343  11.601
56926W        W25331   1.370  41.800   2.416
56927W        W25332  19.630   3.735   1.921
56928W        W25333  23.078  17.648  14.730
56929W        W25334   2.318   1.876  14.499
56930W        W25335  31.385  42.489   4.500
56931W        W25336  13.767  15.668   3.137
56932W        W25337  18.027  32.703   4.240
56933W        W25338  25.675  31.467  14.835
56934W        W25339  23.660  36.054   4.501
56935W        W25340  30.129  20.598   3.479
56936W        W25341  16.045  43.561  10.620
56937W        W25342  13.150  44.764   2.394
56938W        W25343   9.945   4.709  12.988
56939W        W25344  20.283  38.806  11.710
56940W        W25345  11.921  37.923  11.620
56941W        W25346  24.370   0.723   0.480
56942W        W25347  38.320  20.796  13.834
56943W        W25348   7.311  12.335  14.533
56944W        W25349  15.421  24.787   5.503
56945W        W25350  32.091  11.327   4.409
56946W        W25351   1.888   0.466   4.549
56947W        W25352  33.602  13.877   0.248
56948W        W25353   6.436   8.286  13.998
56949W        W25354  40.098  39.622   2.794
56950W        W25355  32.896  22.634  12.413
56951W        W25356  42.759  34.572   2.375
56952W        W25357  26.300  36.509   4.279
56953W        W25358   9.913  12.695  11.509
56954W        W25359  36.369  34.305  12.011
56955W        W25360  27.105  10.270   2.277
56956W        W25361  15.746   0.554  13.358
56957W        W25362   4.741  27.220   4.425
56958W        W25363  25.276  28.954   4.313
56959W        W25364   1.686  29.120   3.695
56960W        W25365   3.889  42.244   3.160
56961W        W25366   2.202  14.134  11.074
56962W        W25367  16.573  24.507   3.323
56963W        W25368  21.644  43.884  12.621
56964W        W25369   0.813  10.741   1.294
56965W        W25370  34.168  33.871  10.656
56966W        W25371  11.830  36.629  12.586
56967W        W25372  24.335  10.882  11.124
56968W        W25373  19.057  16.835  10.629
56969W        W25374   1.561  18.017  11.402
56970W        W25375  33.579  40.527  10.707
56971W        W25376  36.005  15.745  10.973
56972W        W25377   6.024  41.892  11.644
56973W        W25378  17.531  18.178   0.922
56974W        W25379  22.002   4.452  10.697
56975W        W25380  30.011  39.268  11.156
56976W        W25381  32.389  42.625  13.448
56977W        W25382  10.366  35.831  10.997
56978W        W25383   8.943   5.128   1.966
56979W        W25384  40.427  20.554  11.029
56980W        W25385  39.304   0.574   0.787
56981W        W25386  26.979  18.021  13.061
56982W        W25387   3.741  23.809  11.037
56983W        W25388  35.429  33.873  14.392
56984W        W25389  21.933  10.550  11.075
56985W        W25390  13.677   3.283   4.277
56986W        W25391  13.393  33.584   1.824
56987W        W25392   7.911  23.496   0.877
56988W        W25393  42.022   8.833   5.245
56989W        W25394   5.142  37.899  12.565
56990W        W25395   7.445   8.978   1.824
56991W        W25396  23.724  35.567   1.731
56992W        W25397   1.412   5.942  11.885
56993W        W25398  24.175  14.684  13.780
56994W        W25399  19.811  12.940   1.436
56995W        W25400   8.068  28.430  12.983
56996W        W25401   8.703   8.980  12.372
56997W        W25402  43.987  22.257   3.681
56998W        W25403   7.414  15.284   4.265
56999W        W25404  40.855  40.020  12.537
57000W        W25405  34.600  18.557   0.365
57001W        W25406  35.719  19.223   0.808
57002W        W25407  18.067   4.232  12.072
57003W        W25408  18.518  27.970   3.995
57004W        W25409  25.904  18.959  11.465
57005W        W25410  14.704  10.860  12.021
57006W        W25411  44.220  28.382   4.662
57007W        W25412  29.702  37.443   0.449
57008W        W25413  42.306   0.291   0.884
57009W        W25414   0.611  35.571  13.946
57010W        W25415  24.693  11.771   1.774
57011W        W25416  12.401  36.335   4.220
57012W        W25417  38.248  33.375  12.513
57013W        W25418   6.859   9.122   1.062
57014W        W25419  25.384  37.147   4.759
57015W        W25420  22.684   6.491   1.422
57016W        W25421  37.055   1.659  11.333
57017W        W25422  42.191   4.159  13.281
57018W        W25423  30.645  24.442   1.664
57019W        W25424  35.872  13.351  14.620
57020W        W25425   6.632  12.943   2.444
57021W        W25426  18.342  31.114  13.741
57022W        W25427  13.140  44.448   4.359
57023W        W25428  30.109  22.134   1.892
57024W        W25429  38.790  29.830  14.822
57025W        W25430  40.641  25.980   1.702
57026W        W25431   2.827  31.710   3.451
57027W        W25432   0.640  41.109   1.407
57028W        W25433  31.947   8.380  11.666
57029W        W25434   2.331  44.319   2.747
57030W        W25435  14.636  28.552   1.637
57031W        W25436  23.719   0.079   3.618
57032W        W25437   3.043   8.928  13.611
57033W        W25438   0.715  32.019  12.403
57034W        W25439   4.185   3.406   4.436
57035W        W25440   9.662  34.736   3.945
57036W        W25441  32.558   3.268  10.808
57037W        W25442  10.336  20.004   2.914
57038W        W25443   1.991  22.531   1.131
57039W        W25444  30.409   4.279   0.293
57040W        W25445  13.609  11.737  12.220
57041W        W25446   8.750   1.838   4.443
57042W        W25447  13.664  30.688  13.512
57043W        W25448  38.962  33.458   4.933
57044W        W25449   7.062   4.215  13.072
57045W        W25450  35.098   5.654  13.434
57046W        W25451  38.162   7.379  11.193
57047W        W25452   5.880  26.610  12.799
57048W        W25453  22.018  37.532   2.068
57049W        W25454  43.385  28.189  14.908
57050W        W25455  13.286  21.847  10.900
57051W        W25456   3.353  14.114  14.539
57052W        W25457   6.827   5.574  14.876
57053W        W25458  22.646   9.403  10.690
57054W        W25459  18.777  44.841   0.950
57055W        W25460  36.594  43.090   4.912
57056W        W25461  43.478   0.509  10.709
57057W        W25462  18.206  36.503   3.663
57058W        W25463   8.642   4.211  12.845
57059W        W25464  27.618  37.046   3.198
57060W        W25465  31.335   4.230   3.384
57061W        W25466   5.933  22.287  12.142
57062W        W25467  30.264  24.493  12.513
57063W        W25468  37.846  40.479   4.134
57064W        W25469  18.602   0.201  13.494
57065W        W25470   9.916  41.473   1.711
57066W        W25471   0.827   9.497  11.173
57067W        W25472   5.768  16.451  13.974
57068W        W25473  20.067  28.657  11.603
57069W        W25474   0.947   0.792   3.285
57070W        W25475  39.672  35.016   2.211
57071W        W25476   4.439  34.445   1.524
57072W        W25477  38.840  17.360   4.158
57073W        W25478  41.832  43.972   0.511
57074W        W25479  10.570  43.842  14.072
57075W        W25480   9.786   0.952   4.173
57076W        W25481   6.957  23.698  14.014
57077W        W25482   0.192  37.267   2.151
57078W        W25483  34.113   6.662   4.162
57079W        W25484  31.898  24.963   0.807
57080W        W25485  24.013  34.173  11.447
57081W        W25486   0.542   4.813   3.711
57082W        W25487  13.866  30.883   1.676
57083W        W25488   6.703  39.104  14.253
57084W        W25489  27.167  24.067   4.975
57085W        W25490   2.514  44.326  14.800
57086W        W25491  36.313   6.800  13.144
57087W        W25492   5.941  16.216  13.555
57088W        W25493  38.453  16.279  10.795
57089W        W25494  20.123  27.665  12.032
57090W        W25495   5.864  31.076   0.349
57091W        W25496  39.607   0.048  10.954
57092W        W25497   0.584  16.398  12.845
57093W        W25498  34.464  27.956   4.765
57094W        W25499   7.235   5.729   3.710
57095W        W25500  37.497   7.722   4.218
57096W        W25501   7.613  27.366   4.135
57097W        W25502  11.286  14.294   1.869
57098W        W25503   9.160  27.171  10.700
57099W        W25504  19.754   8.564   0.551
57100W        W25505  40.493   9.751  12.080
57101W        W25506  36.300   9.373   0.268
57102W        W25507  12.307  14.751  12.413
57103W        W25508   4.217  11.654  12.987
57104W        W25509  13.725  25.890   3.209
57105W        W25510   6.032  33.548  14.825
57106W        W25511  43.042   9.504  11.872
57107W        W25512  13.789  28.201   3.211
57108W        W25513  23.949  27.910   4.026
57109W        W25514  10.872   5.141  14.375
57110W        W25515  18.990  26.204  12.537
57111W        W25516  18.669   8.372  13.811
57112W        W25517  32.373  29.639   2.917
57113W        W25518  14.308  10.753   1.767
57114W        W25519  14.749  25.921   4.651
57115W        W25520   5.747  27.778  10.416
57116W        W25521   1.298  10.648  11.956
57117W        W25522  33.443  16.101  12.222
57118W        W25523  14.202  37.735   4.143
57119W        W25524   8.918   0.930   4.580
57120W        W25525  41.573  32.907  11.570
57121W        W25526  15.252  29.386   0.397
57122W        W25527  42.842   9.401  11.118
57123W        W25528  35.258  28.100  14.524
57124W        W25529  21.255  38.295   0.317
57125W        W25530   5.187  19.449   0.707
57126W        W25531  21.493  29.491   3.397
57127W        W25532  31.165   8.437  13.444
57128W        W25533   5.496   3.388   0.761
57129W        W25534  25.283  40.030  12.887
57130W        W25535   8.734  12.163  11.965
57131W        W25536   0.333  10.539   1.263
57132W        W25537  16.277  40.367   4.900
57133W        W25538  16.140  44.256  13.316
57134W        W25539  16.599  38.388  11.406
57135W        W25540  33.412  16.023  10.234
57136W        W25541   1.843  19.626   3.393
57137W        W25542  43.838  40.023  11.156
57138W        W25543   7.770   1.053  12.844
57139W        W25544  11.448   3.590  10.253
57140W        W25545   4.063  18.729   3.229
57141W        W25546  41.393  11.372  14.360
57142W        W25547  19.184   1.952  12.329
57143W        W25548  20.769  44.057  14.001
57144W        W25549  20.465  24.739  14.409
57145W        W25550  10.264  30.908   3.702
57146W        W25551  29.992  11.766  13.255
57147W        W25552  30.716  37.609  13.499
57148W        W25553  43.375   3.380   1.011
57149W        W25554  14.992   7.922   5.272
57150W        W25555  31.900  19.812  12.393
57151W        W25556  44.454   3.173   1.712
57152W        W25557  15.625   1.519   4.524
57153W        W25558   8.709  43.268  11.206
57154W        W25559  39.029  21.177  11.418
57155W        W25560  25.917  11.062   1.617
57156W        W25561  11.347  14.808   2.892
57157W        W25562  27.164  20.673  10.630
57158W        W25563   3.348   7.452  12.837
57159W        W25564  17.826  22.829   2.765
57160W        W25565  12.543  26.303  12.391
57161W        W25566  32.396  28.438   4.026
57162W        W25567  44.965  27.261  11.060
57163W        W25568  10.975  21.164   4.124
57164W        W25569  37.475   0.006  12.046
57165W        W25570  26.430  13.050   4.122
57166W        W25571  42.822  15.054   3.633
57167W        W25572  41.536  15.343  11.085
57168W        W25573  40.948  37.981  10.664
57169W        W25574  19.799  28.981   3.377
57170W        W25575  40.612  34.844   1.281
57171W        W25576  22.185  29.105   0.236
57172W        W25577  27.587  38.308   1.701
57173W        W25578  19.507  32.171  14.241
57174W        W25579  34.109  21.099  12.080
57175W        W25580  25.706   5.114   3.302
57176W        W25581  30.473  21.768   3.179
57177W        W25582  16.715  29.871   1.629
57178W        W25583  40.523  30.762   1.210
57179W        W25584  41.067  31.633   4.640
57180W        W25585  32.346  35.243   0.861
57181W        W25586  25.215  37.517  14.819
57182W        W25587  42.292  12.132  12.459
57183W        W25588  17.797  31.952   2.654
57184W        W25589   9.147  40.793   0.766
57185W        W25590  27.182  21.528   4.497
57186W        W25591  19.574  10.236  13.984
57187W        W25592  13.629  41.728   3.215
57188W        W25593  32.890  41.722   1.382
57189W        W25594   6.700   9.895  13.078
57190W        W25595   6.104   1.870  13.091
57191W        W25596   3.516  31.059  14.775
57192W        W25597   5.211  16.172  11.417
57193W        W25598  14.649  30.942  11.161
57194W        W25599  21.718  36.509   3.108
57195W        W25600  19.875  22.250  10.611
57196W        W25601  18.246  18.872  14.301
57197W        W25602  37.228  39.908  12.344
57198W        W25603  31.276  19.069   3.209
57199W        W25604  41.214  18.238  13.547
57200W        W25605  20.571   0.717  12.792
57201W        W25606   8.606  30.941   1.497
57202W        W25607  20.751  43.664  14.821
57203W        W25608  31.804   6.647   2.935
57204W        W25609  14.701  38.582  10.805
57205W        W25610  13.867  14.264  11.969
57206W        W25611  40.771   4.839  10.672
57207W        W25612  27.172  15.692  13.989
57208W        W25613  17.714  17.504  14.890
57209W        W25614  18.210  17.962  11.162
57210W        W25615  44.589  17.463   1.263
57211W        W25616   6.360  17.528   5.094
57212W        W25617  32.379  12.620  14.176
57213W        W25618  37.592  31.745   0.301
57214W        W25619   2.389  15.655   4.555
57215W        W25620  22.725   2.839  14.808
57216W        W25621  36.585   9.021   2.094
57217W        W25622  24.193  10.948  14.338
57218W        W25623   0.319  23.257   1.259
57219W        W25624  21.001  28.038  13.508
57220W        W25625  40.548  30.513   2.655
57221W        W25626  22.602   1.561  12.565
57222W        W25627  24.718  42.016   4.116
57223W        W25628   0.254  42.736  14.466
57224W        W25629  30.898  17.592   1.893
57225W        W25630  13.096  42.436   1.935
57226W        W25631  13.962  11.734   2.305
57227W        W25632  25.411  25.209  14.044
57228W        W25633  28.491  24.853  14.516
57229W        W25634  44.880   0.835  11.980
57230W        W25635  11.856  23.914  12.995
57231W        W25636  40.504  27.752  11.583
57232W        W25637  42.091   5.119  11.089
57233W        W25638   6.973  34.374  14.457
57234W        W25639  22.787  22.665   2.575
57235W        W25640   7.393  41.777  13.778
57236W        W25641  20.334  21.214  11.997
57237W        W25642  11.879  11.610  11.285
57238W        W25643  33.407   9.155   1.796
57239W        W25644  37.957  18.255  14.753
57240W        W25645  41.919  11.787   2.316
57241W        W25646  31.653   4.830   4.545
57242W        W25647  33.558   3.199  12.210
57243W        W25648  35.498  13.093   1.874
57244W        W25649  26.229  30.408   3.701
57245W        W25650  26.877  17.344   4.497
57246W        W25651  22.601  33.570   1.882
57247W        W25652  42.239   6.826  10.536
57248W        W25653  24.918  23.090   1.604
57249W        W25654  17.678  43.514  13.516
57250W        W25655  44.468  33.513   1.613
57251W        W25656   2.408   4.158  10.421
57252W        W25657  26.681  39.034   3.024
57253W        W25658   4.818  39.933  11.249
57254W        W25659  35.609  20.104   0.827
57255W        W25660  27.919   9.659   3.824
57256W        W25661  39.560   8.512   4.563
57257W        W25662  30.200  17.015  12.626
57258W        W25663  38.132  41.457  12.591
57259W        W25664  41.944  24.387  14.449
57260W        W25665  10.713  33.691   3.654
57261W        W25666  38.862  39.549  10.835
57262W        W25667  44.362   4.422  12.058
57263W        W25668   6.631  10.339   5.023
57264W        W25669   3.714  24.683   4.058
57265W        W25670  12.349  26.389  14.865
57266W        W25671  21.070  16.493  11.897
57267W        W25672  16.264  43.888   4.421
57268W        W25673  26.154  13.818   3.916
57269W        W25674  34.297   5.652  12.441
57270W        W25675  26.597  42.734  14.776
57271W        W25676  21.004  29.516   2.765
57272W        W25677   6.296  29.035  12.355
57273W        W25678  21.785  38.545  11.488
57274W        W25679  27.681  24.077   1.732
57275W        W25680  10.273  24.252  12.116
57276W        W25681  21.936  42.888   1.481
57277W        W25682  12.063  20.597  13.915
57278W        W25683  27.536  12.229  10.642
57279W        W25684  27.679  29.169  13.291
57280W        W25685  20.859  30.477  11.283
57281W        W25686  12.641   9.388  11.175
57282W        W25687  30.416  32.091  14.427
57283W        W25688   8.268  38.863  13.026
57284W        W25689   9.534  10.206  11.112
57285W        W25690  44.666   8.767  11.182
57286W        W25691  26.694  19.727  14.481
57287W        W25692  14.202  44.004  13.101
57288W        W25693  14.651  17.925  12.004
57289W        W25694  12.651  14.291   0.788
57290W        W25695   0.283   4.286  12.416
57291W        W25696  42.737   1.783  12.066
57292W        W25697  38.937  19.480   3.340
57293W        W25698   7.101  35.416   3.859
57294W        W25699   5.336   1.068   4.027
57295W        W25700  39.864   8.591  12.509
57296W        W25701  20.492  18.002   0.825
57297W        W25702  33.367  35.033   4.632
57298W        W25703  12.618  25.244   4.063
57299W        W25704  18.220  34.668  14.367
57300W        W25705  37.425   1.554   1.319
57301W        W25706  19.168  36.833  11.685
57302W        W25707  39.849   8.166   4.852
57303W        W25708  30.320  27.496  13.805
57304W        W25709  12.130   7.750   0.870
57305W        W25710  20.505  41.052  11.506
57306W        W25711  38.093  17.525   3.733
57307W        W25712  39.343  37.167  14.314
57308W        W25713  28.434  21.239   2.862
57309W        W25714  25.082  38.576   3.712
57310W        W25715   7.879  11.340  11.582
57311W        W25716  37.441  29.722   1.560
57312W        W25717  36.385  10.333  10.798
57313W        W25718  11.677  32.863   2.188
57314W        W25719  33.659  44.295   0.856
57315W        W25720  36.790  38.620   2.508
57316W        W25721   8.327  36.773   1.719
57317W        W25722  13.409   6.285   0.887
57318W        W25723  43.374  11.229   2.615
57319W        W25724  20.216   7.336   3.603
57320W        W25725  30.002  36.491   3.126
57321W        W25726  29.398  30.120   3.791
57322W        W25727  37.399  28.876  12.896
57323W        W25728  27.849   6.439  12.896
57324W        W25729   5.519  15.238   3.114
57325W        W25730  28.183  20.545  11.593
57326W        W25731  34.922  24.611   4.289
57327W        W25732   2.408  33.983   1.035
57328W        W25733  35.070  23.668  11.985
57329W        W25734  37.985  34.618  13.923
57330W        W25735   3.529  11.465   3.772
57331W        W25736  30.910   2.875  13.266
57332W        W25737  11.765  37.310   3.590
57333W        W25738   2.968  34.899   0.945
57334W        W25739   3.734  10.887   0.332
57335W        W25740  21.206   8.219   1.590
57336W        W25741  14.689   4.268   3.432
57337W        W25742  26.061   0.874   3.934
57338W        W25743  25.843   8.700   1.832
57339W        W25744  24.182  27.613  14.330
57340W        W25745  42.848  27.675  10.738
57341W        W25746  24.688  10.580   3.053
57342W        W25747  38.794  18.284   2.186
57343W        W25748   4.884  26.858   3.144
57344W        W25749  41.482  26.070   0.635
57345W        W25750   4.965  26.013  11.546
57346W        W25751  33.620  22.647  10.628
57347W        W25752   2.244  18.631   3.137
57348W        W25753  43.931  21.035   3.912
57349W        W25754  15.587  39.467   4.270
57350W        W25755  39.987  13.580  12.072
57351W        W25756  36.483   6.105  10.624
57352W        W25757  40.910  41.641   0.820
57353W        W25758  19.066  10.655  10.700
57354W        W25759  34.252  16.158  13.825
57355W        W25760  29.188  28.608   4.222
57356W        W25761  24.242  19.343  13.904
57357W        W25762  40.359  23.631   4.032
57358W        W25763  20.042  33.008   4.665
57359W        W25764  10.483  23.574   1.232
57360W        W25765  37.557  41.413  11.121
57361W        W25766  35.554  23.619  14.535
57362W        W25767  30.568  39.573  14.077
57363W        W25768  28.096  33.063  12.542
57364W        W25769  30.137  13.085  12.119
57365W        W25770   9.730  37.621  14.936
57366W        W25771  29.082  24.840   1.753
57367W        W25772  26.259  11.562  12.518
57368W        W25773  37.110  29.251  11.086
57369W        W25774  39.844  33.512  10.514
57370W        W25775  21.586  34.169  14.562
57371W        W25776  26.625  16.341   1.236
57372W        W25777   0.742   4.940   0.668
57373W        W25778   1.454  43.503  12.874
57374W        W25779  34.917  12.548   4.165
57375W        W25780  17.571  41.746   0.349
57376W        W25781  20.235  29.308   4.892
57377W        W25782  27.172  25.507   3.105
57378W        W25783  38.883  41.813  12.936
57379W        W25784   7.201   3.291  13.481
57380W        W25785  27.228  43.831   3.210
57381W        W25786  32.965  44.964   1.014
57382W        W25787  33.183  28.299  14.858
57383W        W25788  37.761  36.438   1.239
57384W        W25789  44.770  37.649  14.376
57385W        W25790  12.385  18.867   3.162
57386W        W25791   7.193  13.222  10.734
57387W        W25792  21.791   6.369  11.122
57388W        W25793  25.984  20.034   1.196
57389W        W25794  39.027  12.933   3.819
57390W        W25795   2.908   0.359   4.658
57391W        W25796  21.014  27.453  14.429
57392W        W25797  23.202   9.360   1.654
57393W        W25798   7.120  39.903  14.357
57394W        W25799  17.119  12.587  14.073
57395W        W25800  26.422  28.030  11.513
57396W        W25801   1.995  14.610   1.362
57397W        W25802  37.487  24.887   0.384
57398W        W25803   8.107  41.054   4.517
57399W        W25804  14.175  25.604  12.544
57400W        W25805  19.186  23.996   1.197
57401W        W25806  23.221  22.060  10.782
57402W        W25807  28.093  19.017   1.226
57403W        W25808   4.904  14.080  12.613
57404W        W25809  29.465  16.603   2.017
57405W        W25810  17.808  37.391  10.721
57406W        W25811  35.411   8.719   3.378
57407W        W25812  41.584  27.691  14.938
57408W        W25813   8.616  36.930  14.436
57409W        W25814  38.389  22.554  10.811
57410W        W25815   4.710   6.630  13.329
57411W        W25816  15.073  29.549   3.386
57412W        W25817   1.390  22.225   4.282
57413W        W25818  29.854  40.935  12.079
57414W        W25819   3.365  22.459  12.511
57415W        W25820  25.497  12.170   2.953
57416W        W25821  31.115  24.767   2.346
57417W        W25822  17.288  29.118  12.802
57418W        W25823  20.731   2.892   0.390
57419W        W25824  27.669   3.438  13.936
57420W        W25825  40.974  16.741   3.347
57421W        W25826  31.569  31.246   3.650
57422W        W25827  17.197  40.395   3.760
57423W        W25828   2.883  19.974  14.302
57424W        W25829  35.433  30.808  14.440
57425W        W25830  42.355  40.809  14.561
57426W        W25831  10.122  17.924  11.615
57427W        W25832  43.786   0.880   0.428
57428W        W25833  23.701  44.812   2.772
57429W        W25834  28.075  34.242   2.807
57430W        W25835  36.081   5.005  14.820
57431W        W25836  25.146  12.042  10.817
57432W        W25837  35.820   2.335   0.975
57433W        W25838  26.156  38.824  14.983
57434W        W25839  22.724   3.639   1.644
57435W        W25840  18.668  14.293   2.240
57436W        W25841   3.095  21.618   1.885
57437W        W25842  10.975  23.548  10.739
57438W        W25843  13.144   1.424  11.848
57439W        W25844  10.915  34.422  14.865
57440W        W25845  15.153  28.471  11.142
57441W        W25846  26.319   1.075  11.075
57442W        W25847  40.070  26.192  13.832
57443W        W25848  14.762  42.350  14.039
57444W        W25849  40.090   0.432  12.849
57445W        W25850   6.174  18.858   2.457
57446W        W25851  20.025  20.208   2.726
57447W        W25852  20.500   1.964   1.760
57448W        W25853  11.215  19.405   1.292
57449W        W25854  32.526   0.116   4.741
57450W        W25855  26.086   3.481   2.655
57451W        W25856  26.429  12.658   1.341
57452W        W25857  28.372  32.925   1.253
57453W        W25858  33.017  43.305   1.766
57454W        W25859  31.222  26.520   0.915
57455W        W25860  39.124  14.715   2.634
57456W        W25861  22.138  17.720  13.533
57457W        W25862  23.656  28.327   2.878
57458W        W25863  16.805  31.770   4.904
57459W        W25864  33.550  16.364   0.792
57460W        W25865   4.953  21.832   4.958
57461W        W25866  33.645  15.710   4.009
57462W        W25867  42.515  20.097  13.617
57463W        W25868  33.073  21.123  12.005
57464W        W25869  31.408  29.722   1.416
57465W        W25870  16.175  38.430  12.586
57466W        W25871  32.438  22.045  14.130
57467W        W25872  27.476  18.492   0.582
57468W        W25873  23.725   4.705   2.650
57469W        W25874  41.280   5.213  11.995
57470W        W25875  19.161  30.166  13.432
57471W        W25876   9.373   1.393  12.170
57472W        W25877  16.857  40.987  14.107
57473W        W25878   0.703  23.101   2.439
57474W        W25879   4.965   5.488  13.984
57475W        W25880  33.325   6.466   4.653
57476W        W25881   9.179  16.267   0.414
57477W        W25882  39.356  42.850  13.761
57478W        W25883  42.287  33.337  11.785
57479W        W25884  17.848   8.848   0.857
57480W        W25885  12.228   3.282   2.184
57481W        W25886  30.605  40.980  14.567
57482W        W25887   9.298  11.225  13.494
57483W        W25888   7.744  34.006  12.887
57484W        W25889  23.971  18.129   3.355
57485W        W25890  14.733  24.604  14.267
57486W        W25891  10.886  40.268   0.676
57487W        W25892  25.532  16.090   4.841
57488W        W25893  14.137  25.354  13.012
57489W        W25894  27.643  23.083  14.947
57490W        W25895   5.527   4.674   0.938
57491W        W25896   6.513  22.836   2.918
57492W        W25897   8.061  39.790   1.709
57493W        W25898  37.412  36.631   4.554
57494W        W25899   9.265   8.298   4.073
57495W        W25900  23.676   9.736   0.504
57496W        W25901  28.283   4.196   1.577
57497W        W25902  16.084   0.142   4.662
57498W        W25903   1.953   4.685   4.218
57499W        W25904  43.503  21.096  10.818
57500W        W25905  41.246  44.779   2.326
57501W        W25906  18.294   1.715  13.499
57502W        W25907  40.392   2.498   0.559
57503W        W25908  38.258  16.030   2.936
57504W        W25909  16.971   0.437   3.390
57505W        W25910  15.142   0.527   2.730
57506W        W25911  12.783  23.596   2.776
57507W        W25912   3.217  32.238   3.208
57508W        W25913  20.540  30.159   1.177
57509W        W25914   1.394  12.834  13.921
57510W        W25915  37.191  42.817  11.100
57511W        W25916   6.656  21.144  13.367
57512W        W25917  37.551  21.222   3.316
57513W        W25918  39.527  26.421   2.183
57514W        W25919  38.861  13.277  13.584
57515W        W25920   2.862  33.660  13.901
57516W        W25921  33.408  14.837  12.833
57517W        W25922   3.433  33.831  12.100
57518W        W25923  35.393  12.669   4.003
57519W        W25924  17.736  37.047   1.004
57520W        W25925  29.418  23.473  10.691
57521W        W25926  19.128  41.110  12.077
57522W        W25927  30.102   9.901  14.822
57523W        W25928  16.536  19.880  13.088
57524W        W25929  35.287  27.985   1.498
57525W        W25930   9.492  25.957  14.981
57526W        W25931  22.107  20.041  12.553
57527W        W25932   2.748  43.411   3.337
57528W        W25933  44.265  19.465   3.252
57529W        W25934  35.551  18.679   0.748
57530W        W25935  23.858  41.666   1.246
57531W        W25936   5.356  44.618   2.391
57532W        W25937  37.332  17.638   3.006
57533W        W25938  24.216  17.719   4.144
57534W        W25939  37.161  19.605   0.438
57535W        W25940   9.086  43.947  13.270
57536W        W25941  44.250  22.930  11.418
57537W        W25942  28.643  28.365  14.636
57538W        W25943  43.375  41.850   3.592
57539W        W25944  21.178   5.630  11.762
57540W        W25945   7.490   3.881  14.402
57541W        W25946  19.596  25.736   2.150
57542W        W25947  11.854  15.055   3.317
57543W        W25948  34.580  40.943   2.466
57544W        W25949  18.533  18.186  12.273
57545W        W25950  19.126  43.758   2.416
57546W        W25951  31.056  34.614   4.644
57547W        W25952  14.636  28.225   5.136
57548W        W25953  28.905  29.633  12.579
57549W        W25954  36.609  24.702   1.262
57550W        W25955   5.226  16.792  12.671
57551W        W25956  28.373  20.339   1.335
57552W        W25957  41.545  27.284  13.448
57553W        W25958  22.251  42.581  12.989
57554W        W25959   2.953  40.474  14.070
57555W        W25960  29.421   0.002  11.088
57556W        W25961   3.673  35.943  14.492
57557W        W25962  39.481  29.393  12.053
57558W        W25963  14.262  12.829  14.530
57559W        W25964  17.270  13.651   2.528
57560W        W25965   7.250  17.252   2.189
57561W        W25966  31.206  25.985  12.390
57562W        W25967  16.118   2.819  12.069
57563W        W25968  26.598  15.058  10.272
57564W        W25969  30.769  21.252  11.849
57565W        W25970  21.435  18.912  14.389
57566W        W25971  25.951  16.042  13.294
57567W        W25972   3.841  44.638   4.619
57568W        W25973  43.830  30.495   4.138
57569W        W25974  17.607  34.732  12.998
57570W        W25975  40.078  33.229  12.288
57571W        W25976   8.886  36.641   1.758
57572W        W25977  41.475  23.462  11.149
57573W        W25978   0.008   9.089  14.782
57574W        W25979   2.727  21.947   3.196
57575W        W25980  17.682   5.226   1.884
57576W        W25981  22.272   5.666   4.468
57577W        W25982  43.807  33.346   0.863
57578W        W25983   9.778   9.296   2.586
57579W        W25984  21.053   3.342   1.953
57580W        W25985   1.999  22.207  11.598
57581W        W25986   9.601   7.477  14.736
57582W        W25987  10.101  21.050  13.716
57583W        W25988   4.402  24.235  14.428
57584W        W25989  44.556  40.048   0.829
57585W        W25990  14.694  16.670   4.360
57586W        W25991  20.712  38.390   4.721
57587W        W25992  14.798  11.357   4.159
57588W        W25993  24.065  24.694  13.625
57589W        W25994  18.664  22.758   0.876
57590W        W25995  25.529  37.298  14.441
57591W        W25996   2.410  21.436   4.039
57592W        W25997  36.531  28.972   3.430
57593W        W25998  31.368  23.032  13.061
57594W        W25999  18.264  30.725  11.184
57595W        W26000  44.006  31.479   3.841
57596W        W26001  34.531   6.743  10.874
57597W        W26002  38.814   4.753  12.974
57598W        W26003  21.572  18.278   3.470
57599W        W26004  20.627  19.712   0.209
57600W        W26005   0.891  11.536   3.991
57601W        W26006   6.475  13.286   1.204
57602W        W26007  32.032  14.737  14.248
57603W        W26008  41.506  36.883   1.700
57604W        W26009  35.759  44.527   4.530
57605W        W26010  16.890  24.167  13.820
57606W        W26011  41.922  11.308  14.316
57607W        W26012  39.308  12.612   4.416
57608W        W26013  44.220  21.409  10.853
57609W        W26014  17.753  11.084  12.350
57610W        W26015  21.556  12.877   2.357
57611W        W26016  18.216   3.759  12.217
57612W        W26017  41.483  39.818  10.762
57613W        W26018  20.105  22.226   0.545
57614W        W26019  14.225  26.699   0.966
57615W        W26020  34.593   0.074   2.394
57616W        W26021  21.223  15.903   5.036
57617W        W26022  18.066  19.552  14.914
57618W        W26023  43.323   3.788   1.848
57619W        W26024  26.674  33.305  10.735
57620W        W26025  36.993  28.421   0.874
57621W        W26026   2.125  44.771  13.515
57622W        W26027  25.098  43.190   2.562
57623W        W26028   6.821  42.933  13.062
57624W        W26029  31.012   6.745  14.881
57625W        W26030  33.863  21.108  14.851
57626W        W26031  11.529  31.985   3.229
57627W        W26032  43.079  35.673  13.361
57628W        W26033  28.664  19.283   0.421
57629W        W26034  26.873  33.987  14.858
57630W        W26035  19.228  41.931  14.409
57631W        W26036  29.501  43.298   2.781
57632W        W26037  30.858   6.267   4.647
57633W        W26038   5.333  19.541   5.032
57634W        W26039  23.619  16.313   0.982
57635W        W26040   5.797  34.739  12.201
57636W        W26041   0.712  21.562   4.203
57637W        W26042  38.972  35.453  14.598
57638W        W26043  35.381  44.479   0.639
57639W        W26044   8.101   5.824  11.110
57640W        W26045  20.152  38.706  12.622
57641W        W26046  41.056  16.695  13.487
57642W        W26047  10.298   1.022  12.219
57643W        W26048  13.269  14.351   4.734
57644W        W26049  12.589  16.273   2.839
57645W        W26050  28.677  34.246   3.268
57646W        W26051  36.504  39.369  13.469
57647W        W26052   3.373  29.687  13.932
57648W        W26053  12.538   2.514   4.121
57649W        W26054  22.569  38.126   3.699
57650W        W26055  25.774  37.520   0.978
57651W        W26056  30.083   4.852   4.604
57652W        W26057  41.995  41.040  11.658
57653W        W26058   5.262  36.519   4.750
57654W        W26059   5.065   2.756   0.607
57655W        W26060  12.893  38.930  13.105
57656W        W26061   6.356  19.206   3.625
57657W        W26062  20.042  36.005  14.989
57658W        W26063  20.469  42.773  14.603
57659W        W26064  19.873  43.547   3.786
57660W        W26065  31.592   1.735  11.542
57661W        W26066   5.688   2.428  11.699
57662W        W26067  13.536  21.053   1.292
57663W        W26068  38.102  34.603  14.480
57664W        W26069   2.185  28.186   2.231
57665W        W26070  33.908  30.743  11.634
57666W        W26071  21.112  32.431   4.279
57667W        W26072  14.258  41.378   1.484
57668W        W26073  25.460  44.339  12.506
57669W        W26074  13.860  43.491   3.687
57670W        W26075  26.453  28.055   4.264
57671W        W26076  44.009  13.921   1.802
57672W        W26077  43.451  10.133  11.177
57673W        W26078  13.263  33.609   2.683
57674W        W26079   2.636  29.951   1.260
57675W        W26080   1.238  19.156   4.361
57676W        W26081  23.850  29.705   3.189
57677W        W26082   6.347  20.338  14.966
57678W        W26083   2.794  26.077   0.289
57679W        W26084  42.932   3.241  12.800
57680W        W26085  37.997  22.257  14.975
57681W        W26086   3.933  21.449   0.761
57682W        W26087  28.419  12.764  11.506
57683W        W26088  21.667  37.583  14.029
57684W        W26089   4.228  12.251   1.277
57685W        W26090  40.994  41.766  12.592
57686W        W26091  26.466  17.689  10.606
57687W        W26092  17.157  39.161  10.437
57688W        W26093   8.149  30.561   4.513
57689W        W26094  14.202  22.024   2.247
57690W        W26095  22.286  39.567  11.094
57691W        W26096   7.978   4.305   3.032
57692W        W26097  40.160   0.120   3.766
57693W        W26098   6.581  36.512   1.249
57694W        W26099  38.046   6.158   2.722
57695W        W26100  39.499  19.724   1.365
57696W        W26101   5.201  18.985   1.940
57697W        W26102  35.003  18.223  13.009
57698W        W26103  17.747  21.556   1.880
57699W        W26104  34.430  33.189  12.506
57700W        W26105  36.228  12.592  12.891
57701W        W26106  23.260   8.110   2.969
57702W        W26107  32.185  27.416  14.782
57703W        W26108  15.722   7.344  10.030
57704W        W26109   1.729  44.165  14.975
57705W        W26110  16.943  33.033  13.006
57706W        W26111  24.622  23.262  14.221
57707W        W26112  21.053  34.124  13.076
57708W        W26113  28.535  15.327  14.287
57709W        W26114   0.332  17.379  12.999
57710W        W26115   6.924  15.842  12.473
57711W        W26116  20.279  24.308  12.648
57712W        W26117   2.232  32.540  12.657
57713W        W26118  26.166  19.269  14.355
57714W        W26119  31.841  11.708   1.795
57715W        W26120  17.476   2.337  14.435
57716W        W26121  13.945  29.681  11.675
57717W        W26122  38.064  33.404   0.656
57718W        W26123  44.405  14.187  11.578
57719W        W26124  21.135  33.605  13.924
57720W        W26125   7.663  29.466  11.350
57721W        W26126  25.557   6.876  13.497
57722W        W26127  12.348  25.370   0.800
57723W        W26128  35.230  27.261  11.383
57724W        W26129   1.636  23.792   4.298
57725W        W26130  11.410  20.157  12.863
57726W        W26131   0.501  18.744  11.950
57727W        W26132  22.558  43.005  13.149
57728W        W26133  15.358  16.110  14.939
57729W        W26134  25.530  38.407  12.910
57730W        W26135  29.986  16.000   0.492
57731W        W26136  19.910   6.696   4.133
57732W        W26137   5.427   1.307   1.908
57733W        W26138  22.559  37.618   3.828
57734W        W26139  31.463  16.624  12.818
57735W        W26140  21.566  40.889  14.762
57736W        W26141  36.994  34.115  12.962
57737W        W26142  44.442  22.078  13.469
57738W        W26143  42.915  15.232   3.146
57739W        W26144   4.318  16.339   1.175
57740W        W26145  38.033   3.784  13.857
57741W        W26146  10.260   9.335   1.856
57742W        W26147   3.619  15.013   0.679
57743W        W26148  39.412  38.520   0.585
57744W        W26149  28.672  38.730   4.474
57745W        W26150   5.819  16.378  12.192
57746W        W26151  26.342  10.111   1.776
57747W        W26152  24.386  42.842   0.434
57748W        W26153   4.662  25.643  12.578
57749W        W26154   2.345   0.637   3.161
57750W        W26155  23.392  30.859  12.049
57751W        W26156  35.528   4.743  11.521
57752W        W26157   8.365  34.960  11.496
57753W        W26158   4.214  24.623   0.313
57754W        W26159  19.956  14.586   0.831
57755W        W26160  20.708  26.513  13.834
57756W        W26161  17.505  16.670   3.088
57757W        W26162   7.240  44.752  13.904
57758W        W26163  20.034   1.388  14.441
57759W        W26164  35.465  24.191   0.772
57760W        W26165  11.479  33.686  12.878
57761W        W26166  22.478  34.929   1.932
57762W        W26167   2.769  17.333   2.770
57763W        W26168  18.206  32.278   4.976
57764W        W26169  14.846  32.015   3.724
57765W        W26170  21.152   8.941   0.854
57766W        W26171  15.314  32.588   1.807
57767W        W26172  37.564  14.861  11.123
57768W        W26173  21.857  38.097  11.720
57769W        W26174  37.420   1.714   0.196
57770W        W26175  24.064  35.003   2.906
57771W        W26176  15.343  32.028  11.007
57772W        W26177  30.980  33.044  12.549
57773W        W26178  14.842   2.922  11.593
57774W        W26179  36.090  38.385  14.501
57775W        W26180   2.272  26.827  13.838
57776W        W26181   4.743  26.115   2.602
57777W        W26182   4.765  36.483   1.276
57778W        W26183  25.722  30.428  14.820
57779W        W26184  30.294  22.701   4.063
57780W        W26185  32.100  23.107   2.751
57781W        W26186  12.143  34.813   1.578
57782W        W26187  42.258  27.687   3.551
57783W        W26188  26.149   7.375  11.925
57784W        W26189  14.649  13.357  11.121
57785W        W26190  40.469  16.309  12.465
57786W        W26191  23.858  18.696  14.365
57787W        W26192  32.455   3.770  12.902
57788W        W26193  29.652  35.605   4.080
57789W        W26194  36.031   7.824   0.027
57790W        W26195  11.372  21.542   0.290
57791W        W26196  21.162  17.373   3.668
57792W        W26197  28.235  38.230  14.399
57793W        W26198  39.909   3.924   4.103
57794W        W26199  29.365   7.324   1.921
57795W        W26200  42.933  20.004  11.398
57796W        W26201  33.288  27.240  11.619
57797W        W26202  33.895   8.387   1.332
57798W        W26203  29.348  23.014   4.140
57799W        W26204  33.675  38.301  12.944
57800W        W26205   5.343  39.647  12.922
57801W        W26206  13.688  41.885   4.596
57802W        W26207  19.728  38.472  13.816
57803W        W26208  21.549  44.639   0.231
57804W        W26209   7.886  18.173   4.642
57805W        W26210  14.116  12.207  13.932
57806W        W26211  25.099  28.058   5.224
57807W        W26212  36.189   3.149  12.586
57808W        W26213  29.370  25.069   3.278
57809W        W26214   7.496   7.402  13.815
57810W        W26215   6.708  33.643  12.046
57811W        W26216  13.938   5.782  10.666
57812W        W26217   5.296   8.001   5.081
57813W        W26218  33.668  16.106  13.886
57814W        W26219  27.402  12.333   2.689
57815W        W26220  40.322  20.903   1.371
57816W        W26221  26.490  19.258  10.348
57817W        W26222  11.317  27.955   1.746
57818W        W26223  32.521  28.081   1.356
57819W        W26224  18.943  14.362   1.760
57820W        W26225  32.821   5.463   2.796
57821W        W26226   1.312  38.471   3.683
57822W        W26227  36.023   5.246  12.844
57823W        W26228  26.382  31.864   0.184
57824W        W26229  36.649  11.398  12.087
57825W        W26230  15.291  31.809  10.550
57826W        W26231  15.797  34.072   1.238
57827W        W26232  15.151  19.817  14.919
57828W        W26233  19.603  22.597   2.438
57829W        W26234  44.447  13.146  14.438
57830W        W26235  18.340  17.183   3.638
57831W        W26236  18.545  23.235   2.145
57832W        W26237  25.133  22.799  10.576
57833W        W26238   6.559  39.535  11.080
57834W        W26239  41.549  11.506  10.746
57835W        W26240  44.854  17.350  11.158
57836W        W26241   0.322  31.016  10.755
57837W        W26242  42.842  34.070   2.652
57838W        W26243  40.356  28.004   4.147
57839W        W26244   9.189   6.367  14.701
57840W        W26245  14.090  38.488   3.287
57841W        W26246   8.719  37.294  13.473
57842W        W26247  41.927  16.633   1.709
57843W        W26248   5.884  19.561  12.523
57844W        W26249   9.923  31.983   3.377
57845W        W26250  43.990   1.310  12.005
57846W        W26251  36.487   2.769  14.268
57847W        W26252   5.764  10.833  11.974
57848W        W26253  34.464  44.411   3.196
57849W        W26254  19.500  42.840   2.774
57850W        W26255  21.995  27.955  14.812
57851W        W26256   9.613   3.110   1.780
57852W        W26257  29.709  26.302  13.452
57853W        W26258  43.265  28.736  13.830
57854W        W26259   7.396  24.020  13.350
57855W        W26260  16.981  43.073   0.400
57856W        W26261  12.621  43.894  10.693
57857W        W26262   5.304  12.776  11.345
57858W        W26263  22.666  35.982  13.416
57859W        W26264  22.687  30.764  14.267
57860W        W26265  38.398  40.502  14.413
57861W        W26266  20.666   7.818   0.175
57862W        W26267   5.164   7.297  12.160
57863W        W26268  14.112   2.378   2.353
57864W        W26269   4.763  16.657   3.602
57865W        W26270  19.316  43.390  12.050
57866W        W26271  44.876  19.241   4.601
57867W        W26272   8.930  16.269   1.789
57868W        W26273   2.810   1.970   1.355
57869W        W26274  35.997  23.181  13.606
57870W        W26275  10.838  35.110   1.866
57871W        W26276  31.702  37.316  12.013
57872W        W26277  42.948  18.989  10.516
57873W        W26278  24.056   9.198  14.934
57874W        W26279  24.133  35.002  13.523
57875W        W26280   9.880  25.057  14.788
57876W        W26281  40.249  42.043   1.499
57877W        W26282  31.021  17.471  14.873
57878W        W26283   4.778  20.146   3.734
57879W        W26284  41.999   4.626  10.274
57880W        W26285   8.461   8.222   4.515
57881W        W26286  26.563  25.324   1.721
57882W        W26287  42.526  25.036   2.781
57883W        W26288  20.849  27.951  11.610
57884W        W26289  40.073  15.697   3.796
57885W        W26290   6.319  23.590   1.140
57886W        W26291   4.655   0.029   2.731
57887W        W26292   7.410   9.678  11.158
57888W        W26293   3.849  42.404  13.067
57889W        W26294  17.290  23.062   0.214
57890W        W26295  24.905  11.781  11.190
57891W        W26296   6.948  24.034  13.603
57892W        W26297  42.341  24.920   4.539
57893W        W26298  44.225  29.097  13.058
57894W        W26299  38.359   0.411   3.319
57895W        W26300  24.530  36.575   3.506
57896W        W26301  29.561  30.603   3.613
57897W        W26302   2.450  39.901  12.035
57898W        W26303   7.632  41.269  13.296
57899W        W26304  25.061   1.583   0.710
57900W        W26305  13.615   6.623  13.024
57901W        W26306  14.844  33.436  11.955
57902W        W26307   9.935  20.530   3.818
57903W        W26308  14.488  12.371   4.197
57904W        W26309  32.369  20.205  11.515
57905W        W26310  26.250  30.062   0.581
57906W        W26311  43.472  13.767  14.474
57907W        W26312  11.228   7.764  10.719
57908W        W26313   8.172  26.477  12.091
57909W        W26314  36.937  15.993   0.755
57910W        W26315  16.305  24.457  14.528
57911W        W26316  40.398  16.773   4.628
57912W        W26317   6.466  28.200  13.469
57913W        W26318  37.429   1.192   0.281
57914W        W26319   6.974  29.084   0.392
57915W        W26320  24.743   7.276  13.116
57916W        W26321  24.486  12.128   2.300
57917W        W26322  25.929  29.003  10.999
57918W        W26323  36.134  31.062   3.228
57919W        W26324  18.540  30.599  12.517
57920W        W26325  24.698   2.810   4.288
57921W        W26326   7.695  17.851  10.592
57922W        W26327  10.845  36.417  13.721
57923W        W26328   5.184  15.687   4.270
57924W        W26329  24.671  11.648  13.579
57925W        W26330  18.412  20.527  12.205
57926W        W26331  29.369  39.018   0.749
57927W        W26332  32.076  29.048   0.987
57928W        W26333   6.954  11.597  13.606
57929W        W26334  25.874  30.941   3.605
57930W        W26335  11.383  40.463   3.217
57931W        W26336  40.282  13.090   4.365
57932W        W26337   7.700  35.999   4.735
57933W        W26338  16.870  40.072   1.282
57934W        W26339  39.117   8.143  11.473
57935W        W26340  39.275  16.549   0.300
57936W        W26341  15.691  30.683   1.599
57937W        W26342  29.402  19.806  14.435
57938W        W26343  23.714  23.475   4.439
57939W        W26344  25.214   2.539   4.121
57940W        W26345  23.040  26.709  14.921
57941W        W26346   7.282  33.090  10.657
57942W        W26347   7.386  33.930  14.547
57943W        W26348   8.914  37.321  14.302
57944W        W26349  37.410   1.442  13.833
57945W        W26350   4.426  22.825  10.664
57946W        W26351  33.817   5.175  14.986
57947W        W26352  29.780   3.423  11.914
57948W        W26353   0.484  17.375   2.233
57949W        W26354  10.840  19.736   3.274
57950W        W26355  22.504   6.595   1.901
57951W        W26356  11.379  42.924  10.519
57952W        W26357  18.008  40.965   0.882
57953W        W26358  29.452  18.902   1.401
57954W        W26359  16.659  39.799  10.474
57955W        W26360  17.153  40.232  14.316
57956W        W26361  13.765  40.999   0.950
57957W        W26362  16.039  39.511  11.152
57958W        W26363  23.574  35.011  11.948
57959W        W26364  44.223   8.833  14.342
57960W        W26365  16.699  17.437   2.322
57961W        W26366  22.731  34.675  10.766
57962W        W26367  21.732  35.117   3.373
57963W        W26368  36.425  40.989   4.573
57964W        W26369   0.843  18.086  10.744
57965W        W26370  21.501  13.599  12.145
57966W        W26371  20.512  17.815  13.432
57967W        W26372  37.304  16.696  11.540
57968W        W26373  27.838  12.346   1.823
57969W        W26374  18.078  39.629   1.848
57970W        W26375  36.993  39.270   4.169
57971W        W26376   6.518  24.917  10.780
57972W        W26377  18.320  21.569  10.274
57973W        W26378  11.499  30.414  11.563
57974W        W26379  43.627   6.247  14.619
57975W        W26380  25.271  10.211   1.894
57976W        W26381  31.144  44.049   3.269
57977W        W26382   6.214  28.482   1.767
57978W        W26383  21.199   4.767  11.535
57979W        W26384   2.939  30.904  12.767
57980W        W26385  29.730  34.440  12.649
57981W        W26386  27.280  13.829  12.377
57982W        W26387  15.488  41.813   3.822
57983W        W26388  43.356   5.803  11.677
57984W        W26389  40.707   5.755   1.170
57985W        W26390  26.591  25.503   2.247
57986W        W26391  24.072   5.697  13.862
57987W        W26392  32.460  21.831  11.972
57988W        W26393  41.887  23.143   3.281
57989W        W26394  18.800   3.413  10.315
57990W        W26395  28.469  32.317   0.496
57991W        W26396  35.541  10.921  10.678
57992W        W26397  19.812  28.819   4.838
57993W        W26398  32.227  34.507  11.260
57994W        W26399  14.250  16.567   3.488
57995W        W26400  16.571  21.440   3.127
57996W        W26401  14.763  43.837   3.183
57997W        W26402   2.942  18.777   3.136
57998W        W26403  37.351  13.705  10.749
57999W        W26404  26.475  40.311   1.415
58000W        W26405   4.197  28.442   2.684
58001W        W26406  37.601  42.969   1.765
58002W        W26407   8.752  44.205   0.209
58003W        W26408  15.613   0.706  11.125
58004W        W26409   9.180  35.993  12.628
58005W        W26410  24.613  26.229  14.036
58006W        W26411  16.102   2.559   2.560
58007W        W26412  37.054  38.558  13.499
58008W        W26413  28.929  34.457  13.963
58009W        W26414   6.660  22.009   4.423
58010W        W26415  44.189  24.283   1.241
58011W        W26416  35.610   4.842  13.416
58012W        W26417  39.615  32.011   1.919
58013W        W26418   0.686   2.644   1.712
58014W        W26419  38.117  42.257  13.016
58015W        W26420  43.728  32.409   0.882
58016W        W26421  36.422  42.832   4.511
58017W        W26422  36.476   1.694   1.841
58018W        W26423  13.280   7.444  14.304
58019W        W26424  13.338  40.470   2.139
58020W        W26425  35.019  14.533  13.975
58021W        W26426  15.259   7.501   3.341
58022W        W26427  24.927   8.629   4.058
58023W        W26428  17.169  28.105   1.434
58024W        W26429  35.962  23.770   0.820
58025W        W26430  20.619  27.374   3.309
58026W        W26431  31.965   5.788  10.662
58027W        W26432  10.624  26.596   1.727
58028W        W26433  17.805   5.268  11.483
58029W        W26434  14.039  11.467   1.869
58030W        W26435   6.425  20.172   4.740
58031W        W26436   1.177   3.120   3.267
58032W        W26437  23.576  22.892  13.435
58033W        W26438  20.044  11.086   4.739
58034W        W26439  12.269  22.119  11.252
58035W        W26440  22.643  16.268  14.274
58036W        W26441  11.310  27.423  10.327
58037W        W26442  22.040  30.103   3.135
58038W        W26443  30.439  17.404  11.331
58039W        W26444   3.433  29.647   2.340
58040W        W26445  25.462  39.653   0.009
58041W        W26446  12.490  12.228  13.481
58042W        W26447  34.525  37.333  12.728
58043W        W26448  15.137   5.297  13.000
58044W        W26449  31.375  35.363  12.560
58045W        W26450  29.730  28.041   1.470
58046W        W26451  41.201  39.370  10.820
58047W        W26452   4.245  27.210   0.862
58048W        W26453  17.614  24.593   4.235
58049W        W26454  23.747   0.545  11.198
58050W        W26455  35.011   7.653   0.401
58051W        W26456  21.222  24.729   3.710
58052W        W26457  29.204  23.586  14.875
58053W        W26458  10.265  40.892  10.737
58054W        W26459  31.485  40.007  14.468
58055W        W26460  27.134  22.454   0.346
58056W        W26461  28.261  22.874  10.329
58057W        W26462  14.700  30.516   3.058
58058W        W26463   2.694  43.631  13.995
58059W        W26464  16.864  20.320   2.150
58060W        W26465  23.188  37.406  14.718
58061W        W26466  38.483  34.062  11.413
58062W        W26467  24.115  28.059   0.964
58063W        W26468   3.414  16.572   0.936
58064W        W26469  35.684  15.733   5.142
58065W        W26470  14.784  12.785  13.793
58066W        W26471  32.597   7.650   3.008
58067W        W26472   2.412  34.944   0.270
58068W        W26473   3.419   7.663   2.727
58069W        W26474   7.690   8.885  13.001
58070W        W26475   8.317  10.926   3.616
58071W        W26476  19.005   6.915  11.533
58072W        W26477  36.853  23.267   0.093
58073W        W26478  35.668  26.521   4.165
58074W        W26479  38.779   6.029   0.461
58075W        W26480  15.127   6.879   2.299
58076W        W26481  30.763  24.529  12.512
58077W        W26482  44.863  32.780  14.979
58078W        W26483  19.032  23.965   1.683
58079W        W26484   2.803  19.315   1.699
58080W        W26485  13.238  29.075  11.648
58081W        W26486  43.365   1.967  10.720
58082W        W26487   3.071  38.392   2.340
58083W        W26488   0.694   9.787   1.693
58084W        W26489   8.136  17.059   2.360
58085W        W26490  17.879  21.270   3.200
58086W        W26491  39.971  30.551   1.784
58087W        W26492  22.462  26.027   1.001
58088W        W26493  42.112  24.455  13.441
58089W        W26494   4.711  14.198  13.567
58090W        W26495  10.167   5.919   4.643
58091W        W26496  30.076  40.792  12.983
58092W        W26497  43.111  22.247  10.477
58093W        W26498  27.232   5.709  12.966
58094W        W26499  22.583  23.918  11.144
58095W        W26500   5.652  22.733   4.107
58096W        W26501  30.659   9.931   4.143
58097W        W26502  24.952  13.611   2.924
58098W        W26503   5.723   8.705   0.809
58099W        W26504   6.996  43.650  14.482
58100W        W26505  25.318  34.999  14.256
58101W        W26506  25.153  18.279   0.061
58102W        W26507  20.466  17.191  14.266
58103W        W26508  14.790   8.670   4.666
58104W        W26509  32.048   9.895   0.867
58105W        W26510  40.930   4.857  13.297
58106W        W26511   0.390   3.223  11.655
58107W        W26512  42.179  36.285   5.075
58108W        W26513   8.401  33.665   4.196
58109W        W26514  42.670  38.922  12.081
58110W        W26515  17.126  43.732   2.186
58111W        W26516  36.008  12.812   3.343
58112W        W26517  30.083  39.055  10.676
58113W        W26518  38.876  39.503   4.037
58114W        W26519  17.166  17.175  11.215
58115W        W26520  37.026  40.587   2.414
58116W        W26521  24.372  14.188   2.868
58117W        W26522   8.769  10.582   2.787
58118W        W26523  18.076   3.366   2.905
58119W        W26524   8.957  38.923  12.400
58120W        W26525  28.509  28.145  13.366
58121W        W26526  31.394  28.993   4.411
58122W        W26527  25.145  44.962   2.188
58123W        W26528  33.437   5.688  12.599
58124W        W26529  35.809  20.459  14.279
58125W        W26530  31.541   7.227   2.138
58126W        W26531  33.939  22.923  13.088
58127W        W26532  30.006  30.355  10.598
58128W        W26533  29.561  43.322   4.974
58129W        W26534  41.793  35.427  13.919
58130W        W26535   0.172  14.016  11.156
58131W        W26536  35.363  35.042   3.880
58132W        W26537  39.582  21.017   4.392
58133W        W26538  10.336  20.653  12.035
58134W        W26539  20.827   2.179   0.842
58135W        W26540  12.177   7.276   3.825
58136W        W26541  35.895   5.321   1.216
58137W        W26542  10.557   7.143  11.454
58138W        W26543  30.638  10.136  12.591
58139W        W26544   7.803  23.556   3.760
58140W        W26545  38.579  13.202  12.515
58141W        W26546  13.896   9.379  10.580
58142W        W26547  41.836   4.499  13.577
58143W        W26548   3.862  23.518  10.625
58144W        W26549  28.951  28.227   0.705
58145W        W26550   2.380  18.244  10.745
58146W        W26551  38.504  15.669   1.140
58147W        W26552   2.105  42.432   4.486
58148W        W26553  14.260  14.190  13.544
58149W        W26554  28.221  17.844   3.861
58150W        W26555  22.741  16.787  14.330
58151W        W26556   0.356  35.928  13.616
58152W        W26557  41.917  18.570   0.366
58153W        W26558  25.579  32.448   1.273
58154W        W26559   4.699  12.832   3.271
58155W        W26560  35.550   1.896  13.924
58156W        W26561  15.333   3.625  13.808
58157W        W26562  34.423  21.689  10.616
58158W        W26563  43.665  17.132  12.489
58159W        W26564  34.907  40.859  12.595
58160W        W26565  16.209  31.721   1.881
58161W        W26566  12.802  31.337   3.152
58162W        W26567  42.014  29.559  14.408
58163W        W26568   9.756  34.866   4.448
58164W        W26569  24.900  39.426   4.863
58165W        W26570  14.654   3.872   3.772
58166W        W26571  27.706  36.537  11.174
58167W        W26572  40.492   4.797   1.862
58168W        W26573   8.302  10.283  14.359
58169W        W26574  33.648  37.842   3.777
58170W        W26575   0.163   7.921  14.488
58171W        W26576  17.483  40.001   5.048
58172W        W26577  10.135  26.021  11.523
58173W        W26578  35.550  27.245  14.397
58174W        W26579  33.516  38.817  12.756
58175W        W26580  34.809   9.787   2.383
58176W        W26581  42.139  18.240  10.948
58177W        W26582  44.766   7.877   2.689
58178W        W26583  12.933  33.816   3.901
58179W        W26584  34.918  33.559  14.292
58180W        W26585  26.268  40.993  11.154
58181W        W26586  31.541  39.611   1.151
58182W        W26587  43.060  39.894   1.914
58183W        W26588  22.242  42.849  13.511
58184W        W26589   0.551  21.718   1.253
58185W        W26590  42.211  38.953  10.935
58186W        W26591  26.161   4.734   4.617
58187W        W26592  44.463  24.479   4.850
58188W        W26593  40.523   0.438   3.904
58189W        W26594  21.540  33.665  14.608
58190W        W26595  29.535  28.178   4.141
58191W        W26596  42.589  21.118  10.436
58192W        W26597  38.367  35.050   1.211
58193W        W26598   5.902   3.450  14.797
58194W        W26599   3.503  18.552  14.988
58195W        W26600  26.556  13.768   4.667
58196W        W26601  32.616   1.747   2.157
58197W        W26602  15.601   9.943  11.148
58198W        W26603  42.746   5.783  10.672
58199W        W26604  18.217  27.360  11.891
58200W        W26605  35.687  27.282  11.609
58201W        W26606  43.035   0.939   4.520
58202W        W26607  31.213   0.311   2.291
58203W        W26608  24.100   2.240  12.024
58204W        W26609   5.438  19.560   4.033
58205W        W26610  44.422   5.957  14.964
58206W        W26611  32.066  43.245  14.324
58207W        W26612   9.140   9.144  12.572
58208W        W26613   9.816  14.803  12.538
58209W        W26614   2.210  28.213   4.193
58210W        W26615  33.182  32.959  13.916
58211W        W26616  21.692  11.750   4.453
58212W        W26617  15.778  21.635  12.968
58213W        W26618  33.905  32.614  10.481
58214W        W26619  40.786  18.097   0.361
58215W        W26620   3.599  19.497   1.778
58216W        W26621  29.011  11.737  12.113
58217W        W26622  20.204  13.307   2.701
58218W        W26623  42.344  29.028   2.437
58219W        W26624   4.948  20.187  13.985
58220W        W26625   7.757   9.155   0.165
58221W        W26626  23.982  38.825  12.515
58222W        W26627  42.286  13.196  12.210
58223W        W26628  32.004  23.530   4.008
58224W        W26629  41.663  37.424   4.193
58225W        W26630  12.684  36.499  13.049
58226W        W26631  15.533  15.080  11.016
58227W        W26632  13.351  25.148   3.621
58228W        W26633  25.725   4.418  11.083
58229W        W26634  42.343  25.359  11.171
58230W        W26635  34.165  44.284  12.559
58231W        W26636  17.560  16.577  14.798
58232W        W26637  24.141  13.566   3.238
58233W        W26638   2.029  43.453   4.594
58234W        W26639   8.565  28.937  13.511
58235W        W26640  34.418  19.699   2.711
58236W        W26641  20.049   5.728   4.045
58237W        W26642  43.369  23.309   2.257
58238W        W26643  36.996   8.228   1.713
58239W        W26644  30.061  30.806  13.269
58240W        W26645   7.909  40.547   2.676
58241W        W26646  29.800   3.592  12.876
58242W        W26647  12.629  11.729   2.938
58243W        W26648  32.770  36.594   0.741
58244W        W26649  33.439  16.757  12.932
58245W        W26650   8.346   9.207  11.591
58246W        W26651  42.051  38.581  11.896
58247W        W26652  40.536  38.567  11.951
58248W        W26653  15.235   9.881   1.506
58249W        W26654  43.192  15.612   4.643
58250W        W26655   2.723   9.649   0.164
58251W        W26656  23.686  18.326  12.002
58252W        W26657  11.227  32.435   0.393
58253W        W26658  19.753  40.536  14.030
58254W        W26659  39.506  35.875   2.263
58255W        W26660  12.920  38.000  11.651
58256W        W26661   6.852   4.405  12.645
58257W        W26662  12.677  27.086  14.514
58258W        W26663  13.329  44.054  11.082
58259W        W26664  40.567  18.002   2.056
58260W        W26665  14.052  27.476  11.455
58261W        W26666  18.783   4.544   4.084
58262W        W26667   2.491  41.690   3.705
58263W        W26668  35.187  20.822   5.070
58264W        W26669  15.082   4.186  11.936
58265W        W26670  25.234   8.002  14.232
58266W        W26671  28.084  19.613  10.736
58267W        W26672  23.584  29.929  13.536
58268W        W26673  34.845  38.338   4.506
58269W        W26674   5.612  44.639   2.824
58270W        W26675   6.208  18.398   4.197
58271W        W26676  30.671  16.153  13.942
58272W        W26677  34.098  33.920   0.825
58273W        W26678  11.005   0.920   2.820
58274W        W26679  17.627  41.285  12.505
58275W        W26680  12.166   3.841   3.639
58276W        W26681  38.061  15.805  14.306
58277W        W26682  26.202  34.154   0.956
58278W        W26683   4.644   1.788  12.031
58279W        W26684  30.740  27.565   3.004
58280W        W26685   3.706  40.862  14.056
58281W        W26686  41.262  44.351  11.358
58282W        W26687   0.548  43.189   1.534
58283W        W26688  43.953  16.545  13.502
58284W        W26689  11.228  44.323   2.274
58285W        W26690  37.950  19.642  13.388
58286W        W26691  18.854  34.104  11.976
58287W        W26692  25.187   6.197  10.984
58288W        W26693  43.792  12.317   3.727
58289W        W26694  36.317   6.604   1.959
58290W        W26695  26.198   5.148   1.915
58291W        W26696  21.742   0.564  11.018
58292W        W26697  39.550  30.584   2.877
58293W        W26698  10.670  13.175  14.582
58294W        W26699   7.287  27.678  10.985
58295W        W26700  43.464  21.276  10.309
58296W        W26701  24.344  38.374  14.967
58297W        W26702  13.224  20.218  13.162
58298W        W26703   1.295  33.304  12.117
58299W        W26704  33.638  15.354   1.757
58300W        W26705  17.741  30.932  10.928
58301W        W26706  28.647  44.688  12.030
58302W        W26707  38.481  39.964  14.965
58303W        W26708  22.065  25.264   1.297
58304W        W26709  22.857  18.167   4.150
58305W        W26710  24.896   1.194   1.486
58306W        W26711  19.102  41.885   2.658
58307W        W26712  26.305   5.802  12.635
58308W        W26713  21.078   1.987  11.049
58309W        W26714  19.587  18.052  10.839
58310W        W26715  32.137  26.172   0.334
58311W        W26716  29.370   3.485  10.658
58312W        W26717  24.904  34.481   2.387
58313W        W26718  16.574  15.132  14.885
58314W        W26719  20.803   6.453   1.358
58315W        W26720  21.123  23.697   1.891
58316W        W26721  36.496  35.863  12.149
58317W        W26722   4.216  23.067   4.835
58318W        W26723  42.445  30.544   2.615
58319W        W26724  10.308  34.416   1.711
58320W        W26725  18.210   3.241  12.376
58321W        W26726  43.199  36.467  12.062
58322W        W26727  41.767  18.673   2.833
58323W        W26728  36.037  16.481  12.503
58324W        W26729  18.595   8.848   1.979
58325W        W26730   6.857  43.390  10.996
58326W        W26731  35.559  16.728  12.136
58327W        W26732  39.392  24.489  14.871
58328W        W26733   4.143   8.808   2.280
58329W        W26734   7.294  40.257  14.006
58330W        W26735   4.624   2.854  12.468
58331W        W26736  35.671  34.356   2.693
58332W        W26737   4.774  44.513  12.327
58333W        W26738  18.329  32.900  11.007
58334W        W26739  22.822  35.841   4.258
58335W        W26740  28.701  15.546  13.818
58336W        W26741  39.386  41.514  14.318
58337W        W26742  17.823  30.567  14.528
58338W        W26743  17.426   5.248   9.822
58339W        W26744  29.136   8.342  11.261
58340W        W26745  35.550  19.457   0.158
58341W        W26746  27.037  26.099  10.876
58342W        W26747  42.484  23.605   3.568
58343W        W26748  38.498  16.892  13.136
58344W        W26749  20.934  20.171  14.720
58345W        W26750  27.727  40.122   4.095
58346W        W26751  32.056  33.188  11.194
58347W        W26752  27.031  28.642   0.860
58348W        W26753   3.232  12.111  11.510
58349W        W26754  31.467  26.148   2.558
58350W        W26755  39.057  44.009   4.883
58351W        W26756  43.976  41.984  13.604
58352W        W26757  39.872   5.280   2.348
58353W        W26758   6.689  26.980  11.068
58354W        W26759  15.883  38.979  12.853
58355W        W26760  16.142  34.527  12.118
58356W        W26761  22.033  13.792   4.630
58357W        W26762  16.047  41.505  10.803
58358W        W26763  33.151  44.136  11.762
58359W        W26764   0.824  12.216   0.795
58360W        W26765  37.632  32.393  11.651
58361W        W26766  10.358  14.397   0.319
58362W        W26767  13.286   8.475   0.999
58363W        W26768  32.007  40.059  13.899
58364W        W26769   9.440   7.991   2.032
58365W        W26770  18.078  29.571  13.896
58366W        W26771  44.751  15.175  10.978
58367W        W26772   3.688  20.562   0.175
58368W        W26773  34.648  34.016   1.490
58369W        W26774  15.192   1.012  12.014
58370W        W26775   8.395  15.285   3.991
58371W        W26776  17.277  13.550   3.809
58372W        W26777  43.041  17.112  11.207
58373W        W26778  16.992  41.934   0.844
58374W        W26779  17.051  26.046   3.494
58375W        W26780  15.078   1.334   1.405
58376W        W26781  33.427   4.919   3.257
58377W        W26782  37.586  29.910  12.849
58378W        W26783  17.497  22.602   1.489
58379W        W26784   6.579  42.408  14.177
58380W        W26785  42.791  23.077  11.108
58381W        W26786  25.993  41.769   1.803
58382W        W26787   8.183  36.368  13.841
58383W        W26788  18.591   9.965   0.924
58384W        W26789  44.793  36.611  13.493
58385W        W26790  12.532  16.361   1.785
58386W        W26791   3.368  37.115  12.292
58387W        W26792   9.649  20.099  14.338
58388W        W26793  20.428   9.171  12.061
58389W        W26794  41.050  44.978  13.997
58390W        W26795  19.650  23.596   3.382
58391W        W26796  10.784   8.707  11.472
58392W        W26797  28.338  22.606   4.168
58393W        W26798  20.299   0.932   3.189
58394W        W26799  41.997  41.623  14.477
58395W        W26800  43.522  40.805   2.643
58396W        W26801   9.909  15.505   2.636
58397W        W26802   5.907   0.923   1.194
58398W        W26803  32.020  13.299   2.367
58399W        W26804  20.187  21.178   3.795
58400W        W26805  12.534  10.415   4.188
58401W        W26806  27.532  17.740  12.713
58402W        W26807  43.021  34.870  13.014
58403W        W26808  41.056   4.896   4.201
58404W        W26809  24.177  33.543   2.248
58405W        W26810  15.698  26.247   4.530
58406W        W26811  40.965  42.243   3.154
58407W        W26812   1.512   6.386  11.573
58408W        W26813   8.528  24.470   4.254
58409W        W26814  35.884  35.109  11.086
58410W        W26815  16.710   1.322   2.672
58411W        W26816  16.129  26.730  10.972
58412W        W26817  40.736  36.734  13.984
58413W        W26818  26.045  25.897  11.963
58414W        W26819  17.761  25.075   4.437
58415W        W26820  42.441  38.979   2.456
58416W        W26821  16.294   8.290  12.521
58417W        W26822  11.215  28.105  12.597
58418W        W26823  29.642   1.042   0.229
58419W        W26824  22.576  28.936   2.386
58420W        W26825  12.186   8.502  14.856
58421W        W26826   2.362  27.943  10.395
58422W        W26827  39.814  10.351  11.135
58423W        W26828   8.816   9.732  14.100
58424W        W26829  31.474  44.241  12.160
58425W        W26830  28.113   1.075   1.354
58426W        W26831  32.561  28.781  10.759
58427W        W26832   6.426  11.029   0.645
58428W        W26833  37.007  11.022   2.061
58429W        W26834   0.699  44.498   0.548
58430W        W26835  39.252  20.792   0.529
58431W        W26836  39.761  39.917   2.346
58432W        W26837   7.025  21.497   0.355
58433W        W26838  37.518  25.565   2.754
58434W        W26839  19.002  31.387  12.132
58435W        W26840  18.160   6.168   4.535
58436W        W26841   2.230  22.073   3.309
58437W        W26842  32.245   9.861   5.106
58438W        W26843  40.334  32.372  11.487
58439W        W26844  29.441  25.664   0.303
58440W        W26845   2.547  12.253  12.241
58441W        W26846  39.912  44.033   3.731
58442W        W26847  43.069  44.704   4.257
58443W        W26848  35.458  19.549  14.648
58444W        W26849  32.679  42.325   4.137
58445W        W26850  14.064  23.168   2.722
58446W        W26851  30.721  21.675   3.628
58447W        W26852   1.460   4.535   1.331
58448W        W26853   6.841  37.033   4.674
58449W        W26854  34.320  44.964   1.220
58450W        W26855   6.226  27.446   4.686
58451W        W26856  12.945  29.506  11.510
58452W        W26857  17.676  10.788   3.286
58453W        W26858  44.729   2.780  13.770
58454W        W26859   4.674   7.534  11.547
58455W        W26860   2.943   5.706   0.983
58456W        W26861   5.378  23.510  12.977
58457W        W26862  32.117  44.947   1.038
58458W        W26863  29.282  18.333   3.306
58459W        W26864  15.489   4.247   2.698
58460W        W26865  39.392  38.872   0.977
58461W        W26866  42.050  15.071  12.001
58462W        W26867   8.563  19.948  10.931
58463W        W26868  34.109  42.954  12.481
58464W        W26869   6.620  44.964  12.009
58465W        W26870  17.594  33.665  12.032
58466W        W26871  41.893  23.720   0.820
58467W        W26872  14.311  25.673   3.120
58468W        W26873   7.851  29.586   0.495
58469W        W26874   2.660  42.295   4.035
58470W        W26875   1.796  29.452  11.272
58471W        W26876  18.455  35.078   3.596
58472W        W26877  31.464   9.506   2.149
58473W        W26878  25.225  33.518   2.202
58474W        W26879  26.828  24.827  11.091
58475W        W26880  13.894  35.887   2.606
58476W        W26881  18.563   8.859   3.460
58477W        W26882  38.334  20.078  13.348
58478W        W26883  11.931  42.887  14.310
58479W        W26884  36.035  10.821  13.047
58480W        W26885  42.479  17.307   4.414
58481W        W26886  21.646  39.043  11.400
58482W        W26887   4.802  14.618  11.504
58483W        W26888   6.783  11.391   0.520
58484W        W26889  31.702  32.195  12.008
58485W        W26890  24.129  21.523  12.472
58486W        W26891   4.614  27.044   1.840
58487W        W26892  23.147  21.817   3.265
58488W        W26893  15.780  31.317   0.845
58489W        W26894  28.003  24.748  11.685
58490W        W26895   2.179   8.077   4.064
58491W        W26896  40.030  34.127   1.403
58492W        W26897  22.965  41.949  11.553
58493W        W26898   9.397  31.438   3.619
58494W        W26899  36.832  17.488  12.434
58495W        W26900   1.838  23.520   1.044
58496W        W26901  12.680  44.520  11.594
58497W        W26902  21.719  34.388   1.400
58498W        W26903  29.619  40.730   9.511
58499W        W26904  14.166  31.688   0.497
58500W        W26905  42.339   9.931   3.651
58501W        W26906   9.297  30.276  11.922
58502W        W26907  21.559  21.574   3.797
58503W        W26908  41.876  27.938   3.761
58504W        W26909  43.325  15.751   4.131
58505W        W26910  23.098  16.358   2.306
58506W        W26911  33.951   3.877  12.906
58507W        W26912  39.962  22.092   3.651
58508W        W26913  30.071  41.580  13.429
58509W        W26914  13.579  26.544   4.647
58510W        W26915  37.087   9.095   0.209
58511W        W26916  13.390  30.652   1.740
58512W        W26917   6.402   2.367   1.752
58513W        W26918  24.603  40.367   1.509
58514W        W26919  28.907   1.072   4.006
58515W        W26920  23.479  42.098   1.940
58516W        W26921   1.400  18.383   1.524
58517W        W26922   2.530  28.643  12.840
58518W        W26923  22.690  10.779   2.015
58519W        W26924  20.951  40.081  10.221
58520W        W26925  44.782  27.640   2.228
58521W        W26926  35.492  26.938   3.892
58522W        W26927  24.692  36.128   3.695
58523W        W26928  42.141  43.994   4.341
58524W        W26929  13.324  44.672  12.463
58525W        W26930  35.496   3.485   4.603
58526W        W26931  18.548  35.609   0.914
58527W        W26932   7.594  36.601   3.240
58528W        W26933  28.007  12.403  13.407
58529W        W26934  11.228   9.653  11.122
58530W        W26935  24.413  38.873  11.550
58531W        W26936   7.661  18.142  14.046
58532W        W26937  32.488   1.275  11.686
58533W        W26938  43.435  18.778  10.626
58534W        W26939  20.090  34.104   3.825
58535W        W26940   6.960   3.322   0.439
58536W        W26941  36.535  20.520   4.087
58537W        W26942  20.916  39.312  13.920
58538W        W26943   4.653  38.865   1.364
58539W        W26944  41.788   1.198   1.825
58540W        W26945  26.978  14.154   5.113
58541W        W26946  30.983  35.001  13.055
58542W        W26947  28.843  43.480   1.760
58543W        W26948  42.319  35.027   0.449
58544W        W26949  28.107  28.465   3.053
58545W        W26950  22.476  11.136  11.028
58546W        W26951  37.886  28.969   0.792
58547W        W26952   1.955  13.099   0.912
58548W        W26953   0.377  19.669   2.019
58549W        W26954  42.347  15.110  11.599
58550W        W26955  40.830  38.463  11.561
58551W        W26956   9.466  24.640  12.458
58552W        W26957  31.482  30.566  12.109
58553W        W26958  22.541   7.870   2.988
58554W        W26959  33.163  34.046   1.223
58555W        W26960  20.788   2.113   2.597
58556W        W26961  21.664  40.042  12.323
58557W        W26962  35.257  15.390  11.159
58558W        W26963  31.016  26.951  10.488
58559W        W26964  18.166  24.377  10.420
58560W        W26965  31.923   4.951  12.084
58561W        W26966  33.423  25.353  14.046
58562W        W26967  37.780  12.519   2.096
58563W        W26968   6.938  21.301   2.150
58564W        W26969   6.677  20.820   3.370
58565W        W26970  22.050  37.373  14.400
58566W        W26971  34.954   8.622   2.239
58567W        W26972  35.760  37.022   1.892
58568W        W26973  44.848  13.921   3.290
58569W        W26974  32.650  42.797   3.342
58570W        W26975   4.176  44.394   0.452
58571W        W26976  43.481  23.425   0.465
58572W        W26977  13.110  24.952   1.125
58573W        W26978  25.266  43.745  11.514
58574W        W26979  26.094  31.132   1.497
58575W        W26980  21.045   4.273   2.390
58576W        W26981  24.084  12.303  12.067
58577W        W26982   1.509  19.973  13.317
58578W        W26983  35.046  25.998   1.286
58579W        W26984  10.386  38.308   3.904
58580W        W26985   1.286  12.826  11.980
58581W        W26986   0.283   5.024   3.304
58582W        W26987  42.261  10.355  11.592
58583W        W26988  16.605  42.828   4.206
58584W        W26989  14.679  19.523   3.170
58585W        W26990  35.303  19.224  13.839
58586W        W26991   0.291  10.552   2.116
58587W        W26992  31.796  31.702  12.385
58588W        W26993  18.087  28.407  14.435
58589W        W26994  25.099   1.947   2.665
58590W        W26995  32.705   4.781   4.535
58591W        W26996  19.100  29.531  12.011
58592W        W26997   6.652  19.644  13.376
58593W        W26998  26.293  12.232   3.483
58594W        W26999  22.605  11.404   3.214
58595W        W27000  25.580  12.195  11.104
58596W        W27001   5.177   0.315  12.365
58597W        W27002  33.693   3.757  10.677
58598W        W27003  26.142  13.705   1.022
58599W        W27004   0.498   7.435  12.473
58600W        W27005  12.420  23.002   1.360
58601W        W27006   9.372   7.153  10.678
58602W        W27007  22.726  41.629   0.661
58603W        W27008   5.782  26.740   3.798
58604W        W27009  43.378  20.615  10.858
58605W        W27010   0.411  43.703   1.716
58606W        W27011  13.863  42.800  11.989
58607W        W27012  13.987  26.507  13.589
58608W        W27013  26.148   9.627   3.753
58609W        W27014  36.512  14.852  14.543
58610W        W27015  17.409  32.668   5.104
58611W        W27016  22.201  23.182  14.749
58612W        W27017   8.896  26.390  13.024
58613W        W27018   0.616   5.916  11.658
58614W        W27019  35.847  27.878   0.830
58615W        W27020   3.954  30.162  14.460
58616W        W27021  10.186  25.497   2.902
58617W        W27022  30.744  26.929   4.064
58618W        W27023   1.375  36.061  11.442
58619W        W27024  33.938   9.998   0.717
58620W        W27025  44.314  22.310   0.388
58621W        W27026  10.873  17.743  12.643
58622W        W27027  44.225  14.848   4.621
58623W        W27028  40.298  29.935  11.158
58624W        W27029  41.907  42.464  14.887
58625W        W27030  13.411  13.317  13.235
58626W        W27031  10.653   3.790  14.112
58627W        W27032  21.804  13.460  14.492
58628W        W27033  18.705   0.741  14.435
58629W        W27034  25.493  34.819   1.720
58630W        W27035  15.371   6.528   1.366
58631W        W27036  15.432  35.197   4.995
58632W        W27037  42.289  17.226   0.318
58633W        W27038  23.030   8.446   5.101
58634W        W27039  24.627  11.240   0.586
58635W        W27040  41.870  29.379  13.032
58636W        W27041  29.176  30.950   1.189
58637W        W27042  13.804  26.627   0.082
58638W        W27043  24.135  14.399   2.128
58639W        W27044  17.631   9.856   4.130
58640W        W27045   0.269  42.826  12.004
58641W        W27046  44.474   1.254  10.467
58642W        W27047  41.627  25.652   3.131
58643W        W27048   3.258  23.087  14.514
58644W        W27049   4.586   1.783  11.195
58645W        W27050  17.551  27.733  13.431
58646W        W27051  25.628  25.510  13.607
58647W        W27052   1.792  32.429  14.469
58648W        W27053  12.861  41.559  11.944
58649W        W27054  31.445  39.107  11.548
58650W        W27055  37.250  40.149  11.477
58651W        W27056   9.137  14.223   3.656
58652W        W27057  24.158  26.818   4.941
58653W        W27058  19.167   6.626  10.274
58654W        W27059   4.977  20.949  10.184
58655W        W27060  30.082  18.293  10.867
58656W        W27061   0.916  29.009   3.347
58657W        W27062  28.109  42.525  10.267
58658W        W27063   9.702  18.054   0.091
58659W        W27064   4.832  43.372  13.122
58660W        W27065  24.421  43.237  10.565
58661W        W27066   7.482  35.011  12.644
58662W        W27067   1.830  34.675  13.479
58663W        W27068  18.476  36.362   3.147
58664W        W27069  38.034  39.457   1.246
58665W        W27070  31.561  19.259   1.447
58666W        W27071  32.539   4.904   3.246
58667W        W27072  19.195  16.209   1.188
58668W        W27073  36.417  15.903  14.472
58669W        W27074  28.908  27.476   1.393
58670W        W27075  27.665  37.688   4.443
58671W        W27076  27.103  34.544   0.472
58672W        W27077  11.826  14.581   4.557
58673W        W27078  24.621  28.183   1.662
58674W        W27079  25.476  18.336   3.263
58675W        W27080  16.151  19.303   4.600
58676W        W27081   9.880  10.605  12.029
58677W        W27082  38.476  21.422   4.476
58678W        W27083  23.524  29.871  12.916
58679W        W27084   6.629  14.708  11.948
58680W        W27085  10.719  35.977  11.868
58681W        W27086   9.275  25.277   2.849
58682W        W27087  36.024  10.710   2.995
58683W        W27088  30.531   4.895  11.981
58684W        W27089   1.153  32.675   0.126
58685W        W27090  39.594   2.286  13.803
58686W        W27091  30.396   8.838  10.617
58687W        W27092  23.608  27.148   1.805
58688W        W27093  38.521  33.139   0.788
58689W        W27094  15.090  19.934   2.824
58690W        W27095  33.808  32.458   1.961
58691W        W27096  13.865  38.769  13.088
58692W        W27097  15.820  25.160   1.915
58693W        W27098  14.290   1.167  12.014
58694W        W27099  34.345  41.892  11.117
58695W        W27100   9.821  38.398  13.128
58696W        W27101  43.400   6.240   4.092
58697W        W27102  20.591  13.890   3.086
58698W        W27103   3.855  40.335  13.124
58699W        W27104  44.302   7.939   2.472
58700W        W27105  29.968  28.053   1.933
58701W        W27106  21.432  25.412  11.497
58702W        W27107  29.635  38.433  11.437
58703W        W27108   7.373  19.841  13.913
58704W        W27109  27.909  18.490  12.877
58705W        W27110  20.760  34.580   3.916
58706W        W27111  11.241  24.625  12.961
58707W        W27112  21.268  16.294   2.689
58708W        W27113  37.635   9.580  10.729
58709W        W27114  41.903  40.639  10.299
58710W        W27115  36.117  26.352   4.391
58711W        W27116  13.837  28.358  12.582
58712W        W27117  19.963   7.956  13.565
58713W        W27118  39.537  20.176   4.349
58714W        W27119  28.193  27.776  14.467
58715W        W27120  16.555  10.136   1.768
58716W        W27121   6.965  15.332  12.446
58717W        W27122  42.612  41.098   1.818
58718W        W27123  16.485  34.794  13.955
58719W        W27124  43.675   0.410   0.192
58720W        W27125  28.653  35.460  10.861
58721W        W27126  13.186   6.906   4.606
58722W        W27127  41.536   3.209   4.525
58723W        W27128  43.888  41.068  12.032
58724W        W27129   6.902   0.074  11.172
58725W        W27130   5.318   1.120  12.911
58726W        W27131  27.516  19.013   4.243
58727W        W27132  17.725  18.648   1.895
58728W        W27133   7.134   2.312   3.938
58729W        W27134  19.626  44.745  14.738
58730W        W27135  43.287  43.386   1.430
58731W        W27136  39.623  10.582   3.679
58732W        W27137  36.610  37.582   4.169
58733W        W27138   6.306  35.633   1.688
58734W        W27139  40.901   9.594  11.774
58735W        W27140   5.393  42.740   2.363
58736W        W27141   1.454  18.522   3.035
58737W        W27142  17.712  11.643   2.843
58738W        W27143  40.730  20.465   2.690
58739W        W27144  34.814  20.057   1.280
58740W        W27145  20.546  14.857   3.176
58741W        W27146  39.667  20.023   3.861
58742W        W27147  25.108  35.530   3.917
58743W        W27148  19.483   5.699   0.115
58744W        W27149   8.863  33.895   0.514
58745W        W27150  44.846   2.121   2.578
58746W        W27151  41.930  17.701   3.750
58747W        W27152  39.907  33.190  14.277
58748W        W27153  37.723  42.405  11.360
58749W        W27154  27.944  32.787   3.192
58750W        W27155   7.434  25.202  12.066
58751W        W27156  10.271  41.490   4.161
58752W        W27157  38.943  14.659  11.587
58753W        W27158  41.520  43.832   2.433
58754W        W27159  35.965  44.285   0.406
58755W        W27160  23.656  13.027  13.443
58756W        W27161   6.176  12.625  13.991
58757W        W27162  21.596  23.670   5.063
58758W        W27163  34.673   0.389   1.993
58759W        W27164  28.506  10.085  10.116
58760W        W27165  39.459  12.498  11.468
58761W        W27166   6.952   3.409   0.960
58762W        W27167  31.849  33.724   4.202
58763W        W27168   7.895  24.182   3.124
58764W        W27169  16.476  31.122   0.766
58765W        W27170  17.235  20.660   0.746
58766W        W27171  15.562   3.569   0.389
58767W        W27172  22.683  27.611   3.409
58768W        W27173  19.127  21.424  13.069
58769W        W27174  10.419  27.284   4.953
58770W        W27175  26.367  24.555  11.062
58771W        W27176  25.044  40.803  12.985
58772W        W27177   1.944  34.395  12.538
58773W        W27178  33.634  17.097  11.110
58774W        W27179   8.713  21.455  13.411
58775W        W27180  38.001  19.334  14.794
58776W        W27181  19.671   7.711  14.580
58777W        W27182  18.802   3.879  11.082
58778W        W27183  40.810   0.359  13.440
58779W        W27184  37.810  31.456  13.051
58780W        W27185  34.542  35.399  11.921
58781W        W27186  15.979  19.340   3.690
58782W        W27187  23.272   9.571  12.532
58783W        W27188   4.721  38.102  12.365
58784W        W27189  22.159  19.087  13.946
58785W        W27190  23.248  20.160  11.961
58786W        W27191  20.799   6.452   3.160
58787W        W27192  34.529  21.701  13.479
58788W        W27193   6.920   8.663  13.388
58789W        W27194  34.631   9.328   2.250
58790W        W27195  34.824  10.451   1.801
58791W        W27196  24.835  12.313  14.011
58792W        W27197  11.294  13.237   0.335
58793W        W27198   5.325  26.304  14.019
58794W        W27199  37.607  13.326  14.837
58795W        W27200  33.989  12.062  13.447
58796W        W27201  40.615   4.752   3.237
58797W        W27202  24.662  24.622   4.142
58798W        W27203  26.180  36.987  11.202
58799W        W27204  15.591  34.154   1.696
58800W        W27205  20.068  25.086   0.360
58801W        W27206  11.602  37.925  12.017
58802W        W27207  26.819  35.799   4.803
58803W        W27208  19.252  13.325   4.164
58804W        W27209  40.411  23.542   2.368
58805W        W27210  44.710  44.940  14.498
58806W        W27211   6.926  19.840   2.256
58807W        W27212  44.415  10.377   2.329
58808W        W27213  29.842  37.953  11.542
58809W        W27214   9.056   4.929  13.384
58810W        W27215  41.893  22.225   3.819
58811W        W27216  10.535   6.013   2.779
58812W        W27217  37.564  17.558   1.257
58813W        W27218  12.571  22.611   1.918
58814W        W27219   7.176   5.088  11.562
58815W        W27220   0.880  28.585  11.921
58816W        W27221  20.110  36.960  10.790
58817W        W27222  30.201  27.982   3.316
58818W        W27223   6.882  27.493  12.480
58819W        W27224  32.212  24.615   3.968
58820W        W27225  21.702  14.964  13.407
58821W        W27226  25.757   4.380  11.945
58822W        W27227  27.414   2.795   4.939
58823W        W27228  35.412  15.574   1.705
58824W        W27229  18.357  28.148   3.511
58825W        W27230  13.150  35.478  12.458
58826W        W27231   7.637   4.642  13.482
58827W        W27232   1.948  18.010  10.576
58828W        W27233  29.157  19.011   1.808
58829W        W27234  14.528   2.916  12.925
58830W        W27235  20.257  32.015   2.614
58831W        W27236   5.434   7.140   2.235
58832W        W27237  10.897   9.654  11.525
58833W        W27238  28.474  44.268   3.301
58834W        W27239  25.631  23.282   4.120
58835W        W27240  10.284  35.555  10.539
58836W        W27241  16.578  38.365   3.550
58837W        W27242  15.745  36.997  13.099
58838W        W27243  37.346   9.415  11.117
58839W        W27244  39.049  27.497   2.332
58840W        W27245  25.001   0.149  11.331
58841W        W27246  11.945   9.365  11.947
58842W        W27247  38.884   6.103  10.290
58843W        W27248  26.068  35.511   2.950
58844W        W27249   9.681  18.451  12.302
58845W        W27250  31.328  19.361  13.403
58846W        W27251   1.812  21.683  14.711
58847W        W27252  15.879  26.876   1.254
58848W        W27253  40.474   2.299  14.091
58849W        W27254  38.621  25.448   2.400
58850W        W27255  30.272   4.811   0.413
58851W        W27256  43.094  11.726   1.956
58852W        W27257  31.886  34.524   1.362
58853W        W27258  18.866   7.031   1.430
58854W        W27259  26.057   3.994   2.754
58855W        W27260  21.826  28.947   4.177
58856W        W27261  20.270  25.964   1.091
58857W        W27262  44.502  36.097   3.417
58858W        W27263   0.772  21.635   4.748
58859W        W27264  22.288  16.367   1.167
58860W        W27265   4.390  22.776  14.810
58861W        W27266  25.982  17.716  13.489
58862W        W27267  12.030  30.836   1.184
58863W        W27268   9.856  11.381  12.471
58864W        W27269  32.416  43.297  12.636
58865W        W27270  15.006  14.182   3.085
58866W        W27271  21.662  43.773   4.854
58867W        W27272  17.342  17.724  12.395
58868W        W27273  13.525  33.589  12.891
58869W        W27274  11.186  19.692  12.947
58870W        W27275   6.742   9.140   4.809
58871W        W27276   3.297  44.298   2.613
58872W        W27277  33.501  27.141  10.525
58873W        W27278   1.739   5.328   1.601
58874W        W27279  11.421  38.764   4.181
58875W        W27280  37.155  24.045   4.566
58876W        W27281  20.909  42.861  11.252
58877W        W27282  42.117  23.988   4.651
58878W        W27283  44.941  34.724  12.866
58879W        W27284  42.907  11.240   3.921
58880W        W27285  37.943  22.067   1.888
58881W        W27286  21.748  23.149  12.929
58882W        W27287  17.209  26.499   0.955
58883W        W27288  10.156  36.502   2.329
58884W        W27289  21.305  41.001   1.435
58885W        W27290  21.519  34.999  12.041
58886W        W27291  28.586  32.448   2.514
58887W        W27292  14.909  34.023   0.024
58888W        W27293  38.164  25.458  14.989
58889W        W27294  26.637  27.589   2.212
58890W        W27295  42.755  18.134  12.442
58891W        W27296  17.828  36.232  12.238
58892W        W27297  30.642   0.366  11.153
58893W        W27298  15.640  38.432   3.288
58894W        W27299  20.625   9.637  11.943
58895W        W27300  24.644  43.027  12.112
58896W        W27301   3.913  24.217   3.869
58897W        W27302  42.887  26.470  11.060
58898W        W27303  13.801  30.056   2.315
58899W        W27304   7.496   2.693  10.941
58900W        W27305   2.488  40.450  13.786
58901W        W27306  28.737  11.148   3.631
58902W        W27307  41.604  26.976  10.643
58903W        W27308   8.432   4.005  13.279
58904W        W27309  13.711  20.181  12.844
58905W        W27310  10.762  28.635   2.744
58906W        W27311   9.402  28.980  13.850
58907W        W27312   1.882  24.473   3.722
58908W        W27313  42.115  23.615   3.200
58909W        W27314  43.500  10.902  12.451
58910W        W27315  37.061  17.133   1.932
58911W        W27316  13.432  40.330   0.563
58912W        W27317  30.586   3.062   3.636
58913W        W27318   5.509  12.452  10.515
58914W        W27319   3.921  23.185   1.855
58915W        W27320   7.315  29.066   0.874
58916W        W27321  34.614  28.650  12.595
58917W        W27322  13.864  19.311  11.097
58918W        W27323  40.914  15.585   2.357
58919W        W27324  30.558   8.417  11.089
58920W        W27325  27.698   1.695   1.857
58921W        W27326  40.881  12.662   3.841
58922W        W27327  20.447  42.300  14.288
58923W        W27328  17.725  43.769  13.042
58924W        W27329  40.761  12.925  12.025
58925W        W27330  13.673  17.193  10.955
58926W        W27331  42.328  40.542   2.742
58927W        W27332  40.009  28.115  12.722
58928W        W27333  35.557  19.030   2.408
58929W        W27334  14.332  10.851  14.084
58930W        W27335  19.547   9.608   2.684
58931W        W27336  15.733   2.685   2.878
58932W        W27337  42.486  31.674   1.964
58933W        W27338  15.670  19.115   0.396
58934W        W27339   4.763  11.270   4.831
58935W        W27340  14.536  24.265   4.338
58936W        W27341  24.231  32.856  10.670
58937W        W27342  26.134  35.991   3.176
58938W        W27343  19.799  13.034   2.591
58939W        W27344   4.482  35.996   4.594
58940W        W27345   1.758  13.290  10.447
58941W        W27346  10.901  36.179   0.835
58942W        W27347  38.921  31.985  13.015
58943W        W27348  41.706  22.207  14.165
58944W        W27349  22.531  19.511  10.748
58945W        W27350  11.455  21.595   3.769
58946W        W27351  36.879  27.020   3.952
58947W        W27352  16.999  25.058   2.514
58948W        W27353  10.089   1.672  11.282
58949W        W27354  13.700  26.768  11.169
58950W        W27355  36.298  44.277   0.790
58951W        W27356  35.284  23.666  13.307
58952W        W27357  10.585  25.596   3.819
58953W        W27358  24.764  32.099  11.991
58954W        W27359  26.975  21.057   4.550
58955W        W27360   0.028   0.996   1.885
58956W        W27361  39.049  38.077  11.127
58957W        W27362  35.307  19.461  12.308
58958W        W27363  25.035  29.456  13.360
58959W        W27364  18.724  29.721  11.723
58960W        W27365  40.950   3.583  14.263
58961W        W27366   2.710  16.838   4.162
58962W        W27367  28.022  44.906  12.761
58963W        W27368  34.552  19.895   4.575
58964W        W27369  34.678   3.969  10.801
58965W        W27370  33.504  16.102   2.223
58966W        W27371  39.912  36.342   0.734
58967W        W27372  14.916  13.239   1.707
58968W        W27373  30.040   5.115   3.134
58969W        W27374  31.375  10.413  11.469
58970W        W27375  39.031  20.306  14.269
58971W        W27376  29.207   2.495   1.882
58972W        W27377  15.572  30.545  14.024
58973W        W27378   1.248  21.837   3.271
58974W        W27379  21.849   7.635   4.219
58975W        W27380  23.602  21.582  12.595
58976W        W27381  37.147  11.338  11.423
58977W        W27382  28.046  31.552  13.396
58978W        W27383  31.411  17.744  11.464
58979W        W27384  31.042  37.395  11.573
58980W        W27385  22.692  40.357   2.732
58981W        W27386  36.358  30.694  10.325
58982W        W27387  18.289  25.171  11.598
58983W        W27388  26.636  28.492  10.598
58984W        W27389  36.436   3.501   1.503
58985W        W27390  38.504   2.700   0.777
58986W        W27391   4.484   7.504  13.061
58987W        W27392  22.162  30.799  12.432
58988W        W27393   8.822  34.480   4.735
58989W        W27394   6.437  36.173   0.842
58990W        W27395  16.504   2.212  13.543
58991W        W27396   5.075  34.360  14.469
58992W        W27397  31.050  33.434   0.485
58993W        W27398  22.330  40.870   4.963
58994W        W27399  12.976  27.393  11.067
58995W        W27400   5.206   8.699   1.716
58996W        W27401  41.212  36.995  14.674
58997W        W27402   4.969  25.507  14.015
58998W        W27403  31.274  21.989   3.268
58999W        W27404  42.436  40.055   0.861
59000W        W27405  25.599   9.715   4.382
59001W        W27406  39.595  24.763  11.629
59002W        W27407   6.263   9.234  12.613
59003W        W27408   3.482  22.211  11.587
59004W        W27409  21.329  12.971   4.625
59005W        W27410  33.259  34.076  11.528
59006W        W27411  35.575   8.547   2.888
59007W        W27412   5.713  31.599   2.443
59008W        W27413   1.784  24.801  11.320
59009W        W27414  25.444  24.066   0.805
59010W        W27415  25.644  28.911  13.412
59011W        W27416  32.058  17.777   2.143
59012W        W27417  15.090  39.342   1.418
59013W        W27418  12.274  23.661  12.152
59014W        W27419  12.364  30.230  14.741
59015W        W27420   7.283  19.308  13.922
59016W        W27421  44.876  35.452   4.019
59017W        W27422  32.653  34.574   2.959
59018W        W27423  16.838   8.709  13.172
59019W        W27424  13.358  36.792  13.362
59020W        W27425  36.996  15.032   2.642
59021W        W27426  29.041  13.583   1.281
59022W        W27427  18.039  14.419   5.067
59023W        W27428   2.876  34.914  12.565
59024W        W27429  39.914   3.690   3.633
59025W        W27430  14.109  17.234   0.529
59026W        W27431  37.436  27.657   1.485
59027W        W27432  15.779  18.672  14.188
59028W        W27433   1.981   5.025   3.841
59029W        W27434  12.247  28.619   4.759
59030W        W27435  33.476  29.175  13.217
59031W        W27436  44.786  34.694   3.327
59032W        W27437  37.361   3.453  10.023
59033W        W27438  33.908  25.108  12.838
59034W        W27439  32.694  36.847   3.347
59035W        W27440   2.013  13.824   4.365
59036W        W27441  41.962  42.493  12.973
59037W        W27442  10.136  34.498  14.854
59038W        W27443  20.778  22.175   4.094
59039W        W27444  15.748  41.581  14.981
59040W        W27445   4.564  14.632   0.784
59041W        W27446  27.421  25.016   3.679
59042W        W27447  25.294  11.089  10.568
59043W        W27448  22.747   7.404   1.834
59044W        W27449  34.891  15.387  11.876
59045W        W27450   0.176  18.153   0.012
59046W        W27451  35.281  17.213  14.382
59047W        W27452  43.513  10.540  13.496
59048W        W27453  39.352  44.844  13.290
59049W        W27454   6.103  19.639   0.528
59050W        W27455  19.798   8.972  10.173
59051W        W27456  21.777  10.061  11.185
59052W        W27457  40.039  32.403  14.091
59053W        W27458   1.623  38.927  14.857
59054W        W27459  36.917   2.794  13.965
59055W        W27460  23.013  20.712  12.845
59056W        W27461  13.292  25.737   4.550
59057W        W27462  21.252  11.553   1.882
59058W        W27463  12.035  26.738   4.099
59059W        W27464  38.505  30.630   3.834
59060W        W27465   9.778  28.932  12.074
59061W        W27466  29.522  10.290   0.818
59062W        W27467  38.913   4.239   0.306
59063W        W27468  15.359  17.798   0.328
59064W        W27469  22.942  28.542   4.724
59065W        W27470  39.116  19.758   3.752
59066W        W27471  29.861   0.813  11.644
59067W        W27472  22.259  41.973  14.886
59068W        W27473  15.546  39.062  11.525
59069W        W27474   7.194  27.953   1.495
59070W        W27475   0.686  37.806  12.059
59071W        W27476   6.221   1.809   2.384
59072W        W27477  11.387  14.652  12.316
59073W        W27478  10.803  33.756   2.126
59074W        W27479  36.315  27.885   3.294
59075W        W27480  40.347  19.814   5.322
59076W        W27481   4.792  27.150   2.721
59077W        W27482  19.704   2.754   5.035
59078W        W27483   3.241  24.078   4.554
59079W        W27484  10.058   7.167   0.256
59080W        W27485  37.642  29.668  12.367
59081W        W27486  27.718  38.200  14.456
59082W        W27487  34.976  30.878  10.694
59083W        W27488  37.983   8.515  11.867
59084W        W27489  11.427  11.336  14.263
59085W        W27490  15.536  29.278  14.970
59086W        W27491   8.309  11.381  10.502
59087W        W27492  27.708   7.936  14.320
59088W        W27493  31.966   2.389  13.310
59089W        W27494  25.483  33.245  14.494
59090W        W27495  30.489  31.378   2.610
59091W        W27496  37.526  35.268  14.329
59092W        W27497   2.948  10.088  12.804
59093W        W27498  27.280  29.161  11.288
59094W        W27499  17.550  41.759   3.748
59095W        W27500  12.131   3.504  10.657
59096W        W27501   5.247   2.003  10.553
59097W        W27502  31.545  21.295   1.386
59098W        W27503   2.979  22.449  13.837
59099W        W27504  41.779  36.433   1.729
59100W        W27505  18.210  14.143   1.386
59101W        W27506  17.480  24.972  12.771
59102W        W27507  14.277  39.118  10.437
59103W        W27508  15.897   9.125   9.790
59104W        W27509  23.968  17.715  10.976
59105W        W27510  41.344   2.232   0.980
59106W        W27511  27.004  20.109  13.053
59107W        W27512  20.264   8.770  13.905
59108W        W27513  38.643   7.846   1.374
59109W        W27514  13.601  42.039  11.162
59110W        W27515  41.329  11.088  13.914
59111W        W27516  28.612  37.874   3.863
59112W        W27517   1.783   0.464  11.505
59113W        W27518   7.145  35.481  11.608
59114W        W27519  10.915  35.025  10.995
59115W        W27520  23.068  25.576  10.655
59116W        W27521  28.439   8.263   0.013
59117W        W27522   2.417  41.125   2.187
59118W        W27523  21.454  27.876   2.267
59119W        W27524  14.247  16.399  10.747
59120W        W27525  23.197  44.485  12.980
59121W        W27526  42.723  39.642   0.457
59122W        W27527  42.424  41.999  12.616
59123W        W27528  39.027  17.108   3.357
59124W        W27529  18.563  22.257   0.789
59125W        W27530  23.088  43.789  14.257
59126W        W27531  22.193  14.727   3.698
59127W        W27532  13.250  16.099   2.213
59128W        W27533   1.020  36.477  13.940
59129W        W27534   0.768  32.921   1.008
59130W        W27535   2.254  24.336  13.518
59131W        W27536  24.154  27.018   0.369
59132W        W27537  28.284  15.996   4.938
59133W        W27538   6.259  23.043   1.238
59134W        W27539   7.625  37.024  11.148
59135W        W27540   8.281  19.635   1.856
59136W        W27541   2.938   2.189   1.825
59137W        W27542  25.068  10.927   3.224
59138W        W27543  39.377  20.577  13.957
59139W        W27544   2.874  29.935  12.169
59140W        W27545  15.715  34.721   0.095
59141W        W27546  15.255  16.942   3.578
59142W        W27547   7.022  19.957   3.618
59143W        W27548  10.956   9.149  11.674
59144W        W27549  36.470  12.838   3.642
59145W        W27550  21.046  36.073  14.079
59146W        W27551  12.203   7.388   4.339
59147W        W27552  23.407   5.092   2.455
59148W        W27553  12.679  17.240  11.077
59149W        W27554  20.426  40.802  11.972
59150W        W27555   6.374  43.772  10.662
59151W        W27556  44.576  31.320  14.478
59152W        W27557  19.678  29.646  12.887
59153W        W27558   9.476  10.834  14.376
59154W        W27559  41.358  32.880  10.660
59155W        W27560  25.932  32.534   2.596
59156W        W27561  39.472   3.583  14.225
59157W        W27562  31.881   1.406   4.102
59158W        W27563   7.313   7.790  13.545
59159W        W27564   3.823  38.418  11.486
59160W        W27565   7.750   4.325  14.446
59161W        W27566  23.205  13.874   1.616
59162W        W27567  19.177  15.711   0.977
59163W        W27568   6.970  32.034  14.989
59164W        W27569  32.643   6.338  13.520
59165W        W27570  31.684  44.250   4.182
59166W        W27571   4.072  13.932  14.053
59167W        W27572  21.580  42.030  11.186
59168W        W27573  13.391  37.271   1.335
59169W        W27574   2.781  24.160  11.998
59170W        W27575  14.308  43.261   0.014
59171W        W27576  10.810  19.167   1.873
59172W        W27577  22.374  41.201  13.869
59173W        W27578   6.522  20.176  10.716
59174W        W27579  34.352   1.511   4.249
59175W        W27580  16.972  24.168  12.512
59176W        W27581  14.849  17.191  10.347
59177W        W27582  43.412   3.489  11.671
59178W        W27583  24.846  12.084  14.500
59179W        W27584  17.140  39.080   5.128
59180W        W27585  42.351  38.910   2.964
59181W        W27586  43.394  36.590  13.288
59182W        W27587   5.381  16.937   1.466
59183W        W27588  32.702  40.871   0.915
59184W        W27589  38.804  38.563   2.785
59185W        W27590  12.250   5.444  12.210
59186W        W27591  37.117  21.683   2.721
59187W        W27592   5.479   6.358   3.217
59188W        W27593   9.216  32.774   3.605
59189W        W27594  44.922   1.237  11.641
59190W        W27595   9.891  38.962   2.885
59191W        W27596  22.490  16.972   4.662
59192W        W27597  38.852  43.200   1.726
59193W        W27598  12.379  38.238   0.089
59194W        W27599  27.494   8.742  11.087
59195W        W27600   5.955  41.534  14.736
59196W        W27601  20.959  26.936  10.307
59197W        W27602   4.021  32.545  14.831
59198W        W27603  13.779   4.193  11.120
59199W        W27604  24.595   3.876  14.017
59200W        W27605  43.805  38.049  10.924
59201W        W27606  20.571  28.904   4.764
59202W        W27607  26.980   2.605  14.931
59203W        W27608  21.883  39.116  12.664
59204W        W27609  13.630  22.953  11.992
59205W        W27610   3.171  42.049  12.674
59206W        W27611  19.100  30.424  13.893
59207W        W27612  18.999  24.565   2.345
59208W        W27613   7.457  31.029   0.772
59209W        W27614   8.366  24.727  12.376
59210W        W27615  41.042  28.086   3.602
59211W        W27616  42.990  38.415  10.957
59212W        W27617   8.661   8.889  13.948
59213W        W27618  38.856  14.711  12.955
59214W        W27619  17.673  43.513   2.883
59215W        W27620  33.987  25.779   1.700
59216W        W27621   8.297  31.059   0.053
59217W        W27622   9.829  31.592   5.135
59218W        W27623  15.766  38.025  12.372
59219W        W27624  12.704   2.031   4.148
59220W        W27625  17.307  31.614   0.922
59221W        W27626  24.032   0.386  14.447
59222W        W27627  14.620  32.034   3.275
59223W        W27628  33.895  44.746  14.416
59224W        W27629   5.116  26.695  11.969
59225W        W27630  36.702  36.525  11.646
59226W        W27631   3.502  11.971  10.207
59227W        W27632  22.244  44.176  13.852
59228W        W27633   8.892  24.640   1.877
59229W        W27634  20.205  36.396  12.638
59230W        W27635   3.678  15.192  14.803
59231W        W27636  17.079   8.413  13.597
59232W        W27637  19.218  23.031  13.841
59233W        W27638  25.986  19.081   1.141
59234W        W27639   4.618  16.654  12.042
59235W        W27640  24.731   7.757  11.071
59236W        W27641  15.025   6.937   1.410
59237W        W27642  21.591  13.617   0.009
59238W        W27643   9.225  10.573  11.300
59239W        W27644  33.912  28.906  12.050
59240W        W27645  32.039  38.302   4.854
59241W        W27646   2.551  39.559   3.571
59242W        W27647  13.052  17.180  12.377
59243W        W27648  13.791  15.348   0.705
59244W        W27649  29.085  22.775   0.487
59245W        W27650  16.226   0.376  13.298
59246W        W27651  17.818  34.668  11.993
59247W        W27652  38.796  33.583  12.533
59248W        W27653  12.192  12.082   3.725
59249W        W27654  15.800   8.862   0.921
59250W        W27655  25.625   4.975   0.690
59251W        W27656  20.500  12.767  14.007
59252W        W27657  23.672  25.037  10.665
59253W        W27658  44.742  21.061   3.544
59254W        W27659   7.697  13.237  14.448
59255W        W27660  34.518  18.695  12.393
59256W        W27661   3.735  42.821  10.624
59257W        W27662  40.843  11.277  12.342
59258W        W27663  21.278  12.260   1.390
59259W        W27664  20.597  37.954  11.109
59260W        W27665  21.367  19.757  14.492
59261W        W27666  21.627  11.188   1.126
59262W        W27667  38.126   4.205   0.244
59263W        W27668  25.579  36.310   3.820
59264W        W27669  32.384  44.970  12.443
59265W        W27670  36.527  43.281  12.415
59266W        W27671   7.544  36.116  14.833
59267W        W27672  32.755   4.625  12.900
59268W        W27673  23.266  15.592   4.610
59269W        W27674  41.112  10.824  11.045
59270W        W27675  26.329  33.047   3.646
59271W        W27676  20.543  13.190   1.861
59272W        W27677  41.673  42.562  12.551
59273W        W27678  37.912  24.166   0.466
59274W        W27679  26.698  24.541   3.847
59275W        W27680  21.802   1.789   4.545
59276W        W27681  27.981   1.888  11.107
59277W        W27682  39.487  16.332   2.748
59278W        W27683  25.508  40.562  11.263
59279W        W27684  21.135   1.440   3.845
59280W        W27685  29.971   1.113   4.070
59281W        W27686  21.011  22.097  13.782
59282W        W27687   2.828  17.205   0.876
59283W        W27688   2.892  41.130  10.756
59284W        W27689   2.973  30.580   1.356
59285W        W27690  17.375  18.234   3.708
59286W        W27691  32.931  42.076  11.195
59287W        W27692   9.196  19.204  14.918
59288W        W27693  22.910  41.370   4.325
59289W        W27694  20.223   6.957  11.548
59290W        W27695  42.990  24.576   0.096
59291W        W27696   4.433   7.143   4.585
59292W        W27697  17.960  34.404   4.255
59293W        W27698  34.353  16.091   1.325
59294W        W27699  21.251  20.163  11.522
59295W        W27700  38.967   5.421   1.257
59296W        W27701  16.123  25.420  14.359
59297W        W27702  10.288  13.762  10.624
59298W        W27703  23.227  37.461  10.531
59299W        W27704  30.311  32.662  10.808
59300W        W27705  40.363  37.486  10.481
59301W        W27706  42.591  15.564   3.448
59302W        W27707   7.929  30.674   1.861
59303W        W27708   0.325  41.737   0.634
59304W        W27709  18.101  44.272  11.766
59305W        W27710  24.533  18.595  12.533
59306W        W27711  28.253  38.304  13.335
59307W        W27712  13.484   5.971  11.550
59308W        W27713  28.127   1.875   0.020
59309W        W27714  11.319   1.242   9.901
59310W        W27715   3.646  34.972   4.086
59311W        W27716  36.537  27.656  11.270
59312W        W27717  30.041  31.629   2.663
59313W        W27718   4.184  12.008  10.746
59314W        W27719  42.595  36.421  12.800
59315W        W27720   4.975   0.855  14.300
59316W        W27721   1.387   7.917  13.530
59317W        W27722   6.862  25.177  13.994
59318W        W27723  33.820   3.351  10.357
59319W        W27724   7.322  10.501  14.769
59320W        W27725  16.791   2.746   1.386
59321W        W27726  25.116  40.004   3.171
59322W        W27727   1.496  36.883  13.256
59323W        W27728  34.992  16.356  11.061
59324W        W27729  37.738  12.062  13.991
59325W        W27730   5.820   2.770  12.059
59326W        W27731  11.081  25.223  12.105
59327W        W27732   4.564  28.662  10.628
59328W        W27733   2.492  42.665   3.176
59329W        W27734   3.057  39.753   0.876
59330W        W27735  33.954  37.444  11.652
59331W        W27736   7.177   9.133  13.406
59332W        W27737  13.728  43.986  12.397
59333W        W27738   9.163  25.718   4.192
59334W        W27739  13.609   6.522   1.722
59335W        W27740  41.285  23.077   1.097
59336W        W27741  28.635  31.723   4.569
59337W        W27742  24.515  12.560  12.009
59338W        W27743  30.501  32.598   5.066
59339W        W27744   1.437   7.091   2.236
59340W        W27745  14.994  19.653  12.553
59341W        W27746  43.546   6.735   3.659
59342W        W27747   8.928  36.039  11.113
59343W        W27748  37.077  36.323   2.248
59344W        W27749  43.964   4.271   3.282
59345W        W27750  21.534  37.554  11.154
59346W        W27751   5.720  36.189  11.463
59347W        W27752  38.786  10.196   1.364
59348W        W27753  27.204   1.834  12.009
59349W        W27754  37.184  37.852   2.079
59350W        W27755   5.244   1.886  13.535
59351W        W27756   0.317  29.167  14.461
59352W        W27757  32.917  33.661  11.101
59353W        W27758   6.646   9.485   3.264
59354W        W27759  11.578  24.850  12.106
59355W        W27760   5.882  18.094   0.504
59356W        W27761  13.206   7.917   2.744
59357W        W27762  18.543  41.894   0.648
59358W        W27763   3.717  23.455   0.893
59359W        W27764  27.469  16.124  14.043
59360W        W27765  14.290  33.655  12.560
59361W        W27766  17.919  15.235   1.524
59362W        W27767  23.668  14.195  14.391
59363W        W27768  24.164  37.395   0.015
59364W        W27769  17.351  30.218  11.238
59365W        W27770  38.115  23.969   1.374
59366W        W27771  25.242   8.585   1.301
59367W        W27772  27.064  15.207  13.815
59368W        W27773  14.958   1.877   2.338
59369W        W27774  25.038  40.393   4.553
59370W        W27775   8.314   3.435   1.782
59371W        W27776  44.393  28.835   2.879
59372W        W27777  28.178  22.296   1.448
59373W        W27778   3.234  14.669   1.914
59374W        W27779  36.990   3.868   2.366
59375W        W27780  19.115   0.207  12.188
59376W        W27781   5.891  41.013  14.795
59377W        W27782  11.667  41.373  11.582
59378W        W27783  26.215  13.511   1.482
59379W        W27784  17.138  21.358   1.339
59380W        W27785   8.878  20.137   3.310
59381W        W27786  31.646  18.093  11.044
59382W        W27787   9.823  19.161  11.270
59383W        W27788  23.423   0.884  12.473
59384W        W27789  35.018  29.504   2.919
59385W        W27790   0.995  43.437   2.827
59386W        W27791  31.489  43.956  14.467
59387W        W27792  30.173  12.245  13.001
59388W        W27793  36.604  14.577  12.446
59389W        W27794  13.895  24.012  11.167
59390W        W27795   4.433  24.599  11.723
59391W        W27796   8.656  11.151   1.333
59392W        W27797  34.079  16.817  11.175
59393W        W27798  11.252   3.361   5.165
59394W        W27799   2.362  30.173   2.868
59395W        W27800  26.550  37.489  11.983
59396W        W27801  16.051   0.560   3.547
59397W        W27802  10.357  29.222   3.477
59398W        W27803  21.554  41.747   1.441
59399W        W27804   3.158  31.378   0.374
59400W        W27805  41.319   2.699   2.734
59401W        W27806  39.798  41.268   4.207
59402W        W27807  37.432  15.302   2.688
59403W        W27808  21.034  12.879   0.676
59404W        W27809  22.203   8.723   3.169
59405W        W27810  28.194  11.757   0.969
59406W        W27811  13.530  35.633   2.322
59407W        W27812   6.182  33.035  11.655
59408W        W27813  14.463  43.048  14.515
59409W        W27814   7.011  37.473   4.922
59410W        W27815  24.623  42.039  13.051
59411W        W27816  28.009  37.897  13.057
59412W        W27817   4.677  31.940   1.748
59413W        W27818  21.652  14.635  13.844
59414W        W27819   1.391   4.679   4.100
59415W        W27820  24.359  21.694  11.085
59416W        W27821  16.249   3.477  14.014
59417W        W27822  15.759  23.014   3.295
59418W        W27823  34.120  40.766   1.355
59419W        W27824   0.352  36.501   0.377
59420W        W27825  24.241  15.554  14.013
59421W        W27826  39.013   6.955   1.218
59422W        W27827  41.447  39.975  12.955
59423W        W27828  12.610   8.382  12.564
59424W        W27829  40.836  39.190   1.306
59425W        W27830   4.318  13.171  14.484
59426W        W27831  12.138   0.308  12.491
59427W        W27832  29.766  13.183   1.177
59428W        W27833  42.823   2.452  12.024
59429W        W27834  19.218  12.579   4.647
59430W        W27835  39.753  34.395  12.442
59431W        W27836  16.020   4.456  14.527
59432W        W27837  12.630   3.934  12.807
59433W        W27838  21.102  18.623   2.997
59434W        W27839  44.222  36.058  11.874
59435W        W27840  20.472  22.581  12.807
59436W        W27841  15.700  24.765  14.727
59437W        W27842  28.584  15.799   4.579
59438W        W27843  18.441  15.400  11.946
59439W        W27844  27.850   7.637  12.526
59440W        W27845  27.916  26.000   3.214
59441W        W27846  15.575  10.640  12.959
59442W        W27847  32.491  23.529  12.553
59443W        W27848   0.341  35.666   0.072
59444W        W27849  18.642  14.675   4.425
59445W        W27850  27.912  12.348   2.773
59446W        W27851  42.718  30.873   1.853
59447W        W27852  10.078  33.990   0.008
59448W        W27853  16.728   2.295   3.323
59449W        W27854   3.023   5.830   3.811
59450W        W27855   6.533   8.637  10.782
59451W        W27856  30.668  25.061  11.814
59452W        W27857  20.082  40.047   3.372
59453W        W27858  14.333  34.920   4.245
59454W        W27859  15.011   4.664   0.735
59455W        W27860  34.458   2.965   2.452
59456W        W27861  25.354  17.551   2.644
59457W        W27862   2.446  14.349  12.375
59458W        W27863  33.593  34.047  14.780
59459W        W27864  40.403  10.829  12.871
59460W        W27865   3.275  34.887  13.855
59461W        W27866  24.356  14.708   4.584
59462W        W27867  19.065  36.513   0.396
59463W        W27868   6.353  41.055   2.166
59464W        W27869  41.914  41.921   0.033
59465W        W27870  38.878  10.032  11.182
59466W        W27871   1.673   0.788  14.722
59467W        W27872  23.430  14.856  11.731
59468W        W27873   1.712   7.477   3.283
59469W        W27874  43.286   5.258   4.012
59470W        W27875  10.913  20.689   3.417
59471W        W27876   2.805  14.655   3.673
59472W        W27877   8.754  33.920  14.440
59473W        W27878   2.259  35.730   2.716
59474W        W27879  44.983  19.250  11.693
59475W        W27880  29.644   7.523  12.389
59476W        W27881  41.539   3.414  10.611
59477W        W27882  40.224  22.447   5.007
59478W        W27883  25.963  44.304   0.276
59479W        W27884   1.904  43.437  10.707
59480W        W27885  14.593   5.775   3.815
59481W        W27886  31.063   5.656  10.941
59482W        W27887  11.375  44.224  11.910
59483W        W27888  17.270  11.273  11.088
59484W        W27889  26.029  41.035  14.403
59485W        W27890  24.323  43.374   1.321
59486W        W27891  25.813  22.110  13.818
59487W        W27892  28.434   7.301  14.632
59488W        W27893  33.984  40.270   2.024
59489W        W27894  19.782   7.860   4.145
59490W        W27895  23.041  10.180   3.258
59491W        W27896  31.063  41.305  12.496
59492W        W27897  17.061  28.961  11.047
59493W        W27898   4.013  21.430   2.858
59494W        W27899  22.701  34.527   0.396
59495W        W27900   8.681  14.485   0.550
59496W        W27901   3.903   9.263   2.190
59497W        W27902  26.470  33.526  12.626
59498W        W27903  16.576  23.351  11.217
59499W        W27904  24.267   9.066   2.265
59500W        W27905  27.703   1.210   2.579
59501W        W27906  15.732   9.668  13.891
59502W        W27907  36.465   6.322  13.311
59503W        W27908   7.896  39.389  12.432
59504W        W27909  19.898  26.510   4.268
59505W        W27910  39.510   5.943   4.106
59506W        W27911  30.177  10.266   2.242
59507W        W27912  24.008  16.112   3.824
59508W        W27913  11.339  24.548   3.644
59509W        W27914  12.388  19.853  10.509
59510W        W27915  35.458  12.224  12.060
59511W        W27916   6.664   6.251  12.033
59512W        W27917  44.794  16.048  11.540
59513W        W27918   1.801  38.018   4.302
59514W        W27919   3.375   7.755   4.929
59515W        W27920  10.174  11.648  11.650
59516W        W27921  13.099  22.943  10.787
59517W        W27922   4.947   0.465   2.742
59518W        W27923  24.217  12.061  10.758
59519W        W27924   4.725  40.738   3.193
59520W        W27925  17.766  33.964   4.061
59521W        W27926   6.471  14.085  10.360
59522W        W27927   2.135  11.730   1.485
59523W        W27928  32.613  15.810  13.109
59524W        W27929  19.209  38.645   4.695
59525W        W27930  40.350  42.771  12.974
59526W        W27931  22.123  38.426   3.777
59527W        W27932   5.310  28.603   2.152
59528W        W27933   2.920  12.495  11.306
59529W        W27934   2.415  33.356  13.035
59530W        W27935  29.086   8.721  12.609
59531W        W27936   1.605   9.667   4.200
59532W        W27937   0.974  22.745  14.883
59533W        W27938  12.377  30.940  13.030
59534W        W27939  12.612  25.054  12.977
59535W        W27940  12.758   2.741  10.706
59536W        W27941  22.608   9.186   0.521
59537W        W27942  17.240  32.281   3.623
59538W        W27943  19.462   1.826   2.639
59539W        W27944  14.637  42.720   2.438
59540W        W27945  21.243  18.153   9.934
59541W        W27946  27.095  30.445  13.957
59542W        W27947  19.879  24.283   9.727
59543W        W27948  13.618  31.878  12.352
59544W        W27949  14.712  30.827  12.522
59545W        W27950  29.953   4.030  11.153
59546W        W27951   7.834  20.907  12.853
59547W        W27952  31.543  32.008   2.249
59548W        W27953   2.962   8.365  11.525
59549W        W27954  26.968  11.312  10.260
59550W        W27955  15.844  25.528  11.278
59551W        W27956   8.448   9.807  14.485
59552W        W27957  44.944  15.708  11.071
59553W        W27958  36.489   4.000  12.965
59554W        W27959  29.005   3.620  11.268
59555W        W27960  22.030  28.214  13.926
59556W        W27961  16.350  44.867   3.187
59557W        W27962  12.936  26.631  10.617
59558W        W27963  29.191   4.885   4.626
59559W        W27964   5.764   3.845   0.474
59560W        W27965  11.648  37.330   2.769
59561W        W27966  39.788   1.737   1.333
59562W        W27967   4.905  42.588   5.014
59563W        W27968   1.188  22.919   2.439
59564W        W27969   3.067  15.873   4.235
59565W        W27970  21.623  28.391   1.802
59566W        W27971  36.579  13.778   2.907
59567W        W27972  32.446   3.366  13.205
59568W        W27973  23.614  33.176  14.137
59569W        W27974  24.970  27.634  13.884
59570W        W27975   2.672  21.241  12.169
59571W        W27976  12.776  43.710   2.178
59572W        W27977  30.797  34.911   2.762
59573W        W27978  24.059  24.568   2.215
59574W        W27979  21.988  25.473  12.522
59575W        W27980  22.504  21.133  13.343
59576W        W27981  15.559   8.721   9.943
59577W        W27982  12.246  41.555  14.054
59578W        W27983  20.545  26.998   1.831
59579W        W27984  21.110  16.202   0.900
59580W        W27985  21.093  22.225   2.369
59581W        W27986  34.497   1.809  14.508
59582W        W27987  22.537  31.894  12.110
59583W        W27988  15.623  38.912   2.143
59584W        W27989  15.328  42.407   1.328
59585W        W27990  23.149  30.978   1.399
59586W        W27991  22.082   3.210   0.342
59587W        W27992  13.222   4.927   3.675
59588W        W27993  28.010  33.756  12.928
59589W        W27994   8.210   3.600  11.549
59590W        W27995  19.158  25.808  13.797
59591W        W27996  17.338   6.690  11.068
59592W        W27997   6.732   1.031   3.648
59593W        W27998   7.428  26.156  11.621
59594W        W27999  17.667   1.367   3.745
59595W        W28000  28.715  10.849  12.470
59596W        W28001  10.648  25.442   4.843
59597W        W28002  30.816  33.655   2.209
59598W        W28003  37.584  32.722   3.685
59599W        W28004  43.761   3.971  12.515
59600W        W28005  20.939  17.114  14.463
59601W        W28006  27.090  16.534   3.911
59602W        W28007  13.390  24.027  13.092
59603W        W28008  35.700  35.922  13.466
59604W        W28009  42.183  38.073  11.980
59605W        W28010  13.716  25.455   3.841
59606W        W28011   4.397  13.610  10.649
59607W        W28012  11.275  40.578  11.689
59608W        W28013  32.611  42.526   4.627
59609W        W28014  33.337  19.047   0.696
59610W        W28015  10.590   4.400   1.368
59611W        W28016  25.596  34.576  10.336
59612W        W28017  23.318   5.204  13.270
59613W        W28018  29.699  32.989   2.946
59614W        W28019  37.269   2.882   2.737
59615W        W28020   1.908   1.970   1.374
59616W        W28021  32.848   5.686   1.016
59617W        W28022   7.900  40.842  13.490
59618W        W28023  44.247  14.162  14.647
59619W        W28024   3.180  16.102  14.963
59620W        W28025  29.333  28.250   4.601
59621W        W28026  44.897  43.977  11.284
59622W        W28027  14.878  20.672   1.328
59623W        W28028  21.240  35.773   1.205
59624W        W28029   8.832  24.937  12.995
59625W        W28030   6.721  10.754  13.876
59626W        W28031   8.243  31.518   3.720
59627W        W28032  32.341  31.953   4.844
59628W        W28033  21.108   4.009   1.419
59629W        W28034  44.001   2.143   3.320
59630W        W28035   0.353   5.528  10.707
59631W        W28036  31.494  43.991  11.121
59632W        W28037   0.799   6.904   0.350
59633W        W28038  22.277  13.621  14.296
59634W        W28039  17.552  34.485  12.404
59635W        W28040  15.225  40.997  13.277
59636W        W28041  44.791  32.601   4.984
59637W        W28042  11.291  25.958  14.103
59638W        W28043  30.986  29.201   4.653
59639W        W28044  27.083   9.729  12.076
59640W        W28045  38.011  17.176   4.286
59641W        W28046  32.009  16.510  13.426
59642W        W28047  31.477  28.818  13.107
59643W        W28048  40.080  10.688   2.728
59644W        W28049   2.345  39.535   2.281
59645W        W28050   5.920  10.358   3.911
59646W        W28051   5.877  41.045  11.962
59647W        W28052  14.533   8.471   4.274
59648W        W28053  20.721  29.503   1.030
59649W        W28054  24.512  35.435   0.819
59650W        W28055  33.393   9.903   0.772
59651W        W28056  26.915  43.002   5.052
59652W        W28057  31.075  39.000   3.620
59653W        W28058   5.953  43.451   0.322
59654W        W28059  42.463   4.418  10.488
59655W        W28060   6.314  11.862   4.067
59656W        W28061  32.871  39.654  13.534
59657W        W28062   6.370  15.186  11.198
59658W        W28063   4.471  43.306  14.504
59659W        W28064  22.782  44.340  11.905
59660W        W28065  30.416  15.358   4.240
59661W        W28066  40.643  15.585  10.355
59662W        W28067  11.139   0.322  11.079
59663W        W28068   5.224  10.792  14.467
59664W        W28069   9.690  26.014   1.113
59665W        W28070  16.729  32.047  12.663
59666W        W28071  18.822  17.683  13.640
59667W        W28072  36.628   1.847   0.938
59668W        W28073  23.706  18.585   4.157
59669W        W28074  23.068   7.690  11.921
59670W        W28075   5.645  40.359   2.389
59671W        W28076  32.040   3.189  12.511
59672W        W28077  15.514   4.826   1.651
59673W        W28078  22.300  36.120  13.071
59674W        W28079  13.337  21.214  11.540
59675W        W28080   4.910  23.207  13.615
59676W        W28081   9.482   8.699  12.648
59677W        W28082  29.275  14.658   4.195
59678W        W28083  26.049  19.008   1.645
59679W        W28084  24.249  16.678  13.388
59680W        W28085   5.727   5.875  12.502
59681W        W28086  41.727   6.939  10.538
59682W        W28087  27.862  12.675  11.468
59683W        W28088   4.493  41.959  13.307
59684W        W28089  16.268  42.552  10.652
59685W        W28090  34.833  11.472   1.434
59686W        W28091  43.069  23.553  13.309
59687W        W28092  13.380   2.707   2.727
59688W        W28093  23.695  25.619  10.655
59689W        W28094   8.166  28.923   4.035
59690W        W28095   6.641   6.957   3.911
59691W        W28096  44.385  40.007  11.159
59692W        W28097   1.339  11.276  14.682
59693W        W28098   5.387  39.817  12.436
59694W        W28099  19.092  11.366  12.053
59695W        W28100  27.569  25.481   3.467
59696W        W28101  17.431  10.201   1.125
59697W        W28102  25.203  14.660  14.041
59698W        W28103   8.698  26.111   4.320
59699W        W28104  30.840   7.629   3.822
59700W        W28105   8.725   1.672  11.125
59701W        W28106  20.232   0.636   1.970
59702W        W28107  30.000   0.500   3.109
59703W        W28108  25.574   3.227   2.645
59704W        W28109  16.545  31.253  13.310
59705W        W28110  22.523   9.660  11.939
59706W        W28111  21.110  27.522   3.404
59707W        W28112   3.325  32.856  13.075
59708W        W28113  12.207  26.964   3.643
59709W        W28114   9.435   5.350  12.562
59710W        W28115  12.522  25.474   2.897
59711W        W28116   1.509  44.578  14.772
59712W        W28117  15.014  44.413  11.549
59713W        W28118   4.895   7.521   3.447
59714W        W28119  12.490  42.548   4.297
59715W        W28120   1.145  25.297  13.165
59716W        W28121  35.042  39.161  12.052
59717W        W28122   6.231  32.945  13.601
59718W        W28123  24.431  10.098  12.125
59719W        W28124  22.088  22.830   3.660
59720W        W28125  34.679   6.319   1.196
59721W        W28126  31.488   1.046   4.765
59722W        W28127  35.032   8.303   3.603
59723W        W28128  31.440   3.879   4.335
59724W        W28129   3.769  26.611  11.879
59725W        W28130  17.676  18.633   3.774
59726W        W28131  29.860  23.056  13.264
59727W        W28132  38.683  39.922  14.435
59728W        W28133  24.208  30.852   2.695
59729W        W28134  21.418   0.368   3.694
59730W        W28135  29.867   6.147   1.427
59731W        W28136  16.979  29.989   0.480
59732W        W28137  37.563  23.062  14.860
59733W        W28138  32.619   7.167   2.822
59734W        W28139   9.433  42.393  12.098
59735W        W28140  43.403  24.018  10.695
59736W        W28141  23.561  31.608   3.757
59737W        W28142  11.795   1.455  13.754
59738W        W28143  23.748  32.555   4.107
59739W        W28144  12.573  18.149   2.598
59740W        W28145  43.268  37.469  14.475
59741W        W28146  19.822  24.188   0.857
59742W        W28147  12.392  10.857   4.587
59743W        W28148   0.409   7.162   3.712
59744W        W28149  39.620   6.332   1.956
59745W        W28150  24.798   3.789   0.831
59746W        W28151  39.373  35.580   0.991
59747W        W28152  17.553  32.130   1.435
59748W        W28153  23.130   9.394  13.399
59749W        W28154  31.169   1.103  11.517
59750W        W28155   6.423   6.186   2.346
59751W        W28156   4.656  40.956   4.160
59752W        W28157   6.377  31.423   1.346
59753W        W28158  40.449  25.140  10.286
59754W        W28159  38.315   3.424   4.075
59755W        W28160  40.778  40.037   3.347
59756W        W28161  20.645  17.115  11.652
59757W        W28162   8.533   6.919   4.147
59758W        W28163  21.378  42.384  13.428
59759W        W28164  21.544  12.273  14.978
59760W        W28165  23.707   9.391  14.280
59761W        W28166   6.846  22.920  10.563
59762W        W28167  14.685  44.832   0.222
59763W        W28168  10.413  36.890   2.084
59764W        W28169  43.123  32.128  11.565
59765W        W28170  12.180  44.133  12.924
59766W        W28171  44.092  25.451   2.801
59767W        W28172  10.741   3.624  11.290
59768W        W28173  14.641   6.721   3.756
59769W        W28174  39.525   1.002  13.034
59770W        W28175  21.348   4.904   3.111
59771W        W28176  25.482   3.175  14.384
59772W        W28177   6.286  17.243  11.126
59773W        W28178   8.142  14.718   5.060
59774W        W28179  27.297  31.472   4.567
59775W        W28180  34.391  28.106   1.704
59776W        W28181   5.088  13.054  10.527
59777W        W28182  27.219  30.469  11.282
59778W        W28183  17.625  37.015   3.788
59779W        W28184  23.190   9.684  14.257
59780W        W28185  37.892   1.411   2.728
59781W        W28186  23.047  18.164   3.662
59782W        W28187  17.309  21.785   4.565
59783W        W28188   2.325  33.875   2.366
59784W        W28189  23.665  29.936  14.463
59785W        W28190  42.505   2.387  12.715
59786W        W28191  20.346  15.666  13.349
59787W        W28192  36.404  11.743  12.542
59788W        W28193  26.030  28.449   0.447
59789W        W28194  22.024  11.144  13.741
59790W        W28195  25.525  40.481  14.933
59791W        W28196  38.700  11.718   1.520
59792W        W28197  36.621  40.031  13.060
59793W        W28198  24.656  18.221   0.910
59794W        W28199  23.118  21.605  12.314
59795W        W28200  16.496  25.775  10.203
59796W        W28201  41.936   7.192   3.205
59797W        W28202  39.971  36.939   2.841
59798W        W28203  23.586  44.604   3.269
59799W        W28204  13.761  25.226   2.844
59800W        W28205   2.637  19.471   2.200
59801W        W28206  13.134  27.877   2.459
59802W        W28207   7.120  39.369   1.330
59803W        W28208   0.999  25.117   3.626
59804W        W28209   5.739  34.082   3.206
59805W        W28210  16.060   1.432  11.462
59806W        W28211  16.814  33.961  11.600
59807W        W28212  40.316  21.388   5.149
59808W        W28213  15.759  25.786   2.509
59809W        W28214  28.372  20.357   4.026
59810W        W28215  29.909  32.524   1.319
59811W        W28216  39.019  19.082  13.093
59812W        W28217  33.327  30.952   4.301
59813W        W28218  32.346  10.029   4.212
59814W        W28219  41.794   2.894   2.453
59815W        W28220  37.981  40.561  10.785
59816W        W28221  32.484  42.878   2.383
59817W        W28222  28.599  14.262   4.051
59818W        W28223  18.247  22.806  11.701
59819W        W28224  30.954   0.274  11.919
59820W        W28225  37.062  27.511  14.243
59821W        W28226  20.005  32.434  14.968
59822W        W28227  30.156  15.142   0.413
59823W        W28228   6.095  37.399   4.993
59824W        W28229   9.379  15.213   4.102
59825W        W28230   3.818  33.593  10.569
59826W        W28231  14.597  39.617  10.699
59827W        W28232  39.290  42.036  14.233
59828W        W28233  22.533  38.492  11.099
59829W        W28234  43.858  40.684  12.903
59830W        W28235  21.654   8.495  14.829
59831W        W28236  40.273  20.700   2.584
59832W        W28237  38.704   6.608  11.167
59833W        W28238   1.214  38.095   1.577
59834W        W28239  11.399  30.141  14.080
59835W        W28240  25.702  20.620   1.698
59836W        W28241  44.834  36.107  14.413
59837W        W28242   2.056  29.062  14.919
59838W        W28243  16.812  41.013  14.615
59839W        W28244  33.194  24.011   3.710
59840W        W28245  21.989  13.108   1.577
59841W        W28246  37.448  39.344   4.476
59842W        W28247  25.848  27.748   1.177
59843W        W28248  10.381  16.186   2.046
59844W        W28249  40.438   1.816  13.846
59845W        W28250  44.281  11.725   0.465
59846W        W28251  17.236  21.005  11.011
59847W        W28252  39.857   5.424  13.471
59848W        W28253  17.682   0.823  11.022
59849W        W28254  23.056  39.198   3.230
59850W        W28255  39.475  20.293   4.910
59851W        W28256  11.253  26.252   2.348
59852W        W28257  23.011  44.208   4.560
59853W        W28258  32.391   6.668  11.435
59854W        W28259  13.033  25.718  12.417
59855W        W28260   3.488  22.400   0.998
59856W        W28261  19.282  16.243  12.463
59857W        W28262  21.790  27.073  14.296
59858W        W28263  32.170  42.287   4.507
59859W        W28264  26.255  42.178   3.725
59860W        W28265  33.647  12.873   0.834
59861W        W28266  38.603  44.026  11.186
59862W        W28267  35.387  38.631   0.773
59863W        W28268   6.814  13.011  11.495
59864W        W28269  19.625  24.207   3.713
59865W        W28270  43.531  26.148   3.130
59866W        W28271  43.489   2.905   3.357
59867W        W28272  21.400  37.919  12.448
59868W        W28273  39.897  14.301  14.346
59869W        W28274  37.290  17.567   1.733
59870W        W28275  27.678  24.656  12.103
59871W        W28276  29.236  37.323  13.117
59872W        W28277  36.802  15.058  11.574
59873W        W28278  32.065  37.821   3.757
59874W        W28279  26.702  18.137   2.291
59875W        W28280  10.529  21.488   4.677
59876W        W28281  36.537  41.800  13.544
59877W        W28282   4.394  40.885  10.803
59878W        W28283  11.742  20.630  11.107
59879W        W28284  40.765  30.214  11.218
59880W        W28285  25.528  41.386   4.160
59881W        W28286   4.196  29.717  14.389
59882W        W28287  31.643  36.585   2.235
59883W        W28288  17.240   1.773   1.492
59884W        W28289   3.554  41.951   4.681
59885W        W28290  27.384  29.568  13.483
59886W        W28291  39.558  41.599   3.794
59887W        W28292   5.290  25.020  12.868
59888W        W28293  32.930   6.254  10.771
59889W        W28294  41.253  13.925   3.641
59890W        W28295  37.623  13.207  12.557
59891W        W28296   0.164  31.263   0.523
59892W        W28297   6.280  21.009  14.308
59893W        W28298  29.640   8.548  11.034
59894W        W28299  25.656  36.581  12.421
59895W        W28300   4.811  34.547  12.624
59896W        W28301   4.314   2.657  11.673
59897W        W28302  24.956  13.196  14.837
59898W        W28303  29.804  30.231  14.390
59899W        W28304  25.562  12.796  14.268
59900W        W28305   0.190  21.364   2.684
59901W        W28306   6.246  10.564   4.766
59902W        W28307  38.946  16.953  12.442
59903W        W28308  25.212  38.039   4.494
59904W        W28309   3.457  26.149  11.818
59905W        W28310   0.300  36.213   0.819
59906W        W28311  32.802  34.008   0.841
59907W        W28312  27.888   6.772  12.503
59908W        W28313  21.180  26.692   3.703
59909W        W28314   2.260  39.889   0.304
59910W        W28315  20.501  34.817  14.380
59911W        W28316  23.621   1.508  10.933
59912W        W28317  16.427   4.849   0.171
59913W        W28318  17.091  32.414  13.792
59914W        W28319   5.826  35.649   1.431
59915W        W28320  34.920  30.375   4.126
59916W        W28321   4.252  35.857   3.250
59917W        W28322  16.811   9.903   0.286
59918W        W28323  25.935   0.225  11.154
59919W        W28324   3.629  14.248   0.910
59920W        W28325  43.307  32.551   3.648
59921W        W28326   1.902   7.130  14.703
59922W        W28327   9.776   9.883   4.960
59923W        W28328   0.348  24.674   3.264
59924W        W28329   9.858  30.410   5.082
59925W        W28330  44.707   6.076  11.134
59926W        W28331  33.398  39.265  11.340
59927W        W28332  35.658  42.245  14.471
59928W        W28333   0.495  35.431   2.382
59929W        W28334  29.465  43.888  11.912
59930W        W28335  16.814   4.463  13.433
59931W        W28336  43.834  26.987  14.703
59932W        W28337  19.004   6.737   4.331
59933W        W28338  38.950  17.675   4.991
59934W        W28339   5.946  15.272  14.759
59935W        W28340   7.368  34.726   2.583
59936W        W28341  38.470  32.793  10.709
59937W        W28342  43.367  30.045  13.434
59938W        W28343  26.244  43.877   0.979
59939W        W28344   3.173  21.659   4.583
59940W        W28345  29.238  36.578  13.688
59941W        W28346  31.542  11.344   4.299
59942W        W28347  40.007   0.755  14.511
59943W        W28348  21.154   1.384   1.226
59944W        W28349   9.776  36.886  12.134
59945W        W28350   9.122  31.028   1.439
59946W        W28351  31.025  13.364  14.744
59947W        W28352   1.251  44.547   1.743
59948W        W28353  21.918  40.547  11.036
59949W        W28354  24.264   3.492  10.726
59950W        W28355   0.039  28.201  10.349
59951W        W28356  13.722  44.605   0.792
59952W        W28357  40.090  21.968  12.594
59953W        W28358  23.101  36.667   1.246
59954W        W28359  42.955  15.648   0.689
59955W        W28360  37.995  30.087   0.257
59956W        W28361  15.314   9.319  10.644
59957W        W28362  32.838  35.098   2.710
59958W        W28363  14.142   8.234   3.479
59959W        W28364  28.453   5.332   4.101
59960W        W28365  44.193   9.268   4.328
59961W        W28366   5.357   6.956  10.931
59962W        W28367  38.052  32.408   1.169
59963W        W28368  29.854  37.371   1.789
59964W        W28369  38.553  28.547   1.503
59965W        W28370  18.688  30.026  14.343
59966W        W28371  15.686  31.674   1.705
59967W        W28372  22.290  17.399   1.944
59968W        W28373   3.371   3.731   1.406
59969W        W28374   0.481  13.682  12.546
59970W        W28375  23.757   1.063   3.725
59971W        W28376  35.954  11.802   0.993
59972W        W28377  13.249  42.541  14.486
59973W        W28378  30.477  24.712   4.619
59974W        W28379  37.935   6.886  12.324
59975W        W28380  40.678  21.678  13.012
59976W        W28381  16.489  43.628  14.297
59977W        W28382   3.413  14.373   3.279
59978W        W28383   3.837  10.197  13.080
59979W        W28384  16.662  22.405   3.197
59980W        W28385  28.843  36.045   3.662
59981W        W28386  31.921  10.760   3.708
59982W        W28387  39.562  29.738   3.667
59983W        W28388  12.678  37.450   3.349
59984W        W28389  39.078  31.562   4.573
59985W        W28390  12.309  27.695  10.665
59986W        W28391  42.960  12.555   1.678
59987W        W28392   9.449  20.579  14.372
59988W        W28393  35.460  15.227   4.292
59989W        W28394  31.047  36.562   3.808
59990W        W28395   0.743  23.599  13.008
59991W        W28396   1.187  32.555  13.801
59992W        W28397   9.063  41.794   3.376
59993W        W28398  13.841  41.971   2.795
59994W        W28399  16.945   5.722  14.405
59995W        W28400  40.027  32.280  11.904
59996W        W28401   0.273  20.553  11.108
59997W        W28402  16.660  22.673   3.624
59998W        W28403  10.587  10.875   1.398
59999W        W28404  27.527  21.459  13.964
60000W        W28405  44.517   5.251  12.897
60001W        W28406   2.725  18.739  10.540
60002W        W28407  44.266  37.522  14.392
60003W        W28408  26.394  30.178  11.565
60004W        W28409  11.895  22.072  14.749
60005W        W28410  32.149  43.124   3.307
60006W        W28411  18.048  27.336  14.322
60007W        W28412   6.711   7.933  12.894
60008W        W28413  30.842  14.414   0.547
60009W        W28414  21.716   4.521   4.094
60010W        W28415   3.437   0.896  10.905
60011W        W28416  18.233   5.945   2.153
60012W        W28417  18.426  23.324   1.417
60013W        W28418  26.496   1.794   3.796
60014W        W28419   1.878  27.950   5.274
60015W        W28420  26.197   3.077  12.952
60016W        W28421  17.293  11.613  13.083
60017W        W28422  35.447  36.650  12.510
60018W        W28423  26.963  23.583  10.783
60019W        W28424  43.739  22.987   4.563
60020W        W28425   3.684  20.039   4.569
60021W        W28426  33.412  15.118   3.834
60022W        W28427  32.429  10.133  11.636
60023W        W28428   9.803  25.761  13.001
60024W        W28429  31.212  12.135   3.365
60025W        W28430  30.519  14.212  13.475
60026W        W28431  39.077  18.740  13.482
60027W        W28432  19.584   2.556  14.861
60028W        W28433   0.629  21.303   9.721
60029W        W28434  43.460  16.250  14.429
60030W        W28435   4.254   7.040  13.039
60031W        W28436  36.261  10.893  13.502
60032W        W28437  23.364  41.009  11.694
60033W        W28438  33.684  28.284  14.724
60034W        W28439  10.248   7.685  10.711
60035W        W28440  27.121   1.060   4.078
60036W        W28441   6.833  35.801  14.175
60037W        W28442   7.380  26.094  15.000
60038W        W28443   7.852  22.713  11.360
60039W        W28444  43.812  35.562   0.234
60040W        W28445  12.850  24.374  11.945
60041W        W28446   7.830  33.605  14.610
60042W        W28447  13.849  44.324   2.232
60043W        W28448  24.393  28.660   3.469
60044W        W28449  27.952  35.945   4.684
60045W        W28450  40.919   6.531  14.900
60046W        W28451  15.173   3.263   0.474
60047W        W28452  29.570  13.860   2.309
60048W        W28453  24.534  37.275  14.277
60049W        W28454   5.287  39.203  11.070
60050W        W28455  16.878   3.226   3.286
60051W        W28456  13.847  14.699  11.122
60052W        W28457  16.398   1.954   1.934
60053W        W28458  28.545  16.783   0.390
60054W        W28459  21.713  28.971   0.047
60055W        W28460  10.608   4.964  12.207
60056W        W28461  19.041   0.836   3.798
60057W        W28462   6.789  28.590  10.449
60058W        W28463   7.763  14.871  10.694
60059W        W28464  38.293   2.023   5.440
60060W        W28465  36.868  38.542   3.028
60061W        W28466  13.291   0.900  11.144
60062W        W28467  29.724  22.737   0.767
60063W        W28468  35.414  21.204  13.535
60064W        W28469  14.845  22.821   3.620
60065W        W28470   8.886  10.194   2.302
60066W        W28471  27.184  16.054  11.877
60067W        W28472  41.386  35.548   3.373
60068W        W28473  22.316   4.300   4.682
60069W        W28474  34.325   1.454   0.273
60070W        W28475  15.618  15.517   2.763
60071W        W28476  38.464  10.291   3.128
60072W        W28477  13.703  29.666   3.613
60073W        W28478  12.504  33.466   1.505
60074W        W28479  44.484  36.366  11.217
60075W        W28480  12.649  31.489   3.673
60076W        W28481  32.899  35.437  12.605
60077W        W28482  39.500  15.811   4.651
60078W        W28483  22.756   6.365   0.426
60079W        W28484  33.395  15.113  12.159
60080W        W28485  27.142  24.542   2.833
60081W        W28486  30.331   2.424   1.282
60082W        W28487  30.172  18.745  12.078
60083W        W28488  17.150  23.537   1.930
60084W        W28489  28.730  25.121   1.413
60085W        W28490  10.081   4.701   1.373
60086W        W28491  18.309   8.364  14.208
60087W        W28492  42.213  42.318   2.174
60088W        W28493  25.645  24.194   0.290
60089W        W28494  14.367  35.804  11.148
60090W        W28495  35.563  12.261  10.706
60091W        W28496   8.239  24.999  13.366
60092W        W28497   9.810  40.045   1.230
60093W        W28498  11.281  40.725  10.719
60094W        W28499  22.907  25.219   4.880
60095W        W28500  16.982  22.081  10.245
60096W        W28501  13.749   2.134  10.951
60097W        W28502   1.356  40.329   2.119
60098W        W28503  13.505  44.450   1.796
60099W        W28504  24.084  25.028  14.520
60100W        W28505  30.863  43.098  10.681
60101W        W28506  18.070  24.125   2.112
60102W        W28507  38.796  26.132  13.429
60103W        W28508  20.580   5.219   4.717
60104W        W28509  39.196   1.725  13.453
60105W        W28510  29.319  39.851   3.742
60106W        W28511  32.061  10.730   3.199
60107W        W28512  44.635  40.451  13.397
60108W        W28513  18.240  20.342   2.131
60109W        W28514  23.926  38.405   2.374
60110W        W28515   8.855  39.570  14.411
60111W        W28516  20.769  39.215   1.605
60112W        W28517   9.175  16.576   0.831
60113W        W28518  10.866  36.635   0.271
60114W        W28519   0.740  40.908  11.258
60115W        W28520  17.227  38.326   0.512
60116W        W28521  36.660  27.435   3.727
60117W        W28522  26.063  23.734   3.231
60118W        W28523   0.752  28.967  12.843
60119W        W28524  16.539   7.457   0.778
60120W        W28525   4.475  38.242   3.353
60121W        W28526  25.063   2.833  13.488
60122W        W28527   1.470  20.472  13.464
60123W        W28528  36.375  24.253   1.089
60124W        W28529  15.580  16.188   0.416
60125W        W28530   4.975   1.864   4.326
60126W        W28531  12.309  12.397   1.847
60127W        W28532  28.763  39.168  12.141
60128W        W28533   9.932  18.559   3.263
60129W        W28534  10.499  29.863   1.371
60130W        W28535   6.966  26.779   4.536
60131W        W28536   8.049  19.077   4.049
60132W        W28537  31.441  12.477   1.455
60133W        W28538   8.149  34.811   1.904
60134W        W28539   3.757  41.790  11.532
60135W        W28540  27.417  39.391   2.198
60136W        W28541   9.728  11.651  12.942
60137W        W28542  41.962  15.577  11.995
60138W        W28543  12.944  25.083  14.799
60139W        W28544  16.063  18.820   3.686
60140W        W28545  35.667  26.473   3.668
60141W        W28546  34.479  15.634   2.912
60142W        W28547   7.886  36.103  11.612
60143W        W28548  31.930  27.339   1.118
60144W        W28549  12.618  21.905  13.672
60145W        W28550   3.000  27.641  14.846
60146W        W28551  27.577  41.170   4.161
60147W        W28552   6.324  43.038   3.082
60148W        W28553  30.466  42.305  11.925
60149W        W28554  40.327  39.306   3.610
60150W        W28555  44.444  13.387  10.258
60151W        W28556   4.266  17.538  13.787
60152W        W28557  10.807  17.021  13.822
60153W        W28558  44.731   4.506   1.667
60154W        W28559   8.155  34.603  11.098
60155W        W28560   8.309   6.314   3.326
60156W        W28561  33.712  29.381   3.403
60157W        W28562  27.481  20.484   4.161
60158W        W28563  13.349  22.861  12.529
60159W        W28564  14.491  40.280  11.258
60160W        W28565  24.252   1.203  11.223
60161W        W28566  31.635   8.463  14.664
60162W        W28567  19.407  40.957  12.906
60163W        W28568  16.835  42.387  11.981
60164W        W28569  43.222   3.749  13.482
60165W        W28570  23.038  34.918  12.711
60166W        W28571  24.727   5.399   4.224
60167W        W28572   4.827   6.454  11.562
60168W        W28573   6.494   1.353  12.104
60169W        W28574  31.393  39.713   4.272
60170W        W28575  16.382   3.810  11.128
60171W        W28576   8.161   5.099  14.335
60172W        W28577   6.624  20.385  12.867
60173W        W28578   0.884   8.340   2.665
60174W        W28579  14.524   6.802   1.399
60175W        W28580  35.477  10.065   2.237
60176W        W28581  35.400  15.033   3.277
60177W        W28582  20.078  15.998   0.710
60178W        W28583  35.544  36.815  11.171
60179W        W28584  37.052  18.288   1.285
60180W        W28585  29.648  38.022   2.749
60181W        W28586  34.165  15.632   3.747
60182W        W28587  33.586   9.393  13.254
60183W        W28588  33.938  12.850   3.409
60184W        W28589  43.984  14.364   3.805
60185W        W28590   2.973  24.827   1.872
60186W        W28591  34.351  26.503   1.267
60187W        W28592  35.036   5.617  10.774
60188W        W28593  17.829  35.061   2.743
60189W        W28594  35.377   6.858   4.107
60190W        W28595  37.177  19.254  14.425
60191W        W28596  18.728  14.773   2.016
60192W        W28597  30.623   9.308  10.755
60193W        W28598  36.446   2.109  12.489
60194W        W28599   4.663  34.856  11.167
60195W        W28600  38.995  25.154  13.319
60196W        W28601  26.380  19.142  11.478
60197W        W28602  40.366  19.004   5.019
60198W        W28603  28.520  23.298  14.989
60199W        W28604  33.891  36.646  11.180
60200W        W28605  28.953  32.985  13.043
60201W        W28606  23.129  44.508   4.007
60202W        W28607  15.050  16.469   3.588
60203W        W28608  27.081  28.569  12.492
60204W        W28609   6.776  18.340   1.742
60205W        W28610  22.716  24.540  14.106
60206W        W28611  42.497   0.542  11.938
60207W        W28612  39.845  13.186  10.807
60208W        W28613  20.061  21.753   5.144
60209W        W28614  30.040  19.121  13.827
60210W        W28615  40.405   5.280   3.174
60211W        W28616  19.206  32.274  12.116
60212W        W28617  24.679  28.350   0.656
60213W        W28618   1.451  11.623  11.085
60214W        W28619  17.791   1.774   0.728
60215W        W28620  43.134  27.249  10.783
60216W        W28621  26.475  23.962  12.804
60217W        W28622  17.065  24.332   1.199
60218W        W28623  10.960  12.155  13.673
60219W        W28624  35.102  35.971  11.221
60220W        W28625  20.496   7.710  11.847
60221W        W28626  17.030  43.237  12.571
60222W        W28627  25.098  30.680   3.531
60223W        W28628  15.613  20.169   0.247
60224W        W28629  39.318  25.230   3.332
60225W        W28630  26.594  34.304  10.403
60226W        W28631  32.042  23.028  14.666
60227W        W28632  41.848  13.080  10.030
60228W        W28633  30.971   5.181   1.443
60229W        W28634  44.723   9.331   2.367
60230W        W28635  40.517   5.016  10.248
60231W        W28636  35.494   8.845  10.780
60232W        W28637   9.294   8.421  13.049
60233W        W28638  22.784  30.563  11.069
60234W        W28639   9.753  15.351   2.055
60235W        W28640  21.084  20.255  13.003
60236W        W28641  34.323  15.988  12.520
60237W        W28642  44.828  37.286   3.501
60238W        W28643   1.767  22.475  11.990
60239W        W28644  37.910  35.835  12.200
60240W        W28645  43.855  39.776   4.160
60241W        W28646  15.156  27.117   3.392
60242W        W28647  24.705  31.658   4.694
60243W        W28648  30.914  39.500  12.824
60244W        W28649  39.946  16.214  10.765
60245W        W28650   8.610  22.507   3.037
60246W        W28651  28.491  27.472  12.061
60247W        W28652  27.637  33.719  12.129
60248W        W28653  21.085  32.932   4.221
60249W        W28654  12.439  15.167   9.658
60250W        W28655  38.963  17.620  10.732
60251W        W28656  13.413  19.700   3.163
60252W        W28657  18.579  38.411   1.963
60253W        W28658  23.629  11.266   0.436
60254W        W28659  28.836  38.226  13.124
60255W        W28660  31.473  34.084  10.368
60256W        W28661  38.452   3.877   3.734
60257W        W28662  41.298   4.358   2.749
60258W        W28663  38.712   3.713   0.925
60259W        W28664  38.159  16.758  13.979
60260W        W28665  37.866  17.942  13.856
60261W        W28666  31.924  15.333   0.738
60262W        W28667  32.363  17.678   2.562
60263W        W28668   2.637  11.304   4.765
60264W        W28669   3.699  43.312  13.505
60265W        W28670  37.058  19.089   4.338
60266W        W28671   6.123  42.219  13.864
60267W        W28672  27.596  31.335  12.725
60268W        W28673  27.093   5.064   4.414
60269W        W28674  28.133  20.032   4.816
60270W        W28675  22.197  29.403   1.039
60271W        W28676  36.581  11.601   1.671
60272W        W28677   8.283  24.481  13.371
60273W        W28678  39.745  30.216   3.801
60274W        W28679  28.060  22.267  12.034
60275W        W28680  22.010  20.612  14.350
60276W        W28681  32.571  27.531  13.781
60277W        W28682  31.960  11.125   1.431
60278W        W28683  44.941  23.310   1.907
60279W        W28684  15.796  13.260  12.359
60280W        W28685   1.284  10.738   2.245
60281W        W28686  12.702  15.271  14.716
60282W        W28687  10.204  39.661  12.796
60283W        W28688  28.623  41.618   0.376
60284W        W28689  19.242  22.480   3.698
60285W        W28690  31.947  22.935   4.055
60286W        W28691  12.619  25.115   0.194
60287W        W28692  36.475  10.660  11.205
60288W        W28693  33.451  44.736   0.258
60289W        W28694   6.088  31.590   0.927
60290W        W28695  29.152  42.303   1.394
60291W        W28696   6.949  39.188   3.192
60292W        W28697  13.729  28.109   0.394
60293W        W28698  30.013  30.491   4.883
60294W        W28699  31.119  43.908  11.936
60295W        W28700  43.089   0.747   3.747
60296W        W28701  38.079  30.731   2.689
60297W        W28702  35.046  29.435   4.159
60298W        W28703  39.422  42.949   1.338
60299W        W28704  29.449  34.046   2.144
60300W        W28705  35.029   0.002   1.806
60301W        W28706  31.337   2.330   1.373
60302W        W28707  29.698   9.828   4.659
60303W        W28708  18.258  23.215   0.074
60304W        W28709  43.223  31.879   4.840
60305W        W28710  31.454  13.057  13.977
60306W        W28711  36.021  22.630  11.010
60307W        W28712  17.895  18.175   3.603
60308W        W28713  34.507  17.680  14.038
60309W        W28714  22.732  22.560  12.661
60310W        W28715  37.556   6.306   0.102
60311W        W28716  19.809  32.482   1.928
60312W        W28717  15.217  29.242   4.573
60313W        W28718   5.283  40.826  12.669
60314W        W28719  12.729   0.319   0.334
60315W        W28720  21.852  43.519   2.787
60316W        W28721  21.688  38.799   2.057
60317W        W28722  23.473   0.475  12.984
60318W        W28723  28.649  25.109   4.407
60319W        W28724  31.628   2.349  11.393
60320W        W28725  10.187  32.684  11.937
60321W        W28726   2.373  33.452   2.698
60322W        W28727  38.523  39.469  14.216
60323W        W28728  17.760  26.999  14.942
60324W        W28729  19.741  17.280   1.196
60325W        W28730  33.568  41.942   2.740
60326W        W28731  36.095  38.440   0.384
60327W        W28732  12.064  28.947   3.097
60328W        W28733   7.932  40.574   0.255
60329W        W28734  15.190  36.096  13.110
60330W        W28735   0.946  30.392  11.056
60331W        W28736   9.108  24.252  12.423
60332W        W28737  13.023  28.081   0.745
60333W        W28738  16.123  27.938  13.434
60334W        W28739  35.947  19.954  11.991
60335W        W28740  40.625  28.532  12.032
60336W        W28741  29.506  19.146  14.813
60337W        W28742   0.723  14.258  11.965
60338W        W28743  22.287  29.643   3.178
60339W        W28744  25.497  29.354  13.199
60340W        W28745  43.274  43.351   2.700
60341W        W28746  31.105  36.923   2.835
60342W        W28747  21.188  33.921  12.628
60343W        W28748  22.069  15.869   1.000
60344W        W28749  24.634  24.112  12.479
60345W        W28750  42.069  13.784  12.883
60346W        W28751  31.968   2.173  10.899
60347W        W28752  41.943  40.789   3.831
60348W        W28753  26.129   8.926   2.215
60349W        W28754   0.913  21.668  14.774
60350W        W28755  39.350  40.162   2.141
60351W        W28756  30.480  12.096  14.393
60352W        W28757  24.520  22.759  14.068
60353W        W28758  42.820  15.246  11.713
60354W        W28759  31.026  43.872   2.352
60355W        W28760  26.382  29.339   3.573
60356W        W28761  13.187  16.825  14.483
60357W        W28762  31.916  13.885   1.778
60358W        W28763  17.864  21.540  13.705
60359W        W28764  41.443  14.472   1.691
60360W        W28765  16.281  17.335   3.687
60361W        W28766   2.554  32.486   4.246
60362W        W28767   9.425  28.303   5.058
60363W        W28768  27.025  29.723  11.813
60364W        W28769  27.366  24.146   4.102
60365W        W28770  39.358  27.462   3.152
60366W        W28771  22.586  30.657  11.552
60367W        W28772  38.304  28.579   2.698
60368W        W28773  44.199   5.678  12.943
60369W        W28774  11.101  41.000   4.008
60370W        W28775   9.929   0.245   1.884
60371W        W28776  12.262  31.005   0.247
60372W        W28777  20.565  28.464  11.719
60373W        W28778  29.159   5.798   3.086
60374W        W28779  14.841  42.681  11.953
60375W        W28780   4.673  37.890   3.792
60376W        W28781  42.522   6.685   3.707
60377W        W28782  27.414  40.409   3.720
60378W        W28783  32.678  27.637  14.939
60379W        W28784  39.086  24.725  11.617
60380W        W28785  17.649  27.261   0.855
60381W        W28786  34.492  30.162   1.289
60382W        W28787  12.747   8.353   0.826
60383W        W28788  19.919  15.146  12.091
60384W        W28789   9.925  31.348  10.215
60385W        W28790  17.662  39.233   0.249
60386W        W28791   4.923  11.705   0.442
60387W        W28792  40.163   6.565   3.407
60388W        W28793   7.913  13.187  13.789
60389W        W28794   6.141  42.404   0.737
60390W        W28795   7.843  28.076   4.683
60391W        W28796  11.276   9.407   3.431
60392W        W28797  29.653  14.817  11.636
60393W        W28798   9.952   2.775  14.319
60394W        W28799  42.052  18.033   2.752
60395W        W28800  23.492  42.260   3.804
60396W        W28801  42.559  12.221   1.841
60397W        W28802  18.708  29.645   3.837
60398W        W28803   8.253   9.657   1.939
60399W        W28804  34.505  19.846  13.875
60400W        W28805   6.866  22.307  12.999
60401W        W28806  30.630  34.831   0.250
60402W        W28807   3.895  26.410   3.351
60403W        W28808  37.552  34.386   4.257
60404W        W28809  37.479  23.715  12.462
60405W        W28810  11.178  41.630  12.499
60406W        W28811  15.631  38.733   2.859
60407W        W28812   4.472  21.252  11.501
60408W        W28813  33.665  42.460   2.686
60409W        W28814  31.867  37.464  11.132
60410W        W28815  14.612  14.901   3.344
60411W        W28816  21.575  34.628  11.133
60412W        W28817  40.982  43.051   2.716
60413W        W28818   0.770  22.667   2.130
60414W        W28819  29.070   1.113   1.450
60415W        W28820  26.146  18.330  12.519
60416W        W28821  16.019   8.781   2.802
60417W        W28822  16.667  27.012   0.756
60418W        W28823  34.417  28.451   4.619
60419W        W28824   0.507   2.843  14.823
60420W        W28825  28.612   2.424  11.514
60421W        W28826  39.382  38.361   3.964
60422W        W28827  19.284  20.676   2.948
60423W        W28828  31.972   2.418  11.763
60424W        W28829  44.804  22.069   1.723
60425W        W28830   4.350  33.345   1.424
60426W        W28831  40.510  40.205   4.542
60427W        W28832  17.103  34.841   0.873
60428W        W28833  16.597  41.927  11.927
60429W        W28834  25.962  13.287   1.873
60430W        W28835   2.328  36.107   5.040
60431W        W28836  10.387  28.473   5.221
60432W        W28837  32.570  27.981   0.353
60433W        W28838  24.806   5.793  11.646
60434W        W28839  31.546  22.720   0.581
60435W        W28840  26.337  25.807   4.068
60436W        W28841  36.069  42.001   1.622
60437W        W28842  27.671  13.404  10.474
60438W        W28843  22.325  35.972   4.345
60439W        W28844  37.575  38.245   2.372
60440W        W28845  32.943  21.095   3.597
60441W        W28846  11.091   6.453  11.495
60442W        W28847  41.873   0.003   4.248
60443W        W28848  23.434  41.575  13.674
60444W        W28849  39.364   8.028   4.918
60445W        W28850  23.536  18.125   0.402
60446W        W28851  10.977   6.115   3.262
60447W        W28852  39.867  16.122   4.004
60448W        W28853  26.751  32.083   2.575
60449W        W28854   2.375   5.951  14.382
60450W        W28855  40.335  38.826  10.811
60451W        W28856  12.902  32.357  12.517
60452W        W28857   7.841  31.807   0.946
60453W        W28858  19.704  27.400   3.337
60454W        W28859  12.876  11.850  14.976
60455W        W28860  31.607  31.444   0.015
60456W        W28861   6.749   9.318  13.913
60457W        W28862   9.645  18.594  10.328
60458W        W28863  18.263  33.136   4.051
60459W        W28864  26.164  24.725   2.297
60460W        W28865   6.208   8.859   2.778
60461W        W28866  23.240  39.975   0.647
60462W        W28867  20.896   3.900   0.071
60463W        W28868  26.803  41.381  13.787
60464W        W28869  41.978  35.943   1.813
60465W        W28870  32.932  12.187   1.890
60466W        W28871  43.430  30.383   1.004
60467W        W28872  12.024   6.764   1.303
60468W        W28873  44.897  10.198   2.145
60469W        W28874   2.438  32.064   2.861
60470W        W28875   0.853  35.542  13.475
60471W        W28876  26.708  37.578  12.973
60472W        W28877  25.762   4.184   2.104
60473W        W28878  29.716  39.318  10.361
60474W        W28879  16.171  23.065   1.929
60475W        W28880   7.955  23.050   1.806
60476W        W28881  43.434  17.606   0.981
60477W        W28882  41.106   5.611   0.351
60478W        W28883  14.099  21.091  14.193
60479W        W28884  15.268  36.823  11.836
60480W        W28885  33.085  11.190  11.419
60481W        W28886   3.448  31.505  13.505
60482W        W28887  13.142  40.417   5.090
60483W        W28888  18.713  29.891  11.249
60484W        W28889  28.351  31.358   3.304
60485W        W28890   7.538  28.224   9.827
60486W        W28891  43.623   0.410   4.723
60487W        W28892   7.833  21.822  13.765
60488W        W28893  24.106  31.130   4.050
60489W        W28894  27.998   6.240  12.015
60490W        W28895  44.343   0.854   4.276
60491W        W28896  28.416  39.295   5.672
60492W        W28897   1.684   0.792  13.452
60493W        W28898  10.577   5.899  12.898
60494W        W28899  35.650  32.668   0.989
60495W        W28900  29.527   8.673  10.231
60496W        W28901   3.814  26.256   0.501
60497W        W28902  37.031  33.468   1.622
60498W        W28903  23.960   8.280  14.252
60499W        W28904  33.285   0.764  12.016
60500W        W28905  41.619  24.080  11.719
60501W        W28906  10.505  40.753  12.796
60502W        W28907  23.507  35.086  12.505
60503W        W28908  27.613  29.146  13.811
60504W        W28909  14.611  41.860  11.181
60505W        W28910  12.475   7.588   3.524
60506W        W28911   4.654   3.917   2.244
60507W        W28912   4.191  14.575  11.726
60508W        W28913  19.968   2.912   2.375
60509W        W28914  32.089  26.276  13.510
60510W        W28915  27.934  24.014  10.920
60511W        W28916  44.404  40.209  14.494
60512W        W28917  27.561  40.856   1.212
60513W        W28918   9.385  26.815   1.129
60514W        W28919  29.460  28.807  14.753
60515W        W28920   2.584   3.415   1.024
60516W        W28921  36.527  36.313   1.892
60517W        W28922  41.539  36.834  14.295
60518W        W28923   3.850  11.660  10.971
60519W        W28924   9.878  39.992   2.812
60520W        W28925  41.361  10.055   3.698
60521W        W28926  27.634  20.205   4.646
60522W        W28927   7.699   1.254  13.571
60523W        W28928  18.228   9.489  13.210
60524W        W28929  18.904  13.302   3.351
60525W        W28930  23.318  43.728   0.177
60526W        W28931  10.601  36.045  14.031
60527W        W28932  19.104  16.780   0.921
60528W        W28933   9.715  31.841  10.436
60529W        W28934  42.574   9.680   2.796
60530W        W28935   4.018  43.833   2.241
60531W        W28936  12.224  35.437  11.376
60532W        W28937   3.949  39.519   0.367
60533W        W28938  36.557  35.184   1.287
60534W        W28939  18.836  31.815   1.296
60535W        W28940   2.242  40.492   3.677
60536W        W28941  36.186   5.186   0.804
60537W        W28942   7.607  32.445  12.552
60538W        W28943   5.340  32.861  14.561
60539W        W28944   9.591  10.637   4.113
60540W        W28945  24.091  29.423   0.957
60541W        W28946  16.296  20.754   1.477
60542W        W28947   7.366  28.270  12.704
60543W        W28948  44.422  22.980  13.621
60544W        W28949  13.012  10.704   2.176
60545W        W28950  22.700  30.411  13.870
60546W        W28951  15.801  31.359  10.576
60547W        W28952  17.248  20.232   4.838
60548W        W28953  18.145  31.533  10.847
60549W        W28954  29.335  43.819   0.377
60550W        W28955  25.076  42.956   4.556
60551W        W28956   7.716  17.023   3.825
60552W        W28957  14.299  33.473  14.846
60553W        W28958   6.122  11.173  11.097
60554W        W28959  11.112  10.190   4.273
60555W        W28960  15.789   7.433   0.696
60556W        W28961  14.427  12.271  12.996
60557W        W28962  33.955  14.700   1.349
60558W        W28963  16.809  21.591   2.699
60559W        W28964   5.883  43.907   4.555
60560W        W28965  30.336  39.081  12.426
60561W        W28966  38.437  38.957   3.394
60562W        W28967  22.752  29.225  14.490
60563W        W28968  16.355  44.361   3.256
60564W        W28969  24.558   4.666  11.164
60565W        W28970   8.210   2.999   4.347
60566W        W28971  18.755  31.002  13.453
60567W        W28972  32.511  18.798   4.216
60568W        W28973  29.734  27.744   2.764
60569W        W28974  20.243  13.326   3.598
60570W        W28975  15.586  10.104   2.778
60571W        W28976  42.999   8.475   1.913
60572W        W28977  21.758  24.712   3.678
60573W        W28978  33.307  25.635  13.374
60574W        W28979  27.617  26.544   1.522
60575W        W28980   7.175  42.940  13.581
60576W        W28981  22.732  13.114   2.102
60577W        W28982  34.534  29.440   3.102
60578W        W28983  23.114  34.678  11.148
60579W        W28984  25.016  22.895  11.095
60580W        W28985  27.441   0.842   2.811
60581W        W28986  44.528   3.465  12.190
60582W        W28987  37.496  36.130   4.596
60583W        W28988  36.498  30.785   4.687
60584W        W28989  32.669   0.521  13.411
60585W        W28990   3.876   8.194   0.243
60586W        W28991   4.492  20.155  14.945
60587W        W28992   8.648   0.514   2.431
60588W        W28993  42.042  33.395   2.279
60589W        W28994  24.337   2.302  10.702
60590W        W28995  24.094   3.438  14.326
60591W        W28996  19.570   0.402  14.445
60592W        W28997  28.079  31.971  12.589
60593W        W28998  22.477  24.321   0.467
60594W        W28999  28.292  29.515   3.924
60595W        W29000  15.310  23.033   3.699
60596W        W29001   6.269  30.908  14.139
60597W        W29002  41.687  34.044  11.400
60598W        W29003  15.690   2.885   2.403
60599W        W29004  36.797   8.666   3.309
60600W        W29005  28.037   5.179   3.796
60601W        W29006  40.356  24.719  10.576
60602W        W29007   7.495  35.021  10.746
60603W        W29008   0.093  26.707   5.005
60604W        W29009  39.944   5.046   3.353
60605W        W29010   5.466  19.960   2.219
60606W        W29011  32.818  18.214   0.292
60607W        W29012  34.092  36.403   4.628
60608W        W29013  33.331  18.936  14.390
60609W        W29014  44.296  44.942  10.773
60610W        W29015  29.938  19.232  11.350
60611W        W29016  28.571   7.858   0.922
60612W        W29017  12.406  15.150   0.730
60613W        W29018  32.760   3.880  13.510
60614W        W29019  43.309   1.264   4.840
60615W        W29020  23.783   4.836  10.738
60616W        W29021   1.384  38.953   1.504
60617W        W29022   7.355   4.927   4.147
60618W        W29023  12.890  35.876  14.296
60619W        W29024   5.827  13.655  14.367
60620W        W29025  10.623  16.517  13.396
60621W        W29026  29.570  14.753   4.612
60622W        W29027   7.128  30.751   0.485
60623W        W29028  13.175  26.916  14.553
60624W        W29029   8.322  25.720  14.866
60625W        W29030  12.137   3.632   0.476
60626W        W29031   9.673   6.433   0.674
60627W        W29032  27.360   4.261  11.577
60628W        W29033  24.022  12.821  11.181
60629W        W29034  40.352  27.076  12.657
60630W        W29035  21.088  14.253  11.555
60631W        W29036  27.913  22.075   1.844
60632W        W29037  43.580  43.432   0.382
60633W        W29038   4.772   9.414  11.392
60634W        W29039  16.973  10.383  12.051
60635W        W29040  39.001  38.087   2.769
60636W        W29041   1.492  23.550  13.335
60637W        W29042  30.012  23.009   3.725
60638W        W29043  22.557   9.572  11.439
60639W        W29044   1.311  40.745   4.827
60640W        W29045   1.836   8.330   3.645
60641W        W29046   5.983  10.450  14.800
60642W        W29047   2.952  12.802  13.540
60643W        W29048  16.100  32.442  11.414
60644W        W29049   9.028  31.788   3.519
60645W        W29050  33.172  38.054   3.829
60646W        W29051  16.142  27.869   2.138
60647W        W29052  28.377  36.720   0.711
60648W        W29053   0.362   1.401  14.907
60649W        W29054   3.304  41.090   0.817
60650W        W29055  43.892  24.405   3.356
60651W        W29056   3.917  35.700  10.452
60652W        W29057  35.448  32.690  10.858
60653W        W29058  24.011  12.773   4.406
60654W        W29059  36.156   6.246  11.325
60655W        W29060  10.141  24.059   5.045
60656W        W29061  18.844   5.809  12.004
60657W        W29062   4.482  17.645  14.707
60658W        W29063  31.647  20.508   0.988
60659W        W29064  23.910  44.595   3.665
60660W        W29065  21.040   8.653  10.430
60661W        W29066  42.923  29.373  14.282
60662W        W29067  27.110  42.694  11.564
60663W        W29068  30.638  21.574   1.205
60664W        W29069   8.831  29.509   3.669
60665W        W29070  35.804  24.794  11.364
60666W        W29071   4.025  31.139  14.845
60667W        W29072  23.792  11.245   2.631
60668W        W29073   6.686  41.140  13.656
60669W        W29074  13.075   5.861   2.194
60670W        W29075   5.748  27.627  10.920
60671W        W29076  39.428  13.319   0.360
60672W        W29077  20.467   9.596   5.542
60673W        W29078  20.936   5.410   2.305
60674W        W29079  41.956  42.174   1.205
60675W        W29080  12.227  44.220   4.615
60676W        W29081   1.890  26.217   1.707
60677W        W29082  35.549  31.023   4.775
60678W        W29083  24.731   6.843  13.395
60679W        W29084  25.288  11.129  11.081
60680W        W29085  10.624  11.937  13.346
60681W        W29086  31.279  35.814  10.402
60682W        W29087  22.573  13.138  10.493
60683W        W29088   8.815   7.925   4.106
60684W        W29089  17.530  27.150   3.968
60685W        W29090  20.731  31.394   0.315
60686W        W29091  15.138  43.700  14.080
60687W        W29092  25.075  19.231  13.647
60688W        W29093  32.790  35.993  14.909
60689W        W29094  19.257  15.560  11.124
60690W        W29095  20.739  25.554  13.023
60691W        W29096  22.792   5.420   1.332
60692W        W29097  20.610  35.773  13.451
60693W        W29098   3.971  21.501  14.734
60694W        W29099   5.334  12.371  14.976
60695W        W29100  29.738  39.981  13.044
60696W        W29101  34.060  23.926   3.824
60697W        W29102  32.642  38.866  12.518
60698W        W29103  23.154  24.998  14.493
60699W        W29104   6.109  44.483   2.840
60700W        W29105  12.507   3.194   9.755
60701W        W29106  36.369  41.338  13.800
60702W        W29107   3.762  42.923   2.815
60703W        W29108  23.010   3.394   4.820
60704W        W29109   0.580  41.857  13.399
60705W        W29110   6.324  35.615   2.553
60706W        W29111  25.004  40.481  14.849
60707W        W29112  24.192  31.897   5.012
60708W        W29113  10.208  13.509  14.005
60709W        W29114   3.677  16.705   1.682
60710W        W29115  36.304  15.642  14.930
60711W        W29116  41.092  21.730   2.268
60712W        W29117   9.164   9.853   4.154
60713W        W29118  34.405  43.233  10.813
60714W        W29119  40.529  42.026   3.304
60715W        W29120   9.452  39.397  13.849
60716W        W29121  11.093   8.121   3.657
60717W        W29122   2.003   5.014  10.700
60718W        W29123   0.937  40.947   2.154
60719W        W29124   1.711  27.900  13.549
60720W        W29125   7.143  11.270   2.711
60721W        W29126   9.899  38.169   2.318
60722W        W29127  15.199  12.787   3.438
60723W        W29128  40.859  11.546  13.218
60724W        W29129  24.241  39.580   1.427
60725W        W29130  12.580  15.310   2.614
60726W        W29131   7.917   1.469  13.149
60727W        W29132  23.625  29.632  10.676
60728W        W29133   6.250  25.120  10.002
60729W        W29134   0.505  24.038   0.758
60730W        W29135  18.580  16.674  10.438
60731W        W29136  36.344  13.351  14.383
60732W        W29137  39.118   9.295  14.476
60733W        W29138  42.718  37.633   1.946
60734W        W29139  31.636   8.622   1.333
60735W        W29140  16.883  16.827  12.912
60736W        W29141  22.436   0.782   1.263
60737W        W29142  25.294  12.809   2.422
60738W        W29143  28.514   2.870   4.202
60739W        W29144  28.550   9.754   3.672
60740W        W29145  17.443   5.754  13.297
60741W        W29146  21.362  11.678  13.589
60742W        W29147  28.699   3.303   4.013
60743W        W29148  25.542   0.635   4.528
60744W        W29149  10.371  22.209   3.277
60745W        W29150  21.508  10.791   0.728
60746W        W29151   1.632   8.942  10.800
60747W        W29152  44.549  44.615  13.410
60748W        W29153  14.112  30.778  11.498
60749W        W29154  22.428  18.972  12.922
60750W        W29155  20.931   6.254   1.816
60751W        W29156  28.535   4.277  11.980
60752W        W29157  25.591  23.583   0.652
60753W        W29158  25.753   9.518  14.051
60754W        W29159  21.258  20.112   0.407
60755W        W29160   4.508   2.790  13.010
60756W        W29161  11.295  19.169  10.529
60757W        W29162  12.308  11.604  10.415
60758W        W29163  15.272  29.133  12.357
60759W        W29164  28.381  16.689  12.499
60760W        W29165   8.492   7.329  13.084
60761W        W29166  16.164  16.843   3.624
60762W        W29167  36.867  12.836   3.197
60763W        W29168   0.492  38.256  14.245
60764W        W29169  17.157  22.043   4.983
60765W        W29170  41.535  14.455  11.572
60766W        W29171  22.280  14.153  12.065
60767W        W29172   3.953  28.057  11.620
60768W        W29173  12.803  27.265  11.535
60769W        W29174  13.850  43.044  14.940
60770W        W29175  23.425  11.644  14.574
60771W        W29176  44.997  35.000  11.573
60772W        W29177   2.377  38.654   2.883
60773W        W29178   6.623  18.831   1.614
60774W        W29179  12.867  35.942  12.021
60775W        W29180   2.504  25.549   2.867
60776W        W29181   3.418  25.882   1.387
60777W        W29182  36.032  14.836  11.169
60778W        W29183   3.276   6.765  10.751
60779W        W29184  38.772  42.760  14.412
60780W        W29185  44.272  21.028  13.550
60781W        W29186  15.298   9.826   2.445
60782W        W29187  39.410   0.474  12.156
60783W        W29188  10.845  24.397   1.325
60784W        W29189  32.181   1.827   4.197
60785W        W29190  29.421  23.304   2.357
60786W        W29191  22.398  15.253   2.653
60787W        W29192  16.032  43.416   4.305
60788W        W29193  22.214  34.912   3.373
60789W        W29194   1.076  35.499  11.507
60790W        W29195  26.899  34.904  13.356
60791W        W29196  13.169  43.356   1.425
60792W        W29197  19.387  42.814   4.085
60793W        W29198  44.362   4.399  11.173
60794W        W29199  41.066  28.455   2.279
60795W        W29200  14.376  17.273  12.117
60796W        W29201  27.555  36.516   0.659
60797W        W29202  34.864  23.397   0.017
60798W        W29203  22.281  20.678  10.260
60799W        W29204  19.461  34.012  12.667
60800W        W29205  42.023  21.358  13.588
60801W        W29206  23.152  16.237   1.235
60802W        W29207  14.446  31.949   1.868
60803W        W29208  15.543   8.487  10.930
60804W        W29209  17.526  25.943   3.271
60805W        W29210   3.209  24.728   2.325
60806W        W29211   6.389   4.367  14.850
60807W        W29212  16.075  44.839  10.828
60808W        W29213  12.682  18.725   0.491
60809W        W29214  12.058   2.784   2.295
60810W        W29215  30.084  30.469  12.885
60811W        W29216   7.524  19.526  11.630
60812W        W29217  12.574  10.887  11.608
60813W        W29218  26.589  17.183  12.406
60814W        W29219  20.296  38.856   0.402
60815W        W29220  27.180   3.222  10.921
60816W        W29221  11.240  36.187  13.051
60817W        W29222  34.412  18.156  13.840
60818W        W29223  38.905  41.302   3.624
60819W        W29224   2.201   1.380   0.850
60820W        W29225  34.375   9.422   3.680
60821W        W29226  40.078   9.624   3.796
60822W        W29227  39.768   5.158   4.158
60823W        W29228  23.046   0.400  10.830
60824W        W29229   1.923  30.659  14.107
60825W        W29230  21.169  17.859  11.782
60826W        W29231  31.613  38.996   3.231
60827W        W29232  44.803  33.283   2.419
60828W        W29233  10.151  29.551  12.118
60829W        W29234   7.863  29.794   3.678
60830W        W29235  20.327  26.958   1.315
60831W        W29236   9.199   1.774   4.699
60832W        W29237  19.913  41.496  14.550
60833W        W29238   5.186   2.847  10.681
60834W        W29239  38.252  10.932  13.575
60835W        W29240  27.994   8.207   1.355
60836W        W29241  36.757  14.523   0.028
60837W        W29242  36.788   9.530   0.189
60838W        W29243  41.279  38.352  10.796
60839W        W29244  35.582  19.282  11.555
60840W        W29245  39.591  28.397   3.177
60841W        W29246  11.271   4.999  11.610
60842W        W29247  30.400  30.053   4.618
60843W        W29248  26.036  34.929   0.475
60844W        W29249  14.267  14.887   2.896
60845W        W29250  31.469  34.683   4.957
60846W        W29251  28.478  18.989  13.296
60847W        W29252   4.979  27.117   3.605
60848W        W29253  28.441  24.534  11.387
60849W        W29254  38.779  36.348  12.604
60850W        W29255  12.298  39.066   1.395
60851W        W29256  36.085  21.971   0.940
60852W        W29257  32.508  29.192  14.855
60853W        W29258  36.368  38.242  11.526
60854W        W29259  11.677  11.760   2.311
60855W        W29260  24.245  20.620   1.715
60856W        W29261  22.668   6.301  10.879
60857W        W29262   6.636  24.716  11.969
60858W        W29263  20.827   4.768  14.024
60859W        W29264  11.590  16.262   2.481
60860W        W29265   7.211  16.344  11.288
60861W        W29266  19.933  40.066  14.484
60862W        W29267  23.890  23.588  14.978
60863W        W29268  26.144  35.631  10.607
60864W        W29269  32.186  34.479  12.483
60865W        W29270  10.585  27.332   3.738
60866W        W29271   9.658  32.144   4.671
60867W        W29272   4.973  44.781  10.436
60868W        W29273  21.196  16.448  13.876
60869W        W29274   4.869  21.772   4.025
60870W        W29275  20.764  22.260   5.423
60871W        W29276  40.522  13.014  10.689
60872W        W29277   6.699  23.296   2.729
60873W        W29278  44.945  44.868  13.190
60874W        W29279   7.562  44.680  12.410
60875W        W29280  10.693  11.398  13.310
60876W        W29281  10.882  40.366   2.308
60877W        W29282  30.568  43.060   5.171
60878W        W29283  12.091  43.673   3.842
60879W        W29284  41.540  25.969  13.826
60880W        W29285  44.497  17.191   3.818
60881W        W29286  30.476  24.950  12.687
60882W        W29287   1.266  39.829  14.349
60883W        W29288   6.918  26.954  11.556
60884W        W29289  32.031  10.851   4.666
60885W        W29290  16.589  42.012   1.168
60886W        W29291  20.563  33.990   3.686
60887W        W29292  27.991   8.711   0.978
60888W        W29293  40.191  15.385   0.155
60889W        W29294  21.469  15.031   2.735
60890W        W29295  11.131  30.772  11.682
60891W        W29296   0.946  32.464  12.483
60892W        W29297  14.412  17.764  14.887
60893W        W29298  20.017  24.043   3.390
60894W        W29299  30.440  24.179  14.392
60895W        W29300  29.130  42.410   0.880
60896W        W29301  44.878   4.318  12.076
60897W        W29302   2.949   3.981  13.508
60898W        W29303  13.450  43.333   0.060
60899W        W29304  17.059  16.643   0.871
60900W        W29305  35.962  25.712   2.444
60901W        W29306  14.736  15.228  11.742
60902W        W29307  22.649   7.010   2.185
60903W        W29308  36.103  36.609   1.874
60904W        W29309  20.056  26.497  11.653
60905W        W29310  15.872  37.320  11.032
60906W        W29311  22.404  38.516  10.272
60907W        W29312  25.167  35.885  13.286
60908W        W29313   5.424  37.722   3.120
60909W        W29314  44.366  39.492  10.995
60910W        W29315  21.912  15.526   1.388
60911W        W29316   8.813  43.225   0.427
60912W        W29317  29.258  41.784   2.000
60913W        W29318  29.569   3.430   1.219
60914W        W29319  25.573  31.932   2.065
60915W        W29320  18.534  11.739   2.406
60916W        W29321   3.920  11.638  10.455
60917W        W29322  44.019  18.786  11.819
60918W        W29323  16.593  42.833  12.096
60919W        W29324  23.748  32.083   3.703
60920W        W29325  21.037  34.302  12.273
60921W        W29326  37.599  44.884   2.192
60922W        W29327  40.125  17.042   2.557
60923W        W29328  15.034  23.479  10.794
60924W        W29329   3.478  31.041   4.274
60925W        W29330  31.963  16.675   4.839
60926W        W29331  20.994  29.845   2.200
60927W        W29332  23.955   3.494  12.484
60928W        W29333   0.485  27.042  12.179
60929W        W29334  13.090  24.853  12.914
60930W        W29335  38.057  35.064  10.683
60931W        W29336  19.228  29.142   2.698
60932W        W29337  22.599   1.941  14.490
60933W        W29338   0.931  28.312  12.380
60934W        W29339  19.939  13.674   2.367
60935W        W29340  18.099  42.537  14.212
60936W        W29341   9.391  18.058  13.577
60937W        W29342  24.475  39.439   4.065
60938W        W29343  30.836  12.711   2.904
60939W        W29344   0.384  11.255   3.292
60940W        W29345  17.804  26.970  11.473
60941W        W29346  42.284   9.024   0.501
60942W        W29347  33.745  41.403  12.301
60943W        W29348  15.548   6.670   4.700
60944W        W29349   7.244  37.966   3.603
60945W        W29350  35.146  44.047  14.339
60946W        W29351  31.425  17.593   1.914
60947W        W29352   0.326  21.727   4.526
60948W        W29353  19.776   7.528  13.027
60949W        W29354  30.886  41.413   2.178
60950W        W29355   0.127  39.879  12.360
60951W        W29356  12.420  41.458   4.860
60952W        W29357  19.266  14.068  13.310
60953W        W29358   4.514   0.871  13.424
60954W        W29359  10.419  21.518   0.147
60955W        W29360  25.396  42.757   0.755
60956W        W29361  40.941  10.599  13.475
60957W        W29362  30.451  23.294   4.760
60958W        W29363  44.703  14.705   4.387
60959W        W29364  16.139   9.869  11.131
60960W        W29365  16.043  28.592  12.480
60961W        W29366  21.975  38.119   1.407
60962W        W29367  25.574  42.891   1.340
60963W        W29368   9.354  17.761  14.033
60964W        W29369  29.611  34.128   3.667
60965W        W29370  14.018  44.571  14.851
60966W        W29371  27.203   2.286   4.799
60967W        W29372  27.580  43.708   2.366
60968W        W29373  11.605  23.582   3.364
60969W        W29374  20.298  31.845   2.128
60970W        W29375   1.104  15.017   3.704
60971W        W29376   4.744   6.784   4.837
60972W        W29377   9.557  42.916  13.409
60973W        W29378  41.896   3.078  10.735
60974W        W29379  29.284   3.440  12.865
60975W        W29380  34.908  16.527   4.129
60976W        W29381  30.322  24.106   1.854
60977W        W29382  30.455  19.801   3.877
60978W        W29383  32.387   4.148  14.981
60979W        W29384   4.804  20.434   2.700
60980W        W29385  21.491  27.183  10.547
60981W        W29386  27.056   4.170  14.899
60982W        W29387  35.400  24.266   3.441
60983W        W29388  11.732  34.315  13.276
60984W        W29389  14.873  17.316  13.940
60985W        W29390  37.886  34.560  13.056
60986W        W29391   4.036   0.094  14.935
60987W        W29392  17.940  44.671  12.124
60988W        W29393  13.184  31.107  13.784
60989W        W29394  31.102  39.189   5.018
60990W        W29395  43.395  39.596   3.418
60991W        W29396  31.021  36.759   3.316
60992W        W29397  40.347  28.052  13.108
60993W        W29398   4.780  22.159   0.393
60994W        W29399  37.668  30.598  14.106
60995W        W29400   4.210  10.657   2.116
60996W        W29401  26.728  24.695   3.163
60997W        W29402  18.400  14.418   1.804
60998W        W29403  12.689  41.177  12.948
60999W        W29404  34.474  31.941  14.540
61000W        W29405   7.687   2.896   2.421
61001W        W29406  32.854  38.942  14.294
61002W        W29407  41.309  15.261  14.421
61003W        W29408  33.499  38.972   2.385
61004W        W29409   3.363  26.994   5.073
61005W        W29410  35.706  18.121  14.308
61006W        W29411  36.053   0.390  13.993
61007W        W29412   1.246  23.589  11.588
61008W        W29413  30.891   6.256   2.187
61009W        W29414  40.817  33.458   4.850
61010W        W29415  17.011  28.511  10.766
61011W        W29416   8.120  43.375  12.515
61012W        W29417  14.867  17.635   4.107
61013W        W29418  43.959   6.725  10.719
61014W        W29419   8.933   6.670  14.010
61015W        W29420  18.785  38.518  10.597
61016W        W29421  24.739  13.827   2.167
61017W        W29422  42.657  43.480   0.454
61018W        W29423  11.437  23.061   0.295
61019W        W29424  41.461  32.618  12.838
61020W        W29425  29.082  33.350  12.436
61021W        W29426   7.826  39.636   0.142
61022W        W29427  26.461  21.069   1.880
61023W        W29428  27.596  28.945   0.407
61024W        W29429  32.148  43.504   1.811
61025W        W29430  39.335  29.449  12.927
61026W        W29431  17.762  15.946   3.690
61027W        W29432  27.270  41.437   5.453
61028W        W29433   5.168  33.947   0.322
61029W        W29434  40.991  38.984   1.757
61030W        W29435   4.388   8.600  13.470
61031W        W29436  11.895   1.696  12.568
61032W        W29437   3.751  28.732   2.779
61033W        W29438   3.899  36.207   3.451
61034W        W29439  38.668  12.842  13.322
61035W        W29440   3.798  42.509   1.723
61036W        W29441   8.746  43.763  14.959
61037W        W29442  22.285   6.182  14.112
61038W        W29443  11.655   5.322  14.982
61039W        W29444  40.781  17.351  12.932
61040W        W29445  26.280   5.755   3.690
61041W        W29446  30.890  32.699  13.830
61042W        W29447   1.706  29.593   3.413
61043W        W29448  20.301   2.489   0.414
61044W        W29449  27.189  16.000   3.369
61045W        W29450   8.294  19.079  14.417
61046W        W29451  30.168  24.090  11.371
61047W        W29452  19.980   8.714  13.082
61048W        W29453  41.384  37.834  14.393
61049W        W29454  41.738   6.594   4.133
61050W        W29455  40.513  24.079   3.768
61051W        W29456  29.089  37.130  11.824
61052W        W29457  10.535  39.355  13.851
61053W        W29458   7.363   5.001   0.219
61054W        W29459  13.406  26.095   2.436
61055W        W29460  20.994   1.503  10.898
61056W        W29461  15.363  23.467   1.918
61057W        W29462  23.518   5.831   0.388
61058W        W29463  10.052  10.118  10.243
61059W        W29464  42.807  21.203  14.865
61060W        W29465  23.151  24.214  14.070
61061W        W29466  25.180  21.032  13.024
61062W        W29467  10.678  10.231  13.279
61063W        W29468  36.324  43.251   2.170
61064W        W29469  10.569  36.945  13.716
61065W        W29470  35.229   7.412  12.123
61066W        W29471  21.467  17.884   2.683
61067W        W29472  38.394   5.904  10.605
61068W        W29473  44.060  34.894  12.992
61069W        W29474   1.743  43.307   2.349
61070W        W29475  38.777  37.159  12.086
61071W        W29476  33.160  20.059  11.202
61072W        W29477  19.810  43.994  13.854
61073W        W29478  22.671   4.328   3.307
61074W        W29479  28.609  43.444  12.950
61075W        W29480  34.634   3.974   4.094
61076W        W29481  22.255  36.238   2.129
61077W        W29482  43.117  25.976   3.406
61078W        W29483  20.618  23.384  12.095
61079W        W29484   5.570  21.122  12.471
61080W        W29485  16.038   8.406   3.182
61081W        W29486  23.106   5.738   4.685
61082W        W29487  40.927  20.723  12.587
61083W        W29488  20.790  29.166   5.174
61084W        W29489  38.494  37.829   4.084
61085W        W29490  18.024  18.746  13.843
61086W        W29491  28.964  16.296  14.772
61087W        W29492  37.841  41.596  14.074
61088W        W29493  27.679   2.340   5.001
61089W        W29494  19.222  41.138   2.054
61090W        W29495  17.587  44.782  12.985
61091W        W29496  38.961  24.426  11.204
61092W        W29497  26.062   7.932  14.722
61093W        W29498  21.474  29.006  12.471
61094W        W29499  18.462  43.263   3.299
61095W        W29500   9.001  26.224  10.668
61096W        W29501  26.244  41.395  10.777
61097W        W29502   3.238   4.703   2.240
61098W        W29503   4.960   9.884   0.337
61099W        W29504  13.105  40.613  11.077
61100W        W29505  10.704  15.970  13.809
61101W        W29506   3.212  42.281  13.528
61102W        W29507  26.088  15.208   3.427
61103W        W29508  38.157  42.993   0.875
61104W        W29509  29.859  38.429  12.852
61105W        W29510  11.295  27.195  10.791
61106W        W29511   0.084  33.079  14.380
61107W        W29512   5.767   9.372   1.399
61108W        W29513  22.468   9.879   1.869
61109W        W29514  39.559   5.395   1.771
61110W        W29515  12.840  28.181  11.807
61111W        W29516   2.601  43.453   0.336
61112W        W29517  11.709   8.251  11.522
61113W        W29518  21.559  35.270  14.338
61114W        W29519  38.939   1.634  13.003
61115W        W29520  12.695  16.118   3.359
61116W        W29521  38.691  29.068   1.701
61117W        W29522   0.106  10.776  14.205
61118W        W29523  12.209   1.252   0.788
61119W        W29524  39.013  17.153   1.839
61120W        W29525  25.571  22.572  13.777
61121W        W29526   8.722  43.212   2.798
61122W        W29527  20.103  35.783   1.490
61123W        W29528  14.867  40.517   1.937
61124W        W29529  23.712  30.975   2.656
61125W        W29530   7.914  30.090  12.563
61126W        W29531  15.458  42.746  11.108
61127W        W29532   5.723  40.897   2.508
61128W        W29533  32.192   3.547  14.516
61129W        W29534  11.358   0.560   1.758
61130W        W29535  11.170  20.068  14.440
61131W        W29536  23.405  36.989  11.952
61132W        W29537  38.902  39.054  10.985
61133W        W29538  35.777  24.074   4.269
61134W        W29539  22.898   8.272   4.627
61135W        W29540  34.456   5.462   0.732
61136W        W29541  18.256   6.917  11.051
61137W        W29542   9.327  11.093   3.283
61138W        W29543   4.147  17.157   4.098
61139W        W29544  32.721   4.507  11.935
61140W        W29545  36.988  11.900  14.136
61141W        W29546  31.552  43.091   0.913
61142W        W29547   9.217   9.829   2.162
61143W        W29548  21.656  14.723   3.701
61144W        W29549  12.338   5.441  11.081
61145W        W29550  28.568   6.207   1.634
61146W        W29551  21.623  12.427  11.260
61147W        W29552  31.576  13.016  13.406
61148W        W29553   2.050  39.500  13.933
61149W        W29554  43.900  26.630   3.149
61150W        W29555  38.775  25.442   5.111
61151W        W29556  31.027  34.015  11.612
61152W        W29557  34.880  16.268  13.160
61153W        W29558   0.463  20.597  13.384
61154W        W29559  12.415  20.683  13.536
61155W        W29560  33.417  42.889   4.028
61156W        W29561  32.621  20.175   3.712
61157W        W29562  12.211  15.297   3.607
61158W        W29563  14.650  34.515  11.486
61159W        W29564  25.537  35.072   4.801
61160W        W29565  24.977  43.701  14.707
61161W        W29566  40.894  28.758   0.945
61162W        W29567  44.451  38.497   3.700
61163W        W29568  36.331  38.531   2.274
61164W        W29569  42.704   5.772   3.597
61165W        W29570  20.652  19.760  13.946
61166W        W29571  34.972  34.392   2.811
61167W        W29572   9.316   3.195   3.271
61168W        W29573  27.228  37.403   0.616
61169W        W29574  25.949  29.515   3.846
61170W        W29575  21.303   3.156   4.155
61171W        W29576  34.042  43.041  11.480
61172W        W29577  33.134  16.557   2.870
61173W        W29578  14.011   3.795  12.790
61174W        W29579   2.749  28.159  11.109
61175W        W29580  42.984  16.760  12.615
61176W        W29581  26.988   3.876   4.571
61177W        W29582  11.022  13.843   0.930
61178W        W29583  40.089  15.180  12.918
61179W        W29584  17.625   8.125  13.439
61180W        W29585   9.580  21.687  14.273
61181W        W29586  24.990  18.154   1.950
61182W        W29587  33.426  33.035  11.758
61183W        W29588  21.070   9.236  10.272
61184W        W29589  38.352   0.288  11.287
61185W        W29590   1.975  39.299  14.742
61186W        W29591   1.462  23.680  10.695
61187W        W29592   9.020   0.492  14.117
61188W        W29593  12.558  24.504   4.573
61189W        W29594   4.392   1.884  10.737
61190W        W29595  44.063   6.895   0.916
61191W        W29596  21.791  29.268   1.913
61192W        W29597  35.314  22.016   1.868
61193W        W29598  35.114  34.620   3.720
61194W        W29599  27.249  32.518  11.436
61195W        W29600  34.256   0.048  14.731
61196W        W29601  28.603  22.800   3.781
61197W        W29602  33.277  38.956   2.857
61198W        W29603   2.307   6.862  10.738
61199W        W29604  35.965  43.772  11.209
61200W        W29605  18.269  37.018   1.680
61201W        W29606  29.127   6.641   4.609
61202W        W29607  21.454   7.387   0.251
61203W        W29608  14.152   8.166   2.663
61204W        W29609  41.051  30.799  11.714
61205W        W29610  33.148  19.771   3.163
61206W        W29611  40.991  31.255  14.340
61207W        W29612  30.093  15.591  11.530
61208W        W29613  34.741  36.578  10.881
61209W        W29614  38.005  24.721  12.922
61210W        W29615  43.447  28.863  13.372
61211W        W29616  26.126   0.098   1.184
61212W        W29617  26.594  43.030   1.946
61213W        W29618  44.786  21.338  13.022
61214W        W29619  39.824  26.175   4.849
61215W        W29620  38.991  27.706  14.069
61216W        W29621  20.461   7.410  12.460
61217W        W29622  35.344  18.454   3.243
61218W        W29623  43.771  26.035  14.742
61219W        W29624   7.245  12.347  12.095
61220W        W29625  33.480   8.383  10.273
61221W        W29626   9.342  20.721  10.567
61222W        W29627  29.856   5.362  10.975
61223W        W29628   2.433  19.019   1.877
61224W        W29629   0.230  16.149  12.516
61225W        W29630  39.837  17.072  12.463
61226W        W29631   5.197   0.476   4.027
61227W        W29632   7.376  13.602   4.515
61228W        W29633  31.665  18.026   1.716
61229W        W29634  24.725  40.229  11.561
61230W        W29635  42.921  39.839  10.837
61231W        W29636  28.367   4.228  10.735
61232W        W29637  44.778  23.995  14.970
61233W        W29638  11.341   5.508  11.698
61234W        W29639  35.491   3.877   4.281
61235W        W29640  12.397   3.436  12.100
61236W        W29641   8.843  30.582  10.179
61237W        W29642  35.456  12.805   3.510
61238W        W29643  32.178  39.611   4.184
61239W        W29644  23.064  28.936   0.224
61240W        W29645  17.654   5.931  12.511
61241W        W29646   1.392  32.012  11.064
61242W        W29647  31.654  29.513  12.071
61243W        W29648  23.470   7.765  13.507
61244W        W29649  21.056  18.369  13.083
61245W        W29650  34.811  22.081  13.797
61246W        W29651  11.521  35.044   0.977
61247W        W29652  36.987   7.641  12.618
61248W        W29653   5.290  36.394   1.744
61249W        W29654  27.093  33.437  11.016
61250W        W29655  30.662  40.365  10.897
61251W        W29656  41.218  20.098  13.165
61252W        W29657  38.483  36.187   3.679
61253W        W29658  19.163  14.522   5.098
61254W        W29659  10.668  15.908  12.792
61255W        W29660  31.042   8.207  14.846
61256W        W29661  41.468  29.702   3.099
61257W        W29662  12.864  37.287   1.282
61258W        W29663   2.497  12.074   2.426
61259W        W29664   8.314  19.278  12.054
61260W        W29665  29.012  34.292  14.469
61261W        W29666  15.703  10.268   3.724
61262W        W29667  29.882  22.704  14.099
61263W        W29668  35.497  24.445  10.683
61264W        W29669   6.250  23.145  13.758
61265W        W29670  37.875  20.608   4.465
61266W        W29671   0.672  18.314   4.170
61267W        W29672   0.240  10.307   0.773
61268W        W29673  38.532  40.536   0.716
61269W        W29674  41.401   7.739   0.955
61270W        W29675   3.202  22.476   1.935
61271W        W29676  31.688  15.519   0.294
61272W        W29677  44.287  37.292   0.990
61273W        W29678  13.486  23.124  11.131
61274W        W29679  18.180  13.039  12.037
61275W        W29680  13.703  14.343   1.499
61276W        W29681  43.638  40.649  12.429
61277W        W29682  39.550  21.803   2.351
61278W        W29683  32.392  40.080  11.843
61279W        W29684  41.502  25.067  12.458
61280W        W29685  15.734   2.005   4.660
61281W        W29686   3.260   3.467  12.803
61282W        W29687   5.379  43.799   4.648
61283W        W29688  30.161   9.226  12.482
61284W        W29689  27.188  20.306   2.788
61285W        W29690  34.380  19.783  10.864
61286W        W29691  11.633  29.071  14.690
61287W        W29692  13.752   2.487   4.518
61288W        W29693  35.620  42.577   2.766
61289W        W29694  33.198  26.130  10.738
61290W        W29695  31.509  21.504   3.207
61291W        W29696   8.392   4.703  13.909
61292W        W29697   7.911  13.851   1.672
61293W        W29698   9.570  24.259  13.287
61294W        W29699  27.186  13.662  12.856
61295W        W29700   5.126   7.268  11.637
61296W        W29701   9.757  23.231  11.646
61297W        W29702  10.586  11.309  12.800
61298W        W29703  23.401   1.307  13.338
61299W        W29704   6.381  42.556   3.334
61300W        W29705  14.730  16.704   2.396
61301W        W29706  10.730   9.488   1.639
61302W        W29707  25.466  38.057   1.018
61303W        W29708  28.757  35.215  11.425
61304W        W29709  29.403  39.938  14.663
61305W        W29710  26.523  32.887   0.965
61306W        W29711  20.186  28.651  10.994
61307W        W29712  22.112  24.192   1.378
61308W        W29713  30.949  12.350  14.359
61309W        W29714  12.374  12.860   4.787
61310W        W29715  23.216  39.426   1.217
61311W        W29716  15.315  16.309   4.273
61312W        W29717  44.902  11.652  11.420
61313W        W29718   5.752  27.536  12.919
61314W        W29719  20.310  20.095   0.358
61315W        W29720  31.906  37.630  14.252
61316W        W29721  11.825  11.148   4.256
61317W        W29722  38.487  40.474  10.711
61318W        W29723  13.531  16.054  14.375
61319W        W29724  16.062  20.414   1.858
61320W        W29725  31.692  38.623   2.344
61321W        W29726   6.095  32.337  10.784
61322W        W29727  10.340  27.833  11.407
61323W        W29728   1.316  24.412   3.219
61324W        W29729  25.511  20.674  10.461
61325W        W29730  27.183  32.998  14.928
61326W        W29731   0.555  24.223  13.931
61327W        W29732  17.821  11.737  10.710
61328W        W29733  18.618  14.720  13.504
61329W        W29734  23.486   3.065  10.639
61330W        W29735  28.649  23.300   3.757
61331W        W29736  41.424  24.566   4.884
61332W        W29737  31.124  15.442  12.599
61333W        W29738  32.551   7.653  13.214
61334W        W29739  11.716  34.348   4.451
61335W        W29740  38.168  28.902  11.748
61336W        W29741  43.130  13.628   0.873
61337W        W29742  36.416   9.617   3.279
61338W        W29743  36.543  36.686   3.218
61339W        W29744  25.128  36.138   1.897
61340W        W29745  20.610   3.683   2.636
61341W        W29746   1.032  43.468  14.428
61342W        W29747  37.124  19.332   1.376
61343W        W29748   0.398   4.217  11.105
61344W        W29749  14.749  11.011   1.856
61345W        W29750  28.563  18.807   3.625
61346W        W29751   7.179  13.272   0.865
61347W        W29752  24.396  13.779  14.463
61348W        W29753  26.048  21.974   1.439
61349W        W29754  22.039   6.210  14.979
61350W        W29755  10.324   0.893   4.171
61351W        W29756  15.576  19.187  11.480
61352W        W29757  20.714  30.562  10.793
61353W        W29758  40.868  33.493  10.474
61354W        W29759  37.437  44.723   2.660
61355W        W29760  41.425   3.002  12.921
61356W        W29761  32.915  27.472  13.400
61357W        W29762  21.730  16.526   2.832
61358W        W29763   9.093  41.505  11.087
61359W        W29764  21.365  29.010  14.309
61360W        W29765   4.380  21.339   4.660
61361W        W29766  10.308  11.213   4.878
61362W        W29767  21.955   4.049  11.025
61363W        W29768  27.502  20.979   3.166
61364W        W29769  21.108   8.116   1.097
61365W        W29770   2.549   7.089   2.308
61366W        W29771   5.909  12.520   1.322
61367W        W29772  22.505  20.327  14.003
61368W        W29773  19.991   4.732  10.960
61369W        W29774   0.677  32.334   9.730
61370W        W29775   7.680  33.798   3.661
61371W        W29776  28.748  44.012  14.070
61372W        W29777  30.211   7.943  12.872
61373W        W29778  39.910  28.162   1.869
61374W        W29779  29.987  19.816   0.305
61375W        W29780  31.151   0.560   1.824
61376W        W29781  15.036  17.436   1.791
61377W        W29782  31.238  40.054   5.134
61378W        W29783   6.977  10.263   1.890
61379W        W29784  39.375  31.839   2.391
61380W        W29785  39.824  40.630   2.814
61381W        W29786   7.502   1.145  12.394
61382W        W29787  23.261  35.211  13.065
61383W        W29788  10.187  34.363   4.762
61384W        W29789  36.101  10.899  12.162
61385W        W29790  33.029  10.403  14.471
61386W        W29791  44.051  34.999  11.704
61387W        W29792  41.773  13.897   2.358
61388W        W29793  12.578  14.666  13.885
61389W        W29794  20.178  20.546  13.011
61390W        W29795  32.137  41.773   4.540
61391W        W29796  35.099  35.555   2.663
61392W        W29797  25.541  43.265   2.828
61393W        W29798  25.772  38.668   2.180
61394W        W29799  29.546  36.664  10.723
61395W        W29800   3.205  13.181   4.102
61396W        W29801  38.773   8.257   3.136
61397W        W29802   7.860  22.299  12.593
61398W        W29803  23.518   5.904  12.087
61399W        W29804  41.941   0.318  14.996
61400W        W29805  16.855  15.989   0.991
61401W        W29806  24.609   1.692  14.837
61402W        W29807  12.328  18.553  11.981
61403W        W29808   0.711   3.339   3.309
61404W        W29809  11.660  16.027  14.962
61405W        W29810  33.861  44.387   0.207
61406W        W29811  27.745  30.194   0.957
61407W        W29812  17.580  44.369   3.657
61408W        W29813  42.510  20.039   0.881
61409W        W29814  26.509  31.438  10.699
61410W        W29815  14.723  35.598  14.403
61411W        W29816  33.892  13.095   2.761
61412W        W29817   2.954  31.077   2.620
61413W        W29818  34.125   0.958  12.898
61414W        W29819  27.016  43.792  14.413
61415W        W29820  26.524   0.534   0.387
61416W        W29821   5.963   6.220   4.909
61417W        W29822  12.925  25.783   3.258
61418W        W29823  39.682  38.616  12.630
61419W        W29824  13.861  32.508   1.039
61420W        W29825  16.120  11.921   2.880
61421W        W29826  27.182  26.998  12.905
61422W        W29827  19.791  42.896   3.221
61423W        W29828  42.944  12.183   3.633
61424W        W29829  32.566  39.664   5.015
61425W        W29830  12.613   1.788   1.281
61426W        W29831  21.122  15.286   3.145
61427W        W29832  13.642  24.967  13.817
61428W        W29833  22.457   7.788  12.605
61429W        W29834   4.794   5.180  13.578
61430W        W29835  19.206  34.368  14.757
61431W        W29836  15.722   0.452  10.350
61432W        W29837   5.803  17.353  11.226
61433W        W29838  16.614  19.340   2.361
61434W        W29839  39.004  29.176   0.424
61435W        W29840  24.960  30.100  10.672
61436W        W29841  38.394  10.719  11.980
61437W        W29842  11.456  12.933   0.778
61438W        W29843  20.710  38.883   4.603
61439W        W29844  26.920  18.230   4.097
61440W        W29845  44.487   4.743  12.470
61441W        W29846  35.370   1.987  12.021
61442W        W29847  34.838  25.887  13.409
61443W        W29848  37.282  17.172  11.325
61444W        W29849   6.794  21.403   3.675
61445W        W29850  21.192  31.524   3.923
61446W        W29851  42.788  39.300  14.273
61447W        W29852   1.432  20.484   4.163
61448W        W29853  25.453   8.783   0.848
61449W        W29854   2.919  32.446   1.685
61450W        W29855   4.986   4.252   1.226
61451W        W29856  35.947  15.091   4.624
61452W        W29857  17.096  24.683  12.514
61453W        W29858  44.817  31.140  11.649
61454W        W29859  15.088  34.210   1.768
61455W        W29860   1.275   7.900  14.904
61456W        W29861  25.645  25.672  14.106
61457W        W29862  23.636  28.250  14.200
61458W        W29863   3.491  17.003   2.198
61459W        W29864  38.967   1.854  10.482
61460W        W29865  43.938  28.992   2.680
61461W        W29866  33.637  34.470  13.386
61462W        W29867  42.422  14.708   3.662
61463W        W29868  40.504  41.309   3.829
61464W        W29869  29.517  18.802   4.045
61465W        W29870   6.743   1.862  14.322
61466W        W29871  27.059  34.869  11.465
61467W        W29872  10.593  34.717   4.684
61468W        W29873   3.878  31.003  14.367
61469W        W29874  31.449   3.417   4.783
61470W        W29875  28.613  10.277  10.590
61471W        W29876  14.831  44.229   4.613
61472W        W29877  42.240   5.189   0.971
61473W        W29878  17.825  31.398  14.430
61474W        W29879  28.352   1.277  10.059
61475W        W29880  10.293  35.401   4.052
61476W        W29881  27.866  33.625  11.129
61477W        W29882  10.684  31.852  13.093
61478W        W29883  44.341  19.478  12.808
61479W        W29884  22.097  14.972   0.388
61480W        W29885   3.488  33.728  14.726
61481W        W29886  31.684   0.357  10.995
61482W        W29887  34.262  42.577  13.971
61483W        W29888  11.137  23.016  12.469
61484W        W29889  21.740  14.661   4.604
61485W        W29890  39.602  16.686   0.703
61486W        W29891   0.818  22.298  10.571
61487W        W29892  26.684  21.691   4.638
61488W        W29893  19.527   0.652   1.454
61489W        W29894  23.297  10.849   3.620
61490W        W29895  37.994  25.482   1.788
61491W        W29896  35.477  37.348  14.654
61492W        W29897  31.622  27.397   3.686
61493W        W29898   2.234   6.131  13.899
61494W        W29899  25.122   8.733   0.446
61495W        W29900   0.898   3.892  12.004
61496W        W29901  25.822  20.369  11.944
61497W        W29902  37.562   9.155   3.365
61498W        W29903  44.354  19.770   0.583
61499W        W29904   3.188  25.242   2.340
61500W        W29905  15.460  40.952  11.382
61501W        W29906  38.960  18.459  13.908
61502W        W29907  36.842  16.720  12.909
61503W        W29908  44.755  28.913   0.407
61504W        W29909  14.481   0.477  10.917
61505W        W29910  41.557  30.547  10.432
61506W        W29911   9.877  17.338   3.663
61507W        W29912  35.918  30.054   1.330
61508W        W29913  35.764  33.464  11.743
61509W        W29914  32.514  15.439  11.026
61510W        W29915  23.551  11.822   3.611
61511W        W29916   8.641   5.185  13.050
61512W        W29917  37.306  25.225   3.130
61513W        W29918  21.891   4.063   3.934
61514W        W29919  38.459   6.400  10.386
61515W        W29920   1.756  22.989  11.988
61516W        W29921  16.409  16.668  13.371
61517W        W29922   4.552  31.938   2.712
61518W        W29923  23.556  14.633   1.170
61519W        W29924  36.463  12.338  11.976
61520W        W29925  34.754  36.028  14.980
61521W        W29926   7.416   3.364   1.230
61522W        W29927  11.354  36.295   1.052
61523W        W29928  35.427  22.956   1.286
61524W        W29929  14.420  23.140   3.684
61525W        W29930  22.710  17.693  14.358
61526W        W29931  27.661  43.744  14.756
61527W        W29932  33.433  21.685  12.146
61528W        W29933  37.139  36.821  10.396
61529W        W29934  32.768  15.587   9.941
61530W        W29935   2.996  11.229  14.905
61531W        W29936  23.805  37.891   0.204
61532W        W29937  20.009  14.650  14.896
61533W        W29938   5.916  38.029  14.249
61534W        W29939  28.688  36.086   3.154
61535W        W29940   5.310   6.726  12.286
61536W        W29941  40.040  29.168   0.930
61537W        W29942   6.884  15.270   4.242
61538W        W29943  31.930  26.680  12.196
61539W        W29944  21.392  25.070  12.161
61540W        W29945  33.017  20.312   0.674
61541W        W29946  11.643  23.415   1.339
61542W        W29947   0.884   8.438  10.763
61543W        W29948   6.293   0.374  11.538
61544W        W29949  38.098  17.814   0.425
61545W        W29950  26.417  39.138  14.390
61546W        W29951  14.130  17.682  13.385
61547W        W29952  12.596   3.413   2.798
61548W        W29953   0.705  40.334  11.602
61549W        W29954  29.530  42.464   4.664
61550W        W29955   8.620  31.022  13.811
61551W        W29956  29.482  17.007  14.831
61552W        W29957  13.131  33.486  11.984
61553W        W29958  31.029   0.507  13.744
61554W        W29959  43.352  11.978  11.604
61555W        W29960  19.541   9.181  11.492
61556W        W29961   1.296  15.484  11.997
61557W        W29962  36.195  21.428  10.451
61558W        W29963  25.573   7.125  11.279
61559W        W29964  24.176  27.215  10.999
61560W        W29965  11.226  18.836   9.749
61561W        W29966  34.218  34.119  12.206
61562W        W29967  33.562  18.397   3.159
61563W        W29968  10.349  21.616  10.668
61564W        W29969   6.311   4.281  11.257
61565W        W29970   3.807   4.652   1.376
61566W        W29971  19.965  42.216  13.999
61567W        W29972  20.554  27.073   0.372
61568W        W29973  22.019  39.644   4.865
61569W        W29974  16.884   7.364  14.473
61570W        W29975  16.421  10.572   2.694
61571W        W29976  40.983  29.630   0.847
61572W        W29977   3.514   6.610  13.879
61573W        W29978   3.118  24.336  10.676
61574W        W29979  42.927  21.121   1.937
61575W        W29980   9.716   9.625   3.955
61576W        W29981  12.794  12.265  13.955
61577W        W29982  29.038   3.502   1.975
61578W        W29983   8.902  41.832   4.409
61579W        W29984  13.777   8.190  14.345
61580W        W29985   3.335  17.548  10.365
61581W        W29986  42.425  39.394   3.137
61582W        W29987  24.033  40.473  14.808
61583W        W29988  18.782  21.513  14.494
61584W        W29989  38.637  15.687  11.327
61585W        W29990   7.729  34.030   4.183
61586W        W29991  16.599  10.358   0.414
61587W        W29992  41.516  14.299   0.335
61588W        W29993  25.489   0.067   4.221
61589W        W29994  20.093  42.844  11.721
61590W        W29995  30.129   0.268  13.839
61591W        W29996  25.566  17.760   4.639
61592W        W29997  18.850   9.835   4.841
61593W        W29998  37.348  28.613   3.691
61594W        W29999   8.087  44.741  12.513
61595W        W30000  23.130   2.996  13.465
61596W        W30001   1.333  37.977  14.020
61597W        W30002   7.955  40.320   1.784
61598W        W30003  11.566  10.170   1.789
61599W        W30004  34.390   9.809   4.123
61600W        W30005  25.330   4.730  10.788
61601W        W30006  34.369  14.086   4.313
61602W        W30007   0.600  14.703   4.604
61603W        W30008  25.951  41.061  13.565
61604W        W30009  26.858  11.262   4.012
61605W        W30010  18.481   8.759   2.970
61606W        W30011  31.554  27.092   1.439
61607W        W30012  15.724  22.057  12.667
61608W        W30013  37.724  25.730  14.998
61609W        W30014  30.710  29.707  11.136
61610W        W30015  44.075  35.529  13.521
61611W        W30016  23.655   1.768   4.337
61612W        W30017  14.338   3.209  11.556
61613W        W30018  26.278   2.785  12.518
61614W        W30019   2.759  42.772  12.771
61615W        W30020   1.504   3.090  10.429
61616W        W30021  19.092  22.480   0.708
61617W        W30022  17.042  12.677   1.946
61618W        W30023  38.058  22.032  13.431
61619W        W30024  33.319  20.068   2.325
61620W        W30025  39.054  15.100  13.900
61621W        W30026   8.407  30.560   3.623
61622W        W30027  41.810  39.454  14.464
61623W        W30028   8.451  25.367   3.379
61624W        W30029  25.492   4.282  13.860
61625W        W30030   2.426  21.698   1.055
61626W        W30031  41.695  31.386   2.225
61627W        W30032  43.889  31.037   3.539
61628W        W30033  30.859   5.451   3.627
61629W        W30034  22.610  41.311  11.082
61630W        W30035   6.687   1.575   2.257
61631W        W30036  30.676   5.894   4.971
61632W        W30037  39.333   9.317  11.569
61633W        W30038  18.380  24.404   1.026
61634W        W30039  44.017  15.522  10.482
61635W        W30040   9.130  16.092  13.510
61636W        W30041  12.259  28.721   4.183
61637W        W30042  29.623  36.419   3.540
61638W        W30043  26.582  11.198  12.044
61639W        W30044  23.955  29.637   2.218
61640W        W30045  23.746  12.773   2.939
61641W        W30046   0.281   2.396  14.982
61642W        W30047  13.693   2.695   2.325
61643W        W30048  27.083  38.480   4.736
61644W        W30049  40.398  22.753   0.907
61645W        W30050  29.058  29.643  14.779
61646W        W30051  37.064  26.647  11.178
61647W        W30052  40.917  17.754   3.366
61648W        W30053  30.084   6.956   1.260
61649W        W30054   6.341  41.549   0.102
61650W        W30055  13.624  18.445  14.132
61651W        W30056  16.083   8.953  10.607
61652W        W30057  19.318  30.358   3.221
61653W        W30058  12.257  24.902   4.750
61654W        W30059  40.797   2.213   3.250
61655W        W30060  28.042  14.139   0.440
61656W        W30061   5.808   2.016   2.929
61657W        W30062  34.494   1.015  12.483
61658W        W30063   5.059  10.134   0.813
61659W        W30064   3.675  26.550   1.819
61660W        W30065  10.838   2.698   1.767
61661W        W30066  17.304   4.227  13.305
61662W        W30067  27.685  22.775  12.531
61663W        W30068   0.934   1.321   3.318
61664W        W30069   4.415  15.186  14.287
61665W        W30070  26.563  36.318   0.031
61666W        W30071  14.536  26.079   2.864
61667W        W30072  38.540  30.159  13.104
61668W        W30073  18.545  37.832  13.543
61669W        W30074  24.233  34.577  14.075
61670W        W30075   0.334  44.003   1.280
61671W        W30076  21.141  35.653  14.365
61672W        W30077  25.865  42.906   0.885
61673W        W30078  16.715  10.918   4.870
61674W        W30079  44.431  23.530   1.710
61675W        W30080  42.058  12.061   3.724
61676W        W30081  20.715  30.044  13.164
61677W        W30082  39.048  28.413  11.706
61678W        W30083  14.318  15.075   2.401
61679W        W30084  16.228   9.534  13.987
61680W        W30085  26.932   8.680   4.883
61681W        W30086  10.896  29.212   3.566
61682W        W30087   8.431  18.829  13.974
61683W        W30088  25.527   9.608  11.107
61684W        W30089  35.480  19.610   4.270
61685W        W30090  40.692  32.088  10.707
61686W        W30091  40.252   4.833   4.476
61687W        W30092  18.873   3.116  12.947
61688W        W30093  39.861  21.773  14.387
61689W        W30094  38.263  39.474  11.451
61690W        W30095  22.665  27.068  14.864
61691W        W30096  35.859  42.246  11.137
61692W        W30097   6.134  24.901  11.446
61693W        W30098   3.127  35.979  12.077
61694W        W30099  39.490  17.580  14.113
61695W        W30100  41.912  20.256   4.149
61696W        W30101  30.089   9.397   0.738
61697W        W30102  14.095  16.270   4.620
61698W        W30103   6.435  18.442   2.286
61699W        W30104  42.268  34.585  12.491
61700W        W30105  23.700  23.467  10.708
61701W        W30106  12.226   5.683   1.320
61702W        W30107  43.961  14.319   0.431
61703W        W30108  10.514   5.244   3.298
61704W        W30109  17.117  41.295  10.639
61705W        W30110  12.804  22.019  10.930
61706W        W30111  21.752  15.907  13.341
61707W        W30112  36.485  13.488   1.787
61708W        W30113   3.380  27.586   2.248
61709W        W30114   2.415  27.089  13.367
61710W        W30115  37.105  33.417   4.660
61711W        W30116  21.427   8.437   2.543
61712W        W30117  16.192   3.331   0.028
61713W        W30118  30.032   4.681   1.262
61714W        W30119  32.033  42.542   4.065
61715W        W30120   5.424  34.037   0.761
61716W        W30121  39.284   8.364  14.976
61717W        W30122  26.576  24.428   2.162
61718W        W30123  42.003  21.086   4.504
61719W        W30124   1.644  32.576   0.262
61720W        W30125   7.313   3.698   3.728
61721W        W30126  27.572  23.298   3.287
61722W        W30127  11.028  18.581   0.690
61723W        W30128  13.182  37.609   5.010
61724W        W30129  29.123  22.793  11.192
61725W        W30130  15.654  42.952   5.045
61726W        W30131   9.332   7.885  14.514
61727W        W30132  24.909  34.164  11.617
61728W        W30133  41.858  13.395   0.958
61729W        W30134  44.260  30.170   2.303
61730W        W30135  33.833  32.190   1.042
61731W        W30136  31.974   7.164   3.034
61732W        W30137  43.063  34.036   4.538
61733W        W30138  42.059  10.431  10.206
61734W        W30139  29.629  29.478  12.149
61735W        W30140  24.523   4.350  10.681
61736W        W30141  19.323  36.617  13.529
61737W        W30142  15.160  22.778  13.586
61738W        W30143  21.658  31.313   3.101
61739W        W30144  12.196  19.471   0.338
61740W        W30145  20.163  26.093   3.208
61741W        W30146   6.107  14.725  11.981
61742W        W30147  23.467  36.617   3.179
61743W        W30148  39.969   3.160   3.611
61744W        W30149   7.880  30.376   3.636
61745W        W30150   8.670  38.863   2.268
61746W        W30151  18.543  29.184   3.662
61747W        W30152  33.451  19.248   4.291
61748W        W30153  23.725  36.544   2.276
61749W        W30154   1.861  43.570  13.876
61750W        W30155  41.299  22.433  11.971
61751W        W30156  21.031   0.331   0.282
61752W        W30157  19.204  42.065  10.817
61753W        W30158  41.068  26.431   3.050
61754W        W30159  42.101  36.390  12.964
61755W        W30160  31.470   4.496   4.931
61756W        W30161  32.381   5.337   2.362
61757W        W30162  18.284  43.352  14.741
61758W        W30163  13.334  41.252   0.750
61759W        W30164  14.106  38.370  14.316
61760W        W30165  21.753  37.055  13.777
61761W        W30166  43.405  19.279  10.480
61762W        W30167  21.491   6.873  13.111
61763W        W30168  11.870  27.590   3.701
61764W        W30169  44.527  18.966   2.139
61765W        W30170  35.651   6.142  11.268
61766W        W30171  11.632   0.435   0.998
61767W        W30172  37.845  30.028   4.324
61768W        W30173   5.317   2.392  10.896
61769W        W30174  17.791   9.571  12.906
61770W        W30175  42.272   2.833   2.863
61771W        W30176  18.327   0.384   0.590
61772W        W30177  40.709   9.121  12.605
61773W        W30178  12.669   6.862  14.568
61774W        W30179  26.646  12.249  13.154
61775W        W30180  13.717  31.396   1.721
61776W        W30181  10.630  31.349  13.179
61777W        W30182  12.587  10.344   2.818
61778W        W30183  12.340   8.469   2.591
61779W        W30184  43.973  38.025   4.176
61780W        W30185  24.712  18.574   4.116
61781W        W30186  12.222  28.147   0.622
61782W        W30187   5.823  19.510  13.397
61783W        W30188   3.075  42.444   4.284
61784W        W30189  15.280  44.738  12.581
61785W        W30190  21.066  23.232  10.933
61786W        W30191  12.368  41.526   0.361
61787W        W30192  28.096  30.325  11.207
61788W        W30193  24.465  18.350   3.417
61789W        W30194   4.667  35.644  14.810
61790W        W30195  30.365   7.255   0.907
61791W        W30196  12.549  29.168   1.836
61792W        W30197  29.713   7.809   4.678
61793W        W30198  36.146  43.217   2.831
61794W        W30199  21.117  39.458  12.538
61795W        W30200  13.045  27.890   3.900
61796W        W30201   0.663  26.206   1.465
61797W        W30202  37.934  11.941   4.639
61798W        W30203  13.380  21.254   0.812
61799W        W30204  44.255  39.419   3.221
61800W        W30205   1.225   3.257   0.057
61801W        W30206  29.469  35.444   0.901
61802W        W30207   9.669   2.536  14.720
61803W        W30208   8.255  39.077  12.172
61804W        W30209  16.949   0.621   2.428
61805W        W30210  40.981  29.941   4.348
61806W        W30211  24.079  10.836   2.781
61807W        W30212  40.733  19.168   0.702
61808W        W30213  44.621  13.043   0.238
61809W        W30214  35.596  18.687  14.747
61810W        W30215   2.632  31.948   4.330
61811W        W30216   9.777  36.896  14.150
61812W        W30217  38.495  35.106   4.617
61813W        W30218  30.414   2.768   3.239
61814W        W30219  29.094  23.037   3.689
61815W        W30220  41.796  17.981  11.796
61816W        W30221  32.351  34.899   2.682
61817W        W30222  20.013  11.412  13.507
61818W        W30223  43.750  31.076  13.089
61819W        W30224  26.871  14.602  14.473
61820W        W30225  18.145   4.871   4.703
61821W        W30226  39.886  32.529  14.999
61822W        W30227   9.899  44.470  12.986
61823W        W30228   3.600  26.479   3.798
61824W        W30229  18.112  31.936   3.153
61825W        W30230  20.805  37.984   2.751
61826W        W30231  20.995  10.760   1.406
61827W        W30232  26.707   3.534   3.252
61828W        W30233   5.315  31.237  10.839
61829W        W30234  16.660  30.731  14.457
61830W        W30235  10.645  33.807   1.321
61831W        W30236  44.540   6.210   2.188
61832W        W30237   1.943  10.217  14.863
61833W        W30238  41.384  15.777   2.303
61834W        W30239   7.247  41.395   3.086
61835W        W30240  34.424  11.855  14.275
61836W        W30241  11.163  17.777  11.578
61837W        W30242  20.757  35.658   0.986
61838W        W30243  12.701  21.746   0.406
61839W        W30244   9.359  22.041   4.412
61840W        W30245  16.113   2.380   3.564
61841W        W30246  33.419  13.859   1.739
61842W        W30247  17.523  14.080   1.798
61843W        W30248  35.903  44.825   2.766
61844W        W30249  20.556  17.092   0.651
61845W        W30250  19.769   5.288  12.538
61846W        W30251   1.329  13.373  13.928
61847W        W30252  31.181  29.284  14.826
61848W        W30253  13.375   9.609  12.984
61849W        W30254  30.971  38.664   0.109
61850W        W30255  11.192  37.773   1.462
61851W        W30256  11.321  25.230  10.931
61852W        W30257  34.873  35.326   4.017
61853W        W30258  17.059  43.508   0.668
61854W        W30259   2.838  20.756   3.571
61855W        W30260  15.189  13.608   1.956
61856W        W30261  14.400  13.264   1.797
61857W        W30262  36.825  14.605   4.578
61858W        W30263  11.835  30.857  13.892
61859W        W30264   6.180  27.168  14.287
61860W        W30265  30.523   8.576   0.826
61861W        W30266  44.376  32.327  14.366
61862W        W30267   9.672  25.782  14.529
61863W        W30268  10.155  14.279  13.516
61864W        W30269   7.116  41.297  13.403
61865W        W30270   4.542  23.229  11.525
61866W        W30271  29.343  24.097  10.953
61867W        W30272  38.122  27.263   1.415
61868W        W30273  31.397  13.280   2.363
61869W        W30274  14.825  37.044   3.246
61870W        W30275  24.043  18.468   3.745
61871W        W30276  32.581   0.419  10.887
61872W        W30277  37.760  44.660  10.404
61873W        W30278  25.073  15.327   4.860
61874W        W30279  31.811  11.655   5.151
61875W        W30280  22.822  37.557   1.382
61876W        W30281  37.702  41.812   2.325
61877W        W30282  31.039  30.956  11.607
61878W        W30283   7.631  26.085   0.448
61879W        W30284  29.053  12.437   4.137
61880W        W30285   4.196   0.664  12.431
61881W        W30286   5.212   9.416   2.688
61882W        W30287  16.189  12.753  11.027
61883W        W30288  25.011  10.503   2.283
61884W        W30289  41.273  18.583   3.701
61885W        W30290  34.302   8.173  11.836
61886W        W30291   8.634  40.778  14.914
61887W        W30292  36.634  18.758  12.438
61888W        W30293  18.198   5.174   1.887
61889W        W30294  12.215  15.463  11.492
61890W        W30295  26.316  23.951   4.403
61891W        W30296  26.549  44.373  11.946
61892W        W30297  40.153  32.333   3.408
61893W        W30298   0.646  20.052   4.042
61894W        W30299   0.787   9.727   3.136
61895W        W30300  19.318  29.640   1.772
61896W        W30301  39.489   6.111   2.863
61897W        W30302  30.641  15.115  13.456
61898W        W30303   8.150  33.046   3.395
61899W        W30304  35.519  43.799   1.820
61900W        W30305   7.224  38.157  12.422
61901W        W30306   5.585  17.806  11.195
61902W        W30307  21.798   5.901  12.941
61903W        W30308  14.608  11.120   1.053
61904W        W30309  14.001  35.888  12.877
61905W        W30310  28.701  32.822   3.830
61906W        W30311  44.640  22.075   0.052
61907W        W30312   6.201  28.529  12.230
61908W        W30313  13.590  23.624  13.377
61909W        W30314  36.340   5.382  11.335
61910W        W30315   7.105  18.626  11.938
61911W        W30316  28.760  24.261   0.925
61912W        W30317  30.644  28.515  12.854
61913W        W30318  28.957   1.340  10.901
61914W        W30319  17.734  39.498  12.594
61915W        W30320  18.116  35.362  13.487
61916W        W30321  33.098  17.527  13.813
61917W        W30322  21.995  37.117  10.580
61918W        W30323  43.453  33.549  14.354
61919W        W30324   5.014  37.585   2.823
61920W        W30325  14.279  28.917  14.280
61921W        W30326   6.237  25.039  12.759
61922W        W30327  10.882  40.835  14.237
61923W        W30328  14.732  29.163  14.374
61924W        W30329   0.838  36.350   0.516
61925W        W30330   7.528   7.058  10.349
61926W        W30331  41.786  44.801  12.779
61927W        W30332  42.579  44.324  11.836
61928W        W30333  29.253  32.591  12.196
61929W        W30334   3.787  10.583   1.331
61930W        W30335  33.678  22.248   3.370
61931W        W30336   5.652   8.034   3.776
61932W        W30337   5.018  26.444   2.187
61933W        W30338  23.651  44.931  14.861
61934W        W30339   8.282  33.594  13.427
61935W        W30340   5.591  20.848   2.725
61936W        W30341  28.595  25.552   3.240
61937W        W30342  27.836  23.276  12.508
61938W        W30343  40.422  27.488   0.716
61939W        W30344   3.803  33.118  13.166
61940W        W30345  16.603   6.219   4.139
61941W        W30346  30.691  23.973   4.533
61942W        W30347  32.767  40.243  14.808
61943W        W30348  27.800   5.732  13.804
61944W        W30349  39.016   4.266  13.037
61945W        W30350   5.817  44.369   2.413
61946W        W30351  22.737  37.307   0.485
61947W        W30352   9.780  38.293  11.627
61948W        W30353   8.078  44.565   1.237
61949W        W30354   1.245  11.196   0.186
61950W        W30355  32.982  31.208  11.565
61951W        W30356  44.213   9.571   2.854
61952W        W30357  29.006  10.322   4.142
61953W        W30358  29.888  38.031   1.007
61954W        W30359   6.760  14.502  13.363
61955W        W30360  22.240  40.648  13.454
61956W        W30361   6.273  15.514   1.912
61957W        W30362  14.602   0.951  13.557
61958W        W30363   9.699  19.594   4.524
61959W        W30364   1.168   1.383   2.023
61960W        W30365  41.932   7.814  14.309
61961W        W30366  23.594  26.276   1.909
61962W        W30367  20.507  30.492  13.111
61963W        W30368  26.635   9.813  14.286
61964W        W30369  19.457  18.012  11.848
61965W        W30370   2.624  43.854   0.989
61966W        W30371  15.225  25.932  10.561
61967W        W30372  28.291  32.121  14.962
61968W        W30373  37.971  26.359   3.267
61969W        W30374  38.498  43.964   0.930
61970W        W30375  35.897  27.570   3.250
61971W        W30376  15.675   0.787   1.013
61972W        W30377  11.917  17.583  11.879
61973W        W30378   5.253   2.173   2.477
61974W        W30379   1.477  30.648   3.629
61975W        W30380  35.027  17.342   1.250
61976W        W30381  29.706  15.862  13.762
61977W        W30382  13.809  29.423   1.603
61978W        W30383   5.179  21.787   2.986
61979W        W30384  42.434  20.518  12.488
61980W        W30385  28.927  12.646  11.476
61981W        W30386  27.610   2.790   2.178
61982W        W30387  37.279  30.562  11.243
61983W        W30388  29.044  16.270  10.956
61984W        W30389  24.062  18.348   1.622
61985W        W30390  43.422  23.530   3.086
61986W        W30391  31.188  16.216   5.092
61987W        W30392  40.492  15.790  12.485
61988W        W30393   5.921  21.456   1.542
61989W        W30394  33.268  32.569  11.656
61990W        W30395   5.645   2.410   3.845
61991W        W30396  34.099  22.476  11.402
61992W        W30397  42.277   7.222   1.978
61993W        W30398  17.116  37.672  13.349
61994W        W30399   0.686  28.191   0.985
61995W        W30400   7.157   5.498   2.764
61996W        W30401  14.353  31.635   1.000
61997W        W30402  19.125  12.482   3.883
61998W        W30403  27.037  37.891   4.131
61999W        W30404  22.522   0.494  10.799
62000W        W30405  26.100  16.769   0.058
62001W        W30406  12.123  17.850  10.596
62002W        W30407  43.517  44.446   2.731
62003W        W30408  23.727  31.229  14.913
62004W        W30409  10.670  22.495  14.504
62005W        W30410  41.417  19.338   4.078
62006W        W30411  26.010  18.578  13.064
62007W        W30412  17.176  40.374   4.288
62008W        W30413  10.836  39.977  11.038
62009W        W30414   2.461  29.086   4.121
62010W        W30415  25.530  39.962   3.689
62011W        W30416   0.802  36.272   5.026
62012W        W30417  28.035  39.281   0.404
62013W        W30418  19.398  28.322   2.549
62014W        W30419   9.401  41.215  11.369
62015W        W30420  29.732  24.176   1.211
62016W        W30421   0.805  17.943   0.452
62017W        W30422  18.210  12.409  12.939
62018W        W30423  18.537  37.528   2.945
62019W        W30424  28.950  10.334  11.141
62020W        W30425   4.537   0.927   3.593
62021W        W30426  32.464  11.760   2.582
62022W        W30427   3.500  11.168   2.391
62023W        W30428  26.111   8.341  12.091
62024W        W30429  27.675  17.237  12.534
62025W        W30430  20.054  26.114  14.813
62026W        W30431  27.888  36.909   0.854
62027W        W30432  20.737  36.712   3.340
62028W        W30433  25.468  34.150  12.884
62029W        W30434  34.578  37.348   5.040
62030W        W30435  43.363  43.787  12.110
62031W        W30436  11.691  27.712   3.212
62032W        W30437  24.534   3.950  12.059
62033W        W30438  32.591  35.385   4.029
62034W        W30439  35.729  44.931  14.133
62035W        W30440   5.945  37.490   3.162
62036W        W30441   8.260   6.763   1.780
62037W        W30442   8.240  14.105  10.695
62038W        W30443  15.695  24.030  11.943
62039W        W30444  40.314  23.574   0.473
62040W        W30445  39.147  37.484  13.210
62041W        W30446   3.960  32.883   0.714
62042W        W30447  29.174  15.826   3.314
62043W        W30448  25.440  32.000  11.379
62044W        W30449  23.474  20.535  13.098
62045W        W30450   1.333  15.422   0.852
62046W        W30451  13.091  14.233   2.767
62047W        W30452  19.409  14.761   4.159
62048W        W30453  36.026  27.397   2.754
62049W        W30454  37.557  18.300  10.690
62050W        W30455   9.746  11.805   0.512
62051W        W30456  24.968   9.189   0.032
62052W        W30457  28.790  24.664   2.153
62053W        W30458  24.966   7.812   1.270
62054W        W30459  11.686  35.091  12.560
62055W        W30460  23.519   1.686   2.412
62056W        W30461  28.460  37.901   2.677
62057W        W30462  21.633  16.416  13.421
62058W        W30463   6.181   6.015   0.962
62059W        W30464   7.349  18.037  14.478
62060W        W30465  23.505  12.736   4.232
62061W        W30466  30.248  43.997  11.546
62062W        W30467  34.439   1.372  14.783
62063W        W30468   9.186   4.989   2.728
62064W        W30469  26.200  36.604  14.470
62065W        W30470  40.560  13.630  11.185
62066W        W30471  14.020  22.004  12.950
62067W        W30472   3.276   2.815   3.254
62068W        W30473   8.441  40.103   1.863
62069W        W30474  38.341  39.583  11.963
62070W        W30475  19.137   8.534   4.578
62071W        W30476  43.535  22.984   1.696
62072W        W30477  41.284   7.781   0.005
62073W        W30478  29.940  27.682  12.298
62074W        W30479  32.026  12.070  10.504
62075W        W30480   2.696  12.656   1.379
62076W        W30481  20.769  31.920   0.353
62077W        W30482  35.848  23.981   2.723
62078W        W30483   8.618  22.169  14.892
62079W        W30484  29.552  25.048   0.320
62080W        W30485   0.888  38.320  11.155
62081W        W30486   4.330  35.902  11.679
62082W        W30487  32.595  21.161  10.462
62083W        W30488   8.918   0.503   3.263
62084W        W30489  40.893  13.515  12.912
62085W        W30490   6.831  20.487  14.972
62086W        W30491  41.514  14.235  12.801
62087W        W30492  16.727  39.369   1.197
62088W        W30493   7.632   5.264   2.788
62089W        W30494   0.351   4.512   3.312
62090W        W30495  18.597  42.091   2.657
62091W        W30496  38.851  26.915  14.408
62092W        W30497   0.888  40.646   4.523
62093W        W30498  28.703   8.708   0.278
62094W        W30499   9.400  39.820  11.226
62095W        W30500   8.201  43.674  11.993
62096W        W30501   6.268  42.721  13.892
62097W        W30502  36.069   1.401   4.891
62098W        W30503  34.522   0.895   3.414
62099W        W30504  36.416   5.341   1.290
62100W        W30505  35.960  10.968  10.970
62101W        W30506  42.874  24.698  13.836
62102W        W30507  41.348  34.068   2.781
62103W        W30508   0.526   5.421  11.650
62104W        W30509  15.700  28.554  11.382
62105W        W30510   5.699  36.298   3.670
62106W        W30511  22.394  19.510   2.364
62107W        W30512  21.992  25.960   2.710
62108W        W30513  41.531  40.188   3.051
62109W        W30514  31.168  29.627   3.363
62110W        W30515  13.117  30.635  11.612
62111W        W30516  35.962  17.265   0.761
62112W        W30517  40.455  24.164   1.789
62113W        W30518   7.233  26.808  13.477
62114W        W30519  34.882   7.333  12.973
62115W        W30520  26.447  39.607   0.362
62116W        W30521   0.165   8.178   5.272
62117W        W30522   9.285   9.736   1.642
62118W        W30523  10.482  26.197   0.793
62119W        W30524  27.128  32.053   2.943
62120W        W30525  19.361  12.022  13.565
62121W        W30526   4.196  44.496   3.126
62122W        W30527  27.970  14.617   3.268
62123W        W30528   4.517  25.426  12.072
62124W        W30529  25.354   2.983   0.396
62125W        W30530   3.714  37.522   4.581
62126W        W30531  11.535  39.875  10.697
62127W        W30532  13.127  38.070  12.120
62128W        W30533  18.536  28.449  10.408
62129W        W30534  40.816  39.643   0.492
62130W        W30535   3.183   3.452  12.294
62131W        W30536  44.111  32.077  13.951
62132W        W30537  40.294  44.405  10.971
62133W        W30538  42.760  23.738  13.892
62134W        W30539   8.303   9.761  13.461
62135W        W30540  10.322  36.209  10.642
62136W        W30541  43.193  23.893  12.520
62137W        W30542   7.864  28.991   3.073
62138W        W30543  29.865  10.058   5.111
62139W        W30544  33.939  24.408   0.795
62140W        W30545  34.497   3.486  10.752
62141W        W30546  40.086  34.205  12.054
62142W        W30547  29.119  30.674   2.680
62143W        W30548  35.061  39.889   4.678
62144W        W30549  37.732   9.828  10.254
62145W        W30550  10.143  36.504   0.396
62146W        W30551   3.201  30.606   1.852
62147W        W30552  18.548  13.787   2.173
62148W        W30553   0.891   2.200   4.065
62149W        W30554   8.711  30.161  13.568
62150W        W30555  11.264  25.173   0.420
62151W        W30556  16.579   9.408  14.383
62152W        W30557  16.984  31.280  12.974
62153W        W30558   4.381  16.735  10.722
62154W        W30559  13.939  11.210  13.304
62155W        W30560  43.772  42.861   3.505
62156W        W30561  40.322  35.372  11.153
62157W        W30562  26.160   0.488  13.873
62158W        W30563  13.082  42.499  11.757
62159W        W30564  34.258  37.237  13.638
62160W        W30565  30.480  39.515   4.678
62161W        W30566  42.498  40.025   2.779
62162W        W30567  26.638  33.616  11.186
62163W        W30568  19.143   9.891   0.415
62164W        W30569  20.699  38.851  13.287
62165W        W30570  41.915  14.696   4.962
62166W        W30571  31.862   7.158   4.272
62167W        W30572  17.785  11.317  12.814
62168W        W30573  36.564  34.663   3.622
62169W        W30574  23.481  32.906  13.269
62170W        W30575  29.943   1.639   1.326
62171W        W30576   6.380  17.136  13.655
62172W        W30577  40.434   1.041  14.453
62173W        W30578  35.785  37.909  14.518
62174W        W30579   2.272  17.524   1.199
62175W        W30580  27.136  23.723  13.483
62176W        W30581  20.041  11.201   0.004
62177W        W30582   1.406  42.526   1.873
62178W        W30583  12.165  32.366  11.600
62179W        W30584  33.824  39.539  12.122
62180W        W30585  29.401  11.106   3.134
62181W        W30586  39.271   2.396   1.560
62182W        W30587   4.362   3.548   4.924
62183W        W30588  12.124  21.223   1.701
62184W        W30589  34.244  24.502  14.459
62185W        W30590   1.938  14.687  13.650
62186W        W30591  21.248  25.673   0.467
62187W        W30592  20.748  39.155   4.174
62188W        W30593  31.487   4.660   0.836
62189W        W30594  12.825  12.231   0.838
62190W        W30595   7.368  13.204   3.687
62191W        W30596  21.285  27.029  14.309
62192W        W30597   0.937  24.702  12.177
62193W        W30598  30.702  15.641  13.996
62194W        W30599  30.443   2.728  12.515
62195W        W30600  41.861  35.468  10.861
62196W        W30601   9.877  35.159  13.593
62197W        W30602   8.160  22.164   2.465
62198W        W30603  18.144  15.916  14.877
62199W        W30604  11.150  11.839   4.601
62200W        W30605  25.440  38.628  11.129
62201W        W30606  43.498   5.786   3.581
62202W        W30607  18.028  21.319   3.679
62203W        W30608  14.815  15.078   3.801
62204W        W30609  42.076  28.548   0.053
62205W        W30610  44.374   8.346  14.431
62206W        W30611  32.846  41.333   2.599
62207W        W30612  37.954  26.865  14.228
62208W        W30613  17.754  21.761   0.949
62209W        W30614  22.680  38.047  11.957
62210W        W30615  21.828   1.974   3.198
62211W        W30616  34.357   8.914   3.845
62212W        W30617  24.990  32.613   2.855
62213W        W30618  30.146  14.825  14.995
62214W        W30619  38.816  29.676  10.998
62215W        W30620  13.568  37.970   4.072
62216W        W30621  28.115  21.591   0.335
62217W        W30622  25.198  13.649   1.942
62218W        W30623  44.959  36.413  13.019
62219W        W30624  40.996  31.292  12.978
62220W        W30625  29.995  28.765  13.575
62221W        W30626  28.572  14.547   0.042
62222W        W30627   3.289   0.543  11.254
62223W        W30628  41.869  14.283   1.949
62224W        W30629  14.718  33.856   1.781
62225W        W30630  26.679  44.977   1.242
62226W        W30631   8.917   7.874   0.343
62227W        W30632   3.151  30.499  14.441
62228W        W30633  20.054  43.998  12.847
62229W        W30634  11.942  20.749  14.405
62230W        W30635  12.505  32.941  10.736
62231W        W30636  43.899  38.553  14.772
62232W        W30637  23.609  22.058   3.400
62233W        W30638  31.283  27.058   2.484
62234W        W30639  39.500  37.123   0.764
62235W        W30640  15.728  27.606  13.478
62236W        W30641  13.980   5.677  13.001
62237W        W30642   3.738  27.994   4.803
62238W        W30643  37.822  26.456   1.840
62239W        W30644  20.204  13.365  12.977
62240W        W30645  29.512  39.891   3.271
62241W        W30646  30.314  44.798  12.837
62242W        W30647  44.228  42.458  14.807
62243W        W30648  16.574  26.218   4.238
62244W        W30649  28.629  13.221  12.145
62245W        W30650  23.828   1.252   2.479
62246W        W30651   5.798  12.834   0.843
62247W        W30652  27.696  35.013  12.900
62248W        W30653  19.570  18.044   0.392
62249W        W30654   0.175  40.848  11.271
62250W        W30655  24.519  42.769  11.688
62251W        W30656  14.729   8.725   2.282
62252W        W30657  11.034  14.698  10.126
62253W        W30658  43.858  10.683   2.235
62254W        W30659   8.151  13.237  12.432
62255W        W30660   4.858  43.612   1.767
62256W        W30661  38.751  34.516  12.117
62257W        W30662  43.072  14.211   4.209
62258W        W30663  39.909  41.452  14.078
62259W        W30664  35.867  29.605  11.018
62260W        W30665   0.664  28.920   4.489
62261W        W30666  32.516  27.107  13.472
62262W        W30667  27.644   6.323  12.420
62263W        W30668  40.613  37.787   3.307
62264W        W30669  43.781  16.611   2.733
62265W        W30670   9.440  23.895  11.145
62266W        W30671  13.234   3.062  10.729
62267W        W30672  42.505  37.138   2.596
62268W        W30673  23.503  41.082  10.726
62269W        W30674  34.421  32.076   4.025
62270W        W30675  17.688  29.183   0.006
62271W        W30676  42.407  24.038  13.080
62272W        W30677   0.825   5.075  14.540
62273W        W30678  28.407  14.239   1.837
62274W        W30679  24.521  25.141  12.545
62275W        W30680  22.971  34.138   3.685
62276W        W30681  43.185  22.623   1.838
62277W        W30682  41.474  34.200   1.400
62278W        W30683   3.793   8.608   2.713
62279W        W30684  36.040  44.214  11.499
62280W        W30685  22.507   5.429  11.478
62281W        W30686  13.828  44.081   0.835
62282W        W30687   1.214  16.027   3.171
62283W        W30688  28.939  15.783   2.864
62284W        W30689  10.887  21.568   3.786
62285W        W30690  40.371  42.689  13.856
62286W        W30691  17.003  15.688  14.330
62287W        W30692  10.857  38.566  11.785
62288W        W30693  22.198  34.434   3.138
62289W        W30694  13.268   3.913  14.471
62290W        W30695   0.330  11.527   2.396
62291W        W30696  29.046  15.033   0.997
62292W        W30697  30.330  15.788  12.171
62293W        W30698   4.030  12.518  13.032
62294W        W30699  33.690  20.300  11.193
62295W        W30700  15.122  26.554   4.650
62296W        W30701  21.393  30.644  10.068
62297W        W30702  41.948  30.441   3.207
62298W        W30703  41.713   1.974  13.453
62299W        W30704  15.305  28.594  12.211
62300W        W30705  22.095  28.500  11.438
62301W        W30706  18.993  33.500   1.285
62302W        W30707   9.814  29.004  11.554
62303W        W30708  19.112  44.754   1.988
62304W        W30709   5.888  38.159  11.495
62305W        W30710   2.754  16.476   0.294
62306W        W30711  21.486  33.626   4.328
62307W        W30712  38.346  12.693  12.537
62308W        W30713  13.356  23.693   0.770
62309W        W30714  18.566  14.286   5.187
62310W        W30715  22.622  31.001   1.289
62311W        W30716  23.038  44.967  12.772
62312W        W30717  39.315  12.867  14.631
62313W        W30718  37.877  41.996  11.812
62314W        W30719  30.905  17.584   5.214
62315W        W30720   4.744  15.812   4.545
62316W        W30721  36.094  28.728   2.163
62317W        W30722  37.808  35.668   2.516
62318W        W30723  30.671   8.004   2.488
62319W        W30724   9.419  22.205  14.294
62320W        W30725  28.873  19.635   1.304
62321W        W30726  11.965  16.380   5.079
62322W        W30727  10.137  25.948  14.363
62323W        W30728  12.830  17.769  11.100
62324W        W30729  11.160   4.326   2.259
62325W        W30730  43.918  24.953  14.081
62326W        W30731  29.474  39.642  11.288
62327W        W30732  15.034  30.122  14.662
62328W        W30733  36.908  36.115  11.930
62329W        W30734  24.094  14.390   0.662
62330W        W30735   1.496   5.454   5.770
62331W        W30736   5.322  33.431  10.532
62332W        W30737  17.002   4.152   4.304
62333W        W30738  19.208  22.890  11.033
62334W        W30739  37.227  30.843   4.898
62335W        W30740  16.211  15.078   4.064
62336W        W30741  40.960  42.136   0.966
62337W        W30742  40.849  17.123   1.131
62338W        W30743  43.277  30.653  11.551
62339W        W30744   3.864  41.982   1.871
62340W        W30745  41.411  24.573  12.539
62341W        W30746  31.371  36.437  13.448
62342W        W30747   1.572  19.963   4.230
62343W        W30748  41.841  43.598   4.446
62344W        W30749  10.339   7.264  14.099
62345W        W30750   9.528   4.315   4.930
62346W        W30751  12.050  31.496  12.970
62347W        W30752   1.090  25.171  11.282
62348W        W30753  29.533   8.438  14.236
62349W        W30754  17.656  18.051  12.026
62350W        W30755  16.539  24.006   0.854
62351W        W30756  39.235  14.543   1.810
62352W        W30757  43.484  19.321  12.961
62353W        W30758   5.363  23.350  13.877
62354W        W30759  43.909   9.424  12.082
62355W        W30760   9.810  33.947   2.693
62356W        W30761  29.550  33.645  12.015
62357W        W30762  24.118  20.237   2.751
62358W        W30763   0.790  28.183  10.584
62359W        W30764  11.762  21.594  14.925
62360W        W30765  39.794  10.275   2.829
62361W        W30766   7.122   8.669   4.676
62362W        W30767  16.069  11.905  12.340
62363W        W30768  25.189  21.566   3.386
62364W        W30769  14.390  13.648  12.479
62365W        W30770  13.171  42.525   0.312
62366W        W30771   3.762  15.846  11.893
62367W        W30772   9.133  19.706   3.142
62368W        W30773   3.313  26.494  14.764
62369W        W30774  31.600  10.418  12.506
62370W        W30775  27.035  15.803  11.438
62371W        W30776  38.876  24.174  10.774
62372W        W30777  33.273  14.187   2.173
62373W        W30778   0.730   7.162   4.580
62374W        W30779  32.525  17.728   1.618
62375W        W30780  10.470  12.624   1.850
62376W        W30781  32.460  22.929  12.281
62377W        W30782  20.621  34.040  12.172
62378W        W30783  35.069  41.801  12.957
62379W        W30784  10.425  15.094  11.246
62380W        W30785  33.631   4.160   2.773
62381W        W30786  16.009  25.810   1.447
62382W        W30787  39.837  10.747   4.457
62383W        W30788  40.000  34.827  12.272
62384W        W30789   1.965   9.422   0.568
62385W        W30790   7.822  42.277   3.359
62386W        W30791  27.844  34.384  11.647
62387W        W30792  30.826  33.445   3.552
62388W        W30793  43.956  24.451   0.796
62389W        W30794  10.226  27.952  13.748
62390W        W30795  21.486  36.629  13.983
62391W        W30796  44.656  40.373  10.732
62392W        W30797  43.241  27.103   2.857
62393W        W30798  35.954   7.436   2.012
62394W        W30799  41.428  16.572   1.898
62395W        W30800  15.263  37.864   0.738
62396W        W30801  24.340  28.120  12.539
62397W        W30802  42.960  22.284   4.589
62398W        W30803  13.204  28.388   3.772
62399W        W30804  27.110  33.559   3.751
62400W        W30805  23.654  31.042   4.620
62401W        W30806  14.553  25.558  11.041
62402W        W30807  22.599   3.995  11.984
62403W        W30808  35.359  10.439  11.569
62404W        W30809   7.788   4.211   3.615
62405W        W30810  31.894  44.460  11.866
62406W        W30811  13.754  25.963  11.575
62407W        W30812  23.837  17.080  14.794
62408W        W30813  33.049  26.610  14.472
62409W        W30814  21.135  21.523  14.113
62410W        W30815  23.474  20.737   0.038
62411W        W30816  16.802  26.454  13.959
62412W        W30817   6.864   5.121   4.886
62413W        W30818  41.315  25.621  13.468
62414W        W30819  10.415  25.554   0.290
62415W        W30820   9.642  20.392  11.488
62416W        W30821  33.929  42.692   2.287
62417W        W30822  37.459   7.239  11.584
62418W        W30823  22.294  29.012  14.259
62419W        W30824   6.793   1.956  12.537
62420W        W30825  25.652  29.523   2.767
62421W        W30826  12.158   5.777   3.736
62422W        W30827  34.321  16.812  12.019
62423W        W30828  11.185   1.972  12.103
62424W        W30829   7.778  29.925   0.878
62425W        W30830  35.696  23.678   3.252
62426W        W30831  11.945  14.244  13.049
62427W        W30832  24.126  32.603  13.548
62428W        W30833  35.621  20.166   2.856
62429W        W30834  12.221  21.808   0.827
62430W        W30835  22.650  42.593   0.962
62431W        W30836  35.002  43.851   1.193
62432W        W30837  34.593  39.521  12.328
62433W        W30838  24.960  29.222  14.884
62434W        W30839  11.277  19.945   0.405
62435W        W30840  24.541   5.845  12.086
62436W        W30841   3.413  21.359  11.114
62437W        W30842   3.198  20.129   3.693
62438W        W30843  19.818  26.104   1.282
62439W        W30844  10.416  41.908   0.226
62440W        W30845   3.332  32.944   4.928
62441W        W30846  39.949  12.804   2.296
62442W        W30847   4.215  39.764  13.497
62443W        W30848  35.035  10.301   2.310
62444W        W30849  35.446  13.871  12.948
62445W        W30850  26.494  27.954   5.159
62446W        W30851  23.039  35.960  12.483
62447W        W30852  17.530   8.707   0.268
62448W        W30853  44.013  23.771  11.624
62449W        W30854  31.714  38.521  14.753
62450W        W30855  17.792  26.017  11.935
62451W        W30856  13.751   3.672   2.397
62452W        W30857  20.679  16.937  13.166
62453W        W30858  21.643  13.183  12.952
62454W        W30859   5.023  16.936   3.196
62455W        W30860  35.070  33.601   2.448
62456W        W30861  20.619  40.299  13.872
62457W        W30862  27.550  14.629  12.657
62458W        W30863  38.579   9.221   2.241
62459W        W30864   6.436  14.605  12.939
62460W        W30865  16.760  39.972  10.979
62461W        W30866   9.737  11.587   1.577
62462W        W30867   5.182  23.435   1.763
62463W        W30868   1.448   8.445  10.690
62464W        W30869  23.771   5.601   0.778
62465W        W30870  18.813  41.907   4.245
62466W        W30871  35.699   4.801   2.324
62467W        W30872  19.715  35.241  14.217
62468W        W30873  11.816  31.314  10.429
62469W        W30874  12.201  42.944  14.773
62470W        W30875  12.361  38.125  14.496
62471W        W30876  30.307  42.119   2.051
62472W        W30877  41.556  35.316   0.836
62473W        W30878  19.347  27.023   3.343
62474W        W30879  43.383  11.297   0.294
62475W        W30880   5.959   2.788  12.948
62476W        W30881  31.148   3.445   2.386
62477W        W30882   6.000   2.504  14.782
62478W        W30883  22.223   1.588  11.993
62479W        W30884  15.861  34.573   1.134
62480W        W30885   5.311  42.514   1.802
62481W        W30886  19.046   6.213  13.853
62482W        W30887  27.498  12.329   0.016
62483W        W30888  37.769  44.743  10.909
62484W        W30889  20.951  36.115  14.577
62485W        W30890  36.544  42.502  14.297
62486W        W30891  23.825  25.994   0.368
62487W        W30892   8.921  42.337  11.927
62488W        W30893  25.728  39.764  11.973
62489W        W30894  27.714  31.242   4.782
62490W        W30895   9.899   2.889   4.297
62491W        W30896  41.522  24.628  13.081
62492W        W30897  35.678   5.463  13.455
62493W        W30898  16.117  33.237   1.730
62494W        W30899  19.039  15.078   0.273
62495W        W30900   8.653  29.590  14.872
62496W        W30901  11.704  24.924   2.168
62497W        W30902  11.786  13.394   2.411
62498W        W30903  26.972  12.547  11.973
62499W        W30904   4.417  37.861  13.628
62500W        W30905   2.028  11.435  13.165
62501W        W30906   8.652  44.193  11.518
62502W        W30907   1.904  42.356   0.363
62503W        W30908  11.790  24.790   4.945
62504W        W30909  32.487  29.969  12.751
62505W        W30910  22.145  22.740   0.895
62506W        W30911  36.392  37.457   3.683
62507W        W30912  37.815  41.843   4.224
62508W        W30913  19.951  36.298  11.889
62509W        W30914  34.893   0.205  13.923
62510W        W30915  17.573  11.195   3.580
62511W        W30916   4.348  26.155  12.421
62512W        W30917   4.450  20.792  10.505
62513W        W30918  24.496  14.422   3.315
62514W        W30919  16.971  30.152  11.987
62515W        W30920   5.164  29.385  11.948
62516W        W30921  42.566  13.677  12.957
62517W        W30922  35.355  19.613   0.916
62518W        W30923  31.533  27.653  11.020
62519W        W30924   4.842   7.354   0.568
62520W        W30925   6.855  15.989   9.869
62521W        W30926  40.349  17.842   0.651
62522W        W30927  13.824   3.923  11.536
62523W        W30928   8.320   6.480  14.724
62524W        W30929  34.759  32.123   9.989
62525W        W30930  28.183  19.501   1.016
62526W        W30931  36.754  18.764   2.835
62527W        W30932  14.335   5.954   1.896
62528W        W30933  35.976  23.639   4.563
62529W        W30934  18.854  44.305  11.985
62530W        W30935   0.495  16.305  13.828
62531W        W30936  40.681  27.178   1.403
62532W        W30937  38.408  20.034   4.195
62533W        W30938  39.839  15.146  14.245
62534W        W30939  32.314  27.422  14.224
62535W        W30940   7.012   1.259  12.266
62536W        W30941  15.913  10.626   2.796
62537W        W30942   2.397  10.619   1.434
62538W        W30943  18.475  43.000   0.095
62539W        W30944   0.526  12.516   4.746
62540W        W30945  15.393   8.342  13.919
62541W        W30946  28.737  16.033  11.294
62542W        W30947  44.805   5.821   2.787
62543W        W30948  10.289   0.410   3.653
62544W        W30949  14.058  28.029   4.184
62545W        W30950  35.276   3.749   3.392
62546W        W30951   4.176  37.930   4.105
62547W        W30952  34.519   5.976   0.843
62548W        W30953   4.459  22.648   2.035
62549W        W30954  34.007  30.934  13.958
62550W        W30955  31.931  16.324  12.027
62551W        W30956  44.952   2.757   0.704
62552W        W30957  16.781  33.759   0.431
62553W        W30958  13.951  35.362  12.831
62554W        W30959   7.637  29.781   4.598
62555W        W30960  29.461  13.501  12.772
62556W        W30961  43.036  18.771  11.778
62557W        W30962  23.500   6.871   3.110
62558W        W30963  26.654   0.307   0.843
62559W        W30964  22.829  32.031  13.054
62560W        W30965  26.593  24.966   2.661
62561W        W30966  23.459  20.039  12.892
62562W        W30967  41.063  23.667   0.599
62563W        W30968  20.811  12.622   1.157
62564W        W30969  40.929  10.257  12.528
62565W        W30970  31.847  23.528   0.882
62566W        W30971   7.327  23.040  14.374
62567W        W30972  43.534  17.861  12.542
62568W        W30973  20.357  40.327   0.840
62569W        W30974  18.588  35.565  13.404
62570W        W30975  30.475  19.345   3.600
62571W        W30976   3.479  29.194  13.306
62572W        W30977  15.800  26.300  11.881
62573W        W30978  31.364  43.041   3.685
62574W        W30979   2.258  38.176   2.649
62575W        W30980   0.516  32.132   0.868
62576W        W30981  10.812  15.812  12.227
62577W        W30982  10.089  16.812   2.646
62578W        W30983  10.399   2.319   1.364
62579W        W30984  14.842   4.373   3.912
62580W        W30985  17.792  34.412   1.380
62581W        W30986  31.601   3.824  14.735
62582W        W30987  32.807  25.577  13.277
62583W        W30988   5.212  42.447   3.340
62584W        W30989   4.644  34.460  11.682
62585W        W30990   5.938  25.179   4.104
62586W        W30991  38.745   5.787  11.530
62587W        W30992   2.319  37.060  14.491
62588W        W30993   3.716  31.641  11.649
62589W        W30994   0.762   3.243  14.099
62590W        W30995   7.406  25.219   4.288
62591W        W30996   5.642  11.470   4.563
62592W        W30997  28.056  32.815  12.993
62593W        W30998  31.011  16.983   0.272
62594W        W30999  42.191  21.057   0.800
62595W        W31000   2.185  39.914  14.294
62596W        W31001  20.831  25.338  11.396
62597W        W31002   0.421  21.225  14.612
62598W        W31003   6.752  34.139  13.772
62599W        W31004  16.740  24.234   3.734
62600W        W31005   4.962  32.986  13.358
62601W        W31006  14.127  18.856   2.808
62602W        W31007  35.478   7.292   1.300
62603W        W31008  17.295   0.918   1.376
62604W        W31009  36.033  43.110  12.496
62605W        W31010  20.540   0.728   1.215
62606W        W31011  25.030  43.799  11.963
62607W        W31012  34.159  21.342  14.213
62608W        W31013   1.230  35.563  12.522
62609W        W31014   7.221   4.693   3.710
62610W        W31015   2.319  14.739   3.548
62611W        W31016  23.498  16.022  11.553
62612W        W31017   8.818   1.125  11.125
62613W        W31018   8.221   7.595   2.296
62614W        W31019  11.670  12.304  10.570
62615W        W31020   3.261  44.602  10.092
62616W        W31021  25.689  30.705   0.276
62617W        W31022   1.222  29.480  10.685
62618W        W31023  23.142  24.634  11.057
62619W        W31024  41.965  19.123  12.067
62620W        W31025   8.978  24.145   5.079
62621W        W31026   3.501  21.475  12.669
62622W        W31027  37.843  15.091  12.166
62623W        W31028  39.919   1.041  12.456
62624W        W31029  22.374  43.092  10.904
62625W        W31030  38.137  10.707  12.841
62626W        W31031   1.943  21.373  12.754
62627W        W31032  19.767  37.496  10.557
62628W        W31033   8.869   9.212  11.436
62629W        W31034  34.420   7.901  12.538
62630W        W31035  26.706  21.326   9.836
62631W        W31036  36.847  24.888   1.812
62632W        W31037  39.889  28.300  13.193
62633W        W31038  28.855  30.291   0.221
62634W        W31039   2.863  43.860   0.518
62635W        W31040  32.643  25.836   3.658
62636W        W31041  22.555  38.780  14.501
62637W        W31042   8.760  35.361   0.702
62638W        W31043  18.419  44.527  12.089
62639W        W31044  34.486   7.131  14.863
62640W        W31045   4.377  36.363  10.750
62641W        W31046  38.318   9.353   3.600
62642W        W31047  29.972   5.645  12.848
62643W        W31048  29.600  42.374  10.722
62644W        W31049  33.939  30.657   0.425
62645W        W31050  28.168   6.848  12.957
62646W        W31051  12.250  18.779  10.618
62647W        W31052  18.693  27.750  14.029
62648W        W31053  31.786  24.890  14.071
62649W        W31054  44.881  15.623  14.717
62650W        W31055  12.786  12.088  14.466
62651W        W31056  18.177  28.399   1.429
62652W        W31057  15.203  11.095  14.713
62653W        W31058  40.111  12.244   4.092
62654W        W31059  29.800  18.133  12.323
62655W        W31060  15.043  42.449  12.924
62656W        W31061  10.826  16.688  14.459
62657W        W31062  35.911   7.088  10.804
62658W        W31063  41.081   6.711  13.866
62659W        W31064   5.449  22.652   3.598
62660W        W31065  27.073  12.270  13.433
62661W        W31066  27.977  16.050   3.032
62662W        W31067  33.336  43.689  12.590
62663W        W31068  24.497  24.056   3.592
62664W        W31069  32.963  43.259   4.607
62665W        W31070  31.802  39.446   5.583
62666W        W31071  19.103  16.544  11.633
62667W        W31072  19.749  15.267  13.052
62668W        W31073  32.739  44.687   2.451
62669W        W31074  22.314  43.718   4.608
62670W        W31075  35.587  21.308   2.359
62671W        W31076  14.923  38.846   1.357
62672W        W31077  16.813  26.490  11.673
62673W        W31078  41.009  21.933   1.053
62674W        W31079  43.286   6.473   3.099
62675W        W31080   5.417  13.093   3.579
62676W        W31081  17.988   3.424   0.435
62677W        W31082   9.312  41.833  10.759
62678W        W31083  32.220  14.028   0.020
62679W        W31084  14.660  18.943  11.554
62680W        W31085  41.662  39.369  11.606
62681W        W31086  32.887  18.721   0.464
62682W        W31087  28.555   3.368   4.899
62683W        W31088  22.198  18.173  10.459
62684W        W31089  12.427  26.756  10.662
62685W        W31090  19.050  43.814  12.829
62686W        W31091  42.118  17.549   4.743
62687W        W31092  20.068  43.001  13.453
62688W        W31093  44.432   2.372   2.775
62689W        W31094  32.879  23.551   2.940
62690W        W31095   6.713  21.491  11.984
62691W        W31096  40.830  31.177  13.467
62692W        W31097  15.173  21.964  13.545
62693W        W31098  42.370   2.945  13.996
62694W        W31099   8.440   6.376   3.817
62695W        W31100  35.282  31.990  13.409
62696W        W31101  22.634  31.104   4.172
62697W        W31102   4.920  38.292   3.593
62698W        W31103  30.370  43.243  10.561
62699W        W31104   5.012  14.144   4.177
62700W        W31105  40.333  30.968   1.912
62701W        W31106  37.065  25.164   0.221
62702W        W31107  42.219  15.722  13.447
62703W        W31108   3.230  16.140  11.200
62704W        W31109   9.174  16.611  13.480
62705W        W31110  10.640  26.614  12.613
62706W        W31111  40.343  33.651   3.093
62707W        W31112  21.839  33.667  11.154
62708W        W31113  34.031  16.781   3.726
62709W        W31114  38.591  38.134  11.958
62710W        W31115   6.810  13.624   1.002
62711W        W31116  23.302  14.693  11.271
62712W        W31117  35.925  33.859  12.388
62713W        W31118  41.816  33.856  13.487
62714W        W31119  38.347  38.812   2.876
62715W        W31120  36.850  40.606   0.767
62716W        W31121  28.124  37.581  11.945
62717W        W31122   3.033  16.466  13.360
62718W        W31123  33.420  29.016  12.100
62719W        W31124  41.100   4.952  11.057
62720W        W31125  15.949  44.687  12.377
62721W        W31126  26.269  35.013  14.606
62722W        W31127  31.865   0.858  11.018
62723W        W31128  19.763  24.117   0.370
62724W        W31129  18.513   0.944   3.824
62725W        W31130  34.026  22.462  13.977
62726W        W31131  25.123   7.783   3.715
62727W        W31132  26.512  43.030  13.429
62728W        W31133  25.017   0.351   1.617
62729W        W31134  28.342  36.490  13.512
62730W        W31135   9.116  12.249   0.522
62731W        W31136  17.705  24.165   0.330
62732W        W31137  18.660  43.408   2.822
62733W        W31138  25.013  35.593   0.791
62734W        W31139  30.668  34.972  11.443
62735W        W31140  34.410  36.428  14.866
62736W        W31141  36.552  11.237  12.569
62737W        W31142  44.080  18.717   2.224
62738W        W31143  29.992  23.504   1.781
62739W        W31144  41.731   3.475  12.421
62740W        W31145  15.338  24.279   2.328
62741W        W31146  21.840  15.769   3.294
62742W        W31147  32.861  22.308   2.332
62743W        W31148  21.550  39.876  14.277
62744W        W31149  43.001  40.555  13.837
62745W        W31150  31.625  31.422  13.949
62746W        W31151  14.636  13.765   4.249
62747W        W31152   3.501   4.769  11.195
62748W        W31153  38.487  18.146   3.335
62749W        W31154  20.986  24.794  14.340
62750W        W31155  21.908  38.057  12.424
62751W        W31156  13.115  30.876   2.292
62752W        W31157  10.357  39.852   2.870
62753W        W31158  38.878  36.585   0.358
62754W        W31159  17.150   7.834  12.478
62755W        W31160  17.135  41.358  13.371
62756W        W31161   3.709  27.159  13.947
62757W        W31162  18.145  43.803  11.421
62758W        W31163  35.496  33.125   1.804
62759W        W31164  39.745  26.578  13.948
62760W        W31165   4.277  28.679   0.811
62761W        W31166   6.438  40.146  11.167
62762W        W31167  33.144  30.174   1.408
62763W        W31168  21.566   9.127  11.496
62764W        W31169  33.375  30.893  13.419
62765W        W31170  42.726  24.116  11.447
62766W        W31171  23.783  16.138  12.915
62767W        W31172  12.756  21.239  14.198
62768W        W31173  41.422  27.708   3.691
62769W        W31174   1.731  17.054  13.810
62770W        W31175  14.005  28.053   0.838
62771W        W31176  20.002   0.303  12.058
62772W        W31177   5.692   2.795  10.718
62773W        W31178  29.156  20.475  12.439
62774W        W31179  44.703  10.881  14.503
62775W        W31180  39.595  23.938   0.790
62776W        W31181  29.522   3.976   4.620
62777W        W31182   5.551   8.902   1.305
62778W        W31183  41.334  35.616   2.860
62779W        W31184  41.527   6.316  11.654
62780W        W31185  37.752   2.962   2.915
62781W        W31186  12.731  17.573  12.305
62782W        W31187  16.544  28.922   1.961
62783W        W31188   8.168  14.176  13.313
62784W        W31189  43.438   8.725   1.764
62785W        W31190   7.204   5.838   2.346
62786W        W31191  15.338  18.839  14.927
62787W        W31192  12.566  20.010  10.971
62788W        W31193  22.727   8.297   3.738
62789W        W31194  36.831   6.859   0.689
62790W        W31195  16.457  30.802  14.950
62791W        W31196  16.347  31.937  12.050
62792W        W31197  29.785  31.221   0.361
62793W        W31198   7.824  15.659   0.299
62794W        W31199   7.554  18.222   4.238
62795W        W31200   1.233  44.457  14.341
62796W        W31201  44.307  11.096  13.394
62797W        W31202  23.028  28.872  14.198
62798W        W31203  26.186  44.512   4.703
62799W        W31204  22.597   6.657   2.660
62800W        W31205  39.532  37.385   2.739
62801W        W31206   5.956  29.735   2.226
62802W        W31207  33.287   5.957   0.231
62803W        W31208  41.268   2.667  14.330
62804W        W31209   0.483  14.569  11.129
62805W        W31210   7.949   7.307   4.668
62806W        W31211  31.635  18.575  12.794
62807W        W31212  34.429  12.329   2.705
62808W        W31213  33.417  37.855  10.723
62809W        W31214  10.231  38.344  12.774
62810W        W31215  36.685  26.427  11.505
62811W        W31216   4.231  43.429   1.236
62812W        W31217  24.553  29.634  14.070
62813W        W31218  32.562  34.261  12.216
62814W        W31219  16.391  12.143  13.028
62815W        W31220  33.051  19.590   4.279
62816W        W31221  11.380   5.888  13.969
62817W        W31222   7.558  41.337   4.470
62818W        W31223  16.091   8.278   0.239
62819W        W31224  21.752  31.050   4.496
62820W        W31225   7.352  20.154   0.879
62821W        W31226  27.234   2.740  14.073
62822W        W31227   7.898  24.846  12.133
62823W        W31228   7.322  44.361   0.212
62824W        W31229   5.151  24.928  14.466
62825W        W31230  19.586  33.187   4.872
62826W        W31231  10.560  33.644  11.642
62827W        W31232  39.034  37.360   4.789
62828W        W31233  42.972  11.480   0.801
62829W        W31234  23.175  30.447  12.363
62830W        W31235  33.799  38.138   4.198
62831W        W31236  14.296  14.905  11.880
62832W        W31237  32.862  15.710  13.774
62833W        W31238  44.008  11.500   0.851
62834W        W31239   3.305  19.877   2.851
62835W        W31240  29.322  21.555  11.637
62836W        W31241  27.996  18.740  14.387
62837W        W31242  34.579  17.731   3.224
62838W        W31243  21.744  36.525   4.716
62839W        W31244  13.784   5.487  11.496
62840W        W31245  26.648  33.256  13.054
62841W        W31246  22.023  35.658   2.766
62842W        W31247  35.949  20.133   1.205
62843W        W31248  37.394  40.271  11.983
62844W        W31249  43.371   3.287  11.206
62845W        W31250   7.633  22.613  14.336
62846W        W31251   7.105  17.110   0.225
62847W        W31252  15.542  35.028   0.926
62848W        W31253   6.256  18.050  11.582
62849W        W31254   0.971  15.647   2.409
62850W        W31255  39.848   5.325   5.003
62851W        W31256  17.273  44.223  12.345
62852W        W31257  33.970   6.710   3.289
62853W        W31258  27.118   4.748   3.624
62854W        W31259  15.129  20.309  11.478
62855W        W31260  13.241   7.900  12.132
62856W        W31261  26.443   8.279   1.190
62857W        W31262   9.212   5.770  13.387
62858W        W31263   1.816  44.040   1.509
62859W        W31264  41.501   3.871  11.702
62860W        W31265  21.560  44.441  13.939
62861W        W31266  25.665  26.083  10.817
62862W        W31267  24.920  42.954   0.780
62863W        W31268   0.644  21.247   0.818
62864W        W31269  43.597  35.628  13.355
62865W        W31270  33.930  16.792   3.196
62866W        W31271  34.887   6.611  10.531
62867W        W31272  32.394  42.381   3.718
62868W        W31273   8.720   1.000  12.998
62869W        W31274   2.793   2.689  12.961
62870W        W31275  17.690  17.084  11.227
62871W        W31276  12.322  28.711  11.675
62872W        W31277  13.736  32.505   2.399
62873W        W31278  42.314  31.570  12.490
62874W        W31279  33.935  29.369  10.742
62875W        W31280  20.307  24.469   3.598
62876W        W31281  26.440  40.429  11.156
62877W        W31282  32.955  27.239   4.474
62878W        W31283  39.965  13.140   3.600
62879W        W31284   4.535  38.576   5.015
62880W        W31285   6.375  17.005  10.674
62881W        W31286  16.204  11.275   3.521
62882W        W31287  13.750  40.728   3.285
62883W        W31288   1.287  37.996   4.093
62884W        W31289  36.330  40.857   2.813
62885W        W31290  25.684  15.058  13.927
62886W        W31291   7.132  32.863  12.993
62887W        W31292  30.107  32.491  12.776
62888W        W31293  43.350   8.595   3.772
62889W        W31294  18.438  12.623  11.233
62890W        W31295  28.138  41.081  11.502
62891W        W31296  41.786  28.959   1.318
62892W        W31297  15.464  25.988   0.292
62893W        W31298  15.319   6.098   0.043
62894W        W31299  24.954  44.937  11.783
62895W        W31300  42.208  33.572  13.921
62896W        W31301   3.903  27.608  14.093
62897W        W31302  37.589  11.146   2.849
62898W        W31303   8.762   5.636   2.045
62899W        W31304  16.210  26.406   0.298
62900W        W31305   1.752  41.321  11.233
62901W        W31306  44.409  27.076   4.538
62902W        W31307   9.624  19.379  10.812
62903W        W31308  39.438  13.896  10.893
62904W        W31309  29.033  43.055  14.824
62905W        W31310  40.759  29.934  11.920
62906W        W31311  25.375  20.588   0.744
62907W        W31312   6.722   3.400  14.388
62908W        W31313  44.412   7.273   4.831
62909W        W31314  13.719   8.183   3.848
62910W        W31315  33.544  37.143  12.384
62911W        W31316  35.361  31.483   1.720
62912W        W31317  20.012  38.424   3.789
62913W        W31318  41.311  44.530  11.848
62914W        W31319  12.725  15.824   2.624
62915W        W31320  10.756  13.162  12.699
62916W        W31321   2.141   6.799   4.364
62917W        W31322  38.053   1.666   5.028
62918W        W31323  32.068  25.945   4.235
62919W        W31324  14.136  33.879   3.320
62920W        W31325  25.347  23.698  11.120
62921W        W31326  36.886  39.282  14.279
62922W        W31327  24.221  33.929   1.003
62923W        W31328  13.792  41.734   0.406
62924W        W31329  36.578  36.910   4.647
62925W        W31330  43.757  28.164   4.028
62926W        W31331   5.132   2.376   3.888
62927W        W31332  31.048  10.443   1.389
62928W        W31333  36.722  24.766  11.977
62929W        W31334  17.821  33.534   2.284
62930W        W31335  23.447   9.543  14.710
62931W        W31336  41.359  40.108  11.162
62932W        W31337  12.959   3.027   0.505
62933W        W31338   3.086  25.654   3.975
62934W        W31339  28.697  11.644   2.832
62935W        W31340   0.926  32.184   1.816
62936W        W31341  14.607  20.433   0.078
62937W        W31342  24.152  43.226  11.962
62938W        W31343   9.805  29.136   1.872
62939W        W31344  16.165  33.250   3.551
62940W        W31345  18.862  35.356   3.734
62941W        W31346   3.193  17.138   3.099
62942W        W31347  16.522  21.722   0.207
62943W        W31348   8.842  18.078   2.720
62944W        W31349  17.698  20.440   3.667
62945W        W31350  27.493  42.610   3.279
62946W        W31351  29.347  37.622   2.839
62947W        W31352  36.510  41.125  11.051
62948W        W31353  16.156  18.300   2.839
62949W        W31354  32.707  30.952  14.269
62950W        W31355  29.599  39.303   1.474
62951W        W31356  42.759   7.739  12.054
62952W        W31357  16.588   8.437   4.075
62953W        W31358   1.144  40.677   0.219
62954W        W31359  23.241  10.825  13.241
62955W        W31360   1.775  15.031   0.100
62956W        W31361   9.701  19.006   2.344
62957W        W31362   1.482  42.060   2.873
62958W        W31363  34.136  37.163   0.912
62959W        W31364   3.291  35.640  12.479
62960W        W31365   3.777  40.040   2.222
62961W        W31366  22.164  14.124   1.665
62962W        W31367   6.458  27.500  13.953
62963W        W31368  36.846  39.593   0.765
62964W        W31369  41.031  22.406  13.502
62965W        W31370  32.523  36.525   1.218
62966W        W31371  34.356  19.234   0.943
62967W        W31372   3.908  43.574   4.609
62968W        W31373  10.073  17.669   3.256
62969W        W31374  27.388  31.437   0.195
62970W        W31375  22.520  41.850  11.944
62971W        W31376  14.594  17.800   4.864
62972W        W31377  42.281  33.424   0.848
62973W        W31378  37.508  17.682   4.651
62974W        W31379  34.278  27.205  11.574
62975W        W31380   6.411   1.120   1.177
62976W        W31381   8.121  38.551  12.138
62977W        W31382  24.945  39.782  11.515
62978W        W31383  35.291  15.824  14.929
62979W        W31384  11.401  20.873   3.971
62980W        W31385   2.960  10.215   0.866
62981W        W31386  41.711  36.625   0.379
62982W        W31387  14.280   5.480  14.189
62983W        W31388   2.046  28.630  11.562
62984W        W31389   1.293  37.111  11.066
62985W        W31390  31.077  28.418  12.566
62986W        W31391  21.670   6.901   3.644
62987W        W31392  32.564   5.849  13.010
62988W        W31393   4.542  41.461   4.128
62989W        W31394   5.249  25.146   1.257
62990W        W31395  15.682  19.185   2.665
62991W        W31396  10.324  31.517   5.020
62992W        W31397  39.862  41.462   3.311
62993W        W31398  38.798  42.005   1.227
62994W        W31399  31.908  34.866  14.802
62995W        W31400   7.714   1.843   4.616
62996W        W31401  24.063  26.151  12.032
62997W        W31402  17.271   0.047  14.896
62998W        W31403  15.565   3.021  14.413
62999W        W31404  35.536   9.179  11.195
63000W        W31405  24.424  28.680  13.360
63001W        W31406  18.966   1.809  10.637
63002W        W31407  24.773  15.715   3.649
63003W        W31408  31.899  30.954   2.291
63004W        W31409  39.373  10.241  12.801
63005W        W31410   1.618   8.065  10.363
63006W        W31411  20.046  24.746  11.145
63007W        W31412  26.502  44.851   3.081
63008W        W31413  29.179   4.438  13.434
63009W        W31414   1.871  24.211   0.971
63010W        W31415  23.432  28.461  13.487
63011W        W31416  41.327   7.660   2.733
63012W        W31417  11.125  32.888  14.472
63013W        W31418  12.909   3.771  13.247
63014W        W31419  44.367   9.269   3.823
63015W        W31420  22.016   9.680  12.000
63016W        W31421  38.925  22.571  12.614
63017W        W31422  38.477  27.168   3.310
63018W        W31423   8.169  13.593  11.590
63019W        W31424   2.328  10.767  11.713
63020W        W31425  30.179  35.740  14.295
63021W        W31426  32.625  31.640   1.873
63022W        W31427   2.415   5.180   0.220
63023W        W31428  26.480   3.973  10.887
63024W        W31429  20.490   2.867   4.318
63025W        W31430  16.037  22.778  11.744
63026W        W31431  43.487  11.954  12.523
63027W        W31432  25.059   3.360  13.531
63028W        W31433   8.401  43.415   1.560
63029W        W31434   4.262  11.319   0.003
63030W        W31435  39.828  15.683  14.914
63031W        W31436  14.200  40.009   1.288
63032W        W31437   0.388   6.360  11.614
63033W        W31438  39.875  29.641  13.455
63034W        W31439  28.934  17.562   1.193
63035W        W31440  39.089  22.597  13.257
63036W        W31441  19.753  16.154  12.681
63037W        W31442  17.827   5.537  13.574
63038W        W31443   5.674  30.372  11.029
63039W        W31444   6.380  29.468   4.494
63040W        W31445  18.418   3.893   0.599
63041W        W31446   2.772   5.815   4.998
63042W        W31447  34.572  18.382  14.795
63043W        W31448  32.519  13.822  13.581
63044W        W31449   5.367  14.101  13.649
63045W        W31450   6.082  16.014  10.299
63046W        W31451  19.220   4.816  10.533
63047W        W31452  42.276   4.903  11.919
63048W        W31453   3.757  21.336  12.024
63049W        W31454  26.956  36.092  12.407
63050W        W31455  16.778  36.414  13.965
63051W        W31456  41.196  19.155  13.413
63052W        W31457  22.534  22.552   4.007
63053W        W31458  23.811  27.217   2.270
63054W        W31459  29.937  36.023  11.882
63055W        W31460   6.947  34.870  14.952
63056W        W31461  20.204  22.214   5.307
63057W        W31462  14.774  29.206  13.333
63058W        W31463  20.867  36.109  11.988
63059W        W31464   2.762  34.065  12.103
63060W        W31465  25.940  24.758  12.592
63061W        W31466  26.590  29.631  13.874
63062W        W31467  12.429   1.806   0.751
63063W        W31468  29.971  30.572   3.259
63064W        W31469  39.666  14.903  11.102
63065W        W31470  18.433  24.546   2.280
63066W        W31471  30.490  38.319   0.304
63067W        W31472  26.512  13.648   0.220
63068W        W31473  26.195   2.263  14.277
63069W        W31474  30.423  14.138  12.552
63070W        W31475  24.452  21.085   1.672
63071W        W31476  22.772  25.986  13.772
63072W        W31477  44.234  31.569  11.349
63073W        W31478   6.383  30.038  14.647
63074W        W31479  21.724  11.860  12.710
63075W        W31480  16.730  10.263   3.077
63076W        W31481   0.686  16.562   1.388
63077W        W31482  11.912  16.912   3.264
63078W        W31483  19.217  17.619   2.182
63079W        W31484  41.565  15.261   2.272
63080W        W31485  12.493  24.226  14.705
63081W        W31486   9.232  13.715   2.475
63082W        W31487  27.579   7.519  12.071
63083W        W31488  35.646  27.377   3.672
63084W        W31489   2.851  37.151   4.294
63085W        W31490  36.385  36.132   4.523
63086W        W31491   9.325  30.978   3.362
63087W        W31492  43.539  39.932   1.706
63088W        W31493  44.186  35.877  13.080
63089W        W31494   5.837  12.273  13.816
63090W        W31495  38.681  40.892  12.805
63091W        W31496   7.411  27.702  11.496
63092W        W31497  25.365  37.014  14.838
63093W        W31498   5.359  18.383   0.482
63094W        W31499  16.140  24.952   2.283
63095W        W31500  42.916   2.825   0.807
63096W        W31501  18.902  26.231   3.824
63097W        W31502  33.790  15.755  12.498
63098W        W31503  42.060   9.811   2.320
63099W        W31504  27.358  27.952   1.840
63100W        W31505  14.794   2.218  14.246
63101W        W31506  36.970  15.727  11.312
63102W        W31507  43.228  33.634   0.289
63103W        W31508  24.176  14.338   0.127
63104W        W31509  19.797   9.733  13.822
63105W        W31510  35.422  43.957   0.787
63106W        W31511   8.725  14.843   1.816
63107W        W31512  27.183   4.229   3.653
63108W        W31513   2.662   8.004  14.914
63109W        W31514  39.037   9.816  12.671
63110W        W31515  10.228  31.657   3.085
63111W        W31516  40.478  40.939  12.640
63112W        W31517  28.225  19.997   0.803
63113W        W31518  15.269  39.912  14.219
63114W        W31519  11.381  11.689   0.003
63115W        W31520  43.638  14.246  13.476
63116W        W31521  26.438  34.668   2.724
63117W        W31522  37.415  41.122   0.259
63118W        W31523   2.972  28.652   0.993
63119W        W31524  38.141   4.511  14.062
63120W        W31525   6.700  43.502  14.047
63121W        W31526   4.449  30.182  14.284
63122W        W31527  19.305  25.864  11.615
63123W        W31528   9.391  15.136  13.828
63124W        W31529  41.954  33.913  12.579
63125W        W31530  10.018  31.374  11.113
63126W        W31531  44.048  32.020   0.738
63127W        W31532   7.576   5.825  13.034
63128W        W31533  40.448  42.859   0.750
63129W        W31534   3.484  41.373   2.359
63130W        W31535   8.950  33.157  14.930
63131W        W31536  25.231  14.257  13.132
63132W        W31537  13.067  38.295   3.144
63133W        W31538   1.784  11.190  11.142
63134W        W31539  37.330  29.035  14.906
63135W        W31540  26.482  36.385   1.916
63136W        W31541   0.913  35.482  14.375
63137W        W31542  35.465  37.893  10.538
63138W        W31543  41.874   7.129   4.093
63139W        W31544  42.391  27.443  11.046
63140W        W31545   4.346  43.217  12.819
63141W        W31546   2.194  24.485   4.145
63142W        W31547   2.072  21.227   0.418
63143W        W31548   2.175  11.406   0.261
63144W        W31549  24.476  24.745   1.355
63145W        W31550   8.605   1.404  10.702
63146W        W31551  15.558   4.697   2.155
63147W        W31552  13.286   8.219  10.330
63148W        W31553   7.857  19.953   1.843
63149W        W31554  18.181   5.153  10.620
63150W        W31555  37.055  21.820   4.060
63151W        W31556  34.312  11.567  12.473
63152W        W31557   7.676   0.033   4.169
63153W        W31558  11.332  27.160   4.658
63154W        W31559  17.185   9.755  10.807
63155W        W31560  41.609   3.985  11.228
63156W        W31561  44.907  10.029   3.035
63157W        W31562  17.609  15.275  11.627
63158W        W31563  31.368  43.031  10.609
63159W        W31564  32.613  11.428  13.654
63160W        W31565  13.012  43.384   0.915
63161W        W31566  37.806  43.551  11.223
63162W        W31567  19.564  24.968   0.387
63163W        W31568  24.190  38.716   3.602
63164W        W31569  21.444  40.649  10.935
63165W        W31570   2.335  36.346   3.238
63166W        W31571  26.187  33.417   4.798
63167W        W31572  13.708  30.481   4.638
63168W        W31573  31.763  25.355  10.359
63169W        W31574  23.820  38.289  13.408
63170W        W31575  10.839  27.639  10.177
63171W        W31576  17.151  18.224  12.140
63172W        W31577  22.668  23.577   2.826
63173W        W31578  37.103  24.952   1.347
63174W        W31579  12.599   5.897  13.069
63175W        W31580   0.897  34.417   4.221
63176W        W31581  27.563  18.698  13.621
63177W        W31582  22.979  28.662  12.652
63178W        W31583  19.873  36.828   1.333
63179W        W31584   5.555  32.100   1.992
63180W        W31585  35.069  15.778  12.264
63181W        W31586  22.555  41.961   3.329
63182W        W31587  34.884  14.466  12.077
63183W        W31588  18.273   5.460  12.871
63184W        W31589   9.046  19.803  11.155
63185W        W31590   8.044   3.547   5.043
63186W        W31591  28.985  32.484   4.257
63187W        W31592  28.623  17.786   3.555
63188W        W31593  44.955  22.177  11.343
63189W        W31594  20.065  27.297  13.893
63190W        W31595  32.124   8.929  10.249
63191W        W31596  38.879  31.194   3.056
63192W        W31597  14.868  21.658  10.503
63193W        W31598  15.352  31.413   2.002
63194W        W31599  41.402  33.685   9.806
63195W        W31600  30.498   0.500   2.906
63196W        W31601  13.779  13.609   4.652
63197W        W31602  22.781  19.122   1.206
63198W        W31603   0.319   5.353   3.717
63199W        W31604  25.258  35.499   3.403
63200W        W31605  22.569  14.788  13.247
63201W        W31606  30.863  15.035  12.981
63202W        W31607  24.620  43.333  13.561
63203W        W31608   7.108  33.526  12.468
63204W        W31609  34.005  41.378  10.536
63205W        W31610  17.557  44.389   2.674
63206W        W31611  23.938  14.837  11.878
63207W        W31612  30.913  19.385   5.562
63208W        W31613   9.171  20.243  10.423
63209W        W31614  25.494  28.476  13.629
63210W        W31615  28.210  28.975  10.008
63211W        W31616  17.844  13.071   2.800
63212W        W31617  36.500  16.811   4.394
63213W        W31618   4.248  12.525  10.657
63214W        W31619  11.942  29.464  13.343
63215W        W31620  11.732  24.629   1.756
63216W        W31621   3.440   3.302   3.253
63217W        W31622  18.335  22.984  11.220
63218W        W31623  36.133  16.739  13.481
63219W        W31624  34.724  38.757   3.719
63220W        W31625  36.429  28.015  12.620
63221W        W31626  42.077  37.413   2.742
63222W        W31627  21.602  34.123  11.129
63223W        W31628  34.654  14.219  14.747
63224W        W31629  26.000   5.261   4.616
63225W        W31630  29.998  28.564   1.909
63226W        W31631   6.648  29.294   0.776
63227W        W31632  10.778   2.291   2.718
63228W        W31633  30.640   4.840  14.127
63229W        W31634  43.485  14.193  12.549
63230W        W31635   9.739  36.366  10.764
63231W        W31636   1.705  28.940  11.233
63232W        W31637   9.861  33.144  12.564
63233W        W31638  30.256  36.923  14.365
63234W        W31639  40.989  16.858  12.970
63235W        W31640  37.384  29.870   4.126
63236W        W31641  16.539  44.303   2.776
63237W        W31642  33.437   4.685   2.795
63238W        W31643  25.816   1.541  11.532
63239W        W31644  34.169  13.010  12.360
63240W        W31645  36.981  16.252   3.461
63241W        W31646  17.296   4.743  14.470
63242W        W31647  28.493  28.555   3.397
63243W        W31648  31.964  20.121   2.011
63244W        W31649   0.460  40.032  10.847
63245W        W31650  39.555  16.652  13.085
63246W        W31651  22.018  41.836   2.356
63247W        W31652  11.841  38.946   1.647
63248W        W31653   9.941  18.097  13.547
63249W        W31654  40.698  32.932  13.390
63250W        W31655  41.863  20.125   4.891
63251W        W31656   0.961  17.571  14.243
63252W        W31657   1.330  31.130   0.692
63253W        W31658  36.876  35.386   2.126
63254W        W31659  25.908   0.563   1.264
63255W        W31660   2.862  11.229   1.275
63256W        W31661  43.698  21.561  10.693
63257W        W31662  19.768   5.352   4.600
63258W        W31663  22.426   7.925   3.510
63259W        W31664  29.450   3.159   0.292
63260W        W31665  43.312  39.858  14.472
63261W        W31666   4.911  20.542  10.512
63262W        W31667  43.544  28.358   1.466
63263W        W31668  38.315   7.385   4.268
63264W        W31669  33.439   5.176  11.970
63265W        W31670  40.463  40.980   4.222
63266W        W31671  26.945  19.638   4.610
63267W        W31672   8.939  16.581   2.218
63268W        W31673  40.820   5.199   0.424
63269W        W31674  15.264  30.524  10.201
63270W        W31675   4.878  23.214  14.123
63271W        W31676  12.574  33.911   2.931
63272W        W31677  38.052   5.844   1.278
63273W        W31678  26.134  24.763   3.286
63274W        W31679  17.170  17.315   0.852
63275W        W31680  32.960   6.503  12.111
63276W        W31681  23.765  15.459   4.479
63277W        W31682  25.016  17.798   2.330
63278W        W31683  19.616  26.563  12.856
63279W        W31684  33.047  11.778  12.950
63280W        W31685   7.538  10.790  14.395
63281W        W31686   8.653  23.217   4.111
63282W        W31687  32.970  22.493   3.754
63283W        W31688  18.669  38.811  13.848
63284W        W31689  36.932  37.957   4.873
63285W        W31690  17.332  16.292   2.738
63286W        W31691  38.363  22.956  13.946
63287W        W31692  28.488   7.617  12.078
63288W        W31693  38.103  35.398  11.956
63289W        W31694  19.120  30.534   0.221
63290W        W31695  28.580  37.226   9.861
63291W        W31696   6.724  28.715   2.411
63292W        W31697  24.520  30.552   4.650
63293W        W31698  24.697  15.324  13.347
63294W        W31699  34.382  15.151   2.689
63295W        W31700   1.029  15.269   1.236
63296W        W31701  44.512  20.588   2.390
63297W        W31702   5.764  20.268  11.252
63298W        W31703  35.389  39.066   1.336
63299W        W31704  32.209   6.933   2.600
63300W        W31705  29.672  30.158   3.355
63301W        W31706   5.528   0.078   4.092
63302W        W31707   4.316  16.392  12.417
63303W        W31708   5.868   9.267   4.360
63304W        W31709  36.960  42.447  14.597
63305W        W31710   9.783   7.666  12.492
63306W        W31711  39.292  29.812  14.739
63307W        W31712  27.492   1.163  13.101
63308W        W31713  18.893   3.718   4.767
63309W        W31714  21.051  26.197   3.788
63310W        W31715  34.149  14.165  12.980
63311W        W31716  38.302  12.557  13.032
63312W        W31717  30.059  13.578   2.099
63313W        W31718  26.627  25.887  13.948
63314W        W31719  30.705  33.455   4.918
63315W        W31720   0.958  29.668   2.922
63316W        W31721   3.238  11.713   2.631
63317W        W31722  17.862   6.758   0.442
63318W        W31723  30.183   3.933  14.339
63319W        W31724  42.899  38.623  12.453
63320W        W31725  29.496  15.859   1.396
63321W        W31726  32.269   4.976   1.995
63322W        W31727  35.343  31.336  13.036
63323W        W31728  21.479  43.034  13.960
63324W        W31729  11.403  27.043   0.265
63325W        W31730  21.454  10.408  10.689
63326W        W31731   2.375  25.752  13.462
63327W        W31732  17.572  42.192  12.998
63328W        W31733  15.789  14.020   2.784
63329W        W31734  20.682  41.816  12.047
63330W        W31735  18.808  33.406  13.990
63331W        W31736  26.468  22.981  10.968
63332W        W31737  34.665  24.952  11.613
63333W        W31738  33.128  13.053  14.313
63334W        W31739  41.969   7.446   3.654
63335W        W31740   3.949   6.217  11.345
63336W        W31741   0.672  23.512  14.294
63337W        W31742  36.870  24.341  13.503
63338W        W31743  44.094  31.451  12.903
63339W        W31744  37.864  37.352  12.113
63340W        W31745  29.404  24.827  12.568
63341W        W31746   0.481  21.577  13.804
63342W        W31747  12.985   0.236  14.081
63343W        W31748  16.983  30.630  10.568
63344W        W31749  26.944  43.334   1.407
63345W        W31750  30.468  32.926  12.629
63346W        W31751  44.977   8.917   0.282
63347W        W31752  39.935  17.528   2.555
63348W        W31753   8.225   4.755   1.236
63349W        W31754  41.972  24.836  11.547
63350W        W31755  14.232  11.730  13.769
63351W        W31756  16.694  21.076   1.349
63352W        W31757  15.044  38.356  13.521
63353W        W31758  19.709  29.313  12.507
63354W        W31759   0.301  16.482   4.042
63355W        W31760  14.731  42.444  14.970
63356W        W31761  41.273  28.146  12.821
63357W        W31762  18.120  27.947   2.740
63358W        W31763  15.611  23.614   4.532
63359W        W31764   8.413  34.554  13.301
63360W        W31765  37.883   1.913  11.878
63361W        W31766  17.496   6.934   0.752
63362W        W31767  23.507  39.771  12.448
63363W        W31768  44.676  30.583   0.690
63364W        W31769  29.974  37.237   4.021
63365W        W31770   8.552   8.243  11.439
63366W        W31771  10.760  31.215   3.682
63367W        W31772  26.175  23.593  14.989
63368W        W31773  38.933  33.156  13.451
63369W        W31774   6.281   6.976  13.065
63370W        W31775  14.103  29.037   0.679
63371W        W31776  16.120   5.823   2.865
63372W        W31777   7.799  44.944  12.024
63373W        W31778  25.033  26.676   0.357
63374W        W31779  30.877  37.247  11.119
63375W        W31780  26.018   3.511  12.182
63376W        W31781  14.639  25.116  11.544
63377W        W31782  19.133  36.469  12.051
63378W        W31783   9.379  37.708  11.117
63379W        W31784  18.862  20.762   1.936
63380W        W31785  36.837   0.544  11.514
63381W        W31786  21.598   2.977   0.092
63382W        W31787   1.845  14.813   3.271
63383W        W31788  12.872  17.280   0.202
63384W        W31789  39.480  37.114   3.602
63385W        W31790  16.658  27.513   0.960
63386W        W31791  25.927  35.003   1.497
63387W        W31792   1.378   7.752  12.069
63388W        W31793   3.669   8.707  12.904
63389W        W31794  42.510   1.799   4.594
63390W        W31795  10.810  38.785   3.752
63391W        W31796  16.115   4.495  13.003
63392W        W31797  21.068  13.896   0.879
63393W        W31798  40.601  11.969  11.591
63394W        W31799  21.304  25.708  14.307
63395W        W31800   3.639  19.592  13.891
63396W        W31801  32.839  24.748  11.190
63397W        W31802  16.324   8.145   3.741
63398W        W31803   4.884  15.356   1.822
63399W        W31804   9.867  13.212  14.943
63400W        W31805  19.593  38.375   2.109
63401W        W31806   0.039   6.896  13.982
63402W        W31807  19.738   3.100  11.745
63403W        W31808  18.056  31.584   1.670
63404W        W31809  18.982  10.683   1.281
63405W        W31810  20.037  38.186  12.730
63406W        W31811  14.367  23.762   1.844
63407W        W31812   6.280  15.027   3.229
63408W        W31813  41.436  10.840  13.426
63409W        W31814   4.973  31.419  11.260
63410W        W31815  15.293  13.833   1.494
63411W        W31816   9.592  12.331   0.319
63412W        W31817   1.911   9.288   1.860
63413W        W31818  31.515  23.558  11.674
63414W        W31819  10.571  10.152   0.829
63415W        W31820  36.066  15.668   1.394
63416W        W31821   3.908   8.891   3.154
63417W        W31822  24.941  27.959   0.964
63418W        W31823  15.128   3.424   1.880
63419W        W31824   3.385  15.290   3.308
63420W        W31825   9.105  41.482   1.214
63421W        W31826  15.631  35.029   2.779
63422W        W31827  27.727  33.966   3.590
63423W        W31828  12.336   0.100  10.799
63424W        W31829   2.956  29.589  12.548
63425W        W31830  29.978  12.992  14.888
63426W        W31831   5.378  11.368   3.223
63427W        W31832  26.586  31.944   1.119
63428W        W31833  31.135   0.707   0.754
63429W        W31834   7.853  21.901  11.649
63430W        W31835  15.343  36.025   0.472
63431W        W31836   7.200  38.999   3.816
63432W        W31837   3.640   3.426  13.410
63433W        W31838   4.856  23.204  10.630
63434W        W31839  41.522  29.995  11.624
63435W        W31840  44.745   3.762   0.241
63436W        W31841  12.626  31.016   2.348
63437W        W31842  42.380  12.276   4.769
63438W        W31843   0.942  43.023  12.348
63439W        W31844  15.730   1.904  10.579
63440W        W31845  41.442  22.952  12.916
63441W        W31846  41.970  34.201   0.066
63442W        W31847  13.247   8.504  11.863
63443W        W31848  37.300  31.471  13.065
63444W        W31849  41.960  26.938  13.494
63445W        W31850  27.335  34.444  11.666
63446W        W31851  40.772  37.521  13.847
63447W        W31852  44.854   3.865  13.387
63448W        W31853  33.204  28.059  11.118
63449W        W31854  14.926  14.664   1.327
63450W        W31855  21.398  39.172  13.838
63451W        W31856   4.335  15.125   1.177
63452W        W31857   9.809  22.743  11.420
63453W        W31858  21.281  25.975   4.798
63454W        W31859   5.997  37.018   3.958
63455W        W31860  37.341  21.060   2.885
63456W        W31861  44.260  16.549   2.525
63457W        W31862  27.167  43.787   4.033
63458W        W31863  28.652  24.191  13.847
63459W        W31864  36.868  38.776  14.390
63460W        W31865   6.211  27.683  11.512
63461W        W31866  11.911  39.184  12.513
63462W        W31867  32.687  41.027  10.751
63463W        W31868  20.184  22.782   0.128
63464W        W31869  44.463   2.351   0.442
63465W        W31870  38.584  25.170   2.840
63466W        W31871  22.245   6.404   0.459
63467W        W31872  14.202  26.519  10.295
63468W        W31873  13.564   4.030   2.729
63469W        W31874  30.559   2.840   4.578
63470W        W31875  35.278  18.331  12.166
63471W        W31876  10.247   0.287  11.044
63472W        W31877   5.725  15.547   4.836
63473W        W31878  19.242  31.680   0.853
63474W        W31879   2.189  43.743  12.469
63475W        W31880  20.546  25.723   3.257
63476W        W31881   3.028   5.666  11.089
63477W        W31882  28.171   5.987   0.182
63478W        W31883  43.955   7.582   1.683
63479W        W31884   0.826  23.639   1.437
63480W        W31885   2.276  27.836   4.530
63481W        W31886   2.746  28.604  12.393
63482W        W31887  16.316  44.724  12.004
63483W        W31888   6.394   7.127   2.436
63484W        W31889   9.618  41.518   1.206
63485W        W31890  20.568  38.323  10.698
63486W        W31891  38.340  35.002   2.185
63487W        W31892   7.211  36.059  13.430
63488W        W31893  29.032  28.100  12.408
63489W        W31894  43.077   9.332  14.550
63490W        W31895  28.583  32.559   0.960
63491W        W31896  41.402   9.226   4.755
63492W        W31897   6.603  42.842   1.770
63493W        W31898  11.178   9.408   0.263
63494W        W31899  23.069  21.188   4.811
63495W        W31900  28.456   7.483   1.757
63496W        W31901  34.428  37.926   0.435
63497W        W31902  17.816  29.097  12.104
63498W        W31903  20.983  13.062  11.590
63499W        W31904  19.925  31.925  11.022
63500W        W31905  23.514  19.786   3.729
63501W        W31906  16.641  17.248  12.584
63502W        W31907  35.364  31.571   3.220
63503W        W31908   5.217  16.137   3.434
63504W        W31909  37.460  35.080   4.629
63505W        W31910   4.799   1.782  10.428
63506W        W31911  15.186  13.741   3.912
63507W        W31912  40.501  44.232  13.783
63508W        W31913  42.507  36.948   3.065
63509W        W31914  14.485  22.158  13.082
63510W        W31915  43.483  40.530  13.698
63511W        W31916  38.813   7.834  12.824
63512W        W31917  32.241  41.900   0.241
63513W        W31918  28.496   0.617  12.380
63514W        W31919   3.260  41.960   0.380
63515W        W31920   5.649  35.355   2.391
63516W        W31921   9.634  41.587  11.117
63517W        W31922  18.143  44.455  13.987
63518W        W31923  43.180  37.865   3.819
63519W        W31924  29.454   5.320   0.943
63520W        W31925  13.938  16.649   0.742
63521W        W31926   7.470  17.116   0.599
63522W        W31927  38.021  30.982  11.187
63523W        W31928  40.555  36.997  12.262
63524W        W31929   2.453   9.324   4.121
63525W        W31930  32.474  39.404  10.607
63526W        W31931   4.460  13.218  12.468
63527W        W31932  40.326  31.981  14.038
63528W        W31933   4.174  37.750   1.832
63529W        W31934  38.489   6.476  12.558
63530W        W31935  29.352  31.552  12.028
63531W        W31936  38.486   2.133   9.837
63532W        W31937  29.386   5.402  14.843
63533W        W31938  44.556  24.697   2.833
63534W        W31939  18.162  28.411   4.572
63535W        W31940  13.385   3.066  14.733
63536W        W31941  44.460  20.550  13.366
63537W        W31942  14.310   1.733  13.580
63538W        W31943  14.522  14.602  13.354
63539W        W31944   3.818  24.144   2.829
63540W        W31945  35.040  40.513   1.436
63541W        W31946  25.550   4.652   0.280
63542W        W31947  18.389  42.110  14.140
63543W        W31948  23.332  39.600   1.930
63544W        W31949   0.524  34.121  13.494
63545W        W31950   8.429  27.637  12.412
63546W        W31951  18.990   8.813   3.151
63547W        W31952  10.235  10.081  13.508
63548W        W31953  14.830  31.642  14.436
63549W        W31954  10.354  15.247  14.877
63550W        W31955  41.356  42.067   3.488
63551W        W31956  19.778   9.618  11.653
63552W        W31957  30.965   7.463  12.405
63553W        W31958  42.554  16.572   0.869
63554W        W31959  22.997  15.637  10.753
63555W        W31960   5.249  28.870   5.045
63556W        W31961   8.507   8.235  12.948
63557W        W31962  16.315  38.349  13.533
63558W        W31963  43.551  23.120  12.071
63559W        W31964  19.231  37.864   1.893
63560W        W31965  20.360  12.563   4.499
63561W        W31966  40.623   0.482  12.899
63562W        W31967  34.432  28.441   2.911
63563W        W31968  18.643  11.688  11.953
63564W        W31969   6.830  42.084  10.578
63565W        W31970   7.901  32.226   4.179
63566W        W31971  22.496  17.684  12.536
63567W        W31972  26.367  28.003  10.649
63568W        W31973  11.091   6.190  12.426
63569W        W31974  27.971  42.787   3.134
63570W        W31975   0.530  29.556  13.336
63571W        W31976   4.701   1.487  11.584
63572W        W31977  12.070  16.210  13.997
63573W        W31978  10.039  36.850   1.317
63574W        W31979   1.078  35.346   3.655
63575W        W31980  32.676  41.641   1.864
63576W        W31981  16.491  37.069  14.473
63577W        W31982  14.737   1.493  13.443
63578W        W31983  23.820  24.653   4.481
63579W        W31984  23.021  19.411  13.480
63580W        W31985  11.771  35.684  10.588
63581W        W31986  34.039  12.849   2.274
63582W        W31987  27.692  35.378  10.637
63583W        W31988   9.129  34.628   1.941
63584W        W31989  19.607   6.107  14.760
63585W        W31990  28.255  29.537  14.830
63586W        W31991  19.261   1.312   2.500
63587W        W31992  13.232   1.383  10.858
63588W        W31993  37.957  28.007   3.790
63589W        W31994  38.983   4.262  14.791
63590W        W31995  38.132  26.651   0.908
63591W        W31996  40.547  25.955  13.054
63592W        W31997   4.974  33.462   3.748
63593W        W31998  26.981  43.508   4.433
63594W        W31999  30.360  32.851   0.440
63595W        W32000   3.760  19.440   0.872
63596W        W32001  18.718  41.888   2.166
63597W        W32002  38.678   1.617  13.488
63598W        W32003  31.124  37.117   0.229
63599W        W32004  17.631  16.853  13.879
63600W        W32005  24.557   7.713   4.419
63601W        W32006  23.911  33.118   2.433
63602W        W32007  24.016  27.512   1.688
63603W        W32008  32.968  36.158  14.426
63604W        W32009  31.619   4.475   1.745
63605W        W32010  17.367  35.951  12.196
63606W        W32011  25.180  44.191  14.601
63607W        W32012  11.343  42.913  13.841
63608W        W32013  28.211  17.040   3.259
63609W        W32014  44.326  38.585  14.466
63610W        W32015   6.215  14.767   3.661
63611W        W32016  31.640  24.225   0.346
63612W        W32017   0.927  36.508   0.003
63613W        W32018   6.838  14.596   0.977
63614W        W32019  11.475   9.785   2.139
63615W        W32020  35.041  41.139  11.209
63616W        W32021   4.234  41.021   1.838
63617W        W32022  37.612  23.514  10.757
63618W        W32023  27.196   2.328   3.603
63619W        W32024  29.902  11.345   0.001
63620W        W32025  34.397  34.439   1.671
63621W        W32026  36.897  22.209   2.656
63622W        W32027  33.814  35.398  10.681
63623W        W32028  43.502  23.243  13.066
63624W        W32029   0.868  20.177  11.378
63625W        W32030   1.465  17.266   2.204
63626W        W32031  43.106   5.835   3.912
63627W        W32032  10.121  12.031   2.628
63628W        W32033   8.758  28.589   1.780
63629W        W32034  43.989  17.896  12.794
63630W        W32035  11.030  36.950  13.950
63631W        W32036  32.094  44.697   1.500
63632W        W32037  25.640  44.859   1.259
63633W        W32038  24.961  43.315  11.428
63634W        W32039  17.543  30.470  12.506
63635W        W32040  39.905  14.118   1.666
63636W        W32041  43.400  33.850   1.898
63637W        W32042  32.968  43.043   2.235
63638W        W32043  36.420   0.305  10.775
63639W        W32044   2.302  20.022  11.684
63640W        W32045  18.051  21.594  11.577
63641W        W32046  29.128  31.870   3.665
63642W        W32047  16.842  31.138  10.678
63643W        W32048  13.656  20.078   2.349
63644W        W32049  24.040  30.071   0.413
63645W        W32050  21.711  18.513  11.575
63646W        W32051   7.322   1.514   4.779
63647W        W32052  15.172  36.224   1.206
63648W        W32053  24.099  33.378  14.387
63649W        W32054  11.026   4.485   2.739
63650W        W32055  38.201  25.225  11.661
63651W        W32056   7.292  16.947   1.766
63652W        W32057   2.561  33.606   5.011
63653W        W32058  12.020   4.358   0.080
63654W        W32059  17.166   2.112   4.948
63655W        W32060   3.788   9.189   3.601
63656W        W32061   3.214   0.410   1.760
63657W        W32062  10.297  19.835  14.476
63658W        W32063  33.681  42.047   0.219
63659W        W32064   5.930  25.882   0.054
63660W        W32065   5.743  18.197   4.105
63661W        W32066   9.136  37.360  12.077
63662W        W32067  13.389   5.313  13.440
63663W        W32068   7.713  12.182  10.197
63664W        W32069   3.310   1.970  12.368
63665W        W32070  26.198   8.720   1.312
63666W        W32071  39.928  17.683   3.252
63667W        W32072  23.475  26.405   3.092
63668W        W32073  38.899  17.252  14.272
63669W        W32074   0.877  24.440  11.726
63670W        W32075  29.348  33.804   4.387
63671W        W32076  41.492  30.645  14.966
63672W        W32077  33.941  17.704  11.574
63673W        W32078  39.359  26.542  13.044
63674W        W32079   4.760  33.506  14.245
63675W        W32080   6.182  23.022  14.880
63676W        W32081   1.913  43.224  13.514
63677W        W32082   3.463  12.393  12.452
63678W        W32083  12.428  15.440  10.169
63679W        W32084  38.929  39.344   2.255
63680W        W32085  44.962  12.839   0.697
63681W        W32086  14.193  29.876   0.662
63682W        W32087  11.823  43.080  13.756
63683W        W32088  25.720  30.134  13.482
63684W        W32089  19.731  38.178   1.211
63685W        W32090  42.514  18.198  14.982
63686W        W32091   9.380  21.863  14.706
63687W        W32092  35.991  37.591   2.750
63688W        W32093  44.533  15.792   0.041
63689W        W32094  39.172   1.964  11.318
63690W        W32095  22.611  32.574   1.394
63691W        W32096  36.855  15.918   4.327
63692W        W32097  21.167   6.324   4.741
63693W        W32098  26.266  42.216   2.468
63694W        W32099   9.216  17.159  13.060
63695W        W32100  37.426  39.074  10.844
63696W        W32101  11.110  38.421   2.137
63697W        W32102   8.240  23.511  14.394
63698W        W32103  23.122   5.021  14.102
63699W        W32104   2.288   4.646  10.517
63700W        W32105  26.789  23.106   2.808
63701W        W32106  42.406  27.014   4.860
63702W        W32107  33.782  28.693   0.729
63703W        W32108  43.313  25.180   4.546
63704W        W32109   5.695  16.801   4.605
63705W        W32110   2.467  40.592   4.126
63706W        W32111  43.899  32.887  12.555
63707W        W32112  20.293  31.092   4.763
63708W        W32113   4.601  35.742   1.152
63709W        W32114  34.673  27.488  14.440
63710W        W32115  42.586  25.662  11.484
63711W        W32116   6.855  11.882   1.394
63712W        W32117  40.566  15.717   0.412
63713W        W32118  43.777   3.548  13.993
63714W        W32119  33.393  11.337  10.654
63715W        W32120  39.602  17.279   3.846
63716W        W32121  27.871   4.392  10.690
63717W        W32122  25.958  36.571   0.838
63718W        W32123  26.951   7.872  14.816
63719W        W32124   6.256  29.980   1.324
63720W        W32125  22.868  11.108  14.848
63721W        W32126  12.623  35.476   2.147
63722W        W32127  20.709  33.843  14.627
63723W        W32128  25.092  14.812   4.987
63724W        W32129  10.684  40.832   1.834
63725W        W32130  11.687  25.754  12.597
63726W        W32131  37.874  28.251  11.077
63727W        W32132  31.094   3.205  13.618
63728W        W32133  13.161  27.781   1.934
63729W        W32134  35.431   7.089  14.265
63730W        W32135  24.539  37.545  13.844
63731W        W32136  23.330  32.011  12.995
63732W        W32137   3.854  16.947   0.807
63733W        W32138  37.411  12.373   0.692
63734W        W32139  19.278  39.585   3.108
63735W        W32140   4.414   8.451   3.140
63736W        W32141  24.602  26.691   1.941
63737W        W32142  32.983   4.412  11.369
63738W        W32143  13.834   2.431  13.633
63739W        W32144  37.343  37.920   2.814
63740W        W32145   4.763  26.388  13.657
63741W        W32146  29.005   5.484   0.737
63742W        W32147  34.721  41.013   0.510
63743W        W32148  44.267  27.705  13.334
63744W        W32149  30.513   9.094   0.851
63745W        W32150  10.728  17.596  13.520
63746W        W32151   1.558  33.022  13.057
63747W        W32152  31.366  33.072   0.245
63748W        W32153  23.392  10.906   0.009
63749W        W32154   8.405  27.064   3.718
63750W        W32155   3.994  11.759  12.304
63751W        W32156   5.801   1.780  12.393
63752W        W32157  26.201  17.688   3.017
63753W        W32158  19.691  21.061   4.121
63754W        W32159  25.544  18.750   0.264
63755W        W32160  15.560   4.708  13.034
63756W        W32161  33.512  31.052   4.784
63757W        W32162   8.514  29.096   3.670
63758W        W32163   4.440  22.729   1.185
63759W        W32164  24.344  40.521   2.363
63760W        W32165  13.274   0.211   2.639
63761W        W32166  20.083  29.078  14.380
63762W        W32167   7.497  33.970  11.230
63763W        W32168  35.987   0.038   3.611
63764W        W32169  43.007   4.395   2.294
63765W        W32170  28.855  36.146  12.536
63766W        W32171   4.909   8.388  12.136
63767W        W32172  38.620  44.330   4.994
63768W        W32173  20.983  18.081  13.504
63769W        W32174  34.989  17.481   1.765
63770W        W32175   6.608  26.014   3.178
63771W        W32176  20.636  11.095  10.565
63772W        W32177  20.497  10.698   2.824
63773W        W32178  16.654  16.663   0.523
63774W        W32179  21.175  11.319   1.407
63775W        W32180  14.066  19.625  12.156
63776W        W32181  21.553  32.570   0.435
63777W        W32182  36.436  37.074   0.385
63778W        W32183   1.779  26.996  14.043
63779W        W32184  18.194  30.901   4.185
63780W        W32185  40.916  18.482   1.873
63781W        W32186  26.184   9.729   1.405
63782W        W32187  34.802  12.925   4.508
63783W        W32188  22.738  21.709   4.575
63784W        W32189   9.418  15.568  12.222
63785W        W32190  26.549  27.239  12.097
63786W        W32191  25.386  21.823   4.183
63787W        W32192  38.585  11.450  11.022
63788W        W32193   3.905  44.450  12.032
63789W        W32194  41.513  24.068   0.723
63790W        W32195  32.133  42.742  14.372
63791W        W32196  26.264  25.041  11.198
63792W        W32197  39.051   5.481   5.641
63793W        W32198   8.903  21.504   2.027
63794W        W32199   7.401  23.198   3.718
63795W        W32200  31.885  23.185  12.966
63796W        W32201   1.141  27.414   2.825
63797W        W32202   3.864   6.286  12.365
63798W        W32203   8.234  14.618  11.528
63799W        W32204  21.601  32.520  13.864
63800W        W32205  38.456  18.011   1.863
63801W        W32206  34.300  27.493  14.061
63802W        W32207   5.888   8.615  13.351
63803W        W32208  36.489  25.925  12.954
63804W        W32209  20.671  30.180   4.379
63805W        W32210  42.014   8.272  12.966
63806W        W32211  20.807   0.809  11.018
63807W        W32212  35.756  33.359   2.660
63808W        W32213   0.273  29.855   0.289
63809W        W32214  16.438  37.344  14.034
63810W        W32215  32.627  20.932   4.611
63811W        W32216   8.807  43.566  14.472
63812W        W32217  21.450   8.885  12.915
63813W        W32218  38.971  10.808  14.221
63814W        W32219   8.571  20.720   4.148
63815W        W32220  24.055  44.933  12.291
63816W        W32221  17.514  41.972   0.817
63817W        W32222  39.750  24.445   0.924
63818W        W32223  22.733   7.312  11.899
63819W        W32224  24.760  15.173  12.850
63820W        W32225  38.102  28.272   1.296
63821W        W32226  17.069  18.681   3.780
63822W        W32227  17.635  23.838   2.908
63823W        W32228  11.601  28.638   0.889
63824W        W32229  29.474   8.329  12.976
63825W        W32230  27.807  35.955   3.115
63826W        W32231  18.484  19.804  13.002
63827W        W32232   5.162  17.167  11.798
63828W        W32233  11.374  35.945   1.907
63829W        W32234   3.309   2.505   0.506
63830W        W32235  42.429  24.028   2.484
63831W        W32236  33.858  20.270  13.541
63832W        W32237   5.670   8.237  13.741
63833W        W32238   2.435  18.580  13.982
63834W        W32239  41.310  21.136  13.023
63835W        W32240  44.475  30.154   4.151
63836W        W32241   9.771  20.949   2.438
63837W        W32242  20.122  13.738   3.299
63838W        W32243  37.031  27.197  11.056
63839W        W32244   5.945  26.440   2.312
63840W        W32245   6.165   2.223  11.605
63841W        W32246   1.200  29.471   1.847
63842W        W32247   1.017  29.990   3.313
63843W        W32248  16.794  18.583  12.375
63844W        W32249  23.205  25.134  10.874
63845W        W32250  34.137  41.486   1.778
63846W        W32251   2.329  35.143   1.852
63847W        W32252  43.582  25.897   1.103
63848W        W32253  42.255   3.345   3.171
63849W        W32254  25.034  10.304   2.761
63850W        W32255  29.031   4.400   2.703
63851W        W32256  28.356   4.151  12.456
63852W        W32257  32.586  14.133  14.458
63853W        W32258  23.544  39.280   0.250
63854W        W32259  18.600  26.509   2.894
63855W        W32260  21.235  10.593   4.037
63856W        W32261  20.148  23.636  13.279
63857W        W32262  17.283   4.689  13.528
63858W        W32263  26.978   9.221   3.455
63859W        W32264   9.872  21.740   1.881
63860W        W32265  10.154  24.900   3.728
63861W        W32266  14.662  25.940  10.689
63862W        W32267  16.356  41.579   4.224
63863W        W32268  32.273   9.770  14.909
63864W        W32269   8.825  26.610   1.209
63865W        W32270  11.100  16.133  11.814
63866W        W32271  44.811  21.016   0.216
63867W        W32272  36.107  26.550   0.709
63868W        W32273  34.005  20.567  14.832
63869W        W32274  29.212  30.122   3.104
63870W        W32275  19.123  41.056   0.769
63871W        W32276   2.401  29.188  11.980
63872W        W32277   2.320  35.792   0.959
63873W        W32278   1.232  12.073   4.566
63874W        W32279  22.445  42.174   4.654
63875W        W32280  30.453  18.604   0.323
63876W        W32281  13.261   4.225   3.599
63877W        W32282  35.480  10.003  13.853
63878W        W32283  16.016  23.150   2.430
63879W        W32284  11.054   8.343   4.581
63880W        W32285  25.972  12.861   4.258
63881W        W32286  41.653  24.744   2.199
63882W        W32287   8.328  25.459   4.469
63883W        W32288   5.951   2.225  12.633
63884W        W32289  12.793  19.662  12.174
63885W        W32290   8.923   4.450  11.833
63886W        W32291   8.834   5.384  13.526
63887W        W32292   5.840  39.502  12.883
63888W        W32293  36.002  43.860   3.323
63889W        W32294   6.919  39.694   3.246
63890W        W32295   0.746  40.551  13.374
63891W        W32296  28.654  22.108   4.791
63892W        W32297  26.595   1.434   4.791
63893W        W32298  34.433  42.312   3.124
63894W        W32299  11.911   4.840  11.678
63895W        W32300  11.914  18.515   2.398
63896W        W32301  10.658  22.977  11.248
63897W        W32302  41.916   2.651  11.517
63898W        W32303  39.369  42.580   3.432
63899W        W32304  26.480  35.336  13.370
63900W        W32305  16.230  20.778  11.904
63901W        W32306  21.188  30.861   4.156
63902W        W32307   6.842   4.820   3.399
63903W        W32308   9.229  11.350  14.982
63904W        W32309   2.944  33.020  13.565
63905W        W32310  18.470  13.296  12.400
63906W        W32311  11.366  32.850   0.721
63907W        W32312  28.092  40.103   2.737
63908W        W32313  43.218  29.144  11.678
63909W        W32314  43.193  41.567  12.470
63910W        W32315  23.961  16.689   4.163
63911W        W32316   1.624  18.772  13.833
63912W        W32317   8.568  36.080   5.102
63913W        W32318   4.675   4.770   3.311
63914W        W32319  24.027  14.259  11.635
63915W        W32320  28.856  36.967  10.423
63916W        W32321  23.036  28.431  11.707
63917W        W32322  25.044  26.416   1.691
63918W        W32323  13.790  21.853   2.660
63919W        W32324  28.406  20.033   2.349
63920W        W32325   4.579  11.634   4.506
63921W        W32326  37.857  11.441   2.544
63922W        W32327  38.824   0.335  10.614
63923W        W32328  22.177   1.070  11.924
63924W        W32329  18.536   9.819   3.893
63925W        W32330  36.611   8.278   4.786
63926W        W32331  23.178  18.277  12.458
63927W        W32332  25.004   2.384   1.916
63928W        W32333  22.953  13.564   2.237
63929W        W32334  14.616   5.847   4.313
63930W        W32335   6.217  41.495   4.576
63931W        W32336   7.473  40.140   0.951
63932W        W32337  35.906  31.263   4.029
63933W        W32338   8.298  22.635  12.601
63934W        W32339  18.154  24.642   4.518
63935W        W32340   5.709  40.483   0.998
63936W        W32341  13.240  12.276  14.272
63937W        W32342  24.381   6.240   4.610
63938W        W32343   1.791  31.099  14.349
63939W        W32344   5.746  38.334   0.564
63940W        W32345  14.879  27.483  10.810
63941W        W32346  29.705  23.014  14.537
63942W        W32347  30.666  31.394  13.863
63943W        W32348  33.436   2.491   3.770
63944W        W32349   9.302  17.288   0.397
63945W        W32350   1.475  14.775   1.263
63946W        W32351   4.577  41.719   2.913
63947W        W32352  28.040  32.052  13.603
63948W        W32353  26.197  11.693   1.009
63949W        W32354  13.670  39.802  12.753
63950W        W32355  42.414   0.354  14.263
63951W        W32356  34.106  37.834   2.724
63952W        W32357  19.554   5.213  11.174
63953W        W32358   5.001   7.801   0.284
63954W        W32359  20.774  18.517   0.828
63955W        W32360  15.075  13.163  14.827
63956W        W32361  18.885  26.841   5.056
63957W        W32362  40.224  29.726   3.194
63958W        W32363  15.728  28.470  11.928
63959W        W32364  11.254  34.170   4.126
63960W        W32365  26.568  14.212  13.440
63961W        W32366   9.062   6.900   3.766
63962W        W32367  43.426   9.055   0.936
63963W        W32368  19.683  23.757  13.058
63964W        W32369  22.589  15.762  13.563
63965W        W32370  15.132  21.289  11.515
63966W        W32371  24.086  28.506  12.342
63967W        W32372  17.757  11.283   4.535
63968W        W32373   9.174  32.071   4.873
63969W        W32374   4.967   8.744  10.275
63970W        W32375  21.950  32.514  10.545
63971W        W32376  42.842  32.459  12.101
63972W        W32377   2.697  12.152   4.644
63973W        W32378   6.257   0.953  12.918
63974W        W32379  15.997  27.025  14.413
63975W        W32380  38.651   2.306  13.936
63976W        W32381   3.471   9.340  12.392
63977W        W32382   0.052  26.092  11.581
63978W        W32383  14.330   7.627   1.329
63979W        W32384  26.603  27.056  11.616
63980W        W32385   1.926  29.075   3.258
63981W        W32386  18.323  18.218  10.735
63982W        W32387  32.724  40.370   0.328
63983W        W32388  43.853   9.428  12.943
63984W        W32389  25.085  39.504   3.287
63985W        W32390  21.625  11.035   0.232
63986W        W32391  15.069   9.130   2.245
63987W        W32392  41.883  19.390   3.154
63988W        W32393  29.856   1.356   1.845
63989W        W32394   7.857  37.076   3.915
63990W        W32395  26.556   2.186   2.850
63991W        W32396  10.177   2.712   3.276
63992W        W32397   9.077  20.684   4.157
63993W        W32398  44.616  19.617  11.491
63994W        W32399  37.432   4.947  11.110
63995W        W32400  38.003  28.411  10.558
63996W        W32401  14.767   1.529  11.173
63997W        W32402   2.445   1.286   4.502
63998W        W32403  13.533  32.393   0.496
63999W        W32404  10.963  31.961  14.010
64000W        W32405  42.759  42.292   3.172
64001W        W32406  34.247  33.051  12.966
64002W        W32407  17.713   6.814   9.778
64003W        W32408  37.924  35.464  14.949
64004W        W32409  14.736  37.739  12.569
64005W        W32410  31.351  23.985  14.406
64006W        W32411  15.233  28.890  11.380
64007W        W32412  25.197  41.430   4.560
64008W        W32413  30.347  13.380  13.012
64009W        W32414  30.214  12.132  13.915
64010W        W32415  33.446  10.363   1.785
64011W        W32416  32.628  11.354   3.952
64012W        W32417  14.804  38.901  11.201
64013W        W32418  41.798  27.707  10.698
64014W        W32419  35.144  17.679   2.766
64015W        W32420  14.208  21.703  11.559
64016W        W32421   7.371  14.540   1.851
64017W        W32422  23.147  43.644   1.748
64018W        W32423  35.419  42.983  10.371
64019W        W32424  36.080  43.462  10.703
64020W        W32425  37.645  42.379  12.808
64021W        W32426   9.577   6.776  12.338
64022W        W32427  27.124   5.165   1.444
64023W        W32428  30.870  31.072  14.985
64024W        W32429  16.188  11.577   2.459
64025W        W32430  22.387  11.350   3.715
64026W        W32431  26.364  17.847   0.302
64027W        W32432  19.323  13.705  12.929
64028W        W32433  39.583   6.970  12.855
64029W        W32434  24.123  19.472   0.063
64030W        W32435  20.534  33.921   2.574
64031W        W32436  33.564  22.174  11.955
64032W        W32437  22.576  37.413  11.156
64033W        W32438  24.447  39.297   1.038
64034W        W32439  30.211   4.352  12.062
64035W        W32440  25.794  19.736   2.657
64036W        W32441  24.321   9.189  11.566
64037W        W32442  42.802  40.458   0.408
64038W        W32443   8.659   7.898  13.369
64039W        W32444  31.944  30.484   4.719
64040W        W32445  11.869  34.287   3.638
64041W        W32446  39.754  11.846   1.370
64042W        W32447  20.728  41.143   4.272
64043W        W32448  43.027  31.377   2.705
64044W        W32449  19.123   7.399   4.549
64045W        W32450  11.729  24.507   2.795
64046W        W32451  25.550  15.852  14.407
64047W        W32452  30.906  13.099   2.269
64048W        W32453  19.073  16.280  10.651
64049W        W32454  41.987   5.823   9.987
64050W        W32455  12.808  18.276  14.531
64051W        W32456  29.098  34.792  14.411
64052W        W32457  27.603  41.905   4.579
64053W        W32458   5.479  29.529   4.292
64054W        W32459  21.537  29.881  14.874
64055W        W32460  24.120   5.464  11.228
64056W        W32461  39.847  36.393   4.134
64057W        W32462  22.373   2.802  13.870
64058W        W32463  17.332  16.110   3.261
64059W        W32464  24.478  34.760  10.350
64060W        W32465  27.254  22.933   0.247
64061W        W32466  29.395   6.075  11.891
64062W        W32467  16.913  42.311  13.281
64063W        W32468   1.677  43.990   3.739
64064W        W32469  10.263   2.940  11.103
64065W        W32470  16.576  18.997   4.782
64066W        W32471  13.136  31.798   2.399
64067W        W32472  10.343  36.953   3.085
64068W        W32473  39.412  28.251   3.658
64069W        W32474  16.065  17.830   4.678
64070W        W32475  11.952   5.898   0.948
64071W        W32476  34.525  26.886  11.241
64072W        W32477  22.774  37.911   2.822
64073W        W32478  38.112  36.862   0.896
64074W        W32479   1.286  20.953  14.431
64075W        W32480  39.479   0.951  11.082
64076W        W32481  12.806  13.283   1.658
64077W        W32482  11.406  21.483  12.487
64078W        W32483  31.589  27.662  12.039
64079W        W32484  22.967  12.336   2.954
64080W        W32485  40.026   7.137   1.779
64081W        W32486  17.258  40.680   3.315
64082W        W32487   6.143  27.373  13.557
64083W        W32488  17.102  16.046  11.599
64084W        W32489  43.981  28.729   2.235
64085W        W32490  29.925  17.683  12.102
64086W        W32491   6.825  16.637  11.919
64087W        W32492  28.279  37.985   4.686
64088W        W32493  30.410  27.524   3.414
64089W        W32494  44.852  12.790  14.742
64090W        W32495  19.149  44.533   4.337
64091W        W32496  38.539  26.947   1.414
64092W        W32497  36.983  44.751   2.897
64093W        W32498   5.207  37.316   3.356
64094W        W32499  12.671  43.028  11.550
64095W        W32500  38.086  22.382   2.303
64096W        W32501   5.791  21.629   4.328
64097W        W32502  12.842  41.319   0.258
64098W        W32503  38.325   6.943   2.500
64099W        W32504  33.477  37.266  11.582
64100W        W32505  23.186   8.659  14.558
64101W        W32506   8.225   0.432   2.049
64102W        W32507  28.561  18.702  12.584
64103W        W32508   8.196   3.951   4.741
64104W        W32509  34.061  12.563   0.821
64105W        W32510  43.584  15.091  13.040
64106W        W32511  30.548   9.410   2.707
64107W        W32512  24.489  15.418   4.127
64108W        W32513  37.117  35.911  14.623
64109W        W32514  24.971  38.501   1.699
64110W        W32515  33.431   8.200   0.222
64111W        W32516  35.365  34.063   0.014
64112W        W32517  31.716  29.638   5.097
64113W        W32518  31.248  38.816   1.882
64114W        W32519  44.321  38.232  12.029
64115W        W32520   3.444  15.202  12.396
64116W        W32521   4.965  23.794  13.045
64117W        W32522  23.596  18.783   3.686
64118W        W32523  26.961  29.567  12.307
64119W        W32524  44.881  25.126   3.708
64120W        W32525  37.470  14.729   3.890
64121W        W32526  21.086  25.614  14.968
64122W        W32527   3.979  25.644   0.806
64123W        W32528   5.728  11.523   1.253
64124W        W32529  17.207  11.783   1.763
64125W        W32530  25.974  29.163  13.107
64126W        W32531   0.865  19.714   1.763
64127W        W32532  29.906  28.905  11.025
64128W        W32533  31.290  13.997   0.192
64129W        W32534  17.860  14.864  14.742
64130W        W32535  10.118  22.227   2.794
64131W        W32536  24.187   0.900   2.661
64132W        W32537  38.079  23.734  12.655
64133W        W32538  26.284  26.942   0.867
64134W        W32539  32.657   4.678  12.403
64135W        W32540  36.916  28.540  11.437
64136W        W32541  35.692  20.435  10.588
64137W        W32542   0.373  10.736  13.182
64138W        W32543   0.306  37.910  10.845
64139W        W32544  35.553  19.799  11.648
64140W        W32545  22.845  29.825   3.729
64141W        W32546  11.768   2.927   1.482
64142W        W32547  21.007   2.494  11.041
64143W        W32548  33.212  32.430  11.134
64144W        W32549   7.716  25.459   3.697
64145W        W32550  20.539  18.405  11.068
64146W        W32551   4.400  30.467   3.337
64147W        W32552  12.631  35.492  12.057
64148W        W32553   2.215   7.552  10.992
64149W        W32554  25.865   5.812  11.663
64150W        W32555  15.263  15.565  11.841
64151W        W32556   9.781  29.373   1.172
64152W        W32557  27.053  43.023  12.891
64153W        W32558  29.123  20.488   2.825
64154W        W32559  27.658  22.116   1.389
64155W        W32560  18.847  27.480  11.112
64156W        W32561   8.004  36.136   0.198
64157W        W32562  39.462  38.055  14.142
64158W        W32563   0.158  22.693  11.033
64159W        W32564   4.384  21.448  13.912
64160W        W32565  11.376  36.947  11.569
64161W        W32566  20.142  18.184  12.858
64162W        W32567  13.711   4.917  10.657
64163W        W32568  32.584  31.869   1.407
64164W        W32569  44.338  18.550   5.038
64165W        W32570  35.200  43.364   1.400
64166W        W32571  24.835   1.354   3.440
64167W        W32572  33.896   7.106   1.312
64168W        W32573  29.480  15.173   3.315
64169W        W32574  26.185   8.628   3.736
64170W        W32575   4.731  19.016   2.654
64171W        W32576  17.119  36.687   1.571
64172W        W32577   6.501   1.786   4.306
64173W        W32578  20.603  13.250  13.828
64174W        W32579  15.765  26.535  10.172
64175W        W32580  43.435   3.644   2.342
64176W        W32581  19.025  31.466  10.977
64177W        W32582   5.923  21.061   1.900
64178W        W32583  24.453   4.017   0.484
64179W        W32584  23.943  27.422  13.890
64180W        W32585  16.762  36.965  12.554
64181W        W32586  42.018  20.580  11.988
64182W        W32587   4.017  41.857   2.819
64183W        W32588  42.566  27.955   4.883
64184W        W32589  16.563  20.095   0.835
64185W        W32590  34.585  11.596   4.136
64186W        W32591  32.654  32.071  10.676
64187W        W32592   7.096  40.342   4.083
64188W        W32593  42.513  44.270   2.439
64189W        W32594  32.411  30.702  10.555
64190W        W32595  32.671   0.725  12.905
64191W        W32596  36.187  11.399  10.766
64192W        W32597  34.133  12.330   2.274
64193W        W32598  32.600  11.342   4.473
64194W        W32599  33.529  18.634   0.404
64195W        W32600  43.272  19.298  12.460
64196W        W32601  34.128   6.143   4.219
64197W        W32602  34.658  20.825  10.469
64198W        W32603  33.691  24.757  10.810
64199W        W32604  36.136  20.486   3.666
64200W        W32605  17.808  37.567  14.238
64201W        W32606  34.392  39.248   4.406
64202W        W32607  12.160  25.188   2.175
64203W        W32608  19.725  25.517  11.687
64204W        W32609  44.476   0.400   3.603
64205W        W32610  38.379  15.053   4.101
64206W        W32611  30.621  10.426   4.133
64207W        W32612   4.677  25.861   0.163
64208W        W32613  20.020   6.480  12.256
64209W        W32614  15.900   6.200   4.169
64210W        W32615  36.820  20.578   4.531
64211W        W32616  26.006   1.615   2.562
64212W        W32617   6.851  17.687  12.477
64213W        W32618  22.527  40.692   1.752
64214W        W32619  17.698  15.244  12.566
64215W        W32620  36.037  12.173   3.188
64216W        W32621  33.071  18.191   4.117
64217W        W32622  38.297   5.331  12.835
64218W        W32623  19.599  20.790   4.565
64219W        W32624  28.126   8.351   4.298
64220W        W32625  31.977  21.682   0.127
64221W        W32626  44.402  15.573  12.873
64222W        W32627  22.969   9.331  11.645
64223W        W32628   8.860  27.152   2.817
64224W        W32629  40.435  41.430  10.926
64225W        W32630  29.627  15.165   0.314
64226W        W32631  40.444   4.224  12.903
64227W        W32632  44.779  24.019  12.583
64228W        W32633   4.496  37.845  10.602
64229W        W32634  39.429  41.422  11.903
64230W        W32635  42.819  29.107   2.236
64231W        W32636  24.586  11.086   2.988
64232W        W32637  40.407  34.662   2.662
64233W        W32638  21.326   8.963  12.001
64234W        W32639  37.820  21.088  14.370
64235W        W32640  22.132  11.327   4.631
64236W        W32641  39.935  28.674   1.836
64237W        W32642   6.949   7.722  14.486
64238W        W32643  12.330  35.442   2.733
64239W        W32644  39.934  13.165   0.210
64240W        W32645  37.902   7.808  13.810
64241W        W32646  24.802  27.632   0.234
64242W        W32647  13.817  35.485  12.079
64243W        W32648  44.994  14.751   3.438
64244W        W32649  28.136   0.372   1.861
64245W        W32650  29.508   7.336   4.636
64246W        W32651   7.713  42.782   0.472
64247W        W32652   3.764  30.539   1.850
64248W        W32653  42.870  27.137   4.613
64249W        W32654  27.467  27.544   3.101
64250W        W32655  19.708  34.856  12.349
64251W        W32656  43.373  11.493   1.204
64252W        W32657  38.745  11.925   1.055
64253W        W32658  14.704  11.881   4.123
64254W        W32659  13.789  25.440  11.528
64255W        W32660  40.910  27.650   2.639
64256W        W32661  19.606  16.852   0.965
64257W        W32662  40.138   7.188   2.739
64258W        W32663  21.550   9.344   4.337
64259W        W32664  43.188  12.907   4.259
64260W        W32665  13.659   9.215  13.190
64261W        W32666   1.374  13.655  10.363
64262W        W32667   3.309   0.110  13.361
64263W        W32668  26.443  19.245   1.369
64264W        W32669   3.248  22.655  14.227
64265W        W32670  30.793  28.567   0.291
64266W        W32671  11.961   7.661   3.570
64267W        W32672  33.414   0.932   2.606
64268W        W32673  41.738   0.319  12.973
64269W        W32674  35.892  25.736  11.435
64270W        W32675   2.128  42.433  14.539
64271W        W32676  26.481  41.839  10.194
64272W        W32677  40.279  12.321  14.306
64273W        W32678  41.627  17.389  11.030
64274W        W32679   8.204   9.275   0.392
64275W        W32680  40.046  23.917  14.530
64276W        W32681   2.244  43.875   4.378
64277W        W32682  32.061  28.377  14.743
64278W        W32683  10.112  19.399  12.825
64279W        W32684   7.779  38.347   4.198
64280W        W32685   3.971   8.271   4.133
64281W        W32686  42.426  32.473   3.657
64282W        W32687  19.588  31.741  13.941
64283W        W32688   9.309  36.965  11.319
64284W        W32689  38.324  25.499  10.696
64285W        W32690  35.921   8.808   3.277
64286W        W32691  40.068   2.798  10.823
64287W        W32692  33.309  41.559  12.007
64288W        W32693  38.491   3.256  12.396
64289W        W32694  23.906  36.059   3.440
64290W        W32695  28.852  15.832  11.753
64291W        W32696  43.195  19.596  11.194
64292W        W32697  17.767  32.381  13.083
64293W        W32698  34.577  32.855  12.122
64294W        W32699  31.090   2.569   1.867
64295W        W32700  22.577  28.378  12.878
64296W        W32701   5.424  22.184   2.776
64297W        W32702  44.597  25.656   0.822
64298W        W32703  18.229  35.892   1.649
64299W        W32704  23.925  19.191   1.815
64300W        W32705  30.087  33.046   3.830
64301W        W32706  39.311  27.716   1.773
64302W        W32707   0.791  18.202   4.682
64303W        W32708   0.102  28.644  13.478
64304W        W32709  39.866  44.336   3.315
64305W        W32710  12.821   4.579   3.687
64306W        W32711  39.632  29.604  12.548
64307W        W32712  17.109  36.205   3.034
64308W        W32713  38.687  27.208  11.223
64309W        W32714   8.358   6.113  14.302
64310W        W32715   8.687  11.793   1.956
64311W        W32716  38.831   2.226   3.336
64312W        W32717  25.398  34.099  11.130
64313W        W32718  42.508  40.010  11.652
64314W        W32719  17.236  40.301   1.627
64315W        W32720   9.216  25.020   3.714
64316W        W32721  24.236  24.578  14.111
64317W        W32722   2.494  35.111  12.892
64318W        W32723   6.649  37.777   2.964
64319W        W32724  22.994  35.776  14.907
64320W        W32725  28.115  15.387   9.828
64321W        W32726  15.236  18.818   0.452
64322W        W32727  13.036  22.204  13.854
64323W        W32728   4.236   5.439  13.035
64324W        W32729  38.055  32.928   0.864
64325W        W32730  20.446  30.623   9.972
64326W        W32731  29.319  25.638   4.949
64327W        W32732  29.635  44.122  10.280
64328W        W32733  30.666   0.974   4.440
64329W        W32734  40.002  27.389   1.372
64330W        W32735   9.752   7.058   4.328
64331W        W32736   7.437  36.097   2.156
64332W        W32737   4.142   3.015   0.999
64333W        W32738  16.599  27.305   2.381
64334W        W32739  37.028  18.190   0.264
64335W        W32740  44.916  33.104   0.454
64336W        W32741  40.057  40.970  13.965
64337W        W32742  26.682  24.392  14.649
64338W        W32743  15.862  20.517  13.578
64339W        W32744   1.978  44.450   3.743
64340W        W32745  24.502  14.916   3.176
64341W        W32746  35.514  39.003  11.147
64342W        W32747   2.473  15.211  11.584
64343W        W32748  11.737  18.849   9.832
64344W        W32749  14.955  17.159   4.313
64345W        W32750  12.668   7.812   4.366
64346W        W32751  21.589  12.924  11.106
64347W        W32752  16.307  22.423   5.006
64348W        W32753   1.343   6.572   3.192
64349W        W32754  17.104  42.802  10.373
64350W        W32755  39.066  15.542  11.592
64351W        W32756  36.702  10.189  11.168
64352W        W32757  44.191  14.025  12.844
64353W        W32758  26.009  31.510  12.839
64354W        W32759  24.547  19.664  10.486
64355W        W32760  14.824   4.134  12.551
64356W        W32761  41.301   5.851   3.546
64357W        W32762  22.588  37.768   3.322
64358W        W32763  22.213  10.661  11.919
64359W        W32764  34.663  19.132   3.599
64360W        W32765  24.151   4.251  12.860
64361W        W32766  11.290   3.411   0.854
64362W        W32767  42.022  43.898  13.314
64363W        W32768   3.432   3.276   0.882
64364W        W32769   3.873  35.979   1.394
64365W        W32770  33.002  36.868  13.819
64366W        W32771  35.747  19.479  12.026
64367W        W32772  44.506  35.829   3.860
64368W        W32773   5.404  36.120   0.798
64369W        W32774  17.080   0.292  13.546
64370W        W32775   4.393   2.052   3.087
64371W        W32776  37.340  39.905  13.647
64372W        W32777  14.300  10.114  14.797
64373W        W32778  18.343  24.580   0.544
64374W        W32779  22.910  17.036  12.029
64375W        W32780  29.958   0.025  11.113
64376W        W32781  22.889  23.303   2.431
64377W        W32782  25.416  40.841   2.665
64378W        W32783  22.016  15.130   4.495
64379W        W32784  13.791   3.280  12.036
64380W        W32785  43.890   8.095   1.769
64381W        W32786  23.485   9.257   3.076
64382W        W32787  29.972  33.568   3.734
64383W        W32788  29.289  14.680  13.304
64384W        W32789  27.256   5.286   3.438
64385W        W32790  41.250  10.288  12.943
64386W        W32791   1.465   2.360  12.088
64387W        W32792  23.791  44.411  12.024
64388W        W32793  10.219  14.693   4.116
64389W        W32794  27.007  28.379  13.956
64390W        W32795  44.158  36.768  11.861
64391W        W32796  13.225  18.780  14.933
64392W        W32797  16.523  33.518   0.946
64393W        W32798  35.095  37.750  12.172
64394W        W32799   3.208  33.899  14.313
64395W        W32800  34.873  43.612   4.506
64396W        W32801  30.182   0.813   4.446
64397W        W32802   8.010  10.736  12.369
64398W        W32803   8.848  32.357  13.303
64399W        W32804  41.922   9.180   3.987
64400W        W32805   9.383   5.718   3.242
64401W        W32806  44.260  32.497  11.162
64402W        W32807  27.142  10.399  12.469
64403W        W32808  10.268  39.379  10.662
64404W        W32809  22.296   8.439   2.748
64405W        W32810  29.917   8.492  13.871
64406W        W32811  41.238  19.128   4.512
64407W        W32812  11.418   0.817   4.040
64408W        W32813   8.163  11.940   4.540
64409W        W32814  39.107   2.472  13.741
64410W        W32815  43.736  34.984  10.740
64411W        W32816  33.385  11.862  10.747
64412W        W32817  18.976  28.494   4.893
64413W        W32818  18.051   8.968   2.744
64414W        W32819  36.792   4.676  11.186
64415W        W32820  13.364  36.412   1.444
64416W        W32821  22.150  18.748   3.704
64417W        W32822  43.880  36.586  14.448
64418W        W32823   0.452   8.865  12.541
64419W        W32824  14.790  33.352   1.822
64420W        W32825  20.449  25.887  12.118
64421W        W32826  40.068   9.697   0.130
64422W        W32827   4.855  27.930   2.250
64423W        W32828  32.506   9.645  13.613
64424W        W32829  38.380  18.034  11.147
64425W        W32830  20.923  34.954   4.229
64426W        W32831  37.776  22.588   4.102
64427W        W32832  40.447   3.928  12.487
64428W        W32833  25.859  18.005   3.310
64429W        W32834   6.712  10.292  14.115
64430W        W32835  20.882  41.315   2.319
64431W        W32836  19.107  18.294  14.384
64432W        W32837   2.576   7.719   1.532
64433W        W32838  12.317  25.917  11.629
64434W        W32839  38.539  40.298  11.588
64435W        W32840  34.446  31.638  10.685
64436W        W32841  31.857   5.960   3.693
64437W        W32842  41.387  35.334  13.593
64438W        W32843   9.256  28.104  14.348
64439W        W32844  24.285  11.632   1.476
64440W        W32845  35.536   1.466   3.069
64441W        W32846  19.188  36.029   1.153
64442W        W32847  15.708  37.021  12.574
64443W        W32848   6.598  38.385   3.902
64444W        W32849   3.700  40.931  11.985
64445W        W32850   2.995  17.154  10.362
64446W        W32851  25.673  16.677   0.347
64447W        W32852  26.458  44.001   2.808
64448W        W32853  40.404  30.879  13.484
64449W        W32854  35.791   2.820   2.802
64450W        W32855   6.986  38.994  12.769
64451W        W32856  14.793  39.421   0.440
64452W        W32857  10.510  17.089  14.260
64453W        W32858  39.018  43.477   2.233
64454W        W32859  13.793  33.032   2.360
64455W        W32860   7.977  36.634  12.065
64456W        W32861  42.325   4.446  12.852
64457W        W32862   1.750   6.283   0.009
64458W        W32863  34.405  16.743  14.819
64459W        W32864  12.095  18.229  14.813
64460W        W32865   4.933  19.771  10.004
64461W        W32866  36.626   3.373  10.607
64462W        W32867  37.552   5.909   2.241
64463W        W32868  10.784  40.465  11.973
64464W        W32869  38.940  32.049   2.176
64465W        W32870  37.201  25.248   1.796
64466W        W32871   8.595  26.945   2.253
64467W        W32872  19.578  23.584  14.519
64468W        W32873  24.755  26.454   2.923
64469W        W32874  26.663  41.463  10.498
64470W        W32875   6.840  10.037  10.575
64471W        W32876   1.807   8.175   1.787
64472W        W32877   2.282  30.468  11.039
64473W        W32878   4.321   8.945  13.998
64474W        W32879  41.269  26.767   2.718
64475W        W32880  36.903  31.931   1.724
64476W        W32881  22.151   8.841  14.358
64477W        W32882  34.507  38.033  11.425
64478W        W32883   2.341  43.852   3.002
64479W        W32884  11.639   4.216  11.897
64480W        W32885  36.019  12.140  13.511
64481W        W32886   2.890  30.869   3.125
64482W        W32887  29.968   4.834  12.523
64483W        W32888  27.699  22.546  14.991
64484W        W32889  16.102  30.493   1.384
64485W        W32890  30.011  15.581   4.517
64486W        W32891  11.643   2.454   3.152
64487W        W32892  24.182   0.551   1.839
64488W        W32893  29.913   8.804   3.343
64489W        W32894  16.559  30.184   0.734
64490W        W32895  28.939   3.179  10.675
64491W        W32896  20.732  33.277  13.760
64492W        W32897  24.923   2.820   1.674
64493W        W32898  24.612  26.417   4.988
64494W        W32899  29.396   0.708  14.895
64495W        W32900  28.677   3.507  14.809
64496W        W32901  29.881  34.978  10.718
64497W        W32902  21.035   6.508  10.726
64498W        W32903  13.665  34.704  13.572
64499W        W32904  29.974  44.478   3.240
64500W        W32905  16.156  20.119   3.472
64501W        W32906  44.852  17.448   1.880
64502W        W32907  22.958  35.980  10.478
64503W        W32908   9.257  42.562  14.811
64504W        W32909  29.958   6.065   0.349
64505W        W32910   6.304  41.208   1.515
64506W        W32911  18.056  40.960   1.426
64507W        W32912  20.611  36.286  13.417
64508W        W32913   1.035  36.849   0.386
64509W        W32914  35.232  11.613  14.859
64510W        W32915  25.110   1.514  11.076
64511W        W32916   6.718   8.513  14.799
64512W        W32917   5.896  31.954  11.162
64513W        W32918  31.920  16.806   3.609
64514W        W32919  38.472  38.529   0.922
64515W        W32920  11.037  17.774   2.365
64516W        W32921  10.376  14.751  10.647
64517W        W32922  36.453  11.916   4.543
64518W        W32923   3.203  31.812  11.073
64519W        W32924  43.070  19.624   2.638
64520W        W32925  15.125  26.792   1.069
64521W        W32926   9.207   3.778  14.906
64522W        W32927  41.875  22.082   0.013
64523W        W32928   1.792  32.386   2.913
64524W        W32929  13.758   0.352   4.199
64525W        W32930  41.306  29.922   0.184
64526W        W32931  28.893  32.329  12.512
64527W        W32932  17.202   3.842   2.757
64528W        W32933  13.296   4.013  11.038
64529W        W32934  38.097  11.275  10.993
64530W        W32935  29.439  27.525   0.342
64531W        W32936  29.014  30.088   4.539
64532W        W32937  32.436  21.699  14.762
64533W        W32938  41.193  21.647  13.053
64534W        W32939  37.196   3.760   3.312
64535W        W32940   5.931  24.410   2.312
64536W        W32941  23.684  32.325   1.202
64537W        W32942  35.897  26.240   0.233
64538W        W32943  40.414  39.989  12.906
64539W        W32944  25.533  39.669  11.028
64540W        W32945  16.611   2.281   1.168
64541W        W32946  19.859  29.023   4.298
64542W        W32947  39.563  15.132   2.738
64543W        W32948  27.589  32.647  14.002
64544W        W32949  41.398  18.258  14.511
64545W        W32950  35.356   2.795   0.491
64546W        W32951  30.406  27.208  14.507
64547W        W32952   3.978  36.287  11.509
64548W        W32953  31.648  24.205  12.913
64549W        W32954  34.132   0.899   4.176
64550W        W32955  14.200  13.747   1.666
64551W        W32956  40.396  27.454   2.608
64552W        W32957  33.347  33.585  14.231
64553W        W32958  13.609  19.789  11.057
64554W        W32959  11.547   2.920   0.993
64555W        W32960  27.052  15.175  10.812
64556W        W32961  35.893   5.261   4.371
64557W        W32962  37.690   9.453   0.768
64558W        W32963  37.820   5.797  13.920
64559W        W32964  24.625   3.430  13.068
64560W        W32965   3.509  22.883   0.348
64561W        W32966  16.120  16.479   1.773
64562W        W32967   8.054  30.546  11.591
64563W        W32968   2.363  15.762  11.442
64564W        W32969  43.926  35.851  10.686
64565W        W32970  18.292  12.611  10.742
64566W        W32971  35.675  10.190  14.315
64567W        W32972  35.118  39.726   2.299
64568W        W32973  12.753  16.295  13.530
64569W        W32974  22.828  19.195   4.159
64570W        W32975  22.230  12.057  13.798
64571W        W32976  26.404  42.092   1.737
64572W        W32977  18.235  37.139   1.179
64573W        W32978  23.026  10.374  13.409
64574W        W32979  43.256  36.450   0.323
64575W        W32980  35.966  21.563   1.273
64576W        W32981  13.408  12.670  11.157
64577W        W32982  43.838  38.956   4.569
64578W        W32983  44.963  22.403   1.354
64579W        W32984  34.924  14.105   0.819
64580W        W32985  21.371  11.392  14.932
64581W        W32986  22.509  29.720   4.105
64582W        W32987  42.590   3.212  14.705
64583W        W32988  44.965   7.006  14.475
64584W        W32989  34.136  21.700   4.131
64585W        W32990  16.074  18.193   5.096
64586W        W32991  38.108  10.230  11.333
64587W        W32992   3.155  37.165   2.438
64588W        W32993  37.885  22.231   2.875
64589W        W32994  37.280   7.046  11.118
64590W        W32995   8.896  36.506  14.351
64591W        W32996   4.428  40.839  12.494
64592W        W32997   4.879   8.740   3.135
64593W        W32998   9.275  42.565   2.280
64594W        W32999  10.870  38.110  14.407
64595W        W33000   9.226   6.965   4.826
64596W        W33001  25.164   3.691  13.938
64597W        W33002  16.614  38.866   3.656
64598W        W33003  34.790  19.286   1.728
64599W        W33004  12.690  16.682   2.193
64600W        W33005  24.646   4.401  12.916
64601W        W33006  30.872  21.962   2.346
64602W        W33007  18.313  31.103   2.897
64603W        W33008   1.881  18.413  14.178
64604W        W33009  41.493  27.950   4.139
64605W        W33010   4.835  30.960   0.525
64606W        W33011  29.165  11.582  13.382
64607W        W33012  10.500   1.784  11.568
64608W        W33013  27.828  34.076   0.709
64609W        W33014  31.973   4.115   5.039
64610W        W33015  29.712   9.808  14.494
64611W        W33016  21.277   7.861  12.089
64612W        W33017  15.003  39.475  14.398
64613W        W33018  13.611  34.626   1.736
64614W        W33019  12.301  18.707  14.751
64615W        W33020  21.977  11.304  12.369
64616W        W33021  32.323   9.665  13.134
64617W        W33022  15.282   4.223   3.643
64618W        W33023   8.869  28.542  13.353
64619W        W33024  41.702   3.688   1.043
64620W        W33025   3.474  15.339  10.417
64621W        W33026  42.251   8.244  14.310
64622W        W33027   7.376  32.535   1.146
64623W        W33028  43.368  12.535   0.047
64624W        W33029  17.303  26.095  14.068
64625W        W33030  37.077   2.372  12.099
64626W        W33031  34.018  39.561  14.425
64627W        W33032  19.254  34.974   1.352
64628W        W33033  41.456   8.168  10.566
64629W        W33034  23.730  21.915   0.579
64630W        W33035  37.401   9.546   1.188
64631W        W33036  31.152  27.211   2.965
64632W        W33037  28.197  40.808   3.281
64633W        W33038  12.788  25.498  11.133
64634W        W33039  36.300  23.773  13.345
64635W        W33040  36.265   7.412  10.473
64636W        W33041  32.812  34.177  11.787
64637W        W33042  30.552   5.470   2.484
64638W        W33043  40.044   0.969   0.796
64639W        W33044  20.610  10.134  11.396
64640W        W33045  44.412  24.072   4.516
64641W        W33046  44.953  30.744   4.906
64642W        W33047  18.513  34.855   1.121
64643W        W33048   7.327   3.778   1.763
64644W        W33049  22.028  29.884   4.009
64645W        W33050  43.200  41.235   1.756
64646W        W33051   6.321  22.935   2.152
64647W        W33052  10.685  18.160   4.885
64648W        W33053  42.007   5.100   3.766
64649W        W33054  43.770   5.022  11.234
64650W        W33055  19.110  22.430  12.955
64651W        W33056  10.050   3.799  11.807
64652W        W33057  40.873  35.935   4.612
64653W        W33058  10.647  19.977   1.694
64654W        W33059  26.473  34.544  13.251
64655W        W33060  19.001   0.361   2.304
64656W        W33061  29.670  10.716  12.567
64657W        W33062  20.270   7.738  13.191
64658W        W33063  33.799  37.979  12.536
64659W        W33064  44.448  37.822  13.355
64660W        W33065  12.113  23.281  13.900
64661W        W33066  14.871  40.307  10.312
64662W        W33067   7.239  16.123  10.811
64663W        W33068  18.082  38.555   2.730
64664W        W33069   0.259  35.686   3.760
64665W        W33070  10.653  28.232   1.730
64666W        W33071  43.665   3.844   0.410
64667W        W33072   1.448  35.123  11.420
64668W        W33073  21.754  43.787  13.530
64669W        W33074  28.708  38.725  13.075
64670W        W33075  28.504   3.861   3.258
64671W        W33076  28.978  11.804  13.796
64672W        W33077  34.547  11.402  14.520
64673W        W33078   6.288  11.848  12.533
64674W        W33079  43.037  31.081   2.261
64675W        W33080  11.390  42.406  13.693
64676W        W33081  20.137  28.444   0.224
64677W        W33082  34.340  29.524   1.714
64678W        W33083  31.559  39.775   0.661
64679W        W33084   2.455  24.042   1.795
64680W        W33085  13.031   3.261  11.299
64681W        W33086  17.716  36.612   2.850
64682W        W33087  27.766  10.684   2.203
64683W        W33088  38.069  22.807   3.586
64684W        W33089  36.126   9.772  11.585
64685W        W33090  29.622  27.265  12.228
64686W        W33091  44.001  28.700  13.357
64687W        W33092  24.129  32.588  12.536
64688W        W33093  26.834  34.558  10.771
64689W        W33094   2.044   3.919  13.367
64690W        W33095  35.911  18.758   2.108
64691W        W33096  37.663   9.071   0.433
64692W        W33097  24.498  13.589   3.720
64693W        W33098  12.817  23.010   1.693
64694W        W33099  39.991  13.435  13.394
64695W        W33100  19.044  30.123   4.593
64696W        W33101  14.571   8.400  11.059
64697W        W33102  40.083  22.448  10.899
64698W        W33103  29.730  42.009  11.496
64699W        W33104  36.515  24.312   1.624
64700W        W33105  13.337  34.907  10.735
64701W        W33106  42.078  15.713  12.488
64702W        W33107   2.006  27.692   0.754
64703W        W33108  32.715  22.671  11.863
64704W        W33109  11.278  25.458   1.849
64705W        W33110  16.121  12.351  12.582
64706W        W33111  17.902   4.822   4.213
64707W        W33112  44.400  33.804   4.040
64708W        W33113  13.305  33.366   3.991
64709W        W33114  37.358  29.869  14.023
64710W        W33115  17.113  36.346   3.626
64711W        W33116  44.426  23.547   2.588
64712W        W33117  32.043   4.953   2.460
64713W        W33118  44.427  17.223  14.733
64714W        W33119  28.666  10.702  13.752
64715W        W33120  32.963  31.621   1.148
64716W        W33121  41.858  26.450   0.369
64717W        W33122   3.296  13.433   0.721
64718W        W33123  44.464  24.520   4.264
64719W        W33124  32.733   6.386   3.733
64720W        W33125  21.242   7.245  14.770
64721W        W33126  34.812  33.238   2.727
64722W        W33127  20.641  27.164  10.836
64723W        W33128   6.965  22.135   0.795
64724W        W33129  28.484  10.723   3.705
64725W        W33130  37.546   6.336   1.895
64726W        W33131  44.320  36.392  13.663
64727W        W33132  22.061  43.865   1.524
64728W        W33133  29.935  42.768  14.795
64729W        W33134  15.257   2.331   0.007
64730W        W33135  43.574  38.266  13.026
64731W        W33136  14.807   9.199   4.629
64732W        W33137  10.340  33.461  11.205
64733W        W33138  33.977   7.774   3.396
64734W        W33139  22.639   7.881   4.868
64735W        W33140  38.605  17.031  11.822
64736W        W33141  25.634  25.115   2.645
64737W        W33142  33.087  16.062  11.489
64738W        W33143   0.209  33.405   3.641
64739W        W33144  27.888  39.259   9.676
64740W        W33145  24.715   2.798   2.939
64741W        W33146  35.025  41.389  12.566
64742W        W33147  29.145   7.653  13.506
64743W        W33148   1.398   8.916  12.504
64744W        W33149   8.837   6.053   3.909
64745W        W33150  33.376  27.709  12.515
64746W        W33151  33.210  28.097   2.951
64747W        W33152  10.668   1.747   1.688
64748W        W33153  37.923  26.558  13.249
64749W        W33154  28.195  29.500  13.747
64750W        W33155  12.754  17.535   0.807
64751W        W33156   7.195  12.444  10.782
64752W        W33157  11.150  13.468  10.991
64753W        W33158  38.147   6.711   0.646
64754W        W33159  13.281  28.150   5.091
64755W        W33160  11.236   3.255  13.506
64756W        W33161  38.117  12.790  10.980
64757W        W33162  11.151  33.584  12.013
64758W        W33163  34.288  22.109  13.714
64759W        W33164   0.145   5.865   4.872
64760W        W33165   4.677  41.508  14.896
64761W        W33166  32.294   4.310   2.439
64762W        W33167  40.839  24.942  11.902
64763W        W33168  12.275  34.123  13.351
64764W        W33169  20.025  43.041   0.313
64765W        W33170  16.704   7.632   1.243
64766W        W33171   4.384  10.278   4.807
64767W        W33172   5.379  23.219  10.577
64768W        W33173  19.506  40.402   1.393
64769W        W33174   6.452  12.799   2.993
64770W        W33175  37.968  41.514  12.028
64771W        W33176  12.822  15.542   0.146
64772W        W33177  38.419  26.098   4.179
64773W        W33178  37.580   3.206  10.445
64774W        W33179  29.371  10.715   2.270
64775W        W33180   2.254  20.618  13.835
64776W        W33181  14.280   2.007  10.994
64777W        W33182  14.285  17.072  11.594
64778W        W33183  18.608  25.280  12.884
64779W        W33184  36.806  11.712  14.951
64780W        W33185   6.642  42.344   1.984
64781W        W33186  23.989  25.256  12.546
64782W        W33187  26.484   3.621  13.433
64783W        W33188   3.800   7.243  12.109
64784W        W33189  29.425  30.098   2.015
64785W        W33190   9.227  10.160  12.384
64786W        W33191  28.267  41.331   1.837
64787W        W33192  11.583   6.509  11.568
64788W        W33193  35.506  17.181   4.199
64789W        W33194  35.090  19.610   1.419
64790W        W33195  32.387  31.951  14.451
64791W        W33196  12.522  16.986  10.187
64792W        W33197   1.903  11.900  14.654
64793W        W33198  34.102  30.188   4.872
64794W        W33199  41.791  24.720   4.032
64795W        W33200  12.571  42.953  13.462
64796W        W33201  12.203  29.105  11.352
64797W        W33202  39.917  40.166  12.998
64798W        W33203  33.157  25.644  12.890
64799W        W33204  31.005   9.967   2.301
64800W        W33205  21.726  44.259  11.994
64801W        W33206  19.889  40.167  11.157
64802W        W33207  28.502  22.583   4.648
64803W        W33208  44.322  26.183   1.900
64804W        W33209   5.795  44.972  10.475
64805W        W33210  25.617   5.697  14.447
64806W        W33211   8.648   9.093   0.153
64807W        W33212  33.549  36.470   1.234
64808W        W33213  43.132  23.061  13.999
64809W        W33214  17.516  17.550  11.158
64810W        W33215  42.560   3.795  11.113
64811W        W33216  22.339   4.828   3.049
64812W        W33217  43.350  27.952  11.603
64813W        W33218  14.717  41.492   1.734
64814W        W33219  20.061  25.072   1.285
64815W        W33220  20.060  28.977   2.104
64816W        W33221   4.963   2.180  10.116
64817W        W33222  28.513  44.350   4.221
64818W        W33223  11.975   3.497  14.718
64819W        W33224  24.229  21.733   0.415
64820W        W33225  13.202  20.031   0.325
64821W        W33226  30.039  41.683   3.329
64822W        W33227  16.091  42.491  13.788
64823W        W33228  32.619  37.243   3.917
64824W        W33229  32.602  21.336  11.879
64825W        W33230  18.149  19.802   2.240
64826W        W33231   0.250  37.509  12.113
64827W        W33232  39.622  28.906   3.277
64828W        W33233  39.790  40.662  13.006
64829W        W33234   8.302   6.589  10.694
64830W        W33235  28.651  44.781   2.969
64831W        W33236  22.205  26.896  13.516
64832W        W33237   5.611   8.818  10.689
64833W        W33238  17.164   7.165  10.929
64834W        W33239   0.249  14.865   0.305
64835W        W33240  13.763  23.101  14.961
64836W        W33241  35.249   5.250   2.748
64837W        W33242  21.526  22.789   2.621
64838W        W33243  31.095  27.074   1.165
64839W        W33244  22.733  28.031  11.926
64840W        W33245  34.349  12.247  11.364
64841W        W33246  22.628  27.526   2.899
64842W        W33247  41.412  23.568   0.965
64843W        W33248  19.625  22.067   1.176
64844W        W33249  11.251  33.447  13.306
64845W        W33250  34.307  44.184   3.637
64846W        W33251   1.542  37.522   4.098
64847W        W33252   7.746  39.418  14.693
64848W        W33253  22.152  15.610   3.721
64849W        W33254   9.171  43.807   4.087
64850W        W33255  18.633  33.329   2.459
64851W        W33256  31.997  44.108  12.636
64852W        W33257  34.570  31.506  14.025
64853W        W33258  39.498   4.717  13.715
64854W        W33259  32.417  40.590  10.631
64855W        W33260  12.596  20.514  11.145
64856W        W33261  30.550  35.076   3.185
64857W        W33262  35.048  18.318   2.836
64858W        W33263  20.368  25.144  11.550
64859W        W33264  27.491  16.285  11.544
64860W        W33265  19.231  42.052  11.842
64861W        W33266  24.462  26.463  11.161
64862W        W33267  35.982  25.088  12.992
64863W        W33268  24.253  19.317  12.975
64864W        W33269  38.041  37.070  14.137
64865W        W33270  11.593  43.932  14.850
64866W        W33271  38.557  28.046   1.379
64867W        W33272  15.279  18.426   3.599
64868W        W33273  41.472  41.527   2.123
64869W        W33274  22.436  16.386   3.224
64870W        W33275  41.409   6.468   1.277
64871W        W33276  43.171  30.137  12.910
64872W        W33277  30.710   7.468  11.089
64873W        W33278  34.249  14.589   4.053
64874W        W33279  19.145  36.833  12.974
64875W        W33280  10.463  21.163   4.264
64876W        W33281  37.078   4.686   2.286
64877W        W33282  12.683  30.580   4.745
64878W        W33283  12.868  30.963  12.917
64879W        W33284  20.525  43.793   0.267
64880W        W33285   2.268  37.171   0.906
64881W        W33286  24.967   0.010  14.847
64882W        W33287   6.057  41.411  14.250
64883W        W33288  26.724  44.019  11.622
64884W        W33289   4.431   5.686  10.200
64885W        W33290   2.425  11.721  14.453
64886W        W33291  15.547  28.766  12.666
64887W        W33292  35.184  19.775  11.220
64888W        W33293   1.712  18.039   4.667
64889W        W33294  39.350  21.130  14.746
64890W        W33295   1.323  39.418   1.763
64891W        W33296  16.501   8.655  11.684
64892W        W33297  34.582  36.429  12.229
64893W        W33298   6.849  11.463   2.328
64894W        W33299  16.855  25.894   1.271
64895W        W33300  35.353  26.721  13.511
64896W        W33301  33.594   4.380   0.554
64897W        W33302  34.446  37.848   3.500
64898W        W33303  41.957  33.440   3.229
64899W        W33304  18.081   6.147   1.706
64900W        W33305  38.335   5.726   2.686
64901W        W33306  41.891  39.290   0.805
64902W        W33307   8.813  24.901   4.204
64903W        W33308  40.386  35.006   4.505
64904W        W33309  33.968  11.163   4.651
64905W        W33310   2.819   3.738  12.962
64906W        W33311  31.298  44.941   1.356
64907W        W33312   3.685   7.217   2.703
64908W        W33313  16.624  41.093   1.401
64909W        W33314  38.069  30.932  11.677
64910W        W33315  22.756   5.266   2.974
64911W        W33316  30.952  11.707   2.928
64912W        W33317  44.711  40.365  11.621
64913W        W33318   2.959  17.006   1.324
64914W        W33319  28.281  33.339   0.317
64915W        W33320  29.018  29.404   2.392
64916W        W33321  36.649  39.782   0.329
64917W        W33322  16.559   2.359   1.665
64918W        W33323  25.256  14.807   3.618
64919W        W33324  13.325  10.174   2.329
64920W        W33325  20.695   1.677  13.910
64921W        W33326  37.406  32.703  13.632
64922W        W33327  44.840  29.965  14.387
64923W        W33328  15.563   1.988   4.181
64924W        W33329   5.707  18.834   2.748
64925W        W33330   6.788  33.617  13.917
64926W        W33331  26.954   0.053  11.237
64927W        W33332  43.831   7.344   1.059
64928W        W33333  32.015  23.876   3.046
64929W        W33334  13.757  33.563  11.481
64930W        W33335  30.613  29.606   4.198
64931W        W33336  30.337   6.890  14.325
64932W        W33337  34.862   6.805  12.850
64933W        W33338  10.423  22.983   3.714
64934W        W33339  17.420  43.554  11.215
64935W        W33340  24.573  19.218  11.242
64936W        W33341  22.378  18.745  12.194
64937W        W33342  10.125  43.502   1.672
64938W        W33343  33.230  12.617   3.370
64939W        W33344  30.944  14.744   1.397
64940W        W33345  44.000  19.988   2.813
64941W        W33346  33.005  30.460  11.185
64942W        W33347  17.080  16.574  11.585
64943W        W33348  40.933  29.629   1.408
64944W        W33349  32.316  40.199  14.537
64945W        W33350  31.937  31.469  13.221
64946W        W33351  10.917  43.947  13.299
64947W        W33352  39.783   9.297  12.857
64948W        W33353  12.319   0.924  12.073
64949W        W33354  44.162   9.777  13.902
64950W        W33355  18.189  11.647   1.982
64951W        W33356   2.464  13.853  12.511
64952W        W33357  44.744   8.763  12.040
64953W        W33358   8.464  11.352   3.215
64954W        W33359  41.817  36.201   3.640
64955W        W33360  28.939  16.526   2.003
64956W        W33361   4.194  23.193   1.235
64957W        W33362  10.011  31.048   4.506
64958W        W33363  10.317  32.693  13.254
64959W        W33364   1.650  36.183  12.007
64960W        W33365  29.147  26.211   3.795
64961W        W33366   8.187  32.797   0.352
64962W        W33367   1.438  23.426  11.142
64963W        W33368  31.121  10.849  10.741
64964W        W33369  28.735  32.508  13.527
64965W        W33370   3.053  15.576  12.482
64966W        W33371   1.400  39.415  10.857
64967W        W33372   7.138  15.276   5.173
64968W        W33373  34.550  23.743   0.569
64969W        W33374  21.106   9.793  12.067
64970W        W33375  24.027   6.742   2.454
64971W        W33376  30.486  13.682  14.325
64972W        W33377  29.670  30.384  12.589
64973W        W33378   8.208  20.776  13.950
64974W        W33379  36.820  42.996   2.225
64975W        W33380   4.886   5.955   3.693
64976W        W33381  28.014  28.862  10.855
64977W        W33382  40.776  10.257  10.707
64978W        W33383  33.887  29.690  11.569
64979W        W33384   0.384  34.864   3.549
64980W        W33385  31.098  41.481   3.051
64981W        W33386  38.897   4.213   0.837
64982W        W33387  32.405  40.917  11.589
64983W        W33388  25.920  26.703   3.118
64984W        W33389   6.836  37.884   4.014
64985W        W33390  36.303   8.513  11.049
64986W        W33391  15.626   9.966  10.247
64987W        W33392  44.019  44.680   3.776
64988W        W33393   3.178  23.158   1.383
64989W        W33394  25.470  15.117   1.513
64990W        W33395  27.681  10.262  13.966
64991W        W33396  10.162   9.559  13.500
64992W        W33397  39.003  34.795  14.040
64993W        W33398  11.528  28.381  14.098
64994W        W33399  25.242  37.478  14.049
64995W        W33400  10.809  33.635  14.413
64996W        W33401   1.542  16.712   0.884
64997W        W33402  38.502   7.137  13.977
64998W        W33403  23.480  21.057   0.470
64999W        W33404  20.726  20.824  10.631
65000W        W33405  29.399  30.973  13.929
65001W        W33406   5.926  30.010  10.717
65002W        W33407  41.813  18.856  14.686
65003W        W33408  29.533   2.219  14.619
65004W        W33409   9.329   3.944   1.789
65005W        W33410  14.422   7.095   0.650
65006W        W33411  36.445  21.182   0.076
65007W        W33412  41.955  16.535  10.414
65008W        W33413  25.404  26.412   0.048
65009W        W33414  27.211  12.246   3.724
65010W        W33415  22.995  25.100   1.830
65011W        W33416  20.179  34.052   0.435
65012W        W33417   9.740  16.590  12.083
65013W        W33418  30.634  33.476   3.049
65014W        W33419  20.426  15.364   1.225
65015W        W33420  28.653  35.167   3.677
65016W        W33421  24.438  38.502  11.208
65017W        W33422  25.999  24.773   4.183
65018W        W33423  28.468  38.048  13.941
65019W        W33424   4.170  12.299  13.606
65020W        W33425  33.375  32.404   1.161
65021W        W33426  25.681  30.379  14.053
65022W        W33427  24.734  11.920  12.566
65023W        W33428   9.562  39.202   4.143
65024W        W33429  38.256  40.429  14.894
65025W        W33430  26.051  39.294   3.233
65026W        W33431   4.945  40.026   0.890
65027W        W33432   7.704  36.157   1.205
65028W        W33433  25.188  43.985   0.698
65029W        W33434  21.424  30.437  13.424
65030W        W33435   6.627  33.933  11.569
65031W        W33436  29.099  32.522   4.798
65032W        W33437   8.122  17.189  13.726
65033W        W33438  17.679  38.309   3.756
65034W        W33439  13.814  28.431  14.998
65035W        W33440   8.326  11.716   2.539
65036W        W33441  24.965  23.014  13.924
65037W        W33442  32.287  36.327  10.722
65038W        W33443  29.963   7.818  11.090
65039W        W33444  27.413   1.971   2.833
65040W        W33445  12.266   5.220  12.675
65041W        W33446   7.775  35.541   2.541
65042W        W33447  21.562  14.518  12.591
65043W        W33448  10.619  15.569   4.283
65044W        W33449   6.442  15.157  12.164
65045W        W33450  13.346  21.133   3.165
65046W        W33451  11.662  24.942  12.997
65047W        W33452   1.702   6.808  11.903
65048W        W33453   7.815   6.759  14.400
65049W        W33454  31.112  33.479   4.539
65050W        W33455   1.655  25.117  13.823
65051W        W33456  34.363  38.297  10.685
65052W        W33457  34.106  29.388  11.925
65053W        W33458  33.005  27.314  12.056
65054W        W33459  32.004  43.795   4.717
65055W        W33460   2.473  28.943   0.324
65056W        W33461  28.003  38.424   5.491
65057W        W33462   2.428  36.857   4.387
65058W        W33463  27.721  40.449  12.164
65059W        W33464  36.857  21.112   4.539
65060W        W33465  25.569  17.496   4.176
65061W        W33466  34.651   6.365  11.969
65062W        W33467  15.127  13.263   3.684
65063W        W33468  41.295  44.838  12.548
65064W        W33469  19.691  33.081   4.287
65065W        W33470  44.308  28.948  10.084
65066W        W33471  31.103  11.880  10.750
65067W        W33472   2.371   8.764  10.314
65068W        W33473  21.502  20.161   3.889
65069W        W33474  12.957  34.872   3.874
65070W        W33475   0.853  16.520   2.378
65071W        W33476   4.797  24.251   1.656
65072W        W33477  11.368  37.950   0.573
65073W        W33478  36.521  27.998   4.865
65074W        W33479  41.030  18.539  12.027
65075W        W33480   4.303  32.023   0.815
65076W        W33481  35.485  41.522  12.328
65077W        W33482  10.650  21.193  10.557
65078W        W33483  18.670   2.827  13.970
65079W        W33484   0.511   1.890   2.580
65080W        W33485  11.434  13.554  11.616
65081W        W33486  38.803  32.405  14.381
65082W        W33487  40.441  35.111   1.697
65083W        W33488  27.681   0.503   4.482
65084W        W33489   9.343  10.743   3.658
65085W        W33490  21.561  26.113   3.818
65086W        W33491  12.563  13.794   0.874
65087W        W33492  24.098   9.669  13.031
65088W        W33493  24.626  41.504   2.754
65089W        W33494  32.601  43.984   2.227
65090W        W33495  25.966  23.822  13.971
65091W        W33496  41.456  13.280  13.547
65092W        W33497  14.178  31.752  11.144
65093W        W33498  33.091   4.896   3.674
65094W        W33499  39.944  21.970   1.747
65095W        W33500  36.161  42.723  12.125
65096W        W33501  23.681  23.659   0.454
65097W        W33502  31.628  32.545  14.418
65098W        W33503  22.797  14.128  12.085
65099W        W33504   3.438  40.222   1.661
65100W        W33505  10.704  28.116  12.461
65101W        W33506   3.635   1.459  12.006
65102W        W33507  15.133  18.594   3.140
65103W        W33508  36.595  38.334  14.441
65104W        W33509  20.305  38.655  10.380
65105W        W33510   5.874  35.878  10.601
65106W        W33511  32.520  23.502  13.588
65107W        W33512   0.378  37.830  13.081
65108W        W33513  37.357   9.176   1.555
65109W        W33514  33.311  36.736   2.138
65110W        W33515  21.253  15.360  13.779
65111W        W33516  23.225  10.812   1.315
65112W        W33517  13.713  20.291  13.373
65113W        W33518   1.469   8.646   0.513
65114W        W33519  38.372  14.729   2.098
65115W        W33520   3.939  40.024   2.832
65116W        W33521  22.577   7.766  12.109
65117W        W33522  25.776  30.009   3.769
65118W        W33523   3.593  31.489   3.801
65119W        W33524  28.644  44.936  12.498
65120W        W33525  13.332  16.673   3.305
65121W        W33526  29.394  26.312  10.517
65122W        W33527  11.079   8.857   2.766
65123W        W33528  12.787  22.501   0.922
65124W        W33529   2.858  42.891   1.407
65125W        W33530  33.295   5.185  14.963
65126W        W33531  31.072  20.674   3.629
65127W        W33532  29.912  37.926   0.485
65128W        W33533  39.029  38.170  14.488
65129W        W33534  44.524  12.182   0.509
65130W        W33535  23.585  42.839  10.689
65131W        W33536  43.915  41.568  12.008
65132W        W33537  10.344   4.452   9.947
65133W        W33538  21.604  13.679  13.111
65134W        W33539  31.047  42.557   0.343
65135W        W33540  12.504   7.584  10.511
65136W        W33541  37.089   9.393  14.788
65137W        W33542   6.577  15.347   0.454
65138W        W33543  33.732   2.953   4.830
65139W        W33544   7.770  22.105  12.118
65140W        W33545   6.953  24.728  14.892
65141W        W33546   5.907  44.199  11.755
65142W        W33547  34.969   5.139  12.069
65143W        W33548  27.945   2.469   4.203
65144W        W33549  34.157   1.960   4.462
65145W        W33550  26.217  28.056  13.591
65146W        W33551   6.881  43.771  13.337
65147W        W33552  26.766  35.626  13.692
65148W        W33553  20.294  18.390  11.518
65149W        W33554  37.867  40.745  14.449
65150W        W33555  21.172  17.554   1.824
65151W        W33556  13.597  43.931   1.909
65152W        W33557  16.032  17.333   2.793
65153W        W33558  39.013   7.700  10.278
65154W        W33559   6.838  38.041  13.117
65155W        W33560  10.294  33.561   2.132
65156W        W33561  30.202  33.884  14.063
65157W        W33562  12.398  23.354   3.652
65158W        W33563   7.413  35.578   4.817
65159W        W33564  25.592  30.610   0.906
65160W        W33565  14.433  36.536  12.783
65161W        W33566  11.141   0.916   0.426
65162W        W33567  39.447   1.778  14.744
65163W        W33568  18.901  30.935   0.479
65164W        W33569  19.093  44.729  14.889
65165W        W33570   8.750  13.567  10.106
65166W        W33571  16.903  30.163  11.486
65167W        W33572  13.600  11.204   4.824
65168W        W33573  33.612  32.872  13.630
65169W        W33574  18.289  39.487   0.883
65170W        W33575  43.255  34.918  12.112
65171W        W33576  21.183  43.473   1.031
65172W        W33577   5.174  44.327   2.786
65173W        W33578  19.129  24.991   1.369
65174W        W33579  14.333   2.711  11.553
65175W        W33580  18.300  31.977   2.675
65176W        W33581  40.652  30.533  14.030
65177W        W33582  26.177  42.304   3.250
65178W        W33583   3.909  34.174   3.287
65179W        W33584  13.245  35.113   2.884
65180W        W33585  24.417  34.008   4.029
65181W        W33586  25.583  29.205   3.476
65182W        W33587  35.012   3.580  14.573
65183W        W33588   1.889  41.828   3.139
65184W        W33589   8.850   6.151   2.058
65185W        W33590  26.964  16.065   5.322
65186W        W33591  22.619  22.643   1.641
65187W        W33592   7.102   9.275  11.139
65188W        W33593  18.621  39.708   4.049
65189W        W33594  24.675  27.981  13.435
65190W        W33595  43.887   7.887   1.264
65191W        W33596  29.013  34.067  13.024
65192W        W33597   3.930  27.192   1.300
65193W        W33598  17.717  13.366  11.708
65194W        W33599  30.000   1.968   3.756
65195W        W33600  33.551  16.372  14.320
65196W        W33601  15.606  22.700   1.633
65197W        W33602   5.748  23.535  12.581
65198W        W33603  20.358  40.359   3.692
65199W        W33604   7.768  21.954  12.965
65200W        W33605  40.919  44.185  14.408
65201W        W33606  14.914  30.006  14.079
65202W        W33607   0.924   5.905  14.298
65203W        W33608   6.265  10.593  13.588
65204W        W33609  25.071  13.753  12.031
65205W        W33610  40.860  37.077   0.937
65206W        W33611  10.901   5.985   1.649
65207W        W33612   5.220  43.670   3.819
65208W        W33613  20.135  35.558  13.285
65209W        W33614  17.130  28.902   3.621
65210W        W33615  28.351   9.120  14.029
65211W        W33616   6.309  33.169   0.978
65212W        W33617  40.544   8.077  11.930
65213W        W33618  37.368  41.374  13.889
65214W        W33619   8.281   8.880  10.686
65215W        W33620  32.897  31.938   3.390
65216W        W33621  18.078  41.809   3.822
65217W        W33622   9.848  21.754   2.785
65218W        W33623  27.487  33.709   0.893
65219W        W33624  13.376  35.152   3.748
65220W        W33625  14.095   6.831   2.366
65221W        W33626  26.524  16.058   0.421
65222W        W33627  16.205  24.224   3.048
65223W        W33628  21.327  31.417  13.396
65224W        W33629  36.687  33.003   0.916
65225W        W33630  29.820  27.677   1.126
65226W        W33631   8.708   7.009   0.802
65227W        W33632  32.568  40.403   3.552
65228W        W33633  10.541  25.206  12.133
65229W        W33634   7.372  20.322   4.688
65230W        W33635   9.394  41.341  14.423
65231W        W33636  38.377  11.932  11.010
65232W        W33637  44.368  20.329  10.717
65233W        W33638  31.564  20.035  13.938
65234W        W33639  43.534  25.872  12.987
65235W        W33640  38.490  27.677  11.234
65236W        W33641  15.604  39.923   3.726
65237W        W33642  34.454  29.645   1.215
65238W        W33643  11.700  14.578  13.991
65239W        W33644   1.297  18.691  11.076
65240W        W33645   2.080  17.967  12.131
65241W        W33646   4.384  19.708  14.368
65242W        W33647   0.921   3.822   3.361
65243W        W33648  30.167  41.305  12.945
65244W        W33649  38.098  38.880  13.012
65245W        W33650  37.343  42.116  14.494
65246W        W33651  37.917   2.920  10.936
65247W        W33652  32.598   0.288  11.382
65248W        W33653  12.852  26.225  11.546
65249W        W33654  26.817  22.587  11.034
65250W        W33655  27.993  38.747  13.660
65251W        W33656  42.292  34.519  13.869
65252W        W33657  37.436  40.048  14.134
65253W        W33658  42.375  39.448  13.265
65254W        W33659  37.008  26.960  12.360
65255W        W33660  24.780   6.026  12.949
65256W        W33661  26.814  13.604  12.511
65257W        W33662   3.046  11.137  11.864
65258W        W33663  17.794  40.752   0.428
65259W        W33664  43.060  18.154  13.938
65260W        W33665   3.236   2.034   3.637
65261W        W33666  26.418  19.781   1.390
65262W        W33667  42.827  44.970   0.409
65263W        W33668  24.795  18.106   3.738
65264W        W33669   1.339  26.294   3.747
65265W        W33670  22.450  43.231  10.389
65266W        W33671  23.585  29.153   3.849
65267W        W33672  24.654  31.434   3.325
65268W        W33673  17.976  23.687   3.306
65269W        W33674  38.072   5.347   0.885
65270W        W33675  29.375  43.964   1.084
65271W        W33676   4.170   9.612  10.100
65272W        W33677  24.432   5.862   0.121
65273W        W33678  14.694   0.851   3.132
65274W        W33679  15.202  26.765  10.871
65275W        W33680   1.452  11.949   3.820
65276W        W33681   2.834  33.875  12.587
65277W        W33682  18.965  38.833  13.406
65278W        W33683  15.778  24.065   0.275
65279W        W33684  15.398   7.958   3.593
65280W        W33685  36.941   3.313   1.180
65281W        W33686  17.214  18.529   2.373
65282W        W33687  35.127   5.304   4.902
65283W        W33688  21.171  32.844   1.739
65284W        W33689  20.413  29.140   0.673
65285W        W33690  21.633  11.213   3.272
65286W        W33691  43.271   7.743  10.753
65287W        W33692  42.734   6.467   5.255
65288W        W33693  10.294  32.162  10.502
65289W        W33694  20.231  40.735  12.488
65290W        W33695  18.673  36.304   5.010
65291W        W33696  38.580  19.233  12.896
65292W        W33697  43.596  15.558  12.482
65293W        W33698  13.306  28.908   3.755
65294W        W33699  30.862  28.070   1.892
65295W        W33700  40.893  39.504   1.803
65296W        W33701   0.850  34.423  12.415
65297W        W33702  29.023  20.921  13.896
65298W        W33703  33.031   1.429   2.130
65299W        W33704  40.129  30.419   3.331
65300W        W33705  37.087  19.713   4.959
65301W        W33706   8.130   6.799  11.128
65302W        W33707   5.892  14.587   3.289
65303W        W33708  15.249   8.844  14.809
65304W        W33709   8.731  36.152   0.326
65305W        W33710   3.283  41.551  11.552
65306W        W33711  34.565  28.575  10.541
65307W        W33712  31.513   9.064  10.901
65308W        W33713  24.258  19.496  10.901
65309W        W33714   4.759  18.022  12.734
65310W        W33715   9.875  20.160   3.114
65311W        W33716   4.240   8.491   3.684
65312W        W33717  23.649   7.492  12.051
65313W        W33718  10.276  25.976   3.162
65314W        W33719   0.213  35.078   0.325
65315W        W33720   5.671  28.456  14.481
65316W        W33721  37.933  18.126   4.533
65317W        W33722   2.148   0.839  11.707
65318W        W33723  29.405  22.681   1.976
65319W        W33724   9.152  35.128   1.838
65320W        W33725  21.063  12.380   0.068
65321W        W33726  41.675  36.439   4.841
65322W        W33727  30.860  23.990  14.618
65323W        W33728  24.248  34.996   2.430
65324W        W33729  25.132  12.514  13.584
65325W        W33730   4.487  40.854  13.604
65326W        W33731  40.810  34.124  13.864
65327W        W33732  40.380  33.403   2.634
65328W        W33733  42.097  35.865   2.324
65329W        W33734  34.293  38.064  14.555
65330W        W33735  37.360  35.396  13.045
65331W        W33736  44.006  20.057  10.969
65332W        W33737   5.892  28.445  10.943
65333W        W33738   8.956  35.545  14.457
65334W        W33739  11.272  16.099   1.129
65335W        W33740  34.104  42.388  10.691
65336W        W33741  18.103  22.694   3.213
65337W        W33742  26.105  34.582  14.923
65338W        W33743  40.018  30.192   2.240
65339W        W33744  19.366  38.911  13.094
65340W        W33745  10.737  19.240   1.363
65341W        W33746  36.938   4.297   2.606
65342W        W33747  36.316  18.087  14.105
65343W        W33748  15.664  33.127   2.875
65344W        W33749  40.499  27.278   3.571
65345W        W33750  39.805   3.389   4.039
65346W        W33751  12.221  31.343   1.194
65347W        W33752  14.458  24.151  13.445
65348W        W33753  25.964   6.892  12.096
65349W        W33754   5.761  25.102   1.387
65350W        W33755  37.808  18.630   4.482
65351W        W33756  40.256  30.679  13.018
65352W        W33757   0.333  24.520  10.518
65353W        W33758  16.629  24.006   3.273
65354W        W33759  44.187   8.437   0.630
65355W        W33760  18.560   4.739  14.157
65356W        W33761  23.673   8.698   0.842
65357W        W33762   7.218  42.114  14.162
65358W        W33763  33.390  17.360   0.940
65359W        W33764  29.131  28.451  14.478
65360W        W33765  20.181   5.496   4.892
65361W        W33766  24.168  13.623   1.382
65362W        W33767  18.837  43.001   1.392
65363W        W33768  30.697  23.450  11.895
65364W        W33769  29.942  43.448  14.641
65365W        W33770  18.570  31.556  13.926
65366W        W33771  10.472  38.702   4.261
65367W        W33772  12.764   0.810   4.236
65368W        W33773  28.082  43.036  11.037
65369W        W33774  33.639   1.545   4.669
65370W        W33775  24.427  21.704   1.333
65371W        W33776  16.995  13.267  12.391
65372W        W33777  11.192  35.015  13.640
65373W        W33778  34.067  14.344   2.320
65374W        W33779  21.691  13.661   2.821
65375W        W33780  10.317  17.228   2.878
65376W        W33781   2.226  32.663  14.652
65377W        W33782   2.213  22.124   1.932
65378W        W33783  18.247  24.272  13.386
65379W        W33784  18.097   9.690  12.486
65380W        W33785  37.478  14.758   4.417
65381W        W33786  18.762  28.956   1.435
65382W        W33787   0.327  40.374   1.867
65383W        W33788  29.004  27.329   4.078
65384W        W33789  21.497  24.777  12.984
65385W        W33790  29.874  25.518   4.812
65386W        W33791  23.234  19.160   4.479
65387W        W33792  38.483  24.476  12.873
65388W        W33793  21.039  17.300  13.001
65389W        W33794  29.183  26.116   0.533
65390W        W33795  18.506  24.941  11.196
65391W        W33796  10.878  20.996   1.812
65392W        W33797  43.171  44.438   1.895
65393W        W33798   3.979   1.392  14.498
65394W        W33799  26.719   0.394   3.893
65395W        W33800   2.929  34.020  10.799
65396W        W33801  31.606  36.866   2.678
65397W        W33802  22.603  25.683   2.229
65398W        W33803  44.845   9.849  13.428
65399W        W33804  20.109   0.494  14.474
65400W        W33805  36.369  18.656  11.997
65401W        W33806  24.604  11.243   4.829
65402W        W33807  44.675  22.216  13.018
65403W        W33808  10.361  40.157  11.175
65404W        W33809  41.463  29.403   0.615
65405W        W33810  41.384  26.204  14.287
65406W        W33811  22.912  23.087   4.551
65407W        W33812  32.828  25.023   4.817
65408W        W33813   6.999   7.261   3.567
65409W        W33814   2.874   1.006  12.202
65410W        W33815  16.653  43.592  12.498
65411W        W33816   5.757  43.767  14.944
65412W        W33817  11.738   7.603   1.451
65413W        W33818   2.903  31.376  13.928
65414W        W33819  34.087  22.931  11.678
65415W        W33820  44.418  12.151   4.689
65416W        W33821  15.388   7.948   0.385
65417W        W33822  19.843   2.329  12.436
65418W        W33823   1.760  35.412   4.487
65419W        W33824   5.967  14.153   0.779
65420W        W33825  11.504  15.825   4.476
65421W        W33826  39.269  38.785   2.794
65422W        W33827   8.614  23.538  12.783
65423W        W33828  15.606  44.969   4.823
65424W        W33829  27.150  22.154  11.166
65425W        W33830  16.640  40.611  13.311
65426W        W33831  36.819  43.909   2.609
65427W        W33832   6.667   3.881  11.973
65428W        W33833  33.050  26.070  12.625
65429W        W33834   1.512  40.397  14.042
65430W        W33835  26.277  15.694  14.879
65431W        W33836  41.841  26.390  13.529
65432W        W33837   4.917  36.557  11.489
65433W        W33838  39.609  14.585   4.199
65434W        W33839   2.687  22.001  13.830
65435W        W33840   5.356   7.839  11.029
65436W        W33841  35.546  34.150   0.869
65437W        W33842   6.419  40.399   1.983
65438W        W33843  40.878  22.087  11.981
65439W        W33844   3.027  25.079  11.995
65440W        W33845  31.002  25.649  14.873
65441W        W33846  39.419  42.535  13.360
65442W        W33847  37.605  21.612  13.788
65443W        W33848  22.104  36.541  11.482
65444W        W33849  44.857  36.568   4.275
65445W        W33850   6.920  24.201  14.971
65446W        W33851  26.189  23.630  11.947
65447W        W33852  14.735  17.046  11.844
65448W        W33853  24.465  23.622  12.401
65449W        W33854  18.164  23.239   2.491
65450W        W33855  25.543  29.304  11.962
65451W        W33856  23.721  35.201  11.321
65452W        W33857   5.357  14.686  11.532
65453W        W33858   6.666  26.904   4.096
65454W        W33859  26.190  44.987   4.971
65455W        W33860  20.850  24.614   4.058
65456W        W33861  42.849  44.095  14.769
65457W        W33862  24.025  21.735   3.445
65458W        W33863   1.158  14.850  12.603
65459W        W33864  21.450  36.993  12.836
65460W        W33865  29.042  26.625   0.460
65461W        W33866  26.202  20.196   4.312
65462W        W33867  32.999   6.330   5.440
65463W        W33868   7.897  29.265   3.769
65464W        W33869  17.342  11.257   1.778
65465W        W33870  16.166  41.490   1.871
65466W        W33871  44.322  27.573  14.692
65467W        W33872  44.775  16.673  14.894
65468W        W33873  14.597   5.365   4.732
65469W        W33874  31.252  20.199  10.676
65470W        W33875  27.781  17.805   2.612
65471W        W33876  15.437  27.198  11.026
65472W        W33877  10.590  44.530  10.249
65473W        W33878   9.612   2.458   4.157
65474W        W33879  37.375  16.353  14.017
65475W        W33880  17.009   4.295  14.465
65476W        W33881  31.530  35.257   3.151
65477W        W33882   5.111  26.431   3.864
65478W        W33883  32.166  42.986  11.777
65479W        W33884  38.050  32.894  12.396
65480W        W33885   6.310  34.057  12.414
65481W        W33886  22.742  23.823   2.385
65482W        W33887  23.994   5.260  12.503
65483W        W33888  39.391   1.243   4.142
65484W        W33889  20.702  24.782  11.419
65485W        W33890  27.502   7.419  12.986
65486W        W33891   3.900  43.411   2.585
65487W        W33892   9.472  18.652   0.759
65488W        W33893  38.539  26.608  13.518
65489W        W33894  35.940  34.507  13.953
65490W        W33895  24.553  25.211  11.433
65491W        W33896  43.389  10.962   5.010
65492W        W33897  35.362  20.593   2.249
65493W        W33898   8.137  13.256  13.334
65494W        W33899  22.679  27.192  12.180
65495W        W33900  44.312  41.574  13.903
65496W        W33901  22.001   7.676   3.284
65497W        W33902  24.008  36.488   1.606
65498W        W33903   6.796  22.688   3.328
65499W        W33904  10.779  15.485  13.975
65500W        W33905  42.962  22.444   1.399
65501W        W33906   0.815  17.326  11.262
65502W        W33907  12.714  39.306  13.886
65503W        W33908   2.820  17.775  11.708
65504W        W33909   3.031  13.683   4.202
65505W        W33910  37.347  40.543   3.247
65506W        W33911  28.117  25.942   4.669
65507W        W33912  12.732  30.059   1.485
65508W        W33913  23.287  25.455  13.087
65509W        W33914  26.096   3.318   4.501
65510W        W33915  40.615  13.151  12.518
65511W        W33916   0.560   1.426   1.305
65512W        W33917  38.413  21.244  10.592
65513W        W33918  31.577  18.611   4.171
65514W        W33919  23.613  16.280   2.457
65515W        W33920  24.199  40.100   1.327
65516W        W33921  13.467   8.380  14.715
65517W        W33922  27.977  18.820   4.079
65518W        W33923   7.980  26.598  10.622
65519W        W33924  40.271  23.821  14.993
65520W        W33925  19.192   8.170  13.546
65521W        W33926  32.433   0.946   0.512
65522W        W33927  17.291  39.383   1.909
65523W        W33928  35.261   5.821   5.011
65524W        W33929  35.594   8.410  13.740
65525W        W33930  31.535  11.359  11.448
65526W        W33931  28.119  25.602  10.726
65527W        W33932   6.674   5.245  14.477
65528W        W33933   0.383  19.592   2.530
65529W        W33934  27.506   6.279   0.317
65530W        W33935  33.436  37.628  12.490
65531W        W33936  27.859   9.750  12.424
65532W        W33937  16.717  42.854  11.059
65533W        W33938   3.748  26.764  12.885
65534W        W33939   8.315   3.759  12.829
65535W        W33940  15.161  21.984   1.892
65536W        W33941   4.765  30.560   0.072
65537W        W33942  28.780  14.787  13.279
65538W        W33943  30.469  23.471   1.486
65539W        W33944  34.737  36.515  13.222
65540W        W33945  16.564  12.139   2.728
65541W        W33946  24.270  34.611   0.451
65542W        W33947  39.850  44.937   2.211
65543W        W33948   6.650  44.366  12.403
65544W        W33949  37.606  40.260   1.090
65545W        W33950  27.034  32.084  14.574
65546W        W33951  18.763  31.708  14.866
65547W        W33952  34.170  10.303   0.359
65548W        W33953  42.977   3.416   0.663
65549W        W33954  24.890  28.193  13.863
65550W        W33955  23.430  21.141   2.573
65551W        W33956  17.755  14.044   0.888
65552W        W33957  38.556   6.384   0.812
65553W        W33958  19.028  25.934   0.928
65554W        W33959  15.327  40.916   1.986
65555W        W33960   0.901  24.092   1.712
65556W        W33961  29.154  24.143  13.745
65557W        W33962   4.544  36.493  13.488
65558W        W33963  38.401  28.210   1.890
65559W        W33964  35.346  12.129   4.037
65560W        W33965  29.988  12.948   2.371
65561W        W33966  43.834  34.607   3.691
65562W        W33967  27.657  31.422   3.534
65563W        W33968  13.460  24.994  14.977
65564W        W33969  12.606  36.900   1.528
65565W        W33970  17.738  27.511   3.655
65566W        W33971  33.485   4.716  10.417
65567W        W33972  13.663  34.629   2.255
65568W        W33973  26.762  30.983  13.240
65569W        W33974  31.453  30.437  14.107
65570W        W33975   9.394  31.385  10.287
65571W        W33976  18.348  26.021   2.727
65572W        W33977  44.998  14.226  12.467
65573W        W33978  14.855  23.258   3.355
65574W        W33979  40.455  37.530   0.983
65575W        W33980   1.759  15.850   3.171
65576W        W33981  22.030  20.629  12.284
65577W        W33982  42.303  43.286   3.813
65578W        W33983  41.539  34.224  14.412
65579W        W33984  30.483  13.164  11.452
65580W        W33985  25.475  16.511   4.164
65581W        W33986   1.885  15.560   4.464
65582W        W33987  17.209  18.818   1.931
65583W        W33988   8.586  22.669   0.331
65584W        W33989  33.400  29.146   2.652
65585W        W33990  21.056  18.499   4.550
65586W        W33991  30.409  18.528   5.075
65587W        W33992  20.529  15.775  10.597
65588W        W33993   5.228   5.935  13.904
65589W        W33994  31.732   8.696   4.958
65590W        W33995   1.465  17.677   2.585
65591W        W33996   9.103  20.947   3.690
65592W        W33997  24.236  22.788  10.630
65593W        W33998  26.253  44.998  14.038
65594W        W33999  40.715   2.542  10.101
65595W        W34000   6.876  41.818  14.825
65596W        W34001  13.737  37.319   4.613
65597W        W34002  43.572   5.240   3.576
65598W        W34003  26.678  36.858  11.016
65599W        W34004  26.328  17.652  13.102
65600W        W34005  24.217  15.457  11.208
65601W        W34006  18.250  24.224  11.673
65602W        W34007  12.850   3.082   4.927
65603W        W34008  20.344  17.643  10.649
65604W        W34009   0.820  11.856   3.125
65605W        W34010  42.377  15.743  13.923
65606W        W34011  10.240  21.566   0.641
65607W        W34012  25.577   9.750  12.860
65608W        W34013  21.600  26.027  10.834
65609W        W34014  38.418  28.252   3.964
65610W        W34015  26.032  16.635   5.014
65611W        W34016  30.725  41.952   0.442
65612W        W34017  43.142  44.959  11.975
65613W        W34018  28.029  15.745   0.780
65614W        W34019  24.116  10.365  12.434
65615W        W34020   9.147  21.726   3.479
65616W        W34021  39.140  30.552  13.843
65617W        W34022  17.475  43.259  11.655
65618W        W34023  33.020  17.272  12.346
65619W        W34024  26.409  12.848   4.602
65620W        W34025  31.071   7.247  14.727
65621W        W34026   9.170   4.537  14.629
65622W        W34027  33.606  23.692   3.680
65623W        W34028  10.015  38.770  11.690
65624W        W34029   0.318  39.744  14.537
65625W        W34030  18.807  44.866  11.904
65626W        W34031  28.584  19.574  11.105
65627W        W34032  41.898   9.808   0.267
65628W        W34033  43.948  21.578  13.035
65629W        W34034  32.606  17.153  13.523
65630W        W34035   0.785  43.769   2.496
65631W        W34036  39.217  28.350   2.812
65632W        W34037  44.847  28.675   2.632
65633W        W34038   8.705   4.823   0.033
65634W        W34039   8.487  10.823   3.147
65635W        W34040  39.067  30.108   0.173
65636W        W34041  41.012  27.907   3.117
65637W        W34042   0.535  27.541  14.464
65638W        W34043  15.657  37.324   2.351
65639W        W34044  12.554  17.078   4.480
65640W        W34045  25.175  28.642  11.483
65641W        W34046  23.361  30.538  10.656
65642W        W34047   3.508  22.651  13.780
65643W        W34048  16.784   2.402  11.627
65644W        W34049   3.637  12.775  12.089
65645W        W34050  12.798  34.510   0.740
65646W        W34051  13.729  15.485  12.556
65647W        W34052  26.512  23.988   2.475
65648W        W34053  26.727  10.607   0.715
65649W        W34054  44.044  42.811   2.411
65650W        W34055  31.499  41.088  11.437
65651W        W34056  14.549  18.259  13.986
65652W        W34057  31.828  11.748   3.240
65653W        W34058  21.318  23.159   1.740
65654W        W34059  24.595  32.565   1.481
65655W        W34060   6.340   8.123   4.598
65656W        W34061  30.840  27.238   4.461
65657W        W34062   5.399  39.710  13.941
65658W        W34063   3.484  42.141  10.722
65659W        W34064  40.087  19.712   4.552
65660W        W34065  18.687  36.880   2.406
65661W        W34066  26.173  29.472   2.711
65662W        W34067  11.059   0.421   4.037
65663W        W34068  21.628   1.694   2.166
65664W        W34069  35.028  20.700   2.955
65665W        W34070  17.523  22.950   3.215
65666W        W34071  31.678  27.678   4.122
65667W        W34072   9.179  27.987  14.874
65668W        W34073  16.670  38.320   1.623
65669W        W34074  35.865  22.804   3.226
65670W        W34075  38.261   8.658  13.992
65671W        W34076  31.550  22.037  11.800
65672W        W34077  15.747  32.995   3.380
65673W        W34078  29.936  11.749   3.124
65674W        W34079  12.340  39.034  11.154
65675W        W34080  26.447  35.890  13.374
65676W        W34081  41.871  36.945   4.732
65677W        W34082  28.653  20.357  13.005
65678W        W34083   3.526  38.062  13.475
65679W        W34084   8.950  36.477   4.628
65680W        W34085   2.694  29.895   4.215
65681W        W34086  22.664  29.631   0.624
65682W        W34087   7.725   2.945   4.113
65683W        W34088  29.513  27.129  13.652
65684W        W34089  38.027  13.091  10.513
65685W        W34090  12.256  35.556  10.369
65686W        W34091  14.720  13.208   4.633
65687W        W34092  26.304  18.237  11.997
65688W        W34093  20.805   2.045  11.897
65689W        W34094  24.090   2.972  13.354
65690W        W34095  38.493  27.144   4.268
65691W        W34096  22.752  35.599   3.524
65692W        W34097  11.235   8.708  12.036
65693W        W34098  35.401   5.731  11.662
65694W        W34099  25.299  35.235   4.287
65695W        W34100  27.666  29.415   2.828
65696W        W34101   0.167  14.361   2.925
65697W        W34102  25.554  15.672   3.235
65698W        W34103   2.748  43.976   2.702
65699W        W34104   7.711  27.476  11.980
65700W        W34105  28.255  25.206   4.047
65701W        W34106  22.422   0.046  11.056
65702W        W34107   0.289   8.388   4.343
65703W        W34108  35.699  32.797  12.943
65704W        W34109  34.886  33.096   0.488
65705W        W34110  32.042  16.202   1.370
65706W        W34111  31.235   1.784   0.935
65707W        W34112  11.417  30.587  12.059
65708W        W34113  31.520  20.102   2.294
65709W        W34114   0.575  22.713   3.890
65710W        W34115  28.604   8.208  12.835
65711W        W34116  12.106  25.846  14.328
65712W        W34117   8.369  23.175   0.338
65713W        W34118  26.618   8.876   3.599
65714W        W34119  24.175  28.464   4.773
65715W        W34120   3.277  36.814   3.887
65716W        W34121  20.653   2.207  13.747
65717W        W34122  40.588  30.960  11.934
65718W        W34123  28.920  28.516   3.097
65719W        W34124  34.949  40.073  12.045
65720W        W34125  37.852  17.548  11.552
65721W        W34126  21.935  28.659   4.609
65722W        W34127  44.863  22.218   4.020
65723W        W34128  16.828  39.269  11.216
65724W        W34129  39.799  11.739  12.093
65725W        W34130   2.523  21.437  11.545
65726W        W34131  35.847   6.889   3.166
65727W        W34132  12.166  11.052   3.705
65728W        W34133  12.742  40.291  14.297
65729W        W34134  27.158  13.877  11.577
65730W        W34135  22.050  42.427   3.378
65731W        W34136  25.932  13.005  13.923
65732W        W34137  29.033  11.115  13.536
65733W        W34138   2.962   7.669  14.630
65734W        W34139  20.905  18.963  11.054
65735W        W34140   1.850  36.914   3.797
65736W        W34141  44.273  32.113  10.815
65737W        W34142  14.460  44.350  13.879
65738W        W34143   5.248  35.175  14.725
65739W        W34144  23.066  29.646  13.035
65740W        W34145   6.737  36.278  13.965
65741W        W34146  40.058   5.672   0.360
65742W        W34147  29.914  38.988   0.780
65743W        W34148   0.447   8.643   0.579
65744W        W34149   2.948  14.725   0.502
65745W        W34150  37.853   8.526   3.288
65746W        W34151  18.779   6.769  11.978
65747W        W34152  27.500  26.778  11.119
65748W        W34153  10.757   4.348  14.714
65749W        W34154  40.614  14.702   0.285
65750W        W34155  23.549  11.416   4.457
65751W        W34156  38.379  14.323   1.783
65752W        W34157  40.501  24.747  12.697
65753W        W34158  28.936  10.269   0.980
65754W        W34159  21.594  16.666   4.639
65755W        W34160  22.599  19.784  14.507
65756W        W34161   6.151  41.664   3.304
65757W        W34162  17.838  31.003  13.823
65758W        W34163  30.993   3.289   3.851
65759W        W34164  13.777  35.403   2.725
65760W        W34165  24.762   0.963   4.648
65761W        W34166  32.128  44.467  14.784
65762W        W34167  44.809  35.160   2.580
65763W        W34168  25.019  15.637   3.194
65764W        W34169  13.182   8.418  10.811
65765W        W34170  44.655   8.490   0.832
65766W        W34171   2.261  31.620   1.958
65767W        W34172  20.538  28.481   0.967
65768W        W34173  42.038   4.338   3.183
65769W        W34174  19.317  15.033   3.731
65770W        W34175  21.532  44.259  13.460
65771W        W34176  33.155  22.915  13.909
65772W        W34177  30.009  27.183  13.536
65773W        W34178   0.038  19.607   3.648
65774W        W34179  28.397  13.796  13.499
65775W        W34180   8.186  16.117   2.367
65776W        W34181  38.975  32.060   4.648
65777W        W34182  31.034  41.130  13.961
65778W        W34183   0.982  34.586   4.736
65779W        W34184  44.429  40.942   2.790
65780W        W34185  36.488  24.312  11.919
65781W        W34186   5.905  16.275   1.025
65782W        W34187  37.324  39.654   2.868
65783W        W34188  41.488  12.140  14.864
65784W        W34189  41.324  40.961   1.541
65785W        W34190   8.934  13.671   3.302
65786W        W34191  16.292  43.814   1.010
65787W        W34192  42.605   1.810   2.416
65788W        W34193   9.815   0.511   0.424
65789W        W34194  16.753  41.638  12.417
65790W        W34195   3.417  39.787   1.939
65791W        W34196  39.509  23.591  12.229
65792W        W34197  16.384  19.246  11.867
65793W        W34198  40.535  10.412  11.434
65794W        W34199  32.477   7.912  11.047
65795W        W34200  15.775  30.303  12.461
65796W        W34201  27.630  13.158   1.304
65797W        W34202  38.917  25.683   2.023
65798W        W34203  27.569  31.828   3.168
65799W        W34204   4.414  31.336   2.141
65800W        W34205   8.564  31.421  13.420
65801W        W34206   2.129  37.365   0.094
65802W        W34207   4.194  31.418  11.795
65803W        W34208  18.097  14.588  12.019
65804W        W34209  11.091  33.819   3.330
65805W        W34210  12.936  14.189  13.011
65806W        W34211   2.262  24.594   0.327
65807W        W34212  26.519  17.162  13.983
65808W        W34213  38.548   2.670   3.240
65809W        W34214   4.293   5.148  13.505
65810W        W34215  11.852  18.716   0.094
65811W        W34216  12.209  24.710   1.958
65812W        W34217  24.786  43.258  14.907
65813W        W34218   8.770  33.075   2.710
65814W        W34219  16.158  24.645  13.958
65815W        W34220   8.002   7.352  13.760
65816W        W34221  35.882  12.799   4.845
65817W        W34222  40.460  19.854   1.319
65818W        W34223   2.594   5.879   3.317
65819W        W34224  42.790  34.611  12.617
65820W        W34225   2.676  36.471  14.911
65821W        W34226  32.163  34.119   1.474
65822W        W34227   2.822  31.364   4.986
65823W        W34228  19.641  11.287   1.729
65824W        W34229  22.961  23.760   3.222
65825W        W34230  32.462  31.655  14.869
65826W        W34231   7.216  25.978  14.053
65827W        W34232   5.500  26.505   4.186
65828W        W34233   4.184  14.082  13.542
65829W        W34234  28.714  22.976   3.311
65830W        W34235  30.409  14.130   3.649
65831W        W34236  41.097  15.022  12.911
65832W        W34237  10.675  37.338  13.354
65833W        W34238  38.070  41.503  11.144
65834W        W34239   7.209  10.103   4.139
65835W        W34240  39.862   4.390   2.277
65836W        W34241   2.230  34.034  14.514
65837W        W34242  39.621  31.555  12.405
65838W        W34243  35.084  35.845   0.787
65839W        W34244  35.359  27.586  12.387
65840W        W34245  37.450   1.180   2.112
65841W        W34246  20.960  14.350   2.879
65842W        W34247  41.800  11.344  11.190
65843W        W34248  12.462   5.874  14.888
65844W        W34249  17.105  11.153  11.573
65845W        W34250   3.206   8.859   0.949
65846W        W34251  29.111  38.245  14.503
65847W        W34252  20.225  21.090   2.639
65848W        W34253  44.760   1.855   1.139
65849W        W34254   7.982  30.182   9.838
65850W        W34255  10.733  28.747   1.766
65851W        W34256  21.239  28.158   4.524
65852W        W34257  23.554  25.539   0.318
65853W        W34258  23.529  24.273  11.105
65854W        W34259  22.287   2.791  12.881
65855W        W34260  28.726  10.718  14.269
65856W        W34261  25.656   3.197   4.735
65857W        W34262  20.933  14.539  11.139
65858W        W34263   9.393  10.280   2.387
65859W        W34264  27.985  10.601   3.191
65860W        W34265  21.645   8.367   4.620
65861W        W34266   5.023  43.896   1.326
65862W        W34267  12.128  17.399   3.082
65863W        W34268  28.358  23.647  12.331
65864W        W34269  37.862  22.511  14.257
65865W        W34270  22.031  23.525  13.524
65866W        W34271  17.636   1.964   2.360
65867W        W34272  30.174  19.590  14.024
65868W        W34273  17.683  14.818   2.913
65869W        W34274  17.070  33.361  13.775
65870W        W34275  22.278  11.179  11.908
65871W        W34276  43.411   2.763   2.191
65872W        W34277  12.398  29.361  14.510
65873W        W34278   6.912   0.514  12.967
65874W        W34279   7.614   8.384   0.617
65875W        W34280   4.496   3.670  12.107
65876W        W34281  43.175  16.294   0.924
65877W        W34282  25.331   4.137   0.207
65878W        W34283  40.026  42.247  11.861
65879W        W34284   0.558  25.008   0.709
65880W        W34285  21.926  33.085   2.208
65881W        W34286   6.257   6.393   2.791
65882W        W34287  41.270  39.872   3.371
65883W        W34288  11.913  33.272  10.407
65884W        W34289  33.928  32.551  14.005
65885W        W34290   9.830  27.235  14.082
65886W        W34291   8.163  38.783   1.505
65887W        W34292  42.843  30.075   1.255
65888W        W34293  11.160  12.143  10.651
65889W        W34294  16.963  11.698   3.498
65890W        W34295  38.218   1.797   2.839
65891W        W34296  31.414   0.462   1.366
65892W        W34297  15.323   6.640  10.257
65893W        W34298  28.436  11.252  14.901
65894W        W34299  35.043  35.530   4.473
65895W        W34300  33.139  21.614  13.865
65896W        W34301  22.175   4.231   0.312
65897W        W34302  20.747   4.928   3.883
65898W        W34303  26.006  24.048   3.653
65899W        W34304   9.979  16.682  12.534
65900W        W34305   3.735  40.055  13.559
65901W        W34306  21.769  28.793  14.551
65902W        W34307   6.939  30.523  13.124
65903W        W34308  36.159  32.931   3.829
65904W        W34309  29.616  44.768   1.827
65905W        W34310  13.888  43.489  14.008
65906W        W34311  13.823  36.926   4.084
65907W        W34312  42.361  31.109  10.760
65908W        W34313  25.623  19.636  14.669
65909W        W34314   0.915  10.764   0.786
65910W        W34315  25.878  18.114  12.911
65911W        W34316  39.566  35.045  11.701
65912W        W34317  44.553  27.083   3.731
65913W        W34318   6.632   8.726  13.814
65914W        W34319   6.302  29.039   4.096
65915W        W34320  33.245   3.896   4.579
65916W        W34321  29.897   8.616  10.588
65917W        W34322   7.897  43.776   1.370
65918W        W34323   1.822  37.192   0.629
65919W        W34324  16.351  20.550   3.332
65920W        W34325   0.324  12.758   3.752
65921W        W34326  17.084  12.046  10.419
65922W        W34327  24.517   4.367  12.427
65923W        W34328  42.797  18.601   2.738
65924W        W34329  21.104  35.152   0.336
65925W        W34330  37.314  43.808   1.383
65926W        W34331  12.440   9.353  10.659
65927W        W34332  39.499   8.898   4.152
65928W        W34333  35.897   5.105   3.741
65929W        W34334   7.647   4.768   4.545
65930W        W34335  17.052  42.470  11.133
65931W        W34336  30.885   5.327  12.570
65932W        W34337  15.856  23.639   2.569
65933W        W34338   9.305  41.443  13.906
65934W        W34339  30.964  29.390  10.603
65935W        W34340  29.591  35.464   0.397
65936W        W34341  43.925  12.824   3.672
65937W        W34342  20.780   6.266   4.410
65938W        W34343   9.046  21.204  10.797
65939W        W34344  11.878  17.792   4.206
65940W        W34345  31.857   9.309   3.886
65941W        W34346  32.949  31.934  14.823
65942W        W34347  25.708  26.081  13.811
65943W        W34348  17.656   2.363  14.922
65944W        W34349   0.973  19.210   3.541
65945W        W34350  36.109  15.602  11.469
65946W        W34351  18.026  34.200   3.670
65947W        W34352  41.264  40.339  12.512
65948W        W34353   0.343  11.858   0.956
65949W        W34354  16.598  44.286   4.580
65950W        W34355   1.813  11.313   1.403
65951W        W34356  16.171  36.882   0.292
65952W        W34357   5.332  15.894  12.085
65953W        W34358  29.287   3.353  11.959
65954W        W34359   9.431   3.025   4.495
65955W        W34360  27.261   2.788   0.319
65956W        W34361  33.068  21.774   2.855
65957W        W34362   0.741   7.150   9.951
65958W        W34363  28.016  30.819  11.770
65959W        W34364  34.964  26.215  14.989
65960W        W34365  43.309   9.807   3.953
65961W        W34366  36.320  26.471   2.451
65962W        W34367   5.422  43.386  12.186
65963W        W34368  17.681   9.639   5.335
65964W        W34369  30.970  17.516   4.689
65965W        W34370  20.572  13.346  11.502
65966W        W34371  40.474   4.844   0.935
65967W        W34372  28.584  14.640  10.985
65968W        W34373  24.548  37.980  14.664
65969W        W34374   6.805  20.419  11.097
65970W        W34375   1.202  16.558   3.212
65971W        W34376  40.195   2.889  12.511
65972W        W34377   8.256  15.907   0.509
65973W        W34378  35.031   0.905  14.365
65974W        W34379  10.986   2.419   2.257
65975W        W34380  29.585   9.441  10.759
65976W        W34381  12.748   8.222   1.343
65977W        W34382   6.588  18.547   4.700
65978W        W34383  44.996  19.477  14.465
65979W        W34384  31.443  36.801  12.043
65980W        W34385  35.545  42.280  13.539
65981W        W34386  44.843  17.885  11.060
65982W        W34387   3.502  30.952   1.576
65983W        W34388  14.891  24.964   9.697
65984W        W34389  44.127  36.430   3.532
65985W        W34390  27.257  30.344  14.913
65986W        W34391   5.295  17.991   4.263
65987W        W34392   9.164  37.874   1.207
65988W        W34393  28.539  16.989  10.437
65989W        W34394   8.802  22.450   1.736
65990W        W34395  13.331  31.513  11.474
65991W        W34396  44.449  18.999  12.903
65992W        W34397   9.677  40.329  11.006
65993W        W34398   2.379  15.813   0.090
65994W        W34399  36.025   2.158  13.898
65995W        W34400  39.445  42.749  10.603
65996W        W34401   2.277  37.913  12.977
65997W        W34402   5.276  15.679   1.370
65998W        W34403  38.474  10.546  11.497
65999W        W34404   8.950   9.317   1.559
66000W        W34405   2.358   1.721   1.246
66001W        W34406  31.022  11.971  14.685
66002W        W34407   4.303   9.169  10.943
66003W        W34408  39.056  26.956   2.311
66004W        W34409  31.956  33.356  14.109
66005W        W34410  15.665  33.514  12.592
66006W        W34411   2.078  10.143   3.527
66007W        W34412  14.442  27.444   3.749
66008W        W34413  14.789   7.925   2.616
66009W        W34414  32.470  14.694   0.482
66010W        W34415  30.626  10.852   1.212
66011W        W34416  28.140  10.141   3.066
66012W        W34417  29.794  27.466  13.928
66013W        W34418  15.783  21.744  14.362
66014W        W34419   9.718  15.532   0.397
66015W        W34420  26.426  27.792   1.771
66016W        W34421   6.634  17.734  13.461
66017W        W34422   7.195  17.126  12.538
66018W        W34423   6.874  38.664   4.659
66019W        W34424   7.548  20.101  13.164
66020W        W34425  42.090  38.348   0.523
66021W        W34426  13.230   1.047   4.203
66022W        W34427  41.475  25.000  11.617
66023W        W34428  29.591  43.391  11.700
66024W        W34429  42.345  30.582   2.109
66025W        W34430  18.249  34.464   2.207
66026W        W34431  35.657  25.611   4.628
66027W        W34432  42.197  42.447  12.524
66028W        W34433  21.934  16.275   3.259
66029W        W34434  21.030  34.974   3.730
66030W        W34435  23.399  40.495  11.894
66031W        W34436   1.227  43.350   3.283
66032W        W34437   5.181  14.660   4.195
66033W        W34438  25.053  35.941  13.983
66034W        W34439   7.446  34.291  13.188
66035W        W34440  37.125   0.237  14.107
66036W        W34441   5.693  20.300  13.043
66037W        W34442   4.418   7.429  14.836
66038W        W34443   6.769  37.798   3.495
66039W        W34444  38.501  21.010  14.517
66040W        W34445   4.376  39.958   4.130
66041W        W34446  23.771  32.988   3.786
66042W        W34447  33.361  34.660  12.590
66043W        W34448  34.503  21.733  14.018
66044W        W34449  44.180  20.499  12.935
66045W        W34450  19.260  40.995   2.915
66046W        W34451  11.348  43.340   1.037
66047W        W34452   2.242  22.178  14.783
66048W        W34453  29.881  29.101  12.423
66049W        W34454  42.405  37.124  12.251
66050W        W34455  35.737   7.675   0.428
66051W        W34456  29.444  14.199  12.566
66052W        W34457  30.076  32.636  11.418
66053W        W34458  26.072   6.262  10.573
66054W        W34459  13.744  28.247  11.504
66055W        W34460  36.183  24.034  10.744
66056W        W34461  11.523   6.584   1.378
66057W        W34462   6.699  42.095   4.130
66058W        W34463  28.459  23.027  13.207
66059W        W34464  21.180   2.419  12.001
66060W        W34465  32.447   6.597   2.280
66061W        W34466  12.712   5.110   2.666
66062W        W34467  10.600  19.590  12.945
66063W        W34468  31.653  21.163  11.594
66064W        W34469   4.801  39.036  11.136
66065W        W34470  37.085  38.008  14.805
66066W        W34471  44.048  24.975   0.892
66067W        W34472  27.272  17.289   4.112
66068W        W34473  15.744  16.443  12.359
66069W        W34474  27.201   4.823  12.864
66070W        W34475  40.429  22.508  12.975
66071W        W34476   6.198  16.577  11.472
66072W        W34477   5.437  17.340  12.194
66073W        W34478  34.779  16.063   2.721
66074W        W34479  11.310  13.552   4.181
66075W        W34480  21.199  23.033   2.945
66076W        W34481  11.701   2.653  14.671
66077W        W34482  29.879  29.088   4.783
66078W        W34483  26.797  12.562  14.391
66079W        W34484  37.885  33.062   0.323
66080W        W34485  30.710  42.414  12.380
66081W        W34486  36.104  33.458  14.897
66082W        W34487  23.399  43.670  14.663
66083W        W34488  28.616  39.393   1.788
66084W        W34489  35.153   2.736   1.753
66085W        W34490  11.821  32.051  13.273
66086W        W34491  20.766  41.387  11.170
66087W        W34492   0.352  33.883   3.715
66088W        W34493  42.394   2.866   3.750
66089W        W34494  16.764   5.271  10.904
66090W        W34495  33.998  34.517  13.752
66091W        W34496   7.381  21.335  13.714
66092W        W34497  19.365  27.223  10.660
66093W        W34498  28.074  15.096  14.046
66094W        W34499  41.027  10.057  14.626
66095W        W34500   2.999   4.988   5.074
66096W        W34501  11.899  41.663   0.772
66097W        W34502  11.252   2.768   3.691
66098W        W34503  25.235  32.663   0.215
66099W        W34504  44.476  38.078  14.410
66100W        W34505  25.686  31.089   1.163
66101W        W34506   6.718  40.842   0.019
66102W        W34507  29.003  15.167   4.119
66103W        W34508  17.735  31.526   4.559
66104W        W34509  13.222   7.444  11.182
66105W        W34510  17.897   6.157   4.093
66106W        W34511  37.989  41.196   1.390
66107W        W34512  19.551   4.035   0.226
66108W        W34513  40.094   7.280  14.597
66109W        W34514  35.143   4.787  12.408
66110W        W34515  15.641  21.310   4.503
66111W        W34516  30.201  43.049  14.412
66112W        W34517   8.476  30.501  12.961
66113W        W34518  17.803  10.142  11.157
66114W        W34519  39.064  34.620   3.491
66115W        W34520   0.839  22.593  13.977
66116W        W34521  11.257  25.066   2.908
66117W        W34522  33.182   0.037   4.105
66118W        W34523  17.916  37.779  10.379
66119W        W34524  13.040  25.737  13.367
66120W        W34525  22.103  41.857  12.227
66121W        W34526  20.791   3.281   4.207
66122W        W34527  31.751  29.548   1.026
66123W        W34528   7.710  38.857   4.243
66124W        W34529  22.041  34.944  13.395
66125W        W34530  38.551  34.373   4.142
66126W        W34531  42.359  39.865   3.855
66127W        W34532  38.524  18.485   3.778
66128W        W34533  37.639  15.752  11.416
66129W        W34534  44.340   4.703  14.481
66130W        W34535  28.589  21.539  11.969
66131W        W34536  20.994   5.064   2.715
66132W        W34537  27.508   0.540  11.095
66133W        W34538  28.994  31.675   2.477
66134W        W34539  13.579  24.080   2.836
66135W        W34540  38.670   1.786  14.007
66136W        W34541  19.668  16.231   4.364
66137W        W34542  20.241  29.787   3.165
66138W        W34543   6.886   3.904   0.773
66139W        W34544  18.035  28.709  12.896
66140W        W34545  34.186   6.472   3.676
66141W        W34546  41.043  16.506  11.116
66142W        W34547  32.411  26.619  10.966
66143W        W34548  38.290  17.088  10.972
66144W        W34549   8.308  35.304   1.369
66145W        W34550  39.952  21.106  10.420
66146W        W34551  17.394   3.145   3.231
66147W        W34552  42.575  32.184  13.007
66148W        W34553  21.361   7.350   4.606
66149W        W34554   6.330  37.934  11.330
66150W        W34555  14.579  24.646   2.036
66151W        W34556  22.994  20.207  12.656
66152W        W34557  26.081   8.887  12.084
66153W        W34558  35.274  34.357   0.469
66154W        W34559  24.784  18.136  13.675
66155W        W34560  20.629  22.478  13.305
66156W        W34561  10.628  30.927   4.085
66157W        W34562  37.324  30.974  12.393
66158W        W34563   2.306  11.772  12.909
66159W        W34564  29.854  40.700   1.339
66160W        W34565  29.720  34.912   0.414
66161W        W34566  20.171  30.705  12.027
66162W        W34567  18.139  15.788  12.142
66163W        W34568  35.710   3.215   4.992
66164W        W34569   7.748  14.690   0.530
66165W        W34570  30.407  14.116  10.667
66166W        W34571  19.819  25.967  10.465
66167W        W34572  12.049  33.022  12.103
66168W        W34573  33.150   3.462   2.318
66169W        W34574  26.119   8.402  11.041
66170W        W34575  30.084  16.734  14.464
66171W        W34576  24.800  11.284  11.284
66172W        W34577  12.799  27.038   4.816
66173W        W34578  40.242   6.857  14.314
66174W        W34579  15.068   7.964   3.189
66175W        W34580  20.448  36.387  12.012
66176W        W34581  12.114   0.295   1.115
66177W        W34582  10.161   8.224  13.269
66178W        W34583  23.940  11.916   4.733
66179W        W34584  37.898   2.472  11.205
66180W        W34585  18.765   4.273   0.449
66181W        W34586  40.272   3.172   4.077
66182W        W34587  33.969  26.088  13.163
66183W        W34588  24.866  12.118  13.373
66184W        W34589  36.612  19.267   1.304
66185W        W34590  23.595   1.817  12.545
66186W        W34591   1.306  38.932  12.559
66187W        W34592   1.674   5.636  12.540
66188W        W34593  13.719  43.781   5.012
66189W        W34594  44.355   3.834   4.967
66190W        W34595   8.655  12.839   2.093
66191W        W34596   2.169  27.093  11.579
66192W        W34597  29.687   3.966   0.414
66193W        W34598  21.829  16.240  12.960
66194W        W34599  22.908  22.131  12.449
66195W        W34600  10.046  26.537  14.013
66196W        W34601  35.604  22.593  14.840
66197W        W34602  28.033  10.889   0.427
66198W        W34603  40.767  38.941  10.485
66199W        W34604  12.145  24.091  11.428
66200W        W34605   5.793  38.405  11.062
66201W        W34606  13.803  13.862   3.319
66202W        W34607  38.102  18.968   2.660
66203W        W34608  10.459  32.462   5.029
66204W        W34609  14.812  40.612   4.200
66205W        W34610  27.975   2.316   0.269
66206W        W34611  18.442   2.004   5.039
66207W        W34612   8.272  27.669  11.911
66208W        W34613  28.597   9.252  14.898
66209W        W34614  34.413  29.979  13.220
66210W        W34615  31.924  16.809  13.866
66211W        W34616  38.840  40.077  10.816
66212W        W34617  34.735   3.209   0.865
66213W        W34618  41.245  20.618  12.958
66214W        W34619   8.806   3.251   3.488
66215W        W34620  30.544  10.653   3.676
66216W        W34621  42.268  27.987   1.784
66217W        W34622  38.308  27.269   2.822
66218W        W34623  25.501  17.108  13.906
66219W        W34624  34.403  43.264   4.547
66220W        W34625   7.340   0.372  11.576
66221W        W34626  16.059   7.205  11.080
66222W        W34627  33.246  41.044  14.987
66223W        W34628  30.105   5.926  14.866
66224W        W34629  18.622   7.912  11.671
66225W        W34630  15.960  29.543  10.034
66226W        W34631  42.926  39.489   3.246
66227W        W34632  33.487  21.734   1.739
66228W        W34633  30.097   6.937   0.301
66229W        W34634  33.182  22.546   4.239
66230W        W34635  25.374  26.606   4.594
66231W        W34636  32.510  14.347   1.900
66232W        W34637  13.668  34.005   5.026
66233W        W34638   6.792  12.393   1.476
66234W        W34639  15.017  17.882   4.578
66235W        W34640  39.379  40.728   4.515
66236W        W34641  14.697  14.888   0.898
66237W        W34642  31.671  34.730   3.199
66238W        W34643  27.997  35.379   1.055
66239W        W34644  16.638  24.592   1.252
66240W        W34645  28.813  12.915   4.127
66241W        W34646  24.298  29.081  13.039
66242W        W34647  16.417  36.631  14.890
66243W        W34648   4.762  41.489  13.217
66244W        W34649  12.629  27.681  12.887
66245W        W34650   3.362  12.675  14.451
66246W        W34651  42.300  16.161  14.304
66247W        W34652  22.078  38.278  11.160
66248W        W34653  22.752  27.727   0.793
66249W        W34654   1.260   9.733  11.029
66250W        W34655  25.119  34.678  14.601
66251W        W34656  35.028  29.598   0.755
66252W        W34657  29.003  24.708   0.702
66253W        W34658  25.120  14.890  11.188
66254W        W34659  12.199  42.007   1.698
66255W        W34660  34.558   4.227   0.118
66256W        W34661  33.715  21.037  12.566
66257W        W34662  13.907  18.028   2.579
66258W        W34663   2.432  32.640   4.777
66259W        W34664  13.354  24.462  11.847
66260W        W34665   7.527  15.827   0.690
66261W        W34666  18.035  19.294   2.405
66262W        W34667  41.060  16.316  14.773
66263W        W34668  30.052  39.768  11.538
66264W        W34669  13.830  13.152  11.988
66265W        W34670  29.936  23.523  12.477
66266W        W34671  12.154   6.684   3.800
66267W        W34672  16.131   8.060  11.115
66268W        W34673  42.477   5.409  10.402
66269W        W34674   4.029  37.488  14.867
66270W        W34675   3.829  12.841  10.790
66271W        W34676  22.498   7.451   4.064
66272W        W34677  22.997   8.810   3.747
66273W        W34678  27.570   2.406  13.841
66274W        W34679  27.959  11.601   3.797
66275W        W34680   3.055  37.807  13.510
66276W        W34681  33.735   3.445   4.114
66277W        W34682  23.034  25.105   4.294
66278W        W34683  36.529   2.447   2.868
66279W        W34684   1.695   7.205  12.219
66280W        W34685  27.174  34.588   4.665
66281W        W34686  25.669  10.069  10.138
66282W        W34687  26.145  41.438  10.260
66283W        W34688  37.375  37.318   1.328
66284W        W34689  11.686  44.823  11.566
66285W        W34690  11.310  37.822   2.246
66286W        W34691  12.669  43.930   3.170
66287W        W34692  44.180  37.452  11.365
66288W        W34693  33.817   9.401   2.574
66289W        W34694  23.705   5.443  13.537
66290W        W34695  34.057  36.131   2.181
66291W        W34696  16.195   6.307  10.681
66292W        W34697   0.329   7.898   3.223
66293W        W34698  17.047   1.287   1.643
66294W        W34699  10.643   1.103  11.036
66295W        W34700  35.352   2.207  14.703
66296W        W34701   1.599  16.496  12.217
66297W        W34702  18.080  26.632   0.465
66298W        W34703  26.024   7.670   0.393
66299W        W34704  37.415   5.256   1.539
66300W        W34705  33.345   2.269  13.082
66301W        W34706  35.073   1.467  13.375
66302W        W34707  12.308  26.703  14.454
66303W        W34708  19.440   7.066  10.465
66304W        W34709  43.356  18.283   2.338
66305W        W34710   2.293  39.500  13.479
66306W        W34711  12.956  34.094  11.112
66307W        W34712  23.632  19.592   2.751
66308W        W34713  22.826  33.614  14.456
66309W        W34714  40.563  43.334   0.490
66310W        W34715   1.903  19.239  13.644
66311W        W34716   7.378  38.391   0.642
66312W        W34717  16.264   2.933   0.737
66313W        W34718  20.291  11.633  14.846
66314W        W34719   0.881  28.090  13.930
66315W        W34720  33.551   5.649   2.852
66316W        W34721  36.858  13.822   3.354
66317W        W34722   2.448  40.929   1.692
66318W        W34723  15.527  13.810   0.309
66319W        W34724  15.087  34.993   2.897
66320W        W34725  31.058   9.737   3.871
66321W        W34726  26.962  19.627  14.925
66322W        W34727  30.443  40.973  14.077
66323W        W34728  35.355   4.603  14.943
66324W        W34729  30.910  14.307   2.234
66325W        W34730   0.970   3.234   5.060
66326W        W34731  32.073  24.504   1.896
66327W        W34732  41.851   8.282   2.479
66328W        W34733  41.694  41.446   2.809
66329W        W34734  28.015  24.727  13.486
66330W        W34735  15.550  29.882  14.858
66331W        W34736  24.071  16.030   2.672
66332W        W34737  34.342  10.813   0.425
66333W        W34738  14.854   2.460  10.750
66334W        W34739  16.133   3.871   2.538
66335W        W34740  43.901  20.636   4.229
66336W        W34741   6.068  32.072   1.865
66337W        W34742   4.141  20.764  14.438
66338W        W34743  39.413  13.692  13.960
66339W        W34744  20.525  31.983  10.214
66340W        W34745   3.318  19.175  11.361
66341W        W34746  40.719  10.173   2.339
66342W        W34747  27.522  13.901  10.518
66343W        W34748  13.425  23.922  14.391
66344W        W34749   4.894  30.068   4.616
66345W        W34750  28.840  15.628   1.958
66346W        W34751  19.044  15.565   0.074
66347W        W34752  30.788   6.399   0.474
66348W        W34753  21.683  44.906   2.839
66349W        W34754  14.202  16.091  13.995
66350W        W34755  37.523   2.039   1.141
66351W        W34756  13.631  19.782  11.923
66352W        W34757  33.462  34.502   1.311
66353W        W34758   9.249   8.278   1.288
66354W        W34759  30.648  27.698  13.436
66355W        W34760  43.010   1.332  14.381
66356W        W34761  15.756  14.170   4.588
66357W        W34762  14.216   6.463  13.218
66358W        W34763  41.045  18.284  14.149
66359W        W34764  41.804  31.205   3.616
66360W        W34765  39.309   5.925  12.069
66361W        W34766  17.255   0.441   4.867
66362W        W34767  14.634  40.598   2.819
66363W        W34768  29.899  10.179   4.089
66364W        W34769  18.473  10.867   1.218
66365W        W34770  39.071  11.169  11.897
66366W        W34771  23.012  26.439   4.469
66367W        W34772  42.190  38.137  11.166
66368W        W34773  27.134  34.913  10.964
66369W        W34774  15.854  13.663  14.866
66370W        W34775  39.719  19.208  14.734
66371W        W34776  44.882  36.097  13.434
66372W        W34777  29.407   8.105  14.874
66373W        W34778  18.272  39.179   4.601
66374W        W34779  19.014  28.031   1.755
66375W        W34780  10.308  19.099   0.813
66376W        W34781  35.897  39.137   4.328
66377W        W34782  42.325  36.146  11.959
66378W        W34783  33.994  27.227   1.042
66379W        W34784  29.125  14.124  12.030
66380W        W34785  15.058  29.204  14.787
66381W        W34786  23.255  44.518   2.759
66382W        W34787  16.545   9.568  12.611
66383W        W34788  13.399  35.102   1.861
66384W        W34789  22.765  33.340   4.580
66385W        W34790  11.403  35.857   2.415
66386W        W34791   9.982  26.121  14.830
66387W        W34792  44.244  42.924   3.684
66388W        W34793  44.217  15.069   2.718
66389W        W34794  15.090   4.854   1.950
66390W        W34795  37.500  32.292   5.000
66391W        W34796  27.688  10.312  14.922
66392W        W34797  22.557  37.532   0.055
66393W        W34798  25.624  22.060  11.013
66394W        W34799  33.944   4.154  12.467
66395W        W34800   8.169  44.046  14.692
66396W        W34801  29.769  18.461   3.183
66397W        W34802  25.940  36.844   3.369
66398W        W34803   4.096   6.493  14.990
66399W        W34804  34.460  23.997   2.544
66400W        W34805  37.018  28.922   1.007
66401W        W34806  15.498  17.149   4.342
66402W        W34807  39.718  28.721  10.992
66403W        W34808  33.289   2.831   0.782
66404W        W34809  32.429   6.564  13.983
66405W        W34810  42.872  10.077   3.979
66406W        W34811  21.197   0.974   1.921
66407W        W34812  22.982   9.617   4.150
66408W        W34813  28.977  29.849   2.148
66409W        W34814   8.391  17.219  13.270
66410W        W34815  13.510  39.966   4.062
66411W        W34816  28.163  35.428   1.846
66412W        W34817  14.148   8.433  13.422
66413W        W34818  14.223   0.492  14.447
66414W        W34819   4.838   4.773  11.280
66415W        W34820  39.281   6.300   2.389
66416W        W34821  33.302  10.609   0.354
66417W        W34822  37.462   4.739   1.459
66418W        W34823  13.774   2.514   3.634
66419W        W34824  23.171  33.417   0.384
66420W        W34825  31.572  23.115   2.845
66421W        W34826  24.986  22.019   3.183
66422W        W34827  19.304  35.425   1.946
66423W        W34828   5.571  39.909   1.708
66424W        W34829   4.877  17.545  12.930
66425W        W34830  35.275  24.731  13.342
66426W        W34831  34.564  14.703  10.392
66427W        W34832   5.750   5.312   3.804
66428W        W34833  12.781  15.109   3.272
66429W        W34834   1.392  31.847   0.086
66430W        W34835  43.235   7.253   1.003
66431W        W34836  31.879  21.627  12.475
66432W        W34837  34.590  24.259   4.633
66433W        W34838  31.312   7.897   3.856
66434W        W34839  42.516   1.226  14.548
66435W        W34840   6.414  15.089  14.204
66436W        W34841  15.077  36.870  13.848
66437W        W34842  39.788  30.028   3.288
66438W        W34843  42.973  13.327   2.152
66439W        W34844   5.087  19.099   1.080
66440W        W34845  12.323  34.435   2.780
66441W        W34846  29.668  37.589  14.472
66442W        W34847   4.525  35.146  13.432
66443W        W34848   6.603  24.356   0.386
66444W        W34849   4.434  13.538   4.407
66445W        W34850  38.766  21.222  10.973
66446W        W34851  24.074  29.901  10.698
66447W        W34852   9.252  13.065   0.737
66448W        W34853  36.587  43.273  10.648
66449W        W34854  23.110  34.504  12.379
66450W        W34855  33.589  38.360   3.778
66451W        W34856   3.323  13.050  10.695
66452W        W34857  34.575  14.702  14.923
66453W        W34858  20.513  25.657  10.164
66454W        W34859  27.393   4.492   2.850
66455W        W34860  16.825  37.948  11.643
66456W        W34861   2.639  19.806  13.866
66457W        W34862  37.604  14.316   2.224
66458W        W34863   4.896  27.401   3.165
66459W        W34864   6.693  21.711   1.904
66460W        W34865  14.557  26.090  14.775
66461W        W34866  16.827  30.385  13.547
66462W        W34867  33.103  31.182   1.357
66463W        W34868   7.867  22.031   3.894
66464W        W34869  16.104   4.479  14.006
66465W        W34870  26.160  40.060   2.213
66466W        W34871   0.076  11.326   4.990
66467W        W34872  14.774  20.569  13.600
66468W        W34873  37.763  34.060   0.067
66469W        W34874  37.574   8.373   3.702
66470W        W34875   3.236  28.068   4.956
66471W        W34876  37.529  37.437  11.402
66472W        W34877   9.109  33.178  12.969
66473W        W34878  16.719   4.458   4.599
66474W        W34879  19.859  43.087  11.359
66475W        W34880  33.316  13.746   2.925
66476W        W34881  41.957  29.149  13.472
66477W        W34882  26.909  11.652   2.419
66478W        W34883  17.024  17.037   3.101
66479W        W34884  30.782  34.475  11.568
66480W        W34885  31.839  36.605  10.831
66481W        W34886   9.740  42.336   1.109
66482W        W34887  35.061  33.946   0.695
66483W        W34888  28.550  25.614   4.233
66484W        W34889  36.130  40.868   1.023
66485W        W34890  26.130  39.289  10.724
66486W        W34891  16.753  13.994  13.983
66487W        W34892  43.439  10.151  14.861
66488W        W34893  14.211  28.468  11.450
66489W        W34894  19.292   1.151   0.783
66490W        W34895  38.868  41.374   0.777
66491W        W34896  39.653  12.965   4.251
66492W        W34897  22.373  35.071   4.265
66493W        W34898  37.553  40.901   4.230
66494W        W34899  34.902  44.803   3.735
66495W        W34900  33.475  28.216   1.970
66496W        W34901  25.840  37.810   4.537
66497W        W34902  21.095   4.256   1.874
66498W        W34903   5.904   0.998   3.941
66499W        W34904  15.638  41.785  13.455
66500W        W34905  19.957  35.047   1.922
66501W        W34906  37.677  27.382   0.557
66502W        W34907  38.769   8.890  14.331
66503W        W34908  22.740   3.947  12.496
66504W        W34909  11.533  13.877   1.670
66505W        W34910   6.636   7.468   2.122
66506W        W34911   8.742  41.694  10.759
66507W        W34912  21.479  22.617  11.096
66508W        W34913  36.302  42.977  10.948
66509W        W34914  24.755  19.255  12.709
66510W        W34915  40.756  30.460   0.843
66511W        W34916  38.997   8.730   3.393
66512W        W34917  17.333  34.789  13.462
66513W        W34918  38.574   6.358   1.847
66514W        W34919  32.551  12.115  12.946
66515W        W34920  44.159  22.136  13.014
66516W        W34921  37.441   5.481   2.000
66517W        W34922  32.513  41.499  14.826
66518W        W34923   6.303  32.449  13.827
66519W        W34924  33.065  26.954  13.450
66520W        W34925  36.876  21.539  13.445
66521W        W34926  17.650   0.302  10.685
66522W        W34927  41.637  32.023   1.908
66523W        W34928  34.634   0.908   4.215
66524W        W34929   5.461  32.101   0.101
66525W        W34930  42.265  42.895  12.797
66526W        W34931  38.945  30.923  10.157
66527W        W34932  23.517  33.884  14.914
66528W        W34933  30.694  21.619   0.278
66529W        W34934  28.338  41.779   5.276
66530W        W34935  31.964  24.675   4.431
66531W        W34936  33.326  21.988   2.392
66532W        W34937  10.702  38.420  10.561
66533W        W34938  34.477  26.047   3.938
66534W        W34939  16.352  40.862  12.229
66535W        W34940   5.724   7.585   2.095
66536W        W34941   1.880  38.511   4.531
66537W        W34942  12.653  28.234  10.612
66538W        W34943   1.894   3.181  12.921
66539W        W34944   1.037  16.821   5.043
66540W        W34945  44.155   4.314  12.508
66541W        W34946  33.732   0.231  14.481
66542W        W34947  26.609  18.153  13.955
66543W        W34948  34.085   7.585  10.586
66544W        W34949   3.165  34.871  12.063
66545W        W34950  13.047  26.610   3.546
66546W        W34951   4.446  23.041  13.898
66547W        W34952  24.053  32.316   4.639
66548W        W34953  31.102  25.593  13.830
66549W        W34954  38.656  26.615   0.904
66550W        W34955  19.868   8.230   3.219
66551W        W34956   8.128  19.660  10.821
66552W        W34957   4.520  13.783  13.828
66553W        W34958  42.404  24.978   3.604
66554W        W34959   4.585  28.746  11.699
66555W        W34960  10.147  18.688  12.143
66556W        W34961  17.717  43.983  11.190
66557W        W34962   3.890  17.171   0.337
66558W        W34963  25.933  16.969   3.646
66559W        W34964  21.045  29.509  11.125
66560W        W34965  24.534  20.699  12.086
66561W        W34966  28.906  19.743  12.056
66562W        W34967  41.774   0.748  13.750
66563W        W34968  37.770  21.283  11.245
66564W        W34969  17.492  31.149   1.164
66565W        W34970  29.588  18.258  14.258
66566W        W34971   5.517  18.863   3.278
66567W        W34972  39.318  11.769  10.670
66568W        W34973  16.041  22.686   0.435
66569W        W34974  29.886  40.624   2.341
66570W        W34975  37.307   3.378   3.961
66571W        W34976  22.042  18.137  11.703
66572W        W34977  18.137   3.223  14.979
66573W        W34978  25.631  21.034   4.923
66574W        W34979  31.435  33.573  13.687
66575W        W34980  39.506  41.276  10.440
66576W        W34981   9.037   3.989   0.378
66577W        W34982   7.487  22.077   4.231
66578W        W34983  29.134   4.343  11.143
66579W        W34984  10.890   5.741  11.602
66580W        W34985  35.487   3.653  10.359
66581W        W34986  22.431   0.738   4.129
66582W        W34987  28.705  33.676   4.625
66583W        W34988  19.982   1.000  12.403
66584W        W34989  29.545   9.501   2.677
66585W        W34990   9.356  43.774   3.075
66586W        W34991  28.616  16.309   4.557
66587W        W34992   1.520  11.561   0.405
66588W        W34993  43.990  10.028   2.861
66589W        W34994   3.375  25.826  10.601
66590W        W34995  22.914   3.663   1.181
66591W        W34996  40.314  39.777   0.544
66592W        W34997  14.058  24.151   4.573
66593W        W34998  30.856  31.572   1.661
66594W        W34999  18.129  41.530  13.148
66595W        W35000  30.517  15.182   2.836
66596W        W35001  36.007  14.182  10.792
66597W        W35002   6.254   1.486  11.162
66598W        W35003   4.212  29.416  13.584
66599W        W35004   5.341  12.197  11.492
66600W        W35005  29.148  26.501  12.072
66601W        W35006  11.863  20.622   3.186
66602W        W35007  27.328  10.403   1.802
66603W        W35008  27.420   8.027   0.009
66604W        W35009  34.031   3.356  13.086
66605W        W35010  32.541  41.796   4.092
66606W        W35011   1.360  44.871   3.102
66607W        W35012  42.961  16.781  13.128
66608W        W35013  29.775  41.492   2.903
66609W        W35014  40.450  17.202   1.472
66610W        W35015   2.010  39.062  13.548
66611W        W35016  20.573   8.724   2.078
66612W        W35017  20.551  36.407   2.457
66613W        W35018  38.091   3.052  14.491
66614W        W35019  30.720  24.663  14.288
66615W        W35020  12.571   4.369  13.095
66616W        W35021  21.306  29.426  10.679
66617W        W35022  19.374  33.451  11.609
66618W        W35023  20.994  40.761  13.000
66619W        W35024  42.447  30.177  14.555
66620W        W35025  39.828  27.061  11.763
66621W        W35026  16.664   2.982   0.419
66622W        W35027  17.752  39.427  11.523
66623W        W35028  37.781  20.758  11.116
66624W        W35029   3.331  38.973  12.824
66625W        W35030  31.457  18.365   4.617
66626W        W35031  40.381  41.543   3.366
66627W        W35032   0.482  19.350   3.630
66628W        W35033  33.905  18.086   2.170
66629W        W35034  21.776  41.617   3.805
66630W        W35035  16.253  31.593  12.580
66631W        W35036  18.261  36.883   0.202
66632W        W35037  25.577  25.650   1.794
66633W        W35038   2.362   2.975  11.396
66634W        W35039   9.823  10.806   0.784
66635W        W35040  28.049  19.246  11.999
66636W        W35041   9.997  35.072  12.345
66637W        W35042   8.478  17.366  12.043
66638W        W35043  21.633   1.282   4.419
66639W        W35044  14.798  10.355   3.381
66640W        W35045   6.801  18.283  10.719
66641W        W35046   3.859  10.587   2.870
66642W        W35047  21.934  14.735   3.254
66643W        W35048  22.250   5.188  13.218
66644W        W35049  44.930  31.690  10.592
66645W        W35050  12.252  19.347  10.517
66646W        W35051  11.819  38.152  12.517
66647W        W35052  31.535   0.522  14.849
66648W        W35053  20.807  37.962   4.993
66649W        W35054  18.072  37.058  13.493
66650W        W35055  37.826  38.927   1.171
66651W        W35056  29.431  12.240   1.244
66652W        W35057  28.220   2.761  12.329
66653W        W35058  30.072   9.278   1.692
66654W        W35059  44.073  20.094  13.429
66655W        W35060  30.291  33.826   4.193
66656W        W35061  19.497  15.826   1.385
66657W        W35062  17.734   6.955   1.853
66658W        W35063  23.584  18.710  10.479
66659W        W35064  15.241  35.110   1.932
66660W        W35065   0.895   8.645   0.829
66661W        W35066   5.302  39.405   2.860
66662W        W35067  20.720  30.354   0.341
66663W        W35068  24.170  20.722   4.623
66664W        W35069  14.200   9.882  13.767
66665W        W35070  23.347   5.915  13.535
66666W        W35071   2.395  18.071  11.739
66667W        W35072   0.908  26.954  11.350
66668W        W35073   3.314  16.715   4.364
66669W        W35074   7.939  10.082   0.394
66670W        W35075  28.111  12.136  13.888
66671W        W35076  39.264   2.823   2.751
66672W        W35077  28.529  34.637   0.716
66673W        W35078  11.035  25.955   2.694
66674W        W35079  35.070  17.695  11.439
66675W        W35080   1.406   5.255   0.368
66676W        W35081  28.437  10.370  14.554
66677W        W35082  40.517  30.159   4.485
66678W        W35083  19.055  37.719  14.387
66679W        W35084  22.143  11.114   2.335
66680W        W35085  28.324  33.683  10.960
66681W        W35086  16.546  35.341  13.944
66682W        W35087  16.610  33.882  12.562
66683W        W35088  35.689  11.180  12.043
66684W        W35089  28.449   2.650   3.339
66685W        W35090  37.215   0.671  12.851
66686W        W35091  42.490   1.229  10.774
66687W        W35092  33.660  16.151  10.717
66688W        W35093  25.927   4.881   1.525
66689W        W35094  44.616  43.394  13.383
66690W        W35095  16.090   3.056   2.738
66691W        W35096   6.497  24.578  14.046
66692W        W35097   3.659   4.292  11.134
66693W        W35098  41.826   0.270  13.550
66694W        W35099  21.341  33.140   0.398
66695W        W35100  37.958  32.764  13.329
66696W        W35101  29.760  23.764  13.324
66697W        W35102   8.587  34.199   1.392
66698W        W35103  25.548  11.331  14.905
66699W        W35104  25.945  13.415  12.209
66700W        W35105  21.813  43.977  14.032
66701W        W35106  10.923  35.080  11.859
66702W        W35107   3.741  24.825  12.990
66703W        W35108  37.798  31.922  14.806
66704W        W35109  11.705  25.116   2.642
66705W        W35110  33.944  35.120  11.113
66706W        W35111  42.522  21.584  13.407
66707W        W35112  12.414  32.976   0.803
66708W        W35113  42.342   2.912  11.643
66709W        W35114  14.774  18.667   3.648
66710W        W35115  25.955   1.247  11.941
66711W        W35116  12.794  19.226  12.437
66712W        W35117  17.075  12.834  11.148
66713W        W35118  33.909   1.793   2.590
66714W        W35119  38.618  38.923   4.764
66715W        W35120   5.854  28.256   1.385
66716W        W35121   7.248  35.476   3.269
66717W        W35122   4.104  35.879   4.250
66718W        W35123  38.827  25.451  12.039
66719W        W35124   5.007  15.043  11.753
66720W        W35125  33.639  12.450   2.263
66721W        W35126  39.980  14.066   0.756
66722W        W35127  12.996  24.207  14.537
66723W        W35128   4.290  16.147   0.667
66724W        W35129  30.212  37.494   0.344
66725W        W35130  35.578  38.404  14.465
66726W        W35131  13.082   7.612  14.827
66727W        W35132  15.651  32.220  12.512
66728W        W35133  14.274  21.169  11.459
66729W        W35134  16.718  40.066   2.809
66730W        W35135  30.173  34.894  13.629
66731W        W35136  24.713  29.575   2.826
66732W        W35137  43.249  39.399   4.255
66733W        W35138   5.682  28.450   1.830
66734W        W35139  27.933  26.405   3.907
66735W        W35140  26.551   2.001  14.546
66736W        W35141  34.191  13.849   2.411
66737W        W35142  22.566  15.677   0.017
66738W        W35143  23.032   1.538   1.652
66739W        W35144  28.587   9.922  10.965
66740W        W35145   8.770  35.231  11.683
66741W        W35146   5.175   4.864   3.415
66742W        W35147  14.481  10.316  11.046
66743W        W35148  30.152  40.228   0.564
66744W        W35149   7.867   1.834  11.960
66745W        W35150  21.146  14.681  14.967
66746W        W35151  40.748  13.781  11.638
66747W        W35152  29.075  27.645   3.256
66748W        W35153  27.902  35.163  11.974
66749W        W35154   6.725  14.767   0.498
66750W        W35155   4.599  37.381   0.034
66751W        W35156  23.735  11.679  14.107
66752W        W35157  16.528   5.941  10.601
66753W        W35158   5.372   6.246   2.344
66754W        W35159  16.077  41.224   1.386
66755W        W35160   7.907  24.710  12.621
66756W        W35161  22.370  21.187  10.034
66757W        W35162  15.815  27.911  10.762
66758W        W35163  44.925  24.382   3.312
66759W        W35164  10.953   9.086  13.980
66760W        W35165  38.513  19.926   2.647
66761W        W35166  35.098  31.636  11.169
66762W        W35167  29.184  42.489  12.684
66763W        W35168  35.547  26.121   1.073
66764W        W35169  38.437  24.156  13.358
66765W        W35170  15.279  12.658  14.802
66766W        W35171  21.094  30.568   2.667
66767W        W35172  40.794  44.588  12.584
66768W        W35173  31.310  39.385  12.347
66769W        W35174  10.729  14.035   3.747
66770W        W35175  34.454   6.460   4.507
66771W        W35176  37.909  29.433   2.358
66772W        W35177   2.962  14.217   4.047
66773W        W35178  27.472   6.496   3.860
66774W        W35179  28.354  34.544  10.490
66775W        W35180  40.130  40.735   3.242
66776W        W35181  12.115  43.433   1.755
66777W        W35182  32.037  30.515  10.224
66778W        W35183   5.331   5.135   0.820
66779W        W35184   4.499  28.511  12.148
66780W        W35185  31.406   5.084  14.714
66781W        W35186  16.851   4.777   0.465
66782W        W35187   9.028   8.236   2.258
66783W        W35188  16.684  32.858   4.104
66784W        W35189  13.319  42.738   3.732
66785W        W35190  42.996  13.185  11.446
66786W        W35191  10.813  29.204  11.839
66787W        W35192  28.552  25.889  10.593
66788W        W35193  42.904  37.872  13.775
66789W        W35194  44.777   3.721   3.318
66790W        W35195  27.172  27.123  14.355
66791W        W35196  39.394  30.780  14.826
66792W        W35197  35.405  37.184  12.440
66793W        W35198  41.616  24.043   4.548
66794W        W35199  44.483  23.462  13.406
66795W        W35200   1.690   5.129  12.541
66796W        W35201  33.115  26.010   3.813
66797W        W35202  20.156  26.296  13.819
66798W        W35203  35.424  11.373   0.456
66799W        W35204   2.345   9.667  10.644
66800W        W35205  34.942  10.904  12.858
66801W        W35206  26.687  27.563  11.561
66802W        W35207  37.621  28.146   1.454
66803W        W35208  36.981   4.744   1.233
66804W        W35209  18.175  44.625  14.498
66805W        W35210   9.411  13.432   3.332
66806W        W35211  16.389  39.057   4.111
66807W        W35212  14.558  33.373   2.730
66808W        W35213   3.981  24.911  13.432
66809W        W35214  18.207   6.313  14.566
66810W        W35215  21.542  17.332  12.856
66811W        W35216   3.451  13.468   4.503
66812W        W35217  33.031  21.267   4.666
66813W        W35218  29.570  23.273   3.772
66814W        W35219  43.814  43.337   1.345
66815W        W35220  42.936  28.269  12.972
66816W        W35221  43.915  30.998   4.054
66817W        W35222  35.916  43.195  12.004
66818W        W35223  23.731  13.739  11.010
66819W        W35224  12.596  21.061  10.543
66820W        W35225  26.166  35.645   3.994
66821W        W35226  11.841  30.191   3.245
66822W        W35227  41.836  38.275   2.920
66823W        W35228  28.098  15.284  12.121
66824W        W35229  39.430  36.167  14.423
66825W        W35230  19.482  30.827   1.835
66826W        W35231  35.015   4.295   2.770
66827W        W35232  38.076  40.099   1.849
66828W        W35233  34.623   3.286   1.350
66829W        W35234  39.714  44.246   4.178
66830W        W35235  40.941  32.633   1.026
66831W        W35236  17.347  37.166   3.243
66832W        W35237  44.519  18.428   2.144
66833W        W35238  33.377  36.422  12.092
66834W        W35239  30.508  40.029   0.942
66835W        W35240   9.256  33.251   2.710
66836W        W35241   4.417  25.933   4.224
66837W        W35242   5.822  10.863  10.816
66838W        W35243  21.278  34.902  12.544
66839W        W35244  21.933  12.039   0.210
66840W        W35245  24.732  31.937   3.351
66841W        W35246  33.092  40.247  14.385
66842W        W35247   8.269  15.583  13.097
66843W        W35248  15.693   6.270   0.373
66844W        W35249  22.919   3.396  12.632
66845W        W35250  26.045  18.137  11.502
66846W        W35251  36.378  23.111  12.101
66847W        W35252   7.796  16.287  14.830
66848W        W35253   1.438  15.126  12.975
66849W        W35254  27.936  14.645   0.376
66850W        W35255  16.346  43.548  13.795
66851W        W35256  26.449   2.845  11.235
66852W        W35257   1.863  36.176  13.921
66853W        W35258   9.362  42.396  12.616
66854W        W35259   6.237  43.295  11.407
66855W        W35260  17.085  11.657  13.903
66856W        W35261  30.198  25.520  14.255
66857W        W35262  18.249  25.414  14.964
66858W        W35263  11.292  17.925   1.444
66859W        W35264  32.589  21.116  11.407
66860W        W35265  30.972  44.675  13.451
66861W        W35266  14.620  18.695   1.690
66862W        W35267   3.727   0.310  11.028
66863W        W35268  24.149   4.178  14.770
66864W        W35269  20.822   8.016  14.725
66865W        W35270  42.850   4.457   3.766
66866W        W35271  30.900  17.106   1.135
66867W        W35272   9.491   8.983  13.453
66868W        W35273  11.609   1.910   5.013
66869W        W35274  43.495  39.535  13.529
66870W        W35275   8.297  35.813   1.013
66871W        W35276  37.483   5.732  10.528
66872W        W35277  10.860  20.234   0.307
66873W        W35278   6.231  44.032   0.822
66874W        W35279   2.443   5.239   4.596
66875W        W35280   1.341   0.989  10.682
66876W        W35281  36.080   9.266   3.092
66877W        W35282   9.609  22.279   2.741
66878W        W35283  30.645  43.929  14.355
66879W        W35284   1.355  38.633  13.136
66880W        W35285  23.752  11.291  14.932
66881W        W35286  32.173   2.960  12.959
66882W        W35287  20.014  18.062  11.941
66883W        W35288  35.049  28.565   3.181
66884W        W35289  38.353  40.946   4.746
66885W        W35290  25.089  21.161  10.179
66886W        W35291  41.017   8.849  12.893
66887W        W35292  23.063  17.177  11.560
66888W        W35293  32.143   6.036  13.281
66889W        W35294  26.250  38.612  11.545
66890W        W35295  26.993  30.568   3.152
66891W        W35296  14.100  34.470  13.412
66892W        W35297   0.317   9.655   2.200
66893W        W35298  27.087  34.414  13.479
66894W        W35299  35.405  44.316   1.156
66895W        W35300  12.806  26.084   4.689
66896W        W35301  23.434  20.603  11.148
66897W        W35302   3.530  40.239  14.784
66898W        W35303  32.214  12.246   2.420
66899W        W35304  25.124  39.423  11.228
66900W        W35305  29.961   3.242  11.396
66901W        W35306  31.115  22.086  14.574
66902W        W35307  18.903  25.142  10.315
66903W        W35308  23.521   2.409   3.111
66904W        W35309  30.156   9.965  11.226
66905W        W35310  15.679  13.273  10.898
66906W        W35311  27.898  42.042  10.219
66907W        W35312   4.195   5.877  13.815
66908W        W35313  29.517   1.828  11.537
66909W        W35314  11.815   2.659  10.670
66910W        W35315  23.052  26.327  10.142
66911W        W35316  10.216  34.645   1.246
66912W        W35317  13.328  28.370  11.879
66913W        W35318  38.717   8.930   4.927
66914W        W35319  12.989  20.711   4.907
66915W        W35320  24.674  21.194   2.134
66916W        W35321  16.089  22.700  12.760
66917W        W35322  10.915  17.643   3.986
66918W        W35323  41.337  23.449  12.979
66919W        W35324  35.405   0.760   2.750
66920W        W35325  33.034   2.140   3.699
66921W        W35326  30.826  17.564   0.902
66922W        W35327   2.859  24.821   0.939
66923W        W35328  34.308  12.285  13.094
66924W        W35329  27.800  32.958   3.767
66925W        W35330  13.693  16.546   4.170
66926W        W35331  16.370  43.245  13.375
66927W        W35332   7.780  23.669  14.532
66928W        W35333  40.852   9.167  12.100
66929W        W35334  18.625  13.885  14.815
66930W        W35335  13.312  23.742   3.964
66931W        W35336  13.765  33.349   0.332
66932W        W35337   7.119   1.568   3.212
66933W        W35338  12.803   4.524   1.256
66934W        W35339  35.413  44.589   0.133
66935W        W35340  32.016   7.216  14.455
66936W        W35341   6.396  36.079   3.659
66937W        W35342  20.607  20.790   1.399
66938W        W35343  44.196   0.963  11.252
66939W        W35344  32.272  11.461   4.897
66940W        W35345   0.521   8.984   0.958
66941W        W35346   1.459   3.272   0.510
66942W        W35347  34.999   3.324   4.618
66943W        W35348  43.346   1.898   1.298
66944W        W35349   5.719  12.936   2.276
66945W        W35350  34.091  33.604   2.327
66946W        W35351  41.393  15.816   2.840
66947W        W35352   5.223  30.449   0.802
66948W        W35353  11.367  10.458  11.350
66949W        W35354  35.618  40.426  12.463
66950W        W35355  40.429  40.865   2.014
66951W        W35356  30.116  19.666  11.629
66952W        W35357  31.390  33.361  12.773
66953W        W35358  32.619   0.642   2.873
66954W        W35359  35.941  17.506  11.564
66955W        W35360   7.501  14.081   2.631
66956W        W35361  33.046  25.791  12.164
66957W        W35362  31.777  28.389   3.205
66958W        W35363  42.927  24.234  10.629
66959W        W35364  15.042  31.150  14.736
66960W        W35365  39.466  27.070  13.041
66961W        W35366  41.837  41.415  13.824
66962W        W35367   7.363  11.358  12.348
66963W        W35368  23.874  37.332   3.629
66964W        W35369  27.062  40.481   0.686
66965W        W35370  13.414  33.063   1.824
66966W        W35371   3.761   5.779  14.589
66967W        W35372   5.715  16.751   2.318
66968W        W35373  41.441  43.508  13.398
66969W        W35374  11.906  44.796   1.755
66970W        W35375  18.337  10.915   4.598
66971W        W35376  27.012  11.737   1.444
66972W        W35377  18.908  30.192  12.564
66973W        W35378  27.477  11.245  13.863
66974W        W35379  44.502  34.605  14.655
66975W        W35380   1.273  28.676  11.095
66976W        W35381  21.337  15.604  13.329
66977W        W35382  19.234  11.794  12.970
66978W        W35383   0.352   8.442   3.247
66979W        W35384  12.647  11.804  11.205
66980W        W35385   3.483  33.563   1.340
66981W        W35386  37.887  25.488  14.561
66982W        W35387  29.713  27.046   4.246
66983W        W35388  26.182   8.190   4.672
66984W        W35389   2.997   2.382   3.271
66985W        W35390  25.210  21.698   1.831
66986W        W35391  22.502  43.899  13.065
66987W        W35392   9.841  37.377  13.938
66988W        W35393  21.459  34.134   4.263
66989W        W35394  26.717   5.695   2.430
66990W        W35395  39.586   3.276   2.739
66991W        W35396  39.471   0.529   1.724
66992W        W35397  23.597  18.486  11.501
66993W        W35398  38.887  13.611  12.322
66994W        W35399  25.593  29.019  12.372
66995W        W35400  33.655  17.075   3.547
66996W        W35401  31.995  44.880   0.036
66997W        W35402  16.094  34.742   2.148
66998W        W35403  21.640  14.152   1.726
66999W        W35404   7.535  31.752   5.008
67000W        W35405  13.440   3.446   1.360
67001W        W35406  16.277  40.225   1.303
67002W        W35407  21.805  17.861   1.273
67003W        W35408  28.855   4.352   3.202
67004W        W35409   7.211  30.226  14.514
67005W        W35410  10.526  10.846   2.390
67006W        W35411  10.368  20.691   4.072
67007W        W35412  24.756  15.621  14.782
67008W        W35413  21.172   6.972   2.214
67009W        W35414   4.722  36.585   2.753
67010W        W35415  19.360  36.928   1.253
67011W        W35416  13.413  36.087   2.641
67012W        W35417  19.175  40.009   1.275
67013W        W35418  29.083   8.344  14.535
67014W        W35419  31.065  23.950   3.767
67015W        W35420  21.034  13.389   4.693
67016W        W35421   2.023  34.278  14.920
67017W        W35422   2.878  29.080   0.729
67018W        W35423  33.051   7.752  11.340
67019W        W35424  25.191  31.121  11.647
67020W        W35425   2.492  10.799  13.184
67021W        W35426  43.923  40.544  11.165
67022W        W35427  37.624   2.208  13.081
67023W        W35428  44.458  26.898  12.927
67024W        W35429   7.623  15.325   2.360
67025W        W35430  38.681  43.505  11.672
67026W        W35431  31.432   5.745   2.716
67027W        W35432  17.351   4.921   2.154
67028W        W35433  28.401  28.011  11.587
67029W        W35434  20.465  10.679   1.349
67030W        W35435  42.529  44.364   2.970
67031W        W35436  22.479  17.436   0.325
67032W        W35437  43.463  16.526  12.805
67033W        W35438  26.458  18.127   1.819
67034W        W35439  41.001  14.610   4.166
67035W        W35440  44.836  33.529  12.140
67036W        W35441  11.475  15.938   3.434
67037W        W35442  12.276  32.880  14.819
67038W        W35443  32.882  42.490  13.562
67039W        W35444  14.610  37.422  13.590
67040W        W35445   7.398  38.986   3.333
67041W        W35446   1.229  39.473  13.439
67042W        W35447  23.669  21.125  12.379
67043W        W35448  44.292   3.330  12.616
67044W        W35449  34.831  31.585   3.244
67045W        W35450  15.661  15.431  11.388
67046W        W35451  21.642   8.680  13.400
67047W        W35452  17.240  20.192   0.350
67048W        W35453  29.633   0.826  10.716
67049W        W35454  20.146  32.454  12.556
67050W        W35455   4.675   6.974  11.490
67051W        W35456   1.305  35.094   4.035
67052W        W35457  20.742   1.439   4.724
67053W        W35458  38.032  30.190   0.769
67054W        W35459  36.724  41.582   1.004
67055W        W35460  39.313   6.709   3.676
67056W        W35461   4.179  19.222  14.472
67057W        W35462   3.336  10.974   3.646
67058W        W35463  41.003  35.145   2.531
67059W        W35464  34.051  13.737  14.904
67060W        W35465   1.131   9.098   0.719
67061W        W35466  43.798  22.325  13.807
67062W        W35467  25.740  41.011   1.348
67063W        W35468  27.800   0.021  13.408
67064W        W35469  24.426  21.995   3.267
67065W        W35470  33.587  35.737  10.347
67066W        W35471  28.585  33.474  14.424
67067W        W35472  15.561  23.184   5.187
67068W        W35473  43.365  39.035  11.552
67069W        W35474  15.620  36.002   2.648
67070W        W35475  15.454  12.395  14.378
67071W        W35476  25.991  23.548   3.772
67072W        W35477  20.358  26.540  14.223
67073W        W35478   1.405  36.734  14.630
67074W        W35479  24.543   2.136  13.408
67075W        W35480  16.976  40.971   0.947
67076W        W35481  37.804   1.844  12.372
67077W        W35482  37.970  36.909  13.647
67078W        W35483  30.171  34.918   1.357
67079W        W35484  11.260  28.250  14.515
67080W        W35485  14.183   9.388  12.588
67081W        W35486  18.684  42.279   4.580
67082W        W35487  38.120  14.665   2.543
67083W        W35488  41.273  38.368  14.894
67084W        W35489  36.231  34.834  12.656
67085W        W35490   2.673  33.454  13.464
67086W        W35491  13.746  39.801   3.119
67087W        W35492  23.977  32.608   0.812
67088W        W35493  18.580  44.920  13.066
67089W        W35494  34.245   1.535  11.558
67090W        W35495  24.662  23.482   3.252
67091W        W35496   2.177  25.094   0.483
67092W        W35497   7.562   9.364   2.807
67093W        W35498   6.847  40.489  10.990
67094W        W35499   7.096  32.530   4.170
67095W        W35500  11.575  26.641   3.894
67096W        W35501  39.881   4.305  11.565
67097W        W35502   1.936  24.186   0.349
67098W        W35503  41.990   9.680   4.820
67099W        W35504  33.321  41.764  14.974
67100W        W35505  26.004  11.143   2.134
67101W        W35506   9.957  42.338  13.459
67102W        W35507  34.507  37.338   3.540
67103W        W35508  14.142   6.025   4.324
67104W        W35509  12.121   4.451  11.966
67105W        W35510  10.615  10.708  10.737
67106W        W35511   6.917  21.629  12.457
67107W        W35512  40.225  37.860   4.761
67108W        W35513   1.956  16.091  12.126
67109W        W35514  21.754  18.753   1.123
67110W        W35515  20.517  38.418   2.890
67111W        W35516  36.239  28.528  11.011
67112W        W35517  28.882  14.867   0.506
67113W        W35518  32.869  29.884   0.774
67114W        W35519   9.122   3.485   0.366
67115W        W35520  31.981  32.853   1.850
67116W        W35521   3.640   9.184   1.264
67117W        W35522  38.210  26.448  14.901
67118W        W35523  37.356   4.965  12.950
67119W        W35524   1.186  39.867   3.961
67120W        W35525   0.381  44.254   1.732
67121W        W35526  30.493  32.708  11.727
67122W        W35527  20.633  22.973  11.731
67123W        W35528   6.785  39.820   3.778
67124W        W35529  33.592  38.377   3.063
67125W        W35530  40.439  13.256   3.386
67126W        W35531  38.660  43.486   1.323
67127W        W35532  36.862  26.557   0.252
67128W        W35533  17.767  27.725   1.944
67129W        W35534  21.196   6.363   0.972
67130W        W35535  16.211   7.159  10.094
67131W        W35536  26.726   8.769   1.325
67132W        W35537  19.628   2.063   3.927
67133W        W35538   6.097  36.826  12.724
67134W        W35539  10.300  32.201   0.238
67135W        W35540  39.385  21.592  10.377
67136W        W35541  22.748  42.967  11.672
67137W        W35542  34.474  14.674   2.444
67138W        W35543  44.867  30.460   0.222
67139W        W35544  27.405  40.898   2.200
67140W        W35545   4.364  23.159   3.187
67141W        W35546   1.068  24.631   2.777
67142W        W35547  25.654  19.659   4.096
67143W        W35548   7.364  43.176   0.380
67144W        W35549  42.864  42.846   1.264
67145W        W35550  41.830  26.454   1.409
67146W        W35551   3.229  17.893  12.529
67147W        W35552   2.243  31.567   4.691
67148W        W35553  21.511  10.958  14.349
67149W        W35554   6.847  12.822  10.669
67150W        W35555  29.665  18.123   0.766
67151W        W35556  31.539  30.420   4.400
67152W        W35557  34.269   1.948   2.968
67153W        W35558  36.349  17.099  13.802
67154W        W35559   0.784  20.922  13.731
67155W        W35560  34.939  42.159  12.067
67156W        W35561  44.355  10.413   3.103
67157W        W35562  27.025  42.747  14.489
67158W        W35563  37.578  13.132  12.026
67159W        W35564  16.714  37.578   0.743
67160W        W35565  40.559  16.263   0.729
67161W        W35566  41.551  42.894   3.611
67162W        W35567  28.230  22.730   1.172
67163W        W35568  44.878   2.273   3.066
67164W        W35569  33.717  34.539   4.751
67165W        W35570  28.504  42.737  11.735
67166W        W35571  40.804   2.587   4.521
67167W        W35572  39.458  11.106   4.517
67168W        W35573  26.020   9.798   2.422
67169W        W35574  34.084  12.834  12.918
67170W        W35575  30.737  27.911  14.994
67171W        W35576   4.738  41.291  10.683
67172W        W35577  22.876  37.359   3.471
67173W        W35578   5.792  33.644  12.158
67174W        W35579  34.452   1.401   3.329
67175W        W35580  10.850  20.534  11.148
67176W        W35581  11.853   0.023  13.362
67177W        W35582   7.334   0.535  13.400
67178W        W35583  13.850  27.396   2.049
67179W        W35584   6.827   1.771   0.750
67180W        W35585  22.930   5.608  10.512
67181W        W35586  24.145   9.314  13.411
67182W        W35587  23.015  15.753  13.212
67183W        W35588  19.633  42.093  11.526
67184W        W35589  17.285  22.069   3.158
67185W        W35590  41.491  24.656  14.392
67186W        W35591   4.351  21.571   1.165
67187W        W35592  16.376  35.986  13.368
67188W        W35593  25.203  24.231   3.137
67189W        W35594  17.249  10.183   4.360
67190W        W35595  17.485  31.396  13.028
67191W        W35596  13.854  37.380  12.895
67192W        W35597  18.140   0.262  13.687
67193W        W35598  37.896  21.480   1.875
67194W        W35599  36.352   5.145   2.729
67195W        W35600  28.113  35.325  14.458
67196W        W35601  14.385  17.336  10.077
67197W        W35602  27.459   1.722   1.370
67198W        W35603  29.136  29.498   4.151
67199W        W35604  32.236  35.901   2.795
67200W        W35605  20.128   4.427   2.865
67201W        W35606  27.310  31.501  14.234
67202W        W35607  21.771  12.271  11.730
67203W        W35608   1.984  34.976  10.618
67204W        W35609  11.617  35.957   2.874
67205W        W35610   3.235  11.102   0.373
67206W        W35611  14.530  22.269   2.862
67207W        W35612  17.717   3.867   1.831
67208W        W35613  20.653  29.498   3.226
67209W        W35614  34.082  33.569  13.009
67210W        W35615  36.646  39.797  10.559
67211W        W35616  35.573  31.991  13.850
67212W        W35617   6.214  32.021  13.546
67213W        W35618  26.049  44.154  11.131
67214W        W35619   5.769  27.112   3.399
67215W        W35620  10.922  31.021   0.944
67216W        W35621  16.883  28.465  12.143
67217W        W35622  15.319   0.792  10.331
67218W        W35623  10.777  39.599  14.450
67219W        W35624   4.726  15.578  14.482
67220W        W35625  29.001  10.645   3.742
67221W        W35626  40.874  13.873  14.758
67222W        W35627  15.325  42.260   2.161
67223W        W35628  26.233  38.839  12.636
67224W        W35629  38.567   1.739   1.971
67225W        W35630  44.508  27.186   0.844
67226W        W35631  27.631   7.589  14.853
67227W        W35632  36.745  14.304  12.023
67228W        W35633  44.355  25.579  10.578
67229W        W35634  28.103  21.006   4.623
67230W        W35635   8.992   6.356   2.554
67231W        W35636   5.295  29.360   4.836
67232W        W35637  32.024   1.601  14.203
67233W        W35638   4.806  14.897   1.140
67234W        W35639  41.369  14.504   4.507
67235W        W35640  11.312  44.452  12.860
67236W        W35641  20.552  15.231  13.565
67237W        W35642  37.994  14.658  13.413
67238W        W35643  40.790   8.538   3.957
67239W        W35644  37.816  21.185  12.088
67240W        W35645  20.696   4.950  11.454
67241W        W35646  26.421  17.373  14.464
67242W        W35647  10.786  10.936   4.528
67243W        W35648  39.107  27.467   4.117
67244W        W35649   3.129   8.147   2.759
67245W        W35650  21.513  22.360  10.217
67246W        W35651  24.966  14.570   2.222
67247W        W35652   7.997  16.189   2.857
67248W        W35653  22.971   2.126  10.750
67249W        W35654  31.207  18.174   3.326
67250W        W35655  18.278   1.662   3.040
67251W        W35656  36.549  18.717  11.058
67252W        W35657  28.443  30.526  13.859
67253W        W35658  42.699   3.926  14.381
67254W        W35659  29.227  36.015  11.337
67255W        W35660  13.710  11.890  13.827
67256W        W35661  35.354  34.638  12.618
67257W        W35662  10.955  20.789  10.382
67258W        W35663   4.490  23.553  11.920
67259W        W35664  38.060  16.143   1.648
67260W        W35665  14.302   1.018   2.366
67261W        W35666  32.483   1.843  14.884
67262W        W35667  30.109  23.163   4.342
67263W        W35668  43.820  31.569  13.926
67264W        W35669   5.773  29.921  11.738
67265W        W35670  44.814  41.731  13.909
67266W        W35671  17.269  25.610   1.441
67267W        W35672  14.173  43.034  14.088
67268W        W35673  17.251  39.485  12.327
67269W        W35674  41.814  42.712   3.220
67270W        W35675  26.048  39.114   2.234
67271W        W35676  17.859  16.819  12.869
67272W        W35677   9.118  27.572   2.632
67273W        W35678  31.975   0.348   4.758
67274W        W35679   6.849  20.583  13.621
67275W        W35680  10.840   3.037  14.226
67276W        W35681   1.975  34.491  10.801
67277W        W35682  19.103   5.998   2.376
67278W        W35683  34.183   7.389   4.647
67279W        W35684   0.522  13.260  12.854
67280W        W35685   9.871  25.665   3.289
67281W        W35686  31.973  34.460   1.855
67282W        W35687   9.397  10.254   1.498
67283W        W35688  11.306   1.936  11.234
67284W        W35689  16.546  35.992  12.599
67285W        W35690  37.088  41.089   2.321
67286W        W35691  27.429   6.873   2.944
67287W        W35692  23.010   6.833  12.024
67288W        W35693  23.041  31.636   3.643
67289W        W35694  13.553  26.658   3.733
67290W        W35695   6.934  16.752  11.048
67291W        W35696  22.436   7.811  13.624
67292W        W35697  44.441  17.428   2.189
67293W        W35698  43.792  32.921   1.669
67294W        W35699  41.376   4.315  13.371
67295W        W35700  23.018  35.968   3.285
67296W        W35701  24.643   0.841  13.041
67297W        W35702  35.819  27.558   4.700
67298W        W35703  13.473  12.369   4.037
67299W        W35704  13.458   1.753  11.164
67300W        W35705  23.928  36.518   4.564
67301W        W35706  31.179   8.686   4.244
67302W        W35707   8.901  23.196  13.419
67303W        W35708  41.715  43.697   0.925
67304W        W35709  11.864  28.536  13.639
67305W        W35710  21.716  27.088   1.878
67306W        W35711  23.760  32.202  14.918
67307W        W35712  27.236  28.091  14.337
67308W        W35713  38.578   0.457   0.267
67309W        W35714   9.567  18.620   9.817
67310W        W35715  24.989   7.129   2.430
67311W        W35716   4.525   9.376   4.963
67312W        W35717  39.091   5.051  12.518
67313W        W35718  35.583   5.703   2.839
67314W        W35719  35.972  37.530   1.844
67315W        W35720   3.467  38.907  11.562
67316W        W35721  14.821   3.339  12.992
67317W        W35722  44.069  20.138  12.049
67318W        W35723  18.336   5.332  11.474
67319W        W35724  15.995   0.933   5.577
67320W        W35725  13.342   3.878   3.181
67321W        W35726  31.606  40.868   1.712
67322W        W35727   1.857  10.668   2.685
67323W        W35728  14.902   4.396   2.026
67324W        W35729  13.780  42.408   1.205
67325W        W35730  21.134  36.154   3.197
67326W        W35731  18.913  39.777  13.319
67327W        W35732  27.736   8.364  11.506
67328W        W35733  39.030   1.986   4.579
67329W        W35734  12.119  20.621   4.447
67330W        W35735  32.826  16.550   1.919
67331W        W35736  15.521  37.012  14.077
67332W        W35737  38.631   2.236  11.993
67333W        W35738   1.419  25.352   0.929
67334W        W35739  18.223  38.711   4.847
67335W        W35740  33.174   1.357   4.777
67336W        W35741  27.704  23.629  12.873
67337W        W35742  40.013  22.181   1.264
67338W        W35743  39.873  17.191  10.945
67339W        W35744  36.443  12.509  10.185
67340W        W35745  34.991  26.941   0.288
67341W        W35746   7.937  41.837   0.836
67342W        W35747  15.402  41.424  11.130
67343W        W35748  20.090  22.242  13.028
67344W        W35749  43.064  19.126  13.313
67345W        W35750  34.274  38.413   4.138
67346W        W35751  26.174  11.167  13.511
67347W        W35752  14.158   6.188  10.867
67348W        W35753  23.417   6.970  12.897
67349W        W35754  27.964  21.257  11.920
67350W        W35755  11.651  23.031  12.010
67351W        W35756  33.518  15.736  11.506
67352W        W35757  40.851  42.924  13.889
67353W        W35758  22.231  43.781  11.535
67354W        W35759   2.349   8.784  13.517
67355W        W35760  43.912  36.036  13.557
67356W        W35761   4.631   9.919  13.834
67357W        W35762  24.228  13.671   2.342
67358W        W35763  33.646   9.007   2.237
67359W        W35764  28.422  35.693   1.114
67360W        W35765  14.250  17.219  13.162
67361W        W35766  35.310  37.997  14.311
67362W        W35767  33.511  31.517   2.483
67363W        W35768  19.094   8.373   0.059
67364W        W35769  34.573  31.607   0.387
67365W        W35770  33.956  44.952  13.133
67366W        W35771  11.911  10.774  12.072
67367W        W35772  37.910  31.408  11.538
67368W        W35773  35.406   6.321   4.831
67369W        W35774  20.979  20.482  12.033
67370W        W35775  10.444   8.782   9.920
67371W        W35776   6.668  40.382  13.338
67372W        W35777  26.092  42.662   3.741
67373W        W35778   2.805  10.652  11.993
67374W        W35779  32.912  19.313  11.675
67375W        W35780  42.168  13.643   0.208
67376W        W35781  15.746   6.316  14.318
67377W        W35782  25.216   0.755  12.041
67378W        W35783  41.742   7.683  11.830
67379W        W35784   2.448   6.620  11.185
67380W        W35785  11.324  27.603   3.576
67381W        W35786  19.133  40.250   1.768
67382W        W35787  35.957  37.461  13.436
67383W        W35788   8.955  34.017   4.968
67384W        W35789  34.804  44.833   1.337
67385W        W35790  33.071  31.073   3.347
67386W        W35791   6.678  17.163   1.264
67387W        W35792   1.462  43.881  13.555
67388W        W35793  38.224  43.150   3.155
67389W        W35794  17.800  15.790   0.919
67390W        W35795  17.785   1.223  13.940
67391W        W35796  35.994  37.903   0.431
67392W        W35797   0.948   1.526  12.432
67393W        W35798   4.653   9.101  10.539
67394W        W35799  30.304  21.024  14.066
67395W        W35800  26.474  14.071   2.599
67396W        W35801  21.592  28.214   2.762
67397W        W35802  40.067   5.327   4.550
67398W        W35803  18.654  10.889  11.502
67399W        W35804   9.276  27.159  13.880
67400W        W35805  43.991  33.802  11.218
67401W        W35806   1.412   8.966   2.916
67402W        W35807  12.926  10.876   3.692
67403W        W35808  42.567   1.267  14.026
67404W        W35809  43.105  27.634   4.471
67405W        W35810   1.761  39.926  13.929
67406W        W35811  20.490  28.230  12.644
67407W        W35812   8.320  15.220  12.632
67408W        W35813  21.432  14.510  11.171
67409W        W35814   5.960  12.636  14.472
67410W        W35815   7.809  33.072  10.962
67411W        W35816  38.765   3.801  12.974
67412W        W35817  38.794  31.408  10.285
67413W        W35818  42.579  22.910   2.819
67414W        W35819  27.168  23.282  12.077
67415W        W35820  15.568  28.653  10.902
67416W        W35821  34.862  33.016  11.627
67417W        W35822  23.038  30.065  12.738
67418W        W35823   7.489  26.018   1.770
67419W        W35824  35.944  29.773  14.863
67420W        W35825  22.141   0.358   1.343
67421W        W35826  32.028   8.697  12.366
67422W        W35827  18.124  42.339  13.726
67423W        W35828  30.081  32.003   3.174
67424W        W35829   2.259   9.164   3.309
67425W        W35830  11.292  10.380  11.892
67426W        W35831  36.285   0.433   0.423
67427W        W35832  39.129  35.099  12.628
67428W        W35833  14.226  43.746   1.461
67429W        W35834  18.525  28.138   0.283
67430W        W35835   4.832  33.613   4.226
67431W        W35836  39.874  17.348  14.345
67432W        W35837   4.901  38.773   3.750
67433W        W35838  38.102  22.967  11.574
67434W        W35839   2.745  13.485  11.185
67435W        W35840   5.709  37.343  13.451
67436W        W35841  30.589  18.963   1.566
67437W        W35842  43.748   2.362  10.692
67438W        W35843  37.395  25.475  14.382
67439W        W35844   6.248  40.985   0.251
67440W        W35845  31.788  19.329  11.557
67441W        W35846  42.467  12.352   0.325
67442W        W35847   3.356  15.133   3.810
67443W        W35848  44.938  26.030  14.111
67444W        W35849  24.598  29.077   3.064
67445W        W35850   9.108  20.655  12.043
67446W        W35851  42.305  30.084   2.279
67447W        W35852  14.289   7.744   2.383
67448W        W35853  21.502  41.720  14.452
67449W        W35854  33.029   2.984  13.537
67450W        W35855  38.247   4.344   3.615
67451W        W35856  39.941  37.434   0.283
67452W        W35857  24.017   2.382  14.926
67453W        W35858  35.833  21.113   2.769
67454W        W35859  32.897  41.229  14.097
67455W        W35860  26.076  40.740  12.005
67456W        W35861  34.797   2.239   0.835
67457W        W35862   7.293   4.220  13.528
67458W        W35863  13.662  23.290  12.867
67459W        W35864  19.509  33.287   2.092
67460W        W35865  26.097   8.912   3.257
67461W        W35866   6.694  36.177   4.962
67462W        W35867   8.392  37.961   0.237
67463W        W35868   5.330  41.451   1.785
67464W        W35869  42.329  11.592  11.172
67465W        W35870  38.504  13.320   0.048
67466W        W35871  19.734  15.756  11.061
67467W        W35872   5.267  22.706  11.056
67468W        W35873  39.255  12.236   1.729
67469W        W35874  12.639  22.900  11.113
67470W        W35875   8.923   5.934   3.414
67471W        W35876   7.290   0.316   1.786
67472W        W35877  32.383  11.437  11.027
67473W        W35878   0.551  32.504  10.665
67474W        W35879  40.498   0.425   4.417
67475W        W35880   8.769  18.045   0.340
67476W        W35881  28.446  24.492  12.414
67477W        W35882  37.975  20.213   4.029
67478W        W35883   6.716   1.712  11.570
67479W        W35884  18.923  33.166  12.849
67480W        W35885  24.959  24.193   0.723
67481W        W35886  30.393  16.220   0.225
67482W        W35887  14.127  40.802  12.169
67483W        W35888  32.034  22.423  14.336
67484W        W35889  34.331  10.604   1.905
67485W        W35890  24.232  31.964   3.608
67486W        W35891  12.934   6.914   4.155
67487W        W35892   4.456  27.713   3.137
67488W        W35893  40.553  24.616  14.432
67489W        W35894  23.614  38.536  13.832
67490W        W35895  26.889  41.951  10.526
67491W        W35896  41.696  22.114   0.499
67492W        W35897  39.883  26.496  11.273
67493W        W35898  10.160  14.223   3.844
67494W        W35899  18.033  13.159   1.401
67495W        W35900  19.105  23.083   2.235
67496W        W35901  19.618  24.904   2.558
67497W        W35902  41.219  22.064  14.244
67498W        W35903   0.981  30.718  12.949
67499W        W35904  41.964  41.850   4.252
67500W        W35905  41.904  42.550   2.743
67501W        W35906  30.538   7.175  12.454
67502W        W35907  20.351  14.161   3.487
67503W        W35908  34.415   0.307   4.734
67504W        W35909  13.924  16.279  11.923
67505W        W35910  12.805  42.923   4.514
67506W        W35911  36.079  28.489   2.638
67507W        W35912  25.801  23.240  13.355
67508W        W35913   2.864  14.011   2.564
67509W        W35914  25.249   6.659   0.663
67510W        W35915  26.695   9.567  13.816
67511W        W35916  14.069  41.478   3.378
67512W        W35917  24.030   3.032  10.721
67513W        W35918  37.851   9.338  12.965
67514W        W35919  20.249  28.497   3.635
67515W        W35920  39.004   6.756  10.366
67516W        W35921  30.420  42.791  13.186
67517W        W35922  11.240  34.838  12.673
67518W        W35923  12.794  13.468   3.847
67519W        W35924  31.361  14.149  12.948
67520W        W35925  15.150  21.501  13.339
67521W        W35926   3.666  13.550  11.551
67522W        W35927  37.796  27.461   2.323
67523W        W35928  35.630  34.836  10.704
67524W        W35929  31.848  12.435  14.697
67525W        W35930   8.012  25.585  11.115
67526W        W35931  40.402   2.893   0.900
67527W        W35932   7.739   0.260   2.301
67528W        W35933  18.665  23.221  14.416
67529W        W35934  32.426   4.890   4.127
67530W        W35935  33.614  19.810  11.332
67531W        W35936  38.557  40.648   2.492
67532W        W35937  37.424  19.259   3.156
67533W        W35938  34.489   0.797   1.575
67534W        W35939  40.023  25.224  12.128
67535W        W35940  41.933   5.009   0.090
67536W        W35941  14.312   5.280   0.766
67537W        W35942  28.867  39.006   3.162
67538W        W35943  39.508  36.524  14.812
67539W        W35944   7.727  25.480  14.136
67540W        W35945   0.457  33.459   2.755
67541W        W35946  14.095  25.549   4.608
67542W        W35947   3.539  33.472   4.230
67543W        W35948  18.283  31.404   2.128
67544W        W35949  30.606   9.716   4.607
67545W        W35950  11.247  31.371   4.604
67546W        W35951   5.274  25.417  14.438
67547W        W35952  25.874  36.932  14.258
67548W        W35953  19.721  13.808  13.267
67549W        W35954  44.422  40.520  14.936
67550W        W35955  31.351  19.678   5.055
67551W        W35956  23.104  37.927   2.302
67552W        W35957  33.977   6.773  13.123
67553W        W35958   1.015  30.886   3.805
67554W        W35959  16.748  25.877  14.916
67555W        W35960   5.940  26.423   0.019
67556W        W35961  20.701  39.345   3.379
67557W        W35962  21.239  44.259   0.364
67558W        W35963  42.209  27.099   2.911
67559W        W35964   0.721  30.453   4.632
67560W        W35965  18.307  21.084   5.081
67561W        W35966   2.359  26.041   1.471
67562W        W35967   6.780  22.683   4.087
67563W        W35968  23.788   5.731  11.598
67564W        W35969  38.891  25.865  14.421
67565W        W35970   6.257  33.125  12.601
67566W        W35971   7.481  12.761  14.277
67567W        W35972   1.706  34.865  11.047
67568W        W35973  14.118  24.570   4.276
67569W        W35974  33.373  44.015   2.969
67570W        W35975   0.456  16.664  11.493
67571W        W35976  35.978  32.458   3.697
67572W        W35977  17.227  13.216  11.469
67573W        W35978  27.369   4.478  10.699
67574W        W35979  26.108  25.763  14.402
67575W        W35980  28.736  36.501  12.948
67576W        W35981   2.732  10.759   2.091
67577W        W35982   7.675   8.183   2.006
67578W        W35983   3.620  23.309   3.506
67579W        W35984   5.346   7.488  13.983
67580W        W35985  20.286   4.264  13.981
67581W        W35986  23.435  44.516  13.882
67582W        W35987  35.638  15.907  14.088
67583W        W35988  21.005   8.378  11.422
67584W        W35989  21.153   0.159  10.442
67585W        W35990  40.572  10.547   2.693
67586W        W35991  41.379  10.410  14.463
67587W        W35992  29.091  43.266   4.666
67588W        W35993  27.523  15.301   1.671
67589W        W35994   7.300   4.664   1.189
67590W        W35995  43.018  36.027   0.507
67591W        W35996  25.542  34.060  10.395
67592W        W35997   2.172  27.834  13.809
67593W        W35998   8.472  18.641  14.854
67594W        W35999  19.333  31.712  13.477
67595W        W36000  43.445  13.208   1.797
67596W        W36001  31.515   3.238   1.470
67597W        W36002  42.833  13.880  12.540
67598W        W36003   9.195   5.663  12.895
67599W        W36004  17.643  24.230  13.299
67600W        W36005  40.934  43.772   3.244
67601W        W36006  32.224  28.178  11.146
67602W        W36007  38.510  12.167   3.588
67603W        W36008   7.770  43.365  11.109
67604W        W36009  29.495   5.347  11.373
67605W        W36010  15.798  23.153   3.789
67606W        W36011  40.822  40.419   4.138
67607W        W36012  23.667  31.427  13.114
67608W        W36013  43.257  27.514   0.688
67609W        W36014  15.245  31.750   3.277
67610W        W36015   2.006  35.523  11.828
67611W        W36016  20.004  12.210   1.862
67612W        W36017   6.327  21.701  14.908
67613W        W36018  17.258   9.967   5.364
67614W        W36019  21.787  28.037   0.968
67615W        W36020  43.368  13.334   3.143
67616W        W36021  36.940  30.370  11.882
67617W        W36022   2.546  32.028   3.809
67618W        W36023  22.797   7.840  11.124
67619W        W36024  33.964  22.932   1.298
67620W        W36025  34.681  11.752   0.747
67621W        W36026  29.220  12.869   1.810
67622W        W36027  27.254  20.841  13.536
67623W        W36028  26.513  16.676   3.216
67624W        W36029  13.715  31.828   4.552
67625W        W36030  17.708  13.126   4.611
67626W        W36031  25.135  16.842  10.397
67627W        W36032  24.937  39.409   4.324
67628W        W36033  23.279   2.084   0.193
67629W        W36034   6.717  24.136   3.641
67630W        W36035  16.812  11.987  12.050
67631W        W36036  43.326  10.230   1.846
67632W        W36037  35.146  16.405   3.699
67633W        W36038  23.552  44.447  13.373
67634W        W36039  30.150   9.214  11.623
67635W        W36040  36.838   9.724   1.313
67636W        W36041  34.048   8.651   2.351
67637W        W36042  23.138  37.818   0.030
67638W        W36043  18.368  27.583   1.249
67639W        W36044   1.306  18.294   5.004
67640W        W36045   3.244  21.245  13.053
67641W        W36046  10.414  23.698  14.828
67642W        W36047  14.403   1.906   1.033
67643W        W36048  27.353  39.044   0.896
67644W        W36049  26.152  21.189  11.125
67645W        W36050  28.369  41.012   2.306
67646W        W36051  24.038  24.312   3.664
67647W        W36052  35.777  28.625  11.199
67648W        W36053  38.637  23.631  10.945
67649W        W36054   5.688   2.841   1.949
67650W        W36055   3.371  23.718  13.799
67651W        W36056  24.164  19.013  11.558
67652W        W36057  30.622  14.719   0.950
67653W        W36058  25.585  33.008  11.064
67654W        W36059  40.087  25.971   0.342
67655W        W36060  35.598   6.798   1.406
67656W        W36061  31.147   8.704  14.920
67657W        W36062  36.888  34.944  11.460
67658W        W36063  18.963  33.554  14.476
67659W        W36064  32.602  26.541   3.147
67660W        W36065  20.809  32.433   3.769
67661W        W36066  26.755  38.057   4.643
67662W        W36067  21.538   4.939   1.374
67663W        W36068  28.219  42.365   2.964
67664W        W36069   2.087  25.016  14.103
67665W        W36070   3.445  14.205  11.469
67666W        W36071  39.622  26.003  14.024
67667W        W36072  17.988   4.694   0.756
67668W        W36073  38.024  18.301  11.939
67669W        W36074  18.055  36.897   2.548
67670W        W36075  27.177  31.976  10.528
67671W        W36076  19.542  40.226   4.039
67672W        W36077  12.727  44.979   0.876
67673W        W36078  19.349   8.377   3.258
67674W        W36079  33.081   9.553   3.195
67675W        W36080  16.646  35.996   0.994
67676W        W36081  16.590  37.517  11.462
67677W        W36082  11.384   3.749   5.512
67678W        W36083  14.374   9.760   0.295
67679W        W36084  42.820   2.713  10.688
67680W        W36085  14.087  37.594   3.154
67681W        W36086  15.523  25.778  14.766
67682W        W36087  31.422  33.937   2.565
67683W        W36088  43.360  16.634  11.777
67684W        W36089   1.340  21.954   2.152
67685W        W36090  26.312   5.366   2.407
67686W        W36091   4.454  12.703   4.187
67687W        W36092  41.946  37.665   3.572
67688W        W36093   3.767  15.787   4.138
67689W        W36094   1.106  22.482   4.631
67690W        W36095  12.391   9.836  13.933
67691W        W36096  11.551   5.251   3.192
67692W        W36097  38.075   4.792  11.846
67693W        W36098  21.832  29.436  12.449
67694W        W36099  26.170   1.281   1.779
67695W        W36100  15.251   0.280  10.250
67696W        W36101  38.354   2.883  13.248
67697W        W36102  15.692  33.407  12.084
67698W        W36103  25.210   5.285   1.813
67699W        W36104  25.042  35.733   4.414
67700W        W36105  20.247  28.464  10.513
67701W        W36106  16.881  39.032   3.205
67702W        W36107  39.514  35.091  10.694
67703W        W36108  17.559  32.626   0.568
67704W        W36109  13.073  35.853  10.669
67705W        W36110  20.218  16.069  14.075
67706W        W36111   4.425  30.835   2.260
67707W        W36112  29.454  11.675   2.424
67708W        W36113  42.783  12.086  12.960
67709W        W36114   5.471  43.825  14.415
67710W        W36115  25.657  23.517   2.440
67711W        W36116  16.307   0.120   0.952
67712W        W36117   8.483  23.609  10.949
67713W        W36118   9.225  26.606  11.957
67714W        W36119  32.458  34.153  10.967
67715W        W36120  26.443   2.274  11.803
67716W        W36121  30.389  38.329  12.857
67717W        W36122   9.753  44.840   1.168
67718W        W36123   5.843  18.644  12.463
67719W        W36124  43.289   3.576  12.501
67720W        W36125  38.866  37.106   2.124
67721W        W36126  20.119   9.608  12.079
67722W        W36127   3.974  15.975  10.060
67723W        W36128  14.804  29.986   3.220
67724W        W36129  36.846  31.671  12.921
67725W        W36130  22.482  30.974  11.176
67726W        W36131  44.971  36.518  10.689
67727W        W36132   9.783  23.122  11.097
67728W        W36133  41.907  32.995   4.300
67729W        W36134  33.429   1.255   0.379
67730W        W36135  20.632  21.580   0.469
67731W        W36136  19.481   1.908  11.457
67732W        W36137  16.044  18.146  13.436
67733W        W36138  39.870  32.732  12.106
67734W        W36139  29.927  21.799  13.181
67735W        W36140   7.205  35.050   2.972
67736W        W36141  40.286   3.359  11.140
67737W        W36142  43.951  13.698   2.306
67738W        W36143   2.264  40.036   5.101
67739W        W36144  16.945  17.087   0.444
67740W        W36145  37.948   4.769   1.658
67741W        W36146  23.695  17.131   1.948
67742W        W36147  31.940   9.702   4.219
67743W        W36148  15.431  13.653   2.934
67744W        W36149  25.884  13.219   0.915
67745W        W36150  22.753  27.291   0.357
67746W        W36151   6.269   8.582  11.229
67747W        W36152  42.867  31.133   4.544
67748W        W36153   5.368  13.275  12.566
67749W        W36154   5.791  44.415   0.935
67750W        W36155  37.065  43.850  14.766
67751W        W36156  44.019  37.362  14.812
67752W        W36157  34.309  10.275  11.594
67753W        W36158  12.947   7.612   1.994
67754W        W36159  14.321  43.187   3.644
67755W        W36160  40.836   9.845   0.994
67756W        W36161  10.858  28.058   3.037
67757W        W36162  20.539  15.734  12.869
67758W        W36163  17.584  15.286  10.680
67759W        W36164  44.038   7.396   0.579
67760W        W36165  29.465   4.329   4.192
67761W        W36166  14.092  25.341   1.241
67762W        W36167  39.112  42.562   1.164
67763W        W36168  34.624  42.238  14.842
67764W        W36169  19.228  13.623   4.578
67765W        W36170  40.820   9.727  13.893
67766W        W36171   7.172   0.007  14.996
67767W        W36172  13.234  14.110  14.392
67768W        W36173  15.713  40.359  14.919
67769W        W36174  13.781  20.010  11.472
67770W        W36175   0.834  15.682  12.162
67771W        W36176   4.350  35.836  10.754
67772W        W36177  10.342  41.839  10.688
67773W        W36178   8.305  40.234  12.444
67774W        W36179   8.703  32.678  10.243
67775W        W36180  12.730  28.748   4.896
67776W        W36181   8.803  29.897   0.437
67777W        W36182   2.341  32.513  11.556
67778W        W36183  31.291  32.822  14.773
67779W        W36184   8.303  17.817   0.518
67780W        W36185   9.395  39.578   4.558
67781W        W36186  25.615   9.587   1.737
67782W        W36187  37.528  10.224  13.951
67783W        W36188  16.180  22.399   3.729
67784W        W36189   5.766  31.470   1.369
67785W        W36190  20.498  25.709   2.264
67786W        W36191  42.432  34.513  11.992
67787W        W36192   4.752  39.836   0.436
67788W        W36193  24.993  37.049  11.781
67789W        W36194  15.083  43.444  11.513
67790W        W36195  18.959  28.713   1.905
67791W        W36196  27.631  12.773  12.184
67792W        W36197   0.002  35.869   4.636
67793W        W36198  10.653  16.582   1.807
67794W        W36199  31.086   5.143  14.043
67795W        W36200  19.389  19.044   4.802
67796W        W36201  24.358  18.075  13.968
67797W        W36202  20.472  31.746  12.092
67798W        W36203  14.646   8.815  13.493
67799W        W36204  29.148  20.267  14.418
67800W        W36205  17.079   8.198   4.073
67801W        W36206  29.252   7.476  11.548
67802W        W36207  12.832  18.692  12.461
67803W        W36208  26.287   1.236   3.193
67804W        W36209  18.537  30.264  12.933
67805W        W36210  23.283   5.820  11.641
67806W        W36211  33.397  37.568  11.157
67807W        W36212   3.640  36.003   4.411
67808W        W36213  31.127  18.275  10.261
67809W        W36214   0.993  30.654  11.991
67810W        W36215  38.912  39.864   2.231
67811W        W36216  38.306  10.235   3.632
67812W        W36217  11.920  38.658   4.142
67813W        W36218  12.717  23.798  14.440
67814W        W36219  38.003  39.569  10.630
67815W        W36220   7.446   7.155   2.389
67816W        W36221  18.591  37.142  14.876
67817W        W36222   7.168  29.461   2.715
67818W        W36223  22.556  20.478  12.631
67819W        W36224   0.168  22.556   1.800
67820W        W36225  13.564  11.343   3.843
67821W        W36226  39.101  40.756  11.670
67822W        W36227   8.594  38.998   4.362
67823W        W36228  27.721  27.479  11.582
67824W        W36229  40.615  35.111   4.011
67825W        W36230  32.622  30.015  14.089
67826W        W36231   1.368  27.201  14.800
67827W        W36232  29.967   5.229  10.495
67828W        W36233  20.489  25.822  13.421
67829W        W36234  29.038  18.763  11.127
67830W        W36235  12.240  27.230   0.207
67831W        W36236  20.739  29.557  14.449
67832W        W36237  10.869  42.210   1.838
67833W        W36238  43.004   1.989   2.037
67834W        W36239  23.028  11.061  14.065
67835W        W36240  12.130  34.906  12.852
67836W        W36241   6.326  29.788   3.123
67837W        W36242  42.765  11.127  13.923
67838W        W36243  33.894  28.990   2.460
67839W        W36244  39.740   5.448  11.083
67840W        W36245   3.275   4.373  12.831
67841W        W36246   4.734   7.852  14.825
67842W        W36247   9.233  10.373   2.868
67843W        W36248  39.463  19.723  13.542
67844W        W36249  34.224  34.520   4.946
67845W        W36250  44.321  38.264  14.915
67846W        W36251  17.860  10.168   2.560
67847W        W36252  33.289  42.266   0.900
67848W        W36253  13.151  41.822   2.588
67849W        W36254  35.516  14.103   0.209
67850W        W36255  34.889  19.160   1.217
67851W        W36256  16.234   7.287  13.836
67852W        W36257  37.061  39.531   1.244
67853W        W36258  24.604  24.787   0.076
67854W        W36259  12.279   8.082   3.572
67855W        W36260  21.649  11.356   0.634
67856W        W36261  30.874   6.141  10.774
67857W        W36262  15.988  29.537  10.780
67858W        W36263  44.932  12.286  10.483
67859W        W36264  14.632   6.746   3.248
67860W        W36265  21.590  13.301  14.065
67861W        W36266  17.250  14.381  13.826
67862W        W36267  13.912  13.293   4.170
67863W        W36268  29.575   6.843   4.063
67864W        W36269  34.877  11.695  10.855
67865W        W36270  39.355  14.912  13.106
67866W        W36271   2.474  22.222  10.652
67867W        W36272  18.102  32.439  13.690
67868W        W36273  29.527  11.633  12.998
67869W        W36274  41.948   9.815   3.338
67870W        W36275  34.832  21.563  12.002
67871W        W36276   4.346  27.437   2.674
67872W        W36277  18.552  39.844   1.695
67873W        W36278  32.670  37.599  12.948
67874W        W36279  28.242   2.341   1.825
67875W        W36280   8.086  35.152  12.039
67876W        W36281  11.317  27.717   1.278
67877W        W36282  31.499  33.992  11.366
67878W        W36283  17.532  20.706   4.072
67879W        W36284  24.565   1.209   0.534
67880W        W36285  21.036  22.210  10.332
67881W        W36286  17.176  35.828   2.696
67882W        W36287  22.254  28.639  14.930
67883W        W36288  24.755  25.280   2.343
67884W        W36289  19.096  13.861   4.123
67885W        W36290  30.981   9.664  11.414
67886W        W36291   0.825  17.685  12.483
67887W        W36292   0.467  38.827  13.306
67888W        W36293  31.845  40.052  13.424
67889W        W36294  28.182  11.663   2.834
67890W        W36295   9.165  23.020   3.224
67891W        W36296   9.881  37.870  11.997
67892W        W36297   8.055  30.943   3.669
67893W        W36298  34.699  37.448  10.533
67894W        W36299  29.426  13.242   1.543
67895W        W36300  32.098  17.162  10.100
67896W        W36301  22.531  26.931  13.954
67897W        W36302  39.540   5.273  11.534
67898W        W36303  11.065  40.874  12.088
67899W        W36304  13.823  10.341   3.789
67900W        W36305  38.086  22.364   4.446
67901W        W36306  25.811  33.123   3.690
67902W        W36307   2.890  27.418  13.051
67903W        W36308   6.148  29.548   0.504
67904W        W36309   9.745  19.091  10.412
67905W        W36310   4.257  39.749   2.538
67906W        W36311   0.976  10.232  14.554
67907W        W36312  35.106  39.611  11.094
67908W        W36313  44.573  32.189   0.713
67909W        W36314   8.930  25.525   2.122
67910W        W36315  34.397   4.441  10.727
67911W        W36316  39.580   4.315   3.169
67912W        W36317  12.801   0.926  14.472
67913W        W36318  33.692   1.798   4.211
67914W        W36319  39.869  27.898  14.553
67915W        W36320   6.638   2.673   1.042
67916W        W36321  34.087  37.403  10.342
67917W        W36322  19.769  23.628  12.163
67918W        W36323  23.264  18.473   1.435
67919W        W36324  25.184  26.341  11.547
67920W        W36325  36.566  43.748  14.873
67921W        W36326  28.108  18.492   1.281
67922W        W36327  25.729  36.535   2.164
67923W        W36328   8.683   9.364   1.128
67924W        W36329  16.293  18.778   0.338
67925W        W36330  43.442  20.992   3.688
67926W        W36331  40.396   3.386  12.454
67927W        W36332   6.720  21.522  11.247
67928W        W36333  22.501  43.298  13.620
67929W        W36334  40.578  44.212   0.358
67930W        W36335   8.433  35.799   1.529
67931W        W36336  36.438  18.486   4.567
67932W        W36337   0.041  33.408  13.989
67933W        W36338  17.284  22.643   1.018
67934W        W36339   8.987  40.550   0.254
67935W        W36340  34.610  34.456  11.401
67936W        W36341  21.163   2.849   2.155
67937W        W36342  39.116  23.449  12.570
67938W        W36343  13.399  13.333   4.132
67939W        W36344  25.544  16.382  11.575
67940W        W36345   2.175  26.933   3.720
67941W        W36346   0.307  13.342  14.877
67942W        W36347   3.668  16.053  10.885
67943W        W36348  36.137   9.945  11.075
67944W        W36349  35.028  35.184   1.693
67945W        W36350  40.548  18.483   2.268
67946W        W36351  14.669  24.051  11.664
67947W        W36352  22.789  26.474  13.930
67948W        W36353  17.342  24.699  14.494
67949W        W36354  25.611  32.873  11.591
67950W        W36355   8.893  10.721   1.564
67951W        W36356  43.720  10.989   1.803
67952W        W36357  31.890   7.154  11.930
67953W        W36358  26.659  16.100  11.140
67954W        W36359   0.424  22.091  11.572
67955W        W36360   3.950   7.394   1.280
67956W        W36361  38.056  27.603  12.992
67957W        W36362  16.276   1.815  12.242
67958W        W36363  32.159  44.072   4.287
67959W        W36364  13.784  27.140  13.933
67960W        W36365  21.091  40.349   4.644
67961W        W36366  17.431  39.957   4.550
67962W        W36367  14.645  19.721   1.771
67963W        W36368  33.077  31.594   0.276
67964W        W36369  21.178   9.424   2.682
67965W        W36370   6.138  22.122   3.705
67966W        W36371  10.630  28.502  12.946
67967W        W36372  16.607  26.278   2.104
67968W        W36373   8.380  40.003   3.097
67969W        W36374  26.493  14.335  10.741
67970W        W36375  35.686   6.298   0.197
67971W        W36376   7.797  42.340   0.761
67972W        W36377  42.812  17.857  12.009
67973W        W36378  25.812  32.160  12.063
67974W        W36379   5.212  13.661   0.346
67975W        W36380   0.240  27.696   3.676
67976W        W36381  15.101  34.652  13.110
67977W        W36382  12.397  34.164   3.675
67978W        W36383   6.494   2.824  11.100
67979W        W36384  42.578  28.972  14.261
67980W        W36385  14.261  21.230  13.690
67981W        W36386  18.753  19.651  14.555
67982W        W36387  35.038  22.291  14.217
67983W        W36388  17.441   6.887  11.527
67984W        W36389   2.400  34.562   3.638
67985W        W36390  40.979  30.653  14.911
67986W        W36391  29.517  36.805   2.420
67987W        W36392   5.514  43.721   1.232
67988W        W36393   2.421  12.803   4.618
67989W        W36394   1.958  40.539   4.118
67990W        W36395  21.550   1.802   0.388
67991W        W36396  44.458  12.142   3.297
67992W        W36397   0.338  39.729   0.380
67993W        W36398  31.149  25.617  14.374
67994W        W36399  23.748   5.416  12.074
67995W        W36400  41.241  43.354  10.556
67996W        W36401   7.832   4.821   0.500
67997W        W36402  26.070  14.308   1.812
67998W        W36403  11.285  11.848  12.588
67999W        W36404  26.596  39.787   2.851
68000W        W36405  13.949  25.027   3.643
68001W        W36406  27.940  22.059  14.994
68002W        W36407  44.819   4.005   2.329
68003W        W36408  10.129  43.927   0.410
68004W        W36409  40.528  12.161  12.621
68005W        W36410  24.206  16.263   1.738
68006W        W36411  40.011   7.540  12.433
68007W        W36412  44.407   5.906   1.770
68008W        W36413   6.306  18.200  10.164
68009W        W36414  37.492  18.564  11.152
68010W        W36415  33.003  36.337  13.837
68011W        W36416  35.523  21.098   0.274
68012W        W36417  14.370  23.174  11.452
68013W        W36418   6.182   2.878   1.763
68014W        W36419  10.744  23.258   0.402
68015W        W36420  10.581  23.722   2.661
68016W        W36421  13.304  40.044  11.194
68017W        W36422  32.666   9.692  11.848
68018W        W36423  37.874  42.041  13.817
68019W        W36424  11.412  20.975  12.465
68020W        W36425  15.892  28.259  10.390
68021W        W36426  26.127  26.963  11.921
68022W        W36427  31.676  33.119  10.820
68023W        W36428  39.421  43.468  13.427
68024W        W36429  22.259  41.187  14.905
68025W        W36430  43.013  43.713   4.101
68026W        W36431  25.002  37.920   0.566
68027W        W36432   3.990  37.545  11.619
68028W        W36433  36.466  17.785  12.190
68029W        W36434  15.680  32.559   0.515
68030W        W36435  33.099  31.881   2.895
68031W        W36436  14.785   5.820   3.333
68032W        W36437  44.470  27.563   1.782
68033W        W36438  25.238  33.471  12.098
68034W        W36439  39.802   6.309   4.829
68035W        W36440   6.483  36.362   4.117
68036W        W36441  34.465  15.200  14.731
68037W        W36442  19.203  14.250   2.799
68038W        W36443  32.977  12.703   3.845
68039W        W36444   9.123  31.476   1.778
68040W        W36445  39.825  29.397   3.322
68041W        W36446  31.454  44.529  14.328
68042W        W36447   6.392  21.560  13.524
68043W        W36448  19.788  37.388   3.370
68044W        W36449  16.830  20.624   3.467
68045W        W36450   1.761   3.440  10.695
68046W        W36451   9.720   9.198   0.262
68047W        W36452  19.067   7.652   0.227
68048W        W36453  39.304  34.629  10.898
68049W        W36454  22.494  32.576   2.442
68050W        W36455  36.150   7.204  14.280
68051W        W36456   7.837  44.424   3.573
68052W        W36457  38.554  41.315   4.439
68053W        W36458  22.140   1.981   0.850
68054W        W36459  39.937  41.508  12.978
68055W        W36460  31.168  28.206   2.313
68056W        W36461  28.039  35.319   2.327
68057W        W36462   4.167  40.786  12.056
68058W        W36463  30.524  42.418   0.368
68059W        W36464  39.314   6.729   1.609
68060W        W36465  11.453  41.285   1.626
68061W        W36466   1.619  26.015  13.741
68062W        W36467  22.970  32.487   2.646
68063W        W36468   5.959  22.516  10.414
68064W        W36469  24.782  22.069  12.166
68065W        W36470  34.225  19.611   0.311
68066W        W36471   8.768  37.836   4.639
68067W        W36472  15.254  15.276   1.907
68068W        W36473  43.237  44.340  13.386
68069W        W36474  11.741  25.604   1.722
68070W        W36475   6.921  18.822  14.401
68071W        W36476  31.579  28.749   3.576
68072W        W36477  11.749   9.298   3.256
68073W        W36478  15.348  18.756  12.537
68074W        W36479  19.759  38.909   0.618
68075W        W36480  44.228  15.671  13.486
68076W        W36481  29.199   6.297  13.964
68077W        W36482  28.176   0.509  14.782
68078W        W36483  10.461   2.350   2.321
68079W        W36484  12.813  28.517   3.417
68080W        W36485   5.912  20.968  11.590
68081W        W36486  44.332  11.381  13.819
68082W        W36487  18.799   0.952   0.795
68083W        W36488  42.529   3.346   4.591
68084W        W36489  42.617  11.707   1.697
68085W        W36490  14.727  26.939  10.707
68086W        W36491  43.259   6.275   1.788
68087W        W36492   3.847  14.797  13.562
68088W        W36493  43.068  14.889  12.028
68089W        W36494   2.069  37.591   4.093
68090W        W36495  19.566   7.136  14.961
68091W        W36496  27.739  20.286  11.493
68092W        W36497  34.635  14.232   1.231
68093W        W36498  16.372  24.575   2.685
68094W        W36499  36.637  33.406  14.829
68095W        W36500   4.518  29.076  12.382
68096W        W36501  14.317  31.614  14.401
68097W        W36502   9.083   0.364   5.136
68098W        W36503   2.126  35.479  12.975
68099W        W36504  31.426  28.117  11.820
68100W        W36505  32.308  10.297  14.955
68101W        W36506   6.793  18.028   2.175
68102W        W36507   8.540   8.108  10.839
68103W        W36508  31.434  28.072  13.573
68104W        W36509  41.094  40.396  11.623
68105W        W36510  29.465  15.681  13.334
68106W        W36511  23.385  13.758  14.440
68107W        W36512   3.467  22.146   0.574
68108W        W36513  28.634  22.492  10.435
68109W        W36514  30.926  36.810   2.359
68110W        W36515   1.232  17.660  11.220
68111W        W36516  44.450  22.982   9.995
68112W        W36517  37.654  28.469   1.054
68113W        W36518  31.760   6.131   4.408
68114W        W36519   3.806  30.220  12.359
68115W        W36520  42.349  27.542   4.042
68116W        W36521   9.678  42.014  11.851
68117W        W36522  41.696  10.957  12.605
68118W        W36523  21.981  28.552   2.770
68119W        W36524  16.053  41.322   4.555
68120W        W36525  24.079  17.711   2.437
68121W        W36526  25.003  38.571  12.065
68122W        W36527  43.226  40.998   3.012
68123W        W36528   2.764   8.315   4.583
68124W        W36529  43.424  35.276  11.062
68125W        W36530  14.232  13.771   3.603
68126W        W36531  17.106  25.645  13.404
68127W        W36532  35.578  31.635  14.853
68128W        W36533  10.118  12.547  13.882
68129W        W36534   0.888  14.517   3.715
68130W        W36535   1.954  38.474  12.098
68131W        W36536  40.808  32.882  12.898
68132W        W36537  37.605  32.508   2.952
68133W        W36538  22.208  31.339   1.840
68134W        W36539  13.212   0.085   0.355
68135W        W36540  36.935   4.207  12.123
68136W        W36541  11.627  16.248   4.726
68137W        W36542   8.272  10.736  11.453
68138W        W36543  26.880  35.064  12.431
68139W        W36544   7.295  21.345   3.735
68140W        W36545   5.658  21.860   1.379
68141W        W36546  14.681   2.726   0.964
68142W        W36547  17.627  22.462   3.113
68143W        W36548  18.832   1.039  11.090
68144W        W36549   8.322  33.073  13.533
68145W        W36550  13.200   4.397  10.288
68146W        W36551  10.281  28.711   0.491
68147W        W36552  29.416  15.510   2.941
68148W        W36553  30.379  38.172   2.407
68149W        W36554  27.595  25.232   1.208
68150W        W36555   0.020  36.305  11.694
68151W        W36556  36.114  14.165   4.153
68152W        W36557  16.199  35.500  13.391
68153W        W36558  33.425  22.992   2.479
68154W        W36559  44.650  17.115  14.259
68155W        W36560   6.424  42.558   9.950
68156W        W36561  16.351   2.995   1.230
68157W        W36562   5.819  18.626   1.646
68158W        W36563  40.586  18.226   1.577
68159W        W36564  11.664   6.829   0.929
68160W        W36565  43.345  18.124   1.273
68161W        W36566  37.547  28.759  10.481
68162W        W36567   5.692  16.642   0.744
68163W        W36568  17.862  20.983  12.345
68164W        W36569  23.812  10.238  12.015
68165W        W36570   2.788  16.128  12.519
68166W        W36571   9.291  22.566   1.859
68167W        W36572  19.247   2.958  11.089
68168W        W36573  27.724  16.217   2.622
68169W        W36574   5.931  30.551  10.617
68170W        W36575  16.395   8.397   1.347
68171W        W36576  12.765   0.874  12.951
68172W        W36577  44.928  20.509   2.703
68173W        W36578  38.501  35.870   4.131
68174W        W36579  23.775  40.352  13.339
68175W        W36580  29.620  35.111   3.386
68176W        W36581  34.578  11.545   2.328
68177W        W36582   8.790  12.558  14.408
68178W        W36583  31.694  27.413   0.678
68179W        W36584  12.880   3.322   0.068
68180W        W36585  18.268  31.974  13.880
68181W        W36586  16.661  10.448   1.349
68182W        W36587   8.150  23.481  13.052
68183W        W36588  11.453  22.186  11.569
68184W        W36589  29.051   8.682   4.099
68185W        W36590  10.660  33.112  13.289
68186W        W36591  33.021  34.626  12.208
68187W        W36592  39.076   5.205   3.656
68188W        W36593  26.871  29.338   2.177
68189W        W36594   8.215  13.586  10.725
68190W        W36595  21.557   3.982   2.264
68191W        W36596  41.420  40.183   4.254
68192W        W36597  22.605  12.001  11.272
68193W        W36598  24.221  25.000   1.839
68194W        W36599  28.647  14.791   2.779
68195W        W36600   0.591  34.829  13.326
68196W        W36601  33.472  22.841  12.887
68197W        W36602  23.607  33.399  13.393
68198W        W36603  37.192  21.121   3.680
68199W        W36604   6.449  29.106  11.432
68200W        W36605  44.687  28.100   4.284
68201W        W36606  42.248  14.279   2.914
68202W        W36607  25.544  39.299  12.978
68203W        W36608  18.605  42.539  14.384
68204W        W36609   1.530  20.297   4.644
68205W        W36610  31.838  10.121  12.963
68206W        W36611  21.307  32.888  11.662
68207W        W36612  32.923   2.526  13.285
68208W        W36613  19.613   4.834   4.542
68209W        W36614   5.779  44.494   1.464
68210W        W36615   9.826  17.609   1.727
68211W        W36616  31.868  25.136   3.277
68212W        W36617  23.184  19.266   2.207
68213W        W36618  24.608   8.156   0.795
68214W        W36619  13.204  22.220  11.247
68215W        W36620  28.126  11.802   0.447
68216W        W36621   6.017  14.218   2.008
68217W        W36622  19.960  22.408  11.547
68218W        W36623   0.267  16.081   2.011
68219W        W36624  15.267  17.315   3.919
68220W        W36625   9.545  25.598  10.632
68221W        W36626   5.947  17.873  14.801
68222W        W36627  16.961  30.511   1.903
68223W        W36628  16.839  26.694  13.497
68224W        W36629  15.599  13.716  10.647
68225W        W36630  28.370  44.926   0.330
68226W        W36631  39.857  41.676  14.528
68227W        W36632   2.847   5.779   2.845
68228W        W36633  28.555  19.120   0.918
68229W        W36634  28.963   6.192   3.810
68230W        W36635  28.215  42.461  12.181
68231W        W36636   0.753   6.240   1.817
68232W        W36637  24.017  44.563   1.900
68233W        W36638  20.900   0.009   3.303
68234W        W36639   9.913   6.471  13.095
68235W        W36640  13.989  35.735  11.511
68236W        W36641  35.369  22.738  13.523
68237W        W36642  26.139   1.318  14.318
68238W        W36643   5.016  25.599   3.914
68239W        W36644  25.412  25.648  11.831
68240W        W36645  36.137   9.763   2.846
68241W        W36646  40.624  29.798  14.356
68242W        W36647  40.129  27.561  12.498
68243W        W36648  14.696  29.966   1.877
68244W        W36649  12.670  44.505  13.518
68245W        W36650  11.779  22.306  11.166
68246W        W36651  37.911  35.530   0.480
68247W        W36652  33.724  39.384   1.603
68248W        W36653   8.952  21.062  12.391
68249W        W36654   0.020  22.634  10.518
68250W        W36655  22.071  37.775  11.152
68251W        W36656  32.916   8.187   0.315
68252W        W36657   1.928  22.578   4.587
68253W        W36658  14.820   2.851   2.737
68254W        W36659  11.099  42.986  11.405
68255W        W36660   7.217  32.392  11.157
68256W        W36661  43.936   5.918   0.891
68257W        W36662  20.612   7.068   1.683
68258W        W36663  16.131   7.783  14.484
68259W        W36664   0.733  39.870  13.943
68260W        W36665  24.369  24.579  14.609
68261W        W36666  12.829   2.189   5.067
68262W        W36667  41.396  24.380  14.817
68263W        W36668  27.873  37.916  10.229
68264W        W36669  11.116  37.248   1.358
68265W        W36670   7.303  33.381   1.434
68266W        W36671  18.720  44.734   4.117
68267W        W36672  10.555   1.316  10.576
68268W        W36673  32.610  28.506   4.490
68269W        W36674  15.574  30.849   4.561
68270W        W36675   4.726  18.686  14.320
68271W        W36676  17.293  14.188   4.607
68272W        W36677  15.342  15.049   0.725
68273W        W36678  28.080  38.345   3.265
68274W        W36679  37.664  16.034   1.349
68275W        W36680  28.040   4.118  11.110
68276W        W36681  18.225  34.122  14.319
68277W        W36682  14.590  25.904   1.153
68278W        W36683   0.962   0.752   0.698
68279W        W36684   8.086  21.481   1.409
68280W        W36685  17.747  28.441  11.100
68281W        W36686  19.046  28.415  11.143
68282W        W36687  22.467  37.446   1.753
68283W        W36688   8.429  25.629   1.841
68284W        W36689   0.833  25.453  13.807
68285W        W36690   9.338  19.291   4.756
68286W        W36691  37.589   4.405  12.506
68287W        W36692   6.586  42.976  10.212
68288W        W36693   4.349  31.868   4.283
68289W        W36694  11.459  42.058   0.432
68290W        W36695   9.844  17.994  14.046
68291W        W36696  36.314   0.224   3.240
68292W        W36697  36.869  10.795   4.488
68293W        W36698  17.593  44.860   2.879
68294W        W36699  11.108  29.251   4.574
68295W        W36700   7.139  14.904   4.037
68296W        W36701  39.377  32.138   0.748
68297W        W36702   9.155  28.876   3.637
68298W        W36703  23.688  34.356  11.805
68299W        W36704  40.378  28.658  10.658
68300W        W36705   7.170  41.799  13.309
68301W        W36706   9.258  15.919  14.151
68302W        W36707  27.094  12.621   2.068
68303W        W36708  37.331   0.321   2.281
68304W        W36709   3.964  38.111   3.212
68305W        W36710  26.750   2.906  13.958
68306W        W36711  17.711  18.185  13.030
68307W        W36712  14.560  11.343   2.860
68308W        W36713  41.227   1.417   3.648
68309W        W36714  23.834  31.646  12.145
68310W        W36715  13.726  35.304  10.094
68311W        W36716  37.168   2.820  14.902
68312W        W36717  18.005   9.728   4.936
68313W        W36718  30.558  16.262  11.426
68314W        W36719  34.561  42.363  14.321
68315W        W36720  35.135   6.217   1.929
68316W        W36721  39.360   9.849   4.259
68317W        W36722  10.965  24.715   0.547
68318W        W36723  21.563  19.221  13.961
68319W        W36724  35.882  28.047   1.349
68320W        W36725  34.312  27.454   4.735
68321W        W36726  36.243  27.726  13.921
68322W        W36727  21.817  35.972  12.195
68323W        W36728  32.256  44.425   1.100
68324W        W36729  39.309   2.199   3.122
68325W        W36730   9.611  22.993  12.111
68326W        W36731  27.142  19.439  14.452
68327W        W36732  14.061  28.364   4.880
68328W        W36733  16.828  17.333   3.833
68329W        W36734  39.599   9.547   3.905
68330W        W36735   6.298  37.815  12.618
68331W        W36736   4.050  13.283   3.649
68332W        W36737  14.134  19.930   4.780
68333W        W36738  33.879   6.000  12.422
68334W        W36739  16.577  34.008   1.126
68335W        W36740  38.658  16.599  14.083
68336W        W36741   1.044  42.173   2.618
68337W        W36742  40.761  25.676  10.758
68338W        W36743   8.424  36.951   2.183
68339W        W36744  21.982  15.041   2.855
68340W        W36745  13.284  23.238  14.791
68341W        W36746   8.811  28.575  12.456
68342W        W36747  12.936  27.384   2.638
68343W        W36748   4.248   2.386  10.894
68344W        W36749  14.691  44.734   4.596
68345W        W36750  34.567  38.439  14.309
68346W        W36751   6.730  29.932   1.157
68347W        W36752   4.667   5.808   4.493
68348W        W36753  16.834  13.127   1.762
68349W        W36754  19.825  44.513  13.932
68350W        W36755  16.030  19.656   2.743
68351W        W36756   3.464  32.776  14.427
68352W        W36757  20.352  19.056   4.326
68353W        W36758  19.759  18.777   1.784
68354W        W36759   4.193  43.232  14.942
68355W        W36760  12.608  40.373   2.667
68356W        W36761  37.109  12.365   1.510
68357W        W36762   0.418  33.546  14.407
68358W        W36763  34.108  15.339  13.414
68359W        W36764  44.840  32.106   4.682
68360W        W36765  22.380  35.331   1.313
68361W        W36766  40.284  34.662  12.675
68362W        W36767  30.947  25.232   0.675
68363W        W36768  27.967  30.477  12.165
68364W        W36769  44.554  36.413  14.886
68365W        W36770   4.273  26.189   0.764
68366W        W36771  40.820  41.311   3.086
68367W        W36772  26.138  14.287   4.575
68368W        W36773  24.709  33.539  12.121
68369W        W36774   0.724  30.645  14.846
68370W        W36775  15.205  36.312  14.475
68371W        W36776  38.448  32.386  11.031
68372W        W36777   2.146  22.763   2.695
68373W        W36778   5.376  33.137  13.056
68374W        W36779  43.863   0.412   2.558
68375W        W36780   7.575  28.493   0.216
68376W        W36781  36.845  41.788  11.413
68377W        W36782   3.922   8.300   3.235
68378W        W36783  31.666  22.059  14.833
68379W        W36784  17.709   9.160  11.517
68380W        W36785   2.684  43.651   2.297
68381W        W36786  14.749  11.903  14.421
68382W        W36787  15.222   5.047   2.407
68383W        W36788  18.539   7.133   3.959
68384W        W36789  44.852  10.313   1.143
68385W        W36790  24.087  43.016  14.774
68386W        W36791  13.447  29.121   0.466
68387W        W36792   7.372  19.590   2.889
68388W        W36793  38.450   6.411   0.281
68389W        W36794  15.998  10.886   0.222
68390W        W36795  19.156  37.919  13.033
68391W        W36796  11.177  25.862   3.674
68392W        W36797   9.909   9.423  14.840
68393W        W36798  14.670  26.282   3.302
68394W        W36799   7.366  27.160  13.144
68395W        W36800  35.375  11.806  10.819
68396W        W36801   4.685   6.363  14.964
68397W        W36802  14.272  17.224   1.475
68398W        W36803  26.955   5.266  12.829
68399W        W36804  14.159  28.633   3.878
68400W        W36805   7.906  16.076  12.492
68401W        W36806  33.051   3.192   1.878
68402W        W36807  15.251  35.308   0.569
68403W        W36808   9.030   5.137  14.801
68404W        W36809  39.780  17.991  10.872
68405W        W36810  15.224   4.384   1.626
68406W        W36811  40.073  40.660  10.660
68407W        W36812  23.728  20.955   4.460
68408W        W36813  24.961  37.165   0.786
68409W        W36814  17.601  39.066   4.877
68410W        W36815  43.284  34.370   2.730
68411W        W36816   6.374  43.820   4.728
68412W        W36817   1.021  41.632  14.411
68413W        W36818  25.401  14.071   0.603
68414W        W36819  32.636  42.829  12.907
68415W        W36820  13.704   1.447   0.834
68416W        W36821  38.781  35.208   2.345
68417W        W36822   3.532  16.044   0.834
68418W        W36823   6.012   1.920   0.939
68419W        W36824  22.604  13.590  13.872
68420W        W36825  32.568  17.221   0.751
68421W        W36826  15.828  38.184  13.418
68422W        W36827  21.504   2.394  11.154
68423W        W36828  39.523  43.535  12.507
68424W        W36829  13.152  32.623   1.828
68425W        W36830  10.961  11.257  10.950
68426W        W36831  43.847   4.808   3.182
68427W        W36832  39.037   6.465   0.399
68428W        W36833  10.855   2.440   3.582
68429W        W36834  39.691  41.721  13.363
68430W        W36835   3.174  28.950  12.912
68431W        W36836  21.152  18.492  14.446
68432W        W36837   2.329  17.352   0.271
68433W        W36838  11.900  32.674   1.455
68434W        W36839  16.119  11.930   4.854
68435W        W36840  12.346  32.307  13.388
68436W        W36841  35.407  10.117  12.963
68437W        W36842  36.378  41.477  12.812
68438W        W36843  26.055   7.916  11.198
68439W        W36844  41.877  19.106  14.211
68440W        W36845  29.449   8.256   4.537
68441W        W36846  43.027  12.425  13.818
68442W        W36847  29.164  31.609   4.521
68443W        W36848   3.934  15.390   4.458
68444W        W36849  38.981  40.961  13.483
68445W        W36850  41.619  20.599   1.300
68446W        W36851  26.674  21.194  11.107
68447W        W36852  34.796   5.790  12.541
68448W        W36853  25.187  32.846  12.571
68449W        W36854  13.031   2.025   4.585
68450W        W36855  31.947  11.723  13.899
68451W        W36856  11.687  42.559   1.660
68452W        W36857   9.764  16.765  11.144
68453W        W36858   0.232  31.421  11.528
68454W        W36859   3.699   7.889   2.355
68455W        W36860  25.098   2.763   4.600
68456W        W36861  11.172   5.475   0.145
68457W        W36862  14.770   8.610  10.493
68458W        W36863  35.517   7.423  11.664
68459W        W36864  31.163  35.760  11.257
68460W        W36865  19.679  16.260   3.339
68461W        W36866  10.876  33.895  14.886
68462W        W36867  43.373   0.966  10.929
68463W        W36868   0.571  37.652   0.946
68464W        W36869  44.512   8.057  11.908
68465W        W36870  14.154  35.341  11.237
68466W        W36871   5.284   5.883   1.083
68467W        W36872  40.459  44.748  14.702
68468W        W36873  44.800  18.358  11.256
68469W        W36874  40.260  23.265  10.335
68470W        W36875  25.164  30.417   3.093
68471W        W36876  17.913  40.993  12.920
68472W        W36877  34.602  12.783  12.969
68473W        W36878   3.366   6.189   3.977
68474W        W36879  15.088  33.384   0.371
68475W        W36880  37.865  27.266  12.439
68476W        W36881   4.973   9.346  12.750
68477W        W36882   8.354  17.642  13.572
68478W        W36883  12.660  27.989   4.269
68479W        W36884   8.801  17.701   1.774
68480W        W36885  31.174  43.032  11.946
68481W        W36886  43.084  13.684  12.976
68482W        W36887  33.548  38.977   1.863
68483W        W36888  43.150  25.207  10.748
68484W        W36889  15.021  30.867  10.496
68485W        W36890  18.349  37.915  11.634
68486W        W36891  14.508  24.970  12.995
68487W        W36892  43.542  28.613   1.938
68488W        W36893  41.016  30.946   2.166
68489W        W36894  41.872   8.025  14.775
68490W        W36895   5.972  40.069   3.266
68491W        W36896   3.774  32.022  14.723
68492W        W36897  31.871  44.960  12.499
68493W        W36898   0.354  33.053  10.579
68494W        W36899  38.055  34.339   0.996
68495W        W36900  44.302  36.806   0.819
68496W        W36901  37.591  22.135   4.410
68497W        W36902  10.113  44.439   3.220
68498W        W36903  13.962  30.389  12.678
68499W        W36904  13.236   2.229   1.748
68500W        W36905  19.206  20.986   2.261
68501W        W36906  31.667  10.694  14.366
68502W        W36907  34.391  16.334  13.346
68503W        W36908  13.937  39.545  13.497
68504W        W36909  10.418   1.242  14.618
68505W        W36910  10.740  42.667   0.837
68506W        W36911  21.528  31.210   2.573
68507W        W36912  25.138  40.128   2.210
68508W        W36913  25.662  12.566   2.194
68509W        W36914  30.008   8.637  14.345
68510W        W36915   7.263  39.756  10.597
68511W        W36916  43.877   9.357   3.637
68512W        W36917  21.624  16.095   0.822
68513W        W36918  40.563  29.318  12.532
68514W        W36919  18.150  33.965  11.963
68515W        W36920  23.591  36.516   4.173
68516W        W36921  24.103  18.564   4.551
68517W        W36922  39.085   1.759   1.952
68518W        W36923   2.314   7.823  13.410
68519W        W36924   4.743   7.968   3.782
68520W        W36925  42.330   5.561   2.547
68521W        W36926  28.487   5.726  10.674
68522W        W36927  43.547  24.989   4.126
68523W        W36928  36.853  12.424  13.945
68524W        W36929  14.624  29.368   1.287
68525W        W36930   2.940  40.837   0.004
68526W        W36931  19.175  29.202  12.434
68527W        W36932  32.974  37.826   1.463
68528W        W36933  21.670  43.911   2.414
68529W        W36934  10.831  19.435  12.066
68530W        W36935  31.430   6.024  13.921
68531W        W36936  12.611  39.777   2.023
68532W        W36937  37.818  43.457   3.164
68533W        W36938   1.659  39.351  12.691
68534W        W36939  26.511   6.145  12.948
68535W        W36940  36.055  18.075  11.124
68536W        W36941  28.797   8.933   4.634
68537W        W36942  39.057   2.678   3.201
68538W        W36943  14.221  20.896   3.296
68539W        W36944  40.355  13.733   0.560
68540W        W36945  24.791  42.491   2.887
68541W        W36946  24.143   2.471  12.500
68542W        W36947  12.214  12.610   3.856
68543W        W36948  11.404  11.095  10.668
68544W        W36949  40.256   9.322  14.783
68545W        W36950  34.798  25.561   1.192
68546W        W36951  11.077  35.441   2.284
68547W        W36952  27.230  33.009  11.277
68548W        W36953  33.852   0.453   4.039
68549W        W36954   6.849   0.842  13.970
68550W        W36955  33.978  38.949   4.501
68551W        W36956  25.755   3.417  14.775
68552W        W36957  38.608  27.007  10.702
68553W        W36958  20.539  40.737  10.906
68554W        W36959   5.735  30.213  12.181
68555W        W36960  24.937  29.954  13.219
68556W        W36961  30.233  19.377   4.091
68557W        W36962  40.266  30.042  12.105
68558W        W36963  19.095   5.639  12.436
68559W        W36964  43.491   3.680   3.789
68560W        W36965   2.302  31.474  11.367
68561W        W36966   8.681   9.829   0.865
68562W        W36967  30.647  13.548   2.180
68563W        W36968  15.543  16.592   0.070
68564W        W36969  36.554   4.283   2.937
68565W        W36970  22.295  20.141   0.441
68566W        W36971  23.771  27.713   2.128
68567W        W36972  34.805  33.524  13.742
68568W        W36973  40.009  22.701   1.253
68569W        W36974   3.580  15.331   2.812
68570W        W36975  21.631  25.780  13.920
68571W        W36976   6.666  44.431   3.711
68572W        W36977  44.199  36.900  13.123
68573W        W36978  16.920  36.918   1.059
68574W        W36979   7.710  27.919   1.662
68575W        W36980  17.099   8.142   3.190
68576W        W36981  30.053  10.258   4.641
68577W        W36982  37.341   3.406   4.975
68578W        W36983  36.867  31.545   1.380
68579W        W36984  12.103  15.327   5.034
68580W        W36985  22.779   3.447   3.307
68581W        W36986  40.932  44.466  13.970
68582W        W36987  22.677  34.617   3.350
68583W        W36988  43.117   3.161  13.482
68584W        W36989  44.927  17.548  10.671
68585W        W36990  37.494  25.922   0.450
68586W        W36991   2.353  26.307   2.428
68587W        W36992  15.755  34.006  10.753
68588W        W36993  40.979  16.538   0.636
68589W        W36994   2.384  24.677   3.692
68590W        W36995  27.466  21.767  11.615
68591W        W36996  21.839  21.632   5.043
68592W        W36997  35.927  13.171  13.540
68593W        W36998   9.171  15.100  11.998
68594W        W36999  35.770  38.160   3.574
68595W        W37000   4.299  13.870  12.865
68596W        W37001  32.333   6.115   2.442
68597W        W37002  23.165   3.128   2.402
68598W        W37003  24.603  17.359   5.042
68599W        W37004  25.364   3.708  11.549
68600W        W37005  43.713  14.287   0.869
68601W        W37006  30.628  33.797   0.335
68602W        W37007  22.051  21.665  12.385
68603W        W37008   0.400  22.739   1.263
68604W        W37009   1.944  20.531   4.885
68605W        W37010  32.592  36.023   1.255
68606W        W37011  24.735   2.226   2.360
68607W        W37012  30.272  14.901  12.271
68608W        W37013  39.053   3.046   5.444
68609W        W37014  31.504   3.970  11.152
68610W        W37015  33.530  22.580   2.168
68611W        W37016   9.289  30.195   0.380
68612W        W37017  15.214  33.262  12.627
68613W        W37018  11.396  18.290  11.521
68614W        W37019  17.860   5.367   4.226
68615W        W37020   2.419  10.991  10.754
68616W        W37021   8.734  31.071   2.334
68617W        W37022   0.901   9.953   4.772
68618W        W37023  25.592  23.196   0.193
68619W        W37024  18.618   5.602  11.104
68620W        W37025  37.910   0.005  13.494
68621W        W37026  13.277  40.844   3.143
68622W        W37027  21.560  10.318  11.564
68623W        W37028  32.643  37.996   3.857
68624W        W37029   7.342  28.802  13.421
68625W        W37030  29.966  32.149   2.675
68626W        W37031  22.558  20.718  13.638
68627W        W37032   9.933  17.120   1.947
68628W        W37033  23.737  19.615   4.174
68629W        W37034  43.301  19.135   3.382
68630W        W37035  31.890  33.186   2.261
68631W        W37036  24.737   1.226   1.992
68632W        W37037  37.278  22.485   2.406
68633W        W37038   8.658  32.140   5.038
68634W        W37039  35.368   0.078  13.762
68635W        W37040  20.547   3.580   3.817
68636W        W37041   3.697  28.211  12.037
68637W        W37042  43.347  20.834  11.849
68638W        W37043  43.944   2.658   3.309
68639W        W37044  12.100  16.338  11.997
68640W        W37045   7.962  18.563  13.977
68641W        W37046   8.241  36.916   4.541
68642W        W37047  43.725  16.064  12.385
68643W        W37048  19.540   2.286  14.419
68644W        W37049  36.577   6.599  10.409
68645W        W37050  26.979   1.270  13.429
68646W        W37051   4.874   7.756  13.356
68647W        W37052   9.111  10.398  14.037
68648W        W37053  15.726   0.822   5.129
68649W        W37054  41.790   5.865   1.681
68650W        W37055  40.353  33.521  10.536
68651W        W37056   7.685  44.298   2.072
68652W        W37057  14.370  39.594  12.185
68653W        W37058  12.753  42.778   3.130
68654W        W37059   4.342  10.867  13.313
68655W        W37060  34.670   5.255   4.678
68656W        W37061  37.924  17.057   3.808
68657W        W37062  40.632   9.928  14.319
68658W        W37063  17.814  13.291   4.084
68659W        W37064  25.734  42.953   0.368
68660W        W37065  42.383  11.094  11.092
68661W        W37066  38.160  12.536   0.181
68662W        W37067  29.670   7.853  12.821
68663W        W37068   5.744  28.385   2.693
68664W        W37069  23.167  21.513   3.864
68665W        W37070   2.775  11.325  14.422
68666W        W37071  36.375  21.380  13.453
68667W        W37072   5.990  43.707  11.622
68668W        W37073   9.824  13.121  11.164
68669W        W37074  32.045  27.444  12.158
68670W        W37075  31.631  27.122  12.262
68671W        W37076  34.402   6.349  10.585
68672W        W37077  39.980  39.906  14.800
68673W        W37078  28.227  18.250  13.502
68674W        W37079   8.487   5.321   4.755
68675W        W37080  35.627  12.188   1.173
68676W        W37081   7.156  13.293   2.361
68677W        W37082  15.841  30.095  13.990
68678W        W37083   7.822  23.058  10.577
68679W        W37084  25.372  42.503   4.500
68680W        W37085   8.794  33.522  12.681
68681W        W37086  24.747  31.829  13.716
68682W        W37087   4.275   6.003   3.072
68683W        W37088  42.788  33.096  10.236
68684W        W37089  19.017   6.225   2.914
68685W        W37090  43.803  28.456  12.859
68686W        W37091  14.297  36.197   3.895
68687W        W37092  41.566  15.693  14.293
68688W        W37093  24.284   9.213   4.285
68689W        W37094  33.717  33.800  11.565
68690W        W37095  44.536  39.957  13.056
68691W        W37096   0.897  33.857  14.254
68692W        W37097   0.419  33.140   1.347
68693W        W37098  12.844  15.490  11.393
68694W        W37099  26.882  37.580  12.476
68695W        W37100  34.132  38.114  13.634
68696W        W37101  44.189   8.268  14.930
68697W        W37102   6.715   8.766   2.837
68698W        W37103  24.222  21.050  11.662
68699W        W37104  31.596   1.385   0.300
68700W        W37105  35.426  39.610  12.710
68701W        W37106  28.066   6.560  14.785
68702W        W37107   6.852  44.277   3.260
68703W        W37108  17.025   2.764   3.132
68704W        W37109  25.725  13.840  11.515
68705W        W37110  15.113  25.882   0.827
68706W        W37111  28.133   3.107  13.095
68707W        W37112  38.507  42.814   1.821
68708W        W37113  17.602  30.459  14.071
68709W        W37114   5.132  22.560   2.581
68710W        W37115  16.043  21.239   0.183
68711W        W37116   8.708  39.315   3.166
68712W        W37117  39.980  23.887   2.294
68713W        W37118   8.181  13.730  12.551
68714W        W37119  42.730  10.926  11.869
68715W        W37120  36.388  11.663  11.721
68716W        W37121  16.164   7.353  14.818
68717W        W37122  37.874  41.762  14.581
68718W        W37123  29.364  38.873   3.229
68719W        W37124   8.075  22.749   0.296
68720W        W37125  36.307  14.437   1.863
68721W        W37126  10.591   6.179  12.397
68722W        W37127  27.959  19.862  11.157
68723W        W37128   8.626   8.602   0.001
68724W        W37129  37.825   3.230  12.951
68725W        W37130  28.245  23.783   4.296
68726W        W37131  13.466  24.774  10.974
68727W        W37132  16.512  42.721   3.687
68728W        W37133  26.112  38.157  14.371
68729W        W37134  40.047  37.968   3.789
68730W        W37135  22.035  16.457   4.134
68731W        W37136  10.590   0.883  13.469
68732W        W37137  32.663  29.077   4.535
68733W        W37138   5.818   2.893   3.960
68734W        W37139  27.920   0.485  13.599
68735W        W37140  14.674  20.236   2.655
68736W        W37141  22.438  38.033  13.326
68737W        W37142  15.715  43.021  11.954
68738W        W37143  11.869  26.972   0.427
68739W        W37144  10.827  21.515  14.802
68740W        W37145   0.320   8.743  13.525
68741W        W37146  30.834  32.666  10.850
68742W        W37147  39.281  35.768   0.495
68743W        W37148  34.973  10.828  11.502
68744W        W37149  27.104   4.839  11.875
68745W        W37150  24.964   8.446  14.052
68746W        W37151  34.177  26.530  12.967
68747W        W37152  18.621   8.367   1.803
68748W        W37153  25.672  24.441  14.569
68749W        W37154   4.421  33.932   4.208
68750W        W37155   0.782  43.307   0.701
68751W        W37156   0.878  15.233  12.846
68752W        W37157  25.050   1.867   4.704
68753W        W37158  44.048  29.333   1.348
68754W        W37159  26.527  34.015   2.282
68755W        W37160  18.973  19.608   0.029
68756W        W37161  26.489   6.252   0.503
68757W        W37162  39.845  22.167  14.002
68758W        W37163  40.065  31.515   1.299
68759W        W37164  36.953  22.951   1.559
68760W        W37165   7.618  34.134   3.269
68761W        W37166  18.578  43.708  12.601
68762W        W37167  10.285  24.062  10.663
68763W        W37168  14.705  18.331   9.817
68764W        W37169   3.160  32.884   1.897
68765W        W37170  18.603  33.443  12.533
68766W        W37171  40.967  18.053   1.272
68767W        W37172  19.628  38.131  13.033
68768W        W37173  14.235  36.850  14.468
68769W        W37174   4.335  42.490   3.271
68770W        W37175  34.189   5.179  13.453
68771W        W37176  36.939  43.018   3.191
68772W        W37177  34.034  16.813   2.541
68773W        W37178  33.574   7.284   4.039
68774W        W37179  27.959  23.757   1.281
68775W        W37180  31.221  23.109   0.442
68776W        W37181   1.802   7.599  13.439
68777W        W37182  44.245  41.442  14.857
68778W        W37183  14.790  15.912   1.221
68779W        W37184  39.385  10.426   0.423
68780W        W37185   4.277  28.714  14.396
68781W        W37186   0.247  11.125  11.091
68782W        W37187   0.855  17.033   2.374
68783W        W37188   9.208   6.815  14.435
68784W        W37189   3.913  37.423   1.508
68785W        W37190  22.565   7.530   2.369
68786W        W37191  35.257  35.946  14.877
68787W        W37192  20.540  20.269   4.458
68788W        W37193  28.496  36.824   1.626
68789W        W37194  35.008  42.938   0.906
68790W        W37195   5.234  10.806  11.612
68791W        W37196  26.958   4.185   0.902
68792W        W37197  17.550  12.631  11.054
68793W        W37198  33.073  15.820   2.315
68794W        W37199   4.831  34.056  12.923
68795W        W37200   4.447  19.627  14.913
68796W        W37201   4.502  35.033  14.320
68797W        W37202  39.268  42.840   2.255
68798W        W37203  15.724  15.334  11.898
68799W        W37204  19.652  39.442   4.536
68800W        W37205  15.765  38.602   0.300
68801W        W37206   9.672  10.643  10.383
68802W        W37207  17.008  20.806   2.205
68803W        W37208  40.419  31.146  10.594
68804W        W37209  21.045  38.054   4.532
68805W        W37210  22.244  20.298  11.863
68806W        W37211  37.037  22.308  14.759
68807W        W37212   7.473  15.748   3.240
68808W        W37213  10.098  18.983  12.556
68809W        W37214  11.334  31.946   0.518
68810W        W37215  37.965  31.432   4.652
68811W        W37216  42.307   2.155   1.707
68812W        W37217   5.465  35.617  14.451
68813W        W37218   9.345   0.320  14.481
68814W        W37219  44.642  31.990  11.779
68815W        W37220  22.303  13.477   0.215
68816W        W37221  20.794   6.451   2.317
68817W        W37222   0.294   1.249   2.241
68818W        W37223  20.401  27.141   4.557
68819W        W37224   5.746  21.020   3.215
68820W        W37225  40.500   5.920   2.450
68821W        W37226  26.590   5.823   0.822
68822W        W37227  26.595  26.265   3.022
68823W        W37228   5.022  23.363  11.512
68824W        W37229  37.617  40.577  11.623
68825W        W37230  21.902   8.654   4.981
68826W        W37231   9.261  27.499   3.686
68827W        W37232  34.270  29.450  12.396
68828W        W37233  12.722  31.056  11.403
68829W        W37234   5.319  21.465  12.784
68830W        W37235   9.138   4.947   3.621
68831W        W37236  26.020   7.891   4.266
68832W        W37237   7.195  18.484  10.313
68833W        W37238  32.377  44.036  13.487
68834W        W37239  18.150   5.919  14.249
68835W        W37240  36.667  40.415   0.294
68836W        W37241  19.693  13.036   3.521
68837W        W37242   3.249  34.350   2.699
68838W        W37243  20.358   2.404  12.391
68839W        W37244  34.532  44.037   1.459
68840W        W37245  30.710  44.377  11.037
68841W        W37246  35.872  42.751  11.116
68842W        W37247   0.874  35.475   1.214
68843W        W37248  29.944  14.635   1.295
68844W        W37249  41.434  37.842  10.799
68845W        W37250   2.134   1.753  13.443
68846W        W37251   7.480  41.749   1.801
68847W        W37252  25.530   5.371  10.909
68848W        W37253  13.713  23.824   4.775
68849W        W37254  44.372  30.285   0.371
68850W        W37255  44.890  35.052   1.795
68851W        W37256  20.333  12.473  10.142
68852W        W37257  16.087  28.207   4.102
68853W        W37258  16.861   7.155   1.882
68854W        W37259  40.452  19.282   4.114
68855W        W37260  36.344  42.929  14.821
68856W        W37261  13.365  15.452   0.992
68857W        W37262  34.631   7.609   0.040
68858W        W37263  38.400   9.070  11.205
68859W        W37264  37.612  23.519   3.429
68860W        W37265  11.801   7.315  12.949
68861W        W37266  30.189  42.356  12.361
68862W        W37267  32.058   1.394   1.018
68863W        W37268  16.341  10.750  10.213
68864W        W37269   5.234  33.633  12.873
68865W        W37270   7.696  39.999  11.722
68866W        W37271  27.697  16.527  13.092
68867W        W37272  42.834   7.776   3.519
68868W        W37273  23.004  34.970   1.887
68869W        W37274   5.707  42.894   3.877
68870W        W37275  32.063  12.747   4.899
68871W        W37276   3.180  40.947  11.946
68872W        W37277  28.573  24.678   2.619
68873W        W37278   5.534  30.866  11.127
68874W        W37279  32.472  35.855   3.697
68875W        W37280  14.315  15.714   0.305
68876W        W37281  10.708   2.715  12.123
68877W        W37282  33.986   7.722   2.018
68878W        W37283  18.087   3.837  11.731
68879W        W37284  22.709  30.513   1.491
68880W        W37285  22.253  18.283  14.412
68881W        W37286   1.195   7.466   3.147
68882W        W37287  17.257  43.815   3.109
68883W        W37288  24.947   2.719  12.422
68884W        W37289  17.139  26.249  13.595
68885W        W37290  30.427  41.828  13.070
68886W        W37291  22.052   0.591  12.093
68887W        W37292  29.092  20.549  11.638
68888W        W37293  42.082  41.800   0.860
68889W        W37294  28.791  20.689   0.877
68890W        W37295  20.215  29.258   3.077
68891W        W37296   5.190  24.035   2.695
68892W        W37297   7.103  16.824  11.529
68893W        W37298  34.906  23.266  14.503
68894W        W37299   9.267  34.207   4.614
68895W        W37300  35.252  18.054  12.601
68896W        W37301   0.255  12.629  13.535
68897W        W37302   0.202  40.407  11.576
68898W        W37303  31.152  44.958   3.173
68899W        W37304  36.989   7.749  13.653
68900W        W37305   3.955   9.160   5.622
68901W        W37306  18.149  17.910  12.084
68902W        W37307  17.814   7.097   2.699
68903W        W37308  13.840  22.213   0.901
68904W        W37309  42.443  31.081  11.621
68905W        W37310  29.923  43.754   2.549
68906W        W37311  15.520  29.355  12.780
68907W        W37312  43.152  41.057  11.043
68908W        W37313   2.825  33.015  10.518
68909W        W37314  33.497  40.313   1.851
68910W        W37315  41.355  22.194   0.125
68911W        W37316  42.083   3.891   2.270
68912W        W37317   6.307  43.220   2.577
68913W        W37318  18.968  40.983   1.245
68914W        W37319  24.112   8.706  14.018
68915W        W37320  17.144  27.381   4.193
68916W        W37321  31.043   5.834  12.532
68917W        W37322  24.192  34.100   3.438
68918W        W37323  41.692  31.502  13.491
68919W        W37324  33.138  15.626   0.998
68920W        W37325  35.616  12.309   0.266
68921W        W37326   1.466  39.958  14.835
68922W        W37327  25.179  10.440   3.234
68923W        W37328  41.502  41.847   2.518
68924W        W37329  28.982   2.177   2.211
68925W        W37330  43.583  37.729   2.854
68926W        W37331  28.535  40.085   4.027
68927W        W37332  27.105  29.968   4.561
68928W        W37333  26.630  23.088  13.952
68929W        W37334  22.484  21.222   1.400
68930W        W37335   4.231  36.250  12.563
68931W        W37336   8.397  15.096  13.111
68932W        W37337  30.191  12.690   4.652
68933W        W37338   0.960  16.973  10.901
68934W        W37339   0.250  34.925  12.030
68935W        W37340   9.301  38.393   2.970
68936W        W37341  40.580  26.146   0.239
68937W        W37342  35.565  22.483   4.317
68938W        W37343  41.248  13.358   2.823
68939W        W37344  22.815   7.105  14.841
68940W        W37345   8.939   3.832  13.188
68941W        W37346  34.852   1.374  14.458
68942W        W37347   9.845  38.514   5.032
68943W        W37348  30.740  21.696   2.747
68944W        W37349  14.681  23.095   1.954
68945W        W37350   3.167  33.798   2.118
68946W        W37351  30.446   3.355   1.354
68947W        W37352   7.210   1.978   0.506
68948W        W37353  19.851  22.925  11.597
68949W        W37354  10.299  21.549  13.021
68950W        W37355   9.794  41.769  14.024
68951W        W37356  18.284  38.510  10.695
68952W        W37357  23.535  10.299  14.561
68953W        W37358   0.462  44.795  11.619
68954W        W37359   4.487  20.249  10.587
68955W        W37360  12.526  23.945  13.330
68956W        W37361  42.812  34.166  11.356
68957W        W37362  31.786  30.101  10.453
68958W        W37363  13.847   1.728  14.410
68959W        W37364   5.974   5.205   4.322
68960W        W37365  24.902   4.872  11.713
68961W        W37366   5.307  19.381   0.234
68962W        W37367   1.275  44.934   0.077
68963W        W37368  26.172   5.463  11.438
68964W        W37369   6.357   8.639   2.248
68965W        W37370  38.887  19.714  12.956
68966W        W37371  22.571  34.956   3.761
68967W        W37372  34.625  30.494   3.714
68968W        W37373   5.958   9.584  13.466
68969W        W37374  36.257  18.867   2.850
68970W        W37375  42.428  33.621   3.245
68971W        W37376   8.190  44.262   3.130
68972W        W37377  18.758  10.225   4.499
68973W        W37378  29.906  36.374   2.211
68974W        W37379   2.473   2.942  10.898
68975W        W37380  13.332  23.166  13.378
68976W        W37381  40.527   6.961  10.220
68977W        W37382   4.767  41.445   2.075
68978W        W37383  24.953  24.550  11.159
68979W        W37384  34.321  39.485  13.585
68980W        W37385  33.916  26.509   3.230
68981W        W37386  13.615  26.159  13.797
68982W        W37387   5.440  13.697   1.426
68983W        W37388  38.823  31.487  12.872
68984W        W37389  28.858  32.290  12.003
68985W        W37390  13.080  24.010   2.896
68986W        W37391  38.559  20.105   4.683
68987W        W37392  11.243  28.948  12.830
68988W        W37393  28.261  27.621   4.590
68989W        W37394  10.745  44.506   2.308
68990W        W37395  30.721   2.330   2.203
68991W        W37396  23.054  14.846  12.127
68992W        W37397  22.617   0.931  14.825
68993W        W37398  15.638  12.612   1.757
68994W        W37399   6.135  15.530   4.134
68995W        W37400  38.881   6.250   4.451
68996W        W37401   2.842   9.613  11.934
68997W        W37402   6.363   5.380  11.845
68998W        W37403   1.774  25.518  12.166
68999W        W37404  27.876  29.576   0.195
69000W        W37405  13.810  41.986  14.942
69001W        W37406   0.368  32.106   4.772
69002W        W37407   7.336   6.951   1.683
69003W        W37408  39.834  37.350  14.245
69004W        W37409  31.855   6.732  14.337
69005W        W37410   4.250   2.340  14.370
69006W        W37411  10.677  37.411  13.914
69007W        W37412  15.334  39.406  14.812
69008W        W37413   9.705  10.444  11.542
69009W        W37414  19.660   5.760  13.416
69010W        W37415   4.623  38.212   0.281
69011W        W37416   1.792  19.119   4.140
69012W        W37417  42.957   3.669  10.756
69013W        W37418   0.739  41.237   4.266
69014W        W37419  28.218   4.157   3.769
69015W        W37420  33.192  10.903  14.496
69016W        W37421   4.458  14.112  10.660
69017W        W37422  30.212   6.909  11.102
69018W        W37423  37.850  15.647   2.429
69019W        W37424  25.956   0.732   2.940
69020W        W37425  33.683  44.967   4.070
69021W        W37426  20.765  27.650   2.900
69022W        W37427  15.817  20.832   4.602
69023W        W37428  28.208  37.535   0.957
69024W        W37429  13.805   6.917   1.960
69025W        W37430   2.565  43.397   4.475
69026W        W37431  33.001   9.016  10.603
69027W        W37432  40.220  36.413  13.922
69028W        W37433  23.108  27.849   3.593
69029W        W37434  19.051  27.656  13.455
69030W        W37435   5.270  23.980   0.925
69031W        W37436  15.479   6.906  13.519
69032W        W37437   1.248  36.838   2.747
69033W        W37438  31.916  11.179  11.740
69034W        W37439  31.433  19.316  10.659
69035W        W37440  24.534   5.256  12.578
69036W        W37441  12.856  29.525   2.112
69037W        W37442   8.874  34.777   4.277
69038W        W37443  20.046  37.614  12.653
69039W        W37444   7.732  21.093   3.659
69040W        W37445  41.648   1.625  12.427
69041W        W37446  31.315  37.973  14.922
69042W        W37447  19.092  21.206  13.545
69043W        W37448  19.719   5.870  11.098
69044W        W37449   4.275  10.149  11.621
69045W        W37450  29.953  18.467  13.569
69046W        W37451  19.448   9.148   0.000
69047W        W37452  44.325  24.499  12.023
69048W        W37453  43.099  12.664  11.158
69049W        W37454  38.477  25.088  12.084
69050W        W37455  24.530  26.872   0.919
69051W        W37456  29.108  28.698  12.936
69052W        W37457  29.587  16.726   0.791
69053W        W37458  42.437  18.173   1.667
69054W        W37459  43.431   5.308  11.808
69055W        W37460  14.252  44.860   4.316
69056W        W37461  18.488  27.243  14.072
69057W        W37462   3.341   2.688  14.993
69058W        W37463  35.905  28.916   3.673
69059W        W37464  33.134  29.432  11.987
69060W        W37465  42.434  38.508   1.797
69061W        W37466  41.765   5.953  11.911
69062W        W37467  28.498  13.893   0.543
69063W        W37468  25.520   9.697  12.352
69064W        W37469  43.438  20.888   1.545
69065W        W37470  12.347  43.062   0.251
69066W        W37471  34.912  14.808  11.693
69067W        W37472  12.247  18.589  11.094
69068W        W37473   4.343  34.655  13.370
69069W        W37474  14.739  43.206   4.547
69070W        W37475   5.553  13.284   3.085
69071W        W37476  31.086  23.905  10.955
69072W        W37477  43.397  44.415  11.506
69073W        W37478  28.713   0.364   2.627
69074W        W37479  25.230  10.579  14.524
69075W        W37480   9.967  35.393  14.505
69076W        W37481   1.603   7.090   2.962
69077W        W37482  27.538  17.109  12.037
69078W        W37483  18.565  11.814   3.725
69079W        W37484  20.509   0.341   2.396
69080W        W37485   2.943  12.606   4.558
69081W        W37486   5.150   2.477  14.544
69082W        W37487  32.112  38.415   2.539
69083W        W37488   3.309  35.510   0.350
69084W        W37489  12.368  14.821   2.790
69085W        W37490  23.125  37.847   4.664
69086W        W37491   3.769  23.301  11.115
69087W        W37492  12.243  44.987   0.272
69088W        W37493  20.116  16.998   0.919
69089W        W37494  13.417  22.000  14.445
69090W        W37495  25.835  25.827   3.307
69091W        W37496   4.028  37.514  10.651
69092W        W37497  23.948  41.353  14.350
69093W        W37498  25.100   6.766  13.740
69094W        W37499  40.309  30.453  11.131
69095W        W37500  18.767  24.960  13.825
69096W        W37501   4.128  16.714  12.056
69097W        W37502  38.354  17.981   0.934
69098W        W37503  29.847  10.337  12.880
69099W        W37504  30.864   0.259   0.517
69100W        W37505  15.972  17.600  13.534
69101W        W37506   5.675  13.176   4.513
69102W        W37507  26.604  34.404  13.734
69103W        W37508  29.936  19.176   0.750
69104W        W37509  37.412  41.587  14.368
69105W        W37510  31.901  38.307  12.935
69106W        W37511   3.250  26.601  12.932
69107W        W37512   3.415   7.305   3.132
69108W        W37513  18.489   3.229  14.263
69109W        W37514   9.172  26.829  14.937
69110W        W37515  37.030  23.687  14.306
69111W        W37516   6.304  34.049  13.403
69112W        W37517   6.892  18.288  14.484
69113W        W37518  18.697  41.578   2.626
69114W        W37519  39.726   1.508   1.813
69115W        W37520  11.575   4.270  12.816
69116W        W37521  41.612   2.671   1.890
69117W        W37522  16.624  15.796  11.620
69118W        W37523  40.541  15.182   0.484
69119W        W37524  43.975  16.096   2.654
69120W        W37525  11.119  16.701  13.538
69121W        W37526  10.264  15.631  11.042
69122W        W37527  37.539  12.195   4.440
69123W        W37528  30.183  39.962   4.700
69124W        W37529   3.232  39.394   2.203
69125W        W37530   0.380  16.048   2.897
69126W        W37531  13.218  20.065  12.672
69127W        W37532  10.633  19.193  10.829
69128W        W37533  13.572   2.713  10.279
69129W        W37534  10.466  11.013  14.305
69130W        W37535  27.342   5.162   0.950
69131W        W37536  14.133  33.607   2.856
69132W        W37537  36.314  22.516  12.608
69133W        W37538  41.655  17.492  13.831
69134W        W37539  17.875  14.177  10.659
69135W        W37540  22.697  31.677   4.028
69136W        W37541  28.161  34.576  14.993
69137W        W37542  24.668  32.082   1.223
69138W        W37543   3.418  31.230  10.581
69139W        W37544  12.481   5.298  14.414
69140W        W37545  33.049  18.352   3.114
69141W        W37546   8.892  29.123   2.739
69142W        W37547  31.082  11.693   2.427
69143W        W37548  29.519  25.746   3.619
69144W        W37549  43.955  39.523   0.245
69145W        W37550   3.479  17.563   3.317
69146W        W37551  38.098  23.769  14.662
69147W        W37552  22.189  41.888   0.852
69148W        W37553   1.106  23.580   2.861
69149W        W37554  10.146  20.430  11.585
69150W        W37555  36.902   4.738  12.808
69151W        W37556  40.103  44.411   1.345
69152W        W37557   0.881  35.307  11.060
69153W        W37558  40.863   3.273   4.104
69154W        W37559  10.594  11.586   0.376
69155W        W37560  38.074  35.991   2.198
69156W        W37561   5.326   1.256  10.949
69157W        W37562  15.424  39.569  13.383
69158W        W37563   4.107  19.204  12.564
69159W        W37564  33.586  31.453  14.277
69160W        W37565   4.277  30.388  13.297
69161W        W37566   6.198   9.110  13.609
69162W        W37567  13.396  18.349   3.129
69163W        W37568  22.269   2.140  12.014
69164W        W37569   7.663  33.160  11.453
69165W        W37570  44.989  24.068   1.379
69166W        W37571  22.188  34.401  12.513
69167W        W37572  20.819  40.882  10.483
69168W        W37573  14.115  16.747  12.939
69169W        W37574  40.474  29.941  14.891
69170W        W37575  23.242  41.816   4.257
69171W        W37576  44.171  16.057   0.795
69172W        W37577  41.793  40.812   2.213
69173W        W37578  43.606  41.199   5.071
69174W        W37579  20.300  14.829  13.817
69175W        W37580  12.171  17.672  11.433
69176W        W37581  23.733   7.588   0.872
69177W        W37582  23.577  29.432   2.857
69178W        W37583  40.001  24.894  12.513
69179W        W37584  33.249   4.664  12.758
69180W        W37585   8.194  32.201  11.149
69181W        W37586  18.793  29.665   1.767
69182W        W37587  17.528  43.851   1.886
69183W        W37588  13.317  28.688  10.931
69184W        W37589  44.069   7.122   2.961
69185W        W37590  38.472   3.179  11.478
69186W        W37591  44.251   4.672   0.420
69187W        W37592  16.873  29.958  14.936
69188W        W37593   9.774  16.104   4.032
69189W        W37594  35.878  14.681  13.952
69190W        W37595  40.889  23.239   2.082
69191W        W37596   5.107  44.964  14.976
69192W        W37597  34.532   7.434  12.112
69193W        W37598   4.231  29.907  13.885
69194W        W37599  42.313   3.485  14.338
69195W        W37600  37.826  21.763  14.804
69196W        W37601  23.263  33.489  14.717
69197W        W37602  17.461  10.251  12.057
69198W        W37603  26.135  29.584  12.873
69199W        W37604  10.077   0.430   4.997
69200W        W37605  29.030  19.637   0.462
69201W        W37606   1.387  28.951   0.956
69202W        W37607   5.339   0.112  13.077
69203W        W37608   2.366   6.698   0.516
69204W        W37609  33.913  31.478  12.471
69205W        W37610  12.399  27.216  12.056
69206W        W37611   7.769  17.250  14.585
69207W        W37612  25.259  35.468  14.065
69208W        W37613   8.357  19.325   0.379
69209W        W37614   3.925  28.062   2.402
69210W        W37615  20.027  33.120   3.823
69211W        W37616  32.183  40.996  10.855
69212W        W37617  22.702  41.343  10.580
69213W        W37618  38.173  14.272   4.091
69214W        W37619   0.237  14.255  14.768
69215W        W37620  35.363  15.361  12.113
69216W        W37621  43.477  16.587   1.832
69217W        W37622  35.098  41.901   2.558
69218W        W37623  37.160  32.651  12.017
69219W        W37624  21.268  18.668  12.188
69220W        W37625  42.336   4.332  13.748
69221W        W37626  15.090   9.099  14.379
69222W        W37627  29.058  37.784  12.990
69223W        W37628  43.952  28.071  12.535
69224W        W37629  22.850  37.830   0.470
69225W        W37630   3.685   9.742  12.830
69226W        W37631   3.972   8.740   1.313
69227W        W37632  11.542  10.375  13.870
69228W        W37633   8.218  20.745   0.024
69229W        W37634  21.697  14.179  10.460
69230W        W37635  42.511  22.293  11.951
69231W        W37636  28.529  31.042  12.615
69232W        W37637  34.573  44.284   0.056
69233W        W37638  10.453  32.492   1.352
69234W        W37639  16.133  23.168  12.981
69235W        W37640   1.071  30.847   1.452
69236W        W37641   1.327  26.777  13.844
69237W        W37642  29.877   2.634   1.453
69238W        W37643  14.835  32.830   1.842
69239W        W37644  17.554  18.133   2.216
69240W        W37645  36.519  10.685  14.465
69241W        W37646  41.338   6.236  14.853
69242W        W37647  27.813   8.707   4.532
69243W        W37648   5.752  44.479  10.630
69244W        W37649  18.565  36.040   2.738
69245W        W37650  21.022  32.000   4.027
69246W        W37651  17.329  35.529  11.852
69247W        W37652  38.025  44.092  12.199
69248W        W37653  37.389  29.817   3.154
69249W        W37654  37.406   1.395  14.752
69250W        W37655   1.863  19.156   3.638
69251W        W37656  40.225  20.074   3.750
69252W        W37657  21.632  11.727  11.808
69253W        W37658  41.876   6.375   2.721
69254W        W37659   4.661  10.811   4.059
69255W        W37660  31.510   9.938   2.457
69256W        W37661  21.301  24.051  14.745
69257W        W37662   7.788   7.868  12.406
69258W        W37663  41.224  26.953   3.223
69259W        W37664  22.553  11.861   2.014
69260W        W37665   2.191  22.527  14.356
69261W        W37666   2.167  44.030  10.937
69262W        W37667  16.801  18.459   0.377
69263W        W37668  31.056  44.517   1.805
69264W        W37669  40.412  39.310  14.239
69265W        W37670  28.006   6.430   2.343
69266W        W37671  31.383   7.948  12.612
69267W        W37672  14.733  14.233   2.031
69268W        W37673  35.944  21.209  10.846
69269W        W37674  23.770  21.157  14.301
69270W        W37675  38.937  29.526   1.679
69271W        W37676  10.605  44.013   4.557
69272W        W37677  28.660  18.988  14.960
69273W        W37678  27.073  38.917   1.344
69274W        W37679  19.730   4.987   1.747
69275W        W37680  37.030  26.952  14.464
69276W        W37681  40.731   8.675  13.774
69277W        W37682  28.090  17.984  11.335
69278W        W37683  34.423  18.166   1.990
69279W        W37684   4.925  17.624  10.646
69280W        W37685  41.447  16.295   2.359
69281W        W37686   0.396  24.119   3.962
69282W        W37687  22.270  11.600  13.072
69283W        W37688   7.221  36.687  13.385
69284W        W37689   8.478  31.789   0.311
69285W        W37690   3.185   8.722   3.354
69286W        W37691  38.211  27.030  13.469
69287W        W37692  37.417  32.168  10.433
69288W        W37693  18.524   0.535   2.421
69289W        W37694  29.063  11.731  11.471
69290W        W37695  35.488   9.476  13.797
69291W        W37696  13.797  31.385   3.298
69292W        W37697  24.380  28.450  10.764
69293W        W37698  43.896  39.766   0.742
69294W        W37699  17.317  40.753  12.081
69295W        W37700   5.309   6.826   3.070
69296W        W37701  12.287  14.784   4.397
69297W        W37702  23.231  31.514   0.652
69298W        W37703  31.601   9.045  10.381
69299W        W37704  19.041  38.176   4.540
69300W        W37705  43.480   6.708   2.690
69301W        W37706  20.000  17.146  10.755
69302W        W37707  42.997  10.425  11.261
69303W        W37708  34.959  36.805  12.484
69304W        W37709  29.531  37.971  11.991
69305W        W37710  13.758  18.559   3.724
69306W        W37711  14.092  10.801  13.620
69307W        W37712  16.312  38.551   1.129
69308W        W37713  27.435  12.963   4.357
69309W        W37714  18.323  14.086   3.837
69310W        W37715  15.477  43.267  12.398
69311W        W37716   4.883  40.071   4.216
69312W        W37717  40.538  43.756  14.697
69313W        W37718  13.062   9.716   3.213
69314W        W37719  32.578  13.714   4.256
69315W        W37720  43.637   7.707   4.544
69316W        W37721  30.103  14.034  11.109
69317W        W37722  40.576  42.240   2.789
69318W        W37723  21.630  42.041   1.005
69319W        W37724  38.007  39.225   4.618
69320W        W37725  31.928  15.782   1.649
69321W        W37726  27.295  28.204   0.157
69322W        W37727  42.789   9.161   3.556
69323W        W37728   5.772  21.245  12.991
69324W        W37729  20.221  43.793   2.260
69325W        W37730  14.266  29.498   1.890
69326W        W37731  35.527  13.428   0.972
69327W        W37732  43.320  36.783   2.558
69328W        W37733   8.660  41.747   1.350
69329W        W37734  19.852  31.813   1.833
69330W        W37735  28.569  16.232   2.191
69331W        W37736   9.289  24.885  11.217
69332W        W37737   8.736   8.157   4.964
69333W        W37738  15.283  24.008  10.717
69334W        W37739  39.423  16.849  13.558
69335W        W37740  13.635  41.563  12.523
69336W        W37741  18.711  44.467  12.858
69337W        W37742  23.562  17.058   1.422
69338W        W37743   4.213  25.835  12.042
69339W        W37744  31.261  23.994   4.580
69340W        W37745   3.348   9.818  11.933
69341W        W37746  25.610  10.840  13.673
69342W        W37747  13.825  16.569   1.253
69343W        W37748  14.773   8.620   0.474
69344W        W37749  44.699  36.879  13.053
69345W        W37750  17.864  34.311   5.167
69346W        W37751  39.821  41.271  13.584
69347W        W37752  19.689  38.588  12.843
69348W        W37753  38.648  28.252  13.042
69349W        W37754   6.674  38.553  10.675
69350W        W37755  29.320  32.076  12.199
69351W        W37756  12.548  22.567  13.035
69352W        W37757   6.651  24.965   2.326
69353W        W37758  18.798  44.458  13.859
69354W        W37759  14.824   2.467  12.984
69355W        W37760  28.806  32.188  11.045
69356W        W37761   7.005  39.414   0.480
69357W        W37762   1.720  16.745  12.993
69358W        W37763   3.253  35.779   3.553
69359W        W37764  43.163  26.749  10.719
69360W        W37765  30.272   6.456   1.386
69361W        W37766  10.931   3.466  14.891
69362W        W37767  41.291   5.687  10.321
69363W        W37768  36.926  20.698  10.644
69364W        W37769   7.039  19.067   3.364
69365W        W37770  34.750  23.512  11.607
69366W        W37771  40.124  18.144   1.819
69367W        W37772  15.776  44.225   3.675
69368W        W37773  44.079  17.057   2.264
69369W        W37774  19.231  17.130   4.637
69370W        W37775  26.201  20.924   3.665
69371W        W37776  26.210   6.578  12.969
69372W        W37777  42.272   0.814  11.014
69373W        W37778  24.300  11.055  11.972
69374W        W37779   6.399  37.556  13.069
69375W        W37780  12.666  16.196  12.526
69376W        W37781  21.615  21.755   5.509
69377W        W37782   4.322   1.716   0.502
69378W        W37783   1.762  12.417  10.788
69379W        W37784  31.416  33.012   2.161
69380W        W37785   5.884   6.030   1.412
69381W        W37786  41.045   2.357  12.866
69382W        W37787  25.706  12.570   2.713
69383W        W37788  39.180  26.598   0.896
69384W        W37789  23.763  21.651   2.694
69385W        W37790  20.287   1.766  13.620
69386W        W37791  11.652  32.181  11.569
69387W        W37792  21.281  16.794   2.841
69388W        W37793  33.655  33.962  10.675
69389W        W37794  34.017  15.726   1.653
69390W        W37795  32.111  32.477  14.220
69391W        W37796  43.413  24.969  13.850
69392W        W37797  17.332  30.960  13.839
69393W        W37798  32.137   0.504   0.663
69394W        W37799  14.811  19.746   4.611
69395W        W37800  30.119   9.198   0.221
69396W        W37801  23.063  41.393   3.828
69397W        W37802  12.767  34.000   0.590
69398W        W37803  37.200   8.719   1.374
69399W        W37804  21.050  15.836   2.769
69400W        W37805   9.664  28.524  13.835
69401W        W37806  18.548  40.856   3.288
69402W        W37807  38.853  19.630  10.485
69403W        W37808  16.575  10.292  11.624
69404W        W37809  34.970  28.746   1.742
69405W        W37810  33.333  42.611  14.898
69406W        W37811  32.338   2.041   3.116
69407W        W37812   3.938   5.499  13.576
69408W        W37813  13.786   5.259  11.973
69409W        W37814   7.670  29.868  12.157
69410W        W37815  25.884  15.034  11.393
69411W        W37816  39.401   0.238  14.031
69412W        W37817   5.186  19.646  11.954
69413W        W37818  42.339  17.535   3.467
69414W        W37819  25.023  13.835   0.280
69415W        W37820  20.153  18.153   4.553
69416W        W37821  36.585   8.924  12.475
69417W        W37822   3.716  29.596  13.567
69418W        W37823  38.274  17.139   3.450
69419W        W37824  24.210  31.420  14.967
69420W        W37825   5.632  12.350   0.918
69421W        W37826  35.966  34.067  11.065
69422W        W37827  13.672  30.555  11.682
69423W        W37828   0.457   0.069  10.839
69424W        W37829   1.043  21.020  10.920
69425W        W37830  17.256  44.030  13.785
69426W        W37831   1.100  40.552  11.210
69427W        W37832  15.058   2.334   1.638
69428W        W37833  32.933  40.356   4.487
69429W        W37834  33.971  36.998   2.492
69430W        W37835   6.789  19.339  10.646
69431W        W37836  36.080  20.376  13.009
69432W        W37837  38.336   2.421   0.345
69433W        W37838  41.318  35.423  12.037
69434W        W37839  23.798  11.661  12.594
69435W        W37840   4.570  10.834   0.333
69436W        W37841  27.124   1.055  13.893
69437W        W37842  43.905  31.010   0.999
69438W        W37843   0.895  29.484   2.442
69439W        W37844  27.035  38.522  13.041
69440W        W37845  11.304   1.703  10.373
69441W        W37846  34.459  23.074  13.584
69442W        W37847  12.654   6.177  11.967
69443W        W37848  38.931  12.160   0.315
69444W        W37849   1.516  41.557  12.049
69445W        W37850  40.436  43.923  11.097
69446W        W37851  37.431  18.221   4.624
69447W        W37852  44.083  34.837   0.885
69448W        W37853  26.372  28.701  12.165
69449W        W37854  33.327  14.284  11.119
69450W        W37855   6.224  12.826  14.875
69451W        W37856  15.534  34.099   0.800
69452W        W37857  36.572   8.228  11.399
69453W        W37858  41.925   3.645   5.156
69454W        W37859  22.151   3.233   1.647
69455W        W37860  34.611  23.996  13.781
69456W        W37861  35.121  34.075   3.773
69457W        W37862  21.112   8.299  10.825
69458W        W37863  32.547  29.353   0.369
69459W        W37864  23.570   9.806  11.319
69460W        W37865  23.569  27.445  14.812
69461W        W37866   3.340  40.580   0.717
69462W        W37867  11.710  14.143  12.023
69463W        W37868  13.786  44.826   4.113
69464W        W37869  26.500  22.259  13.352
69465W        W37870  30.144   1.735  12.896
69466W        W37871   7.280  17.760   3.481
69467W        W37872  15.566  37.497  11.392
69468W        W37873  24.015  26.485   0.268
69469W        W37874  19.211  40.781   1.659
69470W        W37875   4.270  38.388   4.394
69471W        W37876  31.378  13.113  12.883
69472W        W37877   8.925  31.945   1.648
69473W        W37878  40.977  19.982   4.045
69474W        W37879  18.619  11.124   2.449
69475W        W37880  29.072   0.399   0.211
69476W        W37881  14.265  11.580   4.764
69477W        W37882  15.337   6.356   3.063
69478W        W37883  44.994  42.407  11.550
69479W        W37884  33.961  40.449   4.790
69480W        W37885   0.898  37.832   1.895
69481W        W37886   6.469  13.897   2.254
69482W        W37887  23.102  22.169   1.307
69483W        W37888  16.752  17.507  11.932
69484W        W37889  11.668  25.404   1.266
69485W        W37890   7.739  43.949  11.385
69486W        W37891  12.965  28.960   0.480
69487W        W37892  27.886  39.090  12.103
69488W        W37893  14.562   3.268  13.442
69489W        W37894  15.773   7.688   1.637
69490W        W37895  41.048   2.268   2.813
69491W        W37896  34.857  14.720  13.054
69492W        W37897  27.431  26.982  12.450
69493W        W37898  38.503  12.689   1.627
69494W        W37899   6.244  32.902   2.661
69495W        W37900   0.019  38.459   3.759
69496W        W37901  30.430  43.575   0.306
69497W        W37902  10.658  25.078   0.285
69498W        W37903  44.105  40.759   4.159
69499W        W37904   6.042  32.426   3.413
69500W        W37905  41.403  40.952   0.506
69501W        W37906  16.719   9.687   0.835
69502W        W37907   5.627  14.115   3.359
69503W        W37908  21.313  37.367   3.749
69504W        W37909  11.298  28.117   4.347
69505W        W37910  38.921  23.081   0.138
69506W        W37911  21.075   6.130  11.616
69507W        W37912  36.599   0.046  11.539
69508W        W37913  14.880  16.788  13.896
69509W        W37914   9.884   0.074   0.162
69510W        W37915  19.684  21.817   4.612
69511W        W37916   1.015   1.217   0.401
69512W        W37917  20.615  21.603  12.781
69513W        W37918  31.446  20.310  14.961
69514W        W37919  35.406  10.277   2.723
69515W        W37920  20.533  37.521  14.968
69516W        W37921  21.058  22.276   9.767
69517W        W37922   9.071  23.607   2.314
69518W        W37923  39.065  17.555  13.860
69519W        W37924  34.911   7.808   4.136
69520W        W37925  37.532  41.910  14.928
69521W        W37926   2.423  26.692  14.582
69522W        W37927  33.632   1.001  10.738
69523W        W37928  12.179  30.027  12.898
69524W        W37929  33.909  19.316   1.891
69525W        W37930  17.976   2.469  14.486
69526W        W37931   3.382  15.662  12.865
69527W        W37932  11.853  24.509  11.231
69528W        W37933   4.979  32.255   0.042
69529W        W37934  32.904   6.750  13.824
69530W        W37935  31.986  39.727  14.877
69531W        W37936  35.073  34.553  11.763
69532W        W37937  37.535  16.166   3.642
69533W        W37938  22.590  16.821   2.993
69534W        W37939  43.621  21.586  12.507
69535W        W37940  41.359   7.743   3.669
69536W        W37941   0.225  39.740   3.229
69537W        W37942   1.332  11.649   4.253
69538W        W37943   2.817  10.390  14.059
69539W        W37944   8.222  15.555  13.607
69540W        W37945  10.005  26.508   9.992
69541W        W37946  43.913  17.676  13.264
69542W        W37947  21.295  34.023  11.947
69543W        W37948  26.553  44.032  14.289
69544W        W37949   2.869  22.791  13.444
69545W        W37950  38.073  24.874  13.822
69546W        W37951  40.127  10.816   2.245
69547W        W37952  43.191  34.967  10.684
69548W        W37953  29.603   2.551   0.982
69549W        W37954   0.403  12.107   0.488
69550W        W37955  10.267  24.983  13.060
69551W        W37956   7.548  36.887  14.333
69552W        W37957   2.307  26.534   1.747
69553W        W37958   8.199  10.747   2.166
69554W        W37959  19.736  10.862  10.615
69555W        W37960  41.197   7.631  11.167
69556W        W37961  34.186  30.163  11.131
69557W        W37962   7.762  28.934  13.059
69558W        W37963  26.123  23.430  11.485
69559W        W37964  25.195  10.616  13.424
69560W        W37965  21.484  32.625  12.359
69561W        W37966   3.872  17.595  13.016
69562W        W37967  37.115   9.193   2.051
69563W        W37968   4.418  21.869  12.945
69564W        W37969   5.454   8.659  11.575
69565W        W37970  14.872   6.637  10.560
69566W        W37971   1.232  24.116  14.748
69567W        W37972  39.348  34.114   1.704
69568W        W37973   5.439  10.224   1.794
69569W        W37974   2.703  19.670  10.565
69570W        W37975  10.766  20.085   4.650
69571W        W37976  25.091   8.424  12.747
69572W        W37977   1.757  41.406   3.995
69573W        W37978  23.051  11.839   2.791
69574W        W37979   4.456  43.539  10.662
69575W        W37980  37.610  29.454  14.830
69576W        W37981  16.505  41.821   0.668
69577W        W37982   9.412   6.486  11.913
69578W        W37983  10.682  12.077   0.205
69579W        W37984  14.963  35.615   1.310
69580W        W37985  43.027   3.513   3.633
69581W        W37986  35.200   6.212  14.370
69582W        W37987  24.123  38.256   3.852
69583W        W37988   2.209   4.832   2.729
69584W        W37989  44.874  21.099  12.508
69585W        W37990  28.155  13.125   0.165
69586W        W37991  20.780   6.421  11.928
69587W        W37992   1.444  21.622   1.430
69588W        W37993  38.369  27.502  12.588
69589W        W37994  15.224   1.834   1.356
69590W        W37995   5.638  24.179   1.755
69591W        W37996  16.331   8.965   1.894
69592W        W37997  33.978  34.605   1.250
69593W        W37998  43.060  10.063   5.362
69594W        W37999  11.556  10.036   4.074
69595W        W38000  27.598   7.291  10.670
69596W        W38001  40.812  12.748   1.311
69597W        W38002   1.509  16.901  12.569
69598W        W38003   0.381  31.911  14.397
69599W        W38004  13.080  39.886   4.376
69600W        W38005   0.078   5.819  10.166
69601W        W38006  43.894  12.798   1.962
69602W        W38007  20.568  25.720  12.579
69603W        W38008  32.722  29.386   4.127
69604W        W38009  18.275   2.523   4.207
69605W        W38010   5.800  25.568   0.509
69606W        W38011  12.496  17.621  11.833
69607W        W38012  13.762  41.174   4.130
69608W        W38013  21.672  30.552  11.522
69609W        W38014  26.124  39.265  13.663
69610W        W38015   4.359  39.891  10.991
69611W        W38016  10.854  28.433  10.706
69612W        W38017  40.329  32.075   2.162
69613W        W38018   2.996  18.519   4.051
69614W        W38019  20.140   9.290  10.751
69615W        W38020  41.271  14.327  11.158
69616W        W38021  20.233  13.924  11.584
69617W        W38022   1.925  37.359  12.487
69618W        W38023  31.816   3.793  11.544
69619W        W38024  17.838  31.756   3.555
69620W        W38025   1.188  43.367   4.109
69621W        W38026  15.479  23.185  11.181
69622W        W38027   1.940   9.746   4.605
69623W        W38028  35.359   5.589  13.872
69624W        W38029  17.877  27.468   1.277
69625W        W38030  24.859  26.540   4.549
69626W        W38031  16.332  26.248  11.863
69627W        W38032   3.969  41.470  10.278
69628W        W38033  29.981  42.524   3.142
69629W        W38034  21.063  41.053   2.783
69630W        W38035   5.800   2.463  13.897
69631W        W38036  33.813  23.238  14.365
69632W        W38037   5.743  33.988  11.738
69633W        W38038  44.175   5.160  12.508
69634W        W38039  35.057  14.529  14.917
69635W        W38040   0.643  17.176  12.618
69636W        W38041  33.786   9.721   1.142
69637W        W38042   3.258  14.538  14.167
69638W        W38043  31.601  37.091  14.961
69639W        W38044  14.030  16.136   3.293
69640W        W38045  17.904  31.059   2.566
69641W        W38046  40.579  21.582   2.337
69642W        W38047  26.275  44.230  12.863
69643W        W38048  22.388  36.372   0.259
69644W        W38049  15.379   6.634  14.919
69645W        W38050  11.090  22.739  11.392
69646W        W38051   8.161   8.380  10.637
69647W        W38052   3.292   9.011   4.262
69648W        W38053  40.794   0.785   4.179
69649W        W38054  29.649  26.853   4.715
69650W        W38055  40.603  29.390  13.459
69651W        W38056  17.371  15.239   2.277
69652W        W38057   7.715  11.902   4.816
69653W        W38058  21.967   4.359   2.265
69654W        W38059   7.084  23.055  14.866
69655W        W38060  22.727  34.427  12.039
69656W        W38061  11.821  11.437  10.607
69657W        W38062  16.316  40.524   0.357
69658W        W38063  30.119  19.762   4.907
69659W        W38064  27.117  35.035   0.332
69660W        W38065  37.277  32.932   0.269
69661W        W38066  29.739  44.567  11.063
69662W        W38067  34.561  41.849  13.038
69663W        W38068  13.084  28.990  14.099
69664W        W38069  33.173   4.430  14.584
69665W        W38070  25.123  22.983  14.423
69666W        W38071  37.794  31.549   2.672
69667W        W38072  38.286  30.677   2.218
69668W        W38073  37.226   9.203   0.682
69669W        W38074  36.792  24.504  11.541
69670W        W38075  15.119  19.750   4.168
69671W        W38076   1.962  12.063   4.030
69672W        W38077  34.499  25.095  11.144
69673W        W38078  13.049  32.143   0.742
69674W        W38079   8.816  30.272  14.062
69675W        W38080   5.398  43.079  14.015
69676W        W38081  39.913  33.269  12.794
69677W        W38082  27.968  43.910  11.163
69678W        W38083  28.408  37.660  12.390
69679W        W38084   6.726  27.432   2.391
69680W        W38085  15.280   6.744  13.061
69681W        W38086  38.523  19.695   3.105
69682W        W38087  26.400  13.178  12.160
69683W        W38088  22.658  36.307   1.808
69684W        W38089  39.045   8.144   0.404
69685W        W38090   7.448  15.043   1.214
69686W        W38091  37.426  27.759  10.707
69687W        W38092   6.362  38.563   1.968
69688W        W38093   3.454  21.073  13.959
69689W        W38094   9.378  19.169   2.852
69690W        W38095   0.177   6.564   4.164
69691W        W38096  43.825  32.892  13.073
69692W        W38097   1.449  27.299  10.761
69693W        W38098   1.609  34.514  11.683
69694W        W38099  16.071   5.003  13.076
69695W        W38100  37.850  35.337   0.956
69696W        W38101  26.534  35.628  12.948
69697W        W38102   7.299   9.677   3.709
69698W        W38103   9.888  13.632   3.234
69699W        W38104   5.440  32.571  11.553
69700W        W38105  12.848  44.987  13.514
69701W        W38106  42.434  19.103   3.276
69702W        W38107  19.027   3.419  11.141
69703W        W38108   3.526  19.642   2.433
69704W        W38109  30.167  38.396  11.551
69705W        W38110  31.904  44.444   1.897
69706W        W38111  24.551  44.810  12.515
69707W        W38112  36.905   2.256   5.511
69708W        W38113  30.110  27.059  14.043
69709W        W38114  35.832   5.748   1.731
69710W        W38115  15.064  39.491  12.969
69711W        W38116   1.140  16.693  12.299
69712W        W38117   7.662   2.780   1.867
69713W        W38118  11.941  11.789   3.215
69714W        W38119  33.617  26.227   3.725
69715W        W38120   0.978  22.120   2.488
69716W        W38121  13.666   6.251  10.784
69717W        W38122  38.217   1.534   1.663
69718W        W38123  34.788  37.779  12.613
69719W        W38124  32.617  28.949  12.591
69720W        W38125  16.186   3.876   0.705
69721W        W38126  44.372  15.362   5.073
69722W        W38127  39.953  26.215  11.935
69723W        W38128   8.309   5.707  10.653
69724W        W38129   0.918  26.057   3.533
69725W        W38130   1.958  20.113  13.091
69726W        W38131  22.985   2.947   3.262
69727W        W38132  24.710  14.638   2.730
69728W        W38133  44.726  40.811   1.406
69729W        W38134  19.686   6.534  13.077
69730W        W38135  37.942   7.682   2.735
69731W        W38136  28.310  18.661   0.848
69732W        W38137  37.629  39.011  14.018
69733W        W38138  16.024  34.445  10.746
69734W        W38139  24.633  26.572  13.038
69735W        W38140  39.385   7.146  13.378
69736W        W38141  13.115   6.339   0.123
69737W        W38142  36.828   5.218  14.547
69738W        W38143   6.383  34.944  13.871
69739W        W38144  18.144  16.668  11.620
69740W        W38145  25.061  26.700   4.996
69741W        W38146  22.314  14.275   3.917
69742W        W38147  41.775  24.982  10.396
69743W        W38148  35.237  35.616  14.260
69744W        W38149  26.625  36.726   4.636
69745W        W38150  40.820  36.821   4.668
69746W        W38151  41.468   9.847  13.571
69747W        W38152  18.328  43.333  12.053
69748W        W38153  28.328  43.339   1.708
69749W        W38154  11.868  28.070  13.868
69750W        W38155  36.892  27.659   2.193
69751W        W38156  27.595  16.532  12.135
69752W        W38157  18.212  11.427  12.082
69753W        W38158  21.879  25.159  12.075
69754W        W38159  39.031  35.278   0.719
69755W        W38160  39.519   1.747   5.056
69756W        W38161  15.597  13.821  14.407
69757W        W38162  11.208  15.629  11.950
69758W        W38163  26.817  39.338  14.117
69759W        W38164  17.535  27.240  14.337
69760W        W38165  12.873  19.809  13.503
69761W        W38166  14.631   0.274  14.689
69762W        W38167  27.484  33.853  10.822
69763W        W38168   5.287  11.284   1.356
69764W        W38169  19.155   4.882  14.966
69765W        W38170  35.072  24.732   1.394
69766W        W38171  40.439  39.792  14.530
69767W        W38172  13.706  31.070  11.067
69768W        W38173   3.678   0.487  13.419
69769W        W38174  14.126  27.652   1.669
69770W        W38175  23.070  38.574  10.739
69771W        W38176  37.134   3.251  11.619
69772W        W38177   2.382  22.444   0.227
69773W        W38178  40.061   1.883   1.760
69774W        W38179  39.373   7.787   3.660
69775W        W38180  34.586  35.900  12.100
69776W        W38181   7.701  36.055   3.792
69777W        W38182   8.202  20.618  14.520
69778W        W38183   5.675  23.158   0.930
69779W        W38184  21.057  13.679  14.916
69780W        W38185   8.619  14.434  12.452
69781W        W38186  17.729  22.924  13.486
69782W        W38187  39.883  42.151  13.519
69783W        W38188  36.519  27.670   2.866
69784W        W38189  19.733   8.946  10.684
69785W        W38190  18.740  24.511   1.818
69786W        W38191  15.661  33.307   0.070
69787W        W38192  11.605  24.312   4.053
69788W        W38193  27.884  31.422   3.072
69789W        W38194  25.923  44.727  14.943
69790W        W38195  14.619  34.630   3.211
69791W        W38196  31.162  28.615  11.135
69792W        W38197   6.490  23.677   4.360
69793W        W38198   4.264  25.321   1.329
69794W        W38199  26.144  21.474  10.689
69795W        W38200   8.131  35.864  11.236
69796W        W38201  23.164  30.545  14.093
69797W        W38202  23.393  37.454  12.628
69798W        W38203  27.698   6.211   0.974
69799W        W38204   9.413  24.977   5.163
69800W        W38205  32.577  43.748   2.692
69801W        W38206  12.791  12.174  12.010
69802W        W38207  17.305   6.057  14.531
69803W        W38208  33.850  23.823  13.477
69804W        W38209  10.920   3.844   4.236
69805W        W38210  30.378  12.551  12.586
69806W        W38211  35.409  15.137  10.698
69807W        W38212  34.372  41.719   4.959
69808W        W38213   5.006  12.765   3.673
69809W        W38214  28.507  39.925   4.601
69810W        W38215  34.934  36.190   0.435
69811W        W38216   8.631  31.410   1.927
69812W        W38217  44.085  33.998  12.503
69813W        W38218  25.837  39.318   4.525
69814W        W38219   5.468  21.082   0.723
69815W        W38220  18.618  30.975   3.288
69816W        W38221  26.351  27.317   4.525
69817W        W38222   0.018  34.271   3.153
69818W        W38223  13.511  39.980   3.552
69819W        W38224  41.941  40.123  12.997
69820W        W38225  26.946  14.593   1.331
69821W        W38226  41.751   1.728  11.031
69822W        W38227   9.381   9.414  10.695
69823W        W38228   8.575  13.880   5.432
69824W        W38229  20.166   2.253   0.861
69825W        W38230  35.843  13.286   3.562
69826W        W38231   2.068  40.031   1.513
69827W        W38232   0.017  25.787   1.098
69828W        W38233  13.784  12.791   4.149
69829W        W38234   8.406  39.528   4.519
69830W        W38235   6.816  11.976   2.386
69831W        W38236  14.301  27.966   4.660
69832W        W38237  33.880  34.308   1.659
69833W        W38238  25.732  30.394  11.171
69834W        W38239  37.893  18.627  14.424
69835W        W38240  21.177  26.074  14.653
69836W        W38241  24.580   5.762   3.874
69837W        W38242   4.880   3.371  14.801
69838W        W38243  21.055  38.014   3.200
69839W        W38244  23.953  12.804  12.897
69840W        W38245  27.470  43.499  14.333
69841W        W38246  14.362   7.383  12.884
69842W        W38247  43.875   2.493  12.410
69843W        W38248   8.057  20.082  13.323
69844W        W38249  37.099   3.775  12.359
69845W        W38250  21.139  17.349  11.625
69846W        W38251  13.544  38.495   3.248
69847W        W38252  34.383   2.364  12.360
69848W        W38253  33.151  13.159   2.153
69849W        W38254  19.866  36.878   3.571
69850W        W38255   6.422   3.438   1.108
69851W        W38256   8.378  14.134   1.635
69852W        W38257  43.850  42.718   1.651
69853W        W38258  40.394  21.594   0.551
69854W        W38259  32.056   1.634  10.611
69855W        W38260  27.737  37.781   3.681
69856W        W38261  10.871   0.904   4.145
69857W        W38262   8.135  21.213  14.825
69858W        W38263  15.275  36.582  12.944
69859W        W38264  31.026  42.804  10.268
69860W        W38265  41.887  19.005   4.557
69861W        W38266  10.086  15.166  10.845
69862W        W38267   6.832  24.662   4.876
69863W        W38268  29.596   5.251   2.837
69864W        W38269  37.949  23.937  11.571
69865W        W38270   7.625  35.106   4.760
69866W        W38271  41.035  15.537  12.994
69867W        W38272  36.125  15.064  14.232
69868W        W38273  26.289  19.903   2.644
69869W        W38274  11.920  43.474  11.233
69870W        W38275  31.584  21.019   1.923
69871W        W38276  19.235  12.555  13.586
69872W        W38277   1.485  32.643   4.148
69873W        W38278  29.436   1.399   4.180
69874W        W38279  31.174   2.153  12.219
69875W        W38280  28.007  24.121  10.424
69876W        W38281  44.262  33.065   1.781
69877W        W38282  23.163  24.270  14.976
69878W        W38283  10.235  17.460   4.988
69879W        W38284  21.947   9.188  11.107
69880W        W38285  13.815   6.153  13.060
69881W        W38286   0.463  32.335  12.730
69882W        W38287  35.505  11.200  14.968
69883W        W38288  20.610  20.293   1.637
69884W        W38289  11.147   7.892   2.718
69885W        W38290  43.095  11.537  14.876
69886W        W38291   2.412  37.092  11.098
69887W        W38292  34.549  33.487   3.657
69888W        W38293   0.874  41.885  12.962
69889W        W38294  15.112  40.284   0.941
69890W        W38295  35.040  27.128  14.303
69891W        W38296  41.339  23.719   2.415
69892W        W38297  38.260  20.231  12.025
69893W        W38298   3.769  40.567   2.293
69894W        W38299  17.876   6.983  14.970
69895W        W38300  37.347  38.206   3.783
69896W        W38301  36.461  29.222  13.871
69897W        W38302  35.269  28.598   0.364
69898W        W38303   0.638  24.056  10.510
69899W        W38304  14.649  23.561  12.881
69900W        W38305  23.975  44.095   3.782
69901W        W38306  38.428  42.273   1.004
69902W        W38307  22.724  15.226  12.357
69903W        W38308  25.564   8.058  11.318
69904W        W38309  22.161  34.625   0.391
69905W        W38310  16.576   7.658   3.606
69906W        W38311  42.813  15.579   2.765
69907W        W38312   4.419   4.670  11.589
69908W        W38313  10.314  21.112  11.093
69909W        W38314  34.335  32.529   1.842
69910W        W38315  43.771  20.332  13.886
69911W        W38316   4.311   9.001   4.651
69912W        W38317  17.764   9.136  11.013
69913W        W38318  35.592  38.131   4.110
69914W        W38319   3.941   6.305  11.852
69915W        W38320  20.477   0.999  12.362
69916W        W38321  15.804  19.615   0.331
69917W        W38322   0.052  32.349   3.147
69918W        W38323  13.747  14.821   0.710
69919W        W38324  29.383  42.614  12.109
69920W        W38325  38.861  28.894  14.700
69921W        W38326  11.132  14.598   1.439
69922W        W38327   3.231   2.992  13.026
69923W        W38328   5.948  31.625  13.801
69924W        W38329   7.789  25.355   0.027
69925W        W38330  16.892  26.114   0.809
69926W        W38331  13.379   0.260   3.262
69927W        W38332  17.563  31.412  13.979
69928W        W38333  29.541  14.880   3.797
69929W        W38334   0.704  14.664  10.656
69930W        W38335  16.005  26.094   1.863
69931W        W38336  24.276  33.580   4.526
69932W        W38337  26.659  41.196  14.743
69933W        W38338   2.875  24.604  14.017
69934W        W38339   5.215  14.181   0.294
69935W        W38340  43.455  13.889   4.071
69936W        W38341  37.187  30.395  13.980
69937W        W38342  27.345  30.513  14.445
69938W        W38343  22.731  41.867   4.365
69939W        W38344   2.308  32.020  12.502
69940W        W38345  43.814   2.250   4.681
69941W        W38346  42.488  13.756  14.804
69942W        W38347   2.812  41.879  13.042
69943W        W38348   5.633  29.425  11.779
69944W        W38349  29.224  39.406   3.233
69945W        W38350   2.749  13.036   4.283
69946W        W38351  43.693  44.363  11.931
69947W        W38352  18.148  38.975   0.887
69948W        W38353  10.718   9.061   1.972
69949W        W38354  25.890  10.508  14.950
69950W        W38355  23.501   1.104   3.266
69951W        W38356  18.660  19.572   4.628
69952W        W38357  11.446  27.874   0.325
69953W        W38358  21.478  32.076   4.279
69954W        W38359  43.596  27.396   1.411
69955W        W38360   2.332  11.803   4.560
69956W        W38361   7.617  35.674  11.505
69957W        W38362  41.855  18.306   0.811
69958W        W38363  11.107  42.444  14.113
69959W        W38364   4.594  44.682  14.373
69960W        W38365  25.835  11.707   0.641
69961W        W38366  16.749  31.807  14.849
69962W        W38367  17.714  21.585  11.170
69963W        W38368  25.479  43.508   2.357
69964W        W38369  44.765  19.015   2.593
69965W        W38370  30.953  34.264  14.383
69966W        W38371   2.185  43.348   0.017
69967W        W38372   5.901   3.991  12.803
69968W        W38373  18.082   3.120   4.998
69969W        W38374  14.185  42.777   1.224
69970W        W38375  11.349   0.069   2.665
69971W        W38376   7.287  43.323  11.344
69972W        W38377  39.229  35.541  10.449
69973W        W38378  24.962   7.691   1.782
69974W        W38379  31.388  20.873   4.689
69975W        W38380  36.508  23.561   2.732
69976W        W38381  19.748  41.770   3.778
69977W        W38382  35.110  24.318  14.894
69978W        W38383  37.860  43.214  12.050
69979W        W38384  30.994  17.074   1.644
69980W        W38385  42.267  30.572   4.157
69981W        W38386  24.451   2.335   4.256
69982W        W38387   1.162   3.261   2.375
69983W        W38388  28.226  18.118   0.368
69984W        W38389  27.210  25.170  13.776
69985W        W38390  24.442  29.154  14.983
69986W        W38391  38.264   4.388   2.236
69987W        W38392  21.248  42.089   4.096
69988W        W38393  29.475  28.125  10.868
69989W        W38394  10.406   1.128  12.695
69990W        W38395   2.929  40.014   2.735
69991W        W38396  11.763  44.781   2.745
69992W        W38397   2.212  14.268  13.526
69993W        W38398  37.479  32.574  14.985
69994W        W38399  17.042   3.869  11.981
69995W        W38400   1.507   9.383   2.180
69996W        W38401  44.108  43.176   3.253
69997W        W38402  38.422  31.207  11.437
69998W        W38403   7.130  18.976  12.565
69999W        W38404  40.755  35.426   3.596
70000W        W38405  32.534  11.418   2.130
70001W        W38406   2.941  17.690  14.062
70002W        W38407  16.659  25.742   4.006
70003W        W38408  10.616  25.694   0.790
70004W        W38409  30.013  43.287   2.850
70005W        W38410   2.466  38.879  14.367
70006W        W38411  13.683   6.193   4.509
70007W        W38412  19.209  41.562  14.788
70008W        W38413  30.396  33.037   4.784
70009W        W38414  29.095   1.625  11.716
70010W        W38415  14.284  38.609   0.010
70011W        W38416  39.499   3.931   0.998
70012W        W38417  21.625  14.120   0.692
70013W        W38418  20.064   9.176  12.411
70014W        W38419   0.793   9.856  11.557
70015W        W38420  21.455  10.026   0.236
70016W        W38421  20.295  15.262  12.435
70017W        W38422   3.553   5.121   1.321
70018W        W38423  10.641  18.413  13.179
70019W        W38424   9.340  25.095  10.732
70020W        W38425  31.679  14.796  10.656
70021W        W38426  40.631  39.473  11.577
70022W        W38427  30.342  22.580   2.685
70023W        W38428  38.589   5.381  13.239
70024W        W38429  36.364   3.008  13.829
70025W        W38430  44.343  27.110  10.646
70026W        W38431  21.131  38.825  13.565
70027W        W38432  11.769  37.162   0.992
70028W        W38433   3.820   1.192  11.609
70029W        W38434  44.217  38.975   1.910
70030W        W38435  42.017  40.699   3.140
70031W        W38436  15.745   2.438  10.619
70032W        W38437  32.297  36.890   4.656
70033W        W38438  40.768   4.802   1.378
70034W        W38439  32.581  36.268   4.954
70035W        W38440  16.332  20.330   0.427
70036W        W38441  18.099  30.113  14.588
70037W        W38442  15.582  11.765  13.895
70038W        W38443   2.000   3.179  11.086
70039W        W38444   4.153  32.513  13.505
70040W        W38445   5.728  12.055  10.773
70041W        W38446   3.851   1.417   3.150
70042W        W38447  28.520  37.608   2.241
70043W        W38448  25.432  15.143   3.946
70044W        W38449  20.431  23.418   0.434
70045W        W38450  21.830  24.016  11.424
70046W        W38451  41.002  25.718   2.461
70047W        W38452  26.067   4.980  13.858
70048W        W38453  33.083  33.163   1.823
70049W        W38454  25.969  41.229   4.991
70050W        W38455   4.891  22.838  11.516
70051W        W38456  37.889  18.755  14.951
70052W        W38457   8.401  19.220   2.709
70053W        W38458  28.568  34.233  12.031
70054W        W38459  42.966  14.356  10.667
70055W        W38460  29.646  13.559   0.791
70056W        W38461  25.612   6.387   0.988
70057W        W38462  30.101  15.842   3.105
70058W        W38463  31.185  25.060  11.605
70059W        W38464  19.548  31.996   3.145
70060W        W38465   5.274   4.791  10.470
70061W        W38466   9.693  25.401   2.201
70062W        W38467  12.289   1.060   0.219
70063W        W38468  36.765  34.712  10.330
70064W        W38469  15.658  34.120   2.625
70065W        W38470  10.424  39.359  14.769
70066W        W38471   7.882  42.819  13.957
70067W        W38472  24.516  15.126  14.787
70068W        W38473  12.624  17.526   3.103
70069W        W38474   7.448  34.740  14.902
70070W        W38475  25.726  17.569  13.920
70071W        W38476  20.785   9.654  13.747
70072W        W38477  15.878  19.309  11.088
70073W        W38478  33.902  17.293   0.807
70074W        W38479  29.073  36.649   2.698
70075W        W38480   4.004  28.971  12.423
70076W        W38481  29.662   7.262   1.443
70077W        W38482  19.613  18.263  12.761
70078W        W38483  38.003  23.050   0.727
70079W        W38484   5.944  26.200  11.656
70080W        W38485   1.279   4.655   3.178
70081W        W38486  42.437  11.048   2.231
70082W        W38487  26.488   6.302   3.727
70083W        W38488   4.066  22.979   4.352
70084W        W38489  38.828  20.577   4.708
70085W        W38490   0.736  10.638  13.543
70086W        W38491  13.568  31.395   3.785
70087W        W38492  39.890  43.670   1.902
70088W        W38493  33.817  24.925   4.757
70089W        W38494  32.890  31.204   1.839
70090W        W38495  20.532  12.828   4.066
70091W        W38496  42.045  22.537   1.273
70092W        W38497  39.451  17.856  13.631
70093W        W38498  25.768  10.368   0.975
70094W        W38499  11.076  37.359  11.613
70095W        W38500  35.521  34.406   5.057
70096W        W38501  19.449  39.516  13.773
70097W        W38502  13.251   1.450  12.883
70098W        W38503  18.279   6.375  11.436
70099W        W38504  17.547  33.144   1.384
70100W        W38505  10.808   5.233  11.530
70101W        W38506   4.801   3.891  11.762
70102W        W38507  33.127   4.789  11.721
70103W        W38508  38.760  31.003   2.597
70104W        W38509  17.484  10.586  10.269
70105W        W38510   5.439  41.056   0.389
70106W        W38511   6.472  33.836   4.619
70107W        W38512  15.286  43.232  11.087
70108W        W38513   4.944  28.962   2.274
70109W        W38514  30.140  27.895  11.890
70110W        W38515  11.151  43.491  13.098
70111W        W38516  12.594  41.370  10.681
70112W        W38517  31.966   6.537  11.145
70113W        W38518  30.732  28.012  13.008
70114W        W38519  20.845  42.442   4.996
70115W        W38520  43.601   7.294   3.104
70116W        W38521   8.416  34.593  10.660
70117W        W38522  19.040  31.777  12.986
70118W        W38523  18.522  25.869   3.544
70119W        W38524  41.412  26.354   4.304
70120W        W38525  39.443  41.017   1.435
70121W        W38526  24.193   3.709  12.910
70122W        W38527  35.987  39.691   1.856
70123W        W38528  41.207  39.021   5.493
70124W        W38529  34.208  31.977  14.020
70125W        W38530  13.395  40.383   4.624
70126W        W38531   3.495  15.210   1.141
70127W        W38532   5.378  28.103   2.340
70128W        W38533  10.227  34.462  11.928
70129W        W38534  22.734  29.125  11.216
70130W        W38535   9.520  27.692   4.192
70131W        W38536  40.101  26.083   1.683
70132W        W38537  24.488  12.572  11.155
70133W        W38538  44.949  29.078   2.252
70134W        W38539  27.217  32.464   4.487
70135W        W38540  25.666  28.890  13.932
70136W        W38541  40.372   4.692  12.027
70137W        W38542   6.989  32.384   0.827
70138W        W38543  35.526  32.327   3.482
70139W        W38544  25.083   9.977   2.313
70140W        W38545  30.166   9.728   2.872
70141W        W38546   8.760  19.801  14.430
70142W        W38547  44.304  22.260  10.677
70143W        W38548   5.272  36.306   0.326
70144W        W38549  33.898  22.745  12.593
70145W        W38550   0.929  40.384  12.926
70146W        W38551  19.176  35.833   4.128
70147W        W38552  11.224  39.616   3.784
70148W        W38553  43.005  27.983   1.328
70149W        W38554  23.725  23.824   4.831
70150W        W38555  39.964   8.335   1.904
70151W        W38556  43.850  14.187   3.279
70152W        W38557   5.844  31.137  13.336
70153W        W38558  38.872  11.907  13.536
70154W        W38559  26.674  12.639  13.517
70155W        W38560   1.342  33.489  11.248
70156W        W38561  42.735  17.104   2.862
70157W        W38562  22.265  34.450  10.806
70158W        W38563   7.173  24.154  14.056
70159W        W38564  16.185  11.734   1.926
70160W        W38565  10.424  33.951  13.679
70161W        W38566  44.008  33.238   0.329
70162W        W38567  36.576  28.095   0.268
70163W        W38568  44.865  41.015   0.551
70164W        W38569  13.876  20.720  10.995
70165W        W38570  14.794   4.764  13.486
70166W        W38571  43.900  31.006  13.575
70167W        W38572   5.119  20.140  11.711
70168W        W38573  37.749  20.565  11.609
70169W        W38574  11.215  15.659   0.845
70170W        W38575   4.232  30.950  12.531
70171W        W38576  16.220   0.859  13.144
70172W        W38577  11.256  25.185   2.301
70173W        W38578   2.715   1.406   0.757
70174W        W38579   0.101  29.327  10.655
70175W        W38580  20.812  31.407  13.546
70176W        W38581  19.757  30.735   5.233
70177W        W38582  26.506  40.898   2.735
70178W        W38583  31.060  44.209  14.318
70179W        W38584  32.966  21.736  11.927
70180W        W38585   0.400  35.877   3.304
70181W        W38586   5.133  34.455   0.834
70182W        W38587  27.598   1.893  14.796
70183W        W38588  43.721  38.457   1.230
70184W        W38589  31.176  44.323   4.220
70185W        W38590  14.830  27.654  12.092
70186W        W38591  17.359  39.042  14.877
70187W        W38592  43.971   2.221  11.128
70188W        W38593   0.759  29.521   3.376
70189W        W38594  25.674  41.051   2.277
70190W        W38595  10.612   8.232  14.546
70191W        W38596  11.705  12.120  14.342
70192W        W38597  30.905   3.886   4.183
70193W        W38598  26.821  39.123   0.928
70194W        W38599  44.724  42.614  11.164
70195W        W38600  29.542  17.601  13.451
70196W        W38601  15.657  14.110  11.320
70197W        W38602  14.599  19.172   0.867
70198W        W38603  20.821  37.540  13.942
70199W        W38604   1.454  11.102   4.089
70200W        W38605  12.262  20.970   0.371
70201W        W38606  17.860  39.534  11.031
70202W        W38607   2.513  26.505   0.410
70203W        W38608   6.716  44.345  10.690
70204W        W38609  13.707  19.515   0.884
70205W        W38610   5.236  28.338  12.787
70206W        W38611  44.823  20.740   4.176
70207W        W38612  29.073  17.736  12.820
70208W        W38613  19.846   1.086  11.068
70209W        W38614  20.600  35.048  10.681
70210W        W38615   4.391  37.294   1.656
70211W        W38616  16.094  36.876  10.825
70212W        W38617  13.589   4.305  13.067
70213W        W38618  11.090  34.931   0.044
70214W        W38619  43.955  38.556  12.285
70215W        W38620  43.999  18.795  14.734
70216W        W38621  16.209  13.668   3.228
70217W        W38622  29.159  17.840   3.244
70218W        W38623  20.619   2.520  11.406
70219W        W38624  13.218  27.032   3.814
70220W        W38625  21.651  30.109  13.857
70221W        W38626   4.344  33.325   4.293
70222W        W38627   3.937  29.499  12.590
70223W        W38628  41.035  12.497  12.093
70224W        W38629   6.757  31.572   3.713
70225W        W38630  28.581  34.159   2.724
70226W        W38631  23.448   7.841   2.199
70227W        W38632  25.020   5.296  11.045
70228W        W38633  31.129  17.235  12.317
70229W        W38634  30.476  32.748   1.859
70230W        W38635  40.969  41.741  11.218
70231W        W38636  38.172  19.562  11.615
70232W        W38637  17.438  25.154   3.413
70233W        W38638  14.521  36.761   2.704
70234W        W38639  41.782  27.529  12.580
70235W        W38640  31.460  42.522  10.330
70236W        W38641  17.550  44.830   1.757
70237W        W38642  13.586  27.009  10.734
70238W        W38643  40.404  37.580   4.326
70239W        W38644  31.900  21.087   4.038
70240W        W38645  39.308  43.735  11.970
70241W        W38646  24.550  44.767   4.188
70242W        W38647  38.802  21.800   2.787
70243W        W38648  23.683  39.776   4.489
70244W        W38649  42.940  36.169   3.005
70245W        W38650  25.648  21.327   4.178
70246W        W38651  16.068  19.498  10.650
70247W        W38652  16.865   2.705   3.753
70248W        W38653   1.767  32.434   4.545
70249W        W38654  15.040  34.435   1.299
70250W        W38655   8.143   1.151  14.910
70251W        W38656  37.786  24.707  14.977
70252W        W38657  34.026  25.152   0.257
70253W        W38658  17.955  42.851   2.947
70254W        W38659  18.309  44.661   3.322
70255W        W38660  31.909  28.079  12.006
70256W        W38661  44.780  21.777  11.623
70257W        W38662  43.313  10.382   0.316
70258W        W38663  28.816   2.969  11.157
70259W        W38664   1.929  32.786  10.657
70260W        W38665  39.877  42.025  10.667
70261W        W38666  13.283  17.089  14.940
70262W        W38667  22.064  29.719  13.983
70263W        W38668   4.423  15.210   3.312
70264W        W38669  13.502  17.147   3.228
70265W        W38670  17.830  10.186  14.313
70266W        W38671  40.979  21.749  12.558
70267W        W38672  23.630   8.172   0.767
70268W        W38673   6.678  17.680   4.691
70269W        W38674  19.844   4.096  13.800
70270W        W38675  36.867  14.083  14.785
70271W        W38676  11.270  19.016  12.610
70272W        W38677  23.252  30.648   4.546
70273W        W38678  24.743  21.095  11.847
70274W        W38679  39.809  31.018   1.949
70275W        W38680   2.485  28.005   2.687
70276W        W38681  34.073   0.720  12.437
70277W        W38682  17.277  36.610  13.880
70278W        W38683  33.056  37.317   1.546
70279W        W38684  34.815  13.167   2.575
70280W        W38685  36.426  34.377  13.940
70281W        W38686  37.479  37.099  11.778
70282W        W38687  18.939  28.163   2.782
70283W        W38688   5.792  43.464   2.705
70284W        W38689  38.456  41.235   3.389
70285W        W38690  33.152  13.357  11.089
70286W        W38691   5.555   6.946   0.377
70287W        W38692  14.689  19.275  10.749
70288W        W38693  31.140  37.022   1.226
70289W        W38694   6.716  14.728   4.343
70290W        W38695   0.367   5.235   2.324
70291W        W38696  21.064  42.547   1.371
70292W        W38697  19.936   6.792   2.377
70293W        W38698   8.300  44.276  12.384
70294W        W38699  18.523   0.832   2.871
70295W        W38700  34.497  17.924   0.989
70296W        W38701  36.309  20.187  14.920
70297W        W38702  13.689  18.273   2.162
70298W        W38703  14.142  39.903  10.596
70299W        W38704  42.731  44.097  10.150
70300W        W38705  44.503  28.010  14.995
70301W        W38706  31.203  28.882   0.189
70302W        W38707  22.230  43.335  12.194
70303W        W38708  34.170   2.876  11.531
70304W        W38709   3.559   9.436   4.357
70305W        W38710   4.639  24.666  13.034
70306W        W38711  15.229  15.199  14.292
70307W        W38712  23.980  13.240   0.742
70308W        W38713  23.549  18.739  13.930
70309W        W38714   6.246  43.581  12.368
70310W        W38715   1.490  15.779  12.395
70311W        W38716  29.063  40.499   4.084
70312W        W38717  17.698  36.037  11.340
70313W        W38718   6.638  32.103   3.163
70314W        W38719  27.926  20.097   1.220
70315W        W38720  36.625   8.565  14.932
70316W        W38721  15.650  22.767  13.384
70317W        W38722   8.688  25.205   1.659
70318W        W38723  39.840  33.128   3.773
70319W        W38724  28.561  29.023   3.651
70320W        W38725   2.331   0.280  13.424
70321W        W38726  19.361  44.335   1.815
70322W        W38727  20.655  22.942  10.075
70323W        W38728  42.666  23.898   1.382
70324W        W38729  32.958  37.284   5.067
70325W        W38730  26.691  34.175   2.791
70326W        W38731  34.546  24.109   3.063
70327W        W38732  41.326  44.941  14.561
70328W        W38733  19.049  35.545  12.459
70329W        W38734  27.218  19.793  13.424
70330W        W38735   0.432  18.889   3.886
70331W        W38736   3.748   1.822  14.263
70332W        W38737  12.491  44.929  12.556
70333W        W38738  16.674  41.138  12.507
70334W        W38739  35.030  15.776   3.073
70335W        W38740  24.062  40.036  14.494
70336W        W38741  37.050  38.930   0.543
70337W        W38742  11.233   5.475   1.129
70338W        W38743  17.824  29.126   4.026
70339W        W38744  21.563  44.162  14.443
70340W        W38745  15.548  18.706  10.733
70341W        W38746   4.360   9.352   9.640
70342W        W38747   3.307  24.245   5.039
70343W        W38748  32.368  38.465   1.221
70344W        W38749  36.433  23.551   0.344
70345W        W38750   8.176  25.945  10.608
70346W        W38751  42.614   9.252  12.462
70347W        W38752  36.114   4.155  12.641
70348W        W38753  19.574  28.227   1.180
70349W        W38754  40.482  11.179  11.938
70350W        W38755  15.354   1.210   4.151
70351W        W38756   9.883   9.968  11.434
70352W        W38757   7.602  11.298   1.191
70353W        W38758   6.500  22.491   3.696
70354W        W38759  19.783  22.465   0.213
70355W        W38760  35.164  27.620  14.343
70356W        W38761  16.149  31.439  12.105
70357W        W38762   8.248  44.085   3.619
70358W        W38763  11.287  31.912   4.587
70359W        W38764   9.167   8.774  13.997
70360W        W38765   5.793  30.238   0.779
70361W        W38766   5.309   1.788  11.603
70362W        W38767  17.641  33.467   2.769
70363W        W38768  19.063  11.964  10.789
70364W        W38769   7.316  36.510   2.797
70365W        W38770   7.365  32.208  10.674
70366W        W38771  38.816  27.554   1.837
70367W        W38772  11.553   7.380  11.520
70368W        W38773  40.791  19.859  12.998
70369W        W38774  30.016  24.621  12.017
70370W        W38775  40.300  18.638  12.571
70371W        W38776  15.732  10.757   5.002
70372W        W38777   4.868  11.106   1.140
70373W        W38778  25.996   5.363   0.608
70374W        W38779  37.665  17.185   4.667
70375W        W38780  37.299   7.229   1.340
70376W        W38781  16.959  22.279  13.494
70377W        W38782  40.465   8.451   2.190
70378W        W38783  29.512  36.928  12.904
70379W        W38784  39.444  23.149   1.829
70380W        W38785  39.493  25.456   4.165
70381W        W38786  13.400   6.606   4.252
70382W        W38787  17.662  21.988   2.156
70383W        W38788  25.668  44.647   3.986
70384W        W38789  22.978  33.910  11.552
70385W        W38790  33.556  19.701  11.908
70386W        W38791  18.568   1.399   0.967
70387W        W38792  15.655   4.915  10.041
70388W        W38793  36.874  39.776   1.685
70389W        W38794  34.586  12.077   2.272
70390W        W38795  40.389  27.036  14.532
70391W        W38796  25.102  33.547   3.094
70392W        W38797   6.921  29.163  12.203
70393W        W38798  28.958  43.741  12.000
70394W        W38799   8.845  32.655   5.344
70395W        W38800   9.394   5.315  13.527
70396W        W38801  23.228  40.023  12.805
70397W        W38802   2.692  39.794  14.385
70398W        W38803   1.713  29.498   1.898
70399W        W38804  25.491  23.716   2.874
70400W        W38805  33.081  27.112   2.542
70401W        W38806   0.760  28.591   0.511
70402W        W38807  35.878  40.490  11.980
70403W        W38808   0.060  21.462   3.626
70404W        W38809  31.584  34.513  11.146
70405W        W38810   0.592  36.974   3.204
70406W        W38811  44.899  35.597   3.411
70407W        W38812  15.373  37.872  11.664
70408W        W38813  15.489   0.371  12.877
70409W        W38814  18.860  17.301  10.755
70410W        W38815   3.347  13.812  12.219
70411W        W38816  32.651  25.669  14.639
70412W        W38817  39.586  33.599  12.986
70413W        W38818  30.718  16.208   1.831
70414W        W38819  26.172  27.575   4.092
70415W        W38820  22.035  26.727   1.481
70416W        W38821  32.658  14.491  10.564
70417W        W38822  18.264  29.925  13.580
70418W        W38823   9.276  40.555   4.138
70419W        W38824  29.484  36.983   0.366
70420W        W38825  32.055  15.643  10.788
70421W        W38826  40.117  20.580  12.007
70422W        W38827   7.321   6.072  12.636
70423W        W38828  43.461   6.255   1.317
70424W        W38829  20.620  44.141   3.533
70425W        W38830  36.472  27.097  11.186
70426W        W38831  14.772  42.991  14.926
70427W        W38832  40.610  22.082  12.696
70428W        W38833   4.340  31.840  13.957
70429W        W38834  25.717  13.544  14.765
70430W        W38835  23.762  41.921   2.978
70431W        W38836  21.408   5.878   4.851
70432W        W38837  11.385  26.011   1.847
70433W        W38838  33.988  26.122   1.264
70434W        W38839  38.116  28.498   0.827
70435W        W38840  21.810  37.962  14.792
70436W        W38841  41.517  33.262   3.001
70437W        W38842  17.165   0.008  11.098
70438W        W38843  35.052  24.043   4.825
70439W        W38844  32.465  36.471   3.048
70440W        W38845  13.216  22.084   1.996
70441W        W38846  41.962  40.580  14.323
70442W        W38847  15.653   5.342   1.769
70443W        W38848  23.469  15.735  11.984
70444W        W38849  13.502  11.408   1.826
70445W        W38850  39.050   8.238   3.605
70446W        W38851   2.532  14.837  12.490
70447W        W38852  43.378  22.775   2.353
70448W        W38853  25.497   5.485   4.714
70449W        W38854  12.326  16.185  12.967
70450W        W38855   4.950   3.907   2.669
70451W        W38856  44.197   9.285   2.439
70452W        W38857   4.914   8.530  14.916
70453W        W38858  17.220  24.564   2.934
70454W        W38859  29.395   8.580   0.150
70455W        W38860  40.983  34.394   3.021
70456W        W38861  11.063  10.152   2.762
70457W        W38862   7.798   4.997   1.002
70458W        W38863  16.730  27.079   4.273
70459W        W38864  16.591  33.507  13.617
70460W        W38865  35.233  38.912   3.749
70461W        W38866  10.744  24.174  13.967
70462W        W38867  22.100  14.086  14.366
70463W        W38868   9.827  30.136   0.621
70464W        W38869   0.387  28.603   0.145
70465W        W38870  26.137  10.694  14.526
70466W        W38871   4.200   4.100  11.941
70467W        W38872  25.007  41.234   4.098
70468W        W38873  32.100  28.210   4.619
70469W        W38874   4.421   7.440  13.917
70470W        W38875   2.013   1.030   2.764
70471W        W38876  40.573  33.969  14.344
70472W        W38877  43.040  37.724   2.917
70473W        W38878   5.229  24.277  13.882
70474W        W38879  19.337   5.389   1.652
70475W        W38880  19.572   5.427  13.874
70476W        W38881   2.172  44.267   3.234
70477W        W38882   7.473  42.849   0.944
70478W        W38883  26.903  41.922   1.832
70479W        W38884  35.175  43.811   4.135
70480W        W38885   8.648  43.377   4.614
70481W        W38886  42.477  41.761  11.193
70482W        W38887   9.292  43.773  14.337
70483W        W38888  34.298  42.501   0.703
70484W        W38889  11.310  33.329   0.894
70485W        W38890  37.147  23.236   3.719
70486W        W38891  32.351   7.178  14.856
70487W        W38892   6.404  33.249   2.310
70488W        W38893   3.746  10.708   2.363
70489W        W38894  13.823  39.015  10.709
70490W        W38895  13.323  18.176  12.594
70491W        W38896   6.314   2.223  10.641
70492W        W38897  12.393  16.078   0.410
70493W        W38898  34.838  27.968   0.307
70494W        W38899  32.380  39.253   3.862
70495W        W38900  29.620  13.891  13.453
70496W        W38901   9.938  12.191  11.607
70497W        W38902  10.828  44.239  12.869
70498W        W38903  30.844  10.723   4.912
70499W        W38904   5.166  33.852  14.403
70500W        W38905  12.433  18.088   4.229
70501W        W38906  40.360  28.743  11.626
70502W        W38907  10.175   5.171   0.216
70503W        W38908  33.420  29.574   0.100
70504W        W38909   7.865  29.601   4.156
70505W        W38910  10.465  34.155  14.686
70506W        W38911  13.927  10.658  13.139
70507W        W38912  34.701  23.555   2.332
70508W        W38913  11.724   7.310   4.483
70509W        W38914  16.333  28.590   2.715
70510W        W38915  11.984   8.270  11.958
70511W        W38916  19.833  22.690  13.994
70512W        W38917  38.733  44.399  13.490
70513W        W38918  10.117  34.918   4.003
70514W        W38919  18.036  22.326   3.567
70515W        W38920  15.506  24.645  12.516
70516W        W38921   8.790  41.203   3.720
70517W        W38922  40.914  15.624   2.872
70518W        W38923  10.147   3.812   1.880
70519W        W38924   5.454  25.452  12.173
70520W        W38925  38.267  29.239   2.052
70521W        W38926  16.742   9.931  11.932
70522W        W38927  37.584  12.728  14.349
70523W        W38928  28.429  21.300  12.849
70524W        W38929   2.526  33.885  13.016
70525W        W38930  28.942  20.267  12.044
70526W        W38931  32.178  10.708  14.554
70527W        W38932  32.701  17.990   0.732
70528W        W38933   0.808  23.023   4.984
70529W        W38934   9.352  41.057   4.199
70530W        W38935  26.897  22.165  10.723
70531W        W38936  25.999  31.626   1.296
70532W        W38937  19.578  38.660   5.085
70533W        W38938  22.319  11.584  14.024
70534W        W38939  16.784   1.753  14.890
70535W        W38940  24.523   4.680   1.389
70536W        W38941  33.564  12.944  13.347
70537W        W38942   9.763  29.395   0.261
70538W        W38943  19.189   1.320   3.898
70539W        W38944   9.444   1.362   3.345
70540W        W38945   2.946  16.011  14.462
70541W        W38946  10.165   1.914   1.617
70542W        W38947  35.859   6.794   0.286
70543W        W38948  15.964  20.863  14.647
70544W        W38949  12.592  21.585  13.217
70545W        W38950  14.616  17.051   4.710
70546W        W38951  41.472  21.635  11.276
70547W        W38952   9.666   3.988  13.956
70548W        W38953  32.236  13.576  11.297
70549W        W38954  10.724  31.964   2.417
70550W        W38955  38.328   6.895   4.981
70551W        W38956  19.012   6.749  13.795
70552W        W38957  40.828  41.128  10.462
70553W        W38958  14.175   3.399   2.007
70554W        W38959  40.432  16.799  14.280
70555W        W38960  32.002  33.603  12.144
70556W        W38961  20.965  14.879   2.870
70557W        W38962  27.484  19.959   4.171
70558W        W38963  22.816  31.788  14.840
70559W        W38964  39.465  21.438   4.640
70560W        W38965   4.891  15.582  12.785
70561W        W38966   1.781   4.874   2.435
70562W        W38967  35.301   2.919   3.282
70563W        W38968  36.246  27.043  13.658
70564W        W38969  40.972  12.021  14.808
70565W        W38970  11.670  33.007  14.453
70566W        W38971  38.937  19.641   0.798
70567W        W38972   1.464  17.584  11.682
70568W        W38973  35.903  32.709  11.127
70569W        W38974  38.063  35.828   3.008
70570W        W38975  25.265  26.419   3.001
70571W        W38976  12.209  14.677  14.850
70572W        W38977  24.751  36.310   3.140
70573W        W38978  17.832  30.102   3.822
70574W        W38979  33.051  16.035   2.781
70575W        W38980  40.568  14.299  14.085
70576W        W38981  34.907  31.609   1.028
70577W        W38982  30.381  35.870   1.865
70578W        W38983  39.336   5.409  11.983
70579W        W38984  16.051   8.804  12.454
70580W        W38985  12.906   4.299  11.633
70581W        W38986  35.877  35.820  10.562
70582W        W38987  29.479  27.187  10.840
70583W        W38988   7.398  15.556  14.954
70584W        W38989  15.454  30.873  10.816
70585W        W38990   2.214  23.449  14.336
70586W        W38991  20.274  42.888   2.304
70587W        W38992   2.906  17.042  12.514
70588W        W38993  35.478  10.931  11.638
70589W        W38994  12.809  30.858  12.013
70590W        W38995   5.410  32.237   4.173
70591W        W38996  25.041  41.931   3.698
70592W        W38997  21.163  21.605  13.600
70593W        W38998  27.263  19.015   1.252
70594W        W38999  26.169   4.168   4.644
70595W        W39000  27.571  40.073   2.800
70596W        W39001  11.644  40.651   0.980
70597W        W39002  20.674  23.953  13.912
70598W        W39003   1.968  16.600   4.572
70599W        W39004  27.658  18.977  11.202
70600W        W39005   0.761  34.043   1.591
70601W        W39006   4.260  37.029  14.757
70602W        W39007  42.243  44.719  12.992
70603W        W39008  26.997  44.340  12.508
70604W        W39009  15.161  36.861   4.733
70605W        W39010  31.243  26.114  13.759
70606W        W39011  33.513   3.686  11.998
70607W        W39012   8.701  15.409  13.901
70608W        W39013  11.580  31.714  12.852
70609W        W39014  11.575   2.675   2.380
70610W        W39015  26.711   8.763  13.617
70611W        W39016  35.434  20.570  11.003
70612W        W39017   3.333  29.048   2.996
70613W        W39018  15.819  40.935  12.222
70614W        W39019  25.078  29.554  11.914
70615W        W39020  38.370   6.286   1.358
70616W        W39021  28.474  21.558   3.271
70617W        W39022   5.487  43.289   3.565
70618W        W39023  31.031  35.205  14.497
70619W        W39024   6.633  43.740   1.664
70620W        W39025  15.831  28.596   4.377
70621W        W39026  17.310   9.902  13.427
70622W        W39027  17.590   7.613  13.550
70623W        W39028   6.179  20.580   1.411
70624W        W39029  38.916  33.432  14.372
70625W        W39030  18.118   6.962   2.185
70626W        W39031  32.656  21.468   2.701
70627W        W39032   8.270  23.180  12.645
70628W        W39033  29.155  37.281  11.292
70629W        W39034  28.647  20.284   2.751
70630W        W39035   3.657  42.947   0.969
70631W        W39036  20.809  16.413  13.089
70632W        W39037  11.885   9.724   0.785
70633W        W39038   2.237  23.954   4.222
70634W        W39039   2.280  18.150   0.711
70635W        W39040   9.717   4.214   2.906
70636W        W39041   7.350  34.501  10.692
70637W        W39042  40.835   9.950  12.940
70638W        W39043  36.874  21.254   0.355
70639W        W39044  32.960  30.046  12.534
70640W        W39045  32.977   6.853   3.677
70641W        W39046  28.031  22.428  14.427
70642W        W39047  38.377  17.065   2.200
70643W        W39048  20.563  18.460   4.269
70644W        W39049  28.753  18.669   2.257
70645W        W39050  11.049  42.653  13.276
70646W        W39051  13.770  28.942   1.390
70647W        W39052  36.586  19.115  12.052
70648W        W39053  39.007  13.826   0.873
70649W        W39054  21.340  37.316  13.238
70650W        W39055  31.077  13.295  14.235
70651W        W39056  39.415  17.650   2.647
70652W        W39057  30.955  22.527  14.857
70653W        W39058  20.286  30.072   2.727
70654W        W39059  11.258   1.334   0.715
70655W        W39060  13.102  38.813   3.155
70656W        W39061  15.862  13.352  14.409
70657W        W39062  18.571  23.772   0.199
70658W        W39063  31.100  15.250   3.639
70659W        W39064  42.401  21.752  13.876
70660W        W39065  29.700  39.114   4.123
70661W        W39066  33.491  11.017   2.417
70662W        W39067   9.103   7.793  13.108
70663W        W39068  19.815  31.184  11.623
70664W        W39069  38.377  24.040  10.733
70665W        W39070  26.737  30.980  12.012
70666W        W39071  29.649  36.696  13.376
70667W        W39072  44.023  24.942   2.810
70668W        W39073  18.068  12.613   2.082
70669W        W39074  42.787   1.415   3.656
70670W        W39075  33.310  39.345  13.522
70671W        W39076  35.854  13.411  12.042
70672W        W39077   3.286  10.461   1.162
70673W        W39078  33.735  39.106  12.392
70674W        W39079  32.573  38.849   3.606
70675W        W39080  16.212  13.756   4.126
70676W        W39081  18.520  37.093  10.627
70677W        W39082  30.898  11.860   1.433
70678W        W39083  11.900  28.436  12.475
70679W        W39084  39.035  10.455  13.806
70680W        W39085   6.454  11.849  14.508
70681W        W39086  37.006  35.246  13.932
70682W        W39087  44.465  13.371   1.413
70683W        W39088  33.710  35.565   2.160
70684W        W39089  11.116   6.668  12.612
70685W        W39090   3.762  35.397  12.430
70686W        W39091  44.701  13.274   4.242
70687W        W39092  19.979   4.238  12.128
70688W        W39093   8.485  15.634  11.735
70689W        W39094  19.349  18.460  13.723
70690W        W39095   9.396   9.385  14.747
70691W        W39096   7.868  23.507  12.033
70692W        W39097  39.902  38.168   1.255
70693W        W39098   9.495  33.143  10.651
70694W        W39099  36.558  24.450   2.136
70695W        W39100  42.366  31.995  11.160
70696W        W39101  34.399  15.297  11.676
70697W        W39102  35.632  41.491   3.199
70698W        W39103   2.824  42.463   1.737
70699W        W39104  15.876  27.746   4.228
70700W        W39105   3.905   5.698   1.037
70701W        W39106  39.978  15.319  11.124
70702W        W39107  40.811  15.234   1.123
70703W        W39108  40.946  12.204   4.141
70704W        W39109  43.659  21.811  13.942
70705W        W39110  41.488  21.065  14.397
70706W        W39111  17.292  28.746  12.005
70707W        W39112  25.659   9.590   0.439
70708W        W39113  31.163  42.122  11.528
70709W        W39114  28.709   1.213  14.348
70710W        W39115  42.838   7.421  12.450
70711W        W39116  40.498  15.935  10.727
70712W        W39117  30.585  43.598  11.542
70713W        W39118   9.807  36.308  13.027
70714W        W39119  35.495  15.665  10.796
70715W        W39120   5.250  25.622   4.367
70716W        W39121   9.124  43.700  13.715
70717W        W39122  18.293   6.396  10.914
70718W        W39123  21.765  26.113  13.296
70719W        W39124  15.649  26.716  12.649
70720W        W39125  16.191  18.054  11.218
70721W        W39126   1.117  32.452  10.655
70722W        W39127  19.009   9.622   0.841
70723W        W39128  30.816   9.565   0.005
70724W        W39129  37.974  12.319   5.014
70725W        W39130  18.320  40.452  10.605
70726W        W39131  13.684  25.714  14.543
70727W        W39132  32.411   2.348  10.620
70728W        W39133   2.039  40.346  14.054
70729W        W39134  33.863  16.524  12.033
70730W        W39135  13.283   2.705  12.411
70731W        W39136  39.223  28.183  11.110
70732W        W39137  11.109  13.296  14.322
70733W        W39138  25.823   1.452   3.266
70734W        W39139  34.830  38.903  11.591
70735W        W39140  23.562   3.737  11.076
70736W        W39141  30.197  15.787   4.005
70737W        W39142  16.560  15.319  14.402
70738W        W39143  44.466  36.038   2.873
70739W        W39144   6.992  15.805   3.113
70740W        W39145   6.998  33.544   0.040
70741W        W39146  27.864  18.056   3.540
70742W        W39147  30.257  18.283  10.382
70743W        W39148  20.639  27.399   1.466
70744W        W39149  44.311   0.281   5.107
70745W        W39150   8.360  13.491   9.766
70746W        W39151  25.628  37.973  13.370
70747W        W39152   4.509  29.147   3.727
70748W        W39153  14.519   1.314   3.282
70749W        W39154  13.705   7.899   2.580
70750W        W39155  31.140   0.545  11.499
70751W        W39156  34.566  17.780  12.098
70752W        W39157  18.738   2.954  11.228
70753W        W39158  21.062   7.590  12.554
70754W        W39159  31.341  10.134   3.711
70755W        W39160  17.082  39.674   0.934
70756W        W39161  33.529  42.569  14.394
70757W        W39162  37.701  30.683  10.418
70758W        W39163  29.714  26.087  12.037
70759W        W39164  16.188  44.755   0.546
70760W        W39165  31.393  26.228   1.537
70761W        W39166  38.713  26.018   1.690
70762W        W39167  21.232   6.633   2.622
70763W        W39168  30.160  17.712   1.395
70764W        W39169  25.127  12.748  14.019
70765W        W39170  26.751  10.609  10.761
70766W        W39171  25.218   9.686  14.307
70767W        W39172   4.307  10.788  13.812
70768W        W39173  11.296  16.269   4.302
70769W        W39174  36.339  36.303  11.275
70770W        W39175  26.620  37.903  11.669
70771W        W39176  30.185  16.796  10.636
70772W        W39177  14.188  27.112   2.350
70773W        W39178   2.942  24.595  11.698
70774W        W39179  27.239  15.078   4.681
70775W        W39180  39.643   1.558   0.835
70776W        W39181  30.233   2.706  13.868
70777W        W39182  34.104  23.988  13.899
70778W        W39183  32.534  25.926   4.587
70779W        W39184  26.502  20.064  12.544
70780W        W39185  41.963  20.800  14.375
70781W        W39186  22.854   1.717  13.364
70782W        W39187  33.106  43.761  13.064
70783W        W39188  21.154  34.390  14.450
70784W        W39189  30.992   8.353  12.874
70785W        W39190  40.205  27.666   2.172
70786W        W39191   2.951  32.970   2.391
70787W        W39192  21.308  15.955   0.263
70788W        W39193  28.041  16.327  12.318
70789W        W39194   4.944   6.265   3.277
70790W        W39195  13.608  26.643   0.569
70791W        W39196  29.906  28.204   3.719
70792W        W39197   5.389   4.373  13.840
70793W        W39198  29.250   5.275  14.008
70794W        W39199  37.614  35.021  10.428
70795W        W39200  15.906  30.096  12.960
70796W        W39201  16.853  28.623   0.055
70797W        W39202  19.707  34.722  13.320
70798W        W39203  29.989  27.985   0.638
70799W        W39204   2.385  19.522   2.663
70800W        W39205  29.445  24.476  14.739
70801W        W39206   7.180  42.680   0.362
70802W        W39207   3.174   7.674   4.434
70803W        W39208  21.926   8.703  12.917
70804W        W39209  20.795   4.232  14.000
70805W        W39210  10.030  44.926  14.385
70806W        W39211  33.615   0.176  12.763
70807W        W39212  31.389  18.441   1.888
70808W        W39213  24.675  31.672   0.893
70809W        W39214  25.011  41.787  12.752
70810W        W39215  18.380  16.498  11.191
70811W        W39216  30.394  15.279   0.884
70812W        W39217  30.212  17.116   3.578
70813W        W39218   3.942   0.032  13.582
70814W        W39219  34.091  21.063   1.475
70815W        W39220   9.219  34.682   3.696
70816W        W39221  23.463  39.283   2.307
70817W        W39222  23.473  21.640  14.287
70818W        W39223  20.958   0.010   2.438
70819W        W39224  10.848  30.011   3.108
70820W        W39225  34.786   7.731  14.551
70821W        W39226  12.585  14.975   3.761
70822W        W39227  24.587   5.312  11.548
70823W        W39228  37.058  15.700   1.305
70824W        W39229   0.312   9.429   3.241
70825W        W39230  10.671  33.021  11.140
70826W        W39231  27.095  13.858  11.057
70827W        W39232  24.763  37.175   1.843
70828W        W39233  41.151  24.556   0.231
70829W        W39234   1.315  13.255  11.690
70830W        W39235  38.491  17.177   1.701
70831W        W39236  44.588  30.649   3.975
70832W        W39237  22.098   0.820  14.578
70833W        W39238  28.719  43.757  11.497
70834W        W39239  10.787   8.955   0.912
70835W        W39240  15.726  30.602   3.636
70836W        W39241  25.279   9.402   2.184
70837W        W39242  14.677   1.494  12.915
70838W        W39243  22.356  36.990  10.930
70839W        W39244  27.113  30.973  13.937
70840W        W39245  10.756  12.596   4.151
70841W        W39246   8.391  31.923  13.534
70842W        W39247  13.070   2.827   0.054
70843W        W39248  13.582  32.648  11.081
70844W        W39249  16.130   9.738   4.328
70845W        W39250  21.783  11.625  13.965
70846W        W39251  42.312  21.048   3.691
70847W        W39252  18.568   4.855   2.584
70848W        W39253  15.393  42.311  12.568
70849W        W39254  24.985  18.862  11.934
70850W        W39255  18.992  37.523   0.687
70851W        W39256  33.274  37.630   2.439
70852W        W39257  25.832  29.657   3.341
70853W        W39258  36.136  42.403   1.272
70854W        W39259  28.490  24.257   1.967
70855W        W39260  15.524  30.117   0.350
70856W        W39261  10.291  35.476   1.648
70857W        W39262  33.570  36.512   1.745
70858W        W39263  37.601  17.235   2.820
70859W        W39264  42.784  14.705   0.383
70860W        W39265   6.585  31.989   1.472
70861W        W39266  32.590  42.277  12.189
70862W        W39267  28.960   1.398  13.488
70863W        W39268  37.905  21.504  12.487
70864W        W39269  35.008  11.950  12.057
70865W        W39270  42.865  42.796  13.584
70866W        W39271   9.396  20.614  11.079
70867W        W39272  11.310  27.704  10.766
70868W        W39273  31.358  37.387  11.076
70869W        W39274  40.076  25.615   2.802
70870W        W39275   3.893  14.319   4.496
70871W        W39276  44.938  26.924  14.543
70872W        W39277   1.232   8.234  13.020
70873W        W39278  32.077  31.140   1.372
70874W        W39279   4.281  24.936   2.743
70875W        W39280  10.260  18.318   4.628
70876W        W39281   5.782  25.176  12.951
70877W        W39282   9.786  10.360  13.608
70878W        W39283  13.132  19.012   0.415
70879W        W39284  37.960  26.722  11.076
70880W        W39285  18.218  17.344   2.182
70881W        W39286   2.608  16.840   2.749
70882W        W39287   2.739  41.087  12.145
70883W        W39288   3.919  44.046   3.225
70884W        W39289  24.868   7.018  12.682
70885W        W39290  16.947  28.125   3.248
70886W        W39291  17.877  33.724  11.591
70887W        W39292  29.640  18.978   3.076
70888W        W39293   9.591  33.637  10.741
70889W        W39294  40.263  39.462   4.086
70890W        W39295  28.117   6.491   0.840
70891W        W39296  42.802  31.147   3.159
70892W        W39297  11.861  27.102  12.017
70893W        W39298   8.372  37.092   0.374
70894W        W39299  27.447  35.885  14.960
70895W        W39300   2.829  26.765   4.011
70896W        W39301  26.662  31.998   0.600
70897W        W39302   7.714  19.277   0.808
70898W        W39303  35.462  31.334  14.406
70899W        W39304  30.034  11.408  12.400
70900W        W39305  40.491  34.934  11.521
70901W        W39306  13.111   1.900   1.365
70902W        W39307  43.380  14.761   4.313
70903W        W39308  44.127  34.702  13.813
70904W        W39309  19.062  38.866  12.164
70905W        W39310   4.310  32.136  11.184
70906W        W39311  20.286  30.473  12.657
70907W        W39312  42.827   6.265   3.799
70908W        W39313  40.987  23.397  14.369
70909W        W39314   6.504  37.853  13.481
70910W        W39315  36.703  38.470  11.855
70911W        W39316   5.867  28.299  10.372
70912W        W39317   5.936  16.180  11.728
70913W        W39318  32.423  11.044   1.222
70914W        W39319  19.555  42.188   1.435
70915W        W39320  19.328   8.375  11.725
70916W        W39321  37.411  20.806   4.055
70917W        W39322   7.262  27.241  11.263
70918W        W39323  27.712  29.625  13.019
70919W        W39324  20.278  15.001   0.850
70920W        W39325  21.643  11.259   1.654
70921W        W39326  36.125   8.643  14.817
70922W        W39327  11.786   4.739  10.835
70923W        W39328   6.647  15.129   4.663
70924W        W39329  34.186  18.603   1.251
70925W        W39330  14.192  44.840  13.789
70926W        W39331  24.245  16.886  14.375
70927W        W39332  44.753   6.496   2.660
70928W        W39333  25.661  33.412  13.314
70929W        W39334  30.116   7.317   2.378
70930W        W39335  24.383   8.192   4.462
70931W        W39336  26.258  16.539  11.989
70932W        W39337  21.715   0.860  14.928
70933W        W39338   3.644   0.220   2.187
70934W        W39339   3.944   1.881  14.741
70935W        W39340  35.829  42.268  12.356
70936W        W39341   0.881   3.773   4.321
70937W        W39342  24.261   1.035   3.706
70938W        W39343   0.773  33.968   4.443
70939W        W39344  18.150   0.219   2.295
70940W        W39345  31.355  10.887  12.399
70941W        W39346   0.236  42.433  12.335
70942W        W39347   8.206  14.114  11.583
70943W        W39348  37.940  38.891  13.550
70944W        W39349  41.582  14.307  10.719
70945W        W39350  43.632   6.000  12.548
70946W        W39351  19.048  17.840  11.578
70947W        W39352   5.908  38.925   2.390
70948W        W39353  44.553  24.840   0.293
70949W        W39354   2.872  31.366  14.937
70950W        W39355  13.841  27.616   2.510
70951W        W39356  12.862  43.895   2.671
70952W        W39357  15.333  15.297  10.584
70953W        W39358  19.073  11.280   4.352
70954W        W39359  25.422  36.851   0.869
70955W        W39360  26.195  37.358   2.351
70956W        W39361  35.300  37.603   1.017
70957W        W39362  41.242   2.797  14.847
70958W        W39363  15.183  11.269   0.211
70959W        W39364   8.212  35.931   4.703
70960W        W39365  28.201   7.355   2.852
70961W        W39366  24.184  27.918   2.427
70962W        W39367  21.049   0.831  11.563
70963W        W39368  23.334  41.780  12.125
70964W        W39369  25.593  40.870   4.168
70965W        W39370  28.848  18.648   0.909
70966W        W39371  37.961  39.809  11.178
70967W        W39372   8.688  19.422  11.143
70968W        W39373  42.782   0.726   2.782
70969W        W39374  35.843  14.909  14.933
70970W        W39375  32.874  35.836  11.793
70971W        W39376   1.755  30.093   1.331
70972W        W39377  33.766  13.100   4.860
70973W        W39378  20.533  15.860   2.880
70974W        W39379  44.849  43.157  14.686
70975W        W39380   5.496   5.307  12.290
70976W        W39381  39.308  30.037  13.753
70977W        W39382  28.337  20.285  10.353
70978W        W39383  36.674   0.742  10.979
70979W        W39384  13.496  27.881   0.823
70980W        W39385   5.032   2.949   4.880
70981W        W39386  42.981  22.300  11.670
70982W        W39387  29.419  19.131  12.416
70983W        W39388  25.666   1.435  14.117
70984W        W39389  29.126  29.395  11.691
70985W        W39390  36.057  40.348   1.165
70986W        W39391  21.939  34.461   0.913
70987W        W39392  40.066   9.394   1.034
70988W        W39393  14.969  44.290  14.087
70989W        W39394  43.867  32.472  14.255
70990W        W39395   3.401  38.508  10.561
70991W        W39396  29.752  31.859  14.947
70992W        W39397  13.154  30.116  11.587
70993W        W39398  39.337  19.279   0.969
70994W        W39399  30.603  22.202  14.363
70995W        W39400  12.369  35.449  13.801
70996W        W39401  25.516  32.468   2.906
70997W        W39402  32.108  38.784   3.348
70998W        W39403  17.570  30.115  14.560
70999W        W39404  36.515  32.763   4.602
71000W        W39405   0.291   1.882   4.200
71001W        W39406  20.499   9.287  11.132
71002W        W39407  22.705  27.109   3.173
71003W        W39408   1.868  26.097  10.346
71004W        W39409  13.183  17.185  11.142
71005W        W39410  21.917  40.834   3.481
71006W        W39411   0.328  31.423  13.785
71007W        W39412  28.102  30.322  11.708
71008W        W39413  33.408  40.260  11.134
71009W        W39414  42.042   2.625  12.574
71010W        W39415  27.294   3.493   4.402
71011W        W39416  14.662   0.735   2.646
71012W        W39417  31.039  31.904  11.528
71013W        W39418  26.892  11.848  10.319
71014W        W39419  31.502  44.528  13.546
71015W        W39420   0.382  37.329   2.643
71016W        W39421   0.919  23.369   4.316
71017W        W39422  37.011   2.995   5.026
71018W        W39423   6.421  25.835   0.854
71019W        W39424  12.695  18.044   3.099
71020W        W39425  26.102  25.518   0.516
71021W        W39426   9.387   2.349  12.135
71022W        W39427  32.232  42.395   2.828
71023W        W39428  37.512  32.471   1.412
71024W        W39429  25.093  44.694   2.867
71025W        W39430  37.108   8.099  12.837
71026W        W39431  27.090  27.942  13.315
71027W        W39432  21.693   6.640  13.970
71028W        W39433  28.726  43.845   3.410
71029W        W39434  19.887   2.348   2.448
71030W        W39435   7.362  40.837   3.858
71031W        W39436  32.929   3.191  10.477
71032W        W39437  24.864  14.599   4.551
71033W        W39438   6.875   8.275   2.746
71034W        W39439   2.821  36.671   4.063
71035W        W39440  32.184  28.191   0.951
71036W        W39441  44.894  44.369   4.774
71037W        W39442  33.385  29.551  11.538
71038W        W39443  16.943  41.817  13.514
71039W        W39444  21.996  44.234  12.415
71040W        W39445  38.895  21.012   2.350
71041W        W39446  33.091  13.615  11.539
71042W        W39447  17.220  12.610   3.406
71043W        W39448  18.172  28.926  14.414
71044W        W39449  26.230  36.395   0.438
71045W        W39450  30.247  44.772   4.487
71046W        W39451  42.491   3.954  12.899
71047W        W39452  32.600  34.443  13.498
71048W        W39453  24.978  25.094  11.156
71049W        W39454  14.609  15.848   4.053
71050W        W39455  43.365  40.913   4.697
71051W        W39456  33.375  40.131   4.621
71052W        W39457   2.018   3.238   2.757
71053W        W39458  15.036  39.445  10.458
71054W        W39459  24.705  22.104   2.312
71055W        W39460  42.443  37.616  12.025
71056W        W39461  39.504  26.855  11.201
71057W        W39462  18.933  34.900   4.937
71058W        W39463  26.155  20.840   0.937
71059W        W39464  38.979  26.676  11.236
71060W        W39465  15.196   0.009  10.677
71061W        W39466   5.946   5.720   0.549
71062W        W39467   7.748  21.020   9.884
71063W        W39468  18.557  37.909   2.194
71064W        W39469  19.195  24.967   3.309
71065W        W39470  12.171   5.609  13.026
71066W        W39471  19.018  37.020  10.765
71067W        W39472  12.079  13.954   0.820
71068W        W39473  11.339  41.972   4.159
71069W        W39474  10.680  36.971   1.313
71070W        W39475   6.623  12.193   4.641
71071W        W39476  38.481  12.816  14.889
71072W        W39477  24.215   3.265  12.109
71073W        W39478   0.108  20.089   1.815
71074W        W39479   3.809   5.515   1.533
71075W        W39480  37.933  39.294  12.070
71076W        W39481  15.679  14.950  11.523
71077W        W39482  38.257  34.906   4.181
71078W        W39483  33.355  17.011  10.684
71079W        W39484  41.038  35.011   4.834
71080W        W39485  16.322  24.242   0.375
71081W        W39486   0.996  42.271   1.687
71082W        W39487  20.099  11.619  11.017
71083W        W39488  23.924  20.105   4.292
71084W        W39489  12.155  18.609   1.947
71085W        W39490  28.567  31.777   3.608
71086W        W39491  20.817  34.662   3.376
71087W        W39492  43.633   9.422  10.657
71088W        W39493  10.855  27.009  10.975
71089W        W39494  33.050  39.361  11.820
71090W        W39495  32.061  25.143  11.308
71091W        W39496  35.077  43.572  14.606
71092W        W39497  13.632  44.565   4.546
71093W        W39498  18.593  19.075   3.857
71094W        W39499  19.331  35.507  14.515
71095W        W39500  43.816   3.480  12.446
71096W        W39501  39.493  36.176  13.406
71097W        W39502   2.792  17.706  14.981
71098W        W39503  13.849  33.691   1.405
71099W        W39504  39.570  15.072  13.804
71100W        W39505  31.931  26.624  13.973
71101W        W39506  35.922   2.350   2.962
71102W        W39507  12.233   9.797  11.860
71103W        W39508  11.293  42.350  14.602
71104W        W39509  29.460  27.875  13.852
71105W        W39510   8.383  11.220  12.427
71106W        W39511  20.409  39.401  13.933
71107W        W39512  28.179  43.328   1.003
71108W        W39513  26.316  16.199   3.265
71109W        W39514  33.170  13.697  13.830
71110W        W39515  23.226  15.219  11.033
71111W        W39516  41.306   6.825  13.411
71112W        W39517   2.326  44.344   4.137
71113W        W39518   0.510  22.072   2.281
71114W        W39519  28.614  23.110   4.612
71115W        W39520  42.502  29.381  11.020
71116W        W39521  40.445  28.619   4.809
71117W        W39522  17.395  19.254  13.961
71118W        W39523  12.298   2.387   2.522
71119W        W39524  10.111  22.715   3.375
71120W        W39525   2.472   3.291  14.523
71121W        W39526  24.089   3.255   2.732
71122W        W39527  24.215   0.726  11.088
71123W        W39528  35.639  28.540   1.330
71124W        W39529   3.115  14.319  11.024
71125W        W39530  43.783  14.969  14.570
71126W        W39531  29.160  38.363  12.220
71127W        W39532  39.874  11.202  10.770
71128W        W39533  42.120  39.606  11.605
71129W        W39534  35.881  13.821   1.045
71130W        W39535  38.464  33.411   0.327
71131W        W39536  38.453  43.962  11.944
71132W        W39537  35.804  40.807   2.794
71133W        W39538   3.278  30.115   2.495
71134W        W39539  27.515  18.700  13.127
71135W        W39540  42.079   6.783  12.920
71136W        W39541  18.218  30.605   0.432
71137W        W39542  30.990  30.729  12.824
71138W        W39543   2.769  10.264   1.363
71139W        W39544  44.908  42.152   1.421
71140W        W39545  16.565  17.989  12.017
71141W        W39546  21.648  41.999  14.890
71142W        W39547  18.796  26.681  12.493
71143W        W39548  34.902  37.717   3.710
71144W        W39549  17.508  39.723   2.691
71145W        W39550  29.564   2.492  10.821
71146W        W39551  10.218  19.614   0.690
71147W        W39552  19.273  16.149   2.558
71148W        W39553  23.810  40.369   2.245
71149W        W39554  15.312  11.441   4.183
71150W        W39555  15.221  43.048   1.409
71151W        W39556  32.411  43.753  11.973
71152W        W39557  29.912  12.460   1.884
71153W        W39558  30.914  16.252  11.073
71154W        W39559  19.664  15.066   1.652
71155W        W39560  23.901   1.780  14.424
71156W        W39561  12.645  29.474  11.964
71157W        W39562   5.704  13.010  11.094
71158W        W39563  19.661   7.831  10.997
71159W        W39564  41.726  15.704   3.218
71160W        W39565   2.856  12.916  12.534
71161W        W39566  35.204  27.702   0.840
71162W        W39567  18.554  25.444   3.830
71163W        W39568  27.945  29.432  10.015
71164W        W39569  39.120  44.419   0.345
71165W        W39570   6.685   2.942  13.784
71166W        W39571   0.260   8.252  10.372
71167W        W39572  16.491   1.504   4.520
71168W        W39573  25.996   2.816  10.956
71169W        W39574  39.355  26.993   2.731
71170W        W39575  30.488  12.810   3.309
71171W        W39576  20.467  26.594   0.156
71172W        W39577  11.325  29.178  11.837
71173W        W39578  20.789  37.580   3.225
71174W        W39579  43.734  41.310  13.932
71175W        W39580  41.579  20.537  13.341
71176W        W39581  44.220  20.150   1.505
71177W        W39582   5.790  16.727   1.804
71178W        W39583  29.101  18.632  12.545
71179W        W39584  12.417  33.712   3.398
71180W        W39585  44.918  23.760   0.953
71181W        W39586  36.062   8.856   2.196
71182W        W39587   1.415  17.381   1.645
71183W        W39588   7.853  14.340   1.806
71184W        W39589   1.753  37.940   3.803
71185W        W39590  12.418  11.226   0.480
71186W        W39591  11.150  20.195   2.752
71187W        W39592  25.236  37.998  14.130
71188W        W39593   1.898  27.024  11.156
71189W        W39594  26.265  21.713  12.017
71190W        W39595  40.893  30.108  13.873
71191W        W39596  19.164  22.131  12.485
71192W        W39597  16.093   5.241   0.261
71193W        W39598  27.756  38.147  13.442
71194W        W39599   0.013  12.138  10.997
71195W        W39600  29.145  18.507   1.882
71196W        W39601  36.039  16.278   3.302
71197W        W39602  11.278  40.071   2.872
71198W        W39603  21.295  11.792  13.068
71199W        W39604   6.724  28.628   9.932
71200W        W39605   7.675  29.642  10.838
71201W        W39606  10.222  41.280   3.660
71202W        W39607  39.516   1.320  13.430
71203W        W39608  22.780  25.237  12.339
71204W        W39609  31.834  33.414   3.775
71205W        W39610   0.758  16.740   4.327
71206W        W39611  33.848  43.713   3.843
71207W        W39612  18.678  14.764   2.525
71208W        W39613  12.659  34.066   0.078
71209W        W39614  14.562  34.615   5.073
71210W        W39615  17.200  20.239   3.081
71211W        W39616  19.264  14.143   4.541
71212W        W39617  23.763  10.282   2.696
71213W        W39618  43.558  18.508  12.111
71214W        W39619  37.246  36.306   1.290
71215W        W39620  12.850  31.529  11.211
71216W        W39621  29.586   8.950   1.813
71217W        W39622  44.509  39.353   2.267
71218W        W39623  30.716  23.625  14.308
71219W        W39624   9.887  26.830  14.460
71220W        W39625  44.544  10.216  12.928
71221W        W39626  44.369   9.567  13.436
71222W        W39627  41.457   3.188   9.751
71223W        W39628  21.975   5.959   0.449
71224W        W39629  21.975  42.951  13.955
71225W        W39630  33.037   1.568   0.273
71226W        W39631  14.225  10.151  10.613
71227W        W39632  12.854  44.488   3.154
71228W        W39633  44.575   0.079   4.390
71229W        W39634  25.674  38.439  10.660
71230W        W39635  29.045  16.786   2.886
71231W        W39636  44.335  17.979  13.209
71232W        W39637  25.109  40.647  13.474
71233W        W39638   2.875   4.141  10.689
71234W        W39639  27.510  44.400  12.483
71235W        W39640  42.985  23.192   4.143
71236W        W39641  21.111  19.258   1.716
71237W        W39642  30.683  22.995  12.153
71238W        W39643  38.083  41.485   3.685
71239W        W39644  29.136  40.907   2.558
71240W        W39645   0.684  41.337   1.872
71241W        W39646  20.118   3.151   3.094
71242W        W39647  41.682  40.325  10.662
71243W        W39648  17.162  28.503  13.060
71244W        W39649  26.595   0.040  12.781
71245W        W39650  36.875  11.748   2.828
71246W        W39651  30.195   6.326  12.144
71247W        W39652  43.446  33.899   3.242
71248W        W39653  12.300  44.397  11.984
71249W        W39654  26.942  29.920   2.575
71250W        W39655  27.432  26.710  12.007
71251W        W39656  39.039  35.808   3.062
71252W        W39657  31.457  22.055   4.295
71253W        W39658  38.778  15.636  14.916
71254W        W39659  10.505  15.708   9.494
71255W        W39660  31.758  15.233   1.238
71256W        W39661  10.071   4.666  14.428
71257W        W39662  11.724  27.436   1.799
71258W        W39663  33.954  44.757  12.647
71259W        W39664  33.428  27.651   3.654
71260W        W39665  19.537  30.150  13.808
71261W        W39666  41.912  26.100   4.589
71262W        W39667  10.580  11.311   2.669
71263W        W39668  26.167  30.251  14.031
71264W        W39669  26.253  38.174   4.555
71265W        W39670  20.052  13.381  11.548
71266W        W39671  27.174  12.904  13.518
71267W        W39672   1.041   2.448   0.449
71268W        W39673  11.629  17.365   4.441
71269W        W39674  14.278   2.453   0.338
71270W        W39675   3.698  24.238   4.335
71271W        W39676  19.394  26.982   2.779
71272W        W39677  10.244  22.992  11.577
71273W        W39678  30.582  43.215   0.770
71274W        W39679  16.557  20.193  11.629
71275W        W39680   3.847  31.777   5.329
71276W        W39681  18.322  24.542   3.723
71277W        W39682  34.310  41.359   2.714
71278W        W39683  19.156  37.363  13.013
71279W        W39684  41.337  11.675   1.413
71280W        W39685  35.594   1.218   2.623
71281W        W39686   7.297  23.720   3.714
71282W        W39687  42.993   6.941   4.566
71283W        W39688  12.251   9.592   1.244
71284W        W39689  44.455  28.312   3.400
71285W        W39690  26.456  30.373   3.193
71286W        W39691  41.777   9.579  11.712
71287W        W39692  12.434  14.114  13.033
71288W        W39693  19.566  37.378   2.468
71289W        W39694  40.053  43.733  14.455
71290W        W39695  34.995   4.995   1.372
71291W        W39696  31.523  41.330   3.845
71292W        W39697  40.990   3.099   2.873
71293W        W39698   8.309  39.482   2.091
71294W        W39699  35.055  21.049  10.732
71295W        W39700  13.622  23.060   4.165
71296W        W39701  40.332  42.128  11.472
71297W        W39702   5.521  30.663  13.058
71298W        W39703  37.765  24.945  11.634
71299W        W39704  32.972  29.698  10.696
71300W        W39705  26.544  19.047  12.499
71301W        W39706  19.715  40.866   1.258
71302W        W39707   8.313  27.200  12.663
71303W        W39708   3.608   4.488  14.366
71304W        W39709  22.137  22.547   5.041
71305W        W39710  10.025   2.513  12.499
71306W        W39711  38.036  24.629   4.495
71307W        W39712  40.996  19.709  10.627
71308W        W39713   8.879  22.630  14.909
71309W        W39714  29.702  42.964  14.373
71310W        W39715  16.808   3.870   0.383
71311W        W39716  14.845  31.016   1.523
71312W        W39717   0.487  10.850  12.662
71313W        W39718  44.813  25.159  13.144
71314W        W39719  27.938   6.214   3.784
71315W        W39720  23.637   2.719  13.448
71316W        W39721  10.705  17.826   1.843
71317W        W39722  37.663  20.229  11.209
71318W        W39723  30.178  13.902   1.658
71319W        W39724  18.057  27.050  12.302
71320W        W39725  19.186  25.267   9.891
71321W        W39726   9.786  22.764   1.851
71322W        W39727  36.340  17.863  13.082
71323W        W39728  40.462  35.653  12.694
71324W        W39729   0.769  44.518   1.478
71325W        W39730  16.212  11.711  12.809
71326W        W39731  34.121  30.181   0.450
71327W        W39732  38.639  13.161  11.663
71328W        W39733   4.651  40.059  13.459
71329W        W39734   8.403  34.490  13.813
71330W        W39735  31.043  38.634  12.994
71331W        W39736   7.622   8.644   3.267
71332W        W39737  20.487  29.862   4.753
71333W        W39738  39.544   6.470   4.078
71334W        W39739  28.749  36.952  14.333
71335W        W39740  25.407  34.425   2.503
71336W        W39741   1.344  13.286  11.172
71337W        W39742  36.536  19.740  13.480
71338W        W39743  24.971  17.729  12.860
71339W        W39744  33.505  17.123   0.487
71340W        W39745   2.093  14.741  12.215
71341W        W39746  11.350  24.495  11.144
71342W        W39747   2.369   7.086   3.197
71343W        W39748  20.494   9.504  12.448
71344W        W39749  21.294   0.272   2.777
71345W        W39750  36.624  22.638  11.239
71346W        W39751   9.269  39.262  14.330
71347W        W39752   4.885  23.341   3.282
71348W        W39753  39.370   6.008  12.584
71349W        W39754  14.780   8.214   1.803
71350W        W39755  20.773  43.293  12.340
71351W        W39756  30.277  44.151   2.445
71352W        W39757   4.969  32.233   2.677
71353W        W39758  27.172  16.668   1.027
71354W        W39759  10.271  41.640   3.231
71355W        W39760  32.220  34.099   4.126
71356W        W39761  40.323  34.344   4.514
71357W        W39762  20.177  33.389  12.662
71358W        W39763   9.459  20.771   2.888
71359W        W39764  16.628  30.608  11.528
71360W        W39765  29.285   5.585  11.812
71361W        W39766  41.168  29.919  14.294
71362W        W39767  25.159  34.447  12.028
71363W        W39768  28.899  14.055   3.629
71364W        W39769  42.473  22.830  13.818
71365W        W39770  26.562  40.979  10.726
71366W        W39771   7.753  26.488   2.833
71367W        W39772  13.313  19.824   0.794
71368W        W39773  27.943  31.188   0.002
71369W        W39774  33.430  22.535  12.452
71370W        W39775  35.909  17.820   1.262
71371W        W39776  42.938   4.171   1.412
71372W        W39777  10.289  21.092   2.203
71373W        W39778  26.302  34.453  11.661
71374W        W39779  11.913   9.803   4.377
71375W        W39780  29.895  17.152   2.667
71376W        W39781   8.986   2.246   4.705
71377W        W39782  10.623  22.021   3.754
71378W        W39783  44.019  12.588  13.056
71379W        W39784   0.825  34.113  11.996
71380W        W39785  25.113   2.032   1.551
71381W        W39786  16.732  40.786   0.489
71382W        W39787   2.833  34.993  13.594
71383W        W39788   3.917  25.050  11.605
71384W        W39789  16.145  13.161   3.522
71385W        W39790  40.751  12.759  13.296
71386W        W39791   4.755  22.321   2.264
71387W        W39792  42.279  12.349  12.935
71388W        W39793  11.441  11.361   0.485
71389W        W39794  42.839  32.624   4.632
71390W        W39795  19.528   0.961   3.703
71391W        W39796   6.071  13.272  10.816
71392W        W39797  43.164  25.166   0.778
71393W        W39798  39.600   8.242   3.581
71394W        W39799  34.171  35.917  13.530
71395W        W39800  23.961  34.927  12.273
71396W        W39801   4.866   7.745  13.864
71397W        W39802  39.609  29.097  12.599
71398W        W39803  42.866   8.646  13.009
71399W        W39804  29.060  44.172  11.698
71400W        W39805  31.155  14.683   0.920
71401W        W39806  43.985  23.266  13.408
71402W        W39807  12.306  13.065  13.518
71403W        W39808  36.323   2.861   4.561
71404W        W39809  42.777  26.382  14.388
71405W        W39810  21.290  27.136  11.844
71406W        W39811   6.556   0.511  11.108
71407W        W39812  41.471  10.060  11.119
71408W        W39813  40.453  14.184  14.560
71409W        W39814  15.090  29.954   3.717
71410W        W39815  14.406  38.845   1.402
71411W        W39816  41.402  12.948  10.632
71412W        W39817  35.039  12.751   0.771
71413W        W39818  28.382  39.061  12.493
71414W        W39819   9.267  12.288  13.409
71415W        W39820   4.192  35.470   2.372
71416W        W39821  15.088  20.602   4.513
71417W        W39822   8.996  11.718  14.328
71418W        W39823  38.569   1.263  12.862
71419W        W39824   6.336   1.757   1.877
71420W        W39825  15.104  44.769   3.377
71421W        W39826  40.289  21.658   4.135
71422W        W39827  38.086  37.846  10.873
71423W        W39828  35.816  10.591   4.758
71424W        W39829  25.669  21.010   0.836
71425W        W39830  27.825  43.501  10.349
71426W        W39831  12.224  40.808  10.958
71427W        W39832  15.474  25.704  10.104
71428W        W39833  31.286   1.448  14.882
71429W        W39834  30.199  29.627  11.087
71430W        W39835   0.688  32.172   2.332
71431W        W39836  20.923  36.159   1.050
71432W        W39837   7.584  44.687  13.004
71433W        W39838  39.606  42.806   1.852
71434W        W39839  11.426  10.770   1.382
71435W        W39840   3.953   1.027   2.751
71436W        W39841  37.316  14.421  11.169
71437W        W39842  22.989  44.963   4.177
71438W        W39843  25.283  12.195   3.423
71439W        W39844  31.621  24.001   0.813
71440W        W39845  23.223  41.850  13.299
71441W        W39846  22.955  32.106   4.137
71442W        W39847  31.573   4.943   2.182
71443W        W39848  12.058  13.068  10.727
71444W        W39849  17.066  23.200   3.208
71445W        W39850  38.148   1.668  14.052
71446W        W39851  17.263  17.226   1.710
71447W        W39852  34.435   9.341   0.391
71448W        W39853  17.237  38.851   1.204
71449W        W39854  23.264  41.095   4.611
71450W        W39855  18.253  17.058   0.151
71451W        W39856  36.006   9.443   4.642
71452W        W39857  25.240  17.017   2.904
71453W        W39858  11.094  19.132   2.702
71454W        W39859  17.649  41.981  12.440
71455W        W39860  36.272  24.126  14.167
71456W        W39861  37.305   6.957  13.373
71457W        W39862   8.752  18.087  10.713
71458W        W39863   1.280   0.424  11.628
71459W        W39864  38.612  25.040  14.550
71460W        W39865  27.646  14.663   2.634
71461W        W39866  42.833  22.485  14.837
71462W        W39867  27.159  29.092  13.454
71463W        W39868  32.313  41.896   0.973
71464W        W39869   2.649   6.975  13.555
71465W        W39870  19.714   1.981  13.839
71466W        W39871  36.522  28.106  12.134
71467W        W39872  28.709  16.824   4.540
71468W        W39873   1.186  27.790  13.449
71469W        W39874  12.234  33.545   2.466
71470W        W39875  32.643  34.971  14.985
71471W        W39876  15.238  23.667  14.567
71472W        W39877  24.657  35.089   4.773
71473W        W39878  23.379  40.994   0.832
71474W        W39879  17.323  24.291  11.313
71475W        W39880  37.411  22.236  11.970
71476W        W39881  26.122  10.893   3.956
71477W        W39882   6.236  27.917   1.353
71478W        W39883   4.930   1.697  12.880
71479W        W39884  29.658  40.522  12.958
71480W        W39885  13.735   9.964  14.988
71481W        W39886   3.691  30.092   4.218
71482W        W39887   8.319  12.217  13.173
71483W        W39888  25.841   6.619   3.704
71484W        W39889  36.868  29.893  12.121
71485W        W39890  43.483  20.674   2.471
71486W        W39891  25.716   1.713   9.908
71487W        W39892   2.984  30.000  10.866
71488W        W39893   4.605   1.243   2.260
71489W        W39894  32.091   6.954  13.910
71490W        W39895   9.641  33.873  12.892
71491W        W39896   5.448  25.994   4.072
71492W        W39897  15.648  12.629   2.721
71493W        W39898   4.857  36.295  11.975
71494W        W39899  24.445  33.693   3.639
71495W        W39900   0.337  37.018  11.133
71496W        W39901  29.726  29.860  12.507
71497W        W39902  27.525  10.430   3.040
71498W        W39903  28.350  10.567   2.812
71499W        W39904  30.965  26.117  12.832
71500W        W39905   0.016  10.776  12.451
71501W        W39906   7.058  42.163   0.378
71502W        W39907  11.546  37.026  12.992
71503W        W39908  12.221   0.208   1.624
71504W        W39909  16.325  38.591  13.057
71505W        W39910   7.421   5.346   2.317
71506W        W39911  28.530  10.433  13.324
71507W        W39912  12.077  36.986  12.986
71508W        W39913  29.548  12.837   4.139
71509W        W39914  17.721   5.094   0.480
71510W        W39915   6.738  36.041   4.443
71511W        W39916  37.439   2.811   3.847
71512W        W39917  39.871  28.148   0.995
71513W        W39918  33.418   0.473   4.371
71514W        W39919   8.135  42.937   4.237
71515W        W39920  17.757  28.726   1.440
71516W        W39921  14.156  43.309   2.744
71517W        W39922  24.554  32.909   1.881
71518W        W39923  11.631  41.550  14.804
71519W        W39924  34.609  14.311  14.254
71520W        W39925  10.220  18.832   0.276
71521W        W39926  24.091  22.902   2.787
71522W        W39927  26.134  28.085   2.192
71523W        W39928  17.170  20.242   3.596
71524W        W39929  36.266  43.166  13.938
71525W        W39930   5.184  15.648  11.643
71526W        W39931  19.124  38.551  13.821
71527W        W39932   5.619  38.973   2.828
71528W        W39933  12.201  28.230   4.414
71529W        W39934  40.945  38.629   3.643
71530W        W39935  20.417   8.455   4.240
71531W        W39936   4.834  14.099   5.050
71532W        W39937  39.283   2.226  10.277
71533W        W39938  42.840  29.110   0.182
71534W        W39939   3.684  34.374   0.978
71535W        W39940   6.200  21.426   1.054
71536W        W39941  30.865  30.164   2.323
71537W        W39942   8.830  35.510   1.679
71538W        W39943   1.463  28.907   2.741
71539W        W39944  18.207  14.780   0.562
71540W        W39945  19.611  44.951   3.644
71541W        W39946  43.838   1.255  14.773
71542W        W39947  31.302  34.466  11.594
71543W        W39948  23.682  23.997  10.700
71544W        W39949  11.841  12.157   4.545
71545W        W39950  18.252  39.449   2.296
71546W        W39951  38.027  35.584   1.370
71547W        W39952  14.409   0.680  12.817
71548W        W39953   1.042  20.141  13.116
71549W        W39954  13.293  31.273   0.076
71550W        W39955  27.601  32.983  12.640
71551W        W39956  25.181  27.747  11.526
71552W        W39957  43.564   7.814   0.265
71553W        W39958  17.829  10.910  10.029
71554W        W39959  25.005  10.911   0.461
71555W        W39960  24.976   9.203   1.812
71556W        W39961  44.435  22.678   2.493
71557W        W39962  24.111  10.131   4.114
71558W        W39963   6.882  32.938  14.789
71559W        W39964  11.613  22.213   3.625
71560W        W39965   3.021  22.656   1.104
71561W        W39966   5.211   6.187   5.137
71562W        W39967  44.297  12.441   1.829
71563W        W39968  19.535  33.725  10.848
71564W        W39969   3.463  23.794   2.649
71565W        W39970  20.835  27.167  11.587
71566W        W39971  35.100  38.010   1.288
71567W        W39972  29.013  38.655   3.545
71568W        W39973   8.479  18.550  13.085
71569W        W39974  14.511  37.294   5.035
71570W        W39975   4.109  33.725   9.987
71571W        W39976  13.073  15.574   1.394
71572W        W39977  44.390  11.035  10.242
71573W        W39978   0.796   2.410  14.995
71574W        W39979  38.268  39.022   1.430
71575W        W39980  16.352  14.655   0.918
71576W        W39981  29.628  34.888   2.930
71577W        W39982  37.773  30.761  12.493
71578W        W39983  43.844  43.993   4.421
71579W        W39984   1.914  34.194   2.272
71580W        W39985  22.194  39.418   1.423
71581W        W39986  30.960  16.372  13.553
71582W        W39987   8.278   1.041  14.424
71583W        W39988   9.948  17.591  12.216
71584W        W39989   3.734  42.312  13.550
71585W        W39990  14.090   0.271  13.503
71586W        W39991  28.892  12.650   3.700
71587W        W39992   9.028   0.226   2.855
71588W        W39993  42.017  30.954  14.012
71589W        W39994  29.071  19.281  11.126
71590W        W39995   9.756  35.267   4.110
71591W        W39996  34.842  31.060  13.365
71592W        W39997   5.950  12.106  14.473
71593W        W39998  35.013  12.237  10.761
71594W        W39999  22.539  19.816  13.991
71595W        W40000   2.733  13.817   3.782
71596W        W40001   4.536  36.448   2.276
71597W        W40002   0.299   5.908  13.918
71598W        W40003   6.293  40.026   3.862
71599W        W40004   5.592  30.578  14.808
71600W        W40005  24.765   2.936  13.031
71601W        W40006  13.245  43.039   5.245
71602W        W40007  22.786  21.262   4.309
71603W        W40008   8.983  42.664  13.511
71604W        W40009  31.729  41.024  14.556
71605W        W40010   6.673   7.782   0.883
71606W        W40011  11.208  37.036  14.856
71607W        W40012  41.839   6.309   0.404
71608W        W40013  42.041  38.698   0.153
71609W        W40014  10.360  19.745  13.602
71610W        W40015  16.292  11.208  13.956
71611W        W40016  26.497  29.953  12.839
71612W        W40017   9.161  44.803  14.445
71613W        W40018  20.696  10.799  13.377
71614W        W40019  14.020   6.436  10.441
71615W        W40020  12.382  22.041  14.538
71616W        W40021  29.036   2.705  11.651
71617W        W40022   9.262  26.311   1.254
71618W        W40023   9.328  38.938   1.270
71619W        W40024  17.270   1.572  14.755
71620W        W40025  27.630  10.119  13.245
71621W        W40026  26.879  37.057   3.254
71622W        W40027  41.282  36.649  13.896
71623W        W40028  32.605  27.681   3.278
71624W        W40029  14.308  42.011  10.763
71625W        W40030  32.482  36.526  11.163
71626W        W40031  32.411   0.020   3.837
71627W        W40032  27.998  14.469   2.291
71628W        W40033   6.835  19.684   2.828
71629W        W40034  26.393  17.900  10.026
71630W        W40035  35.220  19.102   0.821
71631W        W40036   2.293   0.362   3.614
71632W        W40037   3.009  25.629   0.439
71633W        W40038   5.318  18.996  14.909
71634W        W40039  40.049   8.875   3.176
71635W        W40040   7.788   3.406  14.400
71636W        W40041  35.541  10.665  14.481
71637W        W40042  36.761  37.021   1.963
71638W        W40043  34.866   0.501  13.450
71639W        W40044   0.513   5.843   0.740
71640W        W40045  15.675  18.187  11.475
71641W        W40046  14.616  26.204  13.910
71642W        W40047  32.037  36.668   1.118
71643W        W40048  31.081  22.587   3.663
71644W        W40049  16.115  27.992  14.335
71645W        W40050  40.058  20.418   0.947
71646W        W40051  25.402  43.319   4.804
71647W        W40052  29.774  41.920  10.537
71648W        W40053   6.240  30.341   1.953
71649W        W40054  26.267  41.732   1.334
71650W        W40055   7.902  35.497   4.528
71651W        W40056   0.232  24.275  12.711
71652W        W40057   3.231  29.661  13.406
71653W        W40058  33.039  10.406  13.448
71654W        W40059  11.438  15.770   4.982
71655W        W40060   8.395  22.781   1.695
71656W        W40061  23.676  14.467   0.323
71657W        W40062  18.998  12.385  11.546
71658W        W40063   3.243  38.764  12.367
71659W        W40064   1.584  24.166  13.868
71660W        W40065  30.494  29.894   0.675
71661W        W40066   8.731  26.614   5.074
71662W        W40067   4.121   0.775  11.647
71663W        W40068  16.940  25.178  14.998
71664W        W40069  44.466   4.624   2.781
71665W        W40070  33.368   3.319   3.733
71666W        W40071  13.029  13.057  11.040
71667W        W40072  12.852  20.108  10.546
71668W        W40073  34.961   3.323   3.240
71669W        W40074  24.972   5.439   3.759
71670W        W40075  35.505  30.860  12.046
71671W        W40076   2.056   8.105   4.951
71672W        W40077  18.083   4.750  10.306
71673W        W40078  25.556  17.582  10.060
71674W        W40079   2.780   5.627  14.338
71675W        W40080  23.234  36.953   4.204
71676W        W40081   5.648  41.824   3.338
71677W        W40082  42.801  40.597   4.174
71678W        W40083  28.964  21.584   3.958
71679W        W40084   4.211  35.387   4.134
71680W        W40085  41.228  13.883  11.484
71681W        W40086  21.723  30.636  11.000
71682W        W40087  44.438  39.432  13.340
71683W        W40088   7.741  19.450  12.105
71684W        W40089  23.499  20.570  10.642
71685W        W40090  23.735  25.913   4.134
71686W        W40091  11.430  13.666   2.120
71687W        W40092   4.684   9.425   3.292
71688W        W40093  32.142  13.786   1.296
71689W        W40094   3.269  20.272  12.823
71690W        W40095  16.775  29.547   0.269
71691W        W40096  44.488  13.844   1.613
71692W        W40097  36.309  30.918  12.522
71693W        W40098  22.616  36.510   3.222
71694W        W40099   1.918  10.848  10.743
71695W        W40100  12.675  18.574   2.872
71696W        W40101  36.386  18.372  11.392
71697W        W40102  35.069  36.413  11.980
71698W        W40103  39.988   3.351   1.774
71699W        W40104  19.733  13.212   3.993
71700W        W40105  15.818  19.689   4.460
71701W        W40106  25.594  17.568  14.844
71702W        W40107  33.280  34.301  12.940
71703W        W40108  22.638  17.511  10.930
71704W        W40109  31.221  43.506   0.044
71705W        W40110  10.118   6.075  14.793
71706W        W40111   3.413  44.295  11.984
71707W        W40112  23.691   0.870   2.844
71708W        W40113   3.718  33.936  14.321
71709W        W40114  32.592   1.952  14.371
71710W        W40115  14.586  41.836   2.292
71711W        W40116  38.327  37.084  11.229
71712W        W40117  12.349   4.854   2.391
71713W        W40118  37.641   3.890   1.789
71714W        W40119  19.233  17.962  14.004
71715W        W40120   9.478  26.417   0.805
71716W        W40121  39.308  25.722   3.259
71717W        W40122  35.871  26.781  10.466
71718W        W40123  19.532  33.284  11.145
71719W        W40124   6.337   3.278   3.155
71720W        W40125  16.109  32.410   0.772
71721W        W40126   8.630  12.859   3.386
71722W        W40127  19.365   5.205   0.757
71723W        W40128  19.743  42.605   0.328
71724W        W40129  43.722  44.046   3.020
71725W        W40130  25.654  26.994  12.144
71726W        W40131  21.918  26.650  11.314
71727W        W40132  28.668  35.599   4.620
71728W        W40133  11.834  20.578   1.454
71729W        W40134  43.267  36.037  11.624
71730W        W40135  12.299   3.008  10.657
71731W        W40136  21.086  35.267  11.915
71732W        W40137  21.508  32.908  11.183
71733W        W40138   1.915  30.398   4.978
71734W        W40139  27.836  38.095  11.131
71735W        W40140  22.501  40.172   0.790
71736W        W40141  27.218  22.624  14.316
71737W        W40142   0.769  35.926   1.763
71738W        W40143  17.738   5.716   3.877
71739W        W40144  10.440   3.790   4.113
71740W        W40145  26.913  14.047  12.080
71741W        W40146  15.765  24.911  12.865
71742W        W40147  19.079  33.985   1.936
71743W        W40148  19.704  30.597   4.097
71744W        W40149  30.399  28.229   0.234
71745W        W40150  42.347  42.897   4.160
71746W        W40151  31.000  41.519   0.382
71747W        W40152  41.299  34.895   0.668
71748W        W40153   2.694   9.952  14.299
71749W        W40154  34.667  44.237  12.433
71750W        W40155  34.898  39.296   3.647
71751W        W40156  21.770  36.876   2.748
71752W        W40157  31.529  35.784   0.362
71753W        W40158  28.567  34.971  13.162
71754W        W40159  41.929   8.878   1.237
71755W        W40160  33.169  18.583   1.404
71756W        W40161  17.776  23.237   0.325
71757W        W40162  39.087  17.688   4.500
71758W        W40163  11.098  18.793   2.270
71759W        W40164  31.726   3.237   3.222
71760W        W40165  41.085   8.923   3.284
71761W        W40166  43.937  19.325   1.891
71762W        W40167  41.812  43.796  13.763
71763W        W40168   7.251  37.559   1.376
71764W        W40169  14.593  33.913   2.685
71765W        W40170   3.104  39.395  14.772
71766W        W40171  34.442  32.390  11.930
71767W        W40172   4.316  32.017  13.460
71768W        W40173  16.165  31.927  13.020
71769W        W40174  31.028  40.016  10.653
71770W        W40175   0.487  13.795  12.025
71771W        W40176   1.370  40.628  13.049
71772W        W40177  26.263   3.076  13.879
71773W        W40178  44.843   5.665  14.820
71774W        W40179  25.207   8.413  10.691
71775W        W40180  37.560  21.466   2.690
71776W        W40181  14.714   1.392  14.016
71777W        W40182   4.001  42.877  11.056
71778W        W40183  21.798   7.428   1.448
71779W        W40184  17.253  21.664   0.941
71780W        W40185  37.114  28.405   3.303
71781W        W40186  41.977  20.834   1.643
71782W        W40187  36.608  30.926  11.674
71783W        W40188   7.803  18.320  14.494
71784W        W40189  33.760  12.345   1.384
71785W        W40190  20.847  38.370  14.501
71786W        W40191   7.030  33.181  13.815
71787W        W40192  24.171   4.989   5.413
71788W        W40193  30.265  36.085  11.474
71789W        W40194  21.227  34.484   2.624
71790W        W40195  43.731  17.816  13.941
71791W        W40196  34.870  27.714  10.573
71792W        W40197  44.754  19.288  12.599
71793W        W40198  44.326  22.139   4.100
71794W        W40199  35.781   6.450   3.401
71795W        W40200  25.168  16.893   0.190
71796W        W40201  36.833  13.983   5.181
71797W        W40202  38.017  18.271   1.804
71798W        W40203  44.636  15.045   3.695
71799W        W40204   2.814  42.739   3.809
71800W        W40205   5.952   6.152   3.157
71801W        W40206  22.827  25.991  11.526
71802W        W40207  19.445  41.800  12.654
71803W        W40208   4.879  38.169  10.705
71804W        W40209   4.752   3.428   3.730
71805W        W40210  41.010  12.117  12.442
71806W        W40211   8.403  23.454   2.687
71807W        W40212  39.229   2.057   5.490
71808W        W40213  11.823  29.711   4.159
71809W        W40214  31.415   3.339  14.916
71810W        W40215  11.251   3.859  14.974
71811W        W40216  26.408  37.027   0.706
71812W        W40217   1.336  24.570  11.467
71813W        W40218  40.376  25.226   1.889
71814W        W40219  35.534   0.397   0.852
71815W        W40220  24.059  18.563  11.299
71816W        W40221   5.304  39.939  11.569
71817W        W40222  22.092  39.011  10.633
71818W        W40223  27.792  32.619  11.390
71819W        W40224  10.887  15.958  11.356
71820W        W40225  41.964  43.402  13.433
71821W        W40226  13.791  29.964   0.358
71822W        W40227  28.012  22.043   0.573
71823W        W40228  23.635  44.687  12.427
71824W        W40229  17.730  37.702   2.690
71825W        W40230  24.283  21.917  12.157
71826W        W40231  23.525  35.639   4.189
71827W        W40232   7.819  25.147  14.533
71828W        W40233  34.880  16.820  11.949
71829W        W40234  36.948  24.700  14.478
71830W        W40235  41.030  29.896  10.905
71831W        W40236  44.903  33.863  12.971
71832W        W40237  35.461  17.953  13.062
71833W        W40238  25.517  36.630   4.674
71834W        W40239  20.730   9.806   1.315
71835W        W40240   8.611  41.940   3.194
71836W        W40241  14.390  31.668  12.406
71837W        W40242  12.769   7.879  12.456
71838W        W40243  29.980  16.515   0.426
71839W        W40244  17.762  38.567   4.638
71840W        W40245  31.333  27.522  12.462
71841W        W40246   6.738  31.185   4.933
71842W        W40247   7.726   6.283   4.136
71843W        W40248  34.860  15.542  14.802
71844W        W40249  43.955  42.492   0.786
71845W        W40250  25.408   2.384   3.223
71846W        W40251  42.413   6.869  14.432
71847W        W40252  41.503  34.828  12.388
71848W        W40253  17.782  43.502  10.818
71849W        W40254  13.399  35.057  11.232
71850W        W40255  39.389  34.203   0.741
71851W        W40256  44.003  31.064  14.074
71852W        W40257   9.772  22.250  11.273
71853W        W40258  37.155  36.736  11.668
71854W        W40259  14.051   5.654   0.509
71855W        W40260  42.900  17.664   0.262
71856W        W40261  16.252  36.386  10.859
71857W        W40262  41.134  19.527   0.789
71858W        W40263  14.528  42.176  13.538
71859W        W40264  23.810  33.167  12.355
71860W        W40265  42.966  20.426  11.094
71861W        W40266  10.684  44.769   1.747
71862W        W40267  36.518  32.375  11.453
71863W        W40268  28.514   8.137   4.615
71864W        W40269  34.288  16.711  10.727
71865W        W40270  31.214  16.180   1.980
71866W        W40271  16.825  25.940  13.964
71867W        W40272  10.717  39.314  10.887
71868W        W40273  40.759  10.764   1.199
71869W        W40274  12.257   3.804   2.780
71870W        W40275  16.573  27.626   1.987
71871W        W40276  25.751  37.293   3.563
71872W        W40277   9.325  31.590   5.032
71873W        W40278  14.774  30.793   1.975
71874W        W40279  17.335  36.613   3.230
71875W        W40280  36.556  35.965  14.534
71876W        W40281  41.919  11.753   0.913
71877W        W40282  29.376  43.296  13.961
71878W        W40283  43.086  16.639  14.413
71879W        W40284  10.863  16.270  12.435
71880W        W40285   0.745  15.163   2.787
71881W        W40286  28.435  14.083   2.696
71882W        W40287  24.130  19.204  12.046
71883W        W40288  20.160   6.791  14.447
71884W        W40289  30.701  29.588  11.975
71885W        W40290   7.255  43.988  14.839
71886W        W40291  33.028  44.949   0.467
71887W        W40292  16.689   3.693   0.854
71888W        W40293   4.780  39.816  11.757
71889W        W40294   4.660  42.222   0.652
71890W        W40295  14.137  21.016  10.638
71891W        W40296  21.838   6.871  13.498
71892W        W40297  26.945   4.638  10.455
71893W        W40298   8.313  44.899   2.968
71894W        W40299  44.656   4.695  10.814
71895W        W40300  36.590  22.070  11.040
71896W        W40301  33.525  44.706   1.740
71897W        W40302  32.117  34.008   0.250
71898W        W40303  40.542  38.919  12.927
71899W        W40304  43.494   7.322   0.549
71900W        W40305  20.023  37.024  11.298
71901W        W40306  42.485  28.969   4.566
71902W        W40307  20.763   9.367   0.023
71903W        W40308  29.944  25.812  11.641
71904W        W40309   9.969   1.399  12.692
71905W        W40310   8.296  41.038   0.275
71906W        W40311  24.533  15.870   0.846
71907W        W40312   8.081  14.711  13.980
71908W        W40313  35.070  37.543   2.859
71909W        W40314  38.625  27.630  14.499
71910W        W40315   6.885  42.467   1.542
71911W        W40316  32.430  34.913  14.483
71912W        W40317  41.876  43.615   3.147
71913W        W40318  21.147  25.179   1.840
71914W        W40319   2.050  14.279   4.048
71915W        W40320   5.868   3.837  10.854
71916W        W40321  13.328  13.289   4.646
71917W        W40322  30.525   9.827  11.634
71918W        W40323  17.132  34.350  13.614
71919W        W40324  29.624  21.111  10.958
71920W        W40325  42.810  33.503   4.453
71921W        W40326  32.279  14.305   2.368
71922W        W40327  40.675  24.471   2.140
71923W        W40328  36.627  32.625   2.429
71924W        W40329  29.823  21.474   4.568
71925W        W40330   5.304  27.050  10.794
71926W        W40331   5.833  22.086  10.744
71927W        W40332  20.701  39.273   2.512
71928W        W40333  21.799  20.705   3.094
71929W        W40334  25.691  25.538   2.313
71930ION    NA+40335  14.446   9.194  14.922
71931ION    NA+40336   7.256  25.709   3.653
71932ION    NA+40337  40.824  10.985   2.586
71933ION    NA+40338  23.116  18.134   4.652
71934ION    NA+40339  15.189   9.860  14.987
71935ION    NA+40340  36.451  11.219  14.346
71936ION    NA+40341  30.705   0.927   3.199
71937ION    NA+40342  26.846  32.189  11.308
71938ION    NA+40343   7.267  10.568   0.780
71939ION    NA+40344  44.715  34.056  10.748
71940ION    NA+40345  36.483   6.480  12.276
71941ION    NA+40346   9.655  44.115   0.467
71942ION    NA+40347  27.493  13.358  13.531
71943ION    NA+40348  21.242  20.866  10.741
71944ION    NA+40349  38.404  22.796   3.203
71945ION    NA+40350  13.118   7.382  12.103
71946ION    NA+40351  20.376  27.037   3.684
71947ION    NA+40352  32.657  15.686   1.898
71948ION    NA+40353  11.651  22.607   1.469
71949ION    NA+40354  18.112  35.614   5.484
71950ION    NA+40355  20.014   5.216  13.003
71951ION    NA+40356  16.793  36.323   2.347
71952ION    NA+40357  15.744  18.899   2.114
71953ION    NA+40358   1.000  35.798  11.084
71954ION    NA+40359  26.838  16.772  12.200
71955ION    NA+40360  42.811   5.132   4.375
71956ION    NA+40361  41.146  13.018   1.593
71957ION    NA+40362  39.516  19.644  14.947
71958ION    NA+40363  28.956   4.671   5.054
71959ION    NA+40364  18.028   3.434  11.423
71960ION    NA+40365  24.414  16.350   2.951
71961ION    NA+40366  22.524  43.614  14.516
71962ION    NA+40367  41.925   0.685  12.432
71963ION    NA+40368   9.618  25.502   0.929
71964ION    NA+40369   2.407  13.385   0.896
71965ION    NA+40370  31.085   0.627  14.604
71966ION    NA+40371  17.487  36.098   3.380
71967ION    NA+40372  27.472  38.680  12.809
71968ION    NA+40373  15.792   8.545  13.657
71969ION    NA+40374   2.190  37.111  13.495
71970ION    NA+40375  41.208  21.354   0.669
71971ION    NA+40376  12.823  11.840  13.611
71972ION    NA+40377  27.002  41.894  11.042
71973ION    NA+40378  44.407   2.692   1.955
71974ION    NA+40379  34.535  23.725   4.591
71975ION    NA+40380  20.004   8.248  12.195
71976ION    NA+40381  29.125   0.479   3.016
71977ION    NA+40382  19.500  30.226   3.743
71978ION    NA+40383   6.514  21.436  10.292
71979ION    NA+40384  23.202  41.502  11.629
71980ION    NA+40385  31.403   2.664  11.068
71981ION    NA+40386   0.159  26.143   1.488
71982ION    NA+40387  34.959   5.107  10.743
71983ION    NA+40388  28.395  20.250  13.832
71984ION    NA+40389  25.143  21.726  12.461
71985ION    NA+40390  36.972  43.752   1.761
71986ION    NA+40391  31.530  21.853   0.885
71987ION    NA+40392   9.137  33.072  14.390
71988ION    NA+40393  25.485  31.787  11.875
71989ION    NA+40394  42.497  26.510   3.795
71990ION    NA+40395  11.755  19.452  11.167
71991ION    NA+40396  17.448   1.357  12.572
71992ION    NA+40397  32.151  31.373  11.083
71993ION    NA+40398  17.679  16.838  10.787
71994ION    NA+40399   2.512  34.555   4.573
71995ION    NA+40400  15.605   9.127  14.448
71996ION    NA+40401  10.884  42.114   2.373
71997ION    NA+40402  35.331  41.858   2.077
71998ION    NA+40403  28.155  31.869   0.405
71999ION    NA+40404  13.182  12.313   2.878
72000ION    NA+40405  21.041  15.167  13.338
72001ION    NA+40406  11.887   5.369   3.597
72002ION    NA+40407   4.213   1.420  14.043
72003ION    NA+40408  37.313  17.882   2.156
72004ION    NA+40409   8.859  42.216   1.217
72005ION    NA+40410  18.325  18.924   4.264
72006ION    NA+40411   7.202  21.735   1.803
72007ION    NA+40412  15.907  28.903   3.469
72008ION    NA+40413  21.086  42.735   4.673
72009ION    NA+40414   7.607  26.501   1.550
72010ION    NA+40415   4.419  15.109  10.645
72011ION    NA+40416  31.566  10.422  10.412
72012ION    NA+40417  30.831  43.068  13.134
72013ION    NA+40418  27.994   9.346  13.695
72014ION    NA+40419   3.111  20.579  14.916
72015ION    NA+40420  44.530  40.714  14.471
72016ION    NA+40421  23.779  43.417  11.056
72017ION    NA+40422  10.910  23.906   1.217
72018ION    NA+40423  20.037   1.292   4.160
72019ION    NA+40424  10.546  18.867  13.383
72020ION    NA+40425  10.499   8.154  12.383
72021ION    NA+40426  20.721  33.488  14.246
72022ION    NA+40427  30.944   0.685  10.809
72023ION    NA+40428  44.348  11.795  11.356
72024ION    NA+40429  31.625   9.523   0.879
72025ION    NA+40430  30.668  38.575   1.286
72026ION    NA+40431  31.412  43.611   3.188
72027ION    NA+40432  42.438  24.326  12.311
72028ION    NA+40433  32.858  25.164   2.670
72029ION    NA+40434  31.179  42.033   0.196
72030ION    NA+40435  29.525  31.705  10.728
72031ION    NA+40436  16.452  24.415   1.736
72032ION    NA+40437   8.634  26.045   0.131
72033ION    NA+40438   4.700  18.585  12.857
72034ION    NA+40439   2.044  36.642   2.863
72035ION    NA+40440  16.522  40.768  10.345
72036ION    NA+40441  39.717  21.414  11.152
72037ION    NA+40442  17.538  14.331   3.107
72038ION    NA+40443  16.046  29.083   4.336
72039ION    NA+40444  29.118   8.178   4.108
72040ION    NA+40445  11.356  22.394   0.760
72041ION    NA+40446  38.043   5.465  12.421
72042ION    NA+40447  33.481  22.719   1.265
72043ION    NA+40448  40.567  28.144  10.253
72044ION    NA+40449  44.469  25.775  13.801
72045ION    NA+40450  27.653   2.330  11.114
72046ION    NA+40451  20.732  32.197  14.878
72047ION    NA+40452  40.000  11.385  13.940
72048ION    NA+40453  24.714  39.898  13.314
72049ION    NA+40454  41.380  44.008  13.602
72050ION    NA+40455  39.810  44.225  12.014
72051ION    NA+40456  35.453  11.524   3.146
72052ION    NA+40457   9.397  10.636  12.172
72053ION    NA+40458  11.502  37.924   4.713
72054ION    NA+40459  44.559  27.422   1.298
72055ION    NA+40460  17.962  33.676  14.218
72056ION    NA+40461  39.513  38.784   0.136
72057ION    NA+40462  22.134  14.839   2.395
72058ION    NA+40463  41.498  20.853   2.030
72059ION    NA+40464  12.834  40.508   2.234
72060ION    NA+40465  41.922  18.868  12.860
72061ION    NA+40466   3.319   3.216  13.774
72062ION    NA+40467  26.415  37.213   4.611
72063ION    NA+40468   2.346  18.123   3.402
72064ION    NA+40469  17.720  38.929  14.261
72065ION    NA+40470   1.497  12.673  13.046
72066ION    NA+40471  37.816  30.526   4.106
72067ION    NA+40472  22.730  36.697   2.205
72068ION    NA+40473  37.395  43.151   3.751
72069ION    NA+40474  19.300  31.203  11.699
72070ION    NA+40475   9.755  33.397   3.902
72071ION    NA+40476  44.152  20.203   4.059
72072ION    NA+40477  17.159  20.102  14.299
72073ION    NA+40478   1.634  39.986   0.848
72074ION    NA+40479  26.034  16.240   4.653
72075ION    NA+40480  21.043  23.959   1.132
72076ION    NA+40481  14.875  20.210  11.963
72077ION    NA+40482  31.095  12.944   0.044
72078ION    NA+40483  28.123  11.912  14.361
72079ION    NA+40484  19.256  13.711   2.821
72080ION    NA+40485  30.473  29.851  14.748
72081ION    NA+40486   2.423  40.912   2.663
72082ION    NA+40487  11.153  13.905   2.922
72083ION    NA+40488  26.150  28.962   0.375
72084ION    NA+40489  40.155  19.330   3.667
72085ION    NA+40490  30.769  44.794  14.799
72086ION    NA+40491   6.968  34.672   3.236
72087ION    NA+40492  19.021  41.533   4.550
72088ION    NA+40493  24.986  38.305   3.276
72089ION    NA+40494  26.182   2.726   2.265
72090ION    NA+40495  44.023  21.911  10.898
72091ION    NA+40496   7.943  35.200   2.183
72092ION    NA+40497  15.862  16.985  10.391
72093ION    NA+40498  14.655  28.113  14.452
72094ION    NA+40499  20.116  33.240  10.297
72095ION    NA+40500  42.133   1.960   2.315
72096ION    NA+40501  16.184  25.333   3.319
72097ION    NA+40502  31.089   0.249   3.825
72098ION    NA+40503  24.514  22.304  13.059
72099ION    NA+40504   2.718  42.460  12.005
72100ION    NA+40505   5.372  17.022   1.963
72101ION    NA+40506  24.504  19.439   4.457
72102ION    NA+40507  26.032  12.125   3.901
72103ION    NA+40508  18.951  35.537  13.780
72104ION    NA+40509  33.670  34.054   3.088
72105ION    NA+40510  33.464   5.608  13.117
72106ION    NA+40511  28.981  24.794  13.384
72107ION    NA+40512  26.171  16.735  12.797
72108ION    NA+40513  16.919   4.425  11.441
72109ION    NA+40514   4.795  19.581   0.327
72110ION    NA+40515  12.109  15.820  11.943
72111ION    NA+40516  37.603  33.923  11.708
72112ION    NA+40517   0.130  22.390  12.834
72113ION    NA+40518  13.015  31.254   0.713
72114ION    NA+40519  12.643  34.705  12.903
72115ION    NA+40520  25.864  33.277  11.451
72116ION    NA+40521  31.813   7.563  10.764
72117ION    NA+40522   6.155  26.590   9.935
72118ION    NA+40523  27.245  31.927   2.465
72119ION    NA+40524  20.709  38.340  13.143
72120ION    NA+40525  41.258  39.171   4.257
72121ION    NA+40526  38.187  42.439  11.130
72122ION    NA+40527  43.961  17.406  14.893
72123ION    NA+40528  31.110  22.964   2.285
72124ION    NA+40529   3.701  42.731  11.863
72125ION    NA+40530  33.555  28.212  13.433
72126ION    NA+40531  37.813  14.334   3.658
72127ION    NA+40532  34.860  12.643  12.556
72128ION    NA+40533  43.052  35.969  12.237
72129ION    NA+40534  17.018  36.911  10.999
72130ION    NA+40535   3.989  25.688  13.893
72131ION    NA+40536   2.359  36.076  12.592
72132ION    NA+40537  10.220  24.579   5.149
72133ION    NA+40538  27.633   2.745   1.192
72134ION    NA+40539  32.347  15.636  13.536
72135ION    NA+40540  28.918  27.681  14.048
72136ION    NA+40541  40.500   9.524   1.866
72137ION    NA+40542  20.022  42.727  14.910
72138ION    NA+40543   0.007  19.973  14.276
72139ION    NA+40544  11.786  42.089   2.453
72140ION    NA+40545  22.282  29.823  12.343
72141ION    NA+40546  24.542  39.834   4.408
72142ION    NA+40547  25.191  25.660  10.942
72143ION    NA+40548  29.870  12.022  11.053
72144ION    NA+40549   8.118   8.496   3.278
72145ION    NA+40550   8.172  32.093   1.978
72146ION    NA+40551  33.767  17.744   2.575
72147ION    NA+40552   2.405  42.891   4.597
72148ION    NA+40553  31.186  10.449   2.325
72149ION    NA+40554  43.491   7.496   2.266
72150ION    NA+40555  25.452  18.484  13.039
72151ION    NA+40556  42.992  31.361   4.096
72152ION    NA+40557   0.750  31.824   3.165
72153ION    NA+40558  28.564  10.895  11.978
72154ION    NA+40559   2.904  38.937   0.485
72155ION    NA+40560  27.401  37.241   4.447
72156ION    NA+40561  17.160  31.291  12.077
72157ION    NA+40562  29.576   1.460   0.520
72158ION    NA+40563   2.904  11.339   1.810
72159ION    NA+40564  16.682  15.162   1.446
72160ION    NA+40565  30.990  26.724   4.516
72161ION    NA+40566  23.791   9.892  14.384
72162ION    NA+40567  33.588  42.471   4.317
72163ION    NA+40568   3.432  32.151  11.366
72164ION    NA+40569  31.330  18.804  13.129
72165ION    NA+40570  19.725  15.153   4.033
72166ION    NA+40571  35.966  35.143   1.613
72167ION    NA+40572   5.974   5.139  12.098
72168ION    NA+40573  25.317  24.523   3.544
72169ION    NA+40574  11.820  23.568  10.800
72170ION    NA+40575  10.714  13.351  12.167
72171ION    NA+40576  18.900  27.102   2.843
72172ION    NA+40577  44.318  36.882  11.360
72173ION    NA+40578   6.227  37.478  11.080
72174ION    NA+40579  17.141  11.452   0.957
72175ION    NA+40580   6.797  18.961   3.812
72176ION    NA+40581  31.287   8.796  14.428
72177ION    NA+40582  29.607  44.272   1.944
72178ION    NA+40583   7.928  39.936  14.678
72179ION    NA+40584   1.277  44.737  11.142
72180ION    NA+40585   6.233  20.415  10.221
72181ION    NA+40586  42.946  28.264  14.067
72182ION    NA+40587  30.770  41.319   1.656
72183ION    NA+40588  12.220  11.857   1.614
72184ION    NA+40589  16.647  23.295   2.011
72185ION    NA+40590   9.109  24.981  14.098
72186ION    NA+40591   1.725  33.944  11.615
72187ION    NA+40592  43.191   5.889  14.921
72188ION    NA+40593  18.169  34.291  13.434
72189ION    NA+40594  27.222  11.503  14.221
72190ION    NA+40595  40.790  17.651   2.880
72191ION    NA+40596   9.629  10.652  10.896
72192ION    NA+40597  31.549   4.293  14.002
72193ION    NA+40598  35.032  15.295   4.560
72194ION    NA+40599  20.181   7.759   0.386
72195ION    NA+40600  30.028   1.865  14.392
72196ION    NA+40601  27.816  39.422  13.191
72197ION    NA+40602  29.597  39.765  13.492
72198ION    NA+40603  22.211  29.527  14.478
72199ION    NA+40604  38.683  12.408   0.811
72200ION    NA+40605  21.032   5.137  11.814
72201ION    NA+40606  13.828   2.422  11.799
72202ION    NA+40607  42.283  35.597  12.582
72203ION    NA+40608  24.776  27.070  13.156
72204ION    NA+40609   7.410   8.777  14.425
72205ION    NA+40610  14.053  32.625   3.391
72206ION    NA+40611  34.654  33.081   0.975
72207ION    NA+40612  22.348  37.700   0.521
72208ION    NA+40613  15.629  14.555   1.896
72209ION    NA+40614  10.715  20.498  13.958
72210ION    NA+40615   9.166  12.900  14.249
72211ION    NA+40616   6.088  22.283  11.169
72212ION    NA+40617  14.863  41.769  13.585
72213ION    NA+40618  12.897  23.426   0.134
72214ION    NA+40619  35.183  25.763   4.690
72215ION    NA+40620  20.658   8.342  11.046
72216ION    NA+40621  11.269  21.884   1.406
72217ION    NA+40622   2.454  38.749  13.424
72218ION    NA+40623  34.836  35.581  13.244
72219ION    NA+40624   2.061  39.440   3.514
72220ION    NA+40625  39.163  36.380  12.280
72221ION    NA+40626   7.864  11.283  13.698
72222ION    NA+40627  20.067  36.073   1.971
72223ION    NA+40628   4.080  24.749   1.136
72224ION    NA+40629  27.020  43.825  13.495
72225ION    NA+40630  43.363  13.755  13.402
72226ION    NA+40631   0.005  32.417   0.943
72227ION    NA+40632  12.026  32.210   1.179
72228ION    NA+40633   2.826  41.316  13.096
72229ION    NA+40634  33.341  22.285  10.937
72230ION    NA+40635  12.926  32.753  14.501
72231ION    NA+40636  23.751  12.535  14.134
72232ION    NA+40637   9.392  32.085  14.054
72233ION    NA+40638  23.249  15.878   3.158
72234ION    NA+40639  20.472  42.043  13.335
72235ION    NA+40640  39.277  35.462  13.871
72236ION    NA+40641  36.576  13.271   1.300
72237ION    NA+40642  37.015  35.457   3.567
72238ION    NA+40643   2.225  21.173  14.475
72239ION    NA+40644  26.533  30.179  14.775
72240ION    NA+40645  22.939  16.885   0.767
72241ION    NA+40646  21.099  42.622  13.051
72242ION    NA+40647  44.795  33.477  13.546
72243ION    NA+40648  30.059  33.025   1.998
72244ION    NA+40649  43.024  20.669   2.193
72245ION    NA+40650   0.773  11.756   2.614
72246ION    NA+40651  35.156  12.099   1.382
72247ION    NA+40652  14.676  37.935   4.215
72248ION    NA+40653  34.091  10.104  11.061
72249ION    NA+40654  10.240  32.833   3.234
72250ION    NA+40655  12.596   5.753  11.620
72251ION    NA+40656  31.968   4.576   2.119
72252ION    NA+40657  22.550  42.386   4.156
72253ION    NA+40658  19.822  14.145  11.792
72254ION    NA+40659  22.214  16.123   2.038
72255ION    NA+40660   5.975   4.191   1.769
72256ION    NA+40661  35.862  19.228  13.287
72257ION    NA+40662   7.059  11.227  12.751
72258ION    NA+40663  22.897  18.732  13.038
72259ION    NA+40664   9.866  30.435  11.153
72260ION    NA+40665  19.217  20.650  11.510
72261ION    NA+40666   3.636   4.740  14.815
72262ION    NA+40667  36.457  39.353  10.360
72263ION    NA+40668   6.838  14.822  10.642
72264ION    NA+40669  26.502  33.913  13.868
72265ION    NA+40670  39.914  10.676  10.462
72266ION    NA+40671   8.382  26.347  11.506
72267ION    NA+40672  28.455  23.130  12.693
72268ION    NA+40673  35.563  22.407   3.287
72269ION    NA+40674   7.402  43.965  10.575
72270ION    NA+40675  17.108  39.367   2.829
72271ION    NA+40676   6.220   0.958  14.841
72272ION    NA+40677  22.693  44.313   1.011
72273ION    NA+40678  30.914   2.611   4.927
72274ION    NA+40679   5.278  29.189  12.970
72275ION    NA+40680  25.924  25.999   1.989
72276ION    NA+40681  21.286  20.032   2.871
72277ION    NA+40682  34.509   2.762   3.453
72278ION    NA+40683   4.558   5.202   2.414
72279ION    NA+40684  31.543  22.408   4.675
72280ION    NA+40685  42.605  40.567  10.745
72281ION    NA+40686  10.611  30.789  10.586
72282ION    NA+40687  20.158  37.097  12.611
72283ION    NA+40688  27.628  36.026   2.362
72284ION    NA+40689   8.873   8.442  11.046
72285ION    NA+40690  14.378  27.499  12.307
72286ION    NA+40691  41.795  24.048  14.837
72287ION    NA+40692   4.780  44.535  14.825
72288ION    NA+40693  25.365  21.117   2.786
72289ION    NA+40694  29.624   6.637  11.926
72290ION    NA+40695  25.059   6.427  10.479
72291ION    NA+40696  24.321  41.003   5.001
72292ION    NA+40697   2.303   9.681   3.242
72293ION    NA+40698  44.201  18.576   3.555
72294ION    NA+40699  23.484  32.614  11.240
72295ION    NA+40700   5.858   2.717  13.451
72296ION    NA+40701  39.077   7.450  13.084
72297ION    NA+40702  21.236  10.345  11.984
72298ION    NA+40703  44.568   7.814   3.933
72299ION    NA+40704  39.551  16.496  13.990
72300ION    NA+40705  22.598  11.798  12.238
72301ION    NA+40706   2.242   9.126   1.506
72302ION    NA+40707   3.641  13.960  13.509
72303ION    NA+40708  31.504   2.249   0.864
72304ION    NA+40709   2.385  23.822  13.401
72305ION    NA+40710  33.053  10.229   1.423
72306ION    NA+40711  32.675  28.563  12.246
72307ION    NA+40712  13.581   2.494   5.484
72308ION    NA+40713  12.304  43.312  12.546
72309ION    NA+40714  11.591  10.779  11.681
72310ION    NA+40715  19.826   2.232  13.373
72311ION    NA+40716  11.460  24.059  14.815
72312ION    NA+40717  23.238  30.153  13.239
72313ION    NA+40718  25.662  26.149  11.695
72314ION    NA+40719   4.847   4.743   1.505
72315ION    NA+40720  15.167  38.079   2.457
72316ION    NA+40721   8.045  11.485  12.735
72317ION    NA+40722  14.896  28.280  12.727
72318ION    NA+40723  37.129   3.727   4.246
72319ION    NA+40724   9.966  25.532  11.503
72320ION    NA+40725  22.195   2.670   1.525
72321ION    NA+40726   5.427  11.164  10.671
72322ION    NA+40727   3.195  26.531   2.766
72323ION    NA+40728  44.211  16.776   3.816
72324ION    NA+40729  36.805  17.349   3.475
72325ION    NA+40730   7.731  37.528  11.048
72326ION    NA+40731  39.031  42.186  11.682
72327ION    NA+40732  22.623  16.288  10.611
72328ION    NA+40733   8.120  19.323   2.256
72329ION    NA+40734  20.291  32.948   2.530
72330ION    NA+40735  23.294  40.803  12.543
72331ION    NA+40736   6.783  20.454  12.121
72332ION    NA+40737  32.014  28.566  10.784
72333ION    NA+40738  40.325   4.547  14.773
72334ION    NA+40739   0.310   1.453   0.830
72335ION    NA+40740  24.162  24.219  11.553
72336ION    NA+40741   1.821   4.725  10.297
72337ION    NA+40742  31.462  24.330  14.859
72338ION    NA+40743  24.479  27.793   4.160
72339ION    NA+40744  25.567  32.402  12.869
72340ION    NA+40745  22.918   8.861   2.517
72341ION    NA+40746  18.559  38.832   9.877
72342ION    NA+40747  40.199  23.998   1.337
72343ION    NA+40748  43.672  33.176   4.473
72344ION    NA+40749  26.734  23.067  11.853
72345ION    NA+40750  44.877  44.423  14.267
72346ION    NA+40751  33.238  29.585   3.466
72347ION    NA+40752  29.552  24.041   3.273
72348ION    NA+40753  11.043  44.753  14.574
72349ION    NA+40754  41.200  32.642  11.206
72350ION    NA+40755  21.457   9.888  10.688
72351ION    NA+40756  13.167   7.262   0.177
72352ION    NA+40757   5.764  25.004   0.375
72353ION    NA+40758  17.195  12.819  12.126
72354ION    NA+40759   9.442   9.219   1.546
72355ION    NA+40760  18.862  25.144   0.941
72356ION    NA+40761  41.632   2.963  12.458
72357ION    NA+40762  39.076   6.343   0.923
72358ION    NA+40763  41.534  27.171  12.110
72359ION    NA+40764  43.932  35.190  13.951
72360ION    NA+40765  43.559  12.758  11.404
72361ION    NA+40766  17.202   1.163   0.663
72362ION    NA+40767  28.709  42.967  12.692
72363ION    NA+40768  26.554  32.492   0.389
72364ION    NA+40769  44.371   4.853   1.792
72365ION    NA+40770   9.654  31.315   4.736
72366ION    NA+40771  42.450   1.676  13.667
72367ION    NA+40772   1.940  44.771   2.423
72368ION    NA+40773  24.507   6.731  12.068
72369ION    NA+40774  13.014   4.408  10.786
72370ION    NA+40775  17.215  24.232  14.215
72371ION    NA+40776  25.808  36.638  11.269
72372ION    NA+40777  36.592   3.917   5.132
72373ION    NA+40778  25.728  30.962   9.845
72374ION    NA+40779  23.385  11.340   3.526
72375ION    NA+40780  42.718  22.498   4.191
72376ION    NA+40781  36.616   4.966   2.319
72377ION    NA+40782  24.883  12.263   1.829
72378ION    NA+40783  26.669  44.892  12.279
72379ION    NA+40784  38.109   7.180  12.974
72380ION    NA+40785   5.871   0.469  10.563
72381ION    NA+40786  41.108   8.732   4.409
72382ION    NA+40787  31.639   3.651   2.431
72383ION    NA+40788  37.529  41.278   3.605
72384ION    NA+40789   7.688  12.095  12.028
72385ION    NA+40790  43.834   5.978  11.665
72386ION    NA+40791  12.864  24.255   2.117
72387ION    NA+40792  20.820  33.141   0.228
72388ION    NA+40793  44.462  41.161   4.736
72389ION    NA+40794  23.393  19.222   1.030
72390ION    NA+40795  15.454   7.680  10.327
72391ION    NA+40796  11.416  34.596  14.827
72392ION    NA+40797  42.322  42.912  14.410
72393ION    NA+40798   4.388  33.183  14.440
72394ION    NA+40799   2.358  24.582  10.740
72395ION    NA+40800   4.997  17.570  12.056
72396ION    NA+40801  11.935  32.324   3.318
72397ION    NA+40802  29.413  37.501  13.584
72398ION    NA+40803   0.837  33.521  13.275
72399ION    NA+40804  34.147  13.055  13.383
72400ION    NA+40805  14.311   7.056  14.228
72401ION    NA+40806  30.453  18.068   2.970
72402ION    NA+40807  26.492   8.335   9.791
72403ION    NA+40808  41.990  33.179   3.800
72404ION    NA+40809  44.764  33.902   4.626
72405ION    NA+40810  10.625  35.045  10.586
72406ION    NA+40811  39.234  27.449   9.846
72407ION    NA+40812  44.253  15.253  11.647
72408ION    NA+40813   4.301  29.851  10.348
72409ION    NA+40814   6.718  40.685   2.916
72410ION    NA+40815  10.117  26.694   4.362
72411ION    NA+40816  37.445  27.480  11.179
72412ION    NA+40817  42.749  39.106  12.567
72413ION    NA+40818  16.741  39.651  14.572
72414ION    NA+40819  28.910  31.438   3.369
72415ION    NA+40820  35.577  10.324  12.503
72416ION    NA+40821  31.398  38.135   3.154
72417ION    NA+40822  21.533  36.713   2.321
72418ION    NA+40823  12.582   2.048  11.371
72419ION    NA+40824   6.763  39.061  13.723
72420ION    NA+40825  11.344   7.847   4.749
72421ION    NA+40826   5.419  20.339  10.796
72422ION    NA+40827   3.855   7.259  12.630
72423ION    NA+40828  40.954  19.431   1.741
72424ION    NA+40829  42.177   0.683  13.404
72425ION    NA+40830  44.446  38.782   1.416
72426ION    NA+40831  30.094   6.322  14.520
72427ION    NA+40832  37.327  36.074  11.188
72428ION    NA+40833  22.708  10.867  14.420
72429ION    NA+40834  15.616  18.096  12.976
72430ION    NA+40835  21.675  14.599   1.256
72431ION    NA+40836  44.515   3.686   1.994
72432ION    NA+40837  15.290  32.827   4.575
72433ION    NA+40838  36.630  37.245   1.485
72434ION    NA+40839  43.289  44.709  11.101
72435ION    NA+40840  27.938   3.442  13.437
72436ION    NA+40841  16.539  22.988   1.158
72437ION    NA+40842  25.740  33.847  10.814
72438ION    NA+40843   8.593  20.603   1.395
72439ION    NA+40844   9.200  33.016   0.387
72440ION    NA+40845   0.282  27.173   2.986
72441ION    NA+40846  13.718  38.575  13.568
72442ION    NA+40847  43.781  10.891  12.862
72443ION    NA+40848  10.324   1.973  12.057
72444ION    NA+40849  28.974  38.508   3.030
72445ION    NA+40850  27.954  44.576  13.150
72446ION    NA+40851  36.275   8.836   9.722
72447ION    NA+40852  41.845  19.613  12.198
72448ION    NA+40853  23.458  13.427  13.699
72449ION    NA+40854   7.418  25.243  11.565
72450ION    NA+40855  32.876  29.762   2.234
72451ION    NA+40856   1.287   4.799  14.426
72452ION    NA+40857  15.444  24.856   0.742
72453ION    NA+40858  42.527  39.861   1.881
72454ION    NA+40859  22.070   6.747   4.644
72455ION    NA+40860  12.398  39.538  14.667
72456ION    NA+40861  34.113  39.509  12.572
72457ION    NA+40862   4.855  34.777  13.568
72458ION    NA+40863   0.392  18.467  11.515
72459ION    NA+40864   1.224  10.072   0.980
72460ION    NA+40865  17.520  22.569  13.143
72461ION    NA+40866  12.543   3.394  11.478
72462ION    NA+40867  26.243  35.277  14.164
72463ION    NA+40868  25.405  10.543   0.538
72464ION    NA+40869  16.571  23.477  12.905
72465ION    NA+40870   1.867  32.829  12.411
72466ION    NA+40871   2.000  32.927   4.640
72467ION    NA+40872  19.595   2.567   4.102
72468ION    NA+40873  41.988  23.560  11.096
72469ION    NA+40874   6.434   3.372  13.941
72470ION    NA+40875  21.361  12.822   0.250
72471ION    NA+40876   6.621  23.312  13.116
72472ION    NA+40877   1.871  19.683  12.833
72473ION    NA+40878   3.138  19.333  12.529
72474ION    NA+40879  11.725  11.259  13.308
72475ION    NA+40880  23.425   1.044   1.263
72476ION    NA+40881  19.250  31.957   4.029
72477ION    NA+40882  19.119  30.068   0.501
72478ION    NA+40883  25.418  36.513   1.703
72479ION    NA+40884  16.923  16.271  11.171
72480ION    NA+40885  30.448   3.759  13.487
72481ION    NA+40886  36.811   1.158  13.852
72482ION    NA+40887   8.288  11.526   4.833
72483ION    NA+40888  41.745  11.640   4.436
72484ION    NA+40889  15.223  24.493  13.503
72485ION    NA+40890   3.274  22.432   0.132
72486ION    NA+40891  13.860  27.854   4.933
72487ION    NA+40892  19.511  27.725  11.578
72488ION    NA+40893  37.592  14.662   0.339
72489ION    NA+40894  19.866  23.740   3.815
72490ION    NA+40895  41.869  35.606   1.209
72491ION    NA+40896   6.684   1.269   3.150
72492ION    NA+40897  14.216  12.907   4.871
72493ION    NA+40898   1.224  15.848  13.327
72494ION    NA+40899  17.142  12.488   3.885
72495ION    NA+40900  30.624  19.506   2.888
72496ION    NA+40901  25.965  43.183   3.609
72497ION    NA+40902  17.980  15.060  13.928
72498ION    NA+40903  29.541  19.477  11.120
72499ION    NA+40904  33.480  29.160  13.741
72500ION    NA+40905   2.507  37.601  12.531
72501ION    NA+40906   7.794  36.573   3.735
72502ION    NA+40907  19.671  17.950   4.685
72503ION    NA+40908   3.157   4.067   4.698
72504ION    NA+40909  44.851   7.465   0.942
72505ION    NA+40910  16.712  19.659   4.106
72506ION    NA+40911  12.224  27.984  14.257
72507ION    NA+40912  22.656  35.739   2.519
72508ION    NA+40913   1.018  40.875  12.592
72509ION    NA+40914  41.898  35.112  11.231
72510ION    NA+40915  22.622   8.672  13.445
72511ION    NA+40916  42.226  15.338   2.334
72512ION    NA+40917  10.985  42.166  12.829
72513ION    NA+40918  44.823  20.828   2.039
72514ION    NA+40919  23.427  17.934  12.752
72515ION    NA+40920   7.805  44.241  13.496
72516ION    NA+40921  43.661  38.248   2.988
72517ION    NA+40922  36.935  18.272   4.502
72518ION    NA+40923  28.220  38.890   5.414
72519ION    NA+40924  34.587  37.856  14.939
72520ION    NA+40925  18.467  12.817   0.101
72521ION    NA+40926  11.411  29.445  11.370
72522ION    NA+40927  29.290  24.573   2.154
72523ION    NA+40928  34.006  18.256   3.400
72524ION    NA+40929   9.540  17.602   3.369
72525ION    NA+40930  23.095  21.553   1.314
72526ION    NA+40931  28.574  36.649   2.103
72527ION    NA+40932   4.240  26.917  12.991
72528ION    NA+40933  29.479  32.129   2.883
72529ION    NA+40934  22.731   1.796  10.381
72530ION    NA+40935  12.711  43.355   0.476
72531ION    NA+40936  17.961  28.239   3.152
72532ION    NA+40937  35.068  38.070   4.097
72533ION    NA+40938  34.928  13.907   1.538
72534ION    NA+40939  22.934  31.505  10.766
72535ION    NA+40940  39.372  25.824  12.507
72536ION    NA+40941  11.397  30.035  10.395
72537ION    NA+40942  43.298  44.598   4.697
72538ION    NA+40943   0.357  13.886  13.797
72539ION    NA+40944  24.693  23.867  14.423
72540ION    NA+40945  23.091  10.594   0.303
72541ION    NA+40946  18.634  18.258  11.234
72542ION    NA+40947  17.004  12.995   0.660
72543ION    NA+40948  35.955  18.354  13.850
72544ION    NA+40949  23.177  16.734   3.708
72545ION    NA+40950  10.483  10.730   4.121
72546ION    NA+40951  11.583  32.997  13.485
72547ION    NA+40952  19.703  36.645  10.841
72548ION    NA+40953   6.799  29.974   3.097
72549ION    NA+40954  37.816   6.573   4.734
72550ION    NA+40955  13.636  12.902  11.576
72551ION    NA+40956  12.766  34.473   4.483
72552ION    NA+40957  27.068  42.294   3.125
72553ION    NA+40958  19.624  24.545   0.111
72554ION    NA+40959  17.871  25.552  11.206
72555ION    NA+40960  12.255   0.657   4.085
72556ION    NA+40961  17.028  44.745  13.301
72557ION    NA+40962  39.377   2.964   4.502
72558ION    NA+40963   6.717  18.535  10.132
72559ION    NA+40964  23.642  28.551   3.356
72560ION    NA+40965  25.619  31.271  11.146
72561ION    NA+40966  23.680  12.853   1.426
72562ION    NA+40967  39.945  30.624  13.425
72563ION    NA+40968   7.785  34.473   2.863
72564ION    NA+40969  37.470   6.726  11.466
72565ION    NA+40970  25.811  19.981   3.397
72566ION    NA+40971  39.777  11.225  11.287
72567ION    NA+40972  24.011  28.529   4.286
72568ION    NA+40973  32.789   2.950   0.827
72569ION    NA+40974  10.651  10.920   0.266
72570ION    NA+40975  12.411  25.422  14.509
72571ION    NA+40976   7.964   7.093   3.207
72572ION    NA+40977   0.531  26.783   2.095
72573ION    NA+40978  21.450  42.566   3.865
72574ION    NA+40979  20.745   8.241   1.921
72575ION    NA+40980  22.998  37.243  12.152
72576ION    NA+40981  24.080  35.059   5.060
72577ION    NA+40982   5.704  35.110  13.158
72578ION    NA+40983  27.531  37.726  13.206
72579ION    NA+40984  11.846  38.232  13.676
72580ION    NA+40985  40.968  26.415   3.556
72581ION    NA+40986  28.167  40.479   2.366
72582ION    NA+40987   9.910  27.844   9.976
72583ION    NA+40988  36.163  10.363  10.328
72584ION    NA+40989  42.207  22.013   0.420
72585ION    NA+40990  40.487  10.434   1.924
72586ION    NA+40991  31.133  42.616  11.597
72587ION    NA+40992  43.052  10.682   3.698
72588ION    NA+40993  17.100   3.092   1.747
72589ION    NA+40994  31.592  37.447   3.756
72590ION    NA+40995  33.189  15.010   0.982
72591ION    NA+40996  44.198  24.266  12.495
72592ION    NA+40997  30.752  24.356   3.762
72593ION    NA+40998   4.553   9.942  12.601
72594ION    NA+40999  32.557   1.466   0.484
72595ION    NA+41000   7.566   0.651  12.458
72596ION    NA+41001   4.490  36.982   3.711
72597ION    NA+41002   8.635   2.661   0.369
72598ION    NA+41003  19.154   0.543   2.817
72599ION    NA+41004  40.425   1.571   3.025
72600ION    NA+41005  19.912  39.122   2.521
72601ION    NA+41006  19.533   9.044   0.500
72602ION    NA+41007  24.665   4.519   2.317
72603ION    NA+41008  43.277  43.769   0.076
72604ION    NA+41009  44.069  21.267  14.272
72605ION    NA+41010  10.693  39.342  11.397
72606ION    NA+41011  12.015  26.467   3.626
72607ION    NA+41012   5.514   1.216   0.990
72608ION    NA+41013  42.732  23.222   1.412
72609ION    NA+41014   8.717  20.842  13.843
72610ION    NA+41015  24.009  35.359  10.906
72611ION    NA+41016  26.417   8.113   3.061
72612ION    NA+41017  13.128   6.742  12.942
72613ION    NA+41018   7.315  23.485  14.693
72614ION    NA+41019  31.104  32.554  12.335
72615ION    NA+41020  33.328   7.632  13.876
72616ION    NA+41021  14.117  19.829   1.771
72617ION    NA+41022  33.367  16.102   1.244
72618ION    NA+41023  43.140  20.129   4.169
72619ION    NA+41024  13.346  15.411  14.268
72620ION    NA+41025   9.610   2.413   0.245
72621ION    NA+41026  18.636  38.837   0.659
72622ION    NA+41027  44.446  10.993  11.733
72623ION    NA+41028  18.620   3.271   4.622
72624ION    NA+41029  26.705   1.667   2.041
72625ION    NA+41030  32.562  37.125  13.907
72626ION    NA+41031  18.132  21.777  12.358
72627ION    NA+41032   4.908  35.417  14.386
72628ION    NA+41033  26.907  36.963  12.925
72629ION    NA+41034  32.322  33.560   3.643
72630ION    NA+41035  25.303  18.194  12.094
72631ION    NA+41036   0.546  29.416   0.425
72632ION    NA+41037  10.222  38.723  13.134
72633ION    NA+41038  17.258  31.534  10.721
72634ION    NA+41039   5.874  32.726   0.308
72635ION    NA+41040   5.592  25.958  10.758
72636ION    NA+41041  10.381  16.672   2.257
72637ION    NA+41042   1.764   2.600   3.919
72638ION    NA+41043  26.150  12.268  12.958
72639ION    NA+41044  21.548  31.069  12.289
72640ION    NA+41045  12.223  43.905   0.979
72641ION    NA+41046   2.079   5.779   3.219
72642ION    NA+41047  10.647  32.954   4.139
72643ION    NA+41048  14.772  26.602  12.062
72644ION    NA+41049   9.708  30.208   1.991
72645ION    NA+41050   4.016   1.483   0.935
72646ION    NA+41051  11.597  31.203  12.821
72647ION    NA+41052   4.400   9.687  11.078
72648ION    NA+41053  21.067  36.966  11.601
72649ION    NA+41054  43.260  29.179  13.002
72650ION    NA+41055  30.273  14.881   4.117
72651ION    NA+41056  23.801  19.430  11.247
72652ION    NA+41057  23.231  26.764   1.828
72653ION    NA+41058  24.803  22.546  14.492
72654ION    NA+41059  37.104  38.506  12.172
72655ION    NA+41060  42.394  14.105  12.246
72656ION    NA+41061  18.793   3.578   0.757
72657ION    NA+41062  13.494  27.990  12.684
72658ION    NA+41063  41.492  44.193   1.055
72659ION    NA+41064  13.798  43.837   2.392
72660ION    NA+41065  19.825  15.572   5.313
72661ION    NA+41066  13.923  37.870  11.714
72662ION    NA+41067  24.558  34.880   0.797
72663ION    NA+41068  26.603  20.182   0.478
72664ION    NA+41069  43.040  29.461  11.263
72665ION    NA+41070   5.335  25.851   3.577
72666ION    NA+41071   4.220  36.759  12.528
72667ION    NA+41072   1.819  39.145   1.700
72668ION    NA+41073  28.751  41.956   9.741
72669ION    NA+41074  13.629  17.105   0.681
72670ION    NA+41075  42.754  29.163   3.618
72671ION    NA+41076  26.859  13.728   5.387
72672ION    NA+41077  32.505  29.062   1.802
72673ION    NA+41078  36.435  20.666   1.600
72674ION    NA+41079   5.807  42.309   0.314
72675ION    NA+41080  33.062  17.742   0.250
72676ION    NA+41081   9.974  13.510   5.385
72677ION    NA+41082  24.784   7.270   1.547
72678ION    NA+41083  37.745  32.021  12.267
72679ION    NA+41084  24.620  18.777  11.543
72680ION    NA+41085  41.746   2.550   0.496
72681ION    NA+41086   8.429  44.455  14.857
72682ION    NA+41087  43.012  24.060   4.072
72683ION    NA+41088  30.877  34.171   2.339
72684ION    NA+41089  44.689  41.296   3.486
72685ION    NA+41090  15.692  36.675   5.018
72686ION    NA+41091  15.295  28.220   4.796
72687ION    NA+41092   5.074  41.976   4.695
72688ION    NA+41093  21.088  43.100   1.411
72689ION    NA+41094  12.891  34.916  14.576
72690ION    NA+41095  19.261   7.570  12.993
72691ION    NA+41096  36.971  25.172  14.187
72692ION    NA+41097  40.091   7.923  12.110
72693ION    NA+41098  15.575  19.853   3.470
72694ION    NA+41099   0.800   9.400  14.368
72695ION    NA+41100   5.475   9.770   1.259
72696ION    NA+41101   0.433  16.994   4.028
72697ION    NA+41102   9.562   8.419  14.999
72698ION    NA+41103  37.541  42.278   3.618
72699ION    NA+41104   2.855  22.078   1.762
72700ION    NA+41105  11.212   5.852  13.359
72701ION    NA+41106  20.670  11.187   4.806
72702ION    NA+41107  32.499  21.671  11.490
72703ION    NA+41108   8.499  39.541   1.593
72704ION    NA+41109  25.406  15.187   2.562
72705ION    NA+41110  20.556  16.544   3.079
72706ION    NA+41111  38.709   0.739  12.708
72707ION    NA+41112   2.147  25.285   4.591
72708ION    NA+41113  35.485  41.950  10.692
72709ION    NA+41114   3.167  25.603  13.112
72710ION    NA+41115   9.550  12.893  13.304
72711ION    NA+41116  35.908   7.907   3.158
72712ION    NA+41117  43.281  41.435   3.269
72713ION    NA+41118  37.501  32.789  10.884
72714ION    NA+41119  29.259  40.837  12.826
72715ION    NA+41120  17.683  23.502   1.913
72716ION    NA+41121  25.116  20.952  10.677
72717ION    NA+41122  22.108   3.128   2.914
72718ION    NA+41123  44.723  30.239  12.058
72719ION    NA+41124  29.594  44.949  12.120
72720ION    NA+41125  39.045  40.247  11.554
72721ION    NA+41126  16.313  39.379   1.675
72722ION    NA+41127  10.507  31.991   3.357
72723ION    NA+41128  20.426  19.598   4.295
72724ION    NA+41129  26.664  16.773   0.909
72725ION    NA+41130  35.961  42.651  12.739
72726ION    NA+41131  21.301  38.396  11.353
72727ION    NA+41132   4.497  22.370  13.109
72728ION    NA+41133  42.866  27.384   1.786
72729ION    NA+41134  42.353   1.742   3.271
72730ION    NA+41135  43.669  31.062   3.085
72731ION    NA+41136   8.129  30.123  14.949
72732ION    NA+41137  35.641  40.687   2.231
72733ION    NA+41138  21.472   9.472   1.693
72734ION    NA+41139  12.234  19.296  13.345
72735ION    NA+41140  42.523  34.945   3.679
72736ION    NA+41141  25.112   9.945   3.266
72737ION    NA+41142  44.690  15.072   4.719
72738ION    NA+41143  21.513  12.518   1.989
72739ION    NA+41144   4.760  17.613   2.489
72740ION    NA+41145  18.441  17.480  13.340
72741ION    NA+41146   8.886  11.101   3.011
72742ION    NA+41147  18.258  20.946  12.666
72743ION    NA+41148   7.344  21.027   0.456
72744ION    NA+41149  14.777  33.848  12.697
72745ION    NA+41150   7.969   1.340   0.362
72746ION    NA+41151   6.328  35.332   4.282
72747ION    NA+41152  18.528  18.193  10.216
72748ION    NA+41153   7.785  38.105   4.839
72749ION    NA+41154  28.440   5.763  11.588
72750ION    NA+41155   7.161  26.983  14.497
72751ION    NA+41156  10.881  31.627  11.385
72752ION    NA+41157   2.979  35.498  13.734
72753ION    NA+41158  25.327  25.949   3.211
72754ION    NA+41159   3.732  18.103  13.380
72755ION    NA+41160   4.858  41.530   1.146
72756ION    NA+41161  24.501  31.145  14.502
72757ION    NA+41162  19.347   0.184   0.640
72758ION    NA+41163  15.183  19.196  13.649
72759ION    NA+41164  35.828  29.097  11.006
72760ION    NA+41165  34.117  41.055  14.831
72761ION    NA+41166  27.835  27.600  12.883
72762ION    NA+41167  31.235  41.971   3.801
72763ION    NA+41168  13.534   9.241  11.900
72764ION    NA+41169  34.924  14.294  13.344
72765ION    NA+41170   5.991  43.338   2.190
72766ION    NA+41171  22.625  23.080   1.071
72767ION    NA+41172  12.242  27.373   1.462
72768ION    NA+41173  17.597  21.527  14.580
72769ION    NA+41174  11.113  27.161   2.805
72770ION    NA+41175  44.941  42.133  12.059
72771ION    NA+41176  35.320  42.519  11.983
72772ION    NA+41177  25.967  33.429   2.758
72773ION    NA+41178   8.592   6.059   1.284
72774ION    NA+41179  41.465  14.713   2.150
72775ION    NA+41180  43.349  24.212  14.992
72776ION    NA+41181  32.821  44.492  13.568
72777ION    NA+41182   6.909   3.079   5.084
72778ION    NA+41183  38.758  31.304  14.176
72779ION    NA+41184  39.429  23.852   2.361
72780ION    NA+41185  28.745   6.509   4.943
72781ION    NA+41186   1.257  21.259  12.391
72782ION    NA+41187   3.773  21.747  11.146
72783ION    NA+41188  40.563  25.130   2.813
72784ION    NA+41189  28.934   0.563  14.715
72785ION    NA+41190  26.979  41.616  12.038
72786ION    NA+41191   3.849  32.147   2.467
72787ION    NA+41192   5.759   2.009   0.254
72788ION    NA+41193   9.430   4.096  14.487
72789ION    NA+41194  28.178  23.922   1.708
72790ION    NA+41195  23.992   8.692  14.809
72791ION    NA+41196  34.586  35.196  14.659
72792ION    NA+41197  41.460  44.744  10.377
72793ION    NA+41198  19.058  26.414   2.258
72794ION    NA+41199   7.577  39.630  10.994
72795ION    NA+41200  15.364  11.835  11.620
72796ION    NA+41201  15.411   3.989  11.122
72797ION    NA+41202  22.215  28.969   0.741
72798ION    NA+41203   8.308  42.875   2.886
72799ION    NA+41204  42.838   3.608  13.149
72800ION    NA+41205  22.329   8.696  11.957
72801ION    NA+41206  19.906   3.979   1.563
72802ION    NA+41207  44.127  41.522  11.174
72803ION    NA+41208   9.461  18.765   4.996
72804ION    NA+41209  31.214  41.211   0.766
72805ION    NA+41210  43.042  20.902  10.264
72806ION    NA+41211  10.735  40.638   0.359
72807ION    NA+41212  12.404  13.837   3.156
72808ION    NA+41213   8.231  16.576   1.446
72809ION    NA+41214   9.468  27.600  14.096
72810ION    NA+41215  39.039  13.308  11.186
72811ION    NA+41216   7.366   3.782  13.021
72812ION    NA+41217   1.669  26.529  14.571
72813ION    NA+41218  14.529  11.422   1.630
72814ION    NA+41219  13.957  25.009   4.491
72815ION    NA+41220  15.195  42.869  12.544
72816ION    NA+41221  42.554  37.402  11.309
72817ION    NA+41222  43.383  42.769   1.937
72818ION    NA+41223   4.947   0.838  13.161
72819ION    NA+41224  13.831   5.699  14.356
72820ION    NA+41225  27.413  43.716   0.218
72821ION    NA+41226  32.215  25.327   3.607
72822ION    NA+41227   7.747   6.390  11.838
72823ION    NA+41228  14.065  20.378   3.178
72824ION    NA+41229  17.314  30.540   3.193
72825ION    NA+41230  31.824  37.601  10.071
72826ION    NA+41231  28.565  15.594  12.937
72827ION    NA+41232  32.651  21.234  13.289
72828ION    NA+41233   6.180  14.789  14.644
72829ION    NA+41234  26.820  31.083   2.790
72830ION    NA+41235  20.872  36.004   1.551
72831ION    NA+41236  18.154  27.438   1.733
72832ION    NA+41237  43.410  36.929   3.595
72833ION    NA+41238  37.784  25.825   0.899
72834ION    NA+41239  19.437  27.548   4.400
72835ION    NA+41240  11.379  30.632  13.865
72836ION    NA+41241  23.598  20.703   1.464
72837ION    NA+41242   5.315  43.423   1.609
72838ION    NA+41243  31.333   4.119   0.836
72839ION    NA+41244  11.789  27.093   4.372
72840ION    NA+41245  31.860  20.263   4.452
72841ION    NA+41246  18.909  15.792  10.333
72842ION    NA+41247  33.817  25.659  13.392
72843ION    NA+41248   8.940  43.189  12.220
72844ION    NA+41249  35.433  11.683  14.384
72845ION    NA+41250  14.861   6.098  10.901
72846ION    NA+41251  44.554  11.938   0.037
72847ION    NA+41252  28.821   9.563  13.421
72848ION    NA+41253   5.767  30.134   1.295
72849ION    NA+41254   7.785  22.563   0.796
72850ION    NA+41255   4.131  29.988   3.322
72851ION    NA+41256  22.609   0.216  13.482
72852ION    NA+41257   1.754  24.677   0.160
72853ION    NA+41258  13.098  30.397   3.791
72854ION    NA+41259  35.592   8.801  12.414
72855ION    NA+41260  23.272   0.240  11.807
72856ION    NA+41261  22.611  31.576  13.031
72857ION    NA+41262  37.834  27.504   1.799
72858ION    NA+41263  17.899  28.316  12.416
72859ION    NA+41264  36.231  31.465  10.697
72860ION    NA+41265  23.225  22.038   0.224
72861ION    NA+41266  37.271  24.894   2.220
72862ION    NA+41267  43.417   0.698   2.462
72863ION    NA+41268  16.044   7.290  12.598
72864ION    NA+41269   5.043  14.548   1.936
72865ION    NA+41270  38.253  15.115  13.408
72866ION    NA+41271  10.418  14.932  13.150
72867ION    NA+41272  39.009  34.782  11.343
72868ION    NA+41273  36.795  43.468   4.653
72869ION    NA+41274  39.823  16.200  13.074
72870ION    NA+41275   7.452  20.233   3.720
72871ION    NA+41276  32.704  15.889  11.804
72872ION    NA+41277  13.821  32.123  11.072
72873ION    NA+41278   4.233  25.179   2.282
72874ION    NA+41279  29.358  24.743  10.723
72875ION    NA+41280  21.962  44.089   4.581
72876ION    NA+41281  27.650   7.921  11.758
72877ION    NA+41282  27.526  17.649  11.712
72878ION    NA+41283  25.176  44.904   0.301
72879ION    NA+41284  27.079  12.590   4.384
72880ION    NA+41285  18.812  21.976   4.822
72881ION    NA+41286  29.047  19.262  14.581
72882ION    NA+41287  42.338  39.161  10.361
72883ION    NA+41288  39.190  29.069  13.721
72884ION    NA+41289  41.074  21.609  11.616
72885ION    NA+41290  38.879  24.938  11.193
72886ION    NA+41291   0.041   4.163  14.468
72887ION    NA+41292  21.588  16.738   3.281
72888ION    NA+41293  29.606  11.934   1.636
72889ION    NA+41294  17.244  23.877  11.597
72890ION    NA+41295  20.841   2.390  13.276
72891ION    NA+41296  41.679  28.188  10.405
72892ION    NA+41297  40.715  15.387   0.030
72893ION    NA+41298  33.952   0.275   3.041
72894ION    NA+41299  12.153  15.688   2.352
72895ION    NA+41300  15.049  20.437   3.005
72896ION    NA+41301  10.943   1.834  13.925
72897ION    NA+41302   5.019  11.198  14.204
72898ION    NA+41303   8.124  24.338   1.830
72899ION    NA+41304  19.881   0.649  10.777
72900ION    NA+41305  24.992  34.828   4.314
72901ION    NA+41306  44.334  43.336  14.622
72902ION    NA+41307  16.373   6.976   1.945
72903ION    NA+41308   6.518  24.621  12.495
72904ION    NA+41309  31.605  17.698  14.859
72905ION    NA+41310  14.519  28.411   1.117
72906ION    NA+41311  26.983   1.589   1.180
72907ION    NA+41312  16.763   5.505  10.447
72908ION    NA+41313  13.828  34.984  10.928
72909ION    NA+41314  38.327  25.770  11.127
72910ION    NA+41315   1.880  15.192  13.769
72911ION    NA+41316   8.548  14.608  13.141
72912ION    NA+41317  43.349   2.540   0.858
72913ION    NA+41318   3.435  11.662  10.629
72914ION    NA+41319  19.718  36.046  12.973
72915ION    NA+41320  39.345  43.418  14.510
72916ION    NA+41321  24.391   1.280   1.396
72917ION    NA+41322  33.199   4.406   1.452
72918ION    NA+41323   4.083  44.438  11.066
72919ION    NA+41324   8.447  19.804  10.400
72920ION    NA+41325  17.716   9.660   0.608
72921ION    NA+41326  43.096  41.551  11.184
72922ION    NA+41327  13.854  38.158  12.669
72923ION    NA+41328  38.933  35.612   3.953
72924ION    NA+41329  35.659  19.107   4.390
72925ION    NA+41330   0.310  43.282  11.585
72926ION    NA+41331  28.065  35.143   4.106
72927ION    NA+41332  29.656  27.944  12.954
72928ION    NA+41333  11.790   6.667  10.805
72929ION    NA+41334  39.247  30.134   3.656
72930ION    NA+41335  35.334   8.886   4.490
72931ION    NA+41336   1.493  36.736   1.440
72932ION    NA+41337  26.190   1.914  12.170
72933ION    NA+41338  31.497  39.369   0.362
72934ION    NA+41339  20.253  44.772  14.016
72935ION    NA+41340  22.630  44.492   2.042
72936ION    NA+41341  44.488  16.608  13.709
72937ION    NA+41342  30.044   4.167   1.254
72938ION    NA+41343  34.220  36.103   0.829
72939ION    NA+41344  34.394  13.744  11.032
72940ION    NA+41345   4.732  35.982   3.496
72941ION    NA+41346   2.186  41.937  13.547
72942ION    NA+41347  30.687  26.554  14.566
72943ION    NA+41348   2.786  26.737  10.315
72944ION    NA+41349   5.718  18.703   0.667
72945ION    NA+41350  42.502   7.458   0.327
72946ION    NA+41351  20.161   5.993   1.907
72947ION    NA+41352  21.912  17.790   3.462
72948ION    NA+41353  33.583  22.581   4.567
72949ION    NA+41354  26.630  28.600   1.178
72950ION    NA+41355  36.001  19.571  10.781
72951ION    NA+41356  42.434   4.265  10.981
72952ION    NA+41357   9.965  20.258  12.018
72953ION    NA+41358  13.760   2.286  12.788
72954ION    NA+41359  25.376  43.781   4.560
72955ION    NA+41360  36.196  17.211  14.287
72956ION    NA+41361  10.793  25.884  10.857
72957ION    NA+41362   1.197   7.070   1.261
72958ION    NA+41363  13.741  25.399   3.335
72959ION    NA+41364  39.838  41.770   4.251
72960ION    NA+41365  13.807   4.723   5.304
72961ION    NA+41366  23.847  16.833   0.259
72962ION    NA+41367  24.196  36.743   2.697
72963ION    NA+41368   3.868  37.035   0.078
72964ION    NA+41369  37.416  41.951  14.015
72965ION    NA+41370  13.963   0.686   2.130
72966ION    NA+41371  39.343   7.667  10.669
72967ION    NA+41372  19.231  21.793  14.411
72968ION    NA+41373  10.480  26.771  11.197
72969ION    NA+41374  26.564  15.751  12.835
72970ION    NA+41375  18.568  20.769  10.758
72971ION    NA+41376  24.761  17.241   2.659
72972ION    NA+41377  30.166   0.604   3.977
72973ION    NA+41378  14.275  32.550  14.383
72974ION    NA+41379  25.663  10.732  13.167
72975ION    NA+41380  30.677  30.374   2.782
72976ION    NA+41381   6.241  41.591  12.432
72977ION    NA+41382  38.742  11.228   2.096
72978ION    NA+41383  15.247  15.816  12.854
72979ION    NA+41384  14.634   3.721   4.420
72980ION    NA+41385  33.164   8.845  11.898
72981ION    NA+41386  39.535  32.355   2.761
72982ION    NA+41387  43.639  29.294  13.999
72983ION    NA+41388  30.180  38.832   1.996
72984ION    NA+41389  10.445  17.704   4.151
72985ION    NA+41390  22.280  10.355   0.854
72986ION    NA+41391  23.835  22.627  14.257
72987ION    NA+41392  36.201   5.197  14.358
72988ION    NA+41393  21.145  32.388  11.681
72989ION    NA+41394  34.159   7.783  12.103
72990ION    NA+41395  36.013  22.180  14.864
72991ION    NA+41396   1.688   4.271  13.560
72992ION    NA+41397  33.029   2.555  14.940
72993ION    NA+41398  12.273  13.431   3.960
72994ION    NA+41399  20.107  22.549   2.755
72995ION    NA+41400  30.641  11.602  14.413
72996ION    NA+41401  43.070  29.985  10.285
72997ION    NA+41402  23.591   5.196   1.972
72998ION    NA+41403   9.023   8.404   0.842
72999ION    NA+41404  18.715  17.167   1.963
73000ION    NA+41405   4.292  29.116  12.823
73001ION    NA+41406   6.107  16.395   2.225
73002ION    NA+41407  14.503   7.792  10.039
73003ION    NA+41408  11.423  32.165  10.932
73004ION    NA+41409  18.277  20.888   1.984
73005ION    NA+41410  19.278  42.060  14.915
73006ION    NA+41411  22.574  22.968   2.163
73007ION    NA+41412  34.403  32.861   3.391
73008ION    NA+41413  43.322  13.906   1.358
73009ION    NA+41414   6.503   7.401   3.650
73010ION    NA+41415  23.876   6.959  13.134
73011ION    NA+41416  26.415  18.808  14.486
73012ION    NA+41417  10.126  15.148  12.357
73013ION    NA+41418  18.935  15.294  12.017
73014ION    NA+41419   4.814  21.088  13.120
73015ION    NA+41420  29.798  21.607  13.635
73016ION    NA+41421  25.425  30.675  14.444
73017ION    NA+41422   6.859  43.431  12.953
73018ION    NA+41423  13.210  41.835  13.882
73019ION    NA+41424   9.378  40.947   1.236
73020ION    NA+41425  29.160  10.266   2.095
73021ION    NA+41426   6.442   6.222  14.450
73022ION    NA+41427   2.700  37.109   1.160
73023ION    NA+41428  33.381  20.392   1.499
73024ION    NA+41429   7.966  36.018  12.863
73025ION    NA+41430  43.610  15.310  14.926
73026ION    NA+41431   5.432  11.283  11.531
73027ION    NA+41432  28.983   5.586   5.245
73028ION    NA+41433  23.971  35.301  12.634
73029ION    NA+41434   8.154  25.988  12.411
73030ION    NA+41435  25.038   3.006  10.280
73031ION    NA+41436  18.987  31.478  10.334
73032ION    NA+41437  12.604  31.208  14.903
73033ION    NA+41438  20.168   9.902  11.481
73034ION    NA+41439  22.441  31.757   3.551
73035ION    NA+41440  15.814  17.241  14.748
73036ION    NA+41441   3.383  20.786   1.304
73037ION    NA+41442  18.849   5.847   4.912
73038ION    NA+41443  17.341  43.276  12.163
73039ION    NA+41444  38.070  32.335  11.375
73040ION    NA+41445  11.619  40.755   1.887
73041ION    NA+41446  16.847  10.917  11.978
73042ION    NA+41447  15.968  12.811   0.864
73043ION    NA+41448  23.812  42.141  11.520
73044ION    NA+41449  11.752  31.630   2.622
73045ION    NA+41450  27.319   7.246  11.099
73046ION    NA+41451  38.264  22.006   2.605
73047ION    NA+41452  32.935  24.392   0.834
73048ION    NA+41453  29.339  36.597   0.684
73049ION    NA+41454   9.423  39.678   0.344
73050ION    NA+41455  10.291   0.865  14.943
73051ION    NA+41456   1.365   1.938   3.253
73052ION    NA+41457  12.699  42.318   3.351
73053ION    NA+41458   6.430   0.306  12.944
73054ION    NA+41459   8.940  27.909   3.676
73055ION    NA+41460  23.526  40.495  14.934
73056ION    NA+41461  17.800  41.385  13.978
73057ION    NA+41462  33.277   1.399  14.101
73058ION    NA+41463  38.923  15.646  14.009
73059ION    NA+41464   4.568   1.800   4.644
73060ION    NA+41465   2.008  25.449   2.698
73061ION    NA+41466  11.508  43.406  10.314
73062ION    NA+41467  12.114   2.304   3.877
73063ION    NA+41468  26.089  24.248   3.181
73064ION    NA+41469  24.144  24.667   0.891
73065ION    NA+41470  37.356  41.612   1.698
73066ION    NA+41471  14.787  44.694   1.826
73067ION    NA+41472  36.980   2.861   0.379
73068ION    NA+41473  16.113   4.231  12.000
73069ION    NA+41474  23.024  11.702   2.283
73070ION    NA+41475  10.297   9.714   0.939
73071ION    NA+41476  23.915   6.338   1.804
73072ION    NA+41477  17.659  26.004   4.679
73073ION    NA+41478  11.784  28.178  10.399
73074ION    NA+41479  31.913  23.295   3.190
73075ION    NA+41480  14.899  24.345   4.716
73076ION    NA+41481   9.560  31.086  12.201
73077ION    NA+41482  16.103  11.299  13.469
73078ION    NA+41483  30.708  40.820   5.120
73079ION    NA+41484   4.453  12.532   1.652
73080ION    NA+41485  10.959  23.810   3.505
73081ION    NA+41486  15.662   3.499  12.511
73082ION    NA+41487  10.840  25.953   4.573
73083ION    NA+41488  31.902  26.152  14.409
73084ION    NA+41489  43.305  17.179   9.845
73085ION    NA+41490   4.210  29.945  14.872
73086ION    NA+41491  43.195  43.919   9.917
73087ION    NA+41492  38.326  28.909  14.773
73088ION    NA+41493  26.770  22.494  14.547
73089ION    NA+41494  17.302  38.582   4.368
73090ION    NA+41495  18.873   1.323  12.898
73091ION    NA+41496  23.763   3.017  12.004
73092ION    NA+41497   5.908  23.910   2.141
73093ION    NA+41498  30.359   5.397   3.442
73094ION    NA+41499  11.514   6.525   9.825
73095ION    NA+41500   3.181  22.586   2.879
73096ION    NA+41501  18.719  38.086  11.329
73097ION    NA+41502  27.222   7.591   0.193
73098ION    NA+41503  30.510  25.461  14.964
73099ION    NA+41504  15.078   5.496   0.437
73100ION    NA+41505  32.994  44.233   2.446
73101ION    NA+41506  17.534  24.922   3.845
73102ION    NA+41507   2.156  35.274   0.906
73103ION    NA+41508  19.560  14.918  12.701
73104ION    NA+41509  12.493  28.187  12.704
73105ION    NA+41510   8.314  25.089   4.097
73106ION    NA+41511  38.884  43.119  11.354
73107ION    NA+41512   0.353  39.249   3.308
73108ION    NA+41513  23.683  13.771   3.344
73109ION    NA+41514  35.923  43.945  14.083
73110ION    NA+41515  15.380  24.789   1.647
73111ION    NA+41516  37.663  16.763  14.154
73112ION    NA+41517  38.774  38.603  13.626
73113ION    NA+41518  38.011  39.635  12.511
73114ION    NA+41519  31.970   7.620   3.573
73115ION    NA+41520  27.046  16.011   3.862
73116ION    NA+41521  19.045   3.737  10.646
73117ION    NA+41522  40.488  11.881  14.981
73118ION    NA+41523   7.295  44.013  11.639
73119ION    NA+41524  17.526  30.990  13.359
73120ION    NA+41525  20.608  17.469   2.704
73121ION    NA+41526  16.861  37.993  14.926
73122ION    NA+41527  32.398  40.434   0.788
73123ION    NA+41528   2.905   0.012  10.674
73124ION    NA+41529  31.039  11.311  12.173
73125ION    NA+41530  10.778  39.323   4.470
73126ION    NA+41531   8.258  38.436   0.080
73127ION    NA+41532  11.228   7.484   1.402
73128ION    NA+41533  35.126   0.294   3.757
73129ION    NA+41534  21.310  22.513  11.606
73130ION    NA+41535  25.760  22.409  14.236
73131ION    NA+41536  31.618  32.528  13.192
73132ION    NA+41537   4.237  33.011   5.125
73133ION    NA+41538  41.486  14.414   3.645
73134ION    NA+41539   1.211  32.273   2.288
73135ION    NA+41540   5.381  21.325   2.749
73136ION    NA+41541  36.841  31.393  11.486
73137ION    NA+41542   2.364  11.663   5.039
73138ION    NA+41543  37.957  39.279   0.367
73139ION    NA+41544  24.962  22.515   2.117
73140ION    NA+41545  27.991   7.036  11.443
73141ION    NA+41546  11.572   5.165   1.359
73142ION    NA+41547  18.629  35.236  10.080
73143ION    NA+41548  36.006  26.997   1.246
73144ION    NA+41549  30.977  27.133   3.621
73145ION    NA+41550  29.611  44.363  12.730
73146ION    NA+41551  44.561  30.220   3.632
73147ION    NA+41552   8.322  10.188   1.957
73148ION    NA+41553  33.647  19.283   2.906
73149ION    NA+41554  33.006  44.956   2.985
73150ION    NA+41555  39.527  34.194  14.382
73151ION    NA+41556  33.118   5.372   1.866
73152ION    NA+41557  40.902  25.497   4.091
73153ION    NA+41558  18.207  22.349  13.686
73154ION    NA+41559   7.636  21.389  14.682
73155ION    NA+41560  28.244  28.998  11.337
73156ION    NA+41561   6.003  11.978   3.116
73157ION    NA+41562  24.723   1.651  13.399
73158ION    NA+41563   1.875  16.576   1.842
73159ION    NA+41564  41.537   8.461   3.634
73160ION    NA+41565  40.576  38.625  12.481
73161ION    NA+41566  43.336  13.285  12.223
73162ION    NA+41567  19.961  12.786  12.181
73163ION    NA+41568   7.215  26.336  13.272
73164ION    NA+41569  27.657  37.712  14.674
73165ION    NA+41570  33.051  36.343   1.126
73166ION    NA+41571  18.733  39.405   4.444
73167ION    NA+41572  11.256  21.728  12.938
73168ION    NA+41573  11.105  31.930   1.453
73169ION    NA+41574  14.962  24.985   3.631
73170ION    NA+41575  36.403   3.716  14.359
73171ION    NA+41576  35.627  29.058  14.508
73172ION    NA+41577   0.096  33.769   3.282
73173ION    NA+41578  25.673  44.905   5.102
73174ION    NA+41579   9.336  13.968  12.846
73175ION    NA+41580  43.046   3.468  12.029
73176ION    NA+41581  14.622  10.354   2.913
73177ION    NA+41582  21.978  28.747   3.250
73178ION    NA+41583  37.331   4.519  13.900
73179ION    NA+41584   0.411   2.132   3.794
73180ION    NA+41585  30.273  26.997   2.241
73181ION    NA+41586  28.165  29.330  13.169
73182ION    NA+41587   3.848  36.040  14.982
73183ION    NA+41588  26.108  36.135  14.093
73184ION    NA+41589   2.433  17.157  14.434
73185ION    NA+41590  35.181   4.008   1.327
73186ION    NA+41591  34.482  35.067   4.291
73187ION    NA+41592  32.254  18.589  13.445
73188ION    NA+41593   3.343  44.819  14.185
73189ION    NA+41594  23.423   1.237   2.153
73190ION    NA+41595   7.843  26.857   4.913
73191ION    NA+41596  20.249   1.244  11.935
73192ION    NA+41597  34.480  31.526   1.882
73193ION    NA+41598   6.168  14.044   0.312
73194ION    NA+41599  40.628   2.808   4.093
73195ION    NA+41600  19.161  42.633   0.542
73196ION    NA+41601   5.397   0.441  11.443
73197ION    NA+41602  27.889   7.131  13.298
73198ION    NA+41603  30.618  26.160  13.649
73199ION    NA+41604  42.886  20.965  11.626
73200ION    NA+41605  16.784  18.968  13.403
73201ION    NA+41606  41.555  30.724  12.796
73202ION    NA+41607  42.926  24.972  11.146
73203ION    NA+41608  44.426  22.363   1.266
73204ION    NA+41609  22.785  37.099  14.851
73205ION    NA+41610  37.696  19.703  11.509
73206ION    NA+41611  15.641   2.777  13.971
73207ION    NA+41612  20.424   3.967   0.294
73208ION    NA+41613  29.447  44.724   0.017
73209ION    NA+41614  15.602  44.809   3.558
73210ION    NA+41615  37.865  21.633  14.272
73211ION    NA+41616  22.425  29.083  13.395
73212ION    NA+41617  14.034   6.400   2.660
73213ION    NA+41618  29.077   9.837  11.203
73214ION    NA+41619  12.693  29.383  14.935
73215ION    NA+41620  24.960  14.519  13.507
73216ION    NA+41621  32.893  24.304  14.456
73217ION    NA+41622  38.833  11.821  11.675
73218ION    NA+41623  15.218  13.226   3.150
73219ION    NA+41624  25.734  40.504   2.942
73220ION    NA+41625  16.846  25.700   0.430
73221ION    NA+41626  37.087  18.162   3.520
73222ION    NA+41627  20.281  40.749   4.509
73223ION    NA+41628  22.583   0.998  12.812
73224ION    NA+41629  18.601   8.219  11.246
73225ION    NA+41630  12.325  31.010   1.918
73226ION    NA+41631  43.480  29.463   4.244
73227ION    NA+41632  12.087  22.225   2.724
73228ION    NA+41633  43.917  35.650   0.713
73229ION    NA+41634  22.694  36.678  10.728
73230ION    NA+41635  11.114   8.190   2.270
73231ION    NA+41636  24.453  32.219  14.208
73232ION    NA+41637  15.241  38.417  14.450
73233ION    NA+41638  21.379  39.824  13.302
73234ION    NA+41639  33.918  27.186   2.368
73235ION    NA+41640  23.611   4.148  10.305
73236ION    NA+41641  25.919   7.579  12.590
73237ION    NA+41642  40.144  14.127   2.145
73238ION    NA+41643  40.004  43.756  10.774
73239ION    NA+41644  20.287   8.836  14.769
73240ION    NA+41645   0.850  29.512  12.862
73241ION    NA+41646  35.869   0.346  11.104
73242ION    NA+41647  16.809   9.492  12.190
73243ION    NA+41648   5.940   9.740  11.082
73244ION    NA+41649   7.416   1.078   2.295
73245ION    NA+41650  43.282  20.348  13.115
73246ION    NA+41651  35.449   3.364   3.069
73247ION    NA+41652  41.179  32.424   2.547
73248ION    NA+41653  11.233   5.121  14.757
73249ION    NA+41654   2.514  42.163   3.091
73250ION    NA+41655  32.179   9.537  14.008
73251ION    NA+41656   9.298  10.850  13.144
73252ION    NA+41657  41.101  38.856  10.870
73253ION    NA+41658  39.475  34.121  10.471
73254ION    NA+41659  34.393  40.507   1.773
73255ION    NA+41660   2.226  29.667   1.043
73256ION    NA+41661   6.094   6.391  10.729
73257ION    NA+41662   9.127  37.335  13.084
73258ION    NA+41663  38.856  16.336  13.289
73259ION    NA+41664   7.881   9.881  10.562
73260ION    NA+41665  35.620  21.630  13.057
73261ION    NA+41666  44.837  14.530   1.986
73262ION    NA+41667   1.319   7.491   5.255
73263ION    NA+41668  16.197  12.182  13.948
73264ION    NA+41669  31.572   6.785  10.855
73265ION    NA+41670  27.485   5.711   3.063
73266ION    NA+41671  14.407  20.044  10.833
73267ION    NA+41672  35.787  13.832   1.563
73268ION    NA+41673   6.947  14.987  13.446
73269ION    NA+41674  30.311  22.396  13.977
73270ION    NA+41675  34.444  22.764   3.587
73271ION    NA+41676  41.185  12.565  14.763
73272ION    NA+41677  14.160  13.267   3.711
73273ION    NA+41678  26.400  21.630  11.115
73274ION    NA+41679   5.438  34.738  11.501
73275ION    NA+41680  41.032   6.449   1.873
73276ION    NA+41681  10.257  37.552  14.240
73277ION    NA+41682  40.104   8.888  12.900
73278ION    NA+41683  13.509  11.458  10.747
73279ION    NA+41684  19.109  23.171  11.998
73280ION    NA+41685   0.678  22.500  11.077
73281ION    NA+41686  32.628  43.768   0.492
73282ION    NA+41687   1.999  13.915   3.278
73283ION    NA+41688  42.000   2.666   4.731
73284ION    NA+41689   0.391  37.402  10.697
73285ION    NA+41690  18.610  44.685   2.680
73286ION    NA+41691  11.918   6.875   1.794
73287ION    NA+41692  18.665  22.209   2.193
73288ION    NA+41693  25.668  11.795   1.127
73289ION    NA+41694  22.496  16.493   4.400
73290ION    NA+41695  33.850   2.559  14.022
73291ION    NA+41696  33.917  13.345  11.980
73292ION    NA+41697  41.391  24.535   3.771
73293ION    NA+41698  28.352  36.138  12.554
73294ION    NA+41699  12.559   9.621  13.365
73295ION    NA+41700  25.437  10.826  11.797
73296ION    NA+41701  35.393  39.969  12.352
73297ION    NA+41702  17.229  39.609  13.700
73298ION    NA+41703  15.710  11.865   0.664
73299ION    NA+41704  37.439   2.158   2.656
73300ION    NA+41705  31.690  24.654   3.939
73301ION    NA+41706  18.129  16.545  13.507
73302ION    NA+41707  35.611  41.833  14.804
73303ION    NA+41708  15.404  34.143   3.094
73304ION    NA+41709  13.048  19.308  14.971
73305ION    NA+41710  37.460  39.874   2.424
73306ION    NA+41711  13.717   2.256   1.912
73307ION    NA+41712  30.659  18.841   2.123
73308ION    NA+41713  27.423  35.796  12.412
73309ION    NA+41714  39.362   4.265  13.432
73310ION    NA+41715   6.426  35.979  12.794
73311ION    NA+41716  19.571   4.206   0.760
73312ION    NA+41717  15.398  12.468  12.901
73313ION    NA+41718  21.270  26.583  12.581
73314ION    NA+41719  23.494   4.434  12.240
73315ION    NA+41720  14.033  10.721   2.193
73316ION    NA+41721  20.018  33.206  13.593
73317ION    NA+41722  26.366  31.552   2.007
73318ION    NA+41723   6.394  20.416  14.059
73319ION    NA+41724  13.604   6.624  13.903
73320ION    NA+41725  11.834   0.237   2.460
73321ION    NA+41726  26.917  19.299  10.701
73322ION    NA+41727  28.933  21.812   0.805
73323ION    NA+41728  15.036  21.172  12.964
73324ION    NA+41729  14.852   6.028  12.840
73325ION    NA+41730  27.546  35.634   1.156
73326ION    NA+41731  36.854  23.268  11.211
73327ION    NA+41732  32.744  16.887   2.819
73328ION    NA+41733  44.375  13.761   2.632
73329ION    NA+41734  28.565   0.902   2.300
73330ION    NA+41735  35.080   1.833   4.212
73331ION    NA+41736  14.135   1.555   0.179
73332ION    NA+41737  25.758  40.064   0.101
73333ION    NA+41738  36.843   1.095   0.393
73334ION    NA+41739  41.970  36.382  14.841
73335ION    NA+41740   5.312  44.182   0.959
73336ION    NA+41741  14.103  16.906  10.736
73337ION    NA+41742   1.278  33.980   0.264
73338ION    NA+41743   9.382   1.727  10.550
73339ION    NA+41744  42.994  38.045   1.157
73340ION    NA+41745  40.435  37.795  12.132
73341ION    NA+41746   3.252  30.993   5.123
73342ION    NA+41747  11.770   6.205  11.955
73343ION    NA+41748  13.665  42.939  12.458
73344ION    NA+41749  44.356  10.225  10.931
73345ION    NA+41750  32.267  14.631  11.698
73346ION    NA+41751   5.471  44.847  14.173
73347ION    NA+41752  25.567  43.435  13.983
73348ION    NA+41753  41.055  26.244   1.936
73349ION    NA+41754  10.478   6.340   4.507
73350ION    NA+41755  32.524  17.089  14.404
73351ION    NA+41756   4.114  37.250   2.511
73352ION    NA+41757  44.526   1.378  11.324
73353ION    NA+41758   6.792  15.561   2.686
73354ION    NA+41759  23.317  29.621   1.288
73355ION    NA+41760  42.666  34.148   0.658
73356ION    NA+41761   1.009  24.144   0.565
73357ION    NA+41762  10.095  16.222  11.925
73358ION    NA+41763  37.448  38.389  14.806
73359ION    NA+41764  17.741  37.868  12.893
73360ION    NA+41765  26.685  26.883  13.014
73361ION    NA+41766   1.289   9.285   3.293
73362ION    NA+41767  44.356  36.891  13.607
73363ION    NA+41768  21.656  28.497  13.141
73364ION    NA+41769  29.145  35.541  11.519
73365ION    NA+41770  36.761   7.448  10.667
73366ION    NA+41771  10.601   1.292  13.131
73367ION    NA+41772  32.387  16.972   4.678
73368ION    NA+41773   8.845  39.207  11.967
73369ION    NA+41774   2.669  14.200  13.783
73370ION    NA+41775   7.228  43.974   0.953
73371ION    NA+41776   3.751  28.274  14.819
73372ION    NA+41777   5.435  16.080  12.747
73373ION    NA+41778  17.799  10.626  12.074
73374ION    NA+41779  31.357  10.286  13.018
73375ION    NA+41780  25.883  21.505   1.238
73376ION    NA+41781  12.002  19.473  10.042
73377ION    NA+41782   0.497   7.306   0.165
73378ION    NA+41783   5.310  32.416   1.321
73379ION    NA+41784  40.216   0.313  11.962
73380ION    NA+41785  17.643   4.103   0.071
73381ION    NA+41786   1.198  32.516   3.731
73382ION    NA+41787  27.971  38.281  13.913
73383ION    NA+41788   1.003  18.365   3.241
73384ION    NA+41789  18.806   9.218  14.403
73385ION    NA+41790  29.049  35.776  13.684
73386ION    NA+41791  33.256   8.422  14.327
73387ION    NA+41792  28.384  11.678  10.794
73388ION    NA+41793  42.151  22.463  12.272
73389ION    NA+41794  15.137  23.227  13.935
73390ION    NA+41795  22.905  32.764   2.191
73391ION    NA+41796  15.054  39.903  10.738
73392ION    NA+41797  38.395  27.111   0.942
73393ION    NA+41798  20.558  10.227  14.089
73394ION    NA+41799   8.209  42.993  14.319
73395ION    NA+41800  22.535  18.211  12.395
73396ION    NA+41801  14.363   6.763  10.684
73397ION    NA+41802  42.904  25.969  12.520
73398ION    NA+41803  36.027  42.375  13.742
73399ION    NA+41804  15.592  31.657  13.109
73400ION    NA+41805   4.682  17.225   4.090
73401ION    NA+41806   9.222  11.071  11.416
73402ION    NA+41807   3.311   9.328  11.847
73403ION    NA+41808  31.458  26.416   3.688
73404ION    NA+41809  35.468  18.955   3.298
73405ION    NA+41810  28.814  12.583  14.093
73406ION    NA+41811  27.276  11.319  12.606
73407ION    NA+41812   3.313  21.049  12.056
73408ION    NA+41813  19.874   6.038   0.200
73409ION    NA+41814  27.645  14.980  11.392
73410ION    NA+41815  20.695   5.462   3.194
73411ION    NA+41816  14.523   5.014  13.835
73412ION    NA+41817  43.639  31.191  12.236
73413ION    NA+41818  25.694  11.131   3.751
73414ION    NA+41819  34.093  28.568   4.965
73415ION    NA+41820   0.997  13.480  12.466
73416ION    NA+41821  27.658  21.269   3.574
73417ION    NA+41822  17.607  25.131   0.863
73418ION    NA+41823  44.775  22.742  11.968
73419ION    NA+41824  23.230   6.334  10.960
73420ION    NA+41825  41.843  12.325  12.628
73421ION    NA+41826   5.163  11.609  14.987
73422ION    NA+41827  27.417  28.723  11.048
73423ION    NA+41828  11.154  20.111   1.826
73424ION    NA+41829  40.625  22.039   0.652
73425ION    NA+41830  42.656  10.013  14.018
73426ION    NA+41831  13.267  15.631   3.874
73427ION    NA+41832   2.544  25.970  14.837
73428ION    NA+41833   6.617  25.586  11.541
73429ION    NA+41834  33.503  40.039  11.969
73430ION    NA+41835  40.732  15.897   4.503
73431ION    NA+41836  41.295  30.443  13.720
73432ION    NA+41837  33.657  36.219   2.511
73433ION    NA+41838  33.519  44.526   3.055
73434ION    NA+41839  16.941   1.387  11.006
73435ION    NA+41840   8.386  18.103   2.208
73436ION    NA+41841  14.383  33.999  14.952
73437ION    NA+41842  11.205  11.834   3.793
73438ION    NA+41843  42.600  36.415  11.464
73439ION    NA+41844  34.083  19.635  14.550
73440ION    NA+41845   9.520   1.480  13.008
73441ION    NA+41846   7.946  28.616  11.555
73442ION    NA+41847  41.117  12.305   0.633
73443ION    NA+41848   9.403  28.657  13.365
73444ION    NA+41849  19.776  35.734  14.343
73445ION    NA+41850  32.536  14.145   3.227
73446ION    NA+41851  39.999  22.182   2.651
73447ION    NA+41852  23.635  43.382  12.068
73448ION    NA+41853  25.088  27.706  11.023
73449ION    NA+41854  41.264   5.700  13.181
73450ION    NA+41855  34.385   1.354  14.238
73451ION    NA+41856  26.817  13.069   2.245
73452ION    NA+41857  15.693   2.450   4.382
73453ION    NA+41858  23.888  13.762  14.538
73454ION    NA+41859  22.948   7.650  13.547
73455ION    NA+41860  20.708  33.949  10.685
73456ION    NA+41861  42.427  26.120   4.584
73457ION    NA+41862   2.174  22.802   1.578
73458ION    NA+41863  31.214   7.776   3.100
73459ION    NA+41864   9.305  26.861  12.427
73460ION    NA+41865  24.049   0.457  12.422
73461ION    NA+41866  40.255  36.664  11.225
73462ION    NA+41867  13.546  14.829  10.738
73463ION    NA+41868  15.633  43.570  13.917
73464ION    NA+41869   8.408  29.959  13.945
73465ION    NA+41870  25.419  41.977   3.350
73466ION    NA+41871  13.066   4.435  12.151
73467ION    NA+41872   3.576   8.866  13.549
73468ION    NA+41873  13.244  10.275   0.061
73469ION    NA+41874   3.900  14.955  12.431
73470ION    NA+41875  19.840  41.794  11.073
73471ION    NA+41876   8.882  21.718  10.823
73472ION    NA+41877  10.249   8.370   1.803
73473ION    NA+41878  31.356   4.224  14.981
73474ION    NA+41879  20.583  42.713  11.647
73475ION    NA+41880   1.207   3.531   0.932
73476ION    NA+41881  40.935  28.171  12.261
73477ION    NA+41882  26.246  33.619   1.165
73478ION    NA+41883  16.864  35.614  10.946
73479ION    NA+41884  30.925   2.796   2.332
73480ION    NA+41885  12.918   5.480   2.957
73481ION    NA+41886  10.940  37.705  13.050
73482ION    NA+41887  27.817  36.479  13.327
73483ION    NA+41888  11.581  10.271  13.366
73484ION    NA+41889  37.665  10.010   2.062
73485ION    NA+41890  40.105  33.349  13.784
73486ION    NA+41891  25.928   9.377   3.371
73487ION    NA+41892  23.654   5.995  12.986
73488ION    NA+41893  17.356  19.400  11.803
73489ION    NA+41894  20.759  18.519  12.315
73490ION    NA+41895   7.842   4.383   2.491
73491ION    NA+41896  22.282  28.015   4.950
73492ION    NA+41897  18.886  18.160   3.709
73493ION    NA+41898  18.166  20.212  14.198
73494ION    NA+41899   5.442  10.524  13.591
73495ION    NA+41900  39.148   7.605   5.139
73496ION    NA+41901  13.669   9.309  12.673
73497ION    NA+41902  12.746  23.511  11.611
73498ION    NA+41903  42.145  25.825   2.814
73499ION    NA+41904   8.108  14.401   3.345
73500ION    NA+41905  14.272  12.778  12.865
73501ION    NA+41906  42.312   1.234   0.022
73502ION    NA+41907  35.098  18.629  11.169
73503ION    NA+41908  22.741  39.056  14.936
73504ION    NA+41909  21.499  33.958   0.385
73505ION    NA+41910   6.326  42.669   5.122
73506ION    NA+41911  37.130   7.416   3.642
73507ION    NA+41912   1.536  36.994  12.747
73508ION    NA+41913  23.595  37.356   5.126
73509ION    NA+41914  26.786  10.085  13.871
73510ION    NA+41915  37.797  38.271   3.533
73511ION    NA+41916  13.009   6.188  14.648
73512ION    NA+41917  43.448  39.882   2.969
73513ION    NA+41918  29.616  26.729  12.208
73514ION    NA+41919  19.192  41.367   2.561
73515ION    NA+41920  17.943   5.234  14.954
73516ION    NA+41921  19.033  41.227  11.237
73517ION    NA+41922  19.214   8.786  12.491
73518ION    NA+41923  42.482  37.539   3.666
73519ION    NA+41924  21.725  43.423  12.924
73520ION    NA+41925  34.051   1.002   0.300
73521ION    NA+41926  25.653  22.835   0.560
73522ION    NA+41927  11.188  12.724  11.522
73523ION    NA+41928  23.756   4.159  11.315
73524ION    NA+41929  21.143  30.814  13.049
73525ION    NA+41930  27.797  11.159  13.281
73526ION    NA+41931  43.825   8.479   4.015
73527ION    NA+41932  23.584   9.646   1.860
73528ION    NA+41933  33.563  34.962  10.780
73529ION    NA+41934  32.355   6.998  11.035
73530ION    NA+41935  17.505  19.010  12.712
73531ION    NA+41936  39.076  37.025   1.658
73532ION    NA+41937  27.199  20.618  13.035
73533ION    NA+41938  32.416  37.396   2.738
73534ION    NA+41939  41.522  17.698   4.100
73535ION    NA+41940  32.541   9.429   0.270
73536ION    NA+41941  22.539  43.048   3.070
73537ION    NA+41942  44.731   0.113   1.076
73538ION    NA+41943   8.315  19.026  11.560
73539ION    NA+41944  16.282  14.590   3.868
73540ION    NA+41945  43.974  13.314   1.833
73541ION    NA+41946  20.734  39.896  12.721
73542ION    NA+41947  19.269   6.636  12.405
73543ION    NA+41948  10.897  41.698   4.239
73544ION    NA+41949  17.982  15.331   0.657
73545ION    NA+41950  31.646  38.993  12.420
73546ION    NA+41951  42.049  39.465   3.683
73547ION    NA+41952   3.576  27.777  11.422
73548ION    NA+41953  44.118  27.408  10.115
73549ION    NA+41954  38.542  35.841   2.698
73550ION    NA+41955  12.456  21.446   4.600
73551ION    NA+41956  39.588  36.633  13.043
73552ION    NA+41957   4.218   8.776  14.901
73553ION    NA+41958  19.038  37.187  12.540
73554ION    NA+41959   8.767  15.915   0.324
73555ION    NA+41960   1.061  19.763  11.609
73556ION    NA+41961   1.543   8.957  13.396
73557ION    NA+41962  20.893   5.698  10.043
73558ION    NA+41963  40.213  38.577  11.551
73559ION    NA+41964   6.874  22.896   0.402
73560ION    NA+41965  12.134  18.222   3.769
73561ION    NA+41966  41.476  16.582   3.297
73562ION    NA+41967  37.814  17.609   3.132
73563ION    NA+41968  44.728  24.251  11.612
73564ION    NA+41969  15.157  13.298  10.954
73565ION    NA+41970  19.145  20.779   9.682
73566ION    NA+41971  43.141   1.511   4.061
73567ION    NA+41972  12.616  13.178  13.106
73568ION    NA+41973  30.167  36.105   0.415
73569ION    NA+41974  28.278   2.858  14.176
73570ION    NA+41975  10.651  12.927   2.264
73571ION    NA+41976  23.476  32.130   0.345
73572ION    NA+41977  34.590  15.068   3.316
73573ION    NA+41978  17.587   7.211   2.263
73574ION    NA+41979  33.598  16.248  14.832
73575ION    NA+41980  21.883  11.686   1.108
73576ION    NA+41981  20.305  42.403   1.604
73577ION    NA+41982  16.367  10.706  14.511
73578ION    NA+41983  27.531  28.914   4.327
73579ION    NA+41984  14.230   6.181  12.222
73580ION    NA+41985  43.443  43.322   4.678
73581ION    NA+41986  40.759  25.372   1.545
73582ION    NA+41987   9.945  12.548   2.577
73583ION    NA+41988  23.604  34.840   1.215
73584ION    NA+41989  24.943  31.637   0.441
73585ION    NA+41990  38.662  26.208  14.835
73586ION    NA+41991  12.158   2.378   3.019
73587ION    NA+41992  30.706  17.052  14.119
73588ION    NA+41993  21.453  16.255  10.857
73589ION    NA+41994   2.611  23.036   0.140
73590ION    NA+41995  32.140  13.009   2.780
73591ION    NA+41996  25.312  29.518   3.168
73592ION    NA+41997   7.325   7.856   3.305
73593ION    NA+41998  25.041  39.800  14.254
73594ION    NA+41999  27.644   1.840   4.195
73595ION    NA+42000   3.760  30.593   4.121
73596ION    NA+42001  12.047  13.294  10.035
73597ION    NA+42002  39.379   9.767  14.339
73598ION    NA+42003  13.011  40.793  13.885
73599ION    NA+42004  29.528   2.181  12.758
73600ION    NA+42005  28.033   7.631  10.881
73601ION    NA+42006  39.329   3.149   3.176
73602ION    NA+42007  11.205  40.854   4.935
73603ION    NA+42008  22.075  28.844  10.633
73604ION    NA+42009  38.014  24.213  14.944
73605ION    NA+42010   8.140  38.230  11.145
73606ION    NA+42011  27.617  15.821  11.720
73607ION    NA+42012   7.510  42.600   3.631
73608ION    NA+42013   9.371  28.136  10.766
73609ION    NA+42014   7.478  30.882  13.969
73610ION    NA+42015  37.672   0.763   2.387
73611ION    NA+42016  26.111  14.332  13.721
73612ION    NA+42017  14.974   6.485   4.086
73613ION    NA+42018  16.265   6.235   1.183
73614ION    NA+42019  14.084  34.575  12.183
73615ION    NA+42020  23.291  35.891  10.881
73616ION    NA+42021   1.938  22.736  11.019
73617ION    NA+42022  39.338  41.195  11.428
73618ION    NA+42023  25.906   1.662   0.867
73619ION    NA+42024  29.295  25.363   0.703
73620ION    NA+42025  21.231   7.695  13.472
73621ION    NA+42026  10.406  42.543  11.215
73622ION    NA+42027  21.208   3.956   0.915
73623ION    NA+42028   3.938  16.677   1.221
73624ION    NA+42029   4.716   0.375   4.096
73625ION    NA+42030  37.555  44.023  11.101
73626ION    NA+42031  28.943  25.016  14.358
73627ION    NA+42032  31.738   7.217   1.659
73628ION    NA+42033  33.597  18.298  12.127
73629ION    NA+42034   2.010  18.668   4.231
73630ION    NA+42035  24.967  24.942   1.387
73631ION    NA+42036   1.249  43.312   1.244
73632ION    NA+42037   5.586  39.321   2.408
73633ION    NA+42038   7.618  38.040  11.702
73634ION    NA+42039  38.263  21.256  11.109
73635ION    NA+42040  43.926  43.996   2.507
73636ION    NA+42041  39.464  41.129   2.340
73637ION    NA+42042  17.343   5.062  13.184
73638ION    NA+42043   1.524  40.269   4.115
73639ION    NA+42044   7.038  28.996  10.689
73640ION    NA+42045  38.890  41.996   0.345
73641ION    NA+42046  24.733   8.878  11.613
73642ION    NA+42047   9.206  19.480  11.595
73643ION    NA+42048  39.502  31.932  11.057
73644ION    NA+42049  36.301  33.495  12.593
73645ION    NA+42050  41.142  42.858  14.328
73646ION    NA+42051  44.231   1.846   1.104
73647ION    NA+42052  19.534   2.658   2.206
73648ION    NA+42053  15.311  37.838   3.449
73649ION    NA+42054   6.931  22.781  11.384
73650ION    NA+42055  24.830  20.277  12.036
73651ION    NA+42056   1.327  22.701  11.810
73652ION    NA+42057   3.086  10.131   0.358
73653ION    NA+42058  11.049  26.318   3.417
73654ION    NA+42059  32.502  23.683   4.058
73655ION    NA+42060  15.113  33.408   3.707
73656ION    NA+42061  40.307   5.707   1.482
73657ION    NA+42062  16.589  43.432   0.383
73658ION    NA+42063   0.347   9.932   3.323
73659ION    NA+42064  24.997   0.877  10.642
73660ION    NA+42065  34.327  22.486  12.426
73661ION    NA+42066  24.949  26.657  11.212
73662ION    NA+42067  16.649  29.100   0.029
73663ION    NA+42068   8.587  44.763   1.265
73664ION    NA+42069  37.428  23.221  10.367
73665ION    NA+42070   7.074  34.296   4.611
73666ION    NA+42071  10.966  27.622   0.893
73667ION    NA+42072  21.292  24.910  13.926
73668ION    NA+42073   9.652  37.792  11.546
73669ION    NA+42074  31.150  20.777   1.809
73670ION    NA+42075   5.938   4.183  10.450
73671ION    NA+42076  41.826  27.754   0.942
73672ION    NA+42077  44.718  41.168   1.035
73673ION    NA+42078  33.607  42.535  13.439
73674ION    NA+42079  24.357  17.588   0.307
73675ION    NA+42080  18.639  20.947  14.148
73676ION    NA+42081  22.656  26.642  13.463
73677ION    NA+42082  10.430  42.494  13.594
73678ION    NA+42083  27.245  27.772  10.897
73679ION    NA+42084  13.522  27.995   3.645
73680ION    NA+42085  37.478  15.513   3.168
73681ION    NA+42086   2.389   4.989  13.248
73682ION    NA+42087   6.303  40.642  14.814
73683ION    NA+42088  43.489  28.644   0.201
73684ION    NA+42089   7.365  31.468  14.205
73685ION    NA+42090   8.860  41.721  13.954
73686ION    NA+42091  14.754  40.502   5.375
73687ION    NA+42092   4.212  30.481  12.798
73688ION    NA+42093  38.647  11.182   0.840
73689ION    NA+42094  26.872  41.550   2.192
73690ION    NA+42095  16.593   8.912   1.261
73691ION    NA+42096  23.053  19.851  13.805
73692ION    NA+42097  22.506  36.448  11.794
73693ION    NA+42098  15.322  35.457   2.732
73694ION    NA+42099  24.176  30.405   0.803
73695ION    NA+42100  32.071  40.849  11.957
73696ION    NA+42101  34.592  42.997   2.459
73697ION    NA+42102  23.236  30.236  11.048
73698ION    NA+42103   7.665  22.170  13.411
73699ION    NA+42104  13.029  38.454  11.391
73700ION    NA+42105  37.139   0.987  12.438
73701ION    NA+42106  40.584  42.262   4.097
73702ION    NA+42107  23.629   7.036   2.626
73703ION    NA+42108  36.325  31.259   1.808
73704ION    NA+42109  44.317  42.847   4.581
73705ION    NA+42110  30.666  35.917  12.560
73706ION    NA+42111  26.549  36.346   3.818
73707ION    NA+42112  29.689  40.055   2.790
73708ION    NA+42113   1.565  25.462   1.793
73709ION    NA+42114   2.727   0.357  12.417
73710ION    NA+42115   5.080   8.313  11.628
73711ION    NA+42116  44.466  42.138  13.887
73712ION    NA+42117  12.873  36.626  13.522
73713ION    NA+42118  16.710  40.213  11.513
73714ION    NA+42119  41.447  30.361   1.652
73715ION    NA+42120  33.649  35.405   3.220
73716ION    NA+42121  12.142   5.781   2.723
73717ION    NA+42122  21.201  10.298   2.550
73718ION    NA+42123  16.802  34.292  12.794
73719ION    NA+42124   1.783  42.821  14.476
73720ION    NA+42125  28.368  16.273   9.828
73721ION    NA+42126  10.604  35.612   2.427
73722ION    NA+42127  21.325  20.776   1.742
73723ION    NA+42128  33.790  36.128  11.128
73724ION    NA+42129  25.027  20.304   5.332
73725ION    NA+42130  33.017  28.790  14.905
73726ION    NA+42131  16.942  19.516  12.575
73727ION    NA+42132  20.114  13.527   0.731
73728ION    NA+42133  33.322   0.616  14.928
73729ION    NA+42134  25.506  20.143   0.984
73730ION    NA+42135   2.782  14.204  12.769
73731ION    NA+42136   9.452  18.506  11.726
73732ION    NA+42137  25.733   7.334   0.735
73733ION    NA+42138  36.449  44.296  13.308
73734ION    NA+42139  23.024  40.872   1.810
73735ION    NA+42140  22.978  30.589   3.257
73736ION    NA+42141  12.810  14.787   0.783
73737ION    NA+42142  12.401  24.864   0.941
73738ION    NA+42143  30.608  28.382  12.354
73739ION    NA+42144  28.209   0.486   3.418
73740ION    NA+42145   1.987  26.708   3.312
73741ION    NA+42146  32.108  37.526  11.599
73742ION    NA+42147  25.314   3.902   0.892
73743ION    NA+42148  19.234  11.425   3.056
73744ION    NA+42149  12.135  27.125   2.330
73745ION    NA+42150  21.397   4.677   0.083
73746ION    NA+42151   1.047  35.964   1.314
73747ION    NA+42152  16.908  10.139   1.006
73748ION    NA+42153   5.663  11.864   4.941
73749ION    NA+42154  33.612  41.786   1.752
73750ION    NA+42155  34.180  28.400  12.676
73751ION    NA+42156  34.442  18.742  11.021
73752ION    NA+42157  34.936  25.308  11.342
73753ION    NA+42158   6.218  31.595  11.861
73754ION    NA+42159  36.758  26.853  10.810
73755ION    NA+42160  23.282   6.881  14.750
73756ION    NA+42161  24.690  36.380   0.421
73757ION    NA+42162   7.428  32.392  13.035
73758ION    NA+42163  27.785  18.611  10.776
73759ION    CL-42164   6.679   0.046   1.403
73760ION    CL-42165   9.167  37.153   2.711
73761ION    CL-42166   1.314  13.282  12.221
73762ION    CL-42167  33.901  35.805   0.737
73763ION    CL-42168   1.253  29.585  14.551
73764ION    CL-42169  17.919  34.311  11.588
73765ION    CL-42170   6.102  27.922  13.210
73766ION    CL-42171  12.441  16.261   4.919
73767ION    CL-42172   4.090   4.724  14.827
73768ION    CL-42173  38.971  14.160   9.856
73769ION    CL-42174   9.280  34.471   4.174
73770ION    CL-42175  23.093   0.192   0.476
73771ION    CL-42176  42.620  28.474  14.287
73772ION    CL-42177  44.746   3.245  14.044
73773ION    CL-42178  35.288  16.380  11.890
73774ION    CL-42179  39.441  36.564  12.616
73775ION    CL-42180   2.667   6.831  11.604
73776ION    CL-42181   6.967  22.262   3.578
73777ION    CL-42182  15.413  34.551  10.256
73778ION    CL-42183  25.269   6.661  10.813
73779ION    CL-42184  24.904  11.658   4.997
73780ION    CL-42185  19.410   0.309   1.063
73781ION    CL-42186   5.887  10.793   5.066
73782ION    CL-42187  37.514  24.902  12.924
73783ION    CL-42188   1.823  26.951  14.579
73784ION    CL-42189  36.043  31.130   0.210
73785ION    CL-42190  38.467  27.393  11.677
73786ION    CL-42191  10.115  37.922  13.985
73787ION    CL-42192  30.401  26.020  11.137
73788ION    CL-42193  29.983  38.555  10.645
73789ION    CL-42194  16.230  37.822  12.010
73790ION    CL-42195   1.487  28.663  11.644
73791ION    CL-42196   8.738  41.387   2.205
73792ION    CL-42197  40.775  17.143  13.418
73793ION    CL-42198  44.938  12.016   0.256
73794ION    CL-42199   9.493  35.061   9.889
73795ION    CL-42200  37.147  41.641   2.107
73796ION    CL-42201   0.149  21.946  12.894
73797ION    CL-42202  12.210  27.311   1.917
73798ION    CL-42203  34.707  18.399  11.239
73799ION    CL-42204  18.532  20.734   2.326
73800ION    CL-42205  35.570  26.615  11.294
73801ION    CL-42206  44.051  29.461  13.932
73802ION    CL-42207   2.014   1.004   4.107
73803ION    CL-42208   3.147  35.872  13.554
73804ION    CL-42209  40.746  13.171   1.745
73805ION    CL-42210  33.789  21.139   4.172
73806ION    CL-42211  39.308  30.367   3.269
73807ION    CL-42212  27.769   7.365  11.183
73808ION    CL-42213  24.258  30.952  11.555
73809ION    CL-42214  10.790  24.962  14.789
73810ION    CL-42215  40.199  40.171  10.751
73811ION    CL-42216  35.829  28.954  10.560
73812ION    CL-42217   2.373   2.880  10.162
73813ION    CL-42218  31.173  43.718   2.828
73814ION    CL-42219  17.907  22.476  13.368
73815ION    CL-42220  21.506  43.661  14.362
73816ION    CL-42221  35.451  22.756   3.546
73817ION    CL-42222   4.204  24.314   1.074
73818ION    CL-42223  43.229  12.822   3.245
73819ION    CL-42224  37.312  36.235  11.604
73820ION    CL-42225  25.666   0.611   3.672
73821ION    CL-42226  39.999  28.900   2.293
73822ION    CL-42227  35.364  13.978   1.649
73823ION    CL-42228   9.629  11.442  14.261
73824ION    CL-42229  26.417  12.151   4.155
73825ION    CL-42230   3.749  11.601   2.435
73826ION    CL-42231  33.763  22.183  10.796
73827ION    CL-42232   7.071  20.371   3.907
73828ION    CL-42233  26.758  37.810   3.699
73829ION    CL-42234  30.277  19.332   3.112
73830ION    CL-42235  41.929  36.253  10.707
73831ION    CL-42236  23.720  32.953  11.408
73832ION    CL-42237  17.176   6.572   4.647
73833ION    CL-42238  23.762  37.751   4.933
73834ION    CL-42239  34.310  16.289  12.110
73835ION    CL-42240  43.686  42.485   2.099
73836ION    CL-42241   6.115  18.765   0.475
73837ION    CL-42242   6.307  17.748   0.511
73838ION    CL-42243  36.761  18.252   4.917
73839ION    CL-42244  24.941  26.154   3.318
73840ION    CL-42245  33.323   4.021   1.641
73841ION    CL-42246   3.666  32.451   2.183
73842ION    CL-42247  24.207  30.933  14.766
73843ION    CL-42248   5.923  40.740  10.802
73844ION    CL-42249  44.709   1.381  10.918
73845ION    CL-42250   5.562  11.214  11.102
73846ION    CL-42251  13.583  24.124  12.619
73847ION    CL-42252   7.721  18.817  12.507
73848ION    CL-42253  40.462  38.223  12.289
73849ION    CL-42254  41.582   2.436   0.094
73850ION    CL-42255  11.500  23.829  12.616
73851ION    CL-42256  15.980  43.715  14.170
73852ION    CL-42257  18.459  20.536  14.076
73853ION    CL-42258  35.192   4.913   0.821
73854ION    CL-42259  17.550  24.522  14.028
73855ION    CL-42260  40.125  18.285  14.382
73856ION    CL-42261  26.278   4.047  14.782
73857ION    CL-42262  37.887  29.569  11.186
73858ION    CL-42263  30.886   7.658   2.808
73859ION    CL-42264  28.817  35.723  11.273
73860ION    CL-42265  42.841   9.653  14.211
73861ION    CL-42266   9.964  44.385   0.645
73862ION    CL-42267   4.706  18.775   1.191
73863ION    CL-42268  23.647  30.318  13.155
73864ION    CL-42269  42.130  37.336  11.442
73865ION    CL-42270  10.099   2.916  12.954
73866ION    CL-42271  37.415   2.897   1.830
73867ION    CL-42272   9.969  25.296   1.114
73868ION    CL-42273   4.210  40.909  13.187
73869ION    CL-42274  40.655  40.869  11.758
73870ION    CL-42275   5.695  10.089  11.219
73871ION    CL-42276  18.268  27.653   0.323
73872ION    CL-42277  41.120   9.625  14.972
73873ION    CL-42278  19.647   4.656   2.749
73874ION    CL-42279  27.518  37.666  10.494
73875ION    CL-42280  20.459  36.036   1.742
73876ION    CL-42281  14.575   6.446  10.927
73877ION    CL-42282  43.897  18.227  11.240
73878ION    CL-42283  13.979  14.614  14.393
73879ION    CL-42284   6.821  32.752   2.660
73880ION    CL-42285  20.776  21.839   1.365
73881ION    CL-42286   4.972   5.115   2.570
73882ION    CL-42287  29.127   3.424   0.951
73883ION    CL-42288   2.485  16.793  14.181
73884ION    CL-42289   2.183  41.353   4.793
73885ION    CL-42290  18.451   1.476  12.809
73886ION    CL-42291  32.056  23.131  11.488
73887ION    CL-42292  43.296  22.203  14.874
73888ION    CL-42293  23.628  29.519  14.808
73889ION    CL-42294  43.447  33.199   4.873
73890ION    CL-42295  16.306  42.117  14.104
73891ION    CL-42296  18.373   6.615  10.174
73892ION    CL-42297  43.892  23.555   3.393
73893ION    CL-42298  36.519   0.093  12.640
73894ION    CL-42299  10.802   7.073  11.908
73895ION    CL-42300  19.828   1.331   4.565
73896ION    CL-42301  41.167  10.970   2.889
73897ION    CL-42302  31.240  42.010  14.755
73898ION    CL-42303   8.652  26.124  14.691
73899ION    CL-42304  39.186  13.712  11.316
73900ION    CL-42305  28.928  30.708  13.824
73901ION    CL-42306  13.242   2.549  10.642
73902ION    CL-42307  27.090  34.088   1.914
73903ION    CL-42308  19.539   0.608  11.072
73904ION    CL-42309   1.637   3.418  12.512
73905ION    CL-42310  31.397  41.473  11.096
73906ION    CL-42311   6.433  40.521   3.216
73907ION    CL-42312  23.087  29.472   0.935
73908ION    CL-42313  41.700  27.616   2.388
73909ION    CL-42314  20.835  27.965  10.237
73910ION    CL-42315  20.385  41.036  10.127
73911ION    CL-42316  19.200  24.611  14.981
73912ION    CL-42317  43.238  43.280   4.272
73913ION    CL-42318  26.975  38.392  11.987
73914ION    CL-42319  25.824  41.070  10.874
73915ION    CL-42320  17.600  38.499  14.288
73916ION    CL-42321  44.540  40.775   0.909
73917ION    CL-42322   6.351   3.968   1.679
73918ION    CL-42323   6.798  28.199   3.723
73919ION    CL-42324  32.784  17.112  13.028
73920ION    CL-42325  37.240  21.288   4.177
73921ION    CL-42326  31.167   1.067  14.520
73922ION    CL-42327  21.580  30.512   5.187
73923ION    CL-42328  17.735  15.505  13.017
73924ION    CL-42329  28.280  39.009  10.977
73925ION    CL-42330  16.287  42.923  14.697
73926ION    CL-42331  22.956  20.614  11.819
73927ION    CL-42332  19.252  21.114   3.838
73928ION    CL-42333  28.704  23.554   4.307
73929ION    CL-42334  33.613  27.512   2.342
73930ION    CL-42335  31.429   9.153   0.686
73931ION    CL-42336  34.679  35.923  13.485
73932ION    CL-42337  26.324  34.655   0.885
73933ION    CL-42338   7.371  23.554  14.256
73934ION    CL-42339  17.218  19.532   9.929
73935ION    CL-42340  44.668  21.201   1.833
73936ION    CL-42341  16.587  23.122   1.591
73937ION    CL-42342  36.919  41.780  10.541
73938ION    CL-42343  28.911  31.452  14.492
73939ION    CL-42344   5.282  36.550   1.230
73940ION    CL-42345  33.441  39.422  14.033
73941ION    CL-42346  28.094  28.677   1.705
73942ION    CL-42347  21.661  39.433   1.425
73943ION    CL-42348  18.004  21.085   1.680
73944ION    CL-42349  31.352  21.436   0.919
73945ION    CL-42350  19.395  26.344   4.238
73946ION    CL-42351   1.008  25.156   2.759
73947ION    CL-42352   5.189  44.587  14.648
73948ION    CL-42353  26.075  14.365  14.169
73949ION    CL-42354  19.897  25.226  12.648
73950ION    CL-42355  16.332  17.087   2.412
73951ION    CL-42356  13.890  17.212  10.492
73952ION    CL-42357   3.750  13.399   0.437
73953ION    CL-42358  38.077  29.116  14.466
73954ION    CL-42359  21.869   9.562   1.904
73955ION    CL-42360  13.958  32.581   2.955
73956ION    CL-42361  37.998  44.959  11.856
73957ION    CL-42362  37.601   3.116   4.249
73958ION    CL-42363  40.400  15.624   4.644
73959ION    CL-42364   2.941  20.772   1.362
73960ION    CL-42365  17.301  31.425  14.449
73961ION    CL-42366  38.354   5.877   3.213
73962ION    CL-42367  40.010  22.140   3.108
73963ION    CL-42368  13.270  43.586   3.241
73964ION    CL-42369  41.818  26.735  13.955
73965ION    CL-42370   9.149  15.903   0.044
73966ION    CL-42371   1.938  34.713   2.244
73967ION    CL-42372  27.642   6.903  13.001
73968ION    CL-42373  10.823  25.654   1.675
73969ION    CL-42374  36.749  26.617  10.423
73970ION    CL-42375  30.255  26.964   0.864
73971ION    CL-42376  28.467  21.989  12.170
73972ION    CL-42377  30.110  42.913  12.421
73973ION    CL-42378  21.229  24.036   4.897
73974ION    CL-42379  14.218  20.743  14.910
73975ION    CL-42380  41.943  22.480   9.915
73976ION    CL-42381   9.314  10.966  10.974
73977ION    CL-42382  14.592   6.053  12.467
73978ION    CL-42383  18.196  29.690   3.091
73979ION    CL-42384  27.778  15.403  14.905
73980ION    CL-42385  38.049   5.999   2.196
73981ION    CL-42386  10.870   7.610   0.313
73982ION    CL-42387  16.797  15.940  13.886
73983ION    CL-42388  40.625  10.758   2.227
73984ION    CL-42389  28.184  23.470   1.765
73985ION    CL-42390  39.315  11.358   3.239
73986ION    CL-42391  31.251   4.069   0.393
73987ION    CL-42392  33.397  36.293  11.256
73988ION    CL-42393   6.662  18.676  13.469
73989ION    CL-42394  43.537  16.661   0.910
73990ION    CL-42395  20.089   4.769  10.439
73991ION    CL-42396   0.313  27.761  14.934
73992ION    CL-42397  31.573  14.903   2.724
73993ION    CL-42398  27.813  28.853  11.307
73994ION    CL-42399   4.271  40.117   1.532
73995ION    CL-42400   9.870   0.817  14.782
73996ION    CL-42401  16.745   4.460   3.544
73997ION    CL-42402  43.472  32.193  14.517
73998ION    CL-42403  35.978  27.865   3.711
73999ION    CL-42404  43.339  32.325  12.004
74000ION    CL-42405  33.887  10.645  13.680
74001ION    CL-42406  30.707   7.641   0.976
74002ION    CL-42407  18.131  28.172  12.778
74003ION    CL-42408   3.718  22.341   0.138
74004ION    CL-42409  22.182  29.925  11.919
74005ION    CL-42410   0.131  15.212  14.416
74006ION    CL-42411  19.438  16.501  12.917
74007ION    CL-42412  10.842  42.607  11.165
74008ION    CL-42413  23.946  20.771  13.127
74009ION    CL-42414   4.358  11.907  13.926
74010ION    CL-42415  18.888  23.936  14.044
74011ION    CL-42416   2.007  26.446   3.674
74012ION    CL-42417  18.638  34.859   2.141
74013ION    CL-42418  18.824  37.663  11.474
74014ION    CL-42419  31.430  12.719  11.167
74015ION    CL-42420  41.789  14.520  11.129
74016ION    CL-42421  24.367  34.219  12.890
74017ION    CL-42422  26.652  29.412  11.563
74018ION    CL-42423  44.062  21.391  14.701
74019ION    CL-42424   6.892   4.501  14.881
74020ION    CL-42425   5.331  27.663  14.522
74021ION    CL-42426  37.880  44.528  12.751
74022ION    CL-42427  31.649  41.638   5.429
74023ION    CL-42428   8.951  14.722  11.635
74024ION    CL-42429  29.142  31.931  10.702
74025ION    CL-42430  41.910   4.030   4.325
74026ION    CL-42431  25.269  10.773   0.896
74027ION    CL-42432  41.581  12.941   1.708
74028ION    CL-42433  32.325   0.434   5.124
74029ION    CL-42434  15.621   3.806   2.418
74030ION    CL-42435  37.492  11.272   5.042
74031ION    CL-42436   8.959  34.172   1.772
74032ION    CL-42437  23.496  27.576  11.547
74033ION    CL-42438  15.766  28.583   3.180
74034ION    CL-42439  43.535   3.531   2.856
74035ION    CL-42440  33.413  21.035  10.806
74036ION    CL-42441   7.020  34.960   0.816
74037ION    CL-42442  37.186  16.091   1.645
74038ION    CL-42443   5.998  20.567  14.198
74039ION    CL-42444  16.071  37.848   5.149
74040ION    CL-42445  17.010   6.766   0.721
74041ION    CL-42446  43.260  12.718   0.511
74042ION    CL-42447  34.371  32.076  11.477
74043ION    CL-42448   0.114  38.954   3.076
74044ION    CL-42449  23.346  40.925   3.680
74045ION    CL-42450   4.363   3.271  14.821
74046ION    CL-42451  36.559  25.342  14.126
74047ION    CL-42452  34.882  43.307   0.519
74048ION    CL-42453  12.262   1.812  11.574
74049ION    CL-42454  38.672  11.031   2.493
74050ION    CL-42455  20.350  44.784   4.702
74051ION    CL-42456   2.821  11.755   4.962
74052ION    CL-42457  39.543  32.399  11.782
74053ION    CL-42458  36.798  23.849   4.888
74054ION    CL-42459  14.670  42.170  14.526
74055ION    CL-42460  21.860   1.357   3.861
74056ION    CL-42461  37.418   2.312  11.357
74057ION    CL-42462  20.171  30.138  13.323
74058ION    CL-42463   1.887  19.606   1.698
74059ION    CL-42464  27.502  41.691   4.113
74060ION    CL-42465  43.393  38.107   0.960
74061ION    CL-42466   1.721  36.403   4.752
74062ION    CL-42467  30.169  23.482  13.449
74063ION    CL-42468  30.654  20.320   0.678
74064ION    CL-42469  28.867  23.075  12.862
74065ION    CL-42470  28.135  24.355   1.569
74066ION    CL-42471  29.984   2.265   2.948
74067ION    CL-42472  30.956   9.051  14.595
74068ION    CL-42473   9.184   8.616  10.780
74069ION    CL-42474  32.898  44.044  13.583
74070ION    CL-42475  32.824  14.601   5.069
74071ION    CL-42476   8.580  23.908  14.588
74072ION    CL-42477  25.195  10.832   4.595
74073ION    CL-42478  34.977  27.193   3.104
74074ION    CL-42479  33.466  18.480   1.848
74075ION    CL-42480   6.854   7.968   0.414
74076ION    CL-42481  42.017   3.240   3.722
74077ION    CL-42482  21.506  21.988  14.602
74078ION    CL-42483  29.106  19.132   3.049
74079ION    CL-42484  44.719  26.286   1.561
74080ION    CL-42485  21.422  40.026  10.417
74081ION    CL-42486   1.769  13.566   3.091
74082ION    CL-42487  19.320   2.924  14.443
74083ION    CL-42488  37.118  17.711   3.450
74084ION    CL-42489   3.719  19.188   2.635
74085ION    CL-42490  11.378  43.835   2.346
74086ION    CL-42491  30.204  22.913  10.682
74087ION    CL-42492  43.473  44.384   4.335
74088ION    CL-42493  12.652  43.031  12.531
74089ION    CL-42494  41.990  25.396   2.826
74090ION    CL-42495  13.304   8.816  10.404
74091ION    CL-42496  13.123  11.367   3.581
74092ION    CL-42497  31.169  10.231  13.420
74093ION    CL-42498  41.555  32.593  14.382
74094ION    CL-42499  21.342  44.897  12.489
74095ION    CL-42500   5.575  34.208  14.401
74096ION    CL-42501  19.378   2.261   2.335
74097ION    CL-42502  18.834   3.136   0.800
74098ION    CL-42503  23.178   9.570  12.042
74099ION    CL-42504   3.217   4.819  14.657
74100ION    CL-42505  44.854   7.034  13.490
74101ION    CL-42506   5.473   5.123   4.223
74102ION    CL-42507  43.521  35.717   0.909
74103ION    CL-42508   1.485  28.917  13.843
74104ION    CL-42509  32.655   0.208   3.131
74105ION    CL-42510  23.562  43.958   5.017
74106ION    CL-42511  44.511  16.418  14.112
74107ION    CL-42512  43.937  18.593  10.318
74108ION    CL-42513  35.376  28.665   3.666
74109ION    CL-42514  42.024  25.738  13.806
74110ION    CL-42515  18.678  38.482  11.111
74111ION    CL-42516  29.170  12.791  14.269
74112ION    CL-42517  18.591   4.913   3.097
74113ION    CL-42518  40.119  31.532  12.575
74114ION    CL-42519   4.811  23.045   0.520
74115ION    CL-42520  11.518   8.015   2.353
74116ION    CL-42521  42.599   5.464   4.623
74117ION    CL-42522  43.269   4.485  11.539
74118ION    CL-42523  26.581   5.686  12.217
74119ION    CL-42524  36.306  20.243   1.540
74120ION    CL-42525  18.008  34.707  13.421
74121ION    CL-42526  17.773  36.050   5.133
74122ION    CL-42527  11.326   7.889  13.473
74123ION    CL-42528  26.470  16.686  12.457
74124ION    CL-42529  38.540   9.005   2.743
74125ION    CL-42530  40.469   4.342  14.391
74126ION    CL-42531  34.017   6.231   0.831
74127ION    CL-42532   2.232   6.143   3.011
74128ION    CL-42533   0.698   5.904  10.771
74129ION    CL-42534  31.007   0.172  14.697
74130ION    CL-42535  14.354  19.166  14.915
74131ION    CL-42536  20.328  38.584  13.080
74132ION    CL-42537  12.909   1.036   3.375
74133ION    CL-42538  32.954  22.489  11.052
74134ION    CL-42539  21.552  23.471  14.780
74135ION    CL-42540  37.856  21.949   2.423
74136ION    CL-42541  23.275  32.516   2.167
74137ION    CL-42542   1.313  12.008   9.979
74138ION    CL-42543  31.558   7.879   0.457
74139ION    CL-42544  30.843  33.565  12.847
74140ION    CL-42545  38.493  33.266   2.254
74141ION    CL-42546  32.706   0.389  12.468
74142ION    CL-42547  12.862  29.005   1.416
74143ION    CL-42548  16.695  41.160   0.080
74144ION    CL-42549  26.004   2.447   2.567
74145ION    CL-42550  33.970  28.634   4.505
74146ION    CL-42551  10.246   7.886  12.080
74147ION    CL-42552   5.152   2.580   2.132
74148ION    CL-42553  42.673  29.347   1.745
74149ION    CL-42554  27.495  12.404   4.499
74150ION    CL-42555  40.728  10.439  14.377
74151ION    CL-42556   4.483  29.101   1.001
74152ION    CL-42557  13.304  22.992   1.509
74153ION    CL-42558  33.330   8.084  14.011
74154ION    CL-42559   5.246  36.661  13.078
74155ION    CL-42560  43.930  11.402   4.947
74156ION    CL-42561   0.455  37.872   3.738
74157ION    CL-42562  33.339   4.860   5.028
74158ION    CL-42563  43.296   6.968   4.102
74159ION    CL-42564  15.044  42.177  13.598
74160ION    CL-42565  27.708   7.355   2.397
74161ION    CL-42566  42.428   6.282   4.820
74162ION    CL-42567  33.915  22.130  14.386
74163ION    CL-42568   9.537  20.555   4.330
74164ION    CL-42569  43.293  33.200  11.523
74165ION    CL-42570  18.682  37.636  14.760
74166ION    CL-42571   2.011  20.453   1.180
74167ION    CL-42572  22.500   2.982   3.068
74168ION    CL-42573  25.803  12.157   3.503
74169ION    CL-42574  42.629  35.837  12.406
74170ION    CL-42575   8.860  42.179   3.649
74171ION    CL-42576  19.690  39.908  10.767
74172ION    CL-42577  17.896  24.981   3.573
74173ION    CL-42578  22.889  21.767   0.337
74174ION    CL-42579  33.653  13.222   1.450
74175ION    CL-42580   8.839  21.227  14.032
74176ION    CL-42581  19.249  11.589  10.483
74177ION    CL-42582  37.454  37.115  12.305
74178ION    CL-42583  16.302  17.100  12.170
74179ION    CL-42584  32.842  32.707  11.410
74180ION    CL-42585  33.911   4.930  14.073
74181ION    CL-42586  36.065   2.938  12.137
74182ION    CL-42587  35.203  34.129  12.482
74183ION    CL-42588  17.666  15.577   0.458
74184ION    CL-42589  44.571  39.243  12.877
74185ION    CL-42590  20.706  15.104  13.051
74186ION    CL-42591  13.204  24.652   0.730
74187ION    CL-42592  10.054  14.114   9.708
74188ION    CL-42593  43.744  30.311   1.390
74189ION    CL-42594  21.053  39.725  12.997
74190ION    CL-42595  42.762  39.269  12.981
74191ION    CL-42596  15.516  43.047   2.281
74192ION    CL-42597  12.380  28.308  13.950
74193ION    CL-42598  44.142   7.376  14.739
74194ION    CL-42599  29.501  23.975  14.734
74195ION    CL-42600   5.048  16.008  12.514
74196ION    CL-42601  25.046  31.200   3.594
74197ION    CL-42602  22.721  12.847   0.908
74198ION    CL-42603   2.832  39.763   2.270
74199ION    CL-42604   3.393  31.844  14.394
74200ION    CL-42605   7.102  42.779  10.387
74201ION    CL-42606  38.251   2.280   4.969
74202ION    CL-42607   2.261  39.627   3.158
74203ION    CL-42608  30.446   5.646  12.581
74204ION    CL-42609  10.918   6.198   2.432
74205ION    CL-42610  42.662  29.621  11.464
74206ION    CL-42611   7.169  31.058  14.259
74207ION    CL-42612  11.331  42.112   2.464
74208ION    CL-42613  35.580   6.900   2.716
74209ION    CL-42614  36.722  29.313   1.172
74210ION    CL-42615  39.754   4.359   0.857
74211ION    CL-42616  20.843   0.446   0.864
74212ION    CL-42617  33.936  38.350   1.307
74213ION    CL-42618  18.021  11.482  14.517
74214ION    CL-42619  13.754  13.439   1.858
74215ION    CL-42620  35.902   4.108   3.988
74216ION    CL-42621  40.043  18.374   4.671
74217ION    CL-42622  41.002  39.515   0.953
74218ION    CL-42623  32.628  29.434   2.036
74219ION    CL-42624  40.648   8.191  10.921
74220ION    CL-42625   1.559   0.728  12.939
74221ION    CL-42626  44.590  10.708   4.659
74222ION    CL-42627  20.535  15.304   0.364
74223ION    CL-42628  34.370  19.201  13.330
74224ION    CL-42629   9.999  32.861   9.904
74225ION    CL-42630  14.576  24.596  12.333
74226ION    CL-42631   7.227  25.289   3.806
74227ION    CL-42632   1.000   3.951  10.724
74228ION    CL-42633  41.473  21.003   1.610
74229ION    CL-42634  12.103  12.226   1.388
74230ION    CL-42635  31.124  39.971   2.242
74231ION    CL-42636   0.656  13.228   3.055
74232ION    CL-42637  33.198  37.542   1.063
74233ION    CL-42638  11.605  19.372   2.833
74234ION    CL-42639  40.359  19.539   3.319
74235ION    CL-42640   0.758  28.126   4.235
74236ION    CL-42641  20.844  42.280  13.211
74237ION    CL-42642  23.716  35.443  12.971
74238ION    CL-42643  14.884  24.350  13.252
74239ION    CL-42644  10.853   4.903   4.116
74240ION    CL-42645  31.578   1.266  11.795
74241ION    CL-42646  42.698  21.383   1.569
74242ION    CL-42647  17.148   9.826  13.918
74243ION    CL-42648  28.092  34.805   2.267
74244ION    CL-42649  28.912   9.988   2.358
74245ION    CL-42650  39.942  19.119   4.011
74246ION    CL-42651  42.841  38.472   4.072
74247ION    CL-42652  38.199  35.712   4.945
74248ION    CL-42653  39.176   4.639   3.041
74249ION    CL-42654  27.855   1.666   2.751
74250ION    CL-42655  15.796  27.583   3.180
74251ION    CL-42656   9.182  31.894  10.324
74252ION    CL-42657  22.161  37.909   0.174
74253ION    CL-42658   5.673  10.824   4.000
74254ION    CL-42659  35.486  39.888  10.901
74255ION    CL-42660  44.478  11.411  11.561
74256ION    CL-42661  24.685  16.091   1.687
74257ION    CL-42662  21.272  42.616   4.276
74258ION    CL-42663  11.775  38.271  14.116
74259ION    CL-42664  38.658  38.183  13.729
74260ION    CL-42665  38.596   0.641  12.277
74261ION    CL-42666  14.274  18.566   2.363
74262ION    CL-42667  27.104  31.826  11.255
74263ION    CL-42668  19.776  39.277  14.732
74264ION    CL-42669  43.724  33.724  12.259
74265ION    CL-42670  22.490   2.832   1.233
74266ION    CL-42671  36.422  15.883   0.767
74267ION    CL-42672  41.640   3.850  10.337
74268ION    CL-42673  22.836  20.117   0.381
74269ION    CL-42674  34.400   7.958  10.441
74270ION    CL-42675   9.810  30.139   2.430
74271ION    CL-42676   0.600  14.960   3.648
74272ION    CL-42677  42.413   9.739   1.919
74273ION    CL-42678  12.282  24.516  12.515
74274ION    CL-42679   0.733   2.014   4.849
74275ION    CL-42680  41.755  18.484  11.660
74276ION    CL-42681   3.850   3.378  11.526
74277ION    CL-42682  21.545  22.805  14.026
74278ION    CL-42683  37.478  42.728   3.604
74279ION    CL-42684  25.788  38.860  12.902
74280ION    CL-42685  18.810   2.753  10.762
74281ION    CL-42686   9.774   2.469   5.014
74282ION    CL-42687   4.040  31.892   2.790
74283ION    CL-42688   5.911  36.821   0.210
74284ION    CL-42689  10.646  24.057   3.709
74285ION    CL-42690  14.068  30.115   1.137
74286ION    CL-42691   4.659   9.912  11.364
74287ION    CL-42692  32.935  40.255   2.658
74288ION    CL-42693  17.135  36.517   0.338
74289ION    CL-42694  44.981  22.890   3.201
74290ION    CL-42695  41.935  41.153  13.366
74291ION    CL-42696  36.826   9.191  11.461
74292ION    CL-42697  12.841  27.713  10.653
74293ION    CL-42698  21.939  33.470  10.685
74294ION    CL-42699  24.732  15.656  11.116
74295ION    CL-42700  12.790  31.154   0.316
74296ION    CL-42701   3.084  23.728  12.056
74297ION    CL-42702  37.622  28.816   3.294
74298ION    CL-42703  27.037  20.078   2.143
74299ION    CL-42704  14.870  30.334   9.926
74300ION    CL-42705  22.486  19.805   4.707
74301ION    CL-42706  29.020  36.876   0.537
74302ION    CL-42707  27.326   6.503   0.753
74303ION    CL-42708  15.425  43.437  13.537
74304ION    CL-42709  19.293  42.457   0.142
74305ION    CL-42710  43.772   0.433   0.709
74306ION    CL-42711  36.564   3.303  14.310
74307ION    CL-42712  27.165  29.028  10.795
74308ION    CL-42713  38.750  44.907   1.242
74309ION    CL-42714  15.908  34.307  11.711
74310ION    CL-42715  33.913   5.574   4.614
74311ION    CL-42716  14.305  36.931   3.161
74312ION    CL-42717  30.744  28.807  12.414
74313ION    CL-42718   8.345  32.650   3.126
74314ION    CL-42719  42.992  23.530   1.218
74315ION    CL-42720   5.974   5.585  12.139
74316ION    CL-42721  27.242   1.343   0.888
74317ION    CL-42722  18.115  21.371  12.567
74318ION    CL-42723  30.494  24.744   3.752
74319ION    CL-42724  12.528  24.187   4.164
74320ION    CL-42725  26.125   3.328  11.705
74321ION    CL-42726  22.502  42.820   0.504
74322ION    CL-42727  25.004  42.610  10.337
74323ION    CL-42728  29.370  35.722  13.999
74324ION    CL-42729   0.882  38.116  11.628
74325ION    CL-42730   9.865  39.923  13.577
74326ION    CL-42731  42.063   5.375  11.576
74327ION    CL-42732   2.043  40.164   0.806
74328ION    CL-42733  27.308  28.211  11.003
74329ION    CL-42734   6.314  10.416   2.688
74330ION    CL-42735  34.711   1.207   1.815
74331ION    CL-42736  22.165  12.610  14.363
74332ION    CL-42737  12.636  37.044   2.016
74333ION    CL-42738  17.622  37.674  12.509
74334ION    CL-42739   2.359  15.590   2.319
74335ION    CL-42740  31.455  37.721   3.421
74336ION    CL-42741  40.411  36.251  11.153
74337ION    CL-42742   0.054  21.044  11.053
74338ION    CL-42743   0.374  19.151  13.375
74339ION    CL-42744   9.164  42.816  12.127
74340ION    CL-42745  38.075  27.730   4.822
74341ION    CL-42746  12.834  16.846   4.129
74342ION    CL-42747  40.551   9.073   1.849
74343ION    CL-42748  19.504  27.890   2.190
74344ION    CL-42749  30.060  25.998   1.604
74345ION    CL-42750   4.503   1.403   4.895
74346ION    CL-42751  35.633  41.446  14.578
74347ION    CL-42752  28.649  26.053   0.274
74348ION    CL-42753  34.266  29.827  12.735
74349ION    CL-42754  26.839  24.886  14.011
74350ION    CL-42755   8.683  35.389  13.493
74351ION    CL-42756   5.661   2.968  14.942
74352ION    CL-42757   4.248  22.537  13.442
74353ION    CL-42758  42.994  36.613   1.838
74354ION    CL-42759  24.226  43.435  11.061
74355ION    CL-42760   3.956  37.656   2.327
74356ION    CL-42761  29.682  44.762  12.528
74357ION    CL-42762  18.280  40.001   0.966
74358ION    CL-42763  36.172  38.958   0.295
74359ION    CL-42764  25.906  10.378  13.043
74360ION    CL-42765  22.656  43.192  14.589
74361ION    CL-42766  21.277  31.331   1.471
74362ION    CL-42767  42.182  34.103  11.243
74363ION    CL-42768  36.573   6.915  12.330
74364ION    CL-42769  22.569  10.140   3.060
74365ION    CL-42770   5.552   0.303  14.074
74366ION    CL-42771   3.926   8.681  13.759
74367ION    CL-42772  14.204   1.560  14.736
74368ION    CL-42773  17.009  35.221  10.697
74369ION    CL-42774   9.901  31.673   4.630
74370ION    CL-42775   8.783  14.817  10.470
74371ION    CL-42776  10.393  43.444   1.243
74372ION    CL-42777  12.385  13.604   3.544
74373ION    CL-42778  30.977  38.271   3.012
74374ION    CL-42779  18.079   8.444   2.676
74375ION    CL-42780  33.981  27.020   4.500
74376ION    CL-42781  12.348  37.960   0.846
74377ION    CL-42782  10.234  18.577  13.519
74378ION    CL-42783   4.136  42.804  11.919
74379ION    CL-42784   5.091  37.561   0.734
74380ION    CL-42785  32.725  38.463   3.307
74381ION    CL-42786   5.382  13.870  13.134
74382ION    CL-42787  40.971  29.457  11.830
74383ION    CL-42788  11.611   3.885   1.751
74384ION    CL-42789  15.733  30.736   0.241
74385ION    CL-42790   6.927   5.948  11.466
74386ION    CL-42791  28.396   6.979   1.776
74387ION    CL-42792  18.213  23.655  14.789
74388ION    CL-42793  32.190  39.329   4.818
74389ION    CL-42794  37.980  32.359  12.442
74390ION    CL-42795   1.039  21.604  12.572
74391ION    CL-42796  31.556  23.919  11.127
74392ION    CL-42797  21.467   9.283   3.324
74393ION    CL-42798  26.376  26.899  14.896
74394ION    CL-42799  39.964  23.646   1.480
74395ION    CL-42800  28.199  44.523   4.625
74396ION    CL-42801  35.117  15.715   4.431
74397ION    CL-42802  13.914  25.160   0.243
74398ION    CL-42803  42.585   8.516   4.134
74399ION    CL-42804  22.121  33.741   1.811
74400ION    CL-42805  22.591   1.389  10.216
74401ION    CL-42806   6.754  11.770   1.899
74402ION    CL-42807  24.112  33.534   3.148
74403ION    CL-42808   9.691  30.677  12.374
74404ION    CL-42809  19.078  13.713  14.613
74405ION    CL-42810  27.968  42.312   0.424
74406ION    CL-42811   7.998  11.814  10.417
74407ION    CL-42812  24.247  41.009   4.539
74408ION    CL-42813  38.011   8.814  11.457
74409ION    CL-42814  34.174  15.069  10.338
74410ION    CL-42815  30.910  34.618   2.355
74411ION    CL-42816  33.202  19.274   2.936
74412ION    CL-42817  11.929  31.502  10.928
74413ION    CL-42818   3.859  25.140   1.052
74414ION    CL-42819  17.780  18.634  12.746
74415ION    CL-42820  26.595  19.608  10.728
74416ION    CL-42821   9.965   9.370  13.938
74417ION    CL-42822  21.288  38.192  10.954
74418ION    CL-42823  25.233  16.371  10.629
74419ION    CL-42824  21.343  25.288  12.643
74420ION    CL-42825  34.076  44.593   4.098
74421ION    CL-42826  19.996  32.813  13.810
74422ION    CL-42827  17.069  34.221  12.444
74423ION    CL-42828  36.078  22.773  12.977
74424ION    CL-42829   7.017  25.421  11.680
74425ION    CL-42830  17.197  32.402   1.687
74426ION    CL-42831   7.765  19.495   2.045
74427ION    CL-42832  25.737  24.430   3.403
74428ION    CL-42833  25.164  21.508   2.867
74429ION    CL-42834  38.606   6.242  14.364
74430ION    CL-42835  19.156  35.208   2.923
74431ION    CL-42836  33.086  20.705   1.618
74432ION    CL-42837  22.833  13.592  12.469
74433ION    CL-42838  31.633  35.883  11.942
74434ION    CL-42839  25.665   0.053   2.125
74435ION    CL-42840  38.009   6.657   0.138
74436ION    CL-42841  10.320  26.946  11.573
74437ION    CL-42842  44.291  15.200  11.207
74438ION    CL-42843  13.407  20.420   5.004
74439ION    CL-42844  16.701  16.375  10.799
74440ION    CL-42845   7.830  14.292   4.979
74441ION    CL-42846  34.432   1.030   0.545
74442ION    CL-42847  33.783  14.227  12.566
74443ION    CL-42848  12.633   9.427  12.970
74444ION    CL-42849   2.337  44.674  11.523
74445ION    CL-42850  40.533   6.741   0.791
74446ION    CL-42851   2.512  44.837  10.552
74447ION    CL-42852  34.863  18.914  10.900
74448ION    CL-42853  40.818  42.830   2.247
74449ION    CL-42854   4.778  41.546  12.538
74450ION    CL-42855   4.838  33.593   2.935
74451ION    CL-42856  29.932  44.009   2.099
74452ION    CL-42857   5.486  27.945   3.841
74453ION    CL-42858  20.263   0.425  10.672
74454ION    CL-42859  17.157  13.099  13.918
74455ION    CL-42860  10.181  23.124  12.930
74456ION    CL-42861  14.166  20.051  13.496
74457ION    CL-42862  23.720  26.029  10.302
74458ION    CL-42863  33.583  39.877   4.237
74459ION    CL-42864  20.375  31.254   3.281
74460ION    CL-42865  31.494   9.149  11.952
74461ION    CL-42866  44.961  18.295   1.379
74462ION    CL-42867  26.257   6.419   4.217
74463ION    CL-42868  17.762   7.144  14.489
74464ION    CL-42869   1.446  17.137  12.106
74465ION    CL-42870  33.109  26.426  13.524
74466ION    CL-42871   0.645  25.003  12.487
74467ION    CL-42872  10.721  41.295  13.939
74468ION    CL-42873  25.887  11.728  12.105
74469ION    CL-42874  31.898   7.122  10.908
74470ION    CL-42875  20.100  42.411   2.004
74471ION    CL-42876  44.932  43.062   0.378
74472ION    CL-42877  25.076   8.974  11.895
74473ION    CL-42878  22.150   7.792   1.360
74474ION    CL-42879  18.682  13.846  11.109
74475ION    CL-42880  11.666  22.079   2.719
74476ION    CL-42881   5.946  11.212   2.086
74477ION    CL-42882  18.363   8.258   3.643
74478ION    CL-42883  12.805  29.512  12.458
74479ION    CL-42884  31.893  29.516  11.525
74480ION    CL-42885  32.147  18.559  14.459
74481ION    CL-42886  10.007  42.075  14.878
74482ION    CL-42887  33.180   8.731  14.656
74483ION    CL-42888  20.225  17.117  12.887
74484ION    CL-42889  23.395  38.231   0.263
74485ION    CL-42890  42.163   7.672   1.716
74486ION    CL-42891   3.338  42.769   9.844
74487ION    CL-42892  36.577  16.073   2.536
74488ION    CL-42893  19.120  38.088   3.369
74489ION    CL-42894  28.111  35.452  13.949
74490ION    CL-42895  34.534  28.125  12.708
74491ION    CL-42896  40.831  32.700   2.613
74492ION    CL-42897  27.952  41.274   3.255
74493ION    CL-42898   6.165  31.059  14.628
74494ION    CL-42899   0.376  26.134   1.056
74495ION    CL-42900  13.243  30.113  11.080
74496ION    CL-42901   4.020  14.588  12.205
74497ION    CL-42902  40.854  28.248   0.888
74498ION    CL-42903  24.325  28.220   4.171
74499ION    CL-42904  16.150  42.479   0.833
74500ION    CL-42905  29.920   4.041   4.272
74501ION    CL-42906   5.944  31.242  11.879
74502ION    CL-42907   7.340  40.003  11.050
74503ION    CL-42908  42.439   7.248   9.844
74504ION    CL-42909   1.984   1.440   0.348
74505ION    CL-42910  16.767   0.780   3.046
74506ION    CL-42911  22.933  26.432   1.797
74507ION    CL-42912  11.449  33.595   1.329
74508ION    CL-42913  13.599   8.863  12.656
74509ION    CL-42914  37.426   2.276   4.926
74510ION    CL-42915  43.370  30.519   0.486
74511ION    CL-42916  24.084  28.183  14.991
74512ION    CL-42917  19.091  25.042  11.998
74513ION    CL-42918  22.236  24.253   3.170
74514ION    CL-42919  11.150  44.710   0.016
74515ION    CL-42920  26.276  44.491   2.761
74516ION    CL-42921  19.684   4.094   1.185
74517ION    CL-42922   6.721  31.447  12.917
74518ION    CL-42923  41.813  10.301   0.225
74519ION    CL-42924  37.723  32.474  11.122
74520ION    CL-42925  28.077  41.341  11.037
74521ION    CL-42926  24.957  35.015   3.910
74522ION    CL-42927  10.407  37.186   4.071
74523ION    CL-42928  15.075  34.515  11.198
74524ION    CL-42929   0.618  19.735  11.623
74525ION    CL-42930   8.542  30.811  11.514
74526ION    CL-42931   2.841  13.722  10.736
74527ION    CL-42932  43.455  29.287  11.192
74528ION    CL-42933   3.648  12.049  10.700
74529ION    CL-42934  10.689   6.175  11.382
74530ION    CL-42935  18.251  16.874  12.076
74531ION    CL-42936  18.417  16.855   2.078
74532ION    CL-42937  23.724   2.337   0.339
74533ION    CL-42938  29.126  16.692  11.661
74534ION    CL-42939  44.057  21.841  10.436
74535ION    CL-42940  11.067   1.861  14.958
74536ION    CL-42941   7.136  10.151   0.877
74537ION    CL-42942  44.386   8.393  11.493
74538ION    CL-42943  30.656  40.957   1.888
74539ION    CL-42944  25.004  26.734  13.339
74540ION    CL-42945  39.608   4.507   1.835
74541ION    CL-42946  15.324  20.164   3.250
74542ION    CL-42947  38.334  39.794  13.733
74543ION    CL-42948  10.643   3.330   3.947
74544ION    CL-42949  21.938   9.159   4.846
74545ION    CL-42950  33.661   0.885   0.066
74546ION    CL-42951  28.364  40.267  10.815
74547ION    CL-42952  40.626   6.264  11.368
74548ION    CL-42953   5.879  15.345  11.361
74549ION    CL-42954  38.372  11.771   3.254
74550ION    CL-42955  12.919  27.677  14.508
74551ION    CL-42956  25.991  38.265   1.883
74552ION    CL-42957  11.666   3.179   2.479
74553ION    CL-42958  21.068  18.470  11.022
74554ION    CL-42959  42.646  18.779  12.117
74555ION    CL-42960  23.276  27.608   4.745
74556ION    CL-42961   7.824  39.298   3.399
74557ION    CL-42962   7.058  20.637   4.964
74558ION    CL-42963  10.184  31.612  13.190
74559ION    CL-42964  38.887  17.892  11.185
74560ION    CL-42965  44.737  30.138  10.779
74561ION    CL-42966  31.784   2.899  11.141
74562ION    CL-42967  33.391  23.641  12.605
74563ION    CL-42968  12.127   0.539   2.313
74564ION    CL-42969  11.859   0.685   4.293
74565ION    CL-42970  34.014  19.147   0.265
74566ION    CL-42971   1.287  22.096   3.770
74567ION    CL-42972  17.729  38.196   2.872
74568ION    CL-42973  26.570   0.384   2.391
74569ION    CL-42974  38.701  26.653  14.865
74570ION    CL-42975  30.561  12.332   3.115
74571ION    CL-42976   9.394  10.804  11.750
74572ION    CL-42977  28.965  11.261   4.087
74573ION    CL-42978  20.518  43.077  11.898
74574ION    CL-42979  27.617  15.386  11.592
74575ION    CL-42980  36.429  17.090   3.444
74576ION    CL-42981  30.341  38.718   1.569
74577ION    CL-42982   5.723   8.006   1.804
74578ION    CL-42983  30.893  42.652  13.298
74579ION    CL-42984  17.029   5.851  10.366
74580ION    CL-42985   8.854  13.183  12.028
74581ION    CL-42986  26.104  15.726   3.295
74582ION    CL-42987  11.602   0.363   9.918
74583ION    CL-42988  43.133   7.162  14.572
74584ION    CL-42989  33.583  42.869  13.144
74585ION    CL-42990  36.345   9.799   2.375
74586ION    CL-42991   0.958  29.055  10.835
74587ION    CL-42992   8.779  17.601   0.599
74588ION    CL-42993  34.362  23.613   1.011
74589ION    CL-42994  33.515  16.618  13.807
74590ION    CL-42995   5.043  11.340  14.637
74591ION    CL-42996  18.702  27.133  12.225
74592ION    CL-42997  26.899   1.741   1.620
74593ION    CL-42998  28.703  27.871  14.389
74594ION    CL-42999  12.704  39.865  14.633
74595ION    CL-43000   3.477   7.074  12.482
74596ION    CL-43001  32.778   3.812   4.361
74597ION    CL-43002  17.093   4.829   4.617
74598ION    CL-43003   1.244  36.375   1.317
74599ION    CL-43004  19.253  23.545   1.421
74600ION    CL-43005  43.017   4.825   4.113
74601ION    CL-43006  24.645  37.492  14.753
74602ION    CL-43007   4.252  31.514   0.944
74603ION    CL-43008  22.399  41.360   5.139
74604ION    CL-43009  10.900  35.937   2.304
74605ION    CL-43010  43.952  40.033  12.041
74606ION    CL-43011   7.843  21.224   4.767
74607ION    CL-43012  36.443  28.760   2.940
74608ION    CL-43013  44.119  34.702   3.263
74609ION    CL-43014  26.542  21.597  12.454
74610ION    CL-43015  23.398   1.177   1.694
74611ION    CL-43016  14.706  13.743   1.835
74612ION    CL-43017  18.727  35.772   5.012
74613ION    CL-43018  12.902  26.593   4.553
74614ION    CL-43019  37.477  31.116  13.898
74615ION    CL-43020  34.494  22.225   0.507
74616ION    CL-43021   4.297   7.048   1.577
74617ION    CL-43022  34.072  33.653  12.011
74618ION    CL-43023  40.209   1.177   3.071
74619ION    CL-43024  26.232   5.949  11.317
74620ION    CL-43025   0.461   6.152  14.350
74621ION    CL-43026  18.081  40.782  12.023
74622ION    CL-43027  19.810  15.102   3.596
74623ION    CL-43028  19.764   6.373   0.488
74624ION    CL-43029  35.444   6.581  14.704
74625ION    CL-43030  11.144  21.200   2.726
74626ION    CL-43031  12.711  21.533  11.710
74627ION    CL-43032  29.891  44.215  10.725
74628ION    CL-43033  27.125   5.623   1.191
74629ION    CL-43034   4.265   1.824  14.227
74630ION    CL-43035  10.225  10.698  13.749
74631ION    CL-43036  38.027  21.354   1.309
74632ION    CL-43037  20.066  37.911  10.609
74633ION    CL-43038  12.129  13.049   4.153
74634ION    CL-43039  34.047   4.800  11.662
74635ION    CL-43040  17.434  19.362  12.267
74636ION    CL-43041  21.107   9.320   1.464
74637ION    CL-43042   3.724  43.339  10.569
74638ION    CL-43043  24.186   6.675  11.759
74639ION    CL-43044  42.453   5.445   3.053
74640ION    CL-43045  34.217   8.636   2.857
74641ION    CL-43046   9.870  34.949   1.497
74642ION    CL-43047  15.546  18.693   1.767
74643ION    CL-43048  23.199  38.233  13.956
74644ION    CL-43049   4.046  26.661   5.110
74645ION    CL-43050  39.967  13.745   1.997
74646ION    CL-43051  21.643  43.444  11.414
74647ION    CL-43052  28.172  19.581   0.012
74648ION    CL-43053  30.625  30.271  14.704
74649ION    CL-43054  43.877  11.246  13.113
74650ION    CL-43055  21.027  38.027  13.054
74651ION    CL-43056  23.219   3.758  14.310
74652ION    CL-43057  14.671  31.916   1.339
74653ION    CL-43058  23.060  33.797   4.067
74654ION    CL-43059   3.984  27.671  11.276
74655ION    CL-43060  16.161   0.616   4.893
74656ION    CL-43061  37.493  27.733   1.980
74657ION    CL-43062  27.535  39.563  11.530
74658ION    CL-43063   7.101  22.722  10.976
74659ION    CL-43064  27.504  31.877  14.531
74660ION    CL-43065  12.179   7.788   3.128
74661ION    CL-43066  35.857  21.340  13.302
74662ION    CL-43067   8.696  11.588   5.059
74663ION    CL-43068   3.850  36.988   2.793
74664ION    CL-43069   6.521  34.704   3.317
74665ION    CL-43070  30.085  29.543  12.815
74666ION    CL-43071  23.718  12.844   0.983
74667ION    CL-43072  38.040   0.536   2.510
74668ION    CL-43073   4.091  33.317  14.747
74669ION    CL-43074  19.179  26.087   1.969
74670ION    CL-43075  22.950  23.431  11.943
74671ION    CL-43076  39.435  43.024  14.702
74672ION    CL-43077  12.361   3.784  11.356
74673ION    CL-43078  37.712  19.446   4.773
74674ION    CL-43079  24.086  42.539   0.021
74675ION    CL-43080  44.236  25.710   0.440
74676ION    CL-43081  27.569  24.293  10.687
74677ION    CL-43082  42.730  30.369   1.833
74678ION    CL-43083  20.024  12.180   3.612
74679ION    CL-43084  39.059  23.016  12.882
74680ION    CL-43085  25.152  32.188   2.202
74681ION    CL-43086   8.407  42.835  13.951
74682ION    CL-43087   0.292  13.501   4.811
74683ION    CL-43088   7.669   9.325   4.309
74684ION    CL-43089  15.042   8.711   3.070
74685ION    CL-43090  25.396  25.263  10.899
74686ION    CL-43091   7.843  16.132  14.315
74687ION    CL-43092   5.663  12.501  11.013
74688ION    CL-43093  34.058  20.998  12.951
74689ION    CL-43094   8.690  41.291  14.930
74690ION    CL-43095  41.142  25.442   0.257
74691ION    CL-43096   4.834   1.226  11.161
74692ION    CL-43097  28.818  14.286   5.036
74693ION    CL-43098  14.349  22.190  12.223
74694ION    CL-43099  36.640  40.598  13.918
74695ION    CL-43100  11.562  35.957   3.913
74696ION    CL-43101   8.131  26.504   4.990
74697ION    CL-43102  37.341  21.329   0.533
74698ION    CL-43103  20.056  19.445   4.534
74699ION    CL-43104  19.907  32.788   2.700
74700ION    CL-43105  28.155   9.733   4.972
74701ION    CL-43106  41.632  11.922   4.108
74702ION    CL-43107   5.154  12.815  14.021
74703ION    CL-43108   0.159   4.812  10.310
74704ION    CL-43109  24.077   8.558  12.510
74705ION    CL-43110   3.291  20.983  14.856
74706ION    CL-43111   9.597  39.301   0.181
74707ION    CL-43112  37.746  34.087  12.098
74708ION    CL-43113  37.055  42.522  11.983
74709ION    CL-43114   1.290  43.064   2.571
74710ION    CL-43115  30.690  16.142  12.387
74711ION    CL-43116   9.086  42.217  13.035
74712ION    CL-43117  16.978  18.623  13.646
74713ION    CL-43118  43.479  30.829  12.438
74714ION    CL-43119  37.754  37.868   3.722
74715ION    CL-43120  10.683   0.958   0.153
74716ION    CL-43121  16.034   9.216   4.975
74717ION    CL-43122  25.495   1.529   1.000
74718ION    CL-43123  32.032  20.252   0.699
74719ION    CL-43124  33.494   9.185   3.278
74720ION    CL-43125   2.130  19.824  13.940
74721ION    CL-43126  36.080  10.906   4.435
74722ION    CL-43127  23.883  26.030  11.562
74723ION    CL-43128   0.473   0.176   3.795
74724ION    CL-43129  26.191  32.244   0.456
74725ION    CL-43130   9.787  31.364  11.910
74726ION    CL-43131  27.569  12.437   3.177
74727ION    CL-43132   0.033  17.291   1.440
74728ION    CL-43133   8.176  27.932  10.266
74729ION    CL-43134  31.101  25.090   2.756
74730ION    CL-43135  21.294  13.538  14.456
74731ION    CL-43136  31.445  24.867  12.055
74732ION    CL-43137  25.829  40.522   2.505
74733ION    CL-43138  12.871  40.851   4.931
74734ION    CL-43139  22.010   5.725  10.736
74735ION    CL-43140  30.550  23.928   3.781
74736ION    CL-43141   7.338  26.218   1.328
74737ION    CL-43142   4.871  19.073   3.136
74738ION    CL-43143   6.274   4.193  10.756
74739ION    CL-43144  38.197  40.040  12.485
74740ION    CL-43145  15.410  29.699   5.190
74741ION    CL-43146  34.187  41.450   0.032
74742ION    CL-43147  17.502  30.479   2.795
74743ION    CL-43148  39.333  29.998   4.079
74744ION    CL-43149  11.740  28.594  10.006
74745ION    CL-43150  33.577  37.661   1.981
74746ION    CL-43151   8.225   2.673   3.393
74747ION    CL-43152  23.618  35.578  10.828
74748ION    CL-43153   8.036   8.938   3.260
74749ION    CL-43154  31.934  25.041   3.826
74750ION    CL-43155  36.976  28.357  14.796
74751ION    CL-43156   0.868  30.971  13.388
74752ION    CL-43157   9.902   8.637   0.194
74753ION    CL-43158  32.832  43.001  12.429
74754ION    CL-43159  10.163  32.916   1.368
74755ION    CL-43160  10.484   8.604   2.109
74756ION    CL-43161  28.025  35.483   3.819
74757ION    CL-43162  35.009   9.131   4.309
74758ION    CL-43163  32.428  32.038   0.916
74759ION    CL-43164  40.468  26.109  10.687
74760ION    CL-43165  26.669  25.087   9.880
74761ION    CL-43166  17.533  36.244  10.343
74762ION    CL-43167  14.360   8.484  11.691
74763ION    CL-43168  35.895  27.769  12.501
74764ION    CL-43169  41.258  44.417   0.731
74765ION    CL-43170  11.279   4.077   3.746
74766ION    CL-43171   1.527  43.075  13.167
74767ION    CL-43172  42.569  22.659   4.601
74768ION    CL-43173  18.643  13.272  13.047
74769ION    CL-43174  31.706  22.268   0.826
74770ION    CL-43175  44.962  20.420   2.189
74771ION    CL-43176  18.186  40.326  13.388
74772ION    CL-43177  43.040   7.454   2.297
74773ION    CL-43178  19.946  26.553  11.154
74774ION    CL-43179  34.860  28.050   1.198
74775ION    CL-43180  10.318  37.592  14.706
74776ION    CL-43181  35.619  23.579   4.170
74777ION    CL-43182  27.513  30.449   3.203
74778ION    CL-43183  11.760  20.708   0.434
74779ION    CL-43184   0.419  26.165   1.920
74780ION    CL-43185  23.231  18.979   1.367
74781ION    CL-43186   4.888  10.790   5.005
74782ION    CL-43187   6.902   6.445   3.213
74783ION    CL-43188  25.701  35.461   0.347
74784ION    CL-43189  10.962  44.152   0.824
74785ION    CL-43190  15.101  12.839   0.270
74786ION    CL-43191  12.060  27.608  14.013
74787ION    CL-43192   2.629   6.155  12.545
74788ION    CL-43193  23.320   1.247   2.596
74789ION    CL-43194  35.944  24.480  13.959
74790ION    CL-43195   6.351   3.892   2.828
74791ION    CL-43196  25.818  30.450   4.719
74792ION    CL-43197  34.567   3.212  14.854
74793ION    CL-43198  21.784  37.346   3.529
74794ION    CL-43199   6.826  27.469  11.059
74795ION    CL-43200  32.477   2.166   2.648
74796ION    CL-43201  31.007   5.139  11.890
74797ION    CL-43202   2.758  36.841   3.593
74798ION    CL-43203  21.742   9.629  10.910
74799ION    CL-43204  27.100  39.754   2.634
74800ION    CL-43205   5.597  16.047  13.171
74801ION    CL-43206  10.451   9.139   3.801
74802ION    CL-43207   1.139  18.893  13.966
74803ION    CL-43208  32.418  34.930   1.823
74804ION    CL-43209  15.429  18.913  13.897
74805ION    CL-43210  42.427  37.301   0.073
74806ION    CL-43211   9.196  36.409   0.513
74807ION    CL-43212  31.497  34.066  14.407
74808ION    CL-43213   8.594  15.503   0.473
74809ION    CL-43214   8.891  39.650  12.008
74810ION    CL-43215   2.777   9.591  12.871
74811ION    CL-43216  15.730  32.892   1.886
74812ION    CL-43217  40.054  11.262  11.634
74813ION    CL-43218   7.659  35.534   4.061
74814ION    CL-43219  25.799   9.343   2.173
74815ION    CL-43220  17.582  42.924  12.032
74816ION    CL-43221  30.380  30.941   5.112
74817ION    CL-43222   4.551  37.050   2.457
74818ION    CL-43223  28.946  33.196   5.045
74819ION    CL-43224   7.413  34.592   3.102
74820ION    CL-43225  17.275   2.716   1.580
74821ION    CL-43226   4.725  14.382   2.213
74822ION    CL-43227   7.791   4.829  14.544
74823ION    CL-43228  38.823   4.307  12.063
74824ION    CL-43229  33.444   8.903   4.917
74825ION    CL-43230  21.466  17.775   3.495
74826ION    CL-43231  38.436  19.195   3.201
74827ION    CL-43232  40.880  20.775  10.916
74828ION    CL-43233  15.040  40.841  14.976
74829ION    CL-43234   8.291  39.745   1.253
74830ION    CL-43235  28.126  32.715   1.688
74831ION    CL-43236   4.321  36.710   1.456
74832ION    CL-43237  22.782   1.570   3.413
74833ION    CL-43238   5.743   6.075   3.927
74834ION    CL-43239  15.660  35.272  11.624
74835ION    CL-43240  21.093  27.672   1.447
74836ION    CL-43241  24.324  18.254   4.155
74837ION    CL-43242  37.324   9.746   2.177
74838ION    CL-43243  22.118  16.556   4.634
74839ION    CL-43244   9.653  14.863   9.793
74840ION    CL-43245   1.702  12.426  13.361
74841ION    CL-43246  34.594  42.872  13.055
74842ION    CL-43247  42.930   8.672  14.380
74843ION    CL-43248  41.519  20.851   5.019
74844ION    CL-43249  14.058   4.395   5.077
74845ION    CL-43250  14.048  10.356   5.004
74846ION    CL-43251  13.171  38.362  10.977
74847ION    CL-43252  28.537  22.094  14.352
74848ION    CL-43253   0.530  33.628   3.283
74849ION    CL-43254   0.725  24.490   0.573
74850ION    CL-43255  21.540  32.471  11.878
74851ION    CL-43256  16.400  19.177  13.554
74852ION    CL-43257  10.204  35.453   2.576
74853ION    CL-43258  42.391  29.949  13.558
74854ION    CL-43259  13.054  10.548   4.150
74855ION    CL-43260  34.642  44.729  14.810
74856ION    CL-43261   9.006   4.375  10.640
74857ION    CL-43262   2.071  14.287   3.532
74858ION    CL-43263  33.864  29.350  13.871
74859ION    CL-43264   0.698  42.648   4.145
74860ION    CL-43265  22.781  17.344   1.736
74861ION    CL-43266   3.773  33.169   5.086
74862ION    CL-43267  34.857  21.578   3.573
74863ION    CL-43268   0.282  36.614   4.553
74864ION    CL-43269  10.441  32.424   3.236
74865ION    CL-43270  12.772  14.053  11.520
74866ION    CL-43271  30.104  30.684  12.423
74867ION    CL-43272  33.862  33.132   2.278
74868ION    CL-43273  27.693  39.003  13.036
74869ION    CL-43274  16.944  41.959  11.166
74870ION    CL-43275  41.304  23.755  12.570
74871ION    CL-43276   6.759  11.079  10.642
74872ION    CL-43277  18.962  26.744   2.572
74873ION    CL-43278  27.477  44.910   0.899
74874ION    CL-43279   3.507  39.787   3.805
74875ION    CL-43280  43.484  42.477  12.881
74876ION    CL-43281  37.579  15.148  10.704
74877ION    CL-43282  20.123  21.813  10.550
74878ION    CL-43283  40.022   8.056  11.690
74879ION    CL-43284  22.107  38.463  13.409
74880ION    CL-43285   5.674  38.062   2.728
74881ION    CL-43286   7.268  41.018  11.111
74882ION    CL-43287   0.016   1.475   4.141
74883ION    CL-43288  10.340   8.326  12.793
74884ION    CL-43289  35.947  16.756   1.241
74885ION    CL-43290  30.318   4.165  13.356
74886ION    CL-43291   9.684  25.477   4.358
74887ION    CL-43292  29.631  42.586   1.399
74888ION    CL-43293  37.480  27.182  14.274
74889ION    CL-43294  29.049  18.157   2.835
74890ION    CL-43295  25.488  23.782  12.510
74891ION    CL-43296  31.321   3.359  12.476
74892ION    CL-43297   7.421  11.191  11.435
74893ION    CL-43298  37.664  41.614   1.361
74894ION    CL-43299  17.700   3.658   0.070
74895ION    CL-43300  27.494   2.233   4.037
74896ION    CL-43301  37.098   2.118   2.372
74897ION    CL-43302   8.280  37.754   1.571
74898ION    CL-43303  42.830  11.415  11.139
74899ION    CL-43304  28.418   9.491  13.623
74900ION    CL-43305   3.647  14.379  13.353
74901ION    CL-43306  12.502  43.595   0.799
74902ION    CL-43307  44.101  31.244   1.424
74903ION    CL-43308  15.265  31.298  10.612
74904ION    CL-43309  30.454  30.896   4.116
74905ION    CL-43310   4.807  41.700  14.072
74906ION    CL-43311  27.802  39.855  13.324
74907ION    CL-43312   0.163  30.281  12.115
74908ION    CL-43313   7.751   3.999   2.699
74909ION    CL-43314  31.546   9.977   0.907
74910ION    CL-43315  16.093  15.149  14.672
74911ION    CL-43316  40.883  18.994   1.682
74912ION    CL-43317  33.813   2.998  13.937
74913ION    CL-43318  35.124  44.335  11.485
74914ION    CL-43319  34.705  30.646  13.104
74915ION    CL-43320  35.548  41.889   1.689
74916ION    CL-43321  37.077  24.518   2.071
74917ION    CL-43322  12.103   3.406   3.922
74918ION    CL-43323  38.271  13.380   1.876
74919ION    CL-43324  38.806  36.147  12.105
74920ION    CL-43325  11.407  22.297   1.219
74921ION    CL-43326  37.277  10.650  12.512
74922ION    CL-43327  35.295  33.335   2.923
74923ION    CL-43328  20.994  37.308   4.142
74924ION    CL-43329  21.589  14.444  14.761
74925ION    CL-43330  38.134   2.372  13.934
74926ION    CL-43331  24.331   8.672  11.549
74927ION    CL-43332   9.822  17.691  11.256
74928ION    CL-43333  19.762  13.294   0.589
74929ION    CL-43334  35.700  15.481  11.737
74930ION    CL-43335  34.095  11.358  12.912
74931ION    CL-43336  12.269  44.061   5.148
74932ION    CL-43337  39.245  28.861   2.948
74933ION    CL-43338  32.367   9.941  14.026
74934ION    CL-43339  41.367  31.023  10.637
74935ION    CL-43340  32.111  24.209  12.669
74936ION    CL-43341   8.559  16.325   0.428
74937ION    CL-43342  41.560  34.439   0.526
74938ION    CL-43343  35.798  15.094   1.115
74939ION    CL-43344  37.540  20.370   0.330
74940ION    CL-43345  25.812  33.465  11.043
74941ION    CL-43346  14.728  22.789   0.741
74942ION    CL-43347   0.610  19.825   4.964
74943ION    CL-43348  36.139  20.100   2.843
74944ION    CL-43349  16.157  12.945   4.574
74945ION    CL-43350   9.659  44.402  12.514
74946ION    CL-43351  13.229  31.537   1.000
74947ION    CL-43352  38.804  11.835   4.158
74948ION    CL-43353  16.929  43.561   0.123
74949ION    CL-43354  31.174  26.758   3.803
74950ION    CL-43355  21.653  13.158   0.309
74951ION    CL-43356  17.575  40.795   3.704
74952ION    CL-43357  26.123   0.255   0.204
74953ION    CL-43358  37.482  27.334  13.110
74954ION    CL-43359  10.517   2.209  12.384
74955ION    CL-43360  44.578   0.178   1.492
74956ION    CL-43361  24.115  44.879  13.587
74957ION    CL-43362   1.860  13.787  11.173
74958ION    CL-43363   4.845  32.676  12.463
74959ION    CL-43364  30.713  32.976   2.825
74960ION    CL-43365  35.790   5.020  14.365
74961ION    CL-43366  27.303  35.618   4.856
74962ION    CL-43367  40.916  21.694   0.600
74963ION    CL-43368   1.481   1.567   3.474
74964ION    CL-43369  40.177   7.880   2.245
74965ION    CL-43370   6.299  41.204  12.210
74966ION    CL-43371  13.064  24.420   1.750
74967ION    CL-43372   4.855  41.805   4.341
74968ION    CL-43373  22.776  18.461  12.693
74969ION    CL-43374  33.566  37.527   2.972
74970ION    CL-43375  13.536   8.232  11.182
74971ION    CL-43376  36.383  42.326  10.081
74972ION    CL-43377   8.454  13.029   1.267
74973ION    CL-43378   6.292   5.639   3.194
74974ION    CL-43379  18.571  35.110   4.519
74975ION    CL-43380  18.506  20.581   4.239
74976ION    CL-43381  24.620  34.394   3.203
74977ION    CL-43382  36.697   1.055  12.434
74978ION    CL-43383  16.284  38.171  11.054
74979ION    CL-43384  10.834  44.937  14.214
74980ION    CL-43385  25.562   4.140   1.179
74981ION    CL-43386  11.516  11.595  13.105
74982ION    CL-43387  28.223  23.318  11.226
74983ION    CL-43388  41.659  40.194  13.427
74984ION    CL-43389  37.950   4.370   4.052
74985ION    CL-43390  26.115  36.638  11.595
74986ION    CL-43391  31.797  37.909  10.408
74987ION    CL-43392  22.160  35.417  12.503
74988ION    CL-43393  24.960  39.867   4.554
74989ION    CL-43394  20.942  32.243   1.212
74990ION    CL-43395  22.446  13.221   2.523
74991ION    CL-43396  10.314  34.536   4.287
74992ION    CL-43397  40.813  43.145  14.421
74993ION    CL-43398  24.104  42.466  11.634
74994ION    CL-43399  29.132  42.305   2.591
74995ION    CL-43400  11.613  39.663   4.963
74996ION    CL-43401   2.910  11.382  13.374
74997ION    CL-43402  14.677  11.012   0.529
74998ION    CL-43403  43.924  22.029  11.325
74999ION    CL-43404  38.539  30.335   0.742
75000ION    CL-43405  39.777  25.934  12.351
75001ION    CL-43406  36.722  38.981  10.342
75002ION    CL-43407  28.604  17.655   2.030
75003ION    CL-43408  22.230  40.483   3.256
75004ION    CL-43409  42.794  24.266   2.817
75005ION    CL-43410  17.733  36.876  13.838
75006ION    CL-43411  12.323   8.897  10.851
75007ION    CL-43412  26.492   5.596   1.966
75008ION    CL-43413   9.483   7.274   0.208
75009ION    CL-43414  20.576  10.161  13.647
75010ION    CL-43415  16.654  20.978  12.165
75011ION    CL-43416  23.016  25.044   2.786
75012ION    CL-43417   9.733   4.768   4.679
75013ION    CL-43418  36.953  28.242   3.767
75014ION    CL-43419   3.891  36.605  12.790
75015ION    CL-43420  22.184  29.460  13.360
75016ION    CL-43421  25.938  18.346  10.233
75017ION    CL-43422  31.958   1.704   5.030
75018ION    CL-43423  35.389  36.076   1.598
75019ION    CL-43424  37.296   4.452  11.034
75020ION    CL-43425  15.380  24.799   1.189
75021ION    CL-43426  40.243  41.977   4.198
75022ION    CL-43427   9.621  30.186   1.544
75023ION    CL-43428  21.161   7.715  14.995
75024ION    CL-43429   8.541  39.610   2.751
75025ION    CL-43430  41.034  12.367   0.154
75026ION    CL-43431  27.427  30.029  11.423
75027ION    CL-43432  44.558  27.601  12.434
75028ION    CL-43433  26.897  32.811   4.713
75029ION    CL-43434  36.110   2.747   4.077
75030ION    CL-43435  31.605   5.342   4.090
75031ION    CL-43436  19.093  28.680  12.522
75032ION    CL-43437  41.600  27.657   4.690
75033ION    CL-43438  28.212  11.347  13.280
75034ION    CL-43439  23.413  22.022  12.419
75035ION    CL-43440   1.257  28.154   2.322
75036ION    CL-43441  22.677  16.793  13.825
75037ION    CL-43442  40.456   9.987   1.808
75038ION    CL-43443  30.757  26.340  13.264
75039ION    CL-43444  25.941   6.240   2.809
75040ION    CL-43445  27.978  15.975   5.362
75041ION    CL-43446   8.630  44.004   3.269
75042ION    CL-43447   4.074  22.498   4.843
75043ION    CL-43448   7.846  38.586   0.165
75044ION    CL-43449  43.436  36.870   4.037
75045ION    CL-43450  42.871  16.010   4.146
75046ION    CL-43451   8.718  24.401  13.062
75047ION    CL-43452   2.928   1.758   0.259
75048ION    CL-43453  42.567  22.193   3.896
75049ION    CL-43454  41.081   6.141   5.051
75050ION    CL-43455  41.751   0.094  10.295
75051ION    CL-43456  32.909  29.330   0.803
75052ION    CL-43457  34.078   2.874   3.410
75053ION    CL-43458  31.139  27.546  13.405
75054ION    CL-43459  44.037  27.014  14.214
75055ION    CL-43460  28.948  34.111   4.875
75056ION    CL-43461  42.666  15.399   2.302
75057ION    CL-43462  18.251  42.359  11.166
75058ION    CL-43463  14.121  24.500  14.300
75059ION    CL-43464   0.323  28.566  12.027
75060ION    CL-43465  17.254  19.528  11.382
75061ION    CL-43466  19.270  11.534   3.488
75062ION    CL-43467  30.305   7.717  10.727
75063ION    CL-43468  36.835  27.459  12.358
75064ION    CL-43469   0.590  33.092  11.049
75065ION    CL-43470  30.976  23.168  14.993
75066ION    CL-43471  13.186  21.077   2.612
75067ION    CL-43472  18.156  29.891  11.570
75068ION    CL-43473   4.849  32.176  11.597
75069ION    CL-43474  33.649  44.384  12.449
75070ION    CL-43475   2.237  23.197  12.070
75071ION    CL-43476  35.477   3.628  14.855
75072ION    CL-43477   9.832  17.821   0.784
75073ION    CL-43478  31.171  15.771   0.746
75074ION    CL-43479  17.151  24.854   4.082
75075ION    CL-43480   8.113  14.684  13.217
75076ION    CL-43481  18.027  12.847   0.189
75077ION    CL-43482  27.424  32.873  14.471
75078ION    CL-43483  34.750  18.004  12.534
75079ION    CL-43484   7.830  19.719   4.647
75080ION    CL-43485  13.093  33.093  14.261
75081ION    CL-43486   8.773  13.495   2.214
75082ION    CL-43487  40.908  23.849   2.784
75083ION    CL-43488   2.178  29.832   1.456
75084ION    CL-43489  29.699   1.791   0.794
75085ION    CL-43490   4.668  14.218   3.277
75086ION    CL-43491  12.038  28.117  14.683
75087ION    CL-43492  38.399   7.834  14.606
75088ION    CL-43493  20.103  24.108   3.897
75089ION    CL-43494  19.593   6.367  12.565
75090ION    CL-43495  16.542  43.763   1.979
75091ION    CL-43496  39.881  43.973   0.853
75092ION    CL-43497  44.118  44.134   2.125
75093ION    CL-43498  33.269  36.577   0.810
75094ION    CL-43499   7.973  32.457   2.142
75095ION    CL-43500   8.833  11.079   3.458
75096ION    CL-43501  25.013   5.746   1.926
75097ION    CL-43502  10.681  35.949  14.531
75098ION    CL-43503  21.919   1.435   0.378
75099ION    CL-43504   9.317  19.528  13.393
75100ION    CL-43505  32.399  19.977  12.402
75101ION    CL-43506  38.466  11.902  11.919
75102ION    CL-43507  38.064  26.002   1.200
75103ION    CL-43508   3.125  29.131   4.859
75104ION    CL-43509  38.777   0.800  13.155
75105ION    CL-43510   6.653  17.744   4.158
75106ION    CL-43511  24.521  19.887   4.459
75107ION    CL-43512   8.074  28.605   0.365
75108ION    CL-43513  21.026   1.880   1.828
75109ION    CL-43514   2.057   1.759   9.787
75110ION    CL-43515  17.882  14.494   1.792
75111ION    CL-43516  27.446   1.937  11.085
75112ION    CL-43517   4.416   2.714   4.195
75113ION    CL-43518  31.008  40.517   9.671
75114ION    CL-43519  43.473  17.241  10.289
75115ION    CL-43520   3.584  19.312  12.541
75116ION    CL-43521  12.618  19.425  14.939
75117ION    CL-43522  17.165  19.282  12.918
75118ION    CL-43523  38.124   8.973   4.995
75119ION    CL-43524  36.635  23.964  14.527
75120ION    CL-43525  39.942  22.235   2.203
75121ION    CL-43526  14.010   6.751  14.071
75122ION    CL-43527  18.674  12.416  12.531
75123ION    CL-43528  33.178   7.207  13.803
75124ION    CL-43529  29.985  38.933   2.394
75125ION    CL-43530  31.746  38.450   3.103
75126ION    CL-43531   2.585  37.100   1.593
75127ION    CL-43532   0.313  43.703  13.489
75128ION    CL-43533   3.499  10.265   4.639
75129ION    CL-43534  38.763   2.273  10.272
75130ION    CL-43535  17.114  39.868  14.687
75131ION    CL-43536  24.285  31.937  13.904
75132ION    CL-43537  40.939   3.369   5.007
75133ION    CL-43538  10.242  38.124   4.377
75134ION    CL-43539   5.576  44.505  13.874
75135ION    CL-43540  32.570   6.367   9.785
75136ION    CL-43541  12.057   2.225   3.434
75137ION    CL-43542  32.177  12.165   3.420
75138ION    CL-43543   3.930   3.460   1.244
75139ION    CL-43544  35.544  15.612  14.489
75140ION    CL-43545   1.406  42.848  12.200
75141ION    CL-43546  36.167  11.938  12.114
75142ION    CL-43547  16.292  14.864   5.077
75143ION    CL-43548  41.409   5.897  13.554
75144ION    CL-43549  11.211  40.932   1.927
75145ION    CL-43550  18.266  43.362   2.158
75146ION    CL-43551  17.790  28.585  12.066
75147ION    CL-43552  20.284  26.659   0.657
75148ION    CL-43553  29.193  14.712   1.918
75149ION    CL-43554  41.290   8.601   3.994
75150ION    CL-43555   2.771  27.190  10.364
75151ION    CL-43556   2.492  37.918   3.238
75152ION    CL-43557  44.683  33.886   3.128
75153ION    CL-43558  43.876  25.713  10.720
75154ION    CL-43559   1.221  44.224   5.033
75155ION    CL-43560   1.631   9.273   4.561
75156ION    CL-43561  37.900  27.399   3.145
75157ION    CL-43562  25.001   6.037  10.189
75158ION    CL-43563   7.718   1.057   0.599
75159ION    CL-43564  41.717  23.264   3.748
75160ION    CL-43565  42.604  26.284   4.178
75161ION    CL-43566  41.848   6.674   3.229
75162ION    CL-43567  17.182   2.585  14.831
75163ION    CL-43568  13.466   9.459  12.289
75164ION    CL-43569  15.407  22.222   1.497
75165ION    CL-43570   3.137  29.428  10.973
75166ION    CL-43571  27.480  11.094  12.943
75167ION    CL-43572  43.663  16.975  11.514
75168ION    CL-43573  35.589  26.677   5.024
75169ION    CL-43574  32.073  42.758  13.842
75170ION    CL-43575   8.865   4.137   2.771
75171ION    CL-43576  31.019   2.422  11.080
75172ION    CL-43577  19.442  39.835  13.336
75173ION    CL-43578  44.227  26.719   4.866
75174ION    CL-43579   5.576  34.555   3.026
75175ION    CL-43580   3.535  32.189  10.932
75176ION    CL-43581   3.409   1.517  11.490
75177ION    CL-43582  37.916  31.615   3.224
75178ION    CL-43583   0.245  29.828   2.065
75179ION    CL-43584   9.234  40.047   4.213
75180ION    CL-43585  43.485  26.953  11.839
75181ION    CL-43586   7.837  37.909  11.311
75182ION    CL-43587  28.175  39.073   2.594
75183ION    CL-43588  40.963   8.959   4.813
75184ION    CL-43589   5.548  18.033   5.052
75185ION    CL-43590  32.233  35.437  10.409
75186ION    CL-43591  24.972  41.683  10.712
75187ION    CL-43592   5.142  20.618  11.010
75188ION    CL-43593   1.524  44.822   2.581
75189ION    CL-43594   9.779  43.054  10.349
75190ION    CL-43595  31.449   1.803   2.060
75191ION    CL-43596   6.313  27.013  11.904
75192ION    CL-43597  11.072  31.969  11.147
75193ION    CL-43598  43.749  20.455  11.168
75194ION    CL-43599  22.008  26.630   4.501
75195ION    CL-43600  44.119  27.481   1.338
75196ION    CL-43601  35.284  14.824   9.978
75197ION    CL-43602  10.689   0.114   0.806
75198ION    CL-43603  32.617  33.238   3.519
75199ION    CL-43604  22.067  31.120  14.001
75200ION    CL-43605  35.561   4.470   4.981
75201ION    CL-43606  31.339  27.443   0.257
75202ION    CL-43607  24.098   8.346   4.065
75203ION    CL-43608  15.732  21.047   0.540
75204ION    CL-43609  26.191  24.558  12.169
75205ION    CL-43610  34.753   4.137   1.323
75206ION    CL-43611  30.357  15.653   2.669
75207ION    CL-43612  14.637  15.468   5.061
75208ION    CL-43613  16.539  17.828  11.527
75209ION    CL-43614  37.323  22.633   2.920
75210ION    CL-43615  21.280  27.438   0.270
75211ION    CL-43616  12.985  23.343   0.567
75212ION    CL-43617  26.112  42.462   0.839
75213ION    CL-43618  24.111  17.204   0.288
75214ION    CL-43619  14.886  34.092  13.056
75215ION    CL-43620  32.059   9.305   1.440
75216ION    CL-43621  22.298  44.351   2.308
75217ION    CL-43622   6.386  16.717   0.369
75218ION    CL-43623  28.899  19.053   4.079
75219ION    CL-43624  44.962  20.937  14.720
75220ION    CL-43625   6.928  28.357  14.374
75221ION    CL-43626  23.552  34.301   2.835
75222ION    CL-43627  21.956  19.965  14.803
75223ION    CL-43628  12.123  20.164   3.156
75224ION    CL-43629   5.815  38.755   3.636
75225ION    CL-43630   3.489   6.389   3.493
75226ION    CL-43631  26.477  41.647   2.008
75227ION    CL-43632  15.773  31.752  12.714
75228ION    CL-43633  20.098   8.583   4.743
75229ION    CL-43634  42.626   3.230  13.263
75230ION    CL-43635  41.714  43.958   1.379
75231ION    CL-43636  32.162  37.887  11.339
75232ION    CL-43637   6.764  23.219   3.233
75233ION    CL-43638  43.418  26.626   2.927
75234ION    CL-43639  16.542  19.525  12.325
75235ION    CL-43640  30.776  14.701  10.405
75236ION    CL-43641  13.828  10.156  11.545
75237ION    CL-43642  24.509   8.098   2.982
75238ION    CL-43643  44.635   3.638   1.563
75239ION    CL-43644  33.447  36.595   2.631
75240ION    CL-43645  10.260  37.109  14.089
75241ION    CL-43646  42.207   2.024  13.520
75242ION    CL-43647  21.515   7.260   3.215
75243ION    CL-43648  44.897  20.672   0.682
75244ION    CL-43649  43.464  41.816   3.096
75245ION    CL-43650   2.479   8.750   4.635
75246ION    CL-43651  27.358  44.264  10.848
75247ION    CL-43652  19.378  40.300  14.575
75248ION    CL-43653   2.487  33.088  14.458
75249ION    CL-43654  26.062  20.556   4.652
75250ION    CL-43655  35.624   0.703  11.000
75251ION    CL-43656  16.814   8.166  12.880
75252ION    CL-43657   5.895   3.245   2.198
75253ION    CL-43658  15.889  17.119  10.824
75254ION    CL-43659  29.985  39.911  12.020
75255ION    CL-43660  30.707  27.083   2.178
75256ION    CL-43661  38.505  16.258   3.946
75257ION    CL-43662  35.457  19.519   2.332
75258ION    CL-43663  42.528   6.616  13.979
75259ION    CL-43664  11.623   5.278   5.095
75260ION    CL-43665  34.040  18.948  10.907
75261ION    CL-43666   0.365  38.758  14.246
75262ION    CL-43667  16.651  44.570  11.592
75263ION    CL-43668  19.548  40.344   3.234
75264ION    CL-43669   5.500  24.223  11.867
75265ION    CL-43670   5.722  32.649   3.754
75266ION    CL-43671  22.559  39.058   2.353
75267ION    CL-43672  17.163  42.570  12.888
75268ION    CL-43673  19.008  25.481   1.193
75269ION    CL-43674  37.204  28.453   1.340
75270ION    CL-43675  17.903   7.313  10.715
75271ION    CL-43676  27.272   3.425   4.953
75272ION    CL-43677  31.570   7.763   3.406
75273ION    CL-43678  10.819  11.660  12.391
75274ION    CL-43679  39.888  33.311  13.392
75275ION    CL-43680  16.175  10.856  10.699
75276ION    CL-43681  18.603   5.676   1.103
75277ION    CL-43682  29.048  29.700   2.823
75278ION    CL-43683  41.565  10.590  13.850
75279ION    CL-43684  17.957   0.909   3.816
75280ION    CL-43685  32.649  44.902  13.461
75281ION    CL-43686  11.914  36.266   2.557
75282ION    CL-43687  26.389   1.396   2.231
75283ION    CL-43688   3.291  11.332   1.586
75284ION    CL-43689  30.431   5.542   3.025
75285ION    CL-43690   1.714  40.511   1.744
75286ION    CL-43691  36.178  28.994  11.298
75287ION    CL-43692  29.489   8.422   4.050
75288ION    CL-43693   2.080   4.869   0.536
75289ION    CL-43694  42.234  42.609   1.288
75290ION    CL-43695   7.661  31.295  13.892
75291ION    CL-43696   9.456   8.874   1.831
75292ION    CL-43697  38.785  30.868  14.077
75293ION    CL-43698  18.032  23.228   1.970
75294ION    CL-43699  31.157  19.065   4.675
75295ION    CL-43700  27.208  29.431   2.591
75296ION    CL-43701  22.492  14.297  13.445
75297ION    CL-43702  29.434  28.244   1.863
75298ION    CL-43703   9.954   1.263   3.318
75299ION    CL-43704  33.133  44.523   2.782
75300ION    CL-43705   9.662  23.512   3.264
75301ION    CL-43706  23.431   6.467  14.828
75302ION    CL-43707  21.534  20.402   1.612
75303ION    CL-43708  38.390   3.401   0.056
75304ION    CL-43709   8.652   4.998   1.543
75305ION    CL-43710  39.870  22.796   3.929
75306ION    CL-43711  15.311  40.316   3.470
75307ION    CL-43712  18.644   0.187  10.921
75308ION    CL-43713  28.664   4.439  14.806
75309ION    CL-43714   0.441   5.833   1.655
75310ION    CL-43715  35.446  29.328  11.155
75311ION    CL-43716   6.101  39.061   4.972
75312ION    CL-43717  37.432   8.969   2.871
75313ION    CL-43718  34.119  36.846  14.776
75314ION    CL-43719   7.346   1.862  10.727
75315ION    CL-43720  24.155  19.644  14.560
75316ION    CL-43721  13.671   7.694  13.254
75317ION    CL-43722  38.286   2.892   2.322
75318ION    CL-43723  23.778  10.229  11.506
75319ION    CL-43724  38.870   5.815   9.866
75320ION    CL-43725  27.023  35.349  11.244
75321ION    CL-43726  44.859   0.720  14.298
75322ION    CL-43727  40.458  32.171   5.022
75323ION    CL-43728   0.318  23.899  13.083
75324ION    CL-43729  33.518  36.867  13.523
75325ION    CL-43730  39.419   2.719  11.487
75326ION    CL-43731   4.218   2.212  10.393
75327ION    CL-43732   1.800  33.805  14.339
75328ION    CL-43733  31.290  24.437   3.844
75329ION    CL-43734  23.232   0.416  11.398
75330ION    CL-43735  27.245  43.703   0.632
75331ION    CL-43736  17.335   2.368   2.515
75332ION    CL-43737  16.341  36.090   3.289
75333ION    CL-43738  23.733   2.588  11.877
75334ION    CL-43739   9.416  17.719  14.837
75335ION    CL-43740  34.474  26.700  11.755
75336ION    CL-43741  26.995   2.130   2.537
75337ION    CL-43742  32.009  33.886   3.713
75338ION    CL-43743  12.014  16.985  10.215
75339ION    CL-43744  41.192  15.700  12.134
75340ION    CL-43745  31.205  12.273   3.878
75341ION    CL-43746  12.259  33.705  14.265
75342ION    CL-43747  12.469   5.563   2.957
75343ION    CL-43748  23.014   6.016  11.206
75344ION    CL-43749  17.703   7.087   3.971
75345ION    CL-43750  15.675  38.602  11.721
75346ION    CL-43751  33.847  18.158  11.787
75347ION    CL-43752  27.405   7.852   0.510
75348ION    CL-43753  37.865  38.232  14.807
75349ION    CL-43754  35.994  35.844   0.836
75350ION    CL-43755  40.123   4.840   0.061
75351ION    CL-43756  22.254  16.555   2.143
75352ION    CL-43757  11.999  25.325  14.370
75353ION    CL-43758  11.046   1.070  11.356
75354ION    CL-43759  13.845  36.813   2.163
75355ION    CL-43760  25.527  29.688   4.140
75356ION    CL-43761  23.500  41.799  11.463
75357ION    CL-43762  10.170  15.089  12.805
75358ION    CL-43763  32.771  32.921   2.212
75359ION    CL-43764  23.708   4.239   3.393
75360ION    CL-43765   3.894  16.421   0.857
75361ION    CL-43766  21.173  44.681   9.882
75362ION    CL-43767  16.058  21.715  12.483
75363ION    CL-43768   9.717   7.164  14.242
75364ION    CL-43769  41.422  42.550  12.064
75365ION    CL-43770  23.904   1.870   9.870
75366ION    CL-43771   2.320   4.514   2.268
75367ION    CL-43772   8.175  35.669  12.678
75368ION    CL-43773  17.318   0.933  12.621
75369ION    CL-43774  44.931  36.027   2.614
75370ION    CL-43775  30.125  28.173   4.953
75371ION    CL-43776   5.339  14.843   1.754
75372ION    CL-43777  41.036   7.033   4.966
75373ION    CL-43778  26.497  38.056   0.347
75374ION    CL-43779  43.902   7.685   2.210
75375ION    CL-43780  17.175  32.492   0.216
75376ION    CL-43781  17.234   6.961  12.605
75377ION    CL-43782  24.739   3.907  12.588
75378ION    CL-43783  42.003  22.124  12.019
75379ION    CL-43784  36.445  37.061   1.124
75380ION    CL-43785  22.166  26.082   0.041
75381ION    CL-43786  25.747   7.313  12.277
75382ION    CL-43787   6.956   6.287  13.460
75383ION    CL-43788  23.398   6.631  10.660
75384ION    CL-43789  43.288  43.446  13.033
75385ION    CL-43790  13.552  17.321  12.403
75386ION    CL-43791  11.998  31.060  12.680
75387ION    CL-43792  27.682   3.277   3.595
75388ION    CL-43793  23.678   4.710  14.419
75389ION    CL-43794   2.162  17.303   4.447
75390ION    CL-43795  11.131  12.669  13.590
75391ION    CL-43796  21.393  30.980  12.707
75392ION    CL-43797  25.538  31.508  11.523
75393ION    CL-43798  16.834  33.680   3.127
75394ION    CL-43799  14.825  28.442  12.312
75395ION    CL-43800  44.882   4.429  14.146
75396ION    CL-43801  19.145  31.396  14.774
75397ION    CL-43802   0.080   3.187   4.156
75398ION    CL-43803  12.562  40.311   1.937
75399ION    CL-43804  40.008  12.178   4.626
75400ION    CL-43805  38.050  32.923  14.804
75401ION    CL-43806   0.957   3.431   3.741
75402ION    CL-43807  17.182  23.782  14.052
75403ION    CL-43808   9.901   2.870  10.739
75404ION    CL-43809   4.330   0.318   3.882
75405ION    CL-43810  27.603  28.869   4.778
75406ION    CL-43811  13.321  19.437   4.842
75407ION    CL-43812  20.433   6.347   1.943
75408ION    CL-43813  43.818   5.516  12.602
75409ION    CL-43814  15.432  35.744   3.055
75410ION    CL-43815  20.648  19.926   4.074
75411ION    CL-43816  44.592  18.367   3.504
75412ION    CL-43817  17.039  10.107   1.431
75413ION    CL-43818  37.524  11.876  14.449
75414ION    CL-43819  37.070  16.743  11.995
75415ION    CL-43820  16.598   1.144   4.920
75416ION    CL-43821   9.308   2.716  11.747
75417ION    CL-43822  38.284  12.555   0.667
75418ION    CL-43823  10.676  40.877  14.986
75419ION    CL-43824  10.908   8.320  12.215
75420ION    CL-43825   8.729   9.270  14.298
75421ION    CL-43826   6.898   2.433  12.366
75422ION    CL-43827   0.031   2.506  13.434
75423ION    CL-43828  43.455  36.122  12.382
75424ION    CL-43829  44.888  15.035  12.448
75425ION    CL-43830  10.702  15.020  10.356
75426ION    CL-43831   5.695  43.348   1.847
75427ION    CL-43832  44.020  38.479   2.851
75428ION    CL-43833  38.061   9.311  13.500
75429ION    CL-43834  23.212   1.296   4.921
75430ION    CL-43835  35.420  28.922  12.069
75431ION    CL-43836   8.971  31.286  12.480
75432ION    CL-43837  26.340   1.765   0.791
75433ION    CL-43838  43.829  34.675  12.549
75434ION    CL-43839  42.520  41.490   3.143
75435ION    CL-43840  29.427  10.493   1.808
75436ION    CL-43841  23.500  39.281   4.578
75437ION    CL-43842  12.473  21.606   4.175
75438ION    CL-43843  31.052  19.431   0.919
75439ION    CL-43844   6.929  18.631  14.880
75440ION    CL-43845   4.418  28.117  12.514
75441ION    CL-43846   1.929  41.573  13.599
75442ION    CL-43847   0.686  36.644   3.631
75443ION    CL-43848  15.974  29.094   3.887
75444ION    CL-43849  41.060  12.360   1.082
75445ION    CL-43850  26.894  13.008   4.350
75446ION    CL-43851  34.607  37.942   2.700
75447ION    CL-43852  27.114  15.104  10.310
75448ION    CL-43853  26.505   3.934   5.002
75449ION    CL-43854   7.567  31.980  12.927
75450ION    CL-43855  23.527  22.704  13.942
75451ION    CL-43856  38.147  16.407   0.737
75452ION    CL-43857  12.506  42.672  10.320
75453ION    CL-43858   5.004  34.847  11.549
75454ION    CL-43859  41.442  37.477  14.836
75455ION    CL-43860  12.098  17.877  12.678
75456ION    CL-43861  34.453   6.104  11.540
75457ION    CL-43862  42.298  28.756   2.880
75458ION    CL-43863  20.873  34.818   2.380
75459ION    CL-43864  39.355   7.238  10.487
75460ION    CL-43865  27.227   5.602   4.300
75461ION    CL-43866  32.634  44.282   4.166
75462ION    CL-43867  30.090  11.822  10.721
75463ION    CL-43868  30.404  37.516  14.842
75464ION    CL-43869  17.876  29.352   2.205
75465ION    CL-43870  35.396   1.218   0.318
75466ION    CL-43871  15.080   6.702   4.462
75467ION    CL-43872   5.553  38.655  10.680
75468ION    CL-43873   8.366  24.196   2.177
75469ION    CL-43874  41.874  41.368  11.135
75470ION    CL-43875  38.683  43.519   4.998
75471ION    CL-43876   9.327   1.447  11.662
75472ION    CL-43877   2.868  22.664   0.178
75473ION    CL-43878  32.849  30.149  13.591
75474ION    CL-43879  28.692   2.686  14.160
75475ION    CL-43880  19.525  32.596   1.519
75476ION    CL-43881  39.293   7.956  11.013
75477ION    CL-43882  21.728  21.281   2.817
75478ION    CL-43883   4.863  28.736   3.686
75479ION    CL-43884  20.364  18.310  12.362
75480ION    CL-43885   3.254  22.442  13.395
75481ION    CL-43886  19.948   5.697  14.906
75482ION    CL-43887  33.039  44.789  10.854
75483ION    CL-43888  34.490  15.591   1.390
75484ION    CL-43889  19.835  38.968   2.105
75485ION    CL-43890   4.513  29.764   2.395
75486ION    CL-43891   5.741  37.649  13.903
75487ION    CL-43892  37.636   4.650  14.199
75488ION    CL-43893  28.091  28.902  13.066
75489ION    CL-43894  19.731  20.482   3.121
75490ION    CL-43895   9.232  44.873   4.526
75491ION    CL-43896  16.629   9.157   0.886
75492ION    CL-43897  39.369   7.168   5.072
75493ION    CL-43898  14.284   2.794   2.688
75494ION    CL-43899  33.626  44.970   3.150
75495ION    CL-43900  27.005  30.303   4.136
75496ION    CL-43901  26.122  35.708  14.256
75497ION    CL-43902  24.473   7.577   1.651
75498ION    CL-43903  35.581  11.706  13.026
75499ION    CL-43904   4.500   3.741  13.551
75500ION    CL-43905  32.827  15.909  12.232
75501ION    CL-43906   4.164  40.351  12.319
75502ION    CL-43907   6.351  39.598   3.591
75503ION    CL-43908  21.060   5.561  10.469
75504ION    CL-43909  32.895  28.181  12.318
75505ION    CL-43910  31.552  24.682   0.121
75506ION    CL-43911  10.341  12.599   2.356
75507ION    CL-43912  23.950  12.390  14.508
75508ION    CL-43913  20.125  27.410  10.669
75509ION    CL-43914   4.477  31.512   5.036
75510ION    CL-43915  44.586  42.818   2.381
75511ION    CL-43916  39.423  33.753  10.728
75512ION    CL-43917  43.324  31.346   3.107
75513ION    CL-43918  32.714  14.638  11.686
75514ION    CL-43919  44.553  23.949  11.324
75515ION    CL-43920  11.291   8.615  14.746
75516ION    CL-43921  43.338  41.037   3.498
75517ION    CL-43922  18.768  34.314  10.955
75518ION    CL-43923  22.648  14.941   4.920
75519ION    CL-43924  16.516   6.987   5.307
75520ION    CL-43925  44.386  39.733   0.435
75521ION    CL-43926  22.200  14.754  10.989
75522ION    CL-43927  32.474  12.416   4.808
75523ION    CL-43928  39.909  26.886   1.333
75524ION    CL-43929  35.177   8.879   2.719
75525ION    CL-43930  10.768  17.504  14.023
75526ION    CL-43931  29.549   5.752  10.836
75527ION    CL-43932  32.293  33.500  12.607
75528ION    CL-43933  35.477  24.725   4.153
75529ION    CL-43934   6.091   8.544   4.771
75530ION    CL-43935  14.991  43.253  12.655
75531ION    CL-43936  10.836  10.566   0.062
75532ION    CL-43937   9.680  14.844   5.068
75533ION    CL-43938  33.634  11.198   1.763
75534ION    CL-43939  35.169  31.514  12.521
75535ION    CL-43940   6.618  26.139  14.480
75536ION    CL-43941  27.448   5.994   2.717
75537ION    CL-43942  29.571  40.934  12.523
75538ION    CL-43943  17.673  28.174   2.816
75539ION    CL-43944  32.833   3.365   0.982
75540ION    CL-43945   7.949  29.642  11.751
75541ION    CL-43946  16.843  13.130   2.790
75542ION    CL-43947   1.622   3.659   0.818
75543ION    CL-43948  30.369  31.731   1.804
75544ION    CL-43949  17.327  35.730   3.183
75545ION    CL-43950  42.186  26.271   2.730
75546ION    CL-43951  40.499  38.933   1.593
75547ION    CL-43952  20.073  29.393  12.162
75548ION    CL-43953   6.468  23.634  11.075
75549ION    CL-43954  36.752   0.673   0.516
75550ION    CL-43955   8.473  34.187  11.084
75551ION    CL-43956  12.146  25.674  12.850
75552ION    CL-43957  20.235  29.050   3.637
75553ION    CL-43958  42.162  40.501  10.729
75554ION    CL-43959  18.576  23.754   0.716
75555ION    CL-43960  32.671  30.768   3.155
75556ION    CL-43961  23.963   0.583  12.840
75557ION    CL-43962  15.223  13.372   4.677
75558ION    CL-43963   2.391   1.967   2.676
75559ION    CL-43964   4.035  28.010   3.298
75560ION    CL-43965  34.723  12.293  12.799
75561ION    CL-43966  40.574   8.875   3.120
75562ION    CL-43967  37.419   8.618  14.515
75563ION    CL-43968  33.055  43.384  11.466
75564ION    CL-43969  44.872  34.819   1.318
75565ION    CL-43970  42.590  41.061   4.351
75566ION    CL-43971  41.758  30.495   4.126
75567ION    CL-43972  12.809  44.217   2.251
75568ION    CL-43973  29.078  32.100  13.397
75569ION    CL-43974  16.906  24.397  14.528
75570ION    CL-43975  43.354  12.103   3.930
75571ION    CL-43976  32.891   2.045  11.725
75572ION    CL-43977  43.071   9.521  12.387
75573ION    CL-43978  26.222  19.965   3.572
75574ION    CL-43979  11.600  23.039   4.101
75575ION    CL-43980   7.450  21.216   0.058
75576ION    CL-43981  19.269   1.121  12.807
75577ION    CL-43982  24.162  23.276  11.526
75578ION    CL-43983  24.314   4.643   2.567
75579ION    CL-43984  11.180   1.398   2.831
75580ION    CL-43985  40.980   1.301  10.931
75581ION    CL-43986  31.895   2.460   0.829
75582ION    CL-43987  14.803  10.197   1.393
75583ION    CL-43988  16.773  22.135   0.439
75584ION    CL-43989  24.286  28.636  11.243
75585ION    CL-43990   4.183  23.349  14.292
75586ION    CL-43991   2.427  34.412   0.293
75587ION    CL-43992  13.279  15.219  11.417
  45.00000  45.00000  15.00000
